LAMMPS (12 Dec 2018)
Lattice spacing in x,y,z = 4 4 4
Created orthogonal box = (0 0 0) to (68 68 68)
  1 by 1 by 2 MPI processor grid
Created 19652 atoms
  Time spent = 0.00110698 secs
Setting atom values ...
  417 settings made for type/fraction
Neighbor list info ...
  update every 1 steps, delay 0 steps, check no
  max neighbors/atom: 2000, page size: 100000
  master list distance cutoff = 8.5
  ghost atom cutoff = 8.5
  binsize = 4.25, bins = 16 16 16
  1 neighbor lists, perpetual/occasional/extra = 1 0 0
  (1) pair eam/alloy, perpetual
      attributes: half, newton on
      pair build: half/bin/atomonly/newton
      stencil: half/bin/3d/newton
      bin: standard
Setting up Verlet run ...
  Unit style    : metal
  Current step  : 0
  Time step     : 0.001
Per MPI rank memory allocation (min/avg/max) = 11.15 | 11.15 | 11.15 Mbytes
Step Temp Press TotEng PotEng Enthalpy 
       0          300   -111089.58    -76248.48   -77010.508   -98050.147 
    1000    184.78065   -94156.728   -76248.444   -76717.804   -94726.987 
Loop time of 79.0066 on 2 procs for 1000 steps with 19652 atoms

Performance: 1.094 ns/day, 21.946 hours/ns, 12.657 timesteps/s
92.6% CPU use with 2 MPI tasks x no OpenMP threads

MPI task timing breakdown:
Section |  min time  |  avg time  |  max time  |%varavg| %total
---------------------------------------------------------------
Pair    | 43.731     | 44.124     | 44.517     |   5.9 | 55.85
Neigh   | 27.719     | 27.804     | 27.89      |   1.6 | 35.19
Comm    | 6.2467     | 6.7379     | 7.2292     |  18.9 |  8.53
Output  | 0.00010014 | 0.00011611 | 0.00013208 |   0.0 |  0.00
Modify  | 0.16691    | 0.16927    | 0.17163    |   0.6 |  0.21
Other   |            | 0.1713     |            |       |  0.22

Nlocal:    9826 ave 9859 max 9793 min
Histogram: 1 0 0 0 0 0 0 0 0 1
Nghost:    14207.5 ave 14238 max 14177 min
Histogram: 1 0 0 0 0 0 0 0 0 1
Neighs:    784514 ave 787483 max 781544 min
Histogram: 1 0 0 0 0 0 0 0 0 1

Total # of neighbors = 1569027
Ave neighs/atom = 79.8406
Neighbor list builds = 1000
Dangerous builds not checked
Setting up Verlet run ...
  Unit style    : metal
  Current step  : 1000
  Time step     : 0.001
Per MPI rank memory allocation (min/avg/max) = 11.15 | 11.15 | 11.15 Mbytes
Step Temp Press TotEng PotEng Enthalpy 
    1000    184.78065   -94156.728   -76248.444   -76717.804   -94726.987 
    2000    301.39652   -85.655108   -76455.609   -77221.184   -76471.428 
Loop time of 149.167 on 2 procs for 1000 steps with 19652 atoms

Performance: 0.579 ns/day, 41.435 hours/ns, 6.704 timesteps/s
72.0% CPU use with 2 MPI tasks x no OpenMP threads

MPI task timing breakdown:
Section |  min time  |  avg time  |  max time  |%varavg| %total
---------------------------------------------------------------
Pair    | 80.572     | 81.029     | 81.485     |   5.1 | 54.32
Neigh   | 32.984     | 34.39      | 35.795     |  24.0 | 23.05
Comm    | 30.672     | 31.954     | 33.236     |  22.7 | 21.42
Output  | 8.3923e-05 | 0.00011146 | 0.000139   |   0.0 |  0.00
Modify  | 1.2805     | 1.6087     | 1.9369     |  25.9 |  1.08
Other   |            | 0.1856     |            |       |  0.12

Nlocal:    9826 ave 9856 max 9796 min
Histogram: 1 0 0 0 0 0 0 0 0 1
Nghost:    14211 ave 14241 max 14181 min
Histogram: 1 0 0 0 0 0 0 0 0 1
Neighs:    855220 ave 867701 max 842738 min
Histogram: 1 0 0 0 0 0 0 0 0 1

Total # of neighbors = 1710439
Ave neighs/atom = 87.0364
Neighbor list builds = 1000
Dangerous builds not checked
Setting up Verlet run ...
  Unit style    : metal
  Current step  : 2000
  Time step     : 0.001
Per MPI rank memory allocation (min/avg/max) = 11.15 | 11.15 | 11.15 Mbytes
Step Temp Press TotEng PotEng Enthalpy 
    2000    301.39652   -85.655108   -76455.609   -77221.184   -76471.428 
   10000    2442.8728   -943.68529   -60782.659   -66987.778   -60993.833 
Loop time of 1529.73 on 2 procs for 8000 steps with 19652 atoms

Performance: 0.452 ns/day, 53.115 hours/ns, 5.230 timesteps/s
67.7% CPU use with 2 MPI tasks x no OpenMP threads

MPI task timing breakdown:
Section |  min time  |  avg time  |  max time  |%varavg| %total
---------------------------------------------------------------
Pair    | 621.74     | 623.14     | 624.55     |   5.6 | 40.74
Neigh   | 251.58     | 253.5      | 255.43     |  12.1 | 16.57
Comm    | 612.59     | 619.33     | 626.06     |  27.1 | 40.49
Output  | 5.6028e-05 | 7.6532e-05 | 9.7036e-05 |   0.0 |  0.00
Modify  | 25.068     | 32.317     | 39.565     | 127.5 |  2.11
Other   |            | 1.436      |            |       |  0.09

Nlocal:    9826 ave 9832 max 9820 min
Histogram: 1 0 0 0 0 0 0 0 0 1
Nghost:    12478.5 ave 12496 max 12461 min
Histogram: 1 0 0 0 0 0 0 0 0 1
Neighs:    689832 ave 689938 max 689725 min
Histogram: 1 0 0 0 0 0 0 0 0 1

Total # of neighbors = 1379663
Ave neighs/atom = 70.2047
Neighbor list builds = 8000
Dangerous builds not checked
Setting up Verlet run ...
  Unit style    : metal
  Current step  : 10000
  Time step     : 0.001
Per MPI rank memory allocation (min/avg/max) = 11.15 | 11.15 | 11.15 Mbytes
Step Temp Press TotEng PotEng Enthalpy 
   10000    2442.8728   -943.68529   -60782.659   -66987.778   -60993.833 
   20000    2449.3386    390.54691   -60640.679   -66862.222   -60553.069 
   40000    2442.7826   -1533.3607   -60619.007   -66823.897   -60963.389 
Loop time of 4047.97 on 2 procs for 30000 steps with 19652 atoms

Performance: 0.640 ns/day, 37.481 hours/ns, 7.411 timesteps/s
78.7% CPU use with 2 MPI tasks x no OpenMP threads

MPI task timing breakdown:
Section |  min time  |  avg time  |  max time  |%varavg| %total
---------------------------------------------------------------
Pair    | 1945.8     | 1960.7     | 1975.5     |  33.5 | 48.44
Neigh   | 1053.2     | 1061.3     | 1069.3     |  24.6 | 26.22
Comm    | 841.69     | 857.33     | 872.96     |  53.4 | 21.18
Output  | 1.6989     | 1.699      | 1.699      |   0.0 |  0.04
Modify  | 151.59     | 160.41     | 169.23     |  69.7 |  3.96
Other   |            | 6.594      |            |       |  0.16

Nlocal:    9826 ave 9861 max 9791 min
Histogram: 1 0 0 0 0 0 0 0 0 1
Nghost:    12511 ave 12531 max 12491 min
Histogram: 1 0 0 0 0 0 0 0 0 1
Neighs:    687278 ave 690999 max 683556 min
Histogram: 1 0 0 0 0 0 0 0 0 1

Total # of neighbors = 1374555
Ave neighs/atom = 69.9448
Neighbor list builds = 30000
Dangerous builds not checked
Setting up Verlet run ...
  Unit style    : metal
  Current step  : 40000
  Time step     : 0.001
Per MPI rank memory allocation (min/avg/max) = 11.22 | 11.22 | 11.22 Mbytes
Step Temp Press TotEng PotEng Enthalpy 
   40000    2442.7826   -1533.3607   -60619.007   -66823.897   -60963.389 
   40495    2396.1796   -198.09448   -60901.465    -66987.98    -60945.77 
Loop time of 43.7991 on 2 procs for 495 steps with 19652 atoms

Performance: 0.976 ns/day, 24.579 hours/ns, 11.302 timesteps/s
95.4% CPU use with 2 MPI tasks x no OpenMP threads

MPI task timing breakdown:
Section |  min time  |  avg time  |  max time  |%varavg| %total
---------------------------------------------------------------
Pair    | 23.739     | 23.861     | 23.983     |   2.5 | 54.48
Neigh   | 16.813     | 17.041     | 17.269     |   5.5 | 38.91
Comm    | 2.0483     | 2.3994     | 2.7505     |  22.7 |  5.48
Output  | 8.7023e-05 | 0.000103   | 0.00011897 |   0.0 |  0.00
Modify  | 0.37567    | 0.38473    | 0.39379    |   1.5 |  0.88
Other   |            | 0.1128     |            |       |  0.26

Nlocal:    9826 ave 9832 max 9820 min
Histogram: 1 0 0 0 0 0 0 0 0 1
Nghost:    12521.5 ave 12548 max 12495 min
Histogram: 1 0 0 0 0 0 0 0 0 1
Neighs:    689859 ave 689978 max 689740 min
Histogram: 1 0 0 0 0 0 0 0 0 1

Total # of neighbors = 1379718
Ave neighs/atom = 70.2075
Neighbor list builds = 495
Dangerous builds not checked
Setting up Verlet run ...
  Unit style    : metal
  Current step  : 40495
  Time step     : 0.001
Per MPI rank memory allocation (min/avg/max) = 11.22 | 11.22 | 11.22 Mbytes
Step Temp Press TotEng PotEng Enthalpy 
   40495    2396.1796   -198.09448   -60901.465    -66987.98    -60945.77 
   60000    2396.6054   -207.38117   -61036.831   -67124.427   -61083.074 
Loop time of 1937.49 on 2 procs for 19505 steps with 19652 atoms

Performance: 0.870 ns/day, 27.592 hours/ns, 10.067 timesteps/s
92.5% CPU use with 2 MPI tasks x no OpenMP threads

MPI task timing breakdown:
Section |  min time  |  avg time  |  max time  |%varavg| %total
---------------------------------------------------------------
Pair    | 1016.5     | 1020.7     | 1024.9     |  13.1 | 52.68
Neigh   | 695        | 697.12     | 699.24     |   8.0 | 35.98
Comm    | 170.09     | 176.65     | 183.21     |  49.4 |  9.12
Output  | 0.046294   | 0.046312   | 0.04633    |   0.0 |  0.00
Modify  | 38.125     | 38.552     | 38.978     |   6.9 |  1.99
Other   |            | 4.436      |            |       |  0.23

Nlocal:    9826 ave 9837 max 9815 min
Histogram: 1 0 0 0 0 0 0 0 0 1
Nghost:    12528 ave 12529 max 12527 min
Histogram: 1 0 0 0 0 0 0 0 0 1
Neighs:    692250 ave 694565 max 689934 min
Histogram: 1 0 0 0 0 0 0 0 0 1

Total # of neighbors = 1384499
Ave neighs/atom = 70.4508
Neighbor list builds = 19505
Dangerous builds not checked
Setting up Verlet run ...
  Unit style    : metal
  Current step  : 60000
  Time step     : 0.001
Per MPI rank memory allocation (min/avg/max) = 11.24 | 11.24 | 11.24 Mbytes
Step Temp Press TotEng PotEng Enthalpy 
   60000    2396.6054   -207.38117   -61036.831   -67124.427   -61083.074 
   60495    2366.7276   -282.43258   -61119.759   -67131.463    -61182.72 
Loop time of 44.7282 on 2 procs for 495 steps with 19652 atoms

Performance: 0.956 ns/day, 25.100 hours/ns, 11.067 timesteps/s
99.1% CPU use with 2 MPI tasks x no OpenMP threads

MPI task timing breakdown:
Section |  min time  |  avg time  |  max time  |%varavg| %total
---------------------------------------------------------------
Pair    | 24.2       | 24.349     | 24.499     |   3.0 | 54.44
Neigh   | 18.384     | 18.69      | 18.996     |   7.1 | 41.79
Comm    | 0.98985    | 1.1457     | 1.3016     |  14.6 |  2.56
Output  | 7.6056e-05 | 0.00010955 | 0.00014305 |   0.0 |  0.00
Modify  | 0.41957    | 0.42555    | 0.43154    |   0.9 |  0.95
Other   |            | 0.1176     |            |       |  0.26

Nlocal:    9826 ave 9847 max 9805 min
Histogram: 1 0 0 0 0 0 0 0 0 1
Nghost:    12542.5 ave 12551 max 12534 min
Histogram: 1 0 0 0 0 0 0 0 0 1
Neighs:    692197 ave 694219 max 690175 min
Histogram: 1 0 0 0 0 0 0 0 0 1

Total # of neighbors = 1384394
Ave neighs/atom = 70.4455
Neighbor list builds = 495
Dangerous builds not checked
Setting up Verlet run ...
  Unit style    : metal
  Current step  : 60495
  Time step     : 0.001
Per MPI rank memory allocation (min/avg/max) = 11.24 | 11.24 | 11.24 Mbytes
Step Temp Press TotEng PotEng Enthalpy 
   60495    2366.7276   -282.43258   -61119.759   -67131.463    -61182.72 
   80000    2361.7444    -385.6314   -61279.215   -67278.261   -61364.871 
Loop time of 1735.83 on 2 procs for 19505 steps with 19652 atoms

Performance: 0.971 ns/day, 24.721 hours/ns, 11.237 timesteps/s
99.4% CPU use with 2 MPI tasks x no OpenMP threads

MPI task timing breakdown:
Section |  min time  |  avg time  |  max time  |%varavg| %total
---------------------------------------------------------------
Pair    | 941.39     | 945.09     | 948.79     |  12.1 | 54.45
Neigh   | 713.27     | 713.45     | 713.63     |   0.7 | 41.10
Comm    | 53.487     | 56.977     | 60.467     |  46.2 |  3.28
Output  | 0.050005   | 0.05003    | 0.050055   |   0.0 |  0.00
Modify  | 15.781     | 15.788     | 15.795     |   0.2 |  0.91
Other   |            | 4.473      |            |       |  0.26

Nlocal:    9826 ave 9835 max 9817 min
Histogram: 1 0 0 0 0 0 0 0 0 1
Nghost:    12519.5 ave 12547 max 12492 min
Histogram: 1 0 0 0 0 0 0 0 0 1
Neighs:    695014 ave 695627 max 694400 min
Histogram: 1 0 0 0 0 0 0 0 0 1

Total # of neighbors = 1390027
Ave neighs/atom = 70.7321
Neighbor list builds = 19505
Dangerous builds not checked
Setting up Verlet run ...
  Unit style    : metal
  Current step  : 80000
  Time step     : 0.001
Per MPI rank memory allocation (min/avg/max) = 11.25 | 11.25 | 11.25 Mbytes
Step Temp Press TotEng PotEng Enthalpy 
   80000    2361.7444    -385.6314   -61279.215   -67278.261   -61364.871 
   80495    2302.9678    1001.9766   -61518.535   -67368.283   -61296.591 
Loop time of 43.837 on 2 procs for 495 steps with 19652 atoms

Performance: 0.976 ns/day, 24.600 hours/ns, 11.292 timesteps/s
97.7% CPU use with 2 MPI tasks x no OpenMP threads

MPI task timing breakdown:
Section |  min time  |  avg time  |  max time  |%varavg| %total
---------------------------------------------------------------
Pair    | 23.577     | 23.854     | 24.132     |   5.7 | 54.42
Neigh   | 17.675     | 17.799     | 17.923     |   2.9 | 40.60
Comm    | 1.5172     | 1.6613     | 1.8055     |  11.2 |  3.79
Output  | 7.6056e-05 | 9.7036e-05 | 0.00011802 |   0.0 |  0.00
Modify  | 0.39641    | 0.4042     | 0.41199    |   1.2 |  0.92
Other   |            | 0.1178     |            |       |  0.27

Nlocal:    9826 ave 9827 max 9825 min
Histogram: 1 0 0 0 0 0 0 0 0 1
Nghost:    12570.5 ave 12585 max 12556 min
Histogram: 1 0 0 0 0 0 0 0 0 1
Neighs:    696710 ave 698199 max 695220 min
Histogram: 1 0 0 0 0 0 0 0 0 1

Total # of neighbors = 1393419
Ave neighs/atom = 70.9047
Neighbor list builds = 495
Dangerous builds not checked
Setting up Verlet run ...
  Unit style    : metal
  Current step  : 80495
  Time step     : 0.001
Per MPI rank memory allocation (min/avg/max) = 11.25 | 11.25 | 11.25 Mbytes
Step Temp Press TotEng PotEng Enthalpy 
   80495    2302.9678    1001.9766   -61518.535   -67368.283   -61296.591 
  100000    2300.3349   -131.34266    -61631.74   -67474.801    -61660.78 
Loop time of 1755.49 on 2 procs for 19505 steps with 19652 atoms

Performance: 0.960 ns/day, 25.001 hours/ns, 11.111 timesteps/s
99.0% CPU use with 2 MPI tasks x no OpenMP threads

MPI task timing breakdown:
Section |  min time  |  avg time  |  max time  |%varavg| %total
---------------------------------------------------------------
Pair    | 956.9      | 957.12     | 957.35     |   0.7 | 54.52
Neigh   | 712.25     | 719.91     | 727.58     |  28.6 | 41.01
Comm    | 50.086     | 57.679     | 65.272     | 100.0 |  3.29
Output  | 0.059367   | 0.059384   | 0.059401   |   0.0 |  0.00
Modify  | 15.977     | 16.079     | 16.181     |   2.5 |  0.92
Other   |            | 4.636      |            |       |  0.26

Nlocal:    9826 ave 9846 max 9806 min
Histogram: 1 0 0 0 0 0 0 0 0 1
Nghost:    12568.5 ave 12589 max 12548 min
Histogram: 1 0 0 0 0 0 0 0 0 1
Neighs:    698154 ave 700030 max 696277 min
Histogram: 1 0 0 0 0 0 0 0 0 1

Total # of neighbors = 1396307
Ave neighs/atom = 71.0516
Neighbor list builds = 19505
Dangerous builds not checked
Setting up Verlet run ...
  Unit style    : metal
  Current step  : 100000
  Time step     : 0.001
Per MPI rank memory allocation (min/avg/max) = 11.27 | 11.27 | 11.27 Mbytes
Step Temp Press TotEng PotEng Enthalpy 
  100000    2300.3349   -131.34266    -61631.74   -67474.801    -61660.78 
  100495    2265.0819    811.38529   -61850.091   -67603.605   -61671.272 
Loop time of 42.1406 on 2 procs for 495 steps with 19652 atoms

Performance: 1.015 ns/day, 23.648 hours/ns, 11.746 timesteps/s
99.1% CPU use with 2 MPI tasks x no OpenMP threads

MPI task timing breakdown:
Section |  min time  |  avg time  |  max time  |%varavg| %total
---------------------------------------------------------------
Pair    | 22.837     | 22.868     | 22.899     |   0.6 | 54.27
Neigh   | 17.36      | 17.655     | 17.951     |   7.0 | 41.90
Comm    | 0.83971    | 1.1137     | 1.3877     |  26.0 |  2.64
Output  | 9.2983e-05 | 0.00012195 | 0.00015092 |   0.0 |  0.00
Modify  | 0.38706    | 0.39469    | 0.40232    |   1.2 |  0.94
Other   |            | 0.1088     |            |       |  0.26

Nlocal:    9826 ave 9836 max 9816 min
Histogram: 1 0 0 0 0 0 0 0 0 1
Nghost:    12603.5 ave 12627 max 12580 min
Histogram: 1 0 0 0 0 0 0 0 0 1
Neighs:    700173 ave 701986 max 698360 min
Histogram: 1 0 0 0 0 0 0 0 0 1

Total # of neighbors = 1400346
Ave neighs/atom = 71.2572
Neighbor list builds = 495
Dangerous builds not checked
Setting up Verlet run ...
  Unit style    : metal
  Current step  : 100495
  Time step     : 0.001
Per MPI rank memory allocation (min/avg/max) = 11.27 | 11.27 | 11.27 Mbytes
Step Temp Press TotEng PotEng Enthalpy 
  100495    2265.0819    811.38529   -61850.091   -67603.605   -61671.272 
  120000    2228.0973    410.14314   -62011.236   -67670.806   -61920.993 
Loop time of 1760.07 on 2 procs for 19505 steps with 19652 atoms

Performance: 0.957 ns/day, 25.066 hours/ns, 11.082 timesteps/s
99.4% CPU use with 2 MPI tasks x no OpenMP threads

MPI task timing breakdown:
Section |  min time  |  avg time  |  max time  |%varavg| %total
---------------------------------------------------------------
Pair    | 959.89     | 961.82     | 963.74     |   6.2 | 54.65
Neigh   | 720.59     | 721.39     | 722.18     |   3.0 | 40.99
Comm    | 53.363     | 56.17      | 58.978     |  37.5 |  3.19
Output  | 0.054689   | 0.054712   | 0.054735   |   0.0 |  0.00
Modify  | 16.057     | 16.096     | 16.134     |   1.0 |  0.91
Other   |            | 4.549      |            |       |  0.26

Nlocal:    9826 ave 9840 max 9812 min
Histogram: 1 0 0 0 0 0 0 0 0 1
Nghost:    12583 ave 12584 max 12582 min
Histogram: 1 0 0 0 0 0 0 0 0 1
Neighs:    701616 ave 703543 max 699689 min
Histogram: 1 0 0 0 0 0 0 0 0 1

Total # of neighbors = 1403232
Ave neighs/atom = 71.404
Neighbor list builds = 19505
Dangerous builds not checked
Setting up Verlet run ...
  Unit style    : metal
  Current step  : 120000
  Time step     : 0.001
Per MPI rank memory allocation (min/avg/max) = 11.28 | 11.28 | 11.28 Mbytes
Step Temp Press TotEng PotEng Enthalpy 
  120000    2228.0973    410.14314   -62011.236   -67670.806   -61920.993 
  120495    2215.7667    1580.3736   -62162.927   -67791.177   -61816.317 
Loop time of 43.8881 on 2 procs for 495 steps with 19652 atoms

Performance: 0.974 ns/day, 24.629 hours/ns, 11.279 timesteps/s
99.5% CPU use with 2 MPI tasks x no OpenMP threads

MPI task timing breakdown:
Section |  min time  |  avg time  |  max time  |%varavg| %total
---------------------------------------------------------------
Pair    | 23.391     | 23.989     | 24.587     |  12.2 | 54.66
Neigh   | 17.401     | 18.251     | 19.102     |  19.9 | 41.59
Comm    | 0.8461     | 1.1109     | 1.3758     |  25.1 |  2.53
Output  | 8.7023e-05 | 0.00010908 | 0.00013113 |   0.0 |  0.00
Modify  | 0.40553    | 0.41973    | 0.43394    |   2.2 |  0.96
Other   |            | 0.1168     |            |       |  0.27

Nlocal:    9826 ave 9846 max 9806 min
Histogram: 1 0 0 0 0 0 0 0 0 1
Nghost:    12597 ave 12606 max 12588 min
Histogram: 1 0 0 0 0 0 0 0 0 1
Neighs:    703502 ave 705838 max 701166 min
Histogram: 1 0 0 0 0 0 0 0 0 1

Total # of neighbors = 1407004
Ave neighs/atom = 71.596
Neighbor list builds = 495
Dangerous builds not checked
Setting up Verlet run ...
  Unit style    : metal
  Current step  : 120495
  Time step     : 0.001
Per MPI rank memory allocation (min/avg/max) = 11.28 | 11.28 | 11.28 Mbytes
Step Temp Press TotEng PotEng Enthalpy 
  120495    2215.7667    1580.3736   -62162.927   -67791.177   -61816.317 
  140000    2192.7488    1083.0675   -62323.146   -67892.928   -62086.124 
Loop time of 1772.06 on 2 procs for 19505 steps with 19652 atoms

Performance: 0.951 ns/day, 25.237 hours/ns, 11.007 timesteps/s
99.0% CPU use with 2 MPI tasks x no OpenMP threads

MPI task timing breakdown:
Section |  min time  |  avg time  |  max time  |%varavg| %total
---------------------------------------------------------------
Pair    | 970.75     | 972.54     | 974.33     |   5.7 | 54.88
Neigh   | 712.52     | 712.57     | 712.62     |   0.2 | 40.21
Comm    | 64.475     | 66.304     | 68.133     |  22.5 |  3.74
Output  | 0.06119    | 0.061207   | 0.061223   |   0.0 |  0.00
Modify  | 15.93      | 15.935     | 15.94      |   0.1 |  0.90
Other   |            | 4.655      |            |       |  0.26

Nlocal:    9826 ave 9852 max 9800 min
Histogram: 1 0 0 0 0 0 0 0 0 1
Nghost:    12614.5 ave 12636 max 12593 min
Histogram: 1 0 0 0 0 0 0 0 0 1
Neighs:    705546 ave 708124 max 702968 min
Histogram: 1 0 0 0 0 0 0 0 0 1

Total # of neighbors = 1411092
Ave neighs/atom = 71.804
Neighbor list builds = 19505
Dangerous builds not checked
Setting up Verlet run ...
  Unit style    : metal
  Current step  : 140000
  Time step     : 0.001
Per MPI rank memory allocation (min/avg/max) = 11.28 | 11.28 | 11.28 Mbytes
Step Temp Press TotEng PotEng Enthalpy 
  140000    2192.7488    1083.0675   -62323.146   -67892.928   -62086.124 
  140495    2161.6957    776.87825   -62592.489   -68083.393   -62423.178 
Loop time of 41.9478 on 2 procs for 495 steps with 19652 atoms

Performance: 1.020 ns/day, 23.540 hours/ns, 11.800 timesteps/s
98.5% CPU use with 2 MPI tasks x no OpenMP threads

MPI task timing breakdown:
Section |  min time  |  avg time  |  max time  |%varavg| %total
---------------------------------------------------------------
Pair    | 22.688     | 22.858     | 23.027     |   3.5 | 54.49
Neigh   | 16.618     | 17.139     | 17.659     |  12.6 | 40.86
Comm    | 1.0775     | 1.4388     | 1.8        |  30.1 |  3.43
Output  | 8.893e-05  | 0.00011957 | 0.0001502  |   0.0 |  0.00
Modify  | 0.38327    | 0.38945    | 0.39564    |   1.0 |  0.93
Other   |            | 0.123      |            |       |  0.29

Nlocal:    9826 ave 9837 max 9815 min
Histogram: 1 0 0 0 0 0 0 0 0 1
Nghost:    12650.5 ave 12653 max 12648 min
Histogram: 1 0 0 0 0 0 0 0 0 1
Neighs:    708269 ave 708788 max 707750 min
Histogram: 1 0 0 0 0 0 0 0 0 1

Total # of neighbors = 1416538
Ave neighs/atom = 72.0811
Neighbor list builds = 495
Dangerous builds not checked
Setting up Verlet run ...
  Unit style    : metal
  Current step  : 140495
  Time step     : 0.001
Per MPI rank memory allocation (min/avg/max) = 11.28 | 11.28 | 11.28 Mbytes
Step Temp Press TotEng PotEng Enthalpy 
  140495    2161.6957    776.87825   -62592.489   -68083.393   -62423.178 
  160000    2144.7933   -655.19674   -62686.818   -68134.788   -62829.669 
Loop time of 1745.67 on 2 procs for 19505 steps with 19652 atoms

Performance: 0.965 ns/day, 24.861 hours/ns, 11.173 timesteps/s
98.5% CPU use with 2 MPI tasks x no OpenMP threads

MPI task timing breakdown:
Section |  min time  |  avg time  |  max time  |%varavg| %total
---------------------------------------------------------------
Pair    | 956.32     | 959.52     | 962.72     |  10.3 | 54.97
Neigh   | 703.05     | 703.77     | 704.49     |   2.7 | 40.32
Comm    | 58.014     | 61.996     | 65.979     |  50.6 |  3.55
Output  | 0.061698   | 0.061714   | 0.06173    |   0.0 |  0.00
Modify  | 15.647     | 15.663     | 15.68      |   0.4 |  0.90
Other   |            | 4.655      |            |       |  0.27

Nlocal:    9826 ave 9860 max 9792 min
Histogram: 1 0 0 0 0 0 0 0 0 1
Nghost:    12636 ave 12649 max 12623 min
Histogram: 1 0 0 0 0 0 0 0 0 1
Neighs:    708224 ave 712635 max 703813 min
Histogram: 1 0 0 0 0 0 0 0 0 1

Total # of neighbors = 1416448
Ave neighs/atom = 72.0765
Neighbor list builds = 19505
Dangerous builds not checked
Setting up Verlet run ...
  Unit style    : metal
  Current step  : 160000
  Time step     : 0.001
Per MPI rank memory allocation (min/avg/max) = 11.29 | 11.29 | 11.29 Mbytes
Step Temp Press TotEng PotEng Enthalpy 
  160000    2144.7933   -655.19674   -62686.818   -68134.788   -62829.669 
  160495     2110.759    569.19935   -62879.287   -68240.808   -62755.605 
Loop time of 43.6784 on 2 procs for 495 steps with 19652 atoms

Performance: 0.979 ns/day, 24.511 hours/ns, 11.333 timesteps/s
98.8% CPU use with 2 MPI tasks x no OpenMP threads

MPI task timing breakdown:
Section |  min time  |  avg time  |  max time  |%varavg| %total
---------------------------------------------------------------
Pair    | 23.423     | 23.843     | 24.262     |   8.6 | 54.59
Neigh   | 17.664     | 17.818     | 17.973     |   3.7 | 40.79
Comm    | 1.2238     | 1.4854     | 1.747      |  21.5 |  3.40
Output  | 7.2956e-05 | 9.3579e-05 | 0.0001142  |   0.0 |  0.00
Modify  | 0.40597    | 0.41466    | 0.42335    |   1.3 |  0.95
Other   |            | 0.1173     |            |       |  0.27

Nlocal:    9826 ave 9840 max 9812 min
Histogram: 1 0 0 0 0 0 0 0 0 1
Nghost:    12629 ave 12636 max 12622 min
Histogram: 1 0 0 0 0 0 0 0 0 1
Neighs:    710256 ave 711916 max 708597 min
Histogram: 1 0 0 0 0 0 0 0 0 1

Total # of neighbors = 1420513
Ave neighs/atom = 72.2834
Neighbor list builds = 495
Dangerous builds not checked
Setting up Verlet run ...
  Unit style    : metal
  Current step  : 160495
  Time step     : 0.001
Per MPI rank memory allocation (min/avg/max) = 11.29 | 11.29 | 11.29 Mbytes
Step Temp Press TotEng PotEng Enthalpy 
  160495     2110.759    569.19935   -62879.287   -68240.808   -62755.605 
  180000    2090.7918   -204.36749    -62990.93   -68301.731   -63035.305 
Loop time of 1731.8 on 2 procs for 19505 steps with 19652 atoms

Performance: 0.973 ns/day, 24.663 hours/ns, 11.263 timesteps/s
99.2% CPU use with 2 MPI tasks x no OpenMP threads

MPI task timing breakdown:
Section |  min time  |  avg time  |  max time  |%varavg| %total
---------------------------------------------------------------
Pair    | 943.14     | 944.65     | 946.17     |   4.9 | 54.55
Neigh   | 706.69     | 708.57     | 710.46     |   7.1 | 40.92
Comm    | 57.697     | 58.076     | 58.455     |   5.0 |  3.35
Output  | 0.045918   | 0.045935   | 0.045952   |   0.0 |  0.00
Modify  | 15.91      | 15.926     | 15.943     |   0.4 |  0.92
Other   |            | 4.525      |            |       |  0.26

Nlocal:    9826 ave 9847 max 9805 min
Histogram: 1 0 0 0 0 0 0 0 0 1
Nghost:    12599 ave 12609 max 12589 min
Histogram: 1 0 0 0 0 0 0 0 0 1
Neighs:    711241 ave 713268 max 709214 min
Histogram: 1 0 0 0 0 0 0 0 0 1

Total # of neighbors = 1422482
Ave neighs/atom = 72.3836
Neighbor list builds = 19505
Dangerous builds not checked
Setting up Verlet run ...
  Unit style    : metal
  Current step  : 180000
  Time step     : 0.001
Per MPI rank memory allocation (min/avg/max) = 11.3 | 11.3 | 11.3 Mbytes
Step Temp Press TotEng PotEng Enthalpy 
  180000    2090.7918   -204.36749    -62990.93   -68301.731   -63035.305 
  180495    2080.2305   -234.24616   -63064.884    -68348.86   -63115.715 
Loop time of 42.328 on 2 procs for 495 steps with 19652 atoms

Performance: 1.010 ns/day, 23.753 hours/ns, 11.694 timesteps/s
98.5% CPU use with 2 MPI tasks x no OpenMP threads

MPI task timing breakdown:
Section |  min time  |  avg time  |  max time  |%varavg| %total
---------------------------------------------------------------
Pair    | 22.935     | 23.046     | 23.156     |   2.3 | 54.45
Neigh   | 17.135     | 17.463     | 17.792     |   7.9 | 41.26
Comm    | 1.0801     | 1.3077     | 1.5354     |  19.9 |  3.09
Output  | 7.1049e-05 | 0.00010204 | 0.00013304 |   0.0 |  0.00
Modify  | 0.38968    | 0.39879    | 0.40789    |   1.4 |  0.94
Other   |            | 0.1126     |            |       |  0.27

Nlocal:    9826 ave 9837 max 9815 min
Histogram: 1 0 0 0 0 0 0 0 0 1
Nghost:    12635.5 ave 12646 max 12625 min
Histogram: 1 0 0 0 0 0 0 0 0 1
Neighs:    711605 ave 711763 max 711447 min
Histogram: 1 0 0 0 0 0 0 0 0 1

Total # of neighbors = 1423210
Ave neighs/atom = 72.4206
Neighbor list builds = 495
Dangerous builds not checked
Setting up Verlet run ...
  Unit style    : metal
  Current step  : 180495
  Time step     : 0.001
Per MPI rank memory allocation (min/avg/max) = 11.3 | 11.3 | 11.3 Mbytes
Step Temp Press TotEng PotEng Enthalpy 
  180495    2080.2305   -234.24616   -63064.884    -68348.86   -63115.715 
  200000    2060.3627    253.58631   -63233.334   -68466.843   -63178.474 
Loop time of 1721.5 on 2 procs for 19505 steps with 19652 atoms

Performance: 0.979 ns/day, 24.517 hours/ns, 11.330 timesteps/s
99.3% CPU use with 2 MPI tasks x no OpenMP threads

MPI task timing breakdown:
Section |  min time  |  avg time  |  max time  |%varavg| %total
---------------------------------------------------------------
Pair    | 933.53     | 940.38     | 947.22     |  22.3 | 54.63
Neigh   | 696.23     | 699.11     | 701.98     |  10.9 | 40.61
Comm    | 57.969     | 62.008     | 66.047     |  51.3 |  3.60
Output  | 0.055517   | 0.055528   | 0.055538   |   0.0 |  0.00
Modify  | 15.572     | 15.576     | 15.58      |   0.1 |  0.90
Other   |            | 4.383      |            |       |  0.25

Nlocal:    9826 ave 9831 max 9821 min
Histogram: 1 0 0 0 0 0 0 0 0 1
Nghost:    12660.5 ave 12661 max 12660 min
Histogram: 1 0 0 0 0 0 0 0 0 1
Neighs:    713678 ave 714528 max 712827 min
Histogram: 1 0 0 0 0 0 0 0 0 1

Total # of neighbors = 1427355
Ave neighs/atom = 72.6315
Neighbor list builds = 19505
Dangerous builds not checked
Setting up Verlet run ...
  Unit style    : metal
  Current step  : 200000
  Time step     : 0.001
Per MPI rank memory allocation (min/avg/max) = 11.3 | 11.3 | 11.3 Mbytes
Step Temp Press TotEng PotEng Enthalpy 
  200000    2060.3627    253.58631   -63233.334   -68466.843   -63178.474 
  200495    2006.9733    347.87573    -63504.61   -68602.505   -63429.588 
Loop time of 44.8138 on 2 procs for 495 steps with 19652 atoms

Performance: 0.954 ns/day, 25.148 hours/ns, 11.046 timesteps/s
99.7% CPU use with 2 MPI tasks x no OpenMP threads

MPI task timing breakdown:
Section |  min time  |  avg time  |  max time  |%varavg| %total
---------------------------------------------------------------
Pair    | 24.495     | 24.568     | 24.641     |   1.5 | 54.82
Neigh   | 17.813     | 18.112     | 18.412     |   7.0 | 40.42
Comm    | 1.2417     | 1.6145     | 1.9873     |  29.3 |  3.60
Output  | 7.6056e-05 | 0.000108   | 0.00013995 |   0.0 |  0.00
Modify  | 0.40695    | 0.40705    | 0.40716    |   0.0 |  0.91
Other   |            | 0.1118     |            |       |  0.25

Nlocal:    9826 ave 9835 max 9817 min
Histogram: 1 0 0 0 0 0 0 0 0 1
Nghost:    12710 ave 12741 max 12679 min
Histogram: 1 0 0 0 0 0 0 0 0 1
Neighs:    715515 ave 715966 max 715064 min
Histogram: 1 0 0 0 0 0 0 0 0 1

Total # of neighbors = 1431030
Ave neighs/atom = 72.8185
Neighbor list builds = 495
Dangerous builds not checked
Setting up Verlet run ...
  Unit style    : metal
  Current step  : 200495
  Time step     : 0.001
Per MPI rank memory allocation (min/avg/max) = 11.3 | 11.3 | 11.3 Mbytes
Step Temp Press TotEng PotEng Enthalpy 
  200495    2006.9733    347.87573    -63504.61   -68602.505   -63429.588 
  220000    2004.8606    1275.6388   -63604.429   -68696.958   -63330.009 
Loop time of 1758.84 on 2 procs for 19505 steps with 19652 atoms

Performance: 0.958 ns/day, 25.048 hours/ns, 11.090 timesteps/s
97.8% CPU use with 2 MPI tasks x no OpenMP threads

MPI task timing breakdown:
Section |  min time  |  avg time  |  max time  |%varavg| %total
---------------------------------------------------------------
Pair    | 939.5      | 941.44     | 943.38     |   6.3 | 53.53
Neigh   | 698.63     | 698.69     | 698.74     |   0.2 | 39.72
Comm    | 92.69      | 94.74      | 96.789     |  21.1 |  5.39
Output  | 0.066731   | 0.066745   | 0.066759   |   0.0 |  0.00
Modify  | 19.459     | 19.51      | 19.561     |   1.2 |  1.11
Other   |            | 4.393      |            |       |  0.25

Nlocal:    9826 ave 9840 max 9812 min
Histogram: 1 0 0 0 0 0 0 0 0 1
Nghost:    12704.5 ave 12716 max 12693 min
Histogram: 1 0 0 0 0 0 0 0 0 1
Neighs:    717868 ave 718106 max 717631 min
Histogram: 1 0 0 0 0 0 0 0 0 1

Total # of neighbors = 1435737
Ave neighs/atom = 73.0581
Neighbor list builds = 19505
Dangerous builds not checked
Setting up Verlet run ...
  Unit style    : metal
  Current step  : 220000
  Time step     : 0.001
Per MPI rank memory allocation (min/avg/max) = 11.3 | 11.3 | 11.3 Mbytes
Step Temp Press TotEng PotEng Enthalpy 
  220000    2004.8606    1275.6388   -63604.429   -68696.958   -63330.009 
  220495    1969.5455    733.13177   -63846.014   -68848.839   -63688.728 
Loop time of 41.4628 on 2 procs for 495 steps with 19652 atoms

Performance: 1.031 ns/day, 23.268 hours/ns, 11.938 timesteps/s
99.6% CPU use with 2 MPI tasks x no OpenMP threads

MPI task timing breakdown:
Section |  min time  |  avg time  |  max time  |%varavg| %total
---------------------------------------------------------------
Pair    | 22.221     | 22.389     | 22.556     |   3.5 | 54.00
Neigh   | 17.278     | 17.65      | 18.023     |   8.9 | 42.57
Comm    | 0.7028     | 0.91623    | 1.1296     |  22.3 |  2.21
Output  | 7.5102e-05 | 0.00010657 | 0.00013804 |   0.0 |  0.00
Modify  | 0.39503    | 0.40191    | 0.40879    |   1.1 |  0.97
Other   |            | 0.1053     |            |       |  0.25

Nlocal:    9826 ave 9839 max 9813 min
Histogram: 1 0 0 0 0 0 0 0 0 1
Nghost:    12723 ave 12741 max 12705 min
Histogram: 1 0 0 0 0 0 0 0 0 1
Neighs:    719534 ave 721316 max 717753 min
Histogram: 1 0 0 0 0 0 0 0 0 1

Total # of neighbors = 1439069
Ave neighs/atom = 73.2276
Neighbor list builds = 495
Dangerous builds not checked
Setting up Verlet run ...
  Unit style    : metal
  Current step  : 220495
  Time step     : 0.001
Per MPI rank memory allocation (min/avg/max) = 11.3 | 11.3 | 11.3 Mbytes
Step Temp Press TotEng PotEng Enthalpy 
  220495    1969.5455    733.13177   -63846.014   -68848.839   -63688.728 
  240000    1941.7398   -1862.4132   -63906.014   -68838.209   -64306.443 
Loop time of 1753.61 on 2 procs for 19505 steps with 19652 atoms

Performance: 0.961 ns/day, 24.974 hours/ns, 11.123 timesteps/s
98.7% CPU use with 2 MPI tasks x no OpenMP threads

MPI task timing breakdown:
Section |  min time  |  avg time  |  max time  |%varavg| %total
---------------------------------------------------------------
Pair    | 957.56     | 958.17     | 958.79     |   2.0 | 54.64
Neigh   | 719.57     | 719.64     | 719.72     |   0.3 | 41.04
Comm    | 54.092     | 54.879     | 55.665     |  10.6 |  3.13
Output  | 0.081      | 0.081013   | 0.081025   |   0.0 |  0.00
Modify  | 16.24      | 16.245     | 16.25      |   0.1 |  0.93
Other   |            | 4.587      |            |       |  0.26

Nlocal:    9826 ave 9848 max 9804 min
Histogram: 1 0 0 0 0 0 0 0 0 1
Nghost:    12726.5 ave 12741 max 12712 min
Histogram: 1 0 0 0 0 0 0 0 0 1
Neighs:    718196 ave 720492 max 715900 min
Histogram: 1 0 0 0 0 0 0 0 0 1

Total # of neighbors = 1436392
Ave neighs/atom = 73.0914
Neighbor list builds = 19505
Dangerous builds not checked
Setting up Verlet run ...
  Unit style    : metal
  Current step  : 240000
  Time step     : 0.001
Per MPI rank memory allocation (min/avg/max) = 11.31 | 11.31 | 11.31 Mbytes
Step Temp Press TotEng PotEng Enthalpy 
  240000    1941.7398   -1862.4132   -63906.014   -68838.209   -64306.443 
  240495    1899.3926   -1353.5955   -64194.253   -69018.883   -64484.216 
Loop time of 45.8897 on 2 procs for 495 steps with 19652 atoms

Performance: 0.932 ns/day, 25.752 hours/ns, 10.787 timesteps/s
95.4% CPU use with 2 MPI tasks x no OpenMP threads

MPI task timing breakdown:
Section |  min time  |  avg time  |  max time  |%varavg| %total
---------------------------------------------------------------
Pair    | 25.014     | 25.167     | 25.32      |   3.0 | 54.84
Neigh   | 18.225     | 18.467     | 18.71      |   5.6 | 40.24
Comm    | 1.3029     | 1.7185     | 2.1342     |  31.7 |  3.74
Output  | 8.7023e-05 | 0.00012147 | 0.00015593 |   0.0 |  0.00
Modify  | 0.40133    | 0.41466    | 0.428      |   2.1 |  0.90
Other   |            | 0.1223     |            |       |  0.27

Nlocal:    9826 ave 9835 max 9817 min
Histogram: 1 0 0 0 0 0 0 0 0 1
Nghost:    12682 ave 12702 max 12662 min
Histogram: 1 0 0 0 0 0 0 0 0 1
Neighs:    720882 ave 722610 max 719155 min
Histogram: 1 0 0 0 0 0 0 0 0 1

Total # of neighbors = 1441765
Ave neighs/atom = 73.3648
Neighbor list builds = 495
Dangerous builds not checked
Setting up Verlet run ...
  Unit style    : metal
  Current step  : 240495
  Time step     : 0.001
Per MPI rank memory allocation (min/avg/max) = 11.31 | 11.31 | 11.31 Mbytes
Step Temp Press TotEng PotEng Enthalpy 
  240495    1899.3926   -1353.5955   -64194.253   -69018.883   -64484.216 
  260000    1894.6982   -1236.9821   -64282.355   -69095.062   -64546.908 
Loop time of 1726.73 on 2 procs for 19505 steps with 19652 atoms

Performance: 0.976 ns/day, 24.591 hours/ns, 11.296 timesteps/s
99.0% CPU use with 2 MPI tasks x no OpenMP threads

MPI task timing breakdown:
Section |  min time  |  avg time  |  max time  |%varavg| %total
---------------------------------------------------------------
Pair    | 940.94     | 942.6      | 944.26     |   5.4 | 54.59
Neigh   | 707.67     | 712.19     | 716.71     |  16.9 | 41.25
Comm    | 48.683     | 51.603     | 54.523     |  40.7 |  2.99
Output  | 0.066542   | 0.066552   | 0.066563   |   0.0 |  0.00
Modify  | 15.705     | 15.792     | 15.878     |   2.2 |  0.91
Other   |            | 4.475      |            |       |  0.26

Nlocal:    9826 ave 9827 max 9825 min
Histogram: 1 0 0 0 0 0 0 0 0 1
Nghost:    12711.5 ave 12742 max 12681 min
Histogram: 1 0 0 0 0 0 0 0 0 1
Neighs:    721762 ave 722847 max 720676 min
Histogram: 1 0 0 0 0 0 0 0 0 1

Total # of neighbors = 1443523
Ave neighs/atom = 73.4543
Neighbor list builds = 19505
Dangerous builds not checked
Setting up Verlet run ...
  Unit style    : metal
  Current step  : 260000
  Time step     : 0.001
Per MPI rank memory allocation (min/avg/max) = 11.31 | 11.31 | 11.31 Mbytes
Step Temp Press TotEng PotEng Enthalpy 
  260000    1894.6982   -1236.9821   -64282.355   -69095.062   -64546.908 
  260495     1863.375   -368.57231   -64517.155   -69250.297   -64595.704 
Loop time of 41.7038 on 2 procs for 495 steps with 19652 atoms

Performance: 1.026 ns/day, 23.403 hours/ns, 11.869 timesteps/s
99.3% CPU use with 2 MPI tasks x no OpenMP threads

MPI task timing breakdown:
Section |  min time  |  avg time  |  max time  |%varavg| %total
---------------------------------------------------------------
Pair    | 22.624     | 22.802     | 22.98      |   3.7 | 54.68
Neigh   | 16.873     | 17.285     | 17.697     |   9.9 | 41.45
Comm    | 0.8789     | 1.1168     | 1.3547     |  22.5 |  2.68
Output  | 7.7963e-05 | 0.00010455 | 0.00013113 |   0.0 |  0.00
Modify  | 0.37947    | 0.38317    | 0.38688    |   0.6 |  0.92
Other   |            | 0.1168     |            |       |  0.28

Nlocal:    9826 ave 9831 max 9821 min
Histogram: 1 0 0 0 0 0 0 0 0 1
Nghost:    12764.5 ave 12781 max 12748 min
Histogram: 1 0 0 0 0 0 0 0 0 1
Neighs:    724464 ave 724590 max 724337 min
Histogram: 1 0 0 0 0 0 0 0 0 1

Total # of neighbors = 1448927
Ave neighs/atom = 73.7292
Neighbor list builds = 495
Dangerous builds not checked
Setting up Verlet run ...
  Unit style    : metal
  Current step  : 260495
  Time step     : 0.001
Per MPI rank memory allocation (min/avg/max) = 11.31 | 11.31 | 11.31 Mbytes
Step Temp Press TotEng PotEng Enthalpy 
  260495     1863.375   -368.57231   -64517.155   -69250.297   -64595.704 
  280000    1861.0929    2069.6837   -64694.106   -69421.452   -64255.586 
Loop time of 1742.05 on 2 procs for 19505 steps with 19652 atoms

Performance: 0.967 ns/day, 24.809 hours/ns, 11.197 timesteps/s
99.0% CPU use with 2 MPI tasks x no OpenMP threads

MPI task timing breakdown:
Section |  min time  |  avg time  |  max time  |%varavg| %total
---------------------------------------------------------------
Pair    | 954.39     | 955.04     | 955.7      |   2.1 | 54.82
Neigh   | 705.11     | 709.04     | 712.96     |  14.7 | 40.70
Comm    | 54.157     | 57.495     | 60.833     |  44.0 |  3.30
Output  | 0.053389   | 0.053401   | 0.053412   |   0.0 |  0.00
Modify  | 15.684     | 15.797     | 15.911     |   2.9 |  0.91
Other   |            | 4.63       |            |       |  0.27

Nlocal:    9826 ave 9838 max 9814 min
Histogram: 1 0 0 0 0 0 0 0 0 1
Nghost:    12750.5 ave 12753 max 12748 min
Histogram: 1 0 0 0 0 0 0 0 0 1
Neighs:    728322 ave 730289 max 726356 min
Histogram: 1 0 0 0 0 0 0 0 0 1

Total # of neighbors = 1456645
Ave neighs/atom = 74.122
Neighbor list builds = 19505
Dangerous builds not checked
Setting up Verlet run ...
  Unit style    : metal
  Current step  : 280000
  Time step     : 0.001
Per MPI rank memory allocation (min/avg/max) = 11.31 | 11.31 | 11.31 Mbytes
Step Temp Press TotEng PotEng Enthalpy 
  280000    1861.0929    2069.6837   -64694.106   -69421.452   -64255.586 
  280495    1819.8957   -579.86111   -64865.115   -69487.815    -64988.04 
Loop time of 42.474 on 2 procs for 495 steps with 19652 atoms

Performance: 1.007 ns/day, 23.835 hours/ns, 11.654 timesteps/s
98.1% CPU use with 2 MPI tasks x no OpenMP threads

MPI task timing breakdown:
Section |  min time  |  avg time  |  max time  |%varavg| %total
---------------------------------------------------------------
Pair    | 22.971     | 23.25      | 23.529     |   5.8 | 54.74
Neigh   | 17.012     | 17.042     | 17.071     |   0.7 | 40.12
Comm    | 1.419      | 1.6733     | 1.9275     |  19.7 |  3.94
Output  | 7.6056e-05 | 0.00010598 | 0.0001359  |   0.0 |  0.00
Modify  | 0.39333    | 0.39732    | 0.40131    |   0.6 |  0.94
Other   |            | 0.1118     |            |       |  0.26

Nlocal:    9826 ave 9840 max 9812 min
Histogram: 1 0 0 0 0 0 0 0 0 1
Nghost:    12753 ave 12799 max 12707 min
Histogram: 1 0 0 0 0 0 0 0 0 1
Neighs:    728353 ave 728978 max 727728 min
Histogram: 1 0 0 0 0 0 0 0 0 1

Total # of neighbors = 1456706
Ave neighs/atom = 74.1251
Neighbor list builds = 495
Dangerous builds not checked
Setting up Verlet run ...
  Unit style    : metal
  Current step  : 280495
  Time step     : 0.001
Per MPI rank memory allocation (min/avg/max) = 11.31 | 11.31 | 11.31 Mbytes
Step Temp Press TotEng PotEng Enthalpy 
  280495    1819.8957   -579.86111   -64865.115   -69487.815    -64988.04 
  300000    1797.5416   -2101.4387   -65025.687   -69591.606   -65470.858 
Loop time of 1711.7 on 2 procs for 19505 steps with 19652 atoms

Performance: 0.985 ns/day, 24.377 hours/ns, 11.395 timesteps/s
98.6% CPU use with 2 MPI tasks x no OpenMP threads

MPI task timing breakdown:
Section |  min time  |  avg time  |  max time  |%varavg| %total
---------------------------------------------------------------
Pair    | 921.51     | 922.98     | 924.45     |   4.8 | 53.92
Neigh   | 681.18     | 685.34     | 689.51     |  15.9 | 40.04
Comm    | 78.108     | 83.837     | 89.567     |  62.6 |  4.90
Output  | 0.051972   | 0.05199    | 0.052008   |   0.0 |  0.00
Modify  | 15.149     | 15.21      | 15.272     |   1.6 |  0.89
Other   |            | 4.272      |            |       |  0.25

Nlocal:    9826 ave 9834 max 9818 min
Histogram: 1 0 0 0 0 0 0 0 0 1
Nghost:    12770 ave 12800 max 12740 min
Histogram: 1 0 0 0 0 0 0 0 0 1
Neighs:    728769 ave 730035 max 727503 min
Histogram: 1 0 0 0 0 0 0 0 0 1

Total # of neighbors = 1457538
Ave neighs/atom = 74.1674
Neighbor list builds = 19505
Dangerous builds not checked
Setting up Verlet run ...
  Unit style    : metal
  Current step  : 300000
  Time step     : 0.001
Per MPI rank memory allocation (min/avg/max) = 11.31 | 11.31 | 11.31 Mbytes
Step Temp Press TotEng PotEng Enthalpy 
  300000    1797.5416   -2101.4387   -65025.687   -69591.606   -65470.858 
  300495    1769.1513     -1355.47   -65195.204   -69689.009    -65481.63 
Loop time of 42.8846 on 2 procs for 495 steps with 19652 atoms

Performance: 0.997 ns/day, 24.065 hours/ns, 11.543 timesteps/s
98.0% CPU use with 2 MPI tasks x no OpenMP threads

MPI task timing breakdown:
Section |  min time  |  avg time  |  max time  |%varavg| %total
---------------------------------------------------------------
Pair    | 23.306     | 23.496     | 23.686     |   3.9 | 54.79
Neigh   | 16.748     | 16.972     | 17.197     |   5.5 | 39.58
Comm    | 1.4865     | 1.9139     | 2.3413     |  30.9 |  4.46
Output  | 8.7023e-05 | 0.00010693 | 0.00012684 |   0.0 |  0.00
Modify  | 0.38842    | 0.39363    | 0.39883    |   0.8 |  0.92
Other   |            | 0.1084     |            |       |  0.25

Nlocal:    9826 ave 9854 max 9798 min
Histogram: 1 0 0 0 0 0 0 0 0 1
Nghost:    12807.5 ave 12821 max 12794 min
Histogram: 1 0 0 0 0 0 0 0 0 1
Neighs:    730372 ave 734006 max 726737 min
Histogram: 1 0 0 0 0 0 0 0 0 1

Total # of neighbors = 1460743
Ave neighs/atom = 74.3305
Neighbor list builds = 495
Dangerous builds not checked
Setting up Verlet run ...
  Unit style    : metal
  Current step  : 300495
  Time step     : 0.001
Per MPI rank memory allocation (min/avg/max) = 11.31 | 11.31 | 11.31 Mbytes
Step Temp Press TotEng PotEng Enthalpy 
  300495    1769.1513     -1355.47   -65195.204   -69689.009    -65481.63 
  320000    1731.9701   -965.32219   -65343.684   -69743.046   -65547.384 
Loop time of 1696.59 on 2 procs for 19505 steps with 19652 atoms

Performance: 0.993 ns/day, 24.162 hours/ns, 11.497 timesteps/s
99.4% CPU use with 2 MPI tasks x no OpenMP threads

MPI task timing breakdown:
Section |  min time  |  avg time  |  max time  |%varavg| %total
---------------------------------------------------------------
Pair    | 926.24     | 929.85     | 933.46     |  11.8 | 54.81
Neigh   | 682.27     | 682.76     | 683.25     |   1.9 | 40.24
Comm    | 60.147     | 64.375     | 68.604     |  52.7 |  3.79
Output  | 0.057853   | 0.057868   | 0.057882   |   0.0 |  0.00
Modify  | 15.21      | 15.234     | 15.258     |   0.6 |  0.90
Other   |            | 4.307      |            |       |  0.25

Nlocal:    9826 ave 9862 max 9790 min
Histogram: 1 0 0 0 0 0 0 0 0 1
Nghost:    12770.5 ave 12794 max 12747 min
Histogram: 1 0 0 0 0 0 0 0 0 1
Neighs:    731615 ave 735411 max 727819 min
Histogram: 1 0 0 0 0 0 0 0 0 1

Total # of neighbors = 1463230
Ave neighs/atom = 74.4571
Neighbor list builds = 19505
Dangerous builds not checked
Setting up Verlet run ...
  Unit style    : metal
  Current step  : 320000
  Time step     : 0.001
Per MPI rank memory allocation (min/avg/max) = 11.32 | 11.32 | 11.32 Mbytes
Step Temp Press TotEng PotEng Enthalpy 
  320000    1731.9701   -965.32219   -65343.684   -69743.046   -65547.384 
  320495    1718.6933    -58.59686   -65515.459   -69881.097    -65527.78 
Loop time of 41.0456 on 2 procs for 495 steps with 19652 atoms

Performance: 1.042 ns/day, 23.033 hours/ns, 12.060 timesteps/s
99.5% CPU use with 2 MPI tasks x no OpenMP threads

MPI task timing breakdown:
Section |  min time  |  avg time  |  max time  |%varavg| %total
---------------------------------------------------------------
Pair    | 22.367     | 22.463     | 22.558     |   2.0 | 54.73
Neigh   | 16.203     | 16.584     | 16.966     |   9.4 | 40.40
Comm    | 1.2282     | 1.5232     | 1.8181     |  23.9 |  3.71
Output  | 7.6056e-05 | 0.00010204 | 0.00012803 |   0.0 |  0.00
Modify  | 0.36726    | 0.37388    | 0.3805     |   1.1 |  0.91
Other   |            | 0.1012     |            |       |  0.25

Nlocal:    9826 ave 9838 max 9814 min
Histogram: 1 0 0 0 0 0 0 0 0 1
Nghost:    12833 ave 12855 max 12811 min
Histogram: 1 0 0 0 0 0 0 0 0 1
Neighs:    734150 ave 735388 max 732913 min
Histogram: 1 0 0 0 0 0 0 0 0 1

Total # of neighbors = 1468301
Ave neighs/atom = 74.7151
Neighbor list builds = 495
Dangerous builds not checked
Setting up Verlet run ...
  Unit style    : metal
  Current step  : 320495
  Time step     : 0.001
Per MPI rank memory allocation (min/avg/max) = 11.32 | 11.32 | 11.32 Mbytes
Step Temp Press TotEng PotEng Enthalpy 
  320495    1718.6933    -58.59686   -65515.459   -69881.097    -65527.78 
  340000    1711.1001    1135.8144   -65649.928   -69996.278   -65411.788 
Loop time of 1764.35 on 2 procs for 19505 steps with 19652 atoms

Performance: 0.955 ns/day, 25.127 hours/ns, 11.055 timesteps/s
96.1% CPU use with 2 MPI tasks x no OpenMP threads

MPI task timing breakdown:
Section |  min time  |  avg time  |  max time  |%varavg| %total
---------------------------------------------------------------
Pair    | 953.37     | 957.63     | 961.89     |  13.8 | 54.28
Neigh   | 672.51     | 675.29     | 678.06     |  10.7 | 38.27
Comm    | 108.72     | 110.3      | 111.88     |  15.0 |  6.25
Output  | 0.053437   | 0.05345    | 0.053462   |   0.0 |  0.00
Modify  | 16.825     | 16.904     | 16.984     |   1.9 |  0.96
Other   |            | 4.179      |            |       |  0.24

Nlocal:    9826 ave 9833 max 9819 min
Histogram: 1 0 0 0 0 0 0 0 0 1
Nghost:    12816 ave 12841 max 12791 min
Histogram: 1 0 0 0 0 0 0 0 0 1
Neighs:    736067 ave 737312 max 734822 min
Histogram: 1 0 0 0 0 0 0 0 0 1

Total # of neighbors = 1472134
Ave neighs/atom = 74.9101
Neighbor list builds = 19505
Dangerous builds not checked
Setting up Verlet run ...
  Unit style    : metal
  Current step  : 340000
  Time step     : 0.001
Per MPI rank memory allocation (min/avg/max) = 11.32 | 11.32 | 11.32 Mbytes
Step Temp Press TotEng PotEng Enthalpy 
  340000    1711.1001    1135.8144   -65649.928   -69996.278   -65411.788 
  340495    1662.4759    302.97066   -65858.727   -70081.567    -65795.26 
Loop time of 42.5056 on 2 procs for 495 steps with 19652 atoms

Performance: 1.006 ns/day, 23.853 hours/ns, 11.646 timesteps/s
99.7% CPU use with 2 MPI tasks x no OpenMP threads

MPI task timing breakdown:
Section |  min time  |  avg time  |  max time  |%varavg| %total
---------------------------------------------------------------
Pair    | 23.259     | 23.284     | 23.31      |   0.5 | 54.78
Neigh   | 17.7       | 17.725     | 17.751     |   0.6 | 41.70
Comm    | 0.94313    | 0.99614    | 1.0491     |   5.3 |  2.34
Output  | 8.2016e-05 | 0.00012255 | 0.00016308 |   0.0 |  0.00
Modify  | 0.38943    | 0.39202    | 0.3946     |   0.4 |  0.92
Other   |            | 0.1077     |            |       |  0.25

Nlocal:    9826 ave 9827 max 9825 min
Histogram: 1 0 0 0 0 0 0 0 0 1
Nghost:    12838 ave 12864 max 12812 min
Histogram: 1 0 0 0 0 0 0 0 0 1
Neighs:    736509 ave 736981 max 736037 min
Histogram: 1 0 0 0 0 0 0 0 0 1

Total # of neighbors = 1473018
Ave neighs/atom = 74.9551
Neighbor list builds = 495
Dangerous builds not checked
Setting up Verlet run ...
  Unit style    : metal
  Current step  : 340495
  Time step     : 0.001
Per MPI rank memory allocation (min/avg/max) = 11.32 | 11.32 | 11.32 Mbytes
Step Temp Press TotEng PotEng Enthalpy 
  340495    1662.4759    302.97066   -65858.727   -70081.567    -65795.26 
  360000    1650.3264   -627.02522   -65986.118   -70178.098   -66117.289 
Loop time of 1715.49 on 2 procs for 19505 steps with 19652 atoms

Performance: 0.982 ns/day, 24.431 hours/ns, 11.370 timesteps/s
98.9% CPU use with 2 MPI tasks x no OpenMP threads

MPI task timing breakdown:
Section |  min time  |  avg time  |  max time  |%varavg| %total
---------------------------------------------------------------
Pair    | 945.31     | 946.68     | 948.05     |   4.4 | 55.18
Neigh   | 690.46     | 692.22     | 693.99     |   6.7 | 40.35
Comm    | 56.346     | 56.686     | 57.025     |   4.5 |  3.30
Output  | 0.063542   | 0.063556   | 0.06357    |   0.0 |  0.00
Modify  | 15.465     | 15.524     | 15.583     |   1.5 |  0.90
Other   |            | 4.308      |            |       |  0.25

Nlocal:    9826 ave 9831 max 9821 min
Histogram: 1 0 0 0 0 0 0 0 0 1
Nghost:    12855.5 ave 12871 max 12840 min
Histogram: 1 0 0 0 0 0 0 0 0 1
Neighs:    737810 ave 738686 max 736935 min
Histogram: 1 0 0 0 0 0 0 0 0 1

Total # of neighbors = 1475621
Ave neighs/atom = 75.0876
Neighbor list builds = 19505
Dangerous builds not checked
Setting up Verlet run ...
  Unit style    : metal
  Current step  : 360000
  Time step     : 0.001
Per MPI rank memory allocation (min/avg/max) = 11.32 | 11.32 | 11.32 Mbytes
Step Temp Press TotEng PotEng Enthalpy 
  360000    1650.3264   -627.02522   -65986.118   -70178.098   -66117.289 
  360495    1609.0343   -330.13728   -66215.273   -70302.366   -66284.155 
Loop time of 44.5445 on 2 procs for 495 steps with 19652 atoms

Performance: 0.960 ns/day, 24.997 hours/ns, 11.112 timesteps/s
99.6% CPU use with 2 MPI tasks x no OpenMP threads

MPI task timing breakdown:
Section |  min time  |  avg time  |  max time  |%varavg| %total
---------------------------------------------------------------
Pair    | 24.493     | 24.617     | 24.741     |   2.5 | 55.26
Neigh   | 17.031     | 17.79      | 18.549     |  18.0 | 39.94
Comm    | 0.99095    | 1.6378     | 2.2846     |  50.5 |  3.68
Output  | 6.6042e-05 | 0.00010157 | 0.00013709 |   0.0 |  0.00
Modify  | 0.38578    | 0.39705    | 0.40832    |   1.8 |  0.89
Other   |            | 0.1025     |            |       |  0.23

Nlocal:    9826 ave 9851 max 9801 min
Histogram: 1 0 0 0 0 0 0 0 0 1
Nghost:    12883.5 ave 12889 max 12878 min
Histogram: 1 0 0 0 0 0 0 0 0 1
Neighs:    739614 ave 742677 max 736552 min
Histogram: 1 0 0 0 0 0 0 0 0 1

Total # of neighbors = 1479229
Ave neighs/atom = 75.2712
Neighbor list builds = 495
Dangerous builds not checked
Setting up Verlet run ...
  Unit style    : metal
  Current step  : 360495
  Time step     : 0.001
Per MPI rank memory allocation (min/avg/max) = 11.32 | 11.32 | 11.32 Mbytes
Step Temp Press TotEng PotEng Enthalpy 
  360495    1609.0343   -330.13728   -66215.273   -70302.366   -66284.155 
  380000    1604.9485    780.61107   -66298.732   -70375.448   -66136.184 
Loop time of 1752.07 on 2 procs for 19505 steps with 19652 atoms

Performance: 0.962 ns/day, 24.952 hours/ns, 11.133 timesteps/s
99.4% CPU use with 2 MPI tasks x no OpenMP threads

MPI task timing breakdown:
Section |  min time  |  avg time  |  max time  |%varavg| %total
---------------------------------------------------------------
Pair    | 963.92     | 964.43     | 964.94     |   1.6 | 55.05
Neigh   | 711.52     | 713.74     | 715.97     |   8.3 | 40.74
Comm    | 50.626     | 53.448     | 56.27      |  38.6 |  3.05
Output  | 0.049676   | 0.049692   | 0.049708   |   0.0 |  0.00
Modify  | 16.007     | 16.079     | 16.151     |   1.8 |  0.92
Other   |            | 4.324      |            |       |  0.25

Nlocal:    9826 ave 9831 max 9821 min
Histogram: 1 0 0 0 0 0 0 0 0 1
Nghost:    12856 ave 12862 max 12850 min
Histogram: 1 0 0 0 0 0 0 0 0 1
Neighs:    741082 ave 741564 max 740601 min
Histogram: 1 0 0 0 0 0 0 0 0 1

Total # of neighbors = 1482165
Ave neighs/atom = 75.4206
Neighbor list builds = 19505
Dangerous builds not checked
Setting up Verlet run ...
  Unit style    : metal
  Current step  : 380000
  Time step     : 0.001
Per MPI rank memory allocation (min/avg/max) = 11.32 | 11.32 | 11.32 Mbytes
Step Temp Press TotEng PotEng Enthalpy 
  380000    1604.9485    780.61107   -66298.732   -70375.448   -66136.184 
  380495    1558.8347   -316.16536   -66529.816   -70489.399    -66595.55 
Loop time of 43.9723 on 2 procs for 495 steps with 19652 atoms

Performance: 0.973 ns/day, 24.676 hours/ns, 11.257 timesteps/s
98.8% CPU use with 2 MPI tasks x no OpenMP threads

MPI task timing breakdown:
Section |  min time  |  avg time  |  max time  |%varavg| %total
---------------------------------------------------------------
Pair    | 24.21      | 24.353     | 24.496     |   2.9 | 55.38
Neigh   | 17.612     | 17.634     | 17.656     |   0.5 | 40.10
Comm    | 1.3032     | 1.4677     | 1.6322     |  13.6 |  3.34
Output  | 8.1062e-05 | 0.00011146 | 0.00014186 |   0.0 |  0.00
Modify  | 0.4024     | 0.40535    | 0.40831    |   0.5 |  0.92
Other   |            | 0.1123     |            |       |  0.26

Nlocal:    9826 ave 9842 max 9810 min
Histogram: 1 0 0 0 0 0 0 0 0 1
Nghost:    12875.5 ave 12902 max 12849 min
Histogram: 1 0 0 0 0 0 0 0 0 1
Neighs:    742133 ave 743261 max 741005 min
Histogram: 1 0 0 0 0 0 0 0 0 1

Total # of neighbors = 1484266
Ave neighs/atom = 75.5275
Neighbor list builds = 495
Dangerous builds not checked
Setting up Verlet run ...
  Unit style    : metal
  Current step  : 380495
  Time step     : 0.001
Per MPI rank memory allocation (min/avg/max) = 11.32 | 11.32 | 11.32 Mbytes
Step Temp Press TotEng PotEng Enthalpy 
  380495    1558.8347   -316.16536   -66529.816   -70489.399    -66595.55 
  400000    1558.1731   -968.82986   -66624.182   -70582.083   -66825.359 
Loop time of 1748.07 on 2 procs for 19505 steps with 19652 atoms

Performance: 0.964 ns/day, 24.895 hours/ns, 11.158 timesteps/s
99.0% CPU use with 2 MPI tasks x no OpenMP threads

MPI task timing breakdown:
Section |  min time  |  avg time  |  max time  |%varavg| %total
---------------------------------------------------------------
Pair    | 956.82     | 961.9      | 966.98     |  16.4 | 55.03
Neigh   | 703.83     | 711.05     | 718.26     |  27.1 | 40.68
Comm    | 42.272     | 54.664     | 67.055     | 167.6 |  3.13
Output  | 0.050336   | 0.050349   | 0.050362   |   0.0 |  0.00
Modify  | 15.897     | 15.976     | 16.055     |   2.0 |  0.91
Other   |            | 4.431      |            |       |  0.25

Nlocal:    9826 ave 9833 max 9819 min
Histogram: 1 0 0 0 0 0 0 0 0 1
Nghost:    12911 ave 12913 max 12909 min
Histogram: 1 0 0 0 0 0 0 0 0 1
Neighs:    742947 ave 743536 max 742358 min
Histogram: 1 0 0 0 0 0 0 0 0 1

Total # of neighbors = 1485894
Ave neighs/atom = 75.6103
Neighbor list builds = 19505
Dangerous builds not checked
Setting up Verlet run ...
  Unit style    : metal
  Current step  : 400000
  Time step     : 0.001
Per MPI rank memory allocation (min/avg/max) = 11.32 | 11.32 | 11.32 Mbytes
Step Temp Press TotEng PotEng Enthalpy 
  400000    1558.1731   -968.82986   -66624.182   -70582.083   -66825.359 
  400495    1512.5394    36.209465   -66906.313   -70748.301   -66898.823 
Loop time of 44.1247 on 2 procs for 495 steps with 19652 atoms

Performance: 0.969 ns/day, 24.761 hours/ns, 11.218 timesteps/s
99.7% CPU use with 2 MPI tasks x no OpenMP threads

MPI task timing breakdown:
Section |  min time  |  avg time  |  max time  |%varavg| %total
---------------------------------------------------------------
Pair    | 24.185     | 24.272     | 24.358     |   1.8 | 55.01
Neigh   | 18.289     | 18.38      | 18.471     |   2.1 | 41.65
Comm    | 0.76938    | 0.94612    | 1.1229     |  18.2 |  2.14
Output  | 9.3937e-05 | 0.000126   | 0.00015807 |   0.0 |  0.00
Modify  | 0.41255    | 0.41403    | 0.41551    |   0.2 |  0.94
Other   |            | 0.1127     |            |       |  0.26

Nlocal:    9826 ave 9842 max 9810 min
Histogram: 1 0 0 0 0 0 0 0 0 1
Nghost:    12929 ave 12973 max 12885 min
Histogram: 1 0 0 0 0 0 0 0 0 1
Neighs:    745515 ave 747007 max 744023 min
Histogram: 1 0 0 0 0 0 0 0 0 1

Total # of neighbors = 1491030
Ave neighs/atom = 75.8717
Neighbor list builds = 495
Dangerous builds not checked
Setting up Verlet run ...
  Unit style    : metal
  Current step  : 400495
  Time step     : 0.001
Per MPI rank memory allocation (min/avg/max) = 11.32 | 11.32 | 11.32 Mbytes
Step Temp Press TotEng PotEng Enthalpy 
  400495    1512.5394    36.209465   -66906.313   -70748.301   -66898.823 
  420000     1509.074    1923.7474   -67034.619   -70867.805   -66638.266 
Loop time of 1734.97 on 2 procs for 19505 steps with 19652 atoms

Performance: 0.971 ns/day, 24.708 hours/ns, 11.242 timesteps/s
99.5% CPU use with 2 MPI tasks x no OpenMP threads

MPI task timing breakdown:
Section |  min time  |  avg time  |  max time  |%varavg| %total
---------------------------------------------------------------
Pair    | 957.65     | 959.02     | 960.4      |   4.4 | 55.28
Neigh   | 697.45     | 701.69     | 705.93     |  16.0 | 40.44
Comm    | 51.032     | 53.903     | 56.774     |  39.1 |  3.11
Output  | 0.058226   | 0.05823    | 0.058235   |   0.0 |  0.00
Modify  | 15.75      | 15.828     | 15.906     |   2.0 |  0.91
Other   |            | 4.475      |            |       |  0.26

Nlocal:    9826 ave 9841 max 9811 min
Histogram: 1 0 0 0 0 0 0 0 0 1
Nghost:    12980.5 ave 12984 max 12977 min
Histogram: 1 0 0 0 0 0 0 0 0 1
Neighs:    748390 ave 750159 max 746621 min
Histogram: 1 0 0 0 0 0 0 0 0 1

Total # of neighbors = 1496780
Ave neighs/atom = 76.1643
Neighbor list builds = 19505
Dangerous builds not checked
Setting up Verlet run ...
  Unit style    : metal
  Current step  : 420000
  Time step     : 0.001
Per MPI rank memory allocation (min/avg/max) = 11.32 | 11.32 | 11.32 Mbytes
Step Temp Press TotEng PotEng Enthalpy 
  420000     1509.074    1923.7474   -67034.619   -70867.805   -66638.266 
  420495    1474.0542   -2717.2423   -67253.424   -70997.656   -67814.246 
Loop time of 40.7468 on 2 procs for 495 steps with 19652 atoms

Performance: 1.050 ns/day, 22.866 hours/ns, 12.148 timesteps/s
99.4% CPU use with 2 MPI tasks x no OpenMP threads

MPI task timing breakdown:
Section |  min time  |  avg time  |  max time  |%varavg| %total
---------------------------------------------------------------
Pair    | 22.339     | 22.353     | 22.366     |   0.3 | 54.86
Neigh   | 16.191     | 16.596     | 17.001     |   9.9 | 40.73
Comm    | 0.89331    | 1.3191     | 1.7449     |  37.1 |  3.24
Output  | 8.7976e-05 | 0.000121   | 0.00015402 |   0.0 |  0.00
Modify  | 0.36916    | 0.37437    | 0.37958    |   0.9 |  0.92
Other   |            | 0.1051     |            |       |  0.26

Nlocal:    9826 ave 9846 max 9806 min
Histogram: 1 0 0 0 0 0 0 0 0 1
Nghost:    12936 ave 12949 max 12923 min
Histogram: 1 0 0 0 0 0 0 0 0 1
Neighs:    747352 ave 749358 max 745347 min
Histogram: 1 0 0 0 0 0 0 0 0 1

Total # of neighbors = 1494705
Ave neighs/atom = 76.0587
Neighbor list builds = 495
Dangerous builds not checked
Setting up Verlet run ...
  Unit style    : metal
  Current step  : 420495
  Time step     : 0.001
Per MPI rank memory allocation (min/avg/max) = 11.32 | 11.32 | 11.32 Mbytes
Step Temp Press TotEng PotEng Enthalpy 
  420495    1474.0542   -2717.2423   -67253.424   -70997.656   -67814.246 
  440000    1447.6091   -1257.4728   -67398.644   -71075.703   -67657.532 
Loop time of 1727.61 on 2 procs for 19505 steps with 19652 atoms

Performance: 0.975 ns/day, 24.604 hours/ns, 11.290 timesteps/s
97.0% CPU use with 2 MPI tasks x no OpenMP threads

MPI task timing breakdown:
Section |  min time  |  avg time  |  max time  |%varavg| %total
---------------------------------------------------------------
Pair    | 921.77     | 922.02     | 922.27     |   0.8 | 53.37
Neigh   | 676.99     | 677.09     | 677.19     |   0.4 | 39.19
Comm    | 108.62     | 108.73     | 108.83     |   1.0 |  6.29
Output  | 0.070573   | 0.070595   | 0.070617   |   0.0 |  0.00
Modify  | 15.315     | 15.564     | 15.812     |   6.3 |  0.90
Other   |            | 4.142      |            |       |  0.24

Nlocal:    9826 ave 9834 max 9818 min
Histogram: 1 0 0 0 0 0 0 0 0 1
Nghost:    12856 ave 12859 max 12853 min
Histogram: 1 0 0 0 0 0 0 0 0 1
Neighs:    749238 ave 750522 max 747953 min
Histogram: 1 0 0 0 0 0 0 0 0 1

Total # of neighbors = 1498475
Ave neighs/atom = 76.2505
Neighbor list builds = 19505
Dangerous builds not checked
Setting up Verlet run ...
  Unit style    : metal
  Current step  : 440000
  Time step     : 0.001
Per MPI rank memory allocation (min/avg/max) = 11.32 | 11.32 | 11.32 Mbytes
Step Temp Press TotEng PotEng Enthalpy 
  440000    1447.6091   -1257.4728   -67398.644   -71075.703   -67657.532 
  440495    1406.7998    477.37499   -67592.936   -71166.336   -67494.988 
Loop time of 43.5633 on 2 procs for 495 steps with 19652 atoms

Performance: 0.982 ns/day, 24.446 hours/ns, 11.363 timesteps/s
96.0% CPU use with 2 MPI tasks x no OpenMP threads

MPI task timing breakdown:
Section |  min time  |  avg time  |  max time  |%varavg| %total
---------------------------------------------------------------
Pair    | 24.139     | 24.248     | 24.358     |   2.2 | 55.66
Neigh   | 15.969     | 16.374     | 16.779     |  10.0 | 37.59
Comm    | 1.9353     | 2.4649     | 2.9945     |  33.7 |  5.66
Output  | 6.8903e-05 | 9.799e-05  | 0.00012708 |   0.0 |  0.00
Modify  | 0.36475    | 0.37223    | 0.37972    |   1.2 |  0.85
Other   |            | 0.1043     |            |       |  0.24

Nlocal:    9826 ave 9829 max 9823 min
Histogram: 1 0 0 0 0 0 0 0 0 1
Nghost:    12927.5 ave 12934 max 12921 min
Histogram: 1 0 0 0 0 0 0 0 0 1
Neighs:    751418 ave 751702 max 751134 min
Histogram: 1 0 0 0 0 0 0 0 0 1

Total # of neighbors = 1502836
Ave neighs/atom = 76.4724
Neighbor list builds = 495
Dangerous builds not checked
Setting up Verlet run ...
  Unit style    : metal
  Current step  : 440495
  Time step     : 0.001
Per MPI rank memory allocation (min/avg/max) = 11.32 | 11.32 | 11.32 Mbytes
Step Temp Press TotEng PotEng Enthalpy 
  440495    1406.7998    477.37499   -67592.936   -71166.336   -67494.988 
  460000    1410.2917   -1152.0519   -67722.173   -71304.442   -67958.228 
Loop time of 1777.96 on 2 procs for 19505 steps with 19652 atoms

Performance: 0.948 ns/day, 25.321 hours/ns, 10.970 timesteps/s
93.9% CPU use with 2 MPI tasks x no OpenMP threads

MPI task timing breakdown:
Section |  min time  |  avg time  |  max time  |%varavg| %total
---------------------------------------------------------------
Pair    | 958.95     | 960.5      | 962.06     |   5.0 | 54.02
Neigh   | 660.41     | 668.04     | 675.67     |  29.5 | 37.57
Comm    | 122.99     | 129.28     | 135.56     |  55.3 |  7.27
Output  | 0.44622    | 0.44623    | 0.44625    |   0.0 |  0.03
Modify  | 15.3       | 15.512     | 15.725     |   5.4 |  0.87
Other   |            | 4.183      |            |       |  0.24

Nlocal:    9826 ave 9828 max 9824 min
Histogram: 1 0 0 0 0 0 0 0 0 1
Nghost:    12993 ave 13011 max 12975 min
Histogram: 1 0 0 0 0 0 0 0 0 1
Neighs:    752636 ave 752851 max 752422 min
Histogram: 1 0 0 0 0 0 0 0 0 1

Total # of neighbors = 1505273
Ave neighs/atom = 76.5964
Neighbor list builds = 19505
Dangerous builds not checked
Setting up Verlet run ...
  Unit style    : metal
  Current step  : 460000
  Time step     : 0.001
Per MPI rank memory allocation (min/avg/max) = 11.32 | 11.32 | 11.32 Mbytes
Step Temp Press TotEng PotEng Enthalpy 
  460000    1410.2917   -1152.0519   -67722.173   -71304.442   -67958.228 
  460495    1359.6959   -1264.0014   -67953.063   -71406.815   -68211.583 
Loop time of 42.9339 on 2 procs for 495 steps with 19652 atoms

Performance: 0.996 ns/day, 24.093 hours/ns, 11.529 timesteps/s
98.6% CPU use with 2 MPI tasks x no OpenMP threads

MPI task timing breakdown:
Section |  min time  |  avg time  |  max time  |%varavg| %total
---------------------------------------------------------------
Pair    | 23.606     | 23.691     | 23.777     |   1.8 | 55.18
Neigh   | 16.797     | 17.155     | 17.514     |   8.6 | 39.96
Comm    | 1.3231     | 1.5994     | 1.8757     |  21.8 |  3.73
Output  | 6.8188e-05 | 9.6083e-05 | 0.00012398 |   0.0 |  0.00
Modify  | 0.38211    | 0.38507    | 0.38804    |   0.5 |  0.90
Other   |            | 0.1024     |            |       |  0.24

Nlocal:    9826 ave 9853 max 9799 min
Histogram: 1 0 0 0 0 0 0 0 0 1
Nghost:    12959.5 ave 12974 max 12945 min
Histogram: 1 0 0 0 0 0 0 0 0 1
Neighs:    753730 ave 756026 max 751434 min
Histogram: 1 0 0 0 0 0 0 0 0 1

Total # of neighbors = 1507460
Ave neighs/atom = 76.7077
Neighbor list builds = 495
Dangerous builds not checked
Setting up Verlet run ...
  Unit style    : metal
  Current step  : 460495
  Time step     : 0.001
Per MPI rank memory allocation (min/avg/max) = 11.32 | 11.32 | 11.32 Mbytes
Step Temp Press TotEng PotEng Enthalpy 
  460495    1359.6959   -1264.0014   -67953.063   -71406.815   -68211.583 
  480000    1350.3906   -2859.9216   -68051.464   -71481.579   -68636.389 
Loop time of 1766.49 on 2 procs for 19505 steps with 19652 atoms

Performance: 0.954 ns/day, 25.157 hours/ns, 11.042 timesteps/s
94.5% CPU use with 2 MPI tasks x no OpenMP threads

MPI task timing breakdown:
Section |  min time  |  avg time  |  max time  |%varavg| %total
---------------------------------------------------------------
Pair    | 916.23     | 917.42     | 918.61     |   3.9 | 51.93
Neigh   | 648.08     | 649.58     | 651.08     |   5.9 | 36.77
Comm    | 173.73     | 176.48     | 179.22     |  20.7 |  9.99
Output  | 3.0077     | 3.0077     | 3.0077     |   0.0 |  0.17
Modify  | 16.152     | 16.195     | 16.238     |   1.1 |  0.92
Other   |            | 3.806      |            |       |  0.22

Nlocal:    9826 ave 9828 max 9824 min
Histogram: 1 0 0 0 0 0 0 0 0 1
Nghost:    12986 ave 13005 max 12967 min
Histogram: 1 0 0 0 0 0 0 0 0 1
Neighs:    754062 ave 754277 max 753846 min
Histogram: 1 0 0 0 0 0 0 0 0 1

Total # of neighbors = 1508123
Ave neighs/atom = 76.7415
Neighbor list builds = 19505
Dangerous builds not checked
Setting up Verlet run ...
  Unit style    : metal
  Current step  : 480000
  Time step     : 0.001
Per MPI rank memory allocation (min/avg/max) = 11.33 | 11.33 | 11.33 Mbytes
Step Temp Press TotEng PotEng Enthalpy 
  480000    1350.3906   -2859.9216   -68051.464   -71481.579   -68636.389 
  480495    1320.7201     1179.665    -68296.95   -71651.699   -68057.127 
Loop time of 52.6924 on 2 procs for 495 steps with 19652 atoms

Performance: 0.812 ns/day, 29.569 hours/ns, 9.394 timesteps/s
86.3% CPU use with 2 MPI tasks x no OpenMP threads

MPI task timing breakdown:
Section |  min time  |  avg time  |  max time  |%varavg| %total
---------------------------------------------------------------
Pair    | 29.527     | 29.583     | 29.639     |   1.0 | 56.14
Neigh   | 15.323     | 15.502     | 15.68      |   4.5 | 29.42
Comm    | 6.9201     | 7.1633     | 7.4064     |   9.1 | 13.59
Output  | 8.7976e-05 | 0.00010598 | 0.00012398 |   0.0 |  0.00
Modify  | 0.34411    | 0.35078    | 0.35745    |   1.1 |  0.67
Other   |            | 0.09313    |            |       |  0.18

Nlocal:    9826 ave 9839 max 9813 min
Histogram: 1 0 0 0 0 0 0 0 0 1
Nghost:    13020.5 ave 13028 max 13013 min
Histogram: 1 0 0 0 0 0 0 0 0 1
Neighs:    758052 ave 759709 max 756394 min
Histogram: 1 0 0 0 0 0 0 0 0 1

Total # of neighbors = 1516103
Ave neighs/atom = 77.1475
Neighbor list builds = 495
Dangerous builds not checked
Setting up Verlet run ...
  Unit style    : metal
  Current step  : 480495
  Time step     : 0.001
Per MPI rank memory allocation (min/avg/max) = 11.33 | 11.33 | 11.33 Mbytes
Step Temp Press TotEng PotEng Enthalpy 
  480495    1320.7201     1179.665    -68296.95   -71651.699   -68057.127 
  500000     1294.685    610.00734   -68485.157   -71773.775   -68361.362 
Loop time of 1814.29 on 2 procs for 19505 steps with 19652 atoms

Performance: 0.929 ns/day, 25.838 hours/ns, 10.751 timesteps/s
93.2% CPU use with 2 MPI tasks x no OpenMP threads

MPI task timing breakdown:
Section |  min time  |  avg time  |  max time  |%varavg| %total
---------------------------------------------------------------
Pair    | 955.84     | 960.48     | 965.12     |  15.0 | 52.94
Neigh   | 646.88     | 648.89     | 650.89     |   7.9 | 35.77
Comm    | 174.78     | 177.3      | 179.82     |  18.9 |  9.77
Output  | 0.064903   | 0.064925   | 0.064947   |   0.0 |  0.00
Modify  | 23.686     | 23.704     | 23.721     |   0.4 |  1.31
Other   |            | 3.863      |            |       |  0.21

Nlocal:    9826 ave 9838 max 9814 min
Histogram: 1 0 0 0 0 0 0 0 0 1
Nghost:    13009.5 ave 13011 max 13008 min
Histogram: 1 0 0 0 0 0 0 0 0 1
Neighs:    759359 ave 760325 max 758393 min
Histogram: 1 0 0 0 0 0 0 0 0 1

Total # of neighbors = 1518718
Ave neighs/atom = 77.2806
Neighbor list builds = 19505
Dangerous builds not checked
Setting up Verlet run ...
  Unit style    : metal
  Current step  : 500000
  Time step     : 0.001
Per MPI rank memory allocation (min/avg/max) = 11.33 | 11.33 | 11.33 Mbytes
Step Temp Press TotEng PotEng Enthalpy 
  500000     1294.685    610.00734   -68485.157   -71773.775   -68361.362 
  500495    1262.4742   -421.86587   -68681.682   -71888.481   -68767.204 
Loop time of 58.0438 on 2 procs for 495 steps with 19652 atoms

Performance: 0.737 ns/day, 32.572 hours/ns, 8.528 timesteps/s
80.9% CPU use with 2 MPI tasks x no OpenMP threads

MPI task timing breakdown:
Section |  min time  |  avg time  |  max time  |%varavg| %total
---------------------------------------------------------------
Pair    | 34.13      | 34.178     | 34.226     |   0.8 | 58.88
Neigh   | 16.793     | 17.118     | 17.443     |   7.8 | 29.49
Comm    | 5.9509     | 6.2393     | 6.5276     |  11.5 | 10.75
Output  | 7.6056e-05 | 9.9063e-05 | 0.00012207 |   0.0 |  0.00
Modify  | 0.3967     | 0.40713    | 0.41757    |   1.6 |  0.70
Other   |            | 0.1013     |            |       |  0.17

Nlocal:    9826 ave 9847 max 9805 min
Histogram: 1 0 0 0 0 0 0 0 0 1
Nghost:    12984.5 ave 13009 max 12960 min
Histogram: 1 0 0 0 0 0 0 0 0 1
Neighs:    760238 ave 761580 max 758896 min
Histogram: 1 0 0 0 0 0 0 0 0 1

Total # of neighbors = 1520476
Ave neighs/atom = 77.37
Neighbor list builds = 495
Dangerous builds not checked
Setting up Verlet run ...
  Unit style    : metal
  Current step  : 500495
  Time step     : 0.001
Per MPI rank memory allocation (min/avg/max) = 11.33 | 11.33 | 11.33 Mbytes
Step Temp Press TotEng PotEng Enthalpy 
  500495    1262.4742   -421.86587   -68681.682   -71888.481   -68767.204 
  520000    1238.1669   -1190.4397   -68875.454   -72020.511    -69116.32 
Loop time of 1874.39 on 2 procs for 19505 steps with 19652 atoms

Performance: 0.899 ns/day, 26.694 hours/ns, 10.406 timesteps/s
92.6% CPU use with 2 MPI tasks x no OpenMP threads

MPI task timing breakdown:
Section |  min time  |  avg time  |  max time  |%varavg| %total
---------------------------------------------------------------
Pair    | 997.78     | 1000.6     | 1003.5     |   9.1 | 53.39
Neigh   | 667.31     | 667.41     | 667.51     |   0.4 | 35.61
Comm    | 172.87     | 175.61     | 178.34     |  20.6 |  9.37
Output  | 0.059347   | 0.059353   | 0.059359   |   0.0 |  0.00
Modify  | 26.441     | 26.52      | 26.599     |   1.5 |  1.41
Other   |            | 4.143      |            |       |  0.22

Nlocal:    9826 ave 9840 max 9812 min
Histogram: 1 0 0 0 0 0 0 0 0 1
Nghost:    13048.5 ave 13084 max 13013 min
Histogram: 1 0 0 0 0 0 0 0 0 1
Neighs:    761420 ave 762504 max 760335 min
Histogram: 1 0 0 0 0 0 0 0 0 1

Total # of neighbors = 1522839
Ave neighs/atom = 77.4903
Neighbor list builds = 19505
Dangerous builds not checked
Setting up Verlet run ...
  Unit style    : metal
  Current step  : 520000
  Time step     : 0.001
Per MPI rank memory allocation (min/avg/max) = 11.33 | 11.33 | 11.33 Mbytes
Step Temp Press TotEng PotEng Enthalpy 
  520000    1238.1669   -1190.4397   -68875.454   -72020.511    -69116.32 
  520495    1221.3597    797.36287   -68996.956   -72099.321   -68836.095 
Loop time of 41.9883 on 2 procs for 495 steps with 19652 atoms

Performance: 1.019 ns/day, 23.562 hours/ns, 11.789 timesteps/s
99.6% CPU use with 2 MPI tasks x no OpenMP threads

MPI task timing breakdown:
Section |  min time  |  avg time  |  max time  |%varavg| %total
---------------------------------------------------------------
Pair    | 22.847     | 23.148     | 23.449     |   6.3 | 55.13
Neigh   | 16.841     | 17.104     | 17.367     |   6.4 | 40.74
Comm    | 1.2081     | 1.2401     | 1.2721     |   2.9 |  2.95
Output  | 8.5115e-05 | 0.0001061  | 0.00012708 |   0.0 |  0.00
Modify  | 0.37969    | 0.38687    | 0.39404    |   1.2 |  0.92
Other   |            | 0.109      |            |       |  0.26

Nlocal:    9826 ave 9834 max 9818 min
Histogram: 1 0 0 0 0 0 0 0 0 1
Nghost:    13058 ave 13062 max 13054 min
Histogram: 1 0 0 0 0 0 0 0 0 1
Neighs:    763558 ave 764984 max 762131 min
Histogram: 1 0 0 0 0 0 0 0 0 1

Total # of neighbors = 1527115
Ave neighs/atom = 77.7079
Neighbor list builds = 495
Dangerous builds not checked
Setting up Verlet run ...
  Unit style    : metal
  Current step  : 520495
  Time step     : 0.001
Per MPI rank memory allocation (min/avg/max) = 11.33 | 11.33 | 11.33 Mbytes
Step Temp Press TotEng PotEng Enthalpy 
  520495    1221.3597    797.36287   -68996.956   -72099.321   -68836.095 
  540000    1195.1236    1271.6813   -69245.595   -72281.318   -68989.892 
Loop time of 1714.48 on 2 procs for 19505 steps with 19652 atoms

Performance: 0.983 ns/day, 24.417 hours/ns, 11.377 timesteps/s
96.7% CPU use with 2 MPI tasks x no OpenMP threads

MPI task timing breakdown:
Section |  min time  |  avg time  |  max time  |%varavg| %total
---------------------------------------------------------------
Pair    | 928.65     | 934.15     | 939.66     |  18.0 | 54.49
Neigh   | 653.87     | 657.78     | 661.7      |  15.3 | 38.37
Comm    | 97.063     | 98.951     | 100.84     |  19.0 |  5.77
Output  | 0.080149   | 0.080168   | 0.080186   |   0.0 |  0.00
Modify  | 19.348     | 19.522     | 19.696     |   3.9 |  1.14
Other   |            | 3.993      |            |       |  0.23

Nlocal:    9826 ave 9840 max 9812 min
Histogram: 1 0 0 0 0 0 0 0 0 1
Nghost:    13077 ave 13084 max 13070 min
Histogram: 1 0 0 0 0 0 0 0 0 1
Neighs:    766244 ave 767351 max 765137 min
Histogram: 1 0 0 0 0 0 0 0 0 1

Total # of neighbors = 1532488
Ave neighs/atom = 77.9813
Neighbor list builds = 19505
Dangerous builds not checked
Setting up Verlet run ...
  Unit style    : metal
  Current step  : 540000
  Time step     : 0.001
Per MPI rank memory allocation (min/avg/max) = 11.33 | 11.33 | 11.33 Mbytes
Step Temp Press TotEng PotEng Enthalpy 
  540000    1195.1236    1271.6813   -69245.595   -72281.318   -68989.892 
  540495    1168.6705   -483.86447   -69364.385   -72332.914   -69461.697 
Loop time of 45.2078 on 2 procs for 495 steps with 19652 atoms

Performance: 0.946 ns/day, 25.369 hours/ns, 10.949 timesteps/s
94.3% CPU use with 2 MPI tasks x no OpenMP threads

MPI task timing breakdown:
Section |  min time  |  avg time  |  max time  |%varavg| %total
---------------------------------------------------------------
Pair    | 24.516     | 24.579     | 24.642     |   1.3 | 54.37
Neigh   | 16.526     | 16.569     | 16.613     |   1.1 | 36.65
Comm    | 2.5376     | 2.9175     | 3.2973     |  22.2 |  6.45
Output  | 8.9884e-05 | 0.00011289 | 0.0001359  |   0.0 |  0.00
Modify  | 0.77184    | 1.0387     | 1.3055     |  26.2 |  2.30
Other   |            | 0.1032     |            |       |  0.23

Nlocal:    9826 ave 9833 max 9819 min
Histogram: 1 0 0 0 0 0 0 0 0 1
Nghost:    13041 ave 13053 max 13029 min
Histogram: 1 0 0 0 0 0 0 0 0 1
Neighs:    765795 ave 766989 max 764601 min
Histogram: 1 0 0 0 0 0 0 0 0 1

Total # of neighbors = 1531590
Ave neighs/atom = 77.9356
Neighbor list builds = 495
Dangerous builds not checked
Setting up Verlet run ...
  Unit style    : metal
  Current step  : 540495
  Time step     : 0.001
Per MPI rank memory allocation (min/avg/max) = 11.33 | 11.33 | 11.33 Mbytes
Step Temp Press TotEng PotEng Enthalpy 
  540495    1168.6705   -483.86447   -69364.385   -72332.914   -69461.697 
  560000    1143.5726    937.65761    -69599.37   -72504.149   -69411.549 
Loop time of 1854.79 on 2 procs for 19505 steps with 19652 atoms

Performance: 0.909 ns/day, 26.415 hours/ns, 10.516 timesteps/s
92.1% CPU use with 2 MPI tasks x no OpenMP threads

MPI task timing breakdown:
Section |  min time  |  avg time  |  max time  |%varavg| %total
---------------------------------------------------------------
Pair    | 977.82     | 980.03     | 982.24     |   7.1 | 52.84
Neigh   | 650.01     | 654.68     | 659.35     |  18.2 | 35.30
Comm    | 185.42     | 187.28     | 189.13     |  13.6 | 10.10
Output  | 0.037919   | 0.037934   | 0.037948   |   0.0 |  0.00
Modify  | 28.213     | 28.762     | 29.311     |  10.2 |  1.55
Other   |            | 4.002      |            |       |  0.22

Nlocal:    9826 ave 9832 max 9820 min
Histogram: 1 0 0 0 0 0 0 0 0 1
Nghost:    13100.5 ave 13113 max 13088 min
Histogram: 1 0 0 0 0 0 0 0 0 1
Neighs:    768490 ave 768995 max 767986 min
Histogram: 1 0 0 0 0 0 0 0 0 1

Total # of neighbors = 1536981
Ave neighs/atom = 78.2099
Neighbor list builds = 19505
Dangerous builds not checked
Setting up Verlet run ...
  Unit style    : metal
  Current step  : 560000
  Time step     : 0.001
Per MPI rank memory allocation (min/avg/max) = 11.33 | 11.33 | 11.33 Mbytes
Step Temp Press TotEng PotEng Enthalpy 
[...]
Histogram: 1 0 0 0 0 0 0 0 0 1
Neighs:    799478 ave 808530 max 790426 min
Histogram: 1 0 0 0 0 0 0 0 0 1

Total # of neighbors = 1598956
Ave neighs/atom = 81.3635
Neighbor list builds = 19505
Dangerous builds not checked
Setting up Verlet run ...
  Unit style    : metal
  Current step  : 840000
  Time step     : 0.001
Per MPI rank memory allocation (min/avg/max) = 11.33 | 11.33 | 11.33 Mbytes
Step Temp Press TotEng PotEng Enthalpy 
  840000    449.16565    667.10725   -74504.045   -75644.967   -74376.875 
  840495    420.26429   -43.506123   -74655.063   -75722.572   -74663.351 
Loop time of 55.5139 on 2 procs for 495 steps with 19652 atoms

Performance: 0.770 ns/day, 31.153 hours/ns, 8.917 timesteps/s
99.6% CPU use with 2 MPI tasks x no OpenMP threads

MPI task timing breakdown:
Section |  min time  |  avg time  |  max time  |%varavg| %total
---------------------------------------------------------------
Pair    | 31.102     | 31.189     | 31.277     |   1.6 | 56.18
Neigh   | 20.354     | 20.42      | 20.487     |   1.5 | 36.78
Comm    | 3.2078     | 3.2314     | 3.255      |   1.3 |  5.82
Output  | 8.5831e-05 | 0.0001173  | 0.00014877 |   0.0 |  0.00
Modify  | 0.50914    | 0.51061    | 0.51209    |   0.2 |  0.92
Other   |            | 0.1619     |            |       |  0.29

Nlocal:    9826 ave 9850 max 9802 min
Histogram: 1 0 0 0 0 0 0 0 0 1
Nghost:    13376 ave 13377 max 13375 min
Histogram: 1 0 0 0 0 0 0 0 0 1
Neighs:    800106 ave 810717 max 789495 min
Histogram: 1 0 0 0 0 0 0 0 0 1

Total # of neighbors = 1600212
Ave neighs/atom = 81.4274
Neighbor list builds = 495
Dangerous builds not checked
Setting up Verlet run ...
  Unit style    : metal
  Current step  : 840495
  Time step     : 0.001
Per MPI rank memory allocation (min/avg/max) = 11.33 | 11.33 | 11.33 Mbytes
Step Temp Press TotEng PotEng Enthalpy 
  840495    420.26429   -43.506123   -74655.063   -75722.572   -74663.351 
  860000    398.06045   -195.44486   -74777.605   -75788.715   -74814.816 
Loop time of 2165.98 on 2 procs for 19505 steps with 19652 atoms

Performance: 0.778 ns/day, 30.846 hours/ns, 9.005 timesteps/s
98.5% CPU use with 2 MPI tasks x no OpenMP threads

MPI task timing breakdown:
Section |  min time  |  avg time  |  max time  |%varavg| %total
---------------------------------------------------------------
Pair    | 1214.5     | 1220.3     | 1226.1     |  16.6 | 56.34
Neigh   | 789.23     | 794.79     | 800.35     |  19.7 | 36.69
Comm    | 113.19     | 124.6      | 136.01     | 102.2 |  5.75
Output  | 0.058727   | 0.058754   | 0.058781   |   0.0 |  0.00
Modify  | 20.043     | 20.052     | 20.062     |   0.2 |  0.93
Other   |            | 6.149      |            |       |  0.28

Nlocal:    9826 ave 9835 max 9817 min
Histogram: 1 0 0 0 0 0 0 0 0 1
Nghost:    13414 ave 13419 max 13409 min
Histogram: 1 0 0 0 0 0 0 0 0 1
Neighs:    800486 ave 809976 max 790997 min
Histogram: 1 0 0 0 0 0 0 0 0 1

Total # of neighbors = 1600973
Ave neighs/atom = 81.4662
Neighbor list builds = 19505
Dangerous builds not checked
Setting up Verlet run ...
  Unit style    : metal
  Current step  : 860000
  Time step     : 0.001
Per MPI rank memory allocation (min/avg/max) = 11.33 | 11.33 | 11.33 Mbytes
Step Temp Press TotEng PotEng Enthalpy 
  860000    398.06045   -195.44486   -74777.605   -75788.715   -74814.816 
  860495     373.4757   -120.51983   -74923.501   -75872.164   -74946.412 
Loop time of 53.7878 on 2 procs for 495 steps with 19652 atoms

Performance: 0.795 ns/day, 30.184 hours/ns, 9.203 timesteps/s
99.8% CPU use with 2 MPI tasks x no OpenMP threads

MPI task timing breakdown:
Section |  min time  |  avg time  |  max time  |%varavg| %total
---------------------------------------------------------------
Pair    | 29.851     | 29.984     | 30.118     |   2.4 | 55.75
Neigh   | 20.53      | 21.163     | 21.795     |  13.8 | 39.34
Comm    | 1.2108     | 1.9936     | 2.7763     |  55.4 |  3.71
Output  | 0.00010085 | 0.00012445 | 0.00014806 |   0.0 |  0.00
Modify  | 0.47286    | 0.48627    | 0.49969    |   1.9 |  0.90
Other   |            | 0.1607     |            |       |  0.30

Nlocal:    9826 ave 9840 max 9812 min
Histogram: 1 0 0 0 0 0 0 0 0 1
Nghost:    13406 ave 13409 max 13403 min
Histogram: 1 0 0 0 0 0 0 0 0 1
Neighs:    801359 ave 810987 max 791731 min
Histogram: 1 0 0 0 0 0 0 0 0 1

Total # of neighbors = 1602718
Ave neighs/atom = 81.555
Neighbor list builds = 495
Dangerous builds not checked
Setting up Verlet run ...
  Unit style    : metal
  Current step  : 860495
  Time step     : 0.001
Per MPI rank memory allocation (min/avg/max) = 11.33 | 11.33 | 11.33 Mbytes
Step Temp Press TotEng PotEng Enthalpy 
  860495     373.4757   -120.51983   -74923.501   -75872.164   -74946.412 
  880000    348.16763    400.60283   -75047.482   -75931.859   -74971.412 
Loop time of 2290.74 on 2 procs for 19505 steps with 19652 atoms

Performance: 0.736 ns/day, 32.623 hours/ns, 8.515 timesteps/s
94.3% CPU use with 2 MPI tasks x no OpenMP threads

MPI task timing breakdown:
Section |  min time  |  avg time  |  max time  |%varavg| %total
---------------------------------------------------------------
Pair    | 1281.1     | 1291.9     | 1302.8     |  30.1 | 56.40
Neigh   | 806.73     | 812.37     | 818        |  19.8 | 35.46
Comm    | 140.32     | 156.91     | 173.51     | 132.5 |  6.85
Output  | 2.1784     | 2.1785     | 2.1785     |   0.0 |  0.10
Modify  | 20.935     | 21.116     | 21.296     |   3.9 |  0.92
Other   |            | 6.249      |            |       |  0.27

Nlocal:    9826 ave 9851 max 9801 min
Histogram: 1 0 0 0 0 0 0 0 0 1
Nghost:    13414 ave 13426 max 13402 min
Histogram: 1 0 0 0 0 0 0 0 0 1
Neighs:    802012 ave 812656 max 791369 min
Histogram: 1 0 0 0 0 0 0 0 0 1

Total # of neighbors = 1604025
Ave neighs/atom = 81.6215
Neighbor list builds = 19505
Dangerous builds not checked
Setting up Verlet run ...
  Unit style    : metal
  Current step  : 880000
  Time step     : 0.001
Per MPI rank memory allocation (min/avg/max) = 11.33 | 11.33 | 11.33 Mbytes
Step Temp Press TotEng PotEng Enthalpy 
  880000    348.16763    400.60283   -75047.482   -75931.859   -74971.412 
  880495     322.0075    299.66036   -75187.062   -76004.991   -75130.219 
Loop time of 59.5705 on 2 procs for 495 steps with 19652 atoms

Performance: 0.718 ns/day, 33.429 hours/ns, 8.309 timesteps/s
90.9% CPU use with 2 MPI tasks x no OpenMP threads

MPI task timing breakdown:
Section |  min time  |  avg time  |  max time  |%varavg| %total
---------------------------------------------------------------
Pair    | 32.654     | 32.901     | 33.147     |   4.3 | 55.23
Neigh   | 18.984     | 19.526     | 20.068     |  12.3 | 32.78
Comm    | 5.6149     | 6.4122     | 7.2096     |  31.5 | 10.76
Output  | 0.00011706 | 0.00013947 | 0.00016189 |   0.0 |  0.00
Modify  | 0.58263    | 0.59577    | 0.60891    |   1.7 |  1.00
Other   |            | 0.1356     |            |       |  0.23

Nlocal:    9826 ave 9840 max 9812 min
Histogram: 1 0 0 0 0 0 0 0 0 1
Nghost:    13409.5 ave 13415 max 13404 min
Histogram: 1 0 0 0 0 0 0 0 0 1
Neighs:    802795 ave 812929 max 792661 min
Histogram: 1 0 0 0 0 0 0 0 0 1

Total # of neighbors = 1605590
Ave neighs/atom = 81.7011
Neighbor list builds = 495
Dangerous builds not checked
Setting up Verlet run ...
  Unit style    : metal
  Current step  : 880495
  Time step     : 0.001
Per MPI rank memory allocation (min/avg/max) = 11.33 | 11.33 | 11.33 Mbytes
Step Temp Press TotEng PotEng Enthalpy 
  880495     322.0075    299.66036   -75187.062   -76004.991   -75130.219 
  900000    301.61031    1182.0338   -75298.564   -76064.681   -75074.641 
Loop time of 2575.28 on 2 procs for 19505 steps with 19652 atoms

Performance: 0.654 ns/day, 36.675 hours/ns, 7.574 timesteps/s
89.5% CPU use with 2 MPI tasks x no OpenMP threads

MPI task timing breakdown:
Section |  min time  |  avg time  |  max time  |%varavg| %total
---------------------------------------------------------------
Pair    | 1437.7     | 1445.1     | 1452.5     |  19.4 | 56.11
Neigh   | 838.68     | 858.75     | 878.82     |  68.5 | 33.35
Comm    | 226.26     | 239.07     | 251.87     |  82.8 |  9.28
Output  | 0.064437   | 0.064443   | 0.064449   |   0.0 |  0.00
Modify  | 25.438     | 25.56      | 25.682     |   2.4 |  0.99
Other   |            | 6.732      |            |       |  0.26

Nlocal:    9826 ave 9839 max 9813 min
Histogram: 1 0 0 0 0 0 0 0 0 1
Nghost:    13414.5 ave 13430 max 13399 min
Histogram: 1 0 0 0 0 0 0 0 0 1
Neighs:    803830 ave 813802 max 793858 min
Histogram: 1 0 0 0 0 0 0 0 0 1

Total # of neighbors = 1607660
Ave neighs/atom = 81.8064
Neighbor list builds = 19505
Dangerous builds not checked
Setting up Verlet run ...
  Unit style    : metal
  Current step  : 900000
  Time step     : 0.001
Per MPI rank memory allocation (min/avg/max) = 11.33 | 11.33 | 11.33 Mbytes
Step Temp Press TotEng PotEng Enthalpy 
  900000    301.61031    1182.0338   -75298.564   -76064.681   -75074.641 
  900495    273.28776   -653.39045   -75446.368   -76140.544   -75570.127 
Loop time of 43.9705 on 2 procs for 495 steps with 19652 atoms

Performance: 0.973 ns/day, 24.675 hours/ns, 11.258 timesteps/s
98.4% CPU use with 2 MPI tasks x no OpenMP threads

MPI task timing breakdown:
Section |  min time  |  avg time  |  max time  |%varavg| %total
---------------------------------------------------------------
Pair    | 23.278     | 23.454     | 23.629     |   3.6 | 53.34
Neigh   | 17.633     | 17.713     | 17.793     |   1.9 | 40.28
Comm    | 2.039      | 2.3025     | 2.5661     |  17.4 |  5.24
Output  | 7.6056e-05 | 0.00010502 | 0.00013399 |   0.0 |  0.00
Modify  | 0.37885    | 0.38362    | 0.38839    |   0.8 |  0.87
Other   |            | 0.1178     |            |       |  0.27

Nlocal:    9826 ave 9839 max 9813 min
Histogram: 1 0 0 0 0 0 0 0 0 1
Nghost:    13435 ave 13452 max 13418 min
Histogram: 1 0 0 0 0 0 0 0 0 1
Neighs:    803572 ave 813271 max 793874 min
Histogram: 1 0 0 0 0 0 0 0 0 1

Total # of neighbors = 1607145
Ave neighs/atom = 81.7802
Neighbor list builds = 495
Dangerous builds not checked
Setting up Verlet run ...
  Unit style    : metal
  Current step  : 900495
  Time step     : 0.001
Per MPI rank memory allocation (min/avg/max) = 11.33 | 11.33 | 11.33 Mbytes
Step Temp Press TotEng PotEng Enthalpy 
  900495    273.28776   -653.39045   -75446.368   -76140.544   -75570.127 
  920000     248.9175    5.6022355   -75575.937    -76208.21   -75574.877 
Loop time of 2717.79 on 2 procs for 19505 steps with 19652 atoms

Performance: 0.620 ns/day, 38.705 hours/ns, 7.177 timesteps/s
84.6% CPU use with 2 MPI tasks x no OpenMP threads

MPI task timing breakdown:
Section |  min time  |  avg time  |  max time  |%varavg| %total
---------------------------------------------------------------
Pair    | 1509.2     | 1523.2     | 1537.3     |  36.0 | 56.05
Neigh   | 855.43     | 872.39     | 889.34     |  57.4 | 32.10
Comm    | 283.86     | 287.05     | 290.23     |  18.8 | 10.56
Output  | 0.31972    | 0.31974    | 0.31976    |   0.0 |  0.01
Modify  | 28.076     | 28.186     | 28.295     |   2.1 |  1.04
Other   |            | 6.605      |            |       |  0.24

Nlocal:    9826 ave 9835 max 9817 min
Histogram: 1 0 0 0 0 0 0 0 0 1
Nghost:    13413 ave 13421 max 13405 min
Histogram: 1 0 0 0 0 0 0 0 0 1
Neighs:    804431 ave 813549 max 795313 min
Histogram: 1 0 0 0 0 0 0 0 0 1

Total # of neighbors = 1608862
Ave neighs/atom = 81.8676
Neighbor list builds = 19505
Dangerous builds not checked
Setting up Verlet run ...
  Unit style    : metal
  Current step  : 920000
  Time step     : 0.001
Per MPI rank memory allocation (min/avg/max) = 11.33 | 11.33 | 11.33 Mbytes
Step Temp Press TotEng PotEng Enthalpy 
  920000     248.9175    5.6022355   -75575.937    -76208.21   -75574.877 
  920495    224.65845   -291.98233   -75706.033   -76276.685   -75761.222 
Loop time of 91.8077 on 2 procs for 495 steps with 19652 atoms

Performance: 0.466 ns/day, 51.519 hours/ns, 5.392 timesteps/s
75.5% CPU use with 2 MPI tasks x no OpenMP threads

MPI task timing breakdown:
Section |  min time  |  avg time  |  max time  |%varavg| %total
---------------------------------------------------------------
Pair    | 51.072     | 52.089     | 53.107     |  14.1 | 56.74
Neigh   | 26.289     | 27.268     | 28.247     |  18.8 | 29.70
Comm    | 11.229     | 11.234     | 11.238     |   0.1 | 12.24
Output  | 9.4891e-05 | 0.00011885 | 0.00014281 |   0.0 |  0.00
Modify  | 0.99822    | 1.0149     | 1.0316     |   1.7 |  1.11
Other   |            | 0.2016     |            |       |  0.22

Nlocal:    9826 ave 9840 max 9812 min
Histogram: 1 0 0 0 0 0 0 0 0 1
Nghost:    13419.5 ave 13433 max 13406 min
Histogram: 1 0 0 0 0 0 0 0 0 1
Neighs:    805040 ave 814999 max 795082 min
Histogram: 1 0 0 0 0 0 0 0 0 1

Total # of neighbors = 1610081
Ave neighs/atom = 81.9296
Neighbor list builds = 495
Dangerous builds not checked
Setting up Verlet run ...
  Unit style    : metal
  Current step  : 920495
  Time step     : 0.001
Per MPI rank memory allocation (min/avg/max) = 11.33 | 11.33 | 11.33 Mbytes
Step Temp Press TotEng PotEng Enthalpy 
  920495    224.65845   -291.98233   -75706.033   -76276.685   -75761.222 
  940000    200.17393    427.55656   -75832.681   -76341.141   -75751.974 
Loop time of 2681.22 on 2 procs for 19505 steps with 19652 atoms

Performance: 0.629 ns/day, 38.184 hours/ns, 7.275 timesteps/s
88.8% CPU use with 2 MPI tasks x no OpenMP threads

MPI task timing breakdown:
Section |  min time  |  avg time  |  max time  |%varavg| %total
---------------------------------------------------------------
Pair    | 1507.4     | 1517.1     | 1526.8     |  24.8 | 56.58
Neigh   | 900.76     | 922.12     | 943.47     |  70.3 | 34.39
Comm    | 193.86     | 205.53     | 217.2      |  81.4 |  7.67
Output  | 0.071807   | 0.071808   | 0.071809   |   0.0 |  0.00
Modify  | 28.755     | 28.934     | 29.113     |   3.3 |  1.08
Other   |            | 7.452      |            |       |  0.28

Nlocal:    9826 ave 9841 max 9811 min
Histogram: 1 0 0 0 0 0 0 0 0 1
Nghost:    13433.5 ave 13437 max 13430 min
Histogram: 1 0 0 0 0 0 0 0 0 1
Neighs:    805808 ave 815830 max 795786 min
Histogram: 1 0 0 0 0 0 0 0 0 1

Total # of neighbors = 1611616
Ave neighs/atom = 82.0077
Neighbor list builds = 19505
Dangerous builds not checked
Setting up Verlet run ...
  Unit style    : metal
  Current step  : 940000
  Time step     : 0.001
Per MPI rank memory allocation (min/avg/max) = 11.33 | 11.33 | 11.33 Mbytes
Step Temp Press TotEng PotEng Enthalpy 
  940000    200.17393    427.55656   -75832.681   -76341.141   -75751.974 
  940495    175.28098    316.15879   -75961.275   -76406.505   -75901.648 
Loop time of 57.6377 on 2 procs for 495 steps with 19652 atoms

Performance: 0.742 ns/day, 32.344 hours/ns, 8.588 timesteps/s
95.7% CPU use with 2 MPI tasks x no OpenMP threads

MPI task timing breakdown:
Section |  min time  |  avg time  |  max time  |%varavg| %total
---------------------------------------------------------------
Pair    | 32.92      | 33.021     | 33.123     |   1.8 | 57.29
Neigh   | 20.685     | 20.84      | 20.995     |   3.4 | 36.16
Comm    | 3.0139     | 3.0704     | 3.127      |   3.2 |  5.33
Output  | 0.00011086 | 0.000139   | 0.00016713 |   0.0 |  0.00
Modify  | 0.52735    | 0.5281     | 0.52885    |   0.1 |  0.92
Other   |            | 0.1772     |            |       |  0.31

Nlocal:    9826 ave 9843 max 9809 min
Histogram: 1 0 0 0 0 0 0 0 0 1
Nghost:    13449.5 ave 13455 max 13444 min
Histogram: 1 0 0 0 0 0 0 0 0 1
Neighs:    806292 ave 816026 max 796559 min
Histogram: 1 0 0 0 0 0 0 0 0 1

Total # of neighbors = 1612585
Ave neighs/atom = 82.057
Neighbor list builds = 495
Dangerous builds not checked
Setting up Verlet run ...
  Unit style    : metal
  Current step  : 940495
  Time step     : 0.001
Per MPI rank memory allocation (min/avg/max) = 11.33 | 11.33 | 11.33 Mbytes
Step Temp Press TotEng PotEng Enthalpy 
  940495    175.28098    316.15879   -75961.275   -76406.505   -75901.648 
  960000    151.39285   -533.65055   -76089.652   -76474.203   -76190.251 
Loop time of 2284.02 on 2 procs for 19505 steps with 19652 atoms

Performance: 0.738 ns/day, 32.528 hours/ns, 8.540 timesteps/s
98.0% CPU use with 2 MPI tasks x no OpenMP threads

MPI task timing breakdown:
Section |  min time  |  avg time  |  max time  |%varavg| %total
---------------------------------------------------------------
Pair    | 1274.5     | 1288.9     | 1303.3     |  40.0 | 56.43
Neigh   | 840.17     | 842.28     | 844.38     |   7.2 | 36.88
Comm    | 111.82     | 124.17     | 136.52     | 110.9 |  5.44
Output  | 0.059465   | 0.059514   | 0.059563   |   0.0 |  0.00
Modify  | 21.602     | 21.646     | 21.691     |   1.0 |  0.95
Other   |            | 6.969      |            |       |  0.31

Nlocal:    9826 ave 9832 max 9820 min
Histogram: 1 0 0 0 0 0 0 0 0 1
Nghost:    13438 ave 13444 max 13432 min
Histogram: 1 0 0 0 0 0 0 0 0 1
Neighs:    806560 ave 815403 max 797716 min
Histogram: 1 0 0 0 0 0 0 0 0 1

Total # of neighbors = 1613119
Ave neighs/atom = 82.0842
Neighbor list builds = 19505
Dangerous builds not checked
Setting up Verlet run ...
  Unit style    : metal
  Current step  : 960000
  Time step     : 0.001
Per MPI rank memory allocation (min/avg/max) = 11.33 | 11.33 | 11.33 Mbytes
Step Temp Press TotEng PotEng Enthalpy 
  960000    151.39285   -533.65055   -76089.652   -76474.203   -76190.251 
  960495    126.11365    138.92183   -76211.008   -76531.348   -76184.851 
Loop time of 61.3138 on 2 procs for 495 steps with 19652 atoms

Performance: 0.698 ns/day, 34.407 hours/ns, 8.073 timesteps/s
99.2% CPU use with 2 MPI tasks x no OpenMP threads

MPI task timing breakdown:
Section |  min time  |  avg time  |  max time  |%varavg| %total
---------------------------------------------------------------
Pair    | 33.909     | 35.227     | 36.546     |  22.2 | 57.45
Neigh   | 20.706     | 21.589     | 22.472     |  19.0 | 35.21
Comm    | 1.4428     | 3.6781     | 5.9134     | 116.6 |  6.00
Output  | 0.00014496 | 0.00019646 | 0.00024796 |   0.0 |  0.00
Modify  | 0.58794    | 0.61339    | 0.63884    |   3.2 |  1.00
Other   |            | 0.2057     |            |       |  0.34

Nlocal:    9826 ave 9837 max 9815 min
Histogram: 1 0 0 0 0 0 0 0 0 1
Nghost:    13468.5 ave 13471 max 13466 min
Histogram: 1 0 0 0 0 0 0 0 0 1
Neighs:    807262 ave 816204 max 798321 min
Histogram: 1 0 0 0 0 0 0 0 0 1

Total # of neighbors = 1614525
Ave neighs/atom = 82.1558
Neighbor list builds = 495
Dangerous builds not checked
Setting up Verlet run ...
  Unit style    : metal
  Current step  : 960495
  Time step     : 0.001
Per MPI rank memory allocation (min/avg/max) = 11.33 | 11.33 | 11.33 Mbytes
Step Temp Press TotEng PotEng Enthalpy 
  960495    126.11365    138.92183   -76211.008   -76531.348   -76184.851 
  980000    100.58972   -233.11163   -76350.199   -76605.706   -76394.057 
Loop time of 2323.85 on 2 procs for 19505 steps with 19652 atoms

Performance: 0.725 ns/day, 33.095 hours/ns, 8.393 timesteps/s
98.0% CPU use with 2 MPI tasks x no OpenMP threads

MPI task timing breakdown:
Section |  min time  |  avg time  |  max time  |%varavg| %total
---------------------------------------------------------------
Pair    | 1294.7     | 1316.3     | 1337.9     |  59.5 | 56.64
Neigh   | 836.48     | 850.54     | 864.59     |  48.2 | 36.60
Comm    | 118.51     | 125.94     | 133.38     |  66.3 |  5.42
Output  | 0.054432   | 0.054491   | 0.054551   |   0.0 |  0.00
Modify  | 23.642     | 23.663     | 23.685     |   0.4 |  1.02
Other   |            | 7.376      |            |       |  0.32

Nlocal:    9826 ave 9832 max 9820 min
Histogram: 1 0 0 0 0 0 0 0 0 1
Nghost:    13458 ave 13465 max 13451 min
Histogram: 1 0 0 0 0 0 0 0 0 1
Neighs:    807756 ave 816987 max 798525 min
Histogram: 1 0 0 0 0 0 0 0 0 1

Total # of neighbors = 1615512
Ave neighs/atom = 82.206
Neighbor list builds = 19505
Dangerous builds not checked
Total wall time: 27:16:39
