LAMMPS (12 Dec 2018)
Lattice spacing in x,y,z = 4 4 4
Created orthogonal box = (0 0 0) to (68 68 68)
  1 by 1 by 2 MPI processor grid
Created 19652 atoms
  Time spent = 0.00601006 secs
Setting atom values ...
  417 settings made for type/fraction
Neighbor list info ...
  update every 1 steps, delay 0 steps, check no
  max neighbors/atom: 2000, page size: 100000
  master list distance cutoff = 8.2
  ghost atom cutoff = 8.2
  binsize = 4.1, bins = 17 17 17
  1 neighbor lists, perpetual/occasional/extra = 1 0 0
  (1) pair eam/alloy, perpetual
      attributes: half, newton on
      pair build: half/bin/atomonly/newton
      stencil: half/bin/3d/newton
      bin: standard
Setting up Verlet run ...
  Unit style    : metal
  Current step  : 0
  Time step     : 0.001
Per MPI rank memory allocation (min/avg/max) = 10.76 | 10.76 | 10.76 Mbytes
Step Temp Press TotEng PotEng Enthalpy 
       0          300   -244041.94   -60108.252   -60870.279   -108002.22 
    1000    703.39848   -67633.367   -60108.337   -61895.033    -73381.59 
Loop time of 88.5852 on 2 procs for 1000 steps with 19652 atoms

Performance: 0.975 ns/day, 24.607 hours/ns, 11.289 timesteps/s
98.7% CPU use with 2 MPI tasks x no OpenMP threads

MPI task timing breakdown:
Section |  min time  |  avg time  |  max time  |%varavg| %total
---------------------------------------------------------------
Pair    | 48.385     | 48.471     | 48.557     |   1.2 | 54.72
Neigh   | 34.366     | 35.832     | 37.298     |  24.5 | 40.45
Comm    | 2.4454     | 3.8406     | 5.2359     |  71.2 |  4.34
Output  | 0.00012088 | 0.0001719  | 0.00022292 |   0.0 |  0.00
Modify  | 0.21565    | 0.22378    | 0.23191    |   1.7 |  0.25
Other   |            | 0.2173     |            |       |  0.25

Nlocal:    9826 ave 9846 max 9806 min
Histogram: 1 0 0 0 0 0 0 0 0 1
Nghost:    12588.5 ave 12801 max 12376 min
Histogram: 1 0 0 0 0 0 0 0 0 1
Neighs:    719272 ave 719918 max 718625 min
Histogram: 1 0 0 0 0 0 0 0 0 1

Total # of neighbors = 1438543
Ave neighs/atom = 73.2008
Neighbor list builds = 1000
Dangerous builds not checked
Setting up Verlet run ...
  Unit style    : metal
  Current step  : 1000
  Time step     : 0.001
Per MPI rank memory allocation (min/avg/max) = 10.76 | 10.76 | 10.76 Mbytes
Step Temp Press TotEng PotEng Enthalpy 
    1000    703.39848   -67633.367   -60108.337   -61895.033    -73381.59 
    2000     407.6794   -2393.9976   -65508.337   -66543.879   -65877.327 
Loop time of 108.626 on 2 procs for 1000 steps with 19652 atoms

Performance: 0.795 ns/day, 30.174 hours/ns, 9.206 timesteps/s
96.9% CPU use with 2 MPI tasks x no OpenMP threads

MPI task timing breakdown:
Section |  min time  |  avg time  |  max time  |%varavg| %total
---------------------------------------------------------------
Pair    | 59.477     | 59.756     | 60.034     |   3.6 | 55.01
Neigh   | 38.125     | 40.595     | 43.065     |  38.8 | 37.37
Comm    | 5.004      | 7.2276     | 9.4513     |  82.7 |  6.65
Output  | 0.00010896 | 0.00015342 | 0.00019789 |   0.0 |  0.00
Modify  | 0.79882    | 0.82475    | 0.85068    |   2.9 |  0.76
Other   |            | 0.2231     |            |       |  0.21

Nlocal:    9826 ave 9838 max 9814 min
Histogram: 1 0 0 0 0 0 0 0 0 1
Nghost:    14019.5 ave 14085 max 13954 min
Histogram: 1 0 0 0 0 0 0 0 0 1
Neighs:    892475 ave 899302 max 885648 min
Histogram: 1 0 0 0 0 0 0 0 0 1

Total # of neighbors = 1784950
Ave neighs/atom = 90.8279
Neighbor list builds = 1000
Dangerous builds not checked
Setting up Verlet run ...
  Unit style    : metal
  Current step  : 2000
  Time step     : 0.001
Per MPI rank memory allocation (min/avg/max) = 11.53 | 11.53 | 11.53 Mbytes
Step Temp Press TotEng PotEng Enthalpy 
    2000     407.6794   -2393.9976   -65508.337   -66543.879   -65877.327 
   10000    2438.0957   -145.35462   -53177.522   -59370.507    -53202.94 
Loop time of 873.128 on 2 procs for 8000 steps with 19652 atoms

Performance: 0.792 ns/day, 30.317 hours/ns, 9.162 timesteps/s
99.0% CPU use with 2 MPI tasks x no OpenMP threads

MPI task timing breakdown:
Section |  min time  |  avg time  |  max time  |%varavg| %total
---------------------------------------------------------------
Pair    | 488.72     | 489.15     | 489.59     |   2.0 | 56.02
Neigh   | 306.39     | 329.4      | 352.41     | 126.8 | 37.73
Comm    | 23.42      | 46.37      | 69.32      | 337.0 |  5.31
Output  | 0.035901   | 0.035929   | 0.035957   |   0.0 |  0.00
Modify  | 6.1609     | 6.4231     | 6.6853     |  10.3 |  0.74
Other   |            | 1.741      |            |       |  0.20

Nlocal:    9826 ave 9844 max 9808 min
Histogram: 1 0 0 0 0 0 0 0 0 1
Nghost:    13222 ave 13227 max 13217 min
Histogram: 1 0 0 0 0 0 0 0 0 1
Neighs:    788732 ave 794122 max 783341 min
Histogram: 1 0 0 0 0 0 0 0 0 1

Total # of neighbors = 1577463
Ave neighs/atom = 80.2698
Neighbor list builds = 8000
Dangerous builds not checked
Setting up Verlet run ...
  Unit style    : metal
  Current step  : 10000
  Time step     : 0.001
Per MPI rank memory allocation (min/avg/max) = 11.55 | 11.55 | 11.55 Mbytes
Step Temp Press TotEng PotEng Enthalpy 
   10000    2438.0957   -145.35462   -53177.522   -59370.507    -53202.94 
   20000    2457.3846   -889.58821   -52985.495   -59227.476   -53141.585 
   30000     2444.676   -2090.4623   -53135.808   -59345.507    -53502.16 
   40000    2454.9187   -211.80479   -53031.948   -59267.665   -53069.073 
Loop time of 3320.24 on 2 procs for 30000 steps with 19652 atoms

Performance: 0.781 ns/day, 30.743 hours/ns, 9.035 timesteps/s
96.7% CPU use with 2 MPI tasks x no OpenMP threads

MPI task timing breakdown:
Section |  min time  |  avg time  |  max time  |%varavg| %total
---------------------------------------------------------------
Pair    | 1805.9     | 1806.8     | 1807.8     |   2.2 | 54.42
Neigh   | 1218.9     | 1295.5     | 1372       | 212.7 | 39.02
Comm    | 107.46     | 184.6      | 261.75     | 567.8 |  5.56
Output  | 0.16538    | 0.1655     | 0.16561    |   0.0 |  0.00
Modify  | 25.39      | 26.512     | 27.634     |  21.8 |  0.80
Other   |            | 6.666      |            |       |  0.20

Nlocal:    9826 ave 9841 max 9811 min
Histogram: 1 0 0 0 0 0 0 0 0 1
Nghost:    13212 ave 13225 max 13199 min
Histogram: 1 0 0 0 0 0 0 0 0 1
Neighs:    787006 ave 796962 max 777049 min
Histogram: 1 0 0 0 0 0 0 0 0 1

Total # of neighbors = 1574011
Ave neighs/atom = 80.0942
Neighbor list builds = 30000
Dangerous builds not checked
Setting up Verlet run ...
  Unit style    : metal
  Current step  : 40000
  Time step     : 0.001
Per MPI rank memory allocation (min/avg/max) = 11.62 | 11.62 | 11.62 Mbytes
Step Temp Press TotEng PotEng Enthalpy 
   40000    2454.9187   -211.80479   -53031.948   -59267.665   -53069.073 
   40495    2414.1516    1926.5485   -53273.074   -59405.239   -52937.109 
Loop time of 56.0961 on 2 procs for 495 steps with 19652 atoms

Performance: 0.762 ns/day, 31.479 hours/ns, 8.824 timesteps/s
95.4% CPU use with 2 MPI tasks x no OpenMP threads

MPI task timing breakdown:
Section |  min time  |  avg time  |  max time  |%varavg| %total
---------------------------------------------------------------
Pair    | 30.142     | 30.527     | 30.913     |   7.0 | 54.42
Neigh   | 21.068     | 22.478     | 23.888     |  29.7 | 40.07
Comm    | 1.4866     | 2.5275     | 3.5684     |  65.5 |  4.51
Output  | 9.5129e-05 | 0.00015056 | 0.00020599 |   0.0 |  0.00
Modify  | 0.43148    | 0.44276    | 0.45403    |   1.7 |  0.79
Other   |            | 0.1202     |            |       |  0.21

Nlocal:    9826 ave 9831 max 9821 min
Histogram: 1 0 0 0 0 0 0 0 0 1
Nghost:    13235 ave 13241 max 13229 min
Histogram: 1 0 0 0 0 0 0 0 0 1
Neighs:    790970 ave 798376 max 783564 min
Histogram: 1 0 0 0 0 0 0 0 0 1

Total # of neighbors = 1581940
Ave neighs/atom = 80.4977
Neighbor list builds = 495
Dangerous builds not checked
Setting up Verlet run ...
  Unit style    : metal
  Current step  : 40495
  Time step     : 0.001
Per MPI rank memory allocation (min/avg/max) = 11.62 | 11.62 | 11.62 Mbytes
Step Temp Press TotEng PotEng Enthalpy 
   40495    2414.1516    1926.5485   -53273.074   -59405.239   -52937.109 
   50000    2412.8527   -418.28835   -53271.177   -59400.043   -53344.285 
Loop time of 1152.75 on 2 procs for 9505 steps with 19652 atoms

Performance: 0.712 ns/day, 33.689 hours/ns, 8.245 timesteps/s
95.7% CPU use with 2 MPI tasks x no OpenMP threads

MPI task timing breakdown:
Section |  min time  |  avg time  |  max time  |%varavg| %total
---------------------------------------------------------------
Pair    | 617.78     | 627.74     | 637.7      |  39.8 | 54.46
Neigh   | 443.75     | 450.72     | 457.68     |  32.8 | 39.10
Comm    | 45.24      | 62.39      | 79.539     | 217.1 |  5.41
Output  | 0.043231   | 0.04327    | 0.043308   |   0.0 |  0.00
Modify  | 9.3268     | 9.4772     | 9.6276     |   4.9 |  0.82
Other   |            | 2.39       |            |       |  0.21

Nlocal:    9826 ave 9829 max 9823 min
Histogram: 1 0 0 0 0 0 0 0 0 1
Nghost:    13225 ave 13244 max 13206 min
Histogram: 1 0 0 0 0 0 0 0 0 1
Neighs:    789516 ave 797938 max 781095 min
Histogram: 1 0 0 0 0 0 0 0 0 1

Total # of neighbors = 1579033
Ave neighs/atom = 80.3497
Neighbor list builds = 9505
Dangerous builds not checked
Setting up Verlet run ...
  Unit style    : metal
  Current step  : 50000
  Time step     : 0.001
Per MPI rank memory allocation (min/avg/max) = 11.63 | 11.63 | 11.63 Mbytes
Step Temp Press TotEng PotEng Enthalpy 
   50000    2412.8527   -418.28835   -53271.177   -59400.043   -53344.285 
   50495    2352.0952   -403.40355   -53583.454    -59557.99   -53653.709 
Loop time of 57.3043 on 2 procs for 495 steps with 19652 atoms

Performance: 0.746 ns/day, 32.157 hours/ns, 8.638 timesteps/s
99.4% CPU use with 2 MPI tasks x no OpenMP threads

MPI task timing breakdown:
Section |  min time  |  avg time  |  max time  |%varavg| %total
---------------------------------------------------------------
Pair    | 30.26      | 31.341     | 32.422     |  19.3 | 54.69
Neigh   | 21.843     | 22.652     | 23.462     |  17.0 | 39.53
Comm    | 0.81989    | 2.7388     | 4.6577     | 116.0 |  4.78
Output  | 8.297e-05  | 0.000126   | 0.00016904 |   0.0 |  0.00
Modify  | 0.43462    | 0.44365    | 0.45268    |   1.4 |  0.77
Other   |            | 0.1287     |            |       |  0.22

Nlocal:    9826 ave 9842 max 9810 min
Histogram: 1 0 0 0 0 0 0 0 0 1
Nghost:    13260 ave 13303 max 13217 min
Histogram: 1 0 0 0 0 0 0 0 0 1
Neighs:    791972 ave 801334 max 782610 min
Histogram: 1 0 0 0 0 0 0 0 0 1

Total # of neighbors = 1583944
Ave neighs/atom = 80.5996
Neighbor list builds = 495
Dangerous builds not checked
Setting up Verlet run ...
  Unit style    : metal
  Current step  : 50495
  Time step     : 0.001
Per MPI rank memory allocation (min/avg/max) = 11.63 | 11.63 | 11.63 Mbytes
Step Temp Press TotEng PotEng Enthalpy 
   50495    2352.0952   -403.40355   -53583.454    -59557.99   -53653.709 
   60000    2359.5733   -2138.2981   -53618.929   -59612.461   -53991.511 
Loop time of 1124.82 on 2 procs for 9505 steps with 19652 atoms

Performance: 0.730 ns/day, 32.872 hours/ns, 8.450 timesteps/s
95.8% CPU use with 2 MPI tasks x no OpenMP threads

MPI task timing breakdown:
Section |  min time  |  avg time  |  max time  |%varavg| %total
---------------------------------------------------------------
Pair    | 595.75     | 609.76     | 623.77     |  56.7 | 54.21
Neigh   | 442.55     | 446.09     | 449.63     |  16.8 | 39.66
Comm    | 39.292     | 56.89      | 74.489     | 233.3 |  5.06
Output  | 0.039993   | 0.040021   | 0.040049   |   0.0 |  0.00
Modify  | 9.7004     | 9.7232     | 9.746      |   0.7 |  0.86
Other   |            | 2.312      |            |       |  0.21

Nlocal:    9826 ave 9828 max 9824 min
Histogram: 1 0 0 0 0 0 0 0 0 1
Nghost:    13251 ave 13271 max 13231 min
Histogram: 1 0 0 0 0 0 0 0 0 1
Neighs:    791584 ave 800554 max 782614 min
Histogram: 1 0 0 0 0 0 0 0 0 1

Total # of neighbors = 1583168
Ave neighs/atom = 80.5601
Neighbor list builds = 9505
Dangerous builds not checked
Setting up Verlet run ...
  Unit style    : metal
  Current step  : 60000
  Time step     : 0.001
Per MPI rank memory allocation (min/avg/max) = 11.63 | 11.63 | 11.64 Mbytes
Step Temp Press TotEng PotEng Enthalpy 
   60000    2359.5733   -2138.2981   -53618.929   -59612.461   -53991.511 
   60495    2308.1865    438.71923   -53895.389   -59758.393   -53819.373 
Loop time of 53.4503 on 2 procs for 495 steps with 19652 atoms

Performance: 0.800 ns/day, 29.995 hours/ns, 9.261 timesteps/s
98.6% CPU use with 2 MPI tasks x no OpenMP threads

MPI task timing breakdown:
Section |  min time  |  avg time  |  max time  |%varavg| %total
---------------------------------------------------------------
Pair    | 29.052     | 29.164     | 29.275     |   2.1 | 54.56
Neigh   | 21.782     | 21.965     | 22.149     |   3.9 | 41.09
Comm    | 1.7168     | 1.7854     | 1.854      |   5.1 |  3.34
Output  | 9.1791e-05 | 0.00015438 | 0.00021696 |   0.0 |  0.00
Modify  | 0.41855    | 0.42153    | 0.42451    |   0.5 |  0.79
Other   |            | 0.1143     |            |       |  0.21

Nlocal:    9826 ave 9833 max 9819 min
Histogram: 1 0 0 0 0 0 0 0 0 1
Nghost:    13307.5 ave 13309 max 13306 min
Histogram: 1 0 0 0 0 0 0 0 0 1
Neighs:    796138 ave 803822 max 788455 min
Histogram: 1 0 0 0 0 0 0 0 0 1

Total # of neighbors = 1592277
Ave neighs/atom = 81.0237
Neighbor list builds = 495
Dangerous builds not checked
Setting up Verlet run ...
  Unit style    : metal
  Current step  : 60495
  Time step     : 0.001
Per MPI rank memory allocation (min/avg/max) = 11.63 | 11.63 | 11.64 Mbytes
Step Temp Press TotEng PotEng Enthalpy 
   60495    2308.1865    438.71923   -53895.389   -59758.393   -53819.373 
   70000    2283.9259   -343.86195   -53985.577   -59786.957   -54045.162 
Loop time of 1085.12 on 2 procs for 9505 steps with 19652 atoms

Performance: 0.757 ns/day, 31.712 hours/ns, 8.759 timesteps/s
95.2% CPU use with 2 MPI tasks x no OpenMP threads

MPI task timing breakdown:
Section |  min time  |  avg time  |  max time  |%varavg| %total
---------------------------------------------------------------
Pair    | 582.98     | 587.87     | 592.77     |  20.2 | 54.18
Neigh   | 440.98     | 441.89     | 442.81     |   4.3 | 40.72
Comm    | 37.58      | 43.638     | 49.696     |  91.7 |  4.02
Output  | 0.073616   | 0.078928   | 0.084241   |   1.9 |  0.01
Modify  | 9.1641     | 9.382      | 9.5998     |   7.1 |  0.86
Other   |            | 2.26       |            |       |  0.21

Nlocal:    9826 ave 9834 max 9818 min
Histogram: 1 0 0 0 0 0 0 0 0 1
Nghost:    13295 ave 13312 max 13278 min
Histogram: 1 0 0 0 0 0 0 0 0 1
Neighs:    795741 ave 806033 max 785449 min
Histogram: 1 0 0 0 0 0 0 0 0 1

Total # of neighbors = 1591482
Ave neighs/atom = 80.9832
Neighbor list builds = 9505
Dangerous builds not checked
Setting up Verlet run ...
  Unit style    : metal
  Current step  : 70000
  Time step     : 0.001
Per MPI rank memory allocation (min/avg/max) = 11.64 | 11.64 | 11.64 Mbytes
Step Temp Press TotEng PotEng Enthalpy 
   70000    2283.9259   -343.86195   -53985.577   -59786.957   -54045.162 
   70495    2255.4764     137.0175   -54224.251   -59953.367   -54200.604 
Loop time of 58.5365 on 2 procs for 495 steps with 19652 atoms

Performance: 0.731 ns/day, 32.849 hours/ns, 8.456 timesteps/s
95.6% CPU use with 2 MPI tasks x no OpenMP threads

MPI task timing breakdown:
Section |  min time  |  avg time  |  max time  |%varavg| %total
---------------------------------------------------------------
Pair    | 31.816     | 31.842     | 31.868     |   0.5 | 54.40
Neigh   | 22.348     | 23.229     | 24.111     |  18.3 | 39.68
Comm    | 1.9586     | 2.8898     | 3.8209     |  54.8 |  4.94
Output  | 0.00011206 | 0.00013947 | 0.00016689 |   0.0 |  0.00
Modify  | 0.43906    | 0.45557    | 0.47207    |   2.4 |  0.78
Other   |            | 0.1197     |            |       |  0.20

Nlocal:    9826 ave 9827 max 9825 min
Histogram: 1 0 0 0 0 0 0 0 0 1
Nghost:    13276.5 ave 13296 max 13257 min
Histogram: 1 0 0 0 0 0 0 0 0 1
Neighs:    798950 ave 808154 max 789747 min
Histogram: 1 0 0 0 0 0 0 0 0 1

Total # of neighbors = 1597901
Ave neighs/atom = 81.3098
Neighbor list builds = 495
Dangerous builds not checked
Setting up Verlet run ...
  Unit style    : metal
  Current step  : 70495
  Time step     : 0.001
Per MPI rank memory allocation (min/avg/max) = 11.64 | 11.64 | 11.64 Mbytes
Step Temp Press TotEng PotEng Enthalpy 
   70495    2255.4764     137.0175   -54224.251   -59953.367   -54200.604 
   80000    2241.4696    1500.6875   -54274.486   -59968.023    -54015.73 
Loop time of 1100.75 on 2 procs for 9505 steps with 19652 atoms

Performance: 0.746 ns/day, 32.169 hours/ns, 8.635 timesteps/s
95.7% CPU use with 2 MPI tasks x no OpenMP threads

MPI task timing breakdown:
Section |  min time  |  avg time  |  max time  |%varavg| %total
---------------------------------------------------------------
Pair    | 592.16     | 599.44     | 606.72     |  29.7 | 54.46
Neigh   | 440.86     | 442.58     | 444.3      |   8.2 | 40.21
Comm    | 37.423     | 46.44      | 55.456     | 132.3 |  4.22
Output  | 0.056827   | 0.056896   | 0.056964   |   0.0 |  0.01
Modify  | 9.9738     | 9.9876     | 10.002     |   0.4 |  0.91
Other   |            | 2.244      |            |       |  0.20

Nlocal:    9826 ave 9832 max 9820 min
Histogram: 1 0 0 0 0 0 0 0 0 1
Nghost:    13331 ave 13362 max 13300 min
Histogram: 1 0 0 0 0 0 0 0 0 1
Neighs:    799464 ave 808626 max 790301 min
Histogram: 1 0 0 0 0 0 0 0 0 1

Total # of neighbors = 1598927
Ave neighs/atom = 81.362
Neighbor list builds = 9505
Dangerous builds not checked
Setting up Verlet run ...
  Unit style    : metal
  Current step  : 80000
  Time step     : 0.001
Per MPI rank memory allocation (min/avg/max) = 11.65 | 11.65 | 11.65 Mbytes
Step Temp Press TotEng PotEng Enthalpy 
   80000    2241.4696    1500.6875   -54274.486   -59968.023    -54015.73 
   80495    2212.4327    1310.9347   -54463.646   -60083.427   -54238.233 
Loop time of 55.7424 on 2 procs for 495 steps with 19652 atoms

Performance: 0.767 ns/day, 31.281 hours/ns, 8.880 timesteps/s
98.8% CPU use with 2 MPI tasks x no OpenMP threads

MPI task timing breakdown:
Section |  min time  |  avg time  |  max time  |%varavg| %total
---------------------------------------------------------------
Pair    | 29.215     | 29.831     | 30.447     |  11.3 | 53.52
Neigh   | 22.467     | 22.47      | 22.473     |   0.1 | 40.31
Comm    | 2.2937     | 2.91       | 3.5263     |  36.1 |  5.22
Output  | 8.6069e-05 | 0.00012362 | 0.00016117 |   0.0 |  0.00
Modify  | 0.41393    | 0.41806    | 0.4222     |   0.6 |  0.75
Other   |            | 0.1129     |            |       |  0.20

Nlocal:    9826 ave 9839 max 9813 min
Histogram: 1 0 0 0 0 0 0 0 0 1
Nghost:    13316 ave 13322 max 13310 min
Histogram: 1 0 0 0 0 0 0 0 0 1
Neighs:    801612 ave 808227 max 794997 min
Histogram: 1 0 0 0 0 0 0 0 0 1

Total # of neighbors = 1603224
Ave neighs/atom = 81.5807
Neighbor list builds = 495
Dangerous builds not checked
Setting up Verlet run ...
  Unit style    : metal
  Current step  : 80495
  Time step     : 0.001
Per MPI rank memory allocation (min/avg/max) = 11.65 | 11.65 | 11.65 Mbytes
Step Temp Press TotEng PotEng Enthalpy 
   80495    2212.4327    1310.9347   -54463.646   -60083.427   -54238.233 
   90000    2201.7148   -589.87815   -54575.814    -60168.37   -54677.203 
Loop time of 1061.72 on 2 procs for 9505 steps with 19652 atoms

Performance: 0.773 ns/day, 31.028 hours/ns, 8.952 timesteps/s
96.2% CPU use with 2 MPI tasks x no OpenMP threads

MPI task timing breakdown:
Section |  min time  |  avg time  |  max time  |%varavg| %total
---------------------------------------------------------------
Pair    | 567.32     | 571.92     | 576.51     |  19.2 | 53.87
Neigh   | 431.98     | 432.05     | 432.13     |   0.3 | 40.69
Comm    | 41.214     | 46.168     | 51.122     |  72.9 |  4.35
Output  | 0.038605   | 0.038628   | 0.038651   |   0.0 |  0.00
Modify  | 8.92       | 9.3397     | 9.7594     |  13.7 |  0.88
Other   |            | 2.201      |            |       |  0.21

Nlocal:    9826 ave 9840 max 9812 min
Histogram: 1 0 0 0 0 0 0 0 0 1
Nghost:    13363 ave 13385 max 13341 min
Histogram: 1 0 0 0 0 0 0 0 0 1
Neighs:    801890 ave 808997 max 794782 min
Histogram: 1 0 0 0 0 0 0 0 0 1

Total # of neighbors = 1603779
Ave neighs/atom = 81.6089
Neighbor list builds = 9505
Dangerous builds not checked
Setting up Verlet run ...
  Unit style    : metal
  Current step  : 90000
  Time step     : 0.001
Per MPI rank memory allocation (min/avg/max) = 11.66 | 11.66 | 11.66 Mbytes
Step Temp Press TotEng PotEng Enthalpy 
   90000    2201.7148   -589.87815   -54575.814    -60168.37   -54677.203 
   90495    2165.9891    1279.6603   -54802.789   -60304.599   -54583.773 
Loop time of 53.8197 on 2 procs for 495 steps with 19652 atoms

Performance: 0.795 ns/day, 30.202 hours/ns, 9.197 timesteps/s
97.4% CPU use with 2 MPI tasks x no OpenMP threads

MPI task timing breakdown:
Section |  min time  |  avg time  |  max time  |%varavg| %total
---------------------------------------------------------------
Pair    | 28.915     | 29.465     | 30.015     |  10.1 | 54.75
Neigh   | 21.818     | 22.098     | 22.378     |   6.0 | 41.06
Comm    | 1.455      | 1.7206     | 1.9862     |  20.2 |  3.20
Output  | 9.3937e-05 | 0.00013793 | 0.00018191 |   0.0 |  0.00
Modify  | 0.41877    | 0.42187    | 0.42496    |   0.5 |  0.78
Other   |            | 0.1141     |            |       |  0.21

Nlocal:    9826 ave 9837 max 9815 min
Histogram: 1 0 0 0 0 0 0 0 0 1
Nghost:    13343 ave 13356 max 13330 min
Histogram: 1 0 0 0 0 0 0 0 0 1
Neighs:    805270 ave 812499 max 798042 min
Histogram: 1 0 0 0 0 0 0 0 0 1

Total # of neighbors = 1610541
Ave neighs/atom = 81.953
Neighbor list builds = 495
Dangerous builds not checked
Setting up Verlet run ...
  Unit style    : metal
  Current step  : 90495
  Time step     : 0.001
Per MPI rank memory allocation (min/avg/max) = 11.66 | 11.66 | 11.66 Mbytes
Step Temp Press TotEng PotEng Enthalpy 
   90495    2165.9891    1279.6603   -54802.789   -60304.599   -54583.773 
  100000    2126.8191   -394.81073   -54976.953   -60379.268   -55044.497 
Loop time of 1111.72 on 2 procs for 9505 steps with 19652 atoms

Performance: 0.739 ns/day, 32.489 hours/ns, 8.550 timesteps/s
94.9% CPU use with 2 MPI tasks x no OpenMP threads

MPI task timing breakdown:
Section |  min time  |  avg time  |  max time  |%varavg| %total
---------------------------------------------------------------
Pair    | 599.8      | 603.8      | 607.8      |  16.3 | 54.31
Neigh   | 442.6      | 445.51     | 448.42     |  13.8 | 40.07
Comm    | 43.827     | 50.784     | 57.741     |  97.6 |  4.57
Output  | 0.03756    | 0.037601   | 0.037642   |   0.0 |  0.00
Modify  | 9.2607     | 9.3265     | 9.3924     |   2.2 |  0.84
Other   |            | 2.263      |            |       |  0.20

Nlocal:    9826 ave 9839 max 9813 min
Histogram: 1 0 0 0 0 0 0 0 0 1
Nghost:    13399.5 ave 13421 max 13378 min
Histogram: 1 0 0 0 0 0 0 0 0 1
Neighs:    805440 ave 815574 max 795305 min
Histogram: 1 0 0 0 0 0 0 0 0 1

Total # of neighbors = 1610879
Ave neighs/atom = 81.9702
Neighbor list builds = 9505
Dangerous builds not checked
Setting up Verlet run ...
  Unit style    : metal
  Current step  : 100000
  Time step     : 0.001
Per MPI rank memory allocation (min/avg/max) = 11.66 | 11.66 | 11.66 Mbytes
Step Temp Press TotEng PotEng Enthalpy 
  100000    2126.8191   -394.81073   -54976.953   -60379.268   -55044.497 
  100495    2126.9125   -1459.7428   -55075.943   -60478.494     -55325.4 
Loop time of 51.4715 on 2 procs for 495 steps with 19652 atoms

Performance: 0.831 ns/day, 28.884 hours/ns, 9.617 timesteps/s
99.5% CPU use with 2 MPI tasks x no OpenMP threads

MPI task timing breakdown:
Section |  min time  |  avg time  |  max time  |%varavg| %total
---------------------------------------------------------------
Pair    | 27.954     | 28.005     | 28.056     |   1.0 | 54.41
Neigh   | 21.107     | 21.666     | 22.225     |  12.0 | 42.09
Comm    | 0.75301    | 1.2752     | 1.7974     |  46.2 |  2.48
Output  | 8.3208e-05 | 0.0001266  | 0.00016999 |   0.0 |  0.00
Modify  | 0.39945    | 0.41383    | 0.4282     |   2.2 |  0.80
Other   |            | 0.1115     |            |       |  0.22

Nlocal:    9826 ave 9840 max 9812 min
Histogram: 1 0 0 0 0 0 0 0 0 1
Nghost:    13354.5 ave 13361 max 13348 min
Histogram: 1 0 0 0 0 0 0 0 0 1
Neighs:    806322 ave 813149 max 799494 min
Histogram: 1 0 0 0 0 0 0 0 0 1

Total # of neighbors = 1612643
Ave neighs/atom = 82.06
Neighbor list builds = 495
Dangerous builds not checked
Setting up Verlet run ...
  Unit style    : metal
  Current step  : 100495
  Time step     : 0.001
Per MPI rank memory allocation (min/avg/max) = 11.66 | 11.66 | 11.66 Mbytes
Step Temp Press TotEng PotEng Enthalpy 
  100495    2126.9125   -1459.7428   -55075.943   -60478.494     -55325.4 
  110000    2105.2463    1656.0488   -55216.507   -60564.024   -54934.772 
Loop time of 1107.45 on 2 procs for 9505 steps with 19652 atoms

Performance: 0.742 ns/day, 32.365 hours/ns, 8.583 timesteps/s
95.7% CPU use with 2 MPI tasks x no OpenMP threads

MPI task timing breakdown:
Section |  min time  |  avg time  |  max time  |%varavg| %total
---------------------------------------------------------------
Pair    | 603.63     | 606.23     | 608.82     |  10.5 | 54.74
Neigh   | 439.94     | 440.7      | 441.46     |   3.6 | 39.79
Comm    | 44.421     | 47.791     | 51.16      |  48.7 |  4.32
Output  | 0.037401   | 0.037459   | 0.037518   |   0.0 |  0.00
Modify  | 10.365     | 10.375     | 10.385     |   0.3 |  0.94
Other   |            | 2.325      |            |       |  0.21

Nlocal:    9826 ave 9830 max 9822 min
Histogram: 1 0 0 0 0 0 0 0 0 1
Nghost:    13363 ave 13389 max 13337 min
Histogram: 1 0 0 0 0 0 0 0 0 1
Neighs:    809853 ave 818576 max 801130 min
Histogram: 1 0 0 0 0 0 0 0 0 1

Total # of neighbors = 1619706
Ave neighs/atom = 82.4194
Neighbor list builds = 9505
Dangerous builds not checked
Setting up Verlet run ...
  Unit style    : metal
  Current step  : 110000
  Time step     : 0.001
Per MPI rank memory allocation (min/avg/max) = 11.67 | 11.67 | 11.67 Mbytes
Step Temp Press TotEng PotEng Enthalpy 
  110000    2105.2463    1656.0488   -55216.507   -60564.024   -54934.772 
  110495    2068.0224    1032.5012   -55432.544   -60685.509   -55257.195 
Loop time of 56.3595 on 2 procs for 495 steps with 19652 atoms

Performance: 0.759 ns/day, 31.627 hours/ns, 8.783 timesteps/s
96.1% CPU use with 2 MPI tasks x no OpenMP threads

MPI task timing breakdown:
Section |  min time  |  avg time  |  max time  |%varavg| %total
---------------------------------------------------------------
Pair    | 30.954     | 31.239     | 31.523     |   5.1 | 55.43
Neigh   | 21.181     | 22.032     | 22.883     |  18.1 | 39.09
Comm    | 1.9425     | 2.5197     | 3.097      |  36.4 |  4.47
Output  | 9.4175e-05 | 0.00014365 | 0.00019312 |   0.0 |  0.00
Modify  | 0.43745    | 0.44733    | 0.45721    |   1.5 |  0.79
Other   |            | 0.1217     |            |       |  0.22

Nlocal:    9826 ave 9842 max 9810 min
Histogram: 1 0 0 0 0 0 0 0 0 1
Nghost:    13424.5 ave 13446 max 13403 min
Histogram: 1 0 0 0 0 0 0 0 0 1
Neighs:    811070 ave 821538 max 800602 min
Histogram: 1 0 0 0 0 0 0 0 0 1

Total # of neighbors = 1622140
Ave neighs/atom = 82.5433
Neighbor list builds = 495
Dangerous builds not checked
Setting up Verlet run ...
  Unit style    : metal
  Current step  : 110495
  Time step     : 0.001
Per MPI rank memory allocation (min/avg/max) = 11.67 | 11.67 | 11.67 Mbytes
Step Temp Press TotEng PotEng Enthalpy 
  110495    2068.0224    1032.5012   -55432.544   -60685.509   -55257.195 
  120000    2045.4614    723.58824   -55582.973   -60778.631   -55460.308 
Loop time of 1130.57 on 2 procs for 9505 steps with 19652 atoms

Performance: 0.726 ns/day, 33.040 hours/ns, 8.407 timesteps/s
96.6% CPU use with 2 MPI tasks x no OpenMP threads

MPI task timing breakdown:
Section |  min time  |  avg time  |  max time  |%varavg| %total
---------------------------------------------------------------
Pair    | 617.27     | 622.67     | 628.06     |  21.6 | 55.08
Neigh   | 417.53     | 436.41     | 455.29     |  90.4 | 38.60
Comm    | 34.185     | 58.705     | 83.225     | 320.0 |  5.19
Output  | 0.039792   | 0.039865   | 0.039937   |   0.0 |  0.00
Modify  | 10.272     | 10.407     | 10.543     |   4.2 |  0.92
Other   |            | 2.338      |            |       |  0.21

Nlocal:    9826 ave 9836 max 9816 min
Histogram: 1 0 0 0 0 0 0 0 0 1
Nghost:    13411 ave 13429 max 13393 min
Histogram: 1 0 0 0 0 0 0 0 0 1
Neighs:    812382 ave 819753 max 805012 min
Histogram: 1 0 0 0 0 0 0 0 0 1

Total # of neighbors = 1624765
Ave neighs/atom = 82.6768
Neighbor list builds = 9505
Dangerous builds not checked
Setting up Verlet run ...
  Unit style    : metal
  Current step  : 120000
  Time step     : 0.001
Per MPI rank memory allocation (min/avg/max) = 11.67 | 11.67 | 11.67 Mbytes
Step Temp Press TotEng PotEng Enthalpy 
  120000    2045.4614    723.58824   -55582.973   -60778.631   -55460.308 
  120495    2014.3178    254.39425   -55669.259    -60785.81   -55626.121 
Loop time of 54.0943 on 2 procs for 495 steps with 19652 atoms

Performance: 0.791 ns/day, 30.356 hours/ns, 9.151 timesteps/s
97.8% CPU use with 2 MPI tasks x no OpenMP threads

MPI task timing breakdown:
Section |  min time  |  avg time  |  max time  |%varavg| %total
---------------------------------------------------------------
Pair    | 29.157     | 29.609     | 30.062     |   8.3 | 54.74
Neigh   | 21.61      | 21.758     | 21.907     |   3.2 | 40.22
Comm    | 1.4938     | 2.103      | 2.7122     |  42.0 |  3.89
Output  | 9.8944e-05 | 0.00015593 | 0.00021291 |   0.0 |  0.00
Modify  | 0.49926    | 0.50409    | 0.50891    |   0.7 |  0.93
Other   |            | 0.1194     |            |       |  0.22

Nlocal:    9826 ave 9849 max 9803 min
Histogram: 1 0 0 0 0 0 0 0 0 1
Nghost:    13392 ave 13395 max 13389 min
Histogram: 1 0 0 0 0 0 0 0 0 1
Neighs:    812286 ave 823845 max 800727 min
Histogram: 1 0 0 0 0 0 0 0 0 1

Total # of neighbors = 1624572
Ave neighs/atom = 82.667
Neighbor list builds = 495
Dangerous builds not checked
Setting up Verlet run ...
  Unit style    : metal
  Current step  : 120495
  Time step     : 0.001
Per MPI rank memory allocation (min/avg/max) = 11.67 | 11.67 | 11.67 Mbytes
Step Temp Press TotEng PotEng Enthalpy 
  120495    2014.3178    254.39425   -55669.259    -60785.81   -55626.121 
  130000    1997.9189    -710.8704   -55788.524    -60863.42   -55908.875 
Loop time of 1155.01 on 2 procs for 9505 steps with 19652 atoms

Performance: 0.711 ns/day, 33.754 hours/ns, 8.229 timesteps/s
95.7% CPU use with 2 MPI tasks x no OpenMP threads

MPI task timing breakdown:
Section |  min time  |  avg time  |  max time  |%varavg| %total
---------------------------------------------------------------
Pair    | 626.7      | 637.93     | 649.15     |  44.4 | 55.23
Neigh   | 406.48     | 435.97     | 465.45     | 141.2 | 37.75
Comm    | 28.752     | 69.944     | 111.14     | 492.5 |  6.06
Output  | 0.060928   | 0.06101    | 0.061091   |   0.0 |  0.01
Modify  | 8.5051     | 8.7185     | 8.932      |   7.2 |  0.75
Other   |            | 2.392      |            |       |  0.21

Nlocal:    9826 ave 9841 max 9811 min
Histogram: 1 0 0 0 0 0 0 0 0 1
Nghost:    13425 ave 13459 max 13391 min
Histogram: 1 0 0 0 0 0 0 0 0 1
Neighs:    813622 ave 824026 max 803217 min
Histogram: 1 0 0 0 0 0 0 0 0 1

Total # of neighbors = 1627243
Ave neighs/atom = 82.8029
Neighbor list builds = 9505
Dangerous builds not checked
Setting up Verlet run ...
  Unit style    : metal
  Current step  : 130000
  Time step     : 0.001
Per MPI rank memory allocation (min/avg/max) = 11.67 | 11.67 | 11.67 Mbytes
Step Temp Press TotEng PotEng Enthalpy 
  130000    1997.9189    -710.8704   -55788.524    -60863.42   -55908.875 
  130495    1969.5708   -842.41061   -56089.254   -61092.144    -56231.27 
Loop time of 57.3516 on 2 procs for 495 steps with 19652 atoms

Performance: 0.746 ns/day, 32.184 hours/ns, 8.631 timesteps/s
98.7% CPU use with 2 MPI tasks x no OpenMP threads

MPI task timing breakdown:
Section |  min time  |  avg time  |  max time  |%varavg| %total
---------------------------------------------------------------
Pair    | 31.098     | 31.67      | 32.242     |  10.2 | 55.22
Neigh   | 20.935     | 22.279     | 23.622     |  28.5 | 38.85
Comm    | 0.86579    | 2.8149     | 4.764      | 116.2 |  4.91
Output  | 0.00021791 | 0.00025356 | 0.0002892  |   0.0 |  0.00
Modify  | 0.44414    | 0.45963    | 0.47512    |   2.3 |  0.80
Other   |            | 0.1284     |            |       |  0.22

Nlocal:    9826 ave 9859 max 9793 min
Histogram: 1 0 0 0 0 0 0 0 0 1
Nghost:    13426 ave 13450 max 13402 min
Histogram: 1 0 0 0 0 0 0 0 0 1
Neighs:    816780 ave 829849 max 803711 min
Histogram: 1 0 0 0 0 0 0 0 0 1

Total # of neighbors = 1633560
Ave neighs/atom = 83.1244
Neighbor list builds = 495
Dangerous builds not checked
Setting up Verlet run ...
  Unit style    : metal
  Current step  : 130495
  Time step     : 0.001
Per MPI rank memory allocation (min/avg/max) = 11.67 | 11.67 | 11.67 Mbytes
Step Temp Press TotEng PotEng Enthalpy 
  130495    1969.5708   -842.41061   -56089.254   -61092.144    -56231.27 
  140000    1993.7435    3730.8002   -56125.076   -61189.367   -55499.375 
Loop time of 1157.71 on 2 procs for 9505 steps with 19652 atoms

Performance: 0.709 ns/day, 33.833 hours/ns, 8.210 timesteps/s
97.8% CPU use with 2 MPI tasks x no OpenMP threads

MPI task timing breakdown:
Section |  min time  |  avg time  |  max time  |%varavg| %total
---------------------------------------------------------------
Pair    | 616.72     | 637.6      | 658.48     |  82.7 | 55.07
Neigh   | 397.92     | 431.06     | 464.19     | 159.6 | 37.23
Comm    | 23.25      | 77.907     | 132.56     | 619.2 |  6.73
Output  | 0.040093   | 0.040151   | 0.04021    |   0.0 |  0.00
Modify  | 8.4239     | 8.6557     | 8.8874     |   7.9 |  0.75
Other   |            | 2.45       |            |       |  0.21

Nlocal:    9826 ave 9844 max 9808 min
Histogram: 1 0 0 0 0 0 0 0 0 1
Nghost:    13488.5 ave 13503 max 13474 min
Histogram: 1 0 0 0 0 0 0 0 0 1
Neighs:    821090 ave 831883 max 810297 min
Histogram: 1 0 0 0 0 0 0 0 0 1

Total # of neighbors = 1642180
Ave neighs/atom = 83.563
Neighbor list builds = 9505
Dangerous builds not checked
Setting up Verlet run ...
  Unit style    : metal
  Current step  : 140000
  Time step     : 0.001
Per MPI rank memory allocation (min/avg/max) = 11.68 | 11.68 | 11.68 Mbytes
Step Temp Press TotEng PotEng Enthalpy 
  140000    1993.7435    3730.8002   -56125.076   -61189.367   -55499.375 
  140495    1927.2805      1940.33   -56325.777   -61221.245   -56000.297 
Loop time of 57.1415 on 2 procs for 495 steps with 19652 atoms

Performance: 0.748 ns/day, 32.066 hours/ns, 8.663 timesteps/s
98.2% CPU use with 2 MPI tasks x no OpenMP threads

MPI task timing breakdown:
Section |  min time  |  avg time  |  max time  |%varavg| %total
---------------------------------------------------------------
Pair    | 30.972     | 31.75      | 32.529     |  13.8 | 55.56
Neigh   | 20.294     | 21.676     | 23.058     |  29.7 | 37.93
Comm    | 0.93929    | 3.1371     | 5.3349     | 124.1 |  5.49
Output  | 0.00010085 | 0.0001595  | 0.00021815 |   0.0 |  0.00
Modify  | 0.43428    | 0.44804    | 0.46181    |   2.1 |  0.78
Other   |            | 0.13       |            |       |  0.23

Nlocal:    9826 ave 9834 max 9818 min
Histogram: 1 0 0 0 0 0 0 0 0 1
Nghost:    13477 ave 13507 max 13447 min
Histogram: 1 0 0 0 0 0 0 0 0 1
Neighs:    820740 ave 830245 max 811236 min
Histogram: 1 0 0 0 0 0 0 0 0 1

Total # of neighbors = 1641481
Ave neighs/atom = 83.5274
Neighbor list builds = 495
Dangerous builds not checked
Setting up Verlet run ...
  Unit style    : metal
  Current step  : 140495
  Time step     : 0.001
Per MPI rank memory allocation (min/avg/max) = 11.68 | 11.68 | 11.68 Mbytes
Step Temp Press TotEng PotEng Enthalpy 
  140495    1927.2805      1940.33   -56325.777   -61221.245   -56000.297 
  150000    1893.7164    1227.4664   -56470.644   -61280.856   -56264.937 
Loop time of 1098.85 on 2 procs for 9505 steps with 19652 atoms

Performance: 0.747 ns/day, 32.113 hours/ns, 8.650 timesteps/s
98.3% CPU use with 2 MPI tasks x no OpenMP threads

MPI task timing breakdown:
Section |  min time  |  avg time  |  max time  |%varavg| %total
---------------------------------------------------------------
Pair    | 596.82     | 606.37     | 615.92     |  38.8 | 55.18
Neigh   | 424.64     | 431.28     | 437.93     |  32.0 | 39.25
Comm    | 33.975     | 50.322     | 66.67      | 230.4 |  4.58
Output  | 0.037573   | 0.037619   | 0.037665   |   0.0 |  0.00
Modify  | 8.4057     | 8.4794     | 8.553      |   2.5 |  0.77
Other   |            | 2.361      |            |       |  0.21

Nlocal:    9826 ave 9862 max 9790 min
Histogram: 1 0 0 0 0 0 0 0 0 1
Nghost:    13489 ave 13516 max 13462 min
Histogram: 1 0 0 0 0 0 0 0 0 1
Neighs:    821618 ave 835632 max 807603 min
Histogram: 1 0 0 0 0 0 0 0 0 1

Total # of neighbors = 1643235
Ave neighs/atom = 83.6167
Neighbor list builds = 9505
Dangerous builds not checked
Setting up Verlet run ...
  Unit style    : metal
  Current step  : 150000
  Time step     : 0.001
Per MPI rank memory allocation (min/avg/max) = 11.68 | 11.68 | 11.68 Mbytes
Step Temp Press TotEng PotEng Enthalpy 
  150000    1893.7164    1227.4664   -56470.644   -61280.856   -56264.937 
  150495    1861.3493    1294.8151   -56692.264   -61420.261    -56475.79 
Loop time of 54.9241 on 2 procs for 495 steps with 19652 atoms

Performance: 0.779 ns/day, 30.822 hours/ns, 9.012 timesteps/s
99.1% CPU use with 2 MPI tasks x no OpenMP threads

MPI task timing breakdown:
Section |  min time  |  avg time  |  max time  |%varavg| %total
---------------------------------------------------------------
Pair    | 30.332     | 30.49      | 30.647     |   2.9 | 55.51
Neigh   | 21.676     | 22.143     | 22.609     |   9.9 | 40.32
Comm    | 1.4272     | 1.7263     | 2.0253     |  22.8 |  3.14
Output  | 0.00015211 | 0.00025499 | 0.00035787 |   0.0 |  0.00
Modify  | 0.42845    | 0.43644    | 0.44443    |   1.2 |  0.79
Other   |            | 0.1287     |            |       |  0.23

Nlocal:    9826 ave 9830 max 9822 min
Histogram: 1 0 0 0 0 0 0 0 0 1
Nghost:    13543.5 ave 13552 max 13535 min
Histogram: 1 0 0 0 0 0 0 0 0 1
Neighs:    823453 ave 832266 max 814640 min
Histogram: 1 0 0 0 0 0 0 0 0 1

Total # of neighbors = 1646906
Ave neighs/atom = 83.8035
Neighbor list builds = 495
Dangerous builds not checked
Setting up Verlet run ...
  Unit style    : metal
  Current step  : 150495
  Time step     : 0.001
Per MPI rank memory allocation (min/avg/max) = 11.68 | 11.68 | 11.68 Mbytes
Step Temp Press TotEng PotEng Enthalpy 
  150495    1861.3493    1294.8151   -56692.264   -61420.261    -56475.79 
  160000    1861.8778     1682.257   -56805.076   -61534.415    -56524.65 
Loop time of 1147.85 on 2 procs for 9505 steps with 19652 atoms

Performance: 0.715 ns/day, 33.545 hours/ns, 8.281 timesteps/s
97.5% CPU use with 2 MPI tasks x no OpenMP threads

MPI task timing breakdown:
Section |  min time  |  avg time  |  max time  |%varavg| %total
---------------------------------------------------------------
Pair    | 634.92     | 639.73     | 644.55     |  19.0 | 55.73
Neigh   | 444.67     | 446.01     | 447.35     |   6.3 | 38.86
Comm    | 44.297     | 50.439     | 56.581     |  86.5 |  4.39
Output  | 0.039547   | 0.039602   | 0.039656   |   0.0 |  0.00
Modify  | 9.0655     | 9.0739     | 9.0824     |   0.3 |  0.79
Other   |            | 2.551      |            |       |  0.22

Nlocal:    9826 ave 9833 max 9819 min
Histogram: 1 0 0 0 0 0 0 0 0 1
Nghost:    13509.5 ave 13534 max 13485 min
Histogram: 1 0 0 0 0 0 0 0 0 1
Neighs:    825598 ave 832923 max 818274 min
Histogram: 1 0 0 0 0 0 0 0 0 1

Total # of neighbors = 1651197
Ave neighs/atom = 84.0218
Neighbor list builds = 9505
Dangerous builds not checked
Setting up Verlet run ...
  Unit style    : metal
  Current step  : 160000
  Time step     : 0.001
Per MPI rank memory allocation (min/avg/max) = 11.68 | 11.68 | 11.68 Mbytes
Step Temp Press TotEng PotEng Enthalpy 
  160000    1861.8778     1682.257   -56805.076   -61534.415    -56524.65 
  160495    1819.5211    710.06291   -57007.867   -61629.616   -56889.635 
Loop time of 56.0579 on 2 procs for 495 steps with 19652 atoms

Performance: 0.763 ns/day, 31.458 hours/ns, 8.830 timesteps/s
97.4% CPU use with 2 MPI tasks x no OpenMP threads

MPI task timing breakdown:
Section |  min time  |  avg time  |  max time  |%varavg| %total
---------------------------------------------------------------
Pair    | 30.619     | 30.851     | 31.083     |   4.2 | 55.03
Neigh   | 21.688     | 21.79      | 21.892     |   2.2 | 38.87
Comm    | 1.9111     | 2.2504     | 2.5896     |  22.6 |  4.01
Output  | 0.00016689 | 0.0002805  | 0.00039411 |   0.0 |  0.00
Modify  | 1.0349     | 1.0396     | 1.0442     |   0.5 |  1.85
Other   |            | 0.1265     |            |       |  0.23

Nlocal:    9826 ave 9840 max 9812 min
Histogram: 1 0 0 0 0 0 0 0 0 1
Nghost:    13488.5 ave 13507 max 13470 min
Histogram: 1 0 0 0 0 0 0 0 0 1
Neighs:    826592 ave 834974 max 818209 min
Histogram: 1 0 0 0 0 0 0 0 0 1

Total # of neighbors = 1653183
Ave neighs/atom = 84.1229
Neighbor list builds = 495
Dangerous builds not checked
Setting up Verlet run ...
  Unit style    : metal
  Current step  : 160495
  Time step     : 0.001
Per MPI rank memory allocation (min/avg/max) = 11.68 | 11.68 | 11.68 Mbytes
Step Temp Press TotEng PotEng Enthalpy 
  160495    1819.5211    710.06291   -57007.867   -61629.616   -56889.635 
  170000    1802.5811   -1509.6236   -57152.209   -61730.929   -57403.468 
Loop time of 1182.65 on 2 procs for 9505 steps with 19652 atoms

Performance: 0.694 ns/day, 34.562 hours/ns, 8.037 timesteps/s
97.8% CPU use with 2 MPI tasks x no OpenMP threads

MPI task timing breakdown:
Section |  min time  |  avg time  |  max time  |%varavg| %total
---------------------------------------------------------------
Pair    | 661.63     | 667.81     | 674        |  23.9 | 56.47
Neigh   | 454.68     | 455.94     | 457.21     |   5.9 | 38.55
Comm    | 41.811     | 46.714     | 51.617     |  71.7 |  3.95
Output  | 0.040063   | 0.040108   | 0.040154   |   0.0 |  0.00
Modify  | 9.4631     | 9.4799     | 9.4968     |   0.5 |  0.80
Other   |            | 2.655      |            |       |  0.22

Nlocal:    9826 ave 9842 max 9810 min
Histogram: 1 0 0 0 0 0 0 0 0 1
Nghost:    13485 ave 13504 max 13466 min
Histogram: 1 0 0 0 0 0 0 0 0 1
Neighs:    826393 ave 837473 max 815313 min
Histogram: 1 0 0 0 0 0 0 0 0 1

Total # of neighbors = 1652786
Ave neighs/atom = 84.1027
Neighbor list builds = 9505
Dangerous builds not checked
Setting up Verlet run ...
  Unit style    : metal
  Current step  : 170000
  Time step     : 0.001
Per MPI rank memory allocation (min/avg/max) = 11.69 | 11.69 | 11.69 Mbytes
Step Temp Press TotEng PotEng Enthalpy 
  170000    1802.5811   -1509.6236   -57152.209   -61730.929   -57403.468 
  170495    1774.8419    293.84925   -57334.687   -61842.947   -57285.954 
Loop time of 64.039 on 2 procs for 495 steps with 19652 atoms

Performance: 0.668 ns/day, 35.937 hours/ns, 7.730 timesteps/s
96.5% CPU use with 2 MPI tasks x no OpenMP threads

MPI task timing breakdown:
Section |  min time  |  avg time  |  max time  |%varavg| %total
---------------------------------------------------------------
Pair    | 36.311     | 36.396     | 36.48      |   1.4 | 56.83
Neigh   | 23.921     | 24.144     | 24.366     |   4.5 | 37.70
Comm    | 2.6774     | 2.8071     | 2.9369     |   7.7 |  4.38
Output  | 0.00018215 | 0.00030708 | 0.00043201 |   0.0 |  0.00
Modify  | 0.53729    | 0.53797    | 0.53866    |   0.1 |  0.84
Other   |            | 0.1541     |            |       |  0.24

Nlocal:    9826 ave 9833 max 9819 min
Histogram: 1 0 0 0 0 0 0 0 0 1
Nghost:    13539.5 ave 13544 max 13535 min
Histogram: 1 0 0 0 0 0 0 0 0 1
Neighs:    829302 ave 839350 max 819253 min
Histogram: 1 0 0 0 0 0 0 0 0 1

Total # of neighbors = 1658603
Ave neighs/atom = 84.3987
Neighbor list builds = 495
Dangerous builds not checked
Setting up Verlet run ...
  Unit style    : metal
  Current step  : 170495
  Time step     : 0.001
Per MPI rank memory allocation (min/avg/max) = 11.69 | 11.69 | 11.69 Mbytes
Step Temp Press TotEng PotEng Enthalpy 
  170495    1774.8419    293.84925   -57334.687   -61842.947   -57285.954 
  180000    1753.5522   -560.32753   -57430.982   -61885.164   -57523.872 
Loop time of 1205.86 on 2 procs for 9505 steps with 19652 atoms

Performance: 0.681 ns/day, 35.240 hours/ns, 7.882 timesteps/s
96.8% CPU use with 2 MPI tasks x no OpenMP threads

MPI task timing breakdown:
Section |  min time  |  avg time  |  max time  |%varavg| %total
---------------------------------------------------------------
Pair    | 673.62     | 682.72     | 691.82     |  34.8 | 56.62
Neigh   | 459.51     | 460.99     | 462.48     |   6.9 | 38.23
Comm    | 39.286     | 49.978     | 60.67      | 151.2 |  4.14
Output  | 0.038225   | 0.038291   | 0.038356   |   0.0 |  0.00
Modify  | 9.3074     | 9.4165     | 9.5255     |   3.6 |  0.78
Other   |            | 2.716      |            |       |  0.23

Nlocal:    9826 ave 9834 max 9818 min
Histogram: 1 0 0 0 0 0 0 0 0 1
Nghost:    13561.5 ave 13586 max 13537 min
Histogram: 1 0 0 0 0 0 0 0 0 1
Neighs:    829652 ave 838289 max 821016 min
Histogram: 1 0 0 0 0 0 0 0 0 1

Total # of neighbors = 1659305
Ave neighs/atom = 84.4344
Neighbor list builds = 9505
Dangerous builds not checked
Setting up Verlet run ...
  Unit style    : metal
  Current step  : 180000
  Time step     : 0.001
Per MPI rank memory allocation (min/avg/max) = 11.69 | 11.69 | 11.69 Mbytes
Step Temp Press TotEng PotEng Enthalpy 
  180000    1753.5522   -560.32753   -57430.982   -61885.164   -57523.872 
  180495    1716.0652    129.47873   -57647.754   -62006.716   -57626.352 
Loop time of 55.2482 on 2 procs for 495 steps with 19652 atoms

Performance: 0.774 ns/day, 31.003 hours/ns, 8.960 timesteps/s
98.6% CPU use with 2 MPI tasks x no OpenMP threads

MPI task timing breakdown:
Section |  min time  |  avg time  |  max time  |%varavg| %total
---------------------------------------------------------------
Pair    | 30.814     | 31.024     | 31.234     |   3.8 | 56.15
Neigh   | 21.704     | 21.752     | 21.801     |   1.0 | 39.37
Comm    | 1.7584     | 1.9172     | 2.0759     |  11.5 |  3.47
Output  | 8.7976e-05 | 0.00012696 | 0.00016594 |   0.0 |  0.00
Modify  | 0.42862    | 0.42997    | 0.43132    |   0.2 |  0.78
Other   |            | 0.1244     |            |       |  0.23

Nlocal:    9826 ave 9847 max 9805 min
Histogram: 1 0 0 0 0 0 0 0 0 1
Nghost:    13586 ave 13627 max 13545 min
Histogram: 1 0 0 0 0 0 0 0 0 1
Neighs:    831728 ave 843354 max 820103 min
Histogram: 1 0 0 0 0 0 0 0 0 1

Total # of neighbors = 1663457
Ave neighs/atom = 84.6457
Neighbor list builds = 495
Dangerous builds not checked
Setting up Verlet run ...
  Unit style    : metal
  Current step  : 180495
  Time step     : 0.001
Per MPI rank memory allocation (min/avg/max) = 11.69 | 11.69 | 11.69 Mbytes
Step Temp Press TotEng PotEng Enthalpy 
  180495    1716.0652    129.47873   -57647.754   -62006.716   -57626.352 
  190000    1726.8144    1052.7518   -57725.087   -62111.352   -57551.564 
Loop time of 1139.81 on 2 procs for 9505 steps with 19652 atoms

Performance: 0.721 ns/day, 33.310 hours/ns, 8.339 timesteps/s
97.8% CPU use with 2 MPI tasks x no OpenMP threads

MPI task timing breakdown:
Section |  min time  |  avg time  |  max time  |%varavg| %total
---------------------------------------------------------------
Pair    | 625.3      | 636.1      | 646.91     |  42.8 | 55.81
Neigh   | 424.22     | 438.45     | 452.69     |  68.0 | 38.47
Comm    | 28.632     | 53.925     | 79.219     | 344.4 |  4.73
Output  | 0.039735   | 0.03978    | 0.039825   |   0.0 |  0.00
Modify  | 8.727      | 8.8266     | 8.9262     |   3.4 |  0.77
Other   |            | 2.457      |            |       |  0.22

Nlocal:    9826 ave 9826 max 9826 min
Histogram: 2 0 0 0 0 0 0 0 0 0
Nghost:    13599 ave 13603 max 13595 min
Histogram: 1 0 0 0 0 0 0 0 0 1
Neighs:    833828 ave 842678 max 824977 min
Histogram: 1 0 0 0 0 0 0 0 0 1

Total # of neighbors = 1667655
Ave neighs/atom = 84.8593
Neighbor list builds = 9505
Dangerous builds not checked
Setting up Verlet run ...
  Unit style    : metal
  Current step  : 190000
  Time step     : 0.001
Per MPI rank memory allocation (min/avg/max) = 11.69 | 11.69 | 11.69 Mbytes
Step Temp Press TotEng PotEng Enthalpy 
  190000    1726.8144    1052.7518   -57725.087   -62111.352   -57551.564 
  190495    1666.6986    974.49869   -57966.326   -62199.892   -57806.034 
Loop time of 58.6938 on 2 procs for 495 steps with 19652 atoms

Performance: 0.729 ns/day, 32.937 hours/ns, 8.434 timesteps/s
99.1% CPU use with 2 MPI tasks x no OpenMP threads

MPI task timing breakdown:
Section |  min time  |  avg time  |  max time  |%varavg| %total
---------------------------------------------------------------
Pair    | 31.047     | 32.479     | 33.911     |  25.1 | 55.34
Neigh   | 20.053     | 21.734     | 23.415     |  36.1 | 37.03
Comm    | 0.74058    | 3.8895     | 7.0384     | 159.7 |  6.63
Output  | 0.0001421  | 0.00024605 | 0.00035    |   0.0 |  0.00
Modify  | 0.44988    | 0.46116    | 0.47243    |   1.7 |  0.79
Other   |            | 0.1298     |            |       |  0.22

Nlocal:    9826 ave 9830 max 9822 min
Histogram: 1 0 0 0 0 0 0 0 0 1
Nghost:    13582.5 ave 13590 max 13575 min
Histogram: 1 0 0 0 0 0 0 0 0 1
Neighs:    835762 ave 843900 max 827625 min
Histogram: 1 0 0 0 0 0 0 0 0 1

Total # of neighbors = 1671525
Ave neighs/atom = 85.0562
Neighbor list builds = 495
Dangerous builds not checked
Setting up Verlet run ...
  Unit style    : metal
  Current step  : 190495
  Time step     : 0.001
Per MPI rank memory allocation (min/avg/max) = 11.69 | 11.69 | 11.69 Mbytes
Step Temp Press TotEng PotEng Enthalpy 
  190495    1666.6986    974.49869   -57966.326   -62199.892   -57806.034 
  200000    1642.6574   -3301.8986   -58076.966   -62249.466   -58621.222 
Loop time of 1218.37 on 2 procs for 9505 steps with 19652 atoms

Performance: 0.674 ns/day, 35.606 hours/ns, 7.801 timesteps/s
95.6% CPU use with 2 MPI tasks x no OpenMP threads

MPI task timing breakdown:
Section |  min time  |  avg time  |  max time  |%varavg| %total
---------------------------------------------------------------
Pair    | 678.11     | 687.27     | 696.43     |  34.9 | 56.41
Neigh   | 457.07     | 458.02     | 458.96     |   4.4 | 37.59
Comm    | 50.004     | 58.196     | 66.387     | 107.4 |  4.78
Output  | 0.039409   | 0.039456   | 0.039504   |   0.0 |  0.00
Modify  | 12.02      | 12.058     | 12.097     |   1.1 |  0.99
Other   |            | 2.791      |            |       |  0.23

Nlocal:    9826 ave 9841 max 9811 min
Histogram: 1 0 0 0 0 0 0 0 0 1
Nghost:    13568 ave 13578 max 13558 min
Histogram: 1 0 0 0 0 0 0 0 0 1
Neighs:    833747 ave 843893 max 823601 min
Histogram: 1 0 0 0 0 0 0 0 0 1

Total # of neighbors = 1667494
Ave neighs/atom = 84.8511
Neighbor list builds = 9505
Dangerous builds not checked
Setting up Verlet run ...
  Unit style    : metal
  Current step  : 200000
  Time step     : 0.001
Per MPI rank memory allocation (min/avg/max) = 11.69 | 11.69 | 11.69 Mbytes
Step Temp Press TotEng PotEng Enthalpy 
  200000    1642.6574   -3301.8986   -58076.966   -62249.466   -58621.222 
  200495    1605.9566   -1437.2559   -58303.253    -62382.53   -58539.238 
Loop time of 66.4178 on 2 procs for 495 steps with 19652 atoms

Performance: 0.644 ns/day, 37.271 hours/ns, 7.453 timesteps/s
88.5% CPU use with 2 MPI tasks x no OpenMP threads

MPI task timing breakdown:
Section |  min time  |  avg time  |  max time  |%varavg| %total
---------------------------------------------------------------
Pair    | 37.752     | 37.903     | 38.055     |   2.5 | 57.07
Neigh   | 24.502     | 24.749     | 24.995     |   5.0 | 37.26
Comm    | 2.99       | 3.0821     | 3.1742     |   5.2 |  4.64
Output  | 8.7976e-05 | 0.0032655  | 0.006443   |   5.6 |  0.00
Modify  | 0.52978    | 0.53696    | 0.54414    |   1.0 |  0.81
Other   |            | 0.1433     |            |       |  0.22

Nlocal:    9826 ave 9828 max 9824 min
Histogram: 1 0 0 0 0 0 0 0 0 1
Nghost:    13594.5 ave 13617 max 13572 min
Histogram: 1 0 0 0 0 0 0 0 0 1
Neighs:    836858 ave 846436 max 827280 min
Histogram: 1 0 0 0 0 0 0 0 0 1

Total # of neighbors = 1673716
Ave neighs/atom = 85.1677
Neighbor list builds = 495
Dangerous builds not checked
Setting up Verlet run ...
  Unit style    : metal
  Current step  : 200495
  Time step     : 0.001
Per MPI rank memory allocation (min/avg/max) = 11.69 | 11.69 | 11.69 Mbytes
Step Temp Press TotEng PotEng Enthalpy 
  200495    1605.9566   -1437.2559   -58303.253    -62382.53   -58539.238 
  210000    1591.1043   -2508.9152   -58466.612   -62508.162   -58877.752 
Loop time of 1351.31 on 2 procs for 9505 steps with 19652 atoms

Performance: 0.608 ns/day, 39.491 hours/ns, 7.034 timesteps/s
86.8% CPU use with 2 MPI tasks x no OpenMP threads

MPI task timing breakdown:
Section |  min time  |  avg time  |  max time  |%varavg| %total
---------------------------------------------------------------
Pair    | 751.36     | 760.64     | 769.92     |  33.6 | 56.29
Neigh   | 485.5      | 495.94     | 506.38     |  46.9 | 36.70
Comm    | 78.833     | 80.159     | 81.484     |  14.8 |  5.93
Output  | 0.059713   | 0.059755   | 0.059797   |   0.0 |  0.00
Modify  | 11.531     | 11.677     | 11.824     |   4.3 |  0.86
Other   |            | 2.831      |            |       |  0.21

Nlocal:    9826 ave 9828 max 9824 min
Histogram: 1 0 0 0 0 0 0 0 0 1
Nghost:    13640.5 ave 13645 max 13636 min
Histogram: 1 0 0 0 0 0 0 0 0 1
Neighs:    838150 ave 847892 max 828407 min
Histogram: 1 0 0 0 0 0 0 0 0 1

Total # of neighbors = 1676299
Ave neighs/atom = 85.2992
Neighbor list builds = 9505
Dangerous builds not checked
Setting up Verlet run ...
  Unit style    : metal
  Current step  : 210000
  Time step     : 0.001
Per MPI rank memory allocation (min/avg/max) = 11.69 | 11.69 | 11.69 Mbytes
Step Temp Press TotEng PotEng Enthalpy 
  210000    1591.1043   -2508.9152   -58466.612   -62508.162   -58877.752 
  210495    1550.3145    35.222728   -58617.966   -62555.906   -58612.213 
Loop time of 61.2868 on 2 procs for 495 steps with 19652 atoms

Performance: 0.698 ns/day, 34.392 hours/ns, 8.077 timesteps/s
94.4% CPU use with 2 MPI tasks x no OpenMP threads

MPI task timing breakdown:
Section |  min time  |  avg time  |  max time  |%varavg| %total
---------------------------------------------------------------
Pair    | 34.058     | 34.359     | 34.659     |   5.1 | 56.06
Neigh   | 22.28      | 23.307     | 24.335     |  21.3 | 38.03
Comm    | 1.6368     | 2.9913     | 4.3459     |  78.3 |  4.88
Output  | 0.000103   | 0.00015891 | 0.00021482 |   0.0 |  0.00
Modify  | 0.48498    | 0.49617    | 0.50737    |   1.6 |  0.81
Other   |            | 0.1329     |            |       |  0.22

Nlocal:    9826 ave 9833 max 9819 min
Histogram: 1 0 0 0 0 0 0 0 0 1
Nghost:    13608.5 ave 13611 max 13606 min
Histogram: 1 0 0 0 0 0 0 0 0 1
Neighs:    840839 ave 849114 max 832564 min
Histogram: 1 0 0 0 0 0 0 0 0 1

Total # of neighbors = 1681678
Ave neighs/atom = 85.5729
Neighbor list builds = 495
Dangerous builds not checked
Setting up Verlet run ...
  Unit style    : metal
  Current step  : 210495
  Time step     : 0.001
Per MPI rank memory allocation (min/avg/max) = 11.69 | 11.69 | 11.69 Mbytes
Step Temp Press TotEng PotEng Enthalpy 
  210495    1550.3145    35.222728   -58617.966   -62555.906   -58612.213 
  220000    1553.4095   -1098.5808   -58800.622   -62746.424   -58979.653 
Loop time of 1138.03 on 2 procs for 9505 steps with 19652 atoms

Performance: 0.722 ns/day, 33.258 hours/ns, 8.352 timesteps/s
95.3% CPU use with 2 MPI tasks x no OpenMP threads

MPI task timing breakdown:
Section |  min time  |  avg time  |  max time  |%varavg| %total
---------------------------------------------------------------
Pair    | 624.9      | 628.89     | 632.88     |  15.9 | 55.26
Neigh   | 424.28     | 433.04     | 441.79     |  42.1 | 38.05
Comm    | 58.982     | 63.867     | 68.751     |  61.1 |  5.61
Output  | 0.040484   | 0.04052    | 0.040557   |   0.0 |  0.00
Modify  | 9.7339     | 9.7909     | 9.8478     |   1.8 |  0.86
Other   |            | 2.401      |            |       |  0.21

Nlocal:    9826 ave 9834 max 9818 min
Histogram: 1 0 0 0 0 0 0 0 0 1
Nghost:    13651.5 ave 13662 max 13641 min
Histogram: 1 0 0 0 0 0 0 0 0 1
Neighs:    842194 ave 851412 max 832975 min
Histogram: 1 0 0 0 0 0 0 0 0 1

Total # of neighbors = 1684387
Ave neighs/atom = 85.7107
Neighbor list builds = 9505
Dangerous builds not checked
Setting up Verlet run ...
  Unit style    : metal
  Current step  : 220000
  Time step     : 0.001
Per MPI rank memory allocation (min/avg/max) = 11.69 | 11.69 | 11.69 Mbytes
Step Temp Press TotEng PotEng Enthalpy 
  220000    1553.4095   -1098.5808   -58800.622   -62746.424   -58979.653 
  220495    1509.4512   -1312.4282   -58981.755   -62815.899   -59195.321 
Loop time of 58.7418 on 2 procs for 495 steps with 19652 atoms

Performance: 0.728 ns/day, 32.964 hours/ns, 8.427 timesteps/s
97.4% CPU use with 2 MPI tasks x no OpenMP threads

MPI task timing breakdown:
Section |  min time  |  avg time  |  max time  |%varavg| %total
---------------------------------------------------------------
Pair    | 32.658     | 33.11      | 33.561     |   7.8 | 56.36
Neigh   | 22.17      | 22.703     | 23.237     |  11.2 | 38.65
Comm    | 2.1919     | 2.2847     | 2.3775     |   6.1 |  3.89
Output  | 0.00014997 | 0.00019407 | 0.00023818 |   0.0 |  0.00
Modify  | 0.49278    | 0.49848    | 0.50417    |   0.8 |  0.85
Other   |            | 0.1455     |            |       |  0.25

Nlocal:    9826 ave 9849 max 9803 min
Histogram: 1 0 0 0 0 0 0 0 0 1
Nghost:    13673.5 ave 13715 max 13632 min
Histogram: 1 0 0 0 0 0 0 0 0 1
Neighs:    843118 ave 851663 max 834572 min
Histogram: 1 0 0 0 0 0 0 0 0 1

Total # of neighbors = 1686235
Ave neighs/atom = 85.8048
Neighbor list builds = 495
Dangerous builds not checked
Setting up Verlet run ...
  Unit style    : metal
  Current step  : 220495
  Time step     : 0.001
Per MPI rank memory allocation (min/avg/max) = 11.69 | 11.69 | 11.69 Mbytes
Step Temp Press TotEng PotEng Enthalpy 
  220495    1509.4512   -1312.4282   -58981.755   -62815.899   -59195.321 
  230000    1498.8643   -1119.8958   -59127.957   -62935.208   -59309.712 
Loop time of 1107.21 on 2 procs for 9505 steps with 19652 atoms

Performance: 0.742 ns/day, 32.358 hours/ns, 8.585 timesteps/s
97.8% CPU use with 2 MPI tasks x no OpenMP threads

MPI task timing breakdown:
Section |  min time  |  avg time  |  max time  |%varavg| %total
---------------------------------------------------------------
Pair    | 616.55     | 619.97     | 623.39     |  13.7 | 55.99
Neigh   | 428.55     | 428.72     | 428.89     |   0.8 | 38.72
Comm    | 43.766     | 47.007     | 50.248     |  47.3 |  4.25
Output  | 0.25024    | 0.25043    | 0.25062    |   0.0 |  0.02
Modify  | 8.673      | 8.692      | 8.711      |   0.6 |  0.79
Other   |            | 2.575      |            |       |  0.23

Nlocal:    9826 ave 9846 max 9806 min
Histogram: 1 0 0 0 0 0 0 0 0 1
Nghost:    13675 ave 13688 max 13662 min
Histogram: 1 0 0 0 0 0 0 0 0 1
Neighs:    845460 ave 857179 max 833740 min
Histogram: 1 0 0 0 0 0 0 0 0 1

Total # of neighbors = 1690919
Ave neighs/atom = 86.0431
Neighbor list builds = 9505
Dangerous builds not checked
Setting up Verlet run ...
  Unit style    : metal
  Current step  : 230000
  Time step     : 0.001
Per MPI rank memory allocation (min/avg/max) = 11.69 | 11.69 | 11.69 Mbytes
Step Temp Press TotEng PotEng Enthalpy 
  230000    1498.8643   -1119.8958   -59127.957   -62935.208   -59309.712 
  230495    1455.3287    108.50795   -59321.173   -63017.841   -59303.611 
Loop time of 55.7418 on 2 procs for 495 steps with 19652 atoms

Performance: 0.767 ns/day, 31.280 hours/ns, 8.880 timesteps/s
99.7% CPU use with 2 MPI tasks x no OpenMP threads

MPI task timing breakdown:
Section |  min time  |  avg time  |  max time  |%varavg| %total
---------------------------------------------------------------
Pair    | 31.104     | 31.496     | 31.889     |   7.0 | 56.50
Neigh   | 21.742     | 21.845     | 21.948     |   2.2 | 39.19
Comm    | 1.496      | 1.7859     | 2.0759     |  21.7 |  3.20
Output  | 9.799e-05  | 0.00015295 | 0.0002079  |   0.0 |  0.00
Modify  | 0.46621    | 0.46708    | 0.46796    |   0.1 |  0.84
Other   |            | 0.1471     |            |       |  0.26

Nlocal:    9826 ave 9828 max 9824 min
Histogram: 1 0 0 0 0 0 0 0 0 1
Nghost:    13690 ave 13702 max 13678 min
Histogram: 1 0 0 0 0 0 0 0 0 1
Neighs:    847622 ave 856146 max 839097 min
Histogram: 1 0 0 0 0 0 0 0 0 1

Total # of neighbors = 1695243
Ave neighs/atom = 86.2631
Neighbor list builds = 495
Dangerous builds not checked
Setting up Verlet run ...
  Unit style    : metal
  Current step  : 230495
  Time step     : 0.001
Per MPI rank memory allocation (min/avg/max) = 11.69 | 11.69 | 11.69 Mbytes
Step Temp Press TotEng PotEng Enthalpy 
  230495    1455.3287    108.50795   -59321.173   -63017.841   -59303.611 
  240000    1454.8278    362.05884   -59430.736   -63126.132   -59372.262 
Loop time of 1247.02 on 2 procs for 9505 steps with 19652 atoms

Performance: 0.659 ns/day, 36.443 hours/ns, 7.622 timesteps/s
91.1% CPU use with 2 MPI tasks x no OpenMP threads

MPI task timing breakdown:
Section |  min time  |  avg time  |  max time  |%varavg| %total
---------------------------------------------------------------
Pair    | 699.06     | 704.46     | 709.87     |  20.4 | 56.49
Neigh   | 465.89     | 469.01     | 472.13     |  14.4 | 37.61
Comm    | 58.371     | 60.593     | 62.814     |  28.5 |  4.86
Output  | 0.040056   | 0.040106   | 0.040156   |   0.0 |  0.00
Modify  | 10.179     | 10.199     | 10.218     |   0.6 |  0.82
Other   |            | 2.708      |            |       |  0.22

Nlocal:    9826 ave 9845 max 9807 min
Histogram: 1 0 0 0 0 0 0 0 0 1
Nghost:    13690.5 ave 13698 max 13683 min
Histogram: 1 0 0 0 0 0 0 0 0 1
Neighs:    849172 ave 857279 max 841066 min
Histogram: 1 0 0 0 0 0 0 0 0 1

Total # of neighbors = 1698345
Ave neighs/atom = 86.421
Neighbor list builds = 9505
Dangerous builds not checked
Setting up Verlet run ...
  Unit style    : metal
  Current step  : 240000
  Time step     : 0.001
Per MPI rank memory allocation (min/avg/max) = 11.69 | 11.69 | 11.69 Mbytes
Step Temp Press TotEng PotEng Enthalpy 
  240000    1454.8278    362.05884   -59430.736   -63126.132   -59372.262 
  240495    1410.9618     47.81807    -59639.14   -63223.111    -59631.43 
Loop time of 57.1246 on 2 procs for 495 steps with 19652 atoms

Performance: 0.749 ns/day, 32.056 hours/ns, 8.665 timesteps/s
98.8% CPU use with 2 MPI tasks x no OpenMP threads

MPI task timing breakdown:
Section |  min time  |  avg time  |  max time  |%varavg| %total
---------------------------------------------------------------
Pair    | 31.814     | 32.297     | 32.78      |   8.5 | 56.54
Neigh   | 22.583     | 22.596     | 22.609     |   0.3 | 39.56
Comm    | 1.1234     | 1.6329     | 2.1423     |  39.9 |  2.86
Output  | 0.00010705 | 0.00015497 | 0.00020289 |   0.0 |  0.00
Modify  | 0.44848    | 0.46015    | 0.47181    |   1.7 |  0.81
Other   |            | 0.1384     |            |       |  0.24

Nlocal:    9826 ave 9833 max 9819 min
Histogram: 1 0 0 0 0 0 0 0 0 1
Nghost:    13707 ave 13720 max 13694 min
Histogram: 1 0 0 0 0 0 0 0 0 1
Neighs:    850530 ave 858752 max 842308 min
Histogram: 1 0 0 0 0 0 0 0 0 1

Total # of neighbors = 1701060
Ave neighs/atom = 86.5591
Neighbor list builds = 495
Dangerous builds not checked
Setting up Verlet run ...
  Unit style    : metal
  Current step  : 240495
  Time step     : 0.001
Per MPI rank memory allocation (min/avg/max) = 11.69 | 11.69 | 11.69 Mbytes
Step Temp Press TotEng PotEng Enthalpy 
  240495    1410.9618     47.81807    -59639.14   -63223.111    -59631.43 
  250000    1391.2353   -1943.4001   -59795.814   -63329.678   -60108.939 
Loop time of 1131.34 on 2 procs for 9505 steps with 19652 atoms

Performance: 0.726 ns/day, 33.063 hours/ns, 8.402 timesteps/s
95.8% CPU use with 2 MPI tasks x no OpenMP threads

MPI task timing breakdown:
Section |  min time  |  avg time  |  max time  |%varavg| %total
---------------------------------------------------------------
Pair    | 623.53     | 630.04     | 636.55     |  25.9 | 55.69
Neigh   | 438.82     | 441.49     | 444.16     |  12.7 | 39.02
Comm    | 43.589     | 47.346     | 51.103     |  54.6 |  4.18
Output  | 0.038253   | 0.038309   | 0.038366   |   0.0 |  0.00
Modify  | 9.9385     | 9.9906     | 10.043     |   1.6 |  0.88
Other   |            | 2.432      |            |       |  0.21

Nlocal:    9826 ave 9846 max 9806 min
Histogram: 1 0 0 0 0 0 0 0 0 1
Nghost:    13700 ave 13715 max 13685 min
Histogram: 1 0 0 0 0 0 0 0 0 1
Neighs:    850811 ave 856997 max 844625 min
Histogram: 1 0 0 0 0 0 0 0 0 1

Total # of neighbors = 1701622
Ave neighs/atom = 86.5877
Neighbor list builds = 9505
Dangerous builds not checked
Setting up Verlet run ...
  Unit style    : metal
  Current step  : 250000
  Time step     : 0.001
Per MPI rank memory allocation (min/avg/max) = 11.69 | 11.69 | 11.7 Mbytes
Step Temp Press TotEng PotEng Enthalpy 
  250000    1391.2353   -1943.4001   -59795.814   -63329.678   -60108.939 
  250495    1364.0766   -699.93619   -59990.782   -63455.661    -60103.17 
Loop time of 54.6598 on 2 procs for 495 steps with 19652 atoms

Performance: 0.782 ns/day, 30.673 hours/ns, 9.056 timesteps/s
98.5% CPU use with 2 MPI tasks x no OpenMP threads

MPI task timing breakdown:
Section |  min time  |  avg time  |  max time  |%varavg| %total
---------------------------------------------------------------
Pair    | 30.03      | 30.258     | 30.486     |   4.1 | 55.36
Neigh   | 22.073     | 22.076     | 22.079     |   0.1 | 40.39
Comm    | 1.5402     | 1.7619     | 1.9836     |  16.7 |  3.22
Output  | 9.4891e-05 | 0.00015295 | 0.000211   |   0.0 |  0.00
Modify  | 0.43869    | 0.44296    | 0.44724    |   0.6 |  0.81
Other   |            | 0.121      |            |       |  0.22

Nlocal:    9826 ave 9855 max 9797 min
Histogram: 1 0 0 0 0 0 0 0 0 1
Nghost:    13733 ave 13769 max 13697 min
Histogram: 1 0 0 0 0 0 0 0 0 1
Neighs:    853338 ave 866180 max 840495 min
Histogram: 1 0 0 0 0 0 0 0 0 1

Total # of neighbors = 1706675
Ave neighs/atom = 86.8449
Neighbor list builds = 495
Dangerous builds not checked
Setting up Verlet run ...
  Unit style    : metal
  Current step  : 250495
  Time step     : 0.001
Per MPI rank memory allocation (min/avg/max) = 11.69 | 11.69 | 11.7 Mbytes
Step Temp Press TotEng PotEng Enthalpy 
  250495    1364.0766   -699.93619   -59990.782   -63455.661    -60103.17 
  260000    1343.7383   -1041.0359    -60136.49   -63549.708   -60303.342 
Loop time of 1100.66 on 2 procs for 9505 steps with 19652 atoms

Performance: 0.746 ns/day, 32.166 hours/ns, 8.636 timesteps/s
96.4% CPU use with 2 MPI tasks x no OpenMP threads

MPI task timing breakdown:
Section |  min time  |  avg time  |  max time  |%varavg| %total
---------------------------------------------------------------
Pair    | 600.47     | 607.85     | 615.23     |  29.9 | 55.23
Neigh   | 430.83     | 430.91     | 431        |   0.4 | 39.15
Comm    | 43.375     | 50.647     | 57.918     | 102.2 |  4.60
Output  | 0.036773   | 0.036843   | 0.036913   |   0.0 |  0.00
Modify  | 8.8487     | 8.8524     | 8.8561     |   0.1 |  0.80
Other   |            | 2.358      |            |       |  0.21

Nlocal:    9826 ave 9860 max 9792 min
Histogram: 1 0 0 0 0 0 0 0 0 1
Nghost:    13755 ave 13791 max 13719 min
Histogram: 1 0 0 0 0 0 0 0 0 1
Neighs:    855082 ave 868645 max 841518 min
Histogram: 1 0 0 0 0 0 0 0 0 1

Total # of neighbors = 1710163
Ave neighs/atom = 87.0223
Neighbor list builds = 9505
Dangerous builds not checked
Setting up Verlet run ...
  Unit style    : metal
  Current step  : 260000
  Time step     : 0.001
Per MPI rank memory allocation (min/avg/max) = 11.7 | 11.7 | 11.7 Mbytes
Step Temp Press TotEng PotEng Enthalpy 
  260000    1343.7383   -1041.0359    -60136.49   -63549.708   -60303.342 
  260495    1316.0875   -300.84622   -60325.399   -63668.381   -60373.489 
Loop time of 51.9617 on 2 procs for 495 steps with 19652 atoms

Performance: 0.823 ns/day, 29.159 hours/ns, 9.526 timesteps/s
98.7% CPU use with 2 MPI tasks x no OpenMP threads

MPI task timing breakdown:
Section |  min time  |  avg time  |  max time  |%varavg| %total
---------------------------------------------------------------
Pair    | 28.421     | 28.76      | 29.1       |   6.3 | 55.35
Neigh   | 21.148     | 21.208     | 21.268     |   1.3 | 40.81
Comm    | 1.1738     | 1.4549     | 1.7359     |  23.3 |  2.80
Output  | 8.7023e-05 | 0.00011802 | 0.00014901 |   0.0 |  0.00
Modify  | 0.42706    | 0.42857    | 0.43007    |   0.2 |  0.82
Other   |            | 0.1101     |            |       |  0.21

Nlocal:    9826 ave 9831 max 9821 min
Histogram: 1 0 0 0 0 0 0 0 0 1
Nghost:    13741.5 ave 13746 max 13737 min
Histogram: 1 0 0 0 0 0 0 0 0 1
Neighs:    857235 ave 866304 max 848166 min
Histogram: 1 0 0 0 0 0 0 0 0 1

Total # of neighbors = 1714470
Ave neighs/atom = 87.2415
Neighbor list builds = 495
Dangerous builds not checked
Setting up Verlet run ...
  Unit style    : metal
  Current step  : 260495
  Time step     : 0.001
Per MPI rank memory allocation (min/avg/max) = 11.7 | 11.7 | 11.7 Mbytes
Step Temp Press TotEng PotEng Enthalpy 
  260495    1316.0875   -300.84622   -60325.399   -63668.381   -60373.489 
  270000    1316.1557   -2496.8692   -60420.366   -63763.522   -60819.313 
Loop time of 991.844 on 2 procs for 9505 steps with 19652 atoms

Performance: 0.828 ns/day, 28.986 hours/ns, 9.583 timesteps/s
98.0% CPU use with 2 MPI tasks x no OpenMP threads

MPI task timing breakdown:
Section |  min time  |  avg time  |  max time  |%varavg| %total
---------------------------------------------------------------
Pair    | 538.08     | 541.74     | 545.39     |  15.7 | 54.62
Neigh   | 396.94     | 398.43     | 399.92     |   7.5 | 40.17
Comm    | 37.735     | 39.606     | 41.477     |  29.7 |  3.99
Output  | 0.036382   | 0.036415   | 0.036448   |   0.0 |  0.00
Modify  | 9.646      | 9.9065     | 10.167     |   8.3 |  1.00
Other   |            | 2.125      |            |       |  0.21

Nlocal:    9826 ave 9845 max 9807 min
Histogram: 1 0 0 0 0 0 0 0 0 1
Nghost:    13775.5 ave 13813 max 13738 min
Histogram: 1 0 0 0 0 0 0 0 0 1
Neighs:    856798 ave 864023 max 849572 min
Histogram: 1 0 0 0 0 0 0 0 0 1

Total # of neighbors = 1713595
Ave neighs/atom = 87.197
Neighbor list builds = 9505
Dangerous builds not checked
Setting up Verlet run ...
  Unit style    : metal
  Current step  : 270000
  Time step     : 0.001
Per MPI rank memory allocation (min/avg/max) = 11.7 | 11.7 | 11.7 Mbytes
Step Temp Press TotEng PotEng Enthalpy 
  270000    1316.1557   -2496.8692   -60420.366   -63763.522   -60819.313 
  270495    1264.3699    1362.1816   -60658.594   -63870.209   -60441.967 
Loop time of 53.0774 on 2 procs for 495 steps with 19652 atoms

Performance: 0.806 ns/day, 29.785 hours/ns, 9.326 timesteps/s
98.9% CPU use with 2 MPI tasks x no OpenMP threads

MPI task timing breakdown:
Section |  min time  |  avg time  |  max time  |%varavg| %total
---------------------------------------------------------------
Pair    | 29.514     | 29.562     | 29.609     |   0.9 | 55.70
Neigh   | 20.652     | 21.233     | 21.814     |  12.6 | 40.00
Comm    | 1.1032     | 1.7452     | 2.3872     |  48.6 |  3.29
Output  | 0.00010014 | 0.00014055 | 0.00018096 |   0.0 |  0.00
Modify  | 0.41342    | 0.41889    | 0.42436    |   0.8 |  0.79
Other   |            | 0.1181     |            |       |  0.22

Nlocal:    9826 ave 9827 max 9825 min
Histogram: 1 0 0 0 0 0 0 0 0 1
Nghost:    13796 ave 13819 max 13773 min
Histogram: 1 0 0 0 0 0 0 0 0 1
Neighs:    861040 ave 869349 max 852731 min
Histogram: 1 0 0 0 0 0 0 0 0 1

Total # of neighbors = 1722080
Ave neighs/atom = 87.6287
Neighbor list builds = 495
Dangerous builds not checked
Setting up Verlet run ...
  Unit style    : metal
  Current step  : 270495
  Time step     : 0.001
Per MPI rank memory allocation (min/avg/max) = 11.7 | 11.7 | 11.7 Mbytes
Step Temp Press TotEng PotEng Enthalpy 
  270495    1264.3699    1362.1816   -60658.594   -63870.209   -60441.967 
  280000    1241.4095    650.84854   -60860.341   -64013.635   -60757.052 
Loop time of 1029.91 on 2 procs for 9505 steps with 19652 atoms

Performance: 0.797 ns/day, 30.098 hours/ns, 9.229 timesteps/s
98.0% CPU use with 2 MPI tasks x no OpenMP threads

MPI task timing breakdown:
Section |  min time  |  avg time  |  max time  |%varavg| %total
---------------------------------------------------------------
Pair    | 572.04     | 572.05     | 572.06     |   0.0 | 55.54
Neigh   | 403.65     | 406.64     | 409.64     |  14.9 | 39.48
Comm    | 36.647     | 39.689     | 42.732     |  48.3 |  3.85
Output  | 0.033731   | 0.033764   | 0.033796   |   0.0 |  0.00
Modify  | 9.2294     | 9.2446     | 9.2599     |   0.5 |  0.90
Other   |            | 2.245      |            |       |  0.22

Nlocal:    9826 ave 9830 max 9822 min
Histogram: 1 0 0 0 0 0 0 0 0 1
Nghost:    13774 ave 13776 max 13772 min
Histogram: 1 0 0 0 0 0 0 0 0 1
Neighs:    862006 ave 870303 max 853709 min
Histogram: 1 0 0 0 0 0 0 0 0 1

Total # of neighbors = 1724012
Ave neighs/atom = 87.7271
Neighbor list builds = 9505
Dangerous builds not checked
Setting up Verlet run ...
  Unit style    : metal
  Current step  : 280000
  Time step     : 0.001
Per MPI rank memory allocation (min/avg/max) = 11.7 | 11.7 | 11.7 Mbytes
Step Temp Press TotEng PotEng Enthalpy 
  280000    1241.4095    650.84854   -60860.341   -64013.635   -60757.052 
  280495    1219.9327   -909.47168   -61031.654   -64130.394   -61175.807 
Loop time of 53.4666 on 2 procs for 495 steps with 19652 atoms

Performance: 0.800 ns/day, 30.004 hours/ns, 9.258 timesteps/s
95.5% CPU use with 2 MPI tasks x no OpenMP threads

MPI task timing breakdown:
Section |  min time  |  avg time  |  max time  |%varavg| %total
---------------------------------------------------------------
Pair    | 28.65      | 28.972     | 29.293     |   6.0 | 54.19
Neigh   | 19.211     | 19.746     | 20.281     |  12.0 | 36.93
Comm    | 3.5476     | 3.7676     | 3.9877     |  11.3 |  7.05
Output  | 7.7963e-05 | 0.00011647 | 0.00015497 |   0.0 |  0.00
Modify  | 0.86771    | 0.86997    | 0.87223    |   0.2 |  1.63
Other   |            | 0.1116     |            |       |  0.21

Nlocal:    9826 ave 9841 max 9811 min
Histogram: 1 0 0 0 0 0 0 0 0 1
Nghost:    13784 ave 13808 max 13760 min
Histogram: 1 0 0 0 0 0 0 0 0 1
Neighs:    862943 ave 870506 max 855380 min
Histogram: 1 0 0 0 0 0 0 0 0 1

Total # of neighbors = 1725886
Ave neighs/atom = 87.8224
Neighbor list builds = 495
Dangerous builds not checked
Setting up Verlet run ...
  Unit style    : metal
  Current step  : 280495
  Time step     : 0.001
Per MPI rank memory allocation (min/avg/max) = 11.7 | 11.7 | 11.7 Mbytes
Step Temp Press TotEng PotEng Enthalpy 
  280495    1219.9327   -909.47168   -61031.654   -64130.394   -61175.807 
  290000    1199.0986   -581.81626    -61176.95    -64222.77   -61268.962 
Loop time of 1034.04 on 2 procs for 9505 steps with 19652 atoms

Performance: 0.794 ns/day, 30.219 hours/ns, 9.192 timesteps/s
97.2% CPU use with 2 MPI tasks x no OpenMP threads

MPI task timing breakdown:
Section |  min time  |  avg time  |  max time  |%varavg| %total
---------------------------------------------------------------
Pair    | 567.21     | 570.61     | 574.02     |  14.3 | 55.18
Neigh   | 407.62     | 408.77     | 409.91     |   5.6 | 39.53
Comm    | 39.559     | 44.148     | 48.736     |  69.1 |  4.27
Output  | 0.036583   | 0.036612   | 0.036641   |   0.0 |  0.00
Modify  | 8.2549     | 8.2879     | 8.3209     |   1.1 |  0.80
Other   |            | 2.189      |            |       |  0.21

Nlocal:    9826 ave 9844 max 9808 min
Histogram: 1 0 0 0 0 0 0 0 0 1
Nghost:    13805 ave 13837 max 13773 min
Histogram: 1 0 0 0 0 0 0 0 0 1
Neighs:    864544 ave 871860 max 857227 min
Histogram: 1 0 0 0 0 0 0 0 0 1

Total # of neighbors = 1729087
Ave neighs/atom = 87.9853
Neighbor list builds = 9505
Dangerous builds not checked
Setting up Verlet run ...
  Unit style    : metal
  Current step  : 290000
  Time step     : 0.001
Per MPI rank memory allocation (min/avg/max) = 11.7 | 11.7 | 11.7 Mbytes
Step Temp Press TotEng PotEng Enthalpy 
  290000    1199.0986   -581.81626    -61176.95    -64222.77   -61268.962 
  290495    1168.4623    63.729619   -61383.748   -64351.748     -61373.7 
Loop time of 58.8464 on 2 procs for 495 steps with 19652 atoms

Performance: 0.727 ns/day, 33.023 hours/ns, 8.412 timesteps/s
92.3% CPU use with 2 MPI tasks x no OpenMP threads

MPI task timing breakdown:
Section |  min time  |  avg time  |  max time  |%varavg| %total
---------------------------------------------------------------
Pair    | 32.876     | 32.882     | 32.889     |   0.1 | 55.88
Neigh   | 22.686     | 22.857     | 23.028     |   3.6 | 38.84
Comm    | 2.3341     | 2.5091     | 2.6842     |  11.1 |  4.26
Output  | 0.00010705 | 0.00018501 | 0.00026298 |   0.0 |  0.00
Modify  | 0.46277    | 0.47274    | 0.48272    |   1.5 |  0.80
Other   |            | 0.1251     |            |       |  0.21

Nlocal:    9826 ave 9828 max 9824 min
Histogram: 1 0 0 0 0 0 0 0 0 1
Nghost:    13869.5 ave 13893 max 13846 min
Histogram: 1 0 0 0 0 0 0 0 0 1
Neighs:    867064 ave 876797 max 857331 min
Histogram: 1 0 0 0 0 0 0 0 0 1

Total # of neighbors = 1734128
Ave neighs/atom = 88.2418
Neighbor list builds = 495
Dangerous builds not checked
Setting up Verlet run ...
  Unit style    : metal
  Current step  : 290495
  Time step     : 0.001
Per MPI rank memory allocation (min/avg/max) = 11.7 | 11.7 | 11.7 Mbytes
Step Temp Press TotEng PotEng Enthalpy 
  290495    1168.4623    63.729619   -61383.748   -64351.748     -61373.7 
  300000    1152.7231    -643.0756   -61523.568    -64451.59   -61624.803 
Loop time of 1033.25 on 2 procs for 9505 steps with 19652 atoms

Performance: 0.795 ns/day, 30.196 hours/ns, 9.199 timesteps/s
97.2% CPU use with 2 MPI tasks x no OpenMP threads

MPI task timing breakdown:
Section |  min time  |  avg time  |  max time  |%varavg| %total
---------------------------------------------------------------
Pair    | 564.63     | 572.75     | 580.87     |  33.9 | 55.43
Neigh   | 405.11     | 405.66     | 406.22     |   2.8 | 39.26
Comm    | 35.325     | 44.03      | 52.734     | 131.2 |  4.26
Output  | 0.07628    | 0.076313   | 0.076346   |   0.0 |  0.01
Modify  | 8.5017     | 8.5246     | 8.5476     |   0.8 |  0.83
Other   |            | 2.211      |            |       |  0.21

Nlocal:    9826 ave 9833 max 9819 min
Histogram: 1 0 0 0 0 0 0 0 0 1
Nghost:    13829.5 ave 13844 max 13815 min
Histogram: 1 0 0 0 0 0 0 0 0 1
Neighs:    867997 ave 877468 max 858526 min
Histogram: 1 0 0 0 0 0 0 0 0 1

Total # of neighbors = 1735994
Ave neighs/atom = 88.3368
Neighbor list builds = 9505
Dangerous builds not checked
Setting up Verlet run ...
  Unit style    : metal
  Current step  : 300000
  Time step     : 0.001
Per MPI rank memory allocation (min/avg/max) = 11.7 | 11.7 | 11.7 Mbytes
Step Temp Press TotEng PotEng Enthalpy 
  300000    1152.7231    -643.0756   -61523.568    -64451.59   -61624.803 
[...]
Nghost:    14143 ave 14166 max 14120 min
Histogram: 1 0 0 0 0 0 0 0 0 1
Neighs:    907299 ave 919030 max 895568 min
Histogram: 1 0 0 0 0 0 0 0 0 1

Total # of neighbors = 1814598
Ave neighs/atom = 92.3366
Neighbor list builds = 9505
Dangerous builds not checked
Setting up Verlet run ...
  Unit style    : metal
  Current step  : 440000
  Time step     : 0.001
Per MPI rank memory allocation (min/avg/max) = 11.7 | 11.7 | 11.7 Mbytes
Step Temp Press TotEng PotEng Enthalpy 
  440000    451.08663   -1009.7539   -66185.566   -67331.367   -66336.097 
  440495    418.33259    306.59237   -66339.386   -67401.989   -66293.788 
Loop time of 48.7272 on 2 procs for 495 steps with 19652 atoms

Performance: 0.878 ns/day, 27.344 hours/ns, 10.159 timesteps/s
99.9% CPU use with 2 MPI tasks x no OpenMP threads

MPI task timing breakdown:
Section |  min time  |  avg time  |  max time  |%varavg| %total
---------------------------------------------------------------
Pair    | 27.019     | 27.224     | 27.43      |   3.9 | 55.87
Neigh   | 19.619     | 19.685     | 19.752     |   1.5 | 40.40
Comm    | 1.175      | 1.3137     | 1.4525     |  12.1 |  2.70
Output  | 8.2016e-05 | 0.00012946 | 0.00017691 |   0.0 |  0.00
Modify  | 0.39132    | 0.39196    | 0.39261    |   0.1 |  0.80
Other   |            | 0.1116     |            |       |  0.23

Nlocal:    9826 ave 9834 max 9818 min
Histogram: 1 0 0 0 0 0 0 0 0 1
Nghost:    14189 ave 14193 max 14185 min
Histogram: 1 0 0 0 0 0 0 0 0 1
Neighs:    909232 ave 920308 max 898157 min
Histogram: 1 0 0 0 0 0 0 0 0 1

Total # of neighbors = 1818465
Ave neighs/atom = 92.5333
Neighbor list builds = 495
Dangerous builds not checked
Setting up Verlet run ...
  Unit style    : metal
  Current step  : 440495
  Time step     : 0.001
Per MPI rank memory allocation (min/avg/max) = 11.7 | 11.7 | 11.7 Mbytes
Step Temp Press TotEng PotEng Enthalpy 
  440495    418.33259    306.59237   -66339.386   -67401.989   -66293.788 
  450000    398.04952     421.8641   -66463.485   -67474.567   -66400.825 
Loop time of 1187.84 on 2 procs for 9505 steps with 19652 atoms

Performance: 0.691 ns/day, 34.714 hours/ns, 8.002 timesteps/s
89.5% CPU use with 2 MPI tasks x no OpenMP threads

MPI task timing breakdown:
Section |  min time  |  avg time  |  max time  |%varavg| %total
---------------------------------------------------------------
Pair    | 661.82     | 673.1      | 684.39     |  43.5 | 56.67
Neigh   | 392.86     | 434.21     | 475.57     | 198.5 | 36.56
Comm    | 37.578     | 68.34      | 99.102     | 372.1 |  5.75
Output  | 0.10485    | 0.10487    | 0.10489    |   0.0 |  0.01
Modify  | 9.128      | 9.6102     | 10.092     |  15.6 |  0.81
Other   |            | 2.464      |            |       |  0.21

Nlocal:    9826 ave 9836 max 9816 min
Histogram: 1 0 0 0 0 0 0 0 0 1
Nghost:    14182 ave 14184 max 14180 min
Histogram: 1 0 0 0 0 0 0 0 0 1
Neighs:    909928 ave 919683 max 900173 min
Histogram: 1 0 0 0 0 0 0 0 0 1

Total # of neighbors = 1819856
Ave neighs/atom = 92.6041
Neighbor list builds = 9505
Dangerous builds not checked
Setting up Verlet run ...
  Unit style    : metal
  Current step  : 450000
  Time step     : 0.001
Per MPI rank memory allocation (min/avg/max) = 11.7 | 11.7 | 11.7 Mbytes
Step Temp Press TotEng PotEng Enthalpy 
  450000    398.04952     421.8641   -66463.485   -67474.567   -66400.825 
  450495    367.67567   -408.27359   -66616.823   -67550.752   -66677.406 
Loop time of 63.3113 on 2 procs for 495 steps with 19652 atoms

Performance: 0.676 ns/day, 35.528 hours/ns, 7.819 timesteps/s
88.6% CPU use with 2 MPI tasks x no OpenMP threads

MPI task timing breakdown:
Section |  min time  |  avg time  |  max time  |%varavg| %total
---------------------------------------------------------------
Pair    | 34.85      | 35.508     | 36.166     |  11.0 | 56.08
Neigh   | 19.835     | 22.772     | 25.709     |  61.5 | 35.97
Comm    | 1.9215     | 4.3026     | 6.6838     | 114.8 |  6.80
Output  | 8.3923e-05 | 0.00010753 | 0.00013113 |   0.0 |  0.00
Modify  | 0.51343    | 0.59862    | 0.68382    |  11.0 |  0.95
Other   |            | 0.1305     |            |       |  0.21

Nlocal:    9826 ave 9828 max 9824 min
Histogram: 1 0 0 0 0 0 0 0 0 1
Nghost:    14173 ave 14185 max 14161 min
Histogram: 1 0 0 0 0 0 0 0 0 1
Neighs:    911322 ave 921121 max 901522 min
Histogram: 1 0 0 0 0 0 0 0 0 1

Total # of neighbors = 1822643
Ave neighs/atom = 92.7459
Neighbor list builds = 495
Dangerous builds not checked
Setting up Verlet run ...
  Unit style    : metal
  Current step  : 450495
  Time step     : 0.001
Per MPI rank memory allocation (min/avg/max) = 11.7 | 11.7 | 11.7 Mbytes
Step Temp Press TotEng PotEng Enthalpy 
  450495    367.67567   -408.27359   -66616.823   -67550.752   -66677.406 
  460000    353.22857    1100.4326   -66735.955   -67633.188   -66573.071 
Loop time of 1358.55 on 2 procs for 9505 steps with 19652 atoms

Performance: 0.604 ns/day, 39.703 hours/ns, 6.996 timesteps/s
81.7% CPU use with 2 MPI tasks x no OpenMP threads

MPI task timing breakdown:
Section |  min time  |  avg time  |  max time  |%varavg| %total
---------------------------------------------------------------
Pair    | 766.35     | 767.44     | 768.52     |   3.9 | 56.49
Neigh   | 475.78     | 480.19     | 484.61     |  20.1 | 35.35
Comm    | 92.006     | 95.332     | 98.659     |  34.1 |  7.02
Output  | 0.9371     | 0.94022    | 0.94333    |   0.3 |  0.07
Modify  | 11.959     | 11.98      | 12.001     |   0.6 |  0.88
Other   |            | 2.67       |            |       |  0.20

Nlocal:    9826 ave 9827 max 9825 min
Histogram: 1 0 0 0 0 0 0 0 0 1
Nghost:    14187.5 ave 14207 max 14168 min
Histogram: 1 0 0 0 0 0 0 0 0 1
Neighs:    913395 ave 923777 max 903013 min
Histogram: 1 0 0 0 0 0 0 0 0 1

Total # of neighbors = 1826790
Ave neighs/atom = 92.957
Neighbor list builds = 9505
Dangerous builds not checked
Setting up Verlet run ...
  Unit style    : metal
  Current step  : 460000
  Time step     : 0.001
Per MPI rank memory allocation (min/avg/max) = 11.7 | 11.7 | 11.7 Mbytes
Step Temp Press TotEng PotEng Enthalpy 
  460000    353.22857    1100.4326   -66735.955   -67633.188   -66573.071 
  460495     320.4507   -564.78382   -66879.095   -67693.069   -66962.679 
Loop time of 58.6878 on 2 procs for 495 steps with 19652 atoms

Performance: 0.729 ns/day, 32.934 hours/ns, 8.434 timesteps/s
91.2% CPU use with 2 MPI tasks x no OpenMP threads

MPI task timing breakdown:
Section |  min time  |  avg time  |  max time  |%varavg| %total
---------------------------------------------------------------
Pair    | 32.515     | 32.973     | 33.431     |   8.0 | 56.18
Neigh   | 21.655     | 21.943     | 22.231     |   6.2 | 37.39
Comm    | 2.919      | 3.0813     | 3.2436     |   9.2 |  5.25
Output  | 0.00011301 | 0.00014341 | 0.00017381 |   0.0 |  0.00
Modify  | 0.55512    | 0.56045    | 0.56579    |   0.7 |  0.95
Other   |            | 0.13       |            |       |  0.22

Nlocal:    9826 ave 9835 max 9817 min
Histogram: 1 0 0 0 0 0 0 0 0 1
Nghost:    14206.5 ave 14208 max 14205 min
Histogram: 1 0 0 0 0 0 0 0 0 1
Neighs:    913422 ave 923187 max 903658 min
Histogram: 1 0 0 0 0 0 0 0 0 1

Total # of neighbors = 1826845
Ave neighs/atom = 92.9597
Neighbor list builds = 495
Dangerous builds not checked
Setting up Verlet run ...
  Unit style    : metal
  Current step  : 460495
  Time step     : 0.001
Per MPI rank memory allocation (min/avg/max) = 11.7 | 11.7 | 11.7 Mbytes
Step Temp Press TotEng PotEng Enthalpy 
  460495     320.4507   -564.78382   -66879.095   -67693.069   -66962.679 
  470000    298.00327    56.130528   -67000.903   -67757.858   -66992.609 
Loop time of 1094.64 on 2 procs for 9505 steps with 19652 atoms

Performance: 0.750 ns/day, 31.990 hours/ns, 8.683 timesteps/s
93.0% CPU use with 2 MPI tasks x no OpenMP threads

MPI task timing breakdown:
Section |  min time  |  avg time  |  max time  |%varavg| %total
---------------------------------------------------------------
Pair    | 608.35     | 613.57     | 618.78     |  21.0 | 56.05
Neigh   | 414.05     | 416.86     | 419.67     |  13.8 | 38.08
Comm    | 49.433     | 51.848     | 54.263     |  33.5 |  4.74
Output  | 0.041789   | 0.041836   | 0.041883   |   0.0 |  0.00
Modify  | 10.015     | 10.05      | 10.085     |   1.1 |  0.92
Other   |            | 2.271      |            |       |  0.21

Nlocal:    9826 ave 9835 max 9817 min
Histogram: 1 0 0 0 0 0 0 0 0 1
Nghost:    14205 ave 14205 max 14205 min
Histogram: 2 0 0 0 0 0 0 0 0 0
Neighs:    914794 ave 924409 max 905180 min
Histogram: 1 0 0 0 0 0 0 0 0 1

Total # of neighbors = 1829589
Ave neighs/atom = 93.0994
Neighbor list builds = 9505
Dangerous builds not checked
Setting up Verlet run ...
  Unit style    : metal
  Current step  : 470000
  Time step     : 0.001
Per MPI rank memory allocation (min/avg/max) = 11.7 | 11.7 | 11.7 Mbytes
Step Temp Press TotEng PotEng Enthalpy 
  470000    298.00327    56.130528   -67000.903   -67757.858   -66992.609 
  470495     272.9334   -489.18067   -67141.207   -67834.483   -67213.413 
Loop time of 65.0884 on 2 procs for 495 steps with 19652 atoms

Performance: 0.657 ns/day, 36.525 hours/ns, 7.605 timesteps/s
86.7% CPU use with 2 MPI tasks x no OpenMP threads

MPI task timing breakdown:
Section |  min time  |  avg time  |  max time  |%varavg| %total
---------------------------------------------------------------
Pair    | 36.568     | 36.677     | 36.787     |   1.8 | 56.35
Neigh   | 23.127     | 23.607     | 24.088     |   9.9 | 36.27
Comm    | 3.7235     | 4.1166     | 4.5096     |  19.4 |  6.32
Output  | 9.0122e-05 | 0.00012815 | 0.00016618 |   0.0 |  0.00
Modify  | 0.54086    | 0.5598     | 0.57874    |   2.5 |  0.86
Other   |            | 0.127      |            |       |  0.20

Nlocal:    9826 ave 9833 max 9819 min
Histogram: 1 0 0 0 0 0 0 0 0 1
Nghost:    14208.5 ave 14216 max 14201 min
Histogram: 1 0 0 0 0 0 0 0 0 1
Neighs:    915809 ave 925376 max 906242 min
Histogram: 1 0 0 0 0 0 0 0 0 1

Total # of neighbors = 1831618
Ave neighs/atom = 93.2026
Neighbor list builds = 495
Dangerous builds not checked
Setting up Verlet run ...
  Unit style    : metal
  Current step  : 470495
  Time step     : 0.001
Per MPI rank memory allocation (min/avg/max) = 11.7 | 11.7 | 11.7 Mbytes
Step Temp Press TotEng PotEng Enthalpy 
  470495     272.9334   -489.18067   -67141.207   -67834.483   -67213.413 
  480000    248.99131   -629.30979   -67266.812   -67899.273   -67359.585 
Loop time of 1072.06 on 2 procs for 9505 steps with 19652 atoms

Performance: 0.766 ns/day, 31.330 hours/ns, 8.866 timesteps/s
93.4% CPU use with 2 MPI tasks x no OpenMP threads

MPI task timing breakdown:
Section |  min time  |  avg time  |  max time  |%varavg| %total
---------------------------------------------------------------
Pair    | 595.98     | 600.84     | 605.7      |  19.8 | 56.05
Neigh   | 411.29     | 414.19     | 417.09     |  14.2 | 38.64
Comm    | 43.765     | 45.793     | 47.822     |  30.0 |  4.27
Output  | 0.040397   | 0.040431   | 0.040464   |   0.0 |  0.00
Modify  | 8.8359     | 8.8904     | 8.9448     |   1.8 |  0.83
Other   |            | 2.297      |            |       |  0.21

Nlocal:    9826 ave 9836 max 9816 min
Histogram: 1 0 0 0 0 0 0 0 0 1
Nghost:    14209 ave 14230 max 14188 min
Histogram: 1 0 0 0 0 0 0 0 0 1
Neighs:    916852 ave 928280 max 905423 min
Histogram: 1 0 0 0 0 0 0 0 0 1

Total # of neighbors = 1833703
Ave neighs/atom = 93.3087
Neighbor list builds = 9505
Dangerous builds not checked
Setting up Verlet run ...
  Unit style    : metal
  Current step  : 480000
  Time step     : 0.001
Per MPI rank memory allocation (min/avg/max) = 11.7 | 11.7 | 11.7 Mbytes
Step Temp Press TotEng PotEng Enthalpy 
  480000    248.99131   -629.30979   -67266.812   -67899.273   -67359.585 
  480495     222.4593   -60.058594   -67399.336   -67964.403   -67408.176 
Loop time of 53.2293 on 2 procs for 495 steps with 19652 atoms

Performance: 0.803 ns/day, 29.871 hours/ns, 9.299 timesteps/s
98.4% CPU use with 2 MPI tasks x no OpenMP threads

MPI task timing breakdown:
Section |  min time  |  avg time  |  max time  |%varavg| %total
---------------------------------------------------------------
Pair    | 29.837     | 30.109     | 30.381     |   5.0 | 56.56
Neigh   | 21.194     | 21.244     | 21.294     |   1.1 | 39.91
Comm    | 1.0921     | 1.3227     | 1.5533     |  20.0 |  2.48
Output  | 8.4877e-05 | 0.00012434 | 0.00016379 |   0.0 |  0.00
Modify  | 0.42808    | 0.4366     | 0.44511    |   1.3 |  0.82
Other   |            | 0.117      |            |       |  0.22

Nlocal:    9826 ave 9830 max 9822 min
Histogram: 1 0 0 0 0 0 0 0 0 1
Nghost:    14228.5 ave 14238 max 14219 min
Histogram: 1 0 0 0 0 0 0 0 0 1
Neighs:    918273 ave 927822 max 908724 min
Histogram: 1 0 0 0 0 0 0 0 0 1

Total # of neighbors = 1836546
Ave neighs/atom = 93.4534
Neighbor list builds = 495
Dangerous builds not checked
Setting up Verlet run ...
  Unit style    : metal
  Current step  : 480495
  Time step     : 0.001
Per MPI rank memory allocation (min/avg/max) = 11.7 | 11.7 | 11.7 Mbytes
Step Temp Press TotEng PotEng Enthalpy 
  480495     222.4593   -60.058594   -67399.336   -67964.403   -67408.176 
  490000    198.37853   -1057.8948    -67525.61   -68029.509   -67681.214 
Loop time of 1000.61 on 2 procs for 9505 steps with 19652 atoms

Performance: 0.821 ns/day, 29.242 hours/ns, 9.499 timesteps/s
97.3% CPU use with 2 MPI tasks x no OpenMP threads

MPI task timing breakdown:
Section |  min time  |  avg time  |  max time  |%varavg| %total
---------------------------------------------------------------
Pair    | 551.84     | 559.97     | 568.1      |  34.4 | 55.96
Neigh   | 396.5      | 397.57     | 398.65     |   5.4 | 39.73
Comm    | 25.631     | 32.591     | 39.552     | 121.9 |  3.26
Output  | 0.037447   | 0.037476   | 0.037506   |   0.0 |  0.00
Modify  | 8.1316     | 8.1807     | 8.2298     |   1.7 |  0.82
Other   |            | 2.25       |            |       |  0.22

Nlocal:    9826 ave 9833 max 9819 min
Histogram: 1 0 0 0 0 0 0 0 0 1
Nghost:    14248 ave 14257 max 14239 min
Histogram: 1 0 0 0 0 0 0 0 0 1
Neighs:    918706 ave 928962 max 908450 min
Histogram: 1 0 0 0 0 0 0 0 0 1

Total # of neighbors = 1837412
Ave neighs/atom = 93.4975
Neighbor list builds = 9505
Dangerous builds not checked
Setting up Verlet run ...
  Unit style    : metal
  Current step  : 490000
  Time step     : 0.001
Per MPI rank memory allocation (min/avg/max) = 11.7 | 11.7 | 11.7 Mbytes
Step Temp Press TotEng PotEng Enthalpy 
  490000    198.37853   -1057.8948    -67525.61   -68029.509   -67681.214 
  490495    175.40136    571.95251   -67652.217   -68097.753    -67568.29 
Loop time of 50.7918 on 2 procs for 495 steps with 19652 atoms

Performance: 0.842 ns/day, 28.503 hours/ns, 9.746 timesteps/s
99.2% CPU use with 2 MPI tasks x no OpenMP threads

MPI task timing breakdown:
Section |  min time  |  avg time  |  max time  |%varavg| %total
---------------------------------------------------------------
Pair    | 28.272     | 28.707     | 29.143     |   8.1 | 56.52
Neigh   | 20.225     | 20.438     | 20.65      |   4.7 | 40.24
Comm    | 0.90909    | 1.1327     | 1.3563     |  21.0 |  2.23
Output  | 7.9155e-05 | 0.00011706 | 0.00015497 |   0.0 |  0.00
Modify  | 0.39564    | 0.39609    | 0.39655    |   0.1 |  0.78
Other   |            | 0.1181     |            |       |  0.23

Nlocal:    9826 ave 9832 max 9820 min
Histogram: 1 0 0 0 0 0 0 0 0 1
Nghost:    14251.5 ave 14275 max 14228 min
Histogram: 1 0 0 0 0 0 0 0 0 1
Neighs:    920896 ave 932048 max 909744 min
Histogram: 1 0 0 0 0 0 0 0 0 1

Total # of neighbors = 1841792
Ave neighs/atom = 93.7203
Neighbor list builds = 495
Dangerous builds not checked
Setting up Verlet run ...
  Unit style    : metal
  Current step  : 490495
  Time step     : 0.001
Per MPI rank memory allocation (min/avg/max) = 11.7 | 11.7 | 11.7 Mbytes
Step Temp Press TotEng PotEng Enthalpy 
  490495    175.40136    571.95251   -67652.217   -68097.753    -67568.29 
  500000      150.377    605.40564   -67789.413   -68171.385   -67700.705 
Loop time of 995.098 on 2 procs for 9505 steps with 19652 atoms

Performance: 0.825 ns/day, 29.081 hours/ns, 9.552 timesteps/s
99.0% CPU use with 2 MPI tasks x no OpenMP threads

MPI task timing breakdown:
Section |  min time  |  avg time  |  max time  |%varavg| %total
---------------------------------------------------------------
Pair    | 556.49     | 560.81     | 565.13     |  18.2 | 56.36
Neigh   | 395.23     | 395.3      | 395.36     |   0.3 | 39.72
Comm    | 24.32      | 28.615     | 32.909     |  80.3 |  2.88
Output  | 0.038083   | 0.038139   | 0.038195   |   0.0 |  0.00
Modify  | 8.0393     | 8.0665     | 8.0937     |   1.0 |  0.81
Other   |            | 2.273      |            |       |  0.23

Nlocal:    9826 ave 9828 max 9824 min
Histogram: 1 0 0 0 0 0 0 0 0 1
Nghost:    14269.5 ave 14278 max 14261 min
Histogram: 1 0 0 0 0 0 0 0 0 1
Neighs:    922266 ave 932575 max 911957 min
Histogram: 1 0 0 0 0 0 0 0 0 1

Total # of neighbors = 1844532
Ave neighs/atom = 93.8598
Neighbor list builds = 9505
Dangerous builds not checked
Setting up Verlet run ...
  Unit style    : metal
  Current step  : 500000
  Time step     : 0.001
Per MPI rank memory allocation (min/avg/max) = 11.7 | 11.7 | 11.7 Mbytes
Step Temp Press TotEng PotEng Enthalpy 
  500000      150.377    605.40564   -67789.413   -68171.385   -67700.705 
  500495    127.08981    412.64262   -67905.729   -68228.549   -67845.321 
Loop time of 52.8023 on 2 procs for 495 steps with 19652 atoms

Performance: 0.810 ns/day, 29.631 hours/ns, 9.375 timesteps/s
96.9% CPU use with 2 MPI tasks x no OpenMP threads

MPI task timing breakdown:
Section |  min time  |  avg time  |  max time  |%varavg| %total
---------------------------------------------------------------
Pair    | 29.23      | 29.284     | 29.339     |   1.0 | 55.46
Neigh   | 20.298     | 20.578     | 20.859     |   6.2 | 38.97
Comm    | 2.059      | 2.3914     | 2.7239     |  21.5 |  4.53
Output  | 9.8944e-05 | 0.00014853 | 0.00019813 |   0.0 |  0.00
Modify  | 0.419      | 0.42048    | 0.42196    |   0.2 |  0.80
Other   |            | 0.1279     |            |       |  0.24

Nlocal:    9826 ave 9829 max 9823 min
Histogram: 1 0 0 0 0 0 0 0 0 1
Nghost:    14270.5 ave 14293 max 14248 min
Histogram: 1 0 0 0 0 0 0 0 0 1
Neighs:    923338 ave 934229 max 912448 min
Histogram: 1 0 0 0 0 0 0 0 0 1

Total # of neighbors = 1846677
Ave neighs/atom = 93.9689
Neighbor list builds = 495
Dangerous builds not checked
Setting up Verlet run ...
  Unit style    : metal
  Current step  : 500495
  Time step     : 0.001
Per MPI rank memory allocation (min/avg/max) = 11.7 | 11.7 | 11.7 Mbytes
Step Temp Press TotEng PotEng Enthalpy 
  500495    127.08981    412.64262   -67905.729   -68228.549   -67845.321 
  510000    99.892952    389.56444   -68046.068   -68299.805    -67989.12 
Loop time of 1022.39 on 2 procs for 9505 steps with 19652 atoms

Performance: 0.803 ns/day, 29.879 hours/ns, 9.297 timesteps/s
98.6% CPU use with 2 MPI tasks x no OpenMP threads

MPI task timing breakdown:
Section |  min time  |  avg time  |  max time  |%varavg| %total
---------------------------------------------------------------
Pair    | 572.1      | 577.95     | 583.81     |  24.4 | 56.53
Neigh   | 398.24     | 398.95     | 399.67     |   3.6 | 39.02
Comm    | 29.716     | 34.876     | 40.036     |  87.4 |  3.41
Output  | 0.038647   | 0.038684   | 0.038722   |   0.0 |  0.00
Modify  | 8.2286     | 8.2361     | 8.2436     |   0.3 |  0.81
Other   |            | 2.331      |            |       |  0.23

Nlocal:    9826 ave 9826 max 9826 min
Histogram: 2 0 0 0 0 0 0 0 0 0
Nghost:    14267 ave 14281 max 14253 min
Histogram: 1 0 0 0 0 0 0 0 0 1
Neighs:    924336 ave 935055 max 913618 min
Histogram: 1 0 0 0 0 0 0 0 0 1

Total # of neighbors = 1848673
Ave neighs/atom = 94.0705
Neighbor list builds = 9505
Dangerous builds not checked
Total wall time: 16:30:08
