LAMMPS (12 Dec 2018)
Lattice spacing in x,y,z = 4 4 4
Created orthogonal box = (0 0 0) to (68 68 68)
  1 by 1 by 1 MPI processor grid
Created 19652 atoms
  Time spent = 0.0029521 secs
Setting atom values ...
  417 settings made for type/fraction
Neighbor list info ...
  update every 1 steps, delay 0 steps, check no
  max neighbors/atom: 2000, page size: 100000
  master list distance cutoff = 8.5
  ghost atom cutoff = 8.5
  binsize = 4.25, bins = 16 16 16
  1 neighbor lists, perpetual/occasional/extra = 1 0 0
  (1) pair eam/alloy, perpetual
      attributes: half, newton on
      pair build: half/bin/atomonly/newton
      stencil: half/bin/3d/newton
      bin: standard
Setting up Verlet run ...
  Unit style    : metal
  Current step  : 0
  Time step     : 0.001
Per MPI rank memory allocation (min/avg/max) = 18.19 | 18.19 | 18.19 Mbytes
Step Temp Press TotEng PotEng Enthalpy 
       0          300   -286714.51   -75305.463    -76067.49   -131574.06 
    1000    1244.1893   -53109.456     -75305.7   -78466.054   -85728.592 
Loop time of 166.896 on 1 procs for 1000 steps with 19652 atoms

Performance: 0.518 ns/day, 46.360 hours/ns, 5.992 timesteps/s
99.2% CPU use with 1 MPI tasks x no OpenMP threads

MPI task timing breakdown:
Section |  min time  |  avg time  |  max time  |%varavg| %total
---------------------------------------------------------------
Pair    | 93.354     | 93.354     | 93.354     |   0.0 | 55.94
Neigh   | 71.536     | 71.536     | 71.536     |   0.0 | 42.86
Comm    | 1.1838     | 1.1838     | 1.1838     |   0.0 |  0.71
Output  | 0.00030398 | 0.00030398 | 0.00030398 |   0.0 |  0.00
Modify  | 0.42592    | 0.42592    | 0.42592    |   0.0 |  0.26
Other   |            | 0.3969     |            |       |  0.24

Nlocal:    19652 ave 19652 max 19652 min
Histogram: 1 0 0 0 0 0 0 0 0 0
Nghost:    19097 ave 19097 max 19097 min
Histogram: 1 0 0 0 0 0 0 0 0 0
Neighs:    1.61507e+06 ave 1.61507e+06 max 1.61507e+06 min
Histogram: 1 0 0 0 0 0 0 0 0 0

Total # of neighbors = 1615069
Ave neighs/atom = 82.1834
Neighbor list builds = 1000
Dangerous builds not checked
Setting up Verlet run ...
  Unit style    : metal
  Current step  : 1000
  Time step     : 0.001
Per MPI rank memory allocation (min/avg/max) = 18.19 | 18.19 | 18.19 Mbytes
Step Temp Press TotEng PotEng Enthalpy 
    1000    1244.1893   -53109.456     -75305.7   -78466.054   -85728.592 
    2000    391.57206   -2976.1234   -83584.712   -84579.341   -84038.477 
Loop time of 199.83 on 1 procs for 1000 steps with 19652 atoms

Performance: 0.432 ns/day, 55.508 hours/ns, 5.004 timesteps/s
99.7% CPU use with 1 MPI tasks x no OpenMP threads

MPI task timing breakdown:
Section |  min time  |  avg time  |  max time  |%varavg| %total
---------------------------------------------------------------
Pair    | 110.7      | 110.7      | 110.7      |   0.0 | 55.40
Neigh   | 86.174     | 86.174     | 86.174     |   0.0 | 43.12
Comm    | 1.1205     | 1.1205     | 1.1205     |   0.0 |  0.56
Output  | 0.00018096 | 0.00018096 | 0.00018096 |   0.0 |  0.00
Modify  | 1.4494     | 1.4494     | 1.4494     |   0.0 |  0.73
Other   |            | 0.3875     |            |       |  0.19

Nlocal:    19652 ave 19652 max 19652 min
Histogram: 1 0 0 0 0 0 0 0 0 0
Nghost:    21097 ave 21097 max 21097 min
Histogram: 1 0 0 0 0 0 0 0 0 0
Neighs:    2.05349e+06 ave 2.05349e+06 max 2.05349e+06 min
Histogram: 1 0 0 0 0 0 0 0 0 0

Total # of neighbors = 2053492
Ave neighs/atom = 104.493
Neighbor list builds = 1000
Dangerous builds not checked
Setting up Verlet run ...
  Unit style    : metal
  Current step  : 2000
  Time step     : 0.001
Per MPI rank memory allocation (min/avg/max) = 19.35 | 19.35 | 19.35 Mbytes
Step Temp Press TotEng PotEng Enthalpy 
    2000    391.57206   -2976.1234   -83584.712   -84579.341   -84038.477 
    6667    1528.4672    3208.7698   -78309.832   -82192.278   -77824.561 
   10000     2448.071    4188.0121   -72294.742   -78513.065   -71615.648 
Loop time of 1684 on 1 procs for 8000 steps with 19652 atoms

Performance: 0.410 ns/day, 58.472 hours/ns, 4.751 timesteps/s
99.6% CPU use with 1 MPI tasks x no OpenMP threads

MPI task timing breakdown:
Section |  min time  |  avg time  |  max time  |%varavg| %total
---------------------------------------------------------------
Pair    | 932.5      | 932.5      | 932.5      |   0.0 | 55.37
Neigh   | 727.4      | 727.4      | 727.4      |   0.0 | 43.20
Comm    | 9.2088     | 9.2088     | 9.2088     |   0.0 |  0.55
Output  | 0.085496   | 0.085496   | 0.085496   |   0.0 |  0.01
Modify  | 11.605     | 11.605     | 11.605     |   0.0 |  0.69
Other   |            | 3.191      |            |       |  0.19

Nlocal:    19652 ave 19652 max 19652 min
Histogram: 1 0 0 0 0 0 0 0 0 0
Nghost:    20225 ave 20225 max 20225 min
Histogram: 1 0 0 0 0 0 0 0 0 0
Neighs:    1.8985e+06 ave 1.8985e+06 max 1.8985e+06 min
Histogram: 1 0 0 0 0 0 0 0 0 0

Total # of neighbors = 1898504
Ave neighs/atom = 96.6061
Neighbor list builds = 8000
Dangerous builds not checked
Setting up Verlet run ...
  Unit style    : metal
  Current step  : 10000
  Time step     : 0.001
Per MPI rank memory allocation (min/avg/max) = 19.73 | 19.73 | 19.73 Mbytes
Step Temp Press TotEng PotEng Enthalpy 
   10000     2448.071    4188.0121   -72294.742   -78513.065   -71615.648 
   13334    2473.1636    1555.9654   -72129.837   -78411.898    -71876.61 
   20001    2435.9543   -3762.1619   -72259.087   -78446.633   -72872.864 
   26668    2440.3821   -588.22212   -72174.356   -78373.149   -72270.266 
   33335    2487.1977    4264.8255     -72111.9   -78429.609   -71418.795 
   40000    2456.7672   -78.422084   -72166.759   -78407.171   -72179.542 
Loop time of 6066.54 on 1 procs for 30000 steps with 19652 atoms

Performance: 0.427 ns/day, 56.172 hours/ns, 4.945 timesteps/s
98.9% CPU use with 1 MPI tasks x no OpenMP threads

MPI task timing breakdown:
Section |  min time  |  avg time  |  max time  |%varavg| %total
---------------------------------------------------------------
Pair    | 3465.9     | 3465.9     | 3465.9     |   0.0 | 57.13
Neigh   | 2509       | 2509       | 2509       |   0.0 | 41.36
Comm    | 34.996     | 34.996     | 34.996     |   0.0 |  0.58
Output  | 0.71096    | 0.71096    | 0.71096    |   0.0 |  0.01
Modify  | 43.893     | 43.893     | 43.893     |   0.0 |  0.72
Other   |            | 12.06      |            |       |  0.20

Nlocal:    19652 ave 19652 max 19652 min
Histogram: 1 0 0 0 0 0 0 0 0 0
Nghost:    20256 ave 20256 max 20256 min
Histogram: 1 0 0 0 0 0 0 0 0 0
Neighs:    1.88847e+06 ave 1.88847e+06 max 1.88847e+06 min
Histogram: 1 0 0 0 0 0 0 0 0 0

Total # of neighbors = 1888466
Ave neighs/atom = 96.0954
Neighbor list builds = 30000
Dangerous builds not checked
Setting up Verlet run ...
  Unit style    : metal
  Current step  : 40000
  Time step     : 0.001
Per MPI rank memory allocation (min/avg/max) = 19.73 | 19.73 | 19.73 Mbytes
Step Temp Press TotEng PotEng Enthalpy 
   40000    2456.7672   -78.422084   -72166.759   -78407.171   -72179.542 
   40002    2457.5422   -102.29789   -72166.767   -78409.148   -72183.441 
   40495    2421.0585    1925.0246    -72407.41    -78557.12   -72094.816 
Loop time of 105.785 on 1 procs for 495 steps with 19652 atoms

Performance: 0.404 ns/day, 59.363 hours/ns, 4.679 timesteps/s
99.8% CPU use with 1 MPI tasks x no OpenMP threads

MPI task timing breakdown:
Section |  min time  |  avg time  |  max time  |%varavg| %total
---------------------------------------------------------------
Pair    | 61.091     | 61.091     | 61.091     |   0.0 | 57.75
Neigh   | 42.949     | 42.949     | 42.949     |   0.0 | 40.60
Comm    | 0.66049    | 0.66049    | 0.66049    |   0.0 |  0.62
Output  | 0.064677   | 0.064677   | 0.064677   |   0.0 |  0.06
Modify  | 0.7921     | 0.7921     | 0.7921     |   0.0 |  0.75
Other   |            | 0.2272     |            |       |  0.21

Nlocal:    19652 ave 19652 max 19652 min
Histogram: 1 0 0 0 0 0 0 0 0 0
Nghost:    20272 ave 20272 max 20272 min
Histogram: 1 0 0 0 0 0 0 0 0 0
Neighs:    1.89575e+06 ave 1.89575e+06 max 1.89575e+06 min
Histogram: 1 0 0 0 0 0 0 0 0 0

Total # of neighbors = 1895753
Ave neighs/atom = 96.4662
Neighbor list builds = 495
Dangerous builds not checked
Setting up Verlet run ...
  Unit style    : metal
  Current step  : 40495
  Time step     : 0.001
Per MPI rank memory allocation (min/avg/max) = 19.73 | 19.73 | 19.73 Mbytes
Step Temp Press TotEng PotEng Enthalpy 
   40495    2421.0585    1925.0246    -72407.41    -78557.12   -72094.816 
   46667    2422.1411   -358.01795   -72412.822   -78565.281    -72471.04 
Loop time of 1211.35 on 1 procs for 6172 steps with 19652 atoms

Performance: 0.440 ns/day, 54.518 hours/ns, 5.095 timesteps/s
99.9% CPU use with 1 MPI tasks x no OpenMP threads

MPI task timing breakdown:
Section |  min time  |  avg time  |  max time  |%varavg| %total
---------------------------------------------------------------
Pair    | 693.47     | 693.47     | 693.47     |   0.0 | 57.25
Neigh   | 499.51     | 499.51     | 499.51     |   0.0 | 41.24
Comm    | 7.1628     | 7.1628     | 7.1628     |   0.0 |  0.59
Output  | 0.00020599 | 0.00020599 | 0.00020599 |   0.0 |  0.00
Modify  | 8.7554     | 8.7554     | 8.7554     |   0.0 |  0.72
Other   |            | 2.447      |            |       |  0.20

Nlocal:    19652 ave 19652 max 19652 min
Histogram: 1 0 0 0 0 0 0 0 0 0
Nghost:    20222 ave 20222 max 20222 min
Histogram: 1 0 0 0 0 0 0 0 0 0
Neighs:    1.89291e+06 ave 1.89291e+06 max 1.89291e+06 min
Histogram: 1 0 0 0 0 0 0 0 0 0

Total # of neighbors = 1892909
Ave neighs/atom = 96.3214
Neighbor list builds = 6172
Dangerous builds not checked
Setting up Verlet run ...
  Unit style    : metal
  Current step  : 46667
  Time step     : 0.001
Per MPI rank memory allocation (min/avg/max) = 19.73 | 19.73 | 19.73 Mbytes
Step Temp Press TotEng PotEng Enthalpy 
   46667    2422.1411   -358.01795   -72412.822   -78565.281    -72471.04 
   46669     2420.497   -289.35884   -72412.841   -78561.124   -72459.894 
   47162    2362.1565    18.389801   -72709.669   -78709.762    -72706.69 
Loop time of 95.7661 on 1 procs for 495 steps with 19652 atoms

Performance: 0.447 ns/day, 53.741 hours/ns, 5.169 timesteps/s
99.8% CPU use with 1 MPI tasks x no OpenMP threads

MPI task timing breakdown:
Section |  min time  |  avg time  |  max time  |%varavg| %total
---------------------------------------------------------------
Pair    | 54.848     | 54.848     | 54.848     |   0.0 | 57.27
Neigh   | 39.337     | 39.337     | 39.337     |   0.0 | 41.08
Comm    | 0.58146    | 0.58146    | 0.58146    |   0.0 |  0.61
Output  | 0.068197   | 0.068197   | 0.068197   |   0.0 |  0.07
Modify  | 0.72657    | 0.72657    | 0.72657    |   0.0 |  0.76
Other   |            | 0.2043     |            |       |  0.21

Nlocal:    19652 ave 19652 max 19652 min
Histogram: 1 0 0 0 0 0 0 0 0 0
Nghost:    20295 ave 20295 max 20295 min
Histogram: 1 0 0 0 0 0 0 0 0 0
Neighs:    1.90008e+06 ave 1.90008e+06 max 1.90008e+06 min
Histogram: 1 0 0 0 0 0 0 0 0 0

Total # of neighbors = 1900085
Ave neighs/atom = 96.6866
Neighbor list builds = 495
Dangerous builds not checked
Setting up Verlet run ...
  Unit style    : metal
  Current step  : 47162
  Time step     : 0.001
Per MPI rank memory allocation (min/avg/max) = 19.73 | 19.73 | 19.73 Mbytes
Step Temp Press TotEng PotEng Enthalpy 
   47162    2362.1565    18.389801   -72709.669   -78709.762    -72706.69 
   53334    2357.4753    1628.4965   -72766.259   -78754.461   -72503.084 
Loop time of 1305.61 on 1 procs for 6172 steps with 19652 atoms

Performance: 0.408 ns/day, 58.760 hours/ns, 4.727 timesteps/s
99.9% CPU use with 1 MPI tasks x no OpenMP threads

MPI task timing breakdown:
Section |  min time  |  avg time  |  max time  |%varavg| %total
---------------------------------------------------------------
Pair    | 739.87     | 739.87     | 739.87     |   0.0 | 56.67
Neigh   | 546.17     | 546.17     | 546.17     |   0.0 | 41.83
Comm    | 7.6068     | 7.6068     | 7.6068     |   0.0 |  0.58
Output  | 0.00020814 | 0.00020814 | 0.00020814 |   0.0 |  0.00
Modify  | 9.3607     | 9.3607     | 9.3607     |   0.0 |  0.72
Other   |            | 2.597      |            |       |  0.20

Nlocal:    19652 ave 19652 max 19652 min
Histogram: 1 0 0 0 0 0 0 0 0 0
Nghost:    20313 ave 20313 max 20313 min
Histogram: 1 0 0 0 0 0 0 0 0 0
Neighs:    1.9046e+06 ave 1.9046e+06 max 1.9046e+06 min
Histogram: 1 0 0 0 0 0 0 0 0 0

Total # of neighbors = 1904596
Ave neighs/atom = 96.9161
Neighbor list builds = 6172
Dangerous builds not checked
Setting up Verlet run ...
  Unit style    : metal
  Current step  : 53334
  Time step     : 0.001
Per MPI rank memory allocation (min/avg/max) = 19.73 | 19.73 | 19.73 Mbytes
Step Temp Press TotEng PotEng Enthalpy 
   53334    2357.4753    1628.4965   -72766.259   -78754.461   -72503.084 
   53336    2357.5286     1620.954   -72766.268   -78754.605   -72504.311 
   53829    2345.8252    1910.3864   -72992.514   -78951.124    -72684.71 
Loop time of 106.681 on 1 procs for 495 steps with 19652 atoms

Performance: 0.401 ns/day, 59.866 hours/ns, 4.640 timesteps/s
100.0% CPU use with 1 MPI tasks x no OpenMP threads

MPI task timing breakdown:
Section |  min time  |  avg time  |  max time  |%varavg| %total
---------------------------------------------------------------
Pair    | 59.736     | 59.736     | 59.736     |   0.0 | 55.99
Neigh   | 45.279     | 45.279     | 45.279     |   0.0 | 42.44
Comm    | 0.61876    | 0.61876    | 0.61876    |   0.0 |  0.58
Output  | 0.067093   | 0.067093   | 0.067093   |   0.0 |  0.06
Modify  | 0.77032    | 0.77032    | 0.77032    |   0.0 |  0.72
Other   |            | 0.2111     |            |       |  0.20

Nlocal:    19652 ave 19652 max 19652 min
Histogram: 1 0 0 0 0 0 0 0 0 0
Nghost:    20257 ave 20257 max 20257 min
Histogram: 1 0 0 0 0 0 0 0 0 0
Neighs:    1.91037e+06 ave 1.91037e+06 max 1.91037e+06 min
Histogram: 1 0 0 0 0 0 0 0 0 0

Total # of neighbors = 1910370
Ave neighs/atom = 97.21
Neighbor list builds = 495
Dangerous builds not checked
Setting up Verlet run ...
  Unit style    : metal
  Current step  : 53829
  Time step     : 0.001
Per MPI rank memory allocation (min/avg/max) = 19.73 | 19.73 | 19.73 Mbytes
Step Temp Press TotEng PotEng Enthalpy 
   53829    2345.8252    1910.3864   -72992.514   -78951.124    -72684.71 
   60001    2286.2818    1756.3117   -73138.173   -78945.538     -72855.4 
Loop time of 1272.86 on 1 procs for 6172 steps with 19652 atoms

Performance: 0.419 ns/day, 57.287 hours/ns, 4.849 timesteps/s
100.0% CPU use with 1 MPI tasks x no OpenMP threads

MPI task timing breakdown:
Section |  min time  |  avg time  |  max time  |%varavg| %total
---------------------------------------------------------------
Pair    | 690.18     | 690.18     | 690.18     |   0.0 | 54.22
Neigh   | 564.38     | 564.38     | 564.38     |   0.0 | 44.34
Comm    | 7.0692     | 7.0692     | 7.0692     |   0.0 |  0.56
Output  | 0.00016117 | 0.00016117 | 0.00016117 |   0.0 |  0.00
Modify  | 8.7997     | 8.7997     | 8.7997     |   0.0 |  0.69
Other   |            | 2.425      |            |       |  0.19

Nlocal:    19652 ave 19652 max 19652 min
Histogram: 1 0 0 0 0 0 0 0 0 0
Nghost:    20284 ave 20284 max 20284 min
Histogram: 1 0 0 0 0 0 0 0 0 0
Neighs:    1.91146e+06 ave 1.91146e+06 max 1.91146e+06 min
Histogram: 1 0 0 0 0 0 0 0 0 0

Total # of neighbors = 1911464
Ave neighs/atom = 97.2656
Neighbor list builds = 6172
Dangerous builds not checked
Setting up Verlet run ...
  Unit style    : metal
  Current step  : 60001
  Time step     : 0.001
Per MPI rank memory allocation (min/avg/max) = 19.73 | 19.73 | 19.73 Mbytes
Step Temp Press TotEng PotEng Enthalpy 
   60001    2286.2818    1756.3117   -73138.173   -78945.538     -72855.4 
   60003    2285.4602    1762.9798   -73138.155   -78943.432   -72854.308 
   60496    2265.9221    1793.9666   -73341.973   -79097.622   -73053.935 
Loop time of 93.1888 on 1 procs for 495 steps with 19652 atoms

Performance: 0.459 ns/day, 52.294 hours/ns, 5.312 timesteps/s
98.8% CPU use with 1 MPI tasks x no OpenMP threads

MPI task timing breakdown:
Section |  min time  |  avg time  |  max time  |%varavg| %total
---------------------------------------------------------------
Pair    | 49.286     | 49.286     | 49.286     |   0.0 | 52.89
Neigh   | 41.539     | 41.539     | 41.539     |   0.0 | 44.58
Comm    | 0.50027    | 0.50027    | 0.50027    |   0.0 |  0.54
Output  | 1.0473     | 1.0473     | 1.0473     |   0.0 |  1.12
Modify  | 0.64233    | 0.64233    | 0.64233    |   0.0 |  0.69
Other   |            | 0.1739     |            |       |  0.19

Nlocal:    19652 ave 19652 max 19652 min
Histogram: 1 0 0 0 0 0 0 0 0 0
Nghost:    20284 ave 20284 max 20284 min
Histogram: 1 0 0 0 0 0 0 0 0 0
Neighs:    1.91697e+06 ave 1.91697e+06 max 1.91697e+06 min
Histogram: 1 0 0 0 0 0 0 0 0 0

Total # of neighbors = 1916968
Ave neighs/atom = 97.5457
Neighbor list builds = 495
Dangerous builds not checked
Setting up Verlet run ...
  Unit style    : metal
  Current step  : 60496
  Time step     : 0.001
Per MPI rank memory allocation (min/avg/max) = 19.73 | 19.73 | 19.73 Mbytes
Step Temp Press TotEng PotEng Enthalpy 
   60496    2265.9221    1793.9666   -73341.973   -79097.622   -73053.935 
   66668    2274.3779   -215.93339   -73398.346   -79175.474   -73433.018 
Loop time of 1063.93 on 1 procs for 6172 steps with 19652 atoms

Performance: 0.501 ns/day, 47.883 hours/ns, 5.801 timesteps/s
100.0% CPU use with 1 MPI tasks x no OpenMP threads

MPI task timing breakdown:
Section |  min time  |  avg time  |  max time  |%varavg| %total
---------------------------------------------------------------
Pair    | 566.58     | 566.58     | 566.58     |   0.0 | 53.25
Neigh   | 482.33     | 482.33     | 482.33     |   0.0 | 45.34
Comm    | 5.8047     | 5.8047     | 5.8047     |   0.0 |  0.55
Output  | 0.00017595 | 0.00017595 | 0.00017595 |   0.0 |  0.00
Modify  | 7.2426     | 7.2426     | 7.2426     |   0.0 |  0.68
Other   |            | 1.967      |            |       |  0.18

Nlocal:    19652 ave 19652 max 19652 min
Histogram: 1 0 0 0 0 0 0 0 0 0
Nghost:    20353 ave 20353 max 20353 min
Histogram: 1 0 0 0 0 0 0 0 0 0
Neighs:    1.91683e+06 ave 1.91683e+06 max 1.91683e+06 min
Histogram: 1 0 0 0 0 0 0 0 0 0

Total # of neighbors = 1916834
Ave neighs/atom = 97.5389
Neighbor list builds = 6172
Dangerous builds not checked
Setting up Verlet run ...
  Unit style    : metal
  Current step  : 66668
  Time step     : 0.001
Per MPI rank memory allocation (min/avg/max) = 19.73 | 19.73 | 19.73 Mbytes
Step Temp Press TotEng PotEng Enthalpy 
   66668    2274.3779   -215.93339   -73398.346   -79175.474   -73433.018 
   66670    2274.9411   -248.95874   -73398.371   -79176.929   -73438.346 
   67163    2203.6742    508.21785   -73618.523   -79216.057   -73537.049 
Loop time of 79.4356 on 1 procs for 495 steps with 19652 atoms

Performance: 0.538 ns/day, 44.577 hours/ns, 6.231 timesteps/s
100.0% CPU use with 1 MPI tasks x no OpenMP threads

MPI task timing breakdown:
Section |  min time  |  avg time  |  max time  |%varavg| %total
---------------------------------------------------------------
Pair    | 42.281     | 42.281     | 42.281     |   0.0 | 53.23
Neigh   | 35.969     | 35.969     | 35.969     |   0.0 | 45.28
Comm    | 0.43742    | 0.43742    | 0.43742    |   0.0 |  0.55
Output  | 0.046467   | 0.046467   | 0.046467   |   0.0 |  0.06
Modify  | 0.55126    | 0.55126    | 0.55126    |   0.0 |  0.69
Other   |            | 0.1507     |            |       |  0.19

Nlocal:    19652 ave 19652 max 19652 min
Histogram: 1 0 0 0 0 0 0 0 0 0
Nghost:    20344 ave 20344 max 20344 min
Histogram: 1 0 0 0 0 0 0 0 0 0
Neighs:    1.91922e+06 ave 1.91922e+06 max 1.91922e+06 min
Histogram: 1 0 0 0 0 0 0 0 0 0

Total # of neighbors = 1919219
Ave neighs/atom = 97.6602
Neighbor list builds = 495
Dangerous builds not checked
Setting up Verlet run ...
  Unit style    : metal
  Current step  : 67163
  Time step     : 0.001
Per MPI rank memory allocation (min/avg/max) = 19.73 | 19.73 | 19.73 Mbytes
Step Temp Press TotEng PotEng Enthalpy 
   67163    2203.6742    508.21785   -73618.523   -79216.057   -73537.049 
   73335    2220.5212    165.98484   -73693.526   -79333.852   -73666.967 
Loop time of 1075.3 on 1 procs for 6172 steps with 19652 atoms

Performance: 0.496 ns/day, 48.395 hours/ns, 5.740 timesteps/s
100.0% CPU use with 1 MPI tasks x no OpenMP threads

MPI task timing breakdown:
Section |  min time  |  avg time  |  max time  |%varavg| %total
---------------------------------------------------------------
Pair    | 573.88     | 573.88     | 573.88     |   0.0 | 53.37
Neigh   | 486.21     | 486.21     | 486.21     |   0.0 | 45.22
Comm    | 5.8671     | 5.8671     | 5.8671     |   0.0 |  0.55
Output  | 0.00016618 | 0.00016618 | 0.00016618 |   0.0 |  0.00
Modify  | 7.342      | 7.342      | 7.342      |   0.0 |  0.68
Other   |            | 2          |            |       |  0.19

Nlocal:    19652 ave 19652 max 19652 min
Histogram: 1 0 0 0 0 0 0 0 0 0
Nghost:    20349 ave 20349 max 20349 min
Histogram: 1 0 0 0 0 0 0 0 0 0
Neighs:    1.92291e+06 ave 1.92291e+06 max 1.92291e+06 min
Histogram: 1 0 0 0 0 0 0 0 0 0

Total # of neighbors = 1922912
Ave neighs/atom = 97.8482
Neighbor list builds = 6172
Dangerous builds not checked
Setting up Verlet run ...
  Unit style    : metal
  Current step  : 73335
  Time step     : 0.001
Per MPI rank memory allocation (min/avg/max) = 19.73 | 19.73 | 19.73 Mbytes
Step Temp Press TotEng PotEng Enthalpy 
   73335    2220.5212    165.98484   -73693.526   -79333.852   -73666.967 
   73337    2221.1437    169.94134   -73693.551   -79335.458   -73666.358 
   73830    2159.6215    2528.9154    -73934.21   -79419.845   -73530.941 
Loop time of 89.3123 on 1 procs for 495 steps with 19652 atoms

Performance: 0.479 ns/day, 50.119 hours/ns, 5.542 timesteps/s
98.7% CPU use with 1 MPI tasks x no OpenMP threads

MPI task timing breakdown:
Section |  min time  |  avg time  |  max time  |%varavg| %total
---------------------------------------------------------------
Pair    | 47.123     | 47.123     | 47.123     |   0.0 | 52.76
Neigh   | 39.784     | 39.784     | 39.784     |   0.0 | 44.54
Comm    | 0.47529    | 0.47529    | 0.47529    |   0.0 |  0.53
Output  | 1.1646     | 1.1646     | 1.1646     |   0.0 |  1.30
Modify  | 0.60321    | 0.60321    | 0.60321    |   0.0 |  0.68
Other   |            | 0.1617     |            |       |  0.18

Nlocal:    19652 ave 19652 max 19652 min
Histogram: 1 0 0 0 0 0 0 0 0 0
Nghost:    20345 ave 20345 max 20345 min
Histogram: 1 0 0 0 0 0 0 0 0 0
Neighs:    1.93037e+06 ave 1.93037e+06 max 1.93037e+06 min
Histogram: 1 0 0 0 0 0 0 0 0 0

Total # of neighbors = 1930368
Ave neighs/atom = 98.2276
Neighbor list builds = 495
Dangerous builds not checked
Setting up Verlet run ...
  Unit style    : metal
  Current step  : 73830
  Time step     : 0.001
Per MPI rank memory allocation (min/avg/max) = 19.73 | 19.73 | 19.73 Mbytes
Step Temp Press TotEng PotEng Enthalpy 
   73830    2159.6215    2528.9154    -73934.21   -79419.845   -73530.941 
   80002    2148.2173   -12.774854   -74019.744   -79476.412   -74021.782 
Loop time of 998.827 on 1 procs for 6172 steps with 19652 atoms

Performance: 0.534 ns/day, 44.953 hours/ns, 6.179 timesteps/s
100.0% CPU use with 1 MPI tasks x no OpenMP threads

MPI task timing breakdown:
Section |  min time  |  avg time  |  max time  |%varavg| %total
---------------------------------------------------------------
Pair    | 532.29     | 532.29     | 532.29     |   0.0 | 53.29
Neigh   | 452.52     | 452.52     | 452.52     |   0.0 | 45.31
Comm    | 5.4608     | 5.4608     | 5.4608     |   0.0 |  0.55
Output  | 0.00015903 | 0.00015903 | 0.00015903 |   0.0 |  0.00
Modify  | 6.705      | 6.705      | 6.705      |   0.0 |  0.67
Other   |            | 1.847      |            |       |  0.18

Nlocal:    19652 ave 19652 max 19652 min
Histogram: 1 0 0 0 0 0 0 0 0 0
Nghost:    20371 ave 20371 max 20371 min
Histogram: 1 0 0 0 0 0 0 0 0 0
Neighs:    1.9296e+06 ave 1.9296e+06 max 1.9296e+06 min
Histogram: 1 0 0 0 0 0 0 0 0 0

Total # of neighbors = 1929595
Ave neighs/atom = 98.1882
Neighbor list builds = 6172
Dangerous builds not checked
Setting up Verlet run ...
  Unit style    : metal
  Current step  : 80002
  Time step     : 0.001
Per MPI rank memory allocation (min/avg/max) = 19.73 | 19.73 | 19.73 Mbytes
Step Temp Press TotEng PotEng Enthalpy 
   80002    2148.2173   -12.774854   -74019.744   -79476.412   -74021.782 
   80004    2146.8619    16.240552   -74019.739   -79472.964   -74017.149 
   80497    2105.4525    1147.3263   -74227.106   -79575.147    -74044.47 
Loop time of 85.6981 on 1 procs for 495 steps with 19652 atoms

Performance: 0.499 ns/day, 48.091 hours/ns, 5.776 timesteps/s
99.7% CPU use with 1 MPI tasks x no OpenMP threads

MPI task timing breakdown:
Section |  min time  |  avg time  |  max time  |%varavg| %total
---------------------------------------------------------------
Pair    | 45.531     | 45.531     | 45.531     |   0.0 | 53.13
Neigh   | 38.694     | 38.694     | 38.694     |   0.0 | 45.15
Comm    | 0.4647     | 0.4647     | 0.4647     |   0.0 |  0.54
Output  | 0.25849    | 0.25849    | 0.25849    |   0.0 |  0.30
Modify  | 0.5895     | 0.5895     | 0.5895     |   0.0 |  0.69
Other   |            | 0.1598     |            |       |  0.19

Nlocal:    19652 ave 19652 max 19652 min
Histogram: 1 0 0 0 0 0 0 0 0 0
Nghost:    20419 ave 20419 max 20419 min
Histogram: 1 0 0 0 0 0 0 0 0 0
Neighs:    1.93311e+06 ave 1.93311e+06 max 1.93311e+06 min
Histogram: 1 0 0 0 0 0 0 0 0 0

Total # of neighbors = 1933111
Ave neighs/atom = 98.3671
Neighbor list builds = 495
Dangerous builds not checked
Setting up Verlet run ...
  Unit style    : metal
  Current step  : 80497
  Time step     : 0.001
Per MPI rank memory allocation (min/avg/max) = 19.73 | 19.73 | 19.73 Mbytes
Step Temp Press TotEng PotEng Enthalpy 
   80497    2105.4525    1147.3263   -74227.106   -79575.147    -74044.47 
   86669    2092.5804    905.30789   -74370.852   -79686.197   -74227.065 
Loop time of 1019.33 on 1 procs for 6172 steps with 19652 atoms

Performance: 0.523 ns/day, 45.876 hours/ns, 6.055 timesteps/s
100.0% CPU use with 1 MPI tasks x no OpenMP threads

MPI task timing breakdown:
Section |  min time  |  avg time  |  max time  |%varavg| %total
---------------------------------------------------------------
Pair    | 543.1      | 543.1      | 543.1      |   0.0 | 53.28
Neigh   | 461.84     | 461.84     | 461.84     |   0.0 | 45.31
Comm    | 5.5767     | 5.5767     | 5.5767     |   0.0 |  0.55
Output  | 0.00016212 | 0.00016212 | 0.00016212 |   0.0 |  0.00
Modify  | 6.9101     | 6.9101     | 6.9101     |   0.0 |  0.68
Other   |            | 1.896      |            |       |  0.19

Nlocal:    19652 ave 19652 max 19652 min
Histogram: 1 0 0 0 0 0 0 0 0 0
Nghost:    20446 ave 20446 max 20446 min
Histogram: 1 0 0 0 0 0 0 0 0 0
Neighs:    1.93747e+06 ave 1.93747e+06 max 1.93747e+06 min
Histogram: 1 0 0 0 0 0 0 0 0 0

Total # of neighbors = 1937468
Ave neighs/atom = 98.5888
Neighbor list builds = 6172
Dangerous builds not checked
Setting up Verlet run ...
  Unit style    : metal
  Current step  : 86669
  Time step     : 0.001
Per MPI rank memory allocation (min/avg/max) = 19.73 | 19.73 | 19.73 Mbytes
Step Temp Press TotEng PotEng Enthalpy 
   86669    2092.5804    905.30789   -74370.852   -79686.197   -74227.065 
   86671    2093.0007    888.81631   -74370.846   -79687.259   -74229.679 
   87164     2072.356   -206.63026   -74542.937   -79806.909   -74575.696 
Loop time of 74.1846 on 1 procs for 495 steps with 19652 atoms

Performance: 0.577 ns/day, 41.630 hours/ns, 6.673 timesteps/s
100.0% CPU use with 1 MPI tasks x no OpenMP threads

MPI task timing breakdown:
Section |  min time  |  avg time  |  max time  |%varavg| %total
---------------------------------------------------------------
Pair    | 39.558     | 39.558     | 39.558     |   0.0 | 53.32
Neigh   | 33.517     | 33.517     | 33.517     |   0.0 | 45.18
Comm    | 0.41201    | 0.41201    | 0.41201    |   0.0 |  0.56
Output  | 0.040311   | 0.040311   | 0.040311   |   0.0 |  0.05
Modify  | 0.51183    | 0.51183    | 0.51183    |   0.0 |  0.69
Other   |            | 0.1454     |            |       |  0.20

Nlocal:    19652 ave 19652 max 19652 min
Histogram: 1 0 0 0 0 0 0 0 0 0
Nghost:    20371 ave 20371 max 20371 min
Histogram: 1 0 0 0 0 0 0 0 0 0
Neighs:    1.94116e+06 ave 1.94116e+06 max 1.94116e+06 min
Histogram: 1 0 0 0 0 0 0 0 0 0

Total # of neighbors = 1941156
Ave neighs/atom = 98.7765
Neighbor list builds = 495
Dangerous builds not checked
Setting up Verlet run ...
  Unit style    : metal
  Current step  : 87164
  Time step     : 0.001
Per MPI rank memory allocation (min/avg/max) = 19.73 | 19.73 | 19.73 Mbytes
Step Temp Press TotEng PotEng Enthalpy 
   87164     2072.356   -206.63026   -74542.937   -79806.909   -74575.696 
   93336    2042.8473   -15.265377   -74665.384   -79854.403   -74667.803 
Loop time of 1042.14 on 1 procs for 6172 steps with 19652 atoms

Performance: 0.512 ns/day, 46.903 hours/ns, 5.922 timesteps/s
100.0% CPU use with 1 MPI tasks x no OpenMP threads

MPI task timing breakdown:
Section |  min time  |  avg time  |  max time  |%varavg| %total
---------------------------------------------------------------
Pair    | 556.77     | 556.77     | 556.77     |   0.0 | 53.43
Neigh   | 470.7      | 470.7      | 470.7      |   0.0 | 45.17
Comm    | 5.6593     | 5.6593     | 5.6593     |   0.0 |  0.54
Output  | 0.00021911 | 0.00021911 | 0.00021911 |   0.0 |  0.00
Modify  | 7.0682     | 7.0682     | 7.0682     |   0.0 |  0.68
Other   |            | 1.936      |            |       |  0.19

Nlocal:    19652 ave 19652 max 19652 min
Histogram: 1 0 0 0 0 0 0 0 0 0
Nghost:    20441 ave 20441 max 20441 min
Histogram: 1 0 0 0 0 0 0 0 0 0
Neighs:    1.94268e+06 ave 1.94268e+06 max 1.94268e+06 min
Histogram: 1 0 0 0 0 0 0 0 0 0

Total # of neighbors = 1942677
Ave neighs/atom = 98.8539
Neighbor list builds = 6172
Dangerous builds not checked
Setting up Verlet run ...
  Unit style    : metal
  Current step  : 93336
  Time step     : 0.001
Per MPI rank memory allocation (min/avg/max) = 19.73 | 19.73 | 19.73 Mbytes
Step Temp Press TotEng PotEng Enthalpy 
   93336    2042.8473   -15.265377   -74665.384   -79854.403   -74667.803 
   93338     2039.851    141.44226   -74665.374   -79846.781   -74642.968 
   93831    2001.5098    100.94454   -74898.019   -79982.036    -74882.07 
Loop time of 79.3863 on 1 procs for 495 steps with 19652 atoms

Performance: 0.539 ns/day, 44.549 hours/ns, 6.235 timesteps/s
99.4% CPU use with 1 MPI tasks x no OpenMP threads

MPI task timing breakdown:
Section |  min time  |  avg time  |  max time  |%varavg| %total
---------------------------------------------------------------
Pair    | 42.066     | 42.066     | 42.066     |   0.0 | 52.99
Neigh   | 35.753     | 35.753     | 35.753     |   0.0 | 45.04
Comm    | 0.42784    | 0.42784    | 0.42784    |   0.0 |  0.54
Output  | 0.44874    | 0.44874    | 0.44874    |   0.0 |  0.57
Modify  | 0.54147    | 0.54147    | 0.54147    |   0.0 |  0.68
Other   |            | 0.1492     |            |       |  0.19

Nlocal:    19652 ave 19652 max 19652 min
Histogram: 1 0 0 0 0 0 0 0 0 0
Nghost:    20459 ave 20459 max 20459 min
Histogram: 1 0 0 0 0 0 0 0 0 0
Neighs:    1.94746e+06 ave 1.94746e+06 max 1.94746e+06 min
Histogram: 1 0 0 0 0 0 0 0 0 0

Total # of neighbors = 1947459
Ave neighs/atom = 99.0972
Neighbor list builds = 495
Dangerous builds not checked
Setting up Verlet run ...
  Unit style    : metal
  Current step  : 93831
  Time step     : 0.001
Per MPI rank memory allocation (min/avg/max) = 19.73 | 19.73 | 19.73 Mbytes
Step Temp Press TotEng PotEng Enthalpy 
   93831    2001.5098    100.94454   -74898.019   -79982.036    -74882.07 
  100003    1990.3648    2349.3263   -74931.837   -79987.545   -74561.267 
Loop time of 998.56 on 1 procs for 6172 steps with 19652 atoms

Performance: 0.534 ns/day, 44.941 hours/ns, 6.181 timesteps/s
100.0% CPU use with 1 MPI tasks x no OpenMP threads

MPI task timing breakdown:
Section |  min time  |  avg time  |  max time  |%varavg| %total
---------------------------------------------------------------
Pair    | 532.95     | 532.95     | 532.95     |   0.0 | 53.37
Neigh   | 451.65     | 451.65     | 451.65     |   0.0 | 45.23
Comm    | 5.4177     | 5.4177     | 5.4177     |   0.0 |  0.54
Output  | 0.000175   | 0.000175   | 0.000175   |   0.0 |  0.00
Modify  | 6.6887     | 6.6887     | 6.6887     |   0.0 |  0.67
Other   |            | 1.852      |            |       |  0.19

Nlocal:    19652 ave 19652 max 19652 min
Histogram: 1 0 0 0 0 0 0 0 0 0
Nghost:    20492 ave 20492 max 20492 min
Histogram: 1 0 0 0 0 0 0 0 0 0
Neighs:    1.95093e+06 ave 1.95093e+06 max 1.95093e+06 min
Histogram: 1 0 0 0 0 0 0 0 0 0

Total # of neighbors = 1950933
Ave neighs/atom = 99.274
Neighbor list builds = 6172
Dangerous builds not checked
Setting up Verlet run ...
  Unit style    : metal
  Current step  : 100003
  Time step     : 0.001
Per MPI rank memory allocation (min/avg/max) = 19.73 | 19.73 | 19.73 Mbytes
Step Temp Press TotEng PotEng Enthalpy 
  100003    1990.3648    2349.3263   -74931.837   -79987.545   -74561.267 
  100005     1990.593    2347.6001   -74931.828   -79988.116   -74561.531 
  100498    1971.5328    2616.0249   -75146.318   -80154.191   -74735.045 
Loop time of 79.4967 on 1 procs for 495 steps with 19652 atoms

Performance: 0.538 ns/day, 44.611 hours/ns, 6.227 timesteps/s
99.9% CPU use with 1 MPI tasks x no OpenMP threads

MPI task timing breakdown:
Section |  min time  |  avg time  |  max time  |%varavg| %total
---------------------------------------------------------------
Pair    | 42.373     | 42.373     | 42.373     |   0.0 | 53.30
Neigh   | 35.963     | 35.963     | 35.963     |   0.0 | 45.24
Comm    | 0.42784    | 0.42784    | 0.42784    |   0.0 |  0.54
Output  | 0.040431   | 0.040431   | 0.040431   |   0.0 |  0.05
Modify  | 0.54274    | 0.54274    | 0.54274    |   0.0 |  0.68
Other   |            | 0.1493     |            |       |  0.19

Nlocal:    19652 ave 19652 max 19652 min
Histogram: 1 0 0 0 0 0 0 0 0 0
Nghost:    20481 ave 20481 max 20481 min
Histogram: 1 0 0 0 0 0 0 0 0 0
Neighs:    1.95704e+06 ave 1.95704e+06 max 1.95704e+06 min
Histogram: 1 0 0 0 0 0 0 0 0 0

Total # of neighbors = 1957041
Ave neighs/atom = 99.5848
Neighbor list builds = 495
Dangerous builds not checked
Setting up Verlet run ...
  Unit style    : metal
  Current step  : 100498
  Time step     : 0.001
Per MPI rank memory allocation (min/avg/max) = 19.73 | 19.73 | 19.73 Mbytes
Step Temp Press TotEng PotEng Enthalpy 
  100498    1971.5328    2616.0249   -75146.318   -80154.191   -74735.045 
  106670    1949.9722    205.31681   -75206.236   -80159.343   -75173.913 
Loop time of 1024.12 on 1 procs for 6172 steps with 19652 atoms

Performance: 0.521 ns/day, 46.091 hours/ns, 6.027 timesteps/s
100.0% CPU use with 1 MPI tasks x no OpenMP threads

MPI task timing breakdown:
Section |  min time  |  avg time  |  max time  |%varavg| %total
---------------------------------------------------------------
Pair    | 548.03     | 548.03     | 548.03     |   0.0 | 53.51
Neigh   | 461.71     | 461.71     | 461.71     |   0.0 | 45.08
Comm    | 5.5641     | 5.5641     | 5.5641     |   0.0 |  0.54
Output  | 0.00017905 | 0.00017905 | 0.00017905 |   0.0 |  0.00
Modify  | 6.9134     | 6.9134     | 6.9134     |   0.0 |  0.68
Other   |            | 1.901      |            |       |  0.19

Nlocal:    19652 ave 19652 max 19652 min
Histogram: 1 0 0 0 0 0 0 0 0 0
Nghost:    20596 ave 20596 max 20596 min
Histogram: 1 0 0 0 0 0 0 0 0 0
Neighs:    1.95472e+06 ave 1.95472e+06 max 1.95472e+06 min
Histogram: 1 0 0 0 0 0 0 0 0 0

Total # of neighbors = 1954723
Ave neighs/atom = 99.4669
Neighbor list builds = 6172
Dangerous builds not checked
Setting up Verlet run ...
  Unit style    : metal
  Current step  : 106670
  Time step     : 0.001
Per MPI rank memory allocation (min/avg/max) = 19.73 | 19.73 | 19.73 Mbytes
Step Temp Press TotEng PotEng Enthalpy 
  106670    1949.9722    205.31681   -75206.236   -80159.343   -75173.913 
  106672    1948.4039     277.1352   -75206.233   -80155.357   -75162.604 
  107165    1910.5142    -383.6322   -75489.659   -80342.539   -75549.849 
Loop time of 77.8243 on 1 procs for 495 steps with 19652 atoms

Performance: 0.550 ns/day, 43.672 hours/ns, 6.360 timesteps/s
100.0% CPU use with 1 MPI tasks x no OpenMP threads

MPI task timing breakdown:
Section |  min time  |  avg time  |  max time  |%varavg| %total
---------------------------------------------------------------
Pair    | 41.778     | 41.778     | 41.778     |   0.0 | 53.68
Neigh   | 34.897     | 34.897     | 34.897     |   0.0 | 44.84
Comm    | 0.42161    | 0.42161    | 0.42161    |   0.0 |  0.54
Output  | 0.040439   | 0.040439   | 0.040439   |   0.0 |  0.05
Modify  | 0.53932    | 0.53932    | 0.53932    |   0.0 |  0.69
Other   |            | 0.148      |            |       |  0.19

Nlocal:    19652 ave 19652 max 19652 min
Histogram: 1 0 0 0 0 0 0 0 0 0
Nghost:    20449 ave 20449 max 20449 min
Histogram: 1 0 0 0 0 0 0 0 0 0
Neighs:    1.9605e+06 ave 1.9605e+06 max 1.9605e+06 min
Histogram: 1 0 0 0 0 0 0 0 0 0

Total # of neighbors = 1960503
Ave neighs/atom = 99.761
Neighbor list builds = 495
Dangerous builds not checked
Setting up Verlet run ...
  Unit style    : metal
  Current step  : 107165
  Time step     : 0.001
Per MPI rank memory allocation (min/avg/max) = 19.73 | 19.73 | 19.73 Mbytes
Step Temp Press TotEng PotEng Enthalpy 
  107165    1910.5142    -383.6322   -75489.659   -80342.539   -75549.849 
  113337    1902.3799    1099.1681    -75583.21   -80415.428   -75411.083 
Loop time of 1057.15 on 1 procs for 6172 steps with 19652 atoms

Performance: 0.504 ns/day, 47.578 hours/ns, 5.838 timesteps/s
100.0% CPU use with 1 MPI tasks x no OpenMP threads

MPI task timing breakdown:
Section |  min time  |  avg time  |  max time  |%varavg| %total
---------------------------------------------------------------
Pair    | 566.26     | 566.26     | 566.26     |   0.0 | 53.57
Neigh   | 476.03     | 476.03     | 476.03     |   0.0 | 45.03
Comm    | 5.7174     | 5.7174     | 5.7174     |   0.0 |  0.54
Output  | 0.00019908 | 0.00019908 | 0.00019908 |   0.0 |  0.00
Modify  | 7.18       | 7.18       | 7.18       |   0.0 |  0.68
Other   |            | 1.957      |            |       |  0.19

Nlocal:    19652 ave 19652 max 19652 min
Histogram: 1 0 0 0 0 0 0 0 0 0
Nghost:    20554 ave 20554 max 20554 min
Histogram: 1 0 0 0 0 0 0 0 0 0
Neighs:    1.96464e+06 ave 1.96464e+06 max 1.96464e+06 min
Histogram: 1 0 0 0 0 0 0 0 0 0

Total # of neighbors = 1964635
Ave neighs/atom = 99.9712
Neighbor list builds = 6172
Dangerous builds not checked
Setting up Verlet run ...
  Unit style    : metal
  Current step  : 113337
  Time step     : 0.001
Per MPI rank memory allocation (min/avg/max) = 19.73 | 19.73 | 19.73 Mbytes
Step Temp Press TotEng PotEng Enthalpy 
  113337    1902.3799    1099.1681    -75583.21   -80415.428   -75411.083 
  113339    1903.4694    1046.0626   -75583.213   -80418.198   -75419.402 
  113832    1867.8077   -1266.9363   -75783.117   -80527.519   -75981.385 
Loop time of 78.8227 on 1 procs for 495 steps with 19652 atoms

Performance: 0.543 ns/day, 44.233 hours/ns, 6.280 timesteps/s
100.0% CPU use with 1 MPI tasks x no OpenMP threads

MPI task timing breakdown:
Section |  min time  |  avg time  |  max time  |%varavg| %total
---------------------------------------------------------------
Pair    | 42.14      | 42.14      | 42.14      |   0.0 | 53.46
Neigh   | 35.531     | 35.531     | 35.531     |   0.0 | 45.08
Comm    | 0.42111    | 0.42111    | 0.42111    |   0.0 |  0.53
Output  | 0.048134   | 0.048134   | 0.048134   |   0.0 |  0.06
Modify  | 0.5367     | 0.5367     | 0.5367     |   0.0 |  0.68
Other   |            | 0.1463     |            |       |  0.19

Nlocal:    19652 ave 19652 max 19652 min
Histogram: 1 0 0 0 0 0 0 0 0 0
Nghost:    20588 ave 20588 max 20588 min
Histogram: 1 0 0 0 0 0 0 0 0 0
Neighs:    1.96574e+06 ave 1.96574e+06 max 1.96574e+06 min
Histogram: 1 0 0 0 0 0 0 0 0 0

Total # of neighbors = 1965744
Ave neighs/atom = 100.028
Neighbor list builds = 495
Dangerous builds not checked
Setting up Verlet run ...
  Unit style    : metal
  Current step  : 113832
  Time step     : 0.001
Per MPI rank memory allocation (min/avg/max) = 19.73 | 19.73 | 19.73 Mbytes
Step Temp Press TotEng PotEng Enthalpy 
  113832    1867.8077   -1266.9363   -75783.117   -80527.519   -75981.385 
  120004    1857.1286    2607.2922   -75925.188   -80642.464   -75519.025 
Loop time of 1038.61 on 1 procs for 6172 steps with 19652 atoms

Performance: 0.513 ns/day, 46.744 hours/ns, 5.943 timesteps/s
100.0% CPU use with 1 MPI tasks x no OpenMP threads

MPI task timing breakdown:
Section |  min time  |  avg time  |  max time  |%varavg| %total
---------------------------------------------------------------
Pair    | 556.92     | 556.92     | 556.92     |   0.0 | 53.62
Neigh   | 467.14     | 467.14     | 467.14     |   0.0 | 44.98
Comm    | 5.603      | 5.603      | 5.603      |   0.0 |  0.54
Output  | 0.00016212 | 0.00016212 | 0.00016212 |   0.0 |  0.00
Modify  | 7.0315     | 7.0315     | 7.0315     |   0.0 |  0.68
Other   |            | 1.913      |            |       |  0.18

Nlocal:    19652 ave 19652 max 19652 min
Histogram: 1 0 0 0 0 0 0 0 0 0
Nghost:    20590 ave 20590 max 20590 min
Histogram: 1 0 0 0 0 0 0 0 0 0
Neighs:    1.97424e+06 ave 1.97424e+06 max 1.97424e+06 min
Histogram: 1 0 0 0 0 0 0 0 0 0

Total # of neighbors = 1974241
Ave neighs/atom = 100.46
Neighbor list builds = 6172
Dangerous builds not checked
Setting up Verlet run ...
  Unit style    : metal
  Current step  : 120004
  Time step     : 0.001
Per MPI rank memory allocation (min/avg/max) = 19.73 | 19.73 | 19.73 Mbytes
Step Temp Press TotEng PotEng Enthalpy 
  120004    1857.1286    2607.2922   -75925.188   -80642.464   -75519.025 
  120006    1857.1184    2642.0124   -75925.197   -80642.447   -75513.625 
  120499    1819.6253   -750.07202   -76101.686     -80723.7   -76218.528 
Loop time of 82.3105 on 1 procs for 495 steps with 19652 atoms

Performance: 0.520 ns/day, 46.190 hours/ns, 6.014 timesteps/s
100.0% CPU use with 1 MPI tasks x no OpenMP threads

MPI task timing breakdown:
Section |  min time  |  avg time  |  max time  |%varavg| %total
---------------------------------------------------------------
Pair    | 44.024     | 44.024     | 44.024     |   0.0 | 53.49
Neigh   | 37.077     | 37.077     | 37.077     |   0.0 | 45.05
Comm    | 0.44405    | 0.44405    | 0.44405    |   0.0 |  0.54
Output  | 0.048949   | 0.048949   | 0.048949   |   0.0 |  0.06
Modify  | 0.56286    | 0.56286    | 0.56286    |   0.0 |  0.68
Other   |            | 0.1531     |            |       |  0.19

Nlocal:    19652 ave 19652 max 19652 min
Histogram: 1 0 0 0 0 0 0 0 0 0
Nghost:    20580 ave 20580 max 20580 min
Histogram: 1 0 0 0 0 0 0 0 0 0
Neighs:    1.97478e+06 ave 1.97478e+06 max 1.97478e+06 min
Histogram: 1 0 0 0 0 0 0 0 0 0

Total # of neighbors = 1974785
Ave neighs/atom = 100.488
Neighbor list builds = 495
Dangerous builds not checked
Setting up Verlet run ...
  Unit style    : metal
  Current step  : 120499
  Time step     : 0.001
Per MPI rank memory allocation (min/avg/max) = 19.73 | 19.73 | 19.73 Mbytes
Step Temp Press TotEng PotEng Enthalpy 
  120499    1819.6253   -750.07202   -76101.686     -80723.7   -76218.528 
  126671    1783.2466    1895.0427    -76319.21   -80848.819   -76025.169 
Loop time of 1025.9 on 1 procs for 6172 steps with 19652 atoms

Performance: 0.520 ns/day, 46.172 hours/ns, 6.016 timesteps/s
100.0% CPU use with 1 MPI tasks x no OpenMP threads

MPI task timing breakdown:
Section |  min time  |  avg time  |  max time  |%varavg| %total
---------------------------------------------------------------
Pair    | 549.27     | 549.27     | 549.27     |   0.0 | 53.54
Neigh   | 462.3      | 462.3      | 462.3      |   0.0 | 45.06
Comm    | 5.4881     | 5.4881     | 5.4881     |   0.0 |  0.53
Output  | 0.00015116 | 0.00015116 | 0.00015116 |   0.0 |  0.00
Modify  | 6.9543     | 6.9543     | 6.9543     |   0.0 |  0.68
Other   |            | 1.886      |            |       |  0.18

Nlocal:    19652 ave 19652 max 19652 min
Histogram: 1 0 0 0 0 0 0 0 0 0
Nghost:    20644 ave 20644 max 20644 min
Histogram: 1 0 0 0 0 0 0 0 0 0
Neighs:    1.98273e+06 ave 1.98273e+06 max 1.98273e+06 min
Histogram: 1 0 0 0 0 0 0 0 0 0

Total # of neighbors = 1982734
Ave neighs/atom = 100.892
Neighbor list builds = 6172
Dangerous builds not checked
Setting up Verlet run ...
  Unit style    : metal
  Current step  : 126671
  Time step     : 0.001
Per MPI rank memory allocation (min/avg/max) = 19.73 | 19.73 | 19.73 Mbytes
Step Temp Press TotEng PotEng Enthalpy 
  126671    1783.2466    1895.0427    -76319.21   -80848.819   -76025.169 
  126673    1785.2478    1754.1192   -76319.194   -80853.886   -76047.019 
  127166    1768.2804    559.62613   -76481.539   -80973.132   -76394.786 
Loop time of 81.8852 on 1 procs for 495 steps with 19652 atoms

Performance: 0.522 ns/day, 45.951 hours/ns, 6.045 timesteps/s
99.5% CPU use with 1 MPI tasks x no OpenMP threads

MPI task timing breakdown:
Section |  min time  |  avg time  |  max time  |%varavg| %total
---------------------------------------------------------------
Pair    | 43.863     | 43.863     | 43.863     |   0.0 | 53.57
Neigh   | 36.463     | 36.463     | 36.463     |   0.0 | 44.53
Comm    | 0.43211    | 0.43211    | 0.43211    |   0.0 |  0.53
Output  | 0.41437    | 0.41437    | 0.41437    |   0.0 |  0.51
Modify  | 0.56136    | 0.56136    | 0.56136    |   0.0 |  0.69
Other   |            | 0.1512     |            |       |  0.18

Nlocal:    19652 ave 19652 max 19652 min
Histogram: 1 0 0 0 0 0 0 0 0 0
Nghost:    20658 ave 20658 max 20658 min
Histogram: 1 0 0 0 0 0 0 0 0 0
Neighs:    1.98513e+06 ave 1.98513e+06 max 1.98513e+06 min
Histogram: 1 0 0 0 0 0 0 0 0 0

Total # of neighbors = 1985133
Ave neighs/atom = 101.014
Neighbor list builds = 495
Dangerous builds not checked
Setting up Verlet run ...
  Unit style    : metal
  Current step  : 127166
  Time step     : 0.001
Per MPI rank memory allocation (min/avg/max) = 19.73 | 19.73 | 19.73 Mbytes
Step Temp Press TotEng PotEng Enthalpy 
  127166    1768.2804    559.62613   -76481.539   -80973.132   -76394.786 
  133338    1756.6519    1164.4153   -76595.376   -81057.432   -76415.252 
Loop time of 1029.57 on 1 procs for 6172 steps with 19652 atoms

Performance: 0.518 ns/day, 46.337 hours/ns, 5.995 timesteps/s
100.0% CPU use with 1 MPI tasks x no OpenMP threads

MPI task timing breakdown:
Section |  min time  |  avg time  |  max time  |%varavg| %total
---------------------------------------------------------------
Pair    | 553.48     | 553.48     | 553.48     |   0.0 | 53.76
Neigh   | 461.72     | 461.72     | 461.72     |   0.0 | 44.85
Comm    | 5.5164     | 5.5164     | 5.5164     |   0.0 |  0.54
Output  | 0.00019002 | 0.00019002 | 0.00019002 |   0.0 |  0.00
Modify  | 6.9662     | 6.9662     | 6.9662     |   0.0 |  0.68
Other   |            | 1.889      |            |       |  0.18

Nlocal:    19652 ave 19652 max 19652 min
Histogram: 1 0 0 0 0 0 0 0 0 0
Nghost:    20630 ave 20630 max 20630 min
Histogram: 1 0 0 0 0 0 0 0 0 0
Neighs:    1.98907e+06 ave 1.98907e+06 max 1.98907e+06 min
Histogram: 1 0 0 0 0 0 0 0 0 0

Total # of neighbors = 1989066
Ave neighs/atom = 101.214
Neighbor list builds = 6172
Dangerous builds not checked
Setting up Verlet run ...
  Unit style    : metal
  Current step  : 133338
  Time step     : 0.001
Per MPI rank memory allocation (min/avg/max) = 19.73 | 19.73 | 19.73 Mbytes
Step Temp Press TotEng PotEng Enthalpy 
  133338    1756.6519    1164.4153   -76595.376   -81057.432   -76415.252 
  133340    1757.4671    1144.0971   -76595.385   -81059.511   -76418.404 
  133833     1715.155    306.32404   -76788.406   -81145.056   -76741.069 
Loop time of 80.7765 on 1 procs for 495 steps with 19652 atoms

Performance: 0.529 ns/day, 45.329 hours/ns, 6.128 timesteps/s
100.0% CPU use with 1 MPI tasks x no OpenMP threads

MPI task timing breakdown:
Section |  min time  |  avg time  |  max time  |%varavg| %total
---------------------------------------------------------------
Pair    | 43.402     | 43.402     | 43.402     |   0.0 | 53.73
Neigh   | 36.181     | 36.181     | 36.181     |   0.0 | 44.79
Comm    | 0.42954    | 0.42954    | 0.42954    |   0.0 |  0.53
Output  | 0.064184   | 0.064184   | 0.064184   |   0.0 |  0.08
Modify  | 0.54933    | 0.54933    | 0.54933    |   0.0 |  0.68
Other   |            | 0.1505     |            |       |  0.19

Nlocal:    19652 ave 19652 max 19652 min
Histogram: 1 0 0 0 0 0 0 0 0 0
Nghost:    20702 ave 20702 max 20702 min
Histogram: 1 0 0 0 0 0 0 0 0 0
Neighs:    1.99148e+06 ave 1.99148e+06 max 1.99148e+06 min
Histogram: 1 0 0 0 0 0 0 0 0 0

Total # of neighbors = 1991484
Ave neighs/atom = 101.337
Neighbor list builds = 495
Dangerous builds not checked
Setting up Verlet run ...
  Unit style    : metal
  Current step  : 133833
  Time step     : 0.001
Per MPI rank memory allocation (min/avg/max) = 19.73 | 19.73 | 19.73 Mbytes
Step Temp Press TotEng PotEng Enthalpy 
  133833     1715.155    306.32404   -76788.406   -81145.056   -76741.069 
  140005    1703.9307    -408.4467   -76905.111    -81233.25   -76968.157 
Loop time of 1066.66 on 1 procs for 6172 steps with 19652 atoms

Performance: 0.500 ns/day, 48.006 hours/ns, 5.786 timesteps/s
100.0% CPU use with 1 MPI tasks x no OpenMP threads

MPI task timing breakdown:
Section |  min time  |  avg time  |  max time  |%varavg| %total
---------------------------------------------------------------
Pair    | 574.53     | 574.53     | 574.53     |   0.0 | 53.86
Neigh   | 477.33     | 477.33     | 477.33     |   0.0 | 44.75
Comm    | 5.6666     | 5.6666     | 5.6666     |   0.0 |  0.53
Output  | 0.00019979 | 0.00019979 | 0.00019979 |   0.0 |  0.00
Modify  | 7.1949     | 7.1949     | 7.1949     |   0.0 |  0.67
Other   |            | 1.942      |            |       |  0.18

Nlocal:    19652 ave 19652 max 19652 min
Histogram: 1 0 0 0 0 0 0 0 0 0
Nghost:    20669 ave 20669 max 20669 min
Histogram: 1 0 0 0 0 0 0 0 0 0
Neighs:    1.99273e+06 ave 1.99273e+06 max 1.99273e+06 min
Histogram: 1 0 0 0 0 0 0 0 0 0

Total # of neighbors = 1992726
Ave neighs/atom = 101.401
Neighbor list builds = 6172
Dangerous builds not checked
Setting up Verlet run ...
  Unit style    : metal
  Current step  : 140005
  Time step     : 0.001
Per MPI rank memory allocation (min/avg/max) = 19.73 | 19.73 | 19.73 Mbytes
Step Temp Press TotEng PotEng Enthalpy 
  140005    1703.9307    -408.4467   -76905.111    -81233.25   -76968.157 
  140007    1703.2645   -388.52936   -76905.113    -81231.56   -76965.086 
  140500    1656.5495    909.13493   -77151.315   -81359.101   -77011.478 
Loop time of 84.7543 on 1 procs for 495 steps with 19652 atoms

Performance: 0.505 ns/day, 47.561 hours/ns, 5.840 timesteps/s
99.9% CPU use with 1 MPI tasks x no OpenMP threads

MPI task timing breakdown:
Section |  min time  |  avg time  |  max time  |%varavg| %total
---------------------------------------------------------------
Pair    | 45.665     | 45.665     | 45.665     |   0.0 | 53.88
Neigh   | 37.841     | 37.841     | 37.841     |   0.0 | 44.65
Comm    | 0.44558    | 0.44558    | 0.44558    |   0.0 |  0.53
Output  | 0.067093   | 0.067093   | 0.067093   |   0.0 |  0.08
Modify  | 0.57827    | 0.57827    | 0.57827    |   0.0 |  0.68
Other   |            | 0.1571     |            |       |  0.19

Nlocal:    19652 ave 19652 max 19652 min
Histogram: 1 0 0 0 0 0 0 0 0 0
Nghost:    20661 ave 20661 max 20661 min
Histogram: 1 0 0 0 0 0 0 0 0 0
Neighs:    1.99981e+06 ave 1.99981e+06 max 1.99981e+06 min
Histogram: 1 0 0 0 0 0 0 0 0 0

Total # of neighbors = 1999809
Ave neighs/atom = 101.761
Neighbor list builds = 495
Dangerous builds not checked
Setting up Verlet run ...
  Unit style    : metal
  Current step  : 140500
  Time step     : 0.001
Per MPI rank memory allocation (min/avg/max) = 19.73 | 19.73 | 19.73 Mbytes
Step Temp Press TotEng PotEng Enthalpy 
  140500    1656.5495    909.13493   -77151.315   -81359.101   -77011.478 
  146672    1654.6277   -2004.2369    -77228.59   -81431.495   -77536.954 
Loop time of 1035.3 on 1 procs for 6172 steps with 19652 atoms

Performance: 0.515 ns/day, 46.595 hours/ns, 5.962 timesteps/s
100.0% CPU use with 1 MPI tasks x no OpenMP threads

MPI task timing breakdown:
Section |  min time  |  avg time  |  max time  |%varavg| %total
---------------------------------------------------------------
Pair    | 558.35     | 558.35     | 558.35     |   0.0 | 53.93
Neigh   | 462.42     | 462.42     | 462.42     |   0.0 | 44.67
Comm    | 5.5853     | 5.5853     | 5.5853     |   0.0 |  0.54
Output  | 0.00020695 | 0.00020695 | 0.00020695 |   0.0 |  0.00
Modify  | 7.024      | 7.024      | 7.024      |   0.0 |  0.68
Other   |            | 1.923      |            |       |  0.19

Nlocal:    19652 ave 19652 max 19652 min
Histogram: 1 0 0 0 0 0 0 0 0 0
Nghost:    20766 ave 20766 max 20766 min
Histogram: 1 0 0 0 0 0 0 0 0 0
Neighs:    1.99922e+06 ave 1.99922e+06 max 1.99922e+06 min
Histogram: 1 0 0 0 0 0 0 0 0 0

Total # of neighbors = 1999223
Ave neighs/atom = 101.731
Neighbor list builds = 6172
Dangerous builds not checked
Setting up Verlet run ...
  Unit style    : metal
  Current step  : 146672
  Time step     : 0.001
Per MPI rank memory allocation (min/avg/max) = 19.73 | 19.73 | 19.73 Mbytes
Step Temp Press TotEng PotEng Enthalpy 
  146672    1654.6277   -2004.2369    -77228.59   -81431.495   -77536.954 
  146674    1654.9051   -2013.1795   -77228.597   -81432.207   -77538.337 
  147167    1615.6244   -819.16172   -77458.569   -81562.402   -77584.239 
Loop time of 84.0665 on 1 procs for 495 steps with 19652 atoms

Performance: 0.509 ns/day, 47.175 hours/ns, 5.888 timesteps/s
98.1% CPU use with 1 MPI tasks x no OpenMP threads

MPI task timing breakdown:
Section |  min time  |  avg time  |  max time  |%varavg| %total
---------------------------------------------------------------
Pair    | 44.789     | 44.789     | 44.789     |   0.0 | 53.28
Neigh   | 36.556     | 36.556     | 36.556     |   0.0 | 43.48
Comm    | 0.44879    | 0.44879    | 0.44879    |   0.0 |  0.53
Output  | 1.5455     | 1.5455     | 1.5455     |   0.0 |  1.84
Modify  | 0.57049    | 0.57049    | 0.57049    |   0.0 |  0.68
Other   |            | 0.1572     |            |       |  0.19

Nlocal:    19652 ave 19652 max 19652 min
Histogram: 1 0 0 0 0 0 0 0 0 0
Nghost:    20717 ave 20717 max 20717 min
Histogram: 1 0 0 0 0 0 0 0 0 0
Neighs:    2.00487e+06 ave 2.00487e+06 max 2.00487e+06 min
Histogram: 1 0 0 0 0 0 0 0 0 0

Total # of neighbors = 2004866
Ave neighs/atom = 102.018
Neighbor list builds = 495
Dangerous builds not checked
Setting up Verlet run ...
  Unit style    : metal
  Current step  : 147167
  Time step     : 0.001
Per MPI rank memory allocation (min/avg/max) = 19.73 | 19.73 | 19.73 Mbytes
Step Temp Press TotEng PotEng Enthalpy 
  147167    1615.6244   -819.16172   -77458.569   -81562.402   -77584.239 
  153339    1608.0023    1481.1747   -77530.717   -81615.189   -77303.991 
Loop time of 1105.75 on 1 procs for 6172 steps with 19652 atoms

Performance: 0.482 ns/day, 49.766 hours/ns, 5.582 timesteps/s
99.9% CPU use with 1 MPI tasks x no OpenMP threads

MPI task timing breakdown:
Section |  min time  |  avg time  |  max time  |%varavg| %total
---------------------------------------------------------------
Pair    | 601.71     | 601.71     | 601.71     |   0.0 | 54.42
Neigh   | 488.36     | 488.36     | 488.36     |   0.0 | 44.17
Comm    | 6.0518     | 6.0518     | 6.0518     |   0.0 |  0.55
Output  | 0.0001812  | 0.0001812  | 0.0001812  |   0.0 |  0.00
Modify  | 7.5279     | 7.5279     | 7.5279     |   0.0 |  0.68
Other   |            | 2.097      |            |       |  0.19

Nlocal:    19652 ave 19652 max 19652 min
Histogram: 1 0 0 0 0 0 0 0 0 0
Nghost:    20806 ave 20806 max 20806 min
Histogram: 1 0 0 0 0 0 0 0 0 0
Neighs:    2.01021e+06 ave 2.01021e+06 max 2.01021e+06 min
Histogram: 1 0 0 0 0 0 0 0 0 0

Total # of neighbors = 2010208
Ave neighs/atom = 102.29
Neighbor list builds = 6172
Dangerous builds not checked
Setting up Verlet run ...
  Unit style    : metal
  Current step  : 153339
  Time step     : 0.001
Per MPI rank memory allocation (min/avg/max) = 19.73 | 19.73 | 19.73 Mbytes
Step Temp Press TotEng PotEng Enthalpy 
  153339    1608.0023    1481.1747   -77530.717   -81615.189   -77303.991 
  153341    1607.8316    1488.3815   -77530.725   -81614.763   -77302.896 
  153834     1559.555    159.36735   -77782.042   -81743.454   -77757.694 
Loop time of 86.7502 on 1 procs for 495 steps with 19652 atoms

Performance: 0.493 ns/day, 48.681 hours/ns, 5.706 timesteps/s
99.8% CPU use with 1 MPI tasks x no OpenMP threads

MPI task timing breakdown:
Section |  min time  |  avg time  |  max time  |%varavg| %total
---------------------------------------------------------------
Pair    | 47.203     | 47.203     | 47.203     |   0.0 | 54.41
Neigh   | 38.129     | 38.129     | 38.129     |   0.0 | 43.95
Comm    | 0.47584    | 0.47584    | 0.47584    |   0.0 |  0.55
Output  | 0.17103    | 0.17103    | 0.17103    |   0.0 |  0.20
Modify  | 0.60004    | 0.60004    | 0.60004    |   0.0 |  0.69
Other   |            | 0.171      |            |       |  0.20

Nlocal:    19652 ave 19652 max 19652 min
Histogram: 1 0 0 0 0 0 0 0 0 0
Nghost:    20730 ave 20730 max 20730 min
Histogram: 1 0 0 0 0 0 0 0 0 0
Neighs:    2.01267e+06 ave 2.01267e+06 max 2.01267e+06 min
Histogram: 1 0 0 0 0 0 0 0 0 0

Total # of neighbors = 2012673
Ave neighs/atom = 102.416
Neighbor list builds = 495
Dangerous builds not checked
Setting up Verlet run ...
  Unit style    : metal
  Current step  : 153834
  Time step     : 0.001
Per MPI rank memory allocation (min/avg/max) = 19.73 | 19.73 | 19.73 Mbytes
Step Temp Press TotEng PotEng Enthalpy 
  153834     1559.555    159.36735   -77782.042   -81743.454   -77757.694 
  160006    1548.6856   -205.72554   -77900.329   -81834.131   -77931.712 
Loop time of 1083.83 on 1 procs for 6172 steps with 19652 atoms

Performance: 0.492 ns/day, 48.779 hours/ns, 5.695 timesteps/s
99.9% CPU use with 1 MPI tasks x no OpenMP threads

MPI task timing breakdown:
Section |  min time  |  avg time  |  max time  |%varavg| %total
---------------------------------------------------------------
Pair    | 592.17     | 592.17     | 592.17     |   0.0 | 54.64
Neigh   | 476.26     | 476.26     | 476.26     |   0.0 | 43.94
Comm    | 5.9881     | 5.9881     | 5.9881     |   0.0 |  0.55
Output  | 0.00020504 | 0.00020504 | 0.00020504 |   0.0 |  0.00
Modify  | 7.3265     | 7.3265     | 7.3265     |   0.0 |  0.68
Other   |            | 2.09       |            |       |  0.19

Nlocal:    19652 ave 19652 max 19652 min
Histogram: 1 0 0 0 0 0 0 0 0 0
Nghost:    20811 ave 20811 max 20811 min
Histogram: 1 0 0 0 0 0 0 0 0 0
Neighs:    2.01648e+06 ave 2.01648e+06 max 2.01648e+06 min
Histogram: 1 0 0 0 0 0 0 0 0 0

Total # of neighbors = 2016479
Ave neighs/atom = 102.609
Neighbor list builds = 6172
Dangerous builds not checked
Setting up Verlet run ...
  Unit style    : metal
  Current step  : 160006
  Time step     : 0.001
Per MPI rank memory allocation (min/avg/max) = 19.73 | 19.73 | 19.73 Mbytes
Step Temp Press TotEng PotEng Enthalpy 
  160006    1548.6856   -205.72554   -77900.329   -81834.131   -77931.712 
  160008    1549.2354   -245.21013   -77900.329   -81835.528   -77937.736 
  160501     1500.682    25.649502    -78133.85   -81945.719   -78129.946 
Loop time of 83.3129 on 1 procs for 495 steps with 19652 atoms

Performance: 0.513 ns/day, 46.752 hours/ns, 5.941 timesteps/s
100.0% CPU use with 1 MPI tasks x no OpenMP threads

MPI task timing breakdown:
Section |  min time  |  avg time  |  max time  |%varavg| %total
---------------------------------------------------------------
Pair    | 45.299     | 45.299     | 45.299     |   0.0 | 54.37
Neigh   | 36.813     | 36.813     | 36.813     |   0.0 | 44.19
Comm    | 0.44287    | 0.44287    | 0.44287    |   0.0 |  0.53
Output  | 0.045845   | 0.045845   | 0.045845   |   0.0 |  0.06
Modify  | 0.55522    | 0.55522    | 0.55522    |   0.0 |  0.67
Other   |            | 0.1564     |            |       |  0.19

Nlocal:    19652 ave 19652 max 19652 min
Histogram: 1 0 0 0 0 0 0 0 0 0
Nghost:    20836 ave 20836 max 20836 min
Histogram: 1 0 0 0 0 0 0 0 0 0
Neighs:    2.02075e+06 ave 2.02075e+06 max 2.02075e+06 min
Histogram: 1 0 0 0 0 0 0 0 0 0

Total # of neighbors = 2020748
Ave neighs/atom = 102.827
Neighbor list builds = 495
Dangerous builds not checked
Setting up Verlet run ...
  Unit style    : metal
  Current step  : 160501
  Time step     : 0.001
Per MPI rank memory allocation (min/avg/max) = 19.73 | 19.73 | 19.73 Mbytes
Step Temp Press TotEng PotEng Enthalpy 
  160501     1500.682    25.649502    -78133.85   -81945.719   -78129.946 
  166673    1499.7083    36.862431   -78281.402   -82090.798   -78275.808 
Loop time of 1041.01 on 1 procs for 6172 steps with 19652 atoms

Performance: 0.512 ns/day, 46.852 hours/ns, 5.929 timesteps/s
100.0% CPU use with 1 MPI tasks x no OpenMP threads

MPI task timing breakdown:
Section |  min time  |  avg time  |  max time  |%varavg| %total
---------------------------------------------------------------
Pair    | 566.46     | 566.46     | 566.46     |   0.0 | 54.41
Neigh   | 459.8      | 459.8      | 459.8      |   0.0 | 44.17
Comm    | 5.6928     | 5.6928     | 5.6928     |   0.0 |  0.55
Output  | 0.00020003 | 0.00020003 | 0.00020003 |   0.0 |  0.00
Modify  | 7.0598     | 7.0598     | 7.0598     |   0.0 |  0.68
Other   |            | 1.998      |            |       |  0.19

Nlocal:    19652 ave 19652 max 19652 min
Histogram: 1 0 0 0 0 0 0 0 0 0
Nghost:    20859 ave 20859 max 20859 min
Histogram: 1 0 0 0 0 0 0 0 0 0
Neighs:    2.02672e+06 ave 2.02672e+06 max 2.02672e+06 min
Histogram: 1 0 0 0 0 0 0 0 0 0

Total # of neighbors = 2026724
Ave neighs/atom = 103.131
Neighbor list builds = 6172
Dangerous builds not checked
Setting up Verlet run ...
  Unit style    : metal
  Current step  : 166673
  Time step     : 0.001
Per MPI rank memory allocation (min/avg/max) = 19.73 | 19.73 | 19.73 Mbytes
Step Temp Press TotEng PotEng Enthalpy 
  166673    1499.7083    36.862431   -78281.402   -82090.798   -78275.808 
  166675    1499.9357    17.022589   -78281.403   -82091.376    -78278.82 
  167168    1459.2901    129.86336   -78484.776   -82191.506   -78465.101 
Loop time of 82.7962 on 1 procs for 495 steps with 19652 atoms

Performance: 0.517 ns/day, 46.463 hours/ns, 5.979 timesteps/s
100.0% CPU use with 1 MPI tasks x no OpenMP threads

MPI task timing breakdown:
Section |  min time  |  avg time  |  max time  |%varavg| %total
---------------------------------------------------------------
Pair    | 45.368     | 45.368     | 45.368     |   0.0 | 54.79
Neigh   | 36.188     | 36.188     | 36.188     |   0.0 | 43.71
Comm    | 0.45949    | 0.45949    | 0.45949    |   0.0 |  0.55
Output  | 0.049509   | 0.049509   | 0.049509   |   0.0 |  0.06
Modify  | 0.56605    | 0.56605    | 0.56605    |   0.0 |  0.68
Other   |            | 0.1658     |            |       |  0.20

Nlocal:    19652 ave 19652 max 19652 min
Histogram: 1 0 0 0 0 0 0 0 0 0
Nghost:    20823 ave 20823 max 20823 min
Histogram: 1 0 0 0 0 0 0 0 0 0
Neighs:    2.02992e+06 ave 2.02992e+06 max 2.02992e+06 min
Histogram: 1 0 0 0 0 0 0 0 0 0

Total # of neighbors = 2029924
Ave neighs/atom = 103.294
Neighbor list builds = 495
Dangerous builds not checked
Setting up Verlet run ...
  Unit style    : metal
  Current step  : 167168
  Time step     : 0.001
Per MPI rank memory allocation (min/avg/max) = 19.73 | 19.73 | 19.73 Mbytes
Step Temp Press TotEng PotEng Enthalpy 
  167168    1459.2901    129.86336   -78484.776   -82191.506   -78465.101 
  173340    1443.1355    -2046.737   -78651.032   -82316.727    -78960.96 
Loop time of 1091.89 on 1 procs for 6172 steps with 19652 atoms

Performance: 0.488 ns/day, 49.142 hours/ns, 5.653 timesteps/s
100.0% CPU use with 1 MPI tasks x no OpenMP threads

MPI task timing breakdown:
Section |  min time  |  avg time  |  max time  |%varavg| %total
---------------------------------------------------------------
Pair    | 596.68     | 596.68     | 596.68     |   0.0 | 54.65
Neigh   | 479.72     | 479.72     | 479.72     |   0.0 | 43.94
Comm    | 5.9707     | 5.9707     | 5.9707     |   0.0 |  0.55
Output  | 0.00027514 | 0.00027514 | 0.00027514 |   0.0 |  0.00
Modify  | 7.4195     | 7.4195     | 7.4195     |   0.0 |  0.68
Other   |            | 2.087      |            |       |  0.19

Nlocal:    19652 ave 19652 max 19652 min
Histogram: 1 0 0 0 0 0 0 0 0 0
Nghost:    20853 ave 20853 max 20853 min
Histogram: 1 0 0 0 0 0 0 0 0 0
Neighs:    2.03199e+06 ave 2.03199e+06 max 2.03199e+06 min
Histogram: 1 0 0 0 0 0 0 0 0 0

Total # of neighbors = 2031991
Ave neighs/atom = 103.399
Neighbor list builds = 6172
Dangerous builds not checked
Setting up Verlet run ...
  Unit style    : metal
  Current step  : 173340
  Time step     : 0.001
Per MPI rank memory allocation (min/avg/max) = 19.73 | 19.73 | 19.73 Mbytes
Step Temp Press TotEng PotEng Enthalpy 
  173340    1443.1355    -2046.737   -78651.032   -82316.727    -78960.96 
  173342    1442.2239     -2012.73   -78651.023   -82314.404   -78955.802 
  173835    1415.9701    1356.3487   -78785.076   -82381.769   -78580.491 
Loop time of 85.1941 on 1 procs for 495 steps with 19652 atoms

Performance: 0.502 ns/day, 47.808 hours/ns, 5.810 timesteps/s
100.0% CPU use with 1 MPI tasks x no OpenMP threads

MPI task timing breakdown:
Section |  min time  |  avg time  |  max time  |%varavg| %total
---------------------------------------------------------------
Pair    | 46.458     | 46.458     | 46.458     |   0.0 | 54.53
Neigh   | 37.462     | 37.462     | 37.462     |   0.0 | 43.97
Comm    | 0.4623     | 0.4623     | 0.4623     |   0.0 |  0.54
Output  | 0.066292   | 0.066292   | 0.066292   |   0.0 |  0.08
Modify  | 0.58099    | 0.58099    | 0.58099    |   0.0 |  0.68
Other   |            | 0.1642     |            |       |  0.19

Nlocal:    19652 ave 19652 max 19652 min
Histogram: 1 0 0 0 0 0 0 0 0 0
Nghost:    20882 ave 20882 max 20882 min
Histogram: 1 0 0 0 0 0 0 0 0 0
Neighs:    2.03918e+06 ave 2.03918e+06 max 2.03918e+06 min
Histogram: 1 0 0 0 0 0 0 0 0 0

Total # of neighbors = 2039181
Ave neighs/atom = 103.765
Neighbor list builds = 495
Dangerous builds not checked
Setting up Verlet run ...
  Unit style    : metal
  Current step  : 173835
  Time step     : 0.001
Per MPI rank memory allocation (min/avg/max) = 19.73 | 19.73 | 19.73 Mbytes
Step Temp Press TotEng PotEng Enthalpy 
  173835    1415.9701    1356.3487   -78785.076   -82381.769   -78580.491 
  180007    1408.0984    1790.9821    -78910.67   -82487.368   -78640.981 
Loop time of 1079.09 on 1 procs for 6172 steps with 19652 atoms

Performance: 0.494 ns/day, 48.566 hours/ns, 5.720 timesteps/s
100.0% CPU use with 1 MPI tasks x no OpenMP threads

MPI task timing breakdown:
Section |  min time  |  avg time  |  max time  |%varavg| %total
---------------------------------------------------------------
Pair    | 589.52     | 589.52     | 589.52     |   0.0 | 54.63
Neigh   | 474.3      | 474.3      | 474.3      |   0.0 | 43.95
Comm    | 5.9094     | 5.9094     | 5.9094     |   0.0 |  0.55
Output  | 0.00018191 | 0.00018191 | 0.00018191 |   0.0 |  0.00
Modify  | 7.3097     | 7.3097     | 7.3097     |   0.0 |  0.68
Other   |            | 2.053      |            |       |  0.19

Nlocal:    19652 ave 19652 max 19652 min
Histogram: 1 0 0 0 0 0 0 0 0 0
Nghost:    20938 ave 20938 max 20938 min
Histogram: 1 0 0 0 0 0 0 0 0 0
Neighs:    2.04325e+06 ave 2.04325e+06 max 2.04325e+06 min
Histogram: 1 0 0 0 0 0 0 0 0 0

Total # of neighbors = 2043254
Ave neighs/atom = 103.972
Neighbor list builds = 6172
Dangerous builds not checked
Setting up Verlet run ...
  Unit style    : metal
  Current step  : 180007
  Time step     : 0.001
Per MPI rank memory allocation (min/avg/max) = 19.73 | 19.73 | 19.73 Mbytes
Step Temp Press TotEng PotEng Enthalpy 
  180007    1408.0984    1790.9821    -78910.67   -82487.368   -78640.981 
  180009    1406.9716     1825.667   -78910.675   -82484.511   -78635.764 
  180502    1363.2998    -866.3487   -79112.928   -82575.833   -79243.375 
Loop time of 81.9725 on 1 procs for 495 steps with 19652 atoms

Performance: 0.522 ns/day, 46.000 hours/ns, 6.039 timesteps/s
99.9% CPU use with 1 MPI tasks x no OpenMP threads

MPI task timing breakdown:
Section |  min time  |  avg time  |  max time  |%varavg| %total
---------------------------------------------------------------
Pair    | 44.912     | 44.912     | 44.912     |   0.0 | 54.79
Neigh   | 35.743     | 35.743     | 35.743     |   0.0 | 43.60
Comm    | 0.45962    | 0.45962    | 0.45962    |   0.0 |  0.56
Output  | 0.12729    | 0.12729    | 0.12729    |   0.0 |  0.16
Modify  | 0.56836    | 0.56836    | 0.56836    |   0.0 |  0.69
Other   |            | 0.1624     |            |       |  0.20

Nlocal:    19652 ave 19652 max 19652 min
Histogram: 1 0 0 0 0 0 0 0 0 0
Nghost:    20899 ave 20899 max 20899 min
Histogram: 1 0 0 0 0 0 0 0 0 0
Neighs:    2.0435e+06 ave 2.0435e+06 max 2.0435e+06 min
Histogram: 1 0 0 0 0 0 0 0 0 0

Total # of neighbors = 2043501
Ave neighs/atom = 103.984
Neighbor list builds = 495
Dangerous builds not checked
Setting up Verlet run ...
  Unit style    : metal
  Current step  : 180502
  Time step     : 0.001
Per MPI rank memory allocation (min/avg/max) = 19.73 | 19.73 | 19.73 Mbytes
Step Temp Press TotEng PotEng Enthalpy 
  180502    1363.2998    -866.3487   -79112.928   -82575.833   -79243.375 
  186674    1341.5422    1548.3436   -79313.264   -82720.903   -79081.158 
Loop time of 1056.11 on 1 procs for 6172 steps with 19652 atoms

Performance: 0.505 ns/day, 47.531 hours/ns, 5.844 timesteps/s
100.0% CPU use with 1 MPI tasks x no OpenMP threads

MPI task timing breakdown:
Section |  min time  |  avg time  |  max time  |%varavg| %total
---------------------------------------------------------------
Pair    | 578.84     | 578.84     | 578.84     |   0.0 | 54.81
Neigh   | 462.27     | 462.27     | 462.27     |   0.0 | 43.77
Comm    | 5.849      | 5.849      | 5.849      |   0.0 |  0.55
Output  | 0.00023508 | 0.00023508 | 0.00023508 |   0.0 |  0.00
Modify  | 7.1227     | 7.1227     | 7.1227     |   0.0 |  0.67
Other   |            | 2.034      |            |       |  0.19

Nlocal:    19652 ave 19652 max 19652 min
Histogram: 1 0 0 0 0 0 0 0 0 0
Nghost:    20968 ave 20968 max 20968 min
Histogram: 1 0 0 0 0 0 0 0 0 0
Neighs:    2.05303e+06 ave 2.05303e+06 max 2.05303e+06 min
Histogram: 1 0 0 0 0 0 0 0 0 0

Total # of neighbors = 2053029
Ave neighs/atom = 104.469
Neighbor list builds = 6172
Dangerous builds not checked
Setting up Verlet run ...
  Unit style    : metal
  Current step  : 186674
  Time step     : 0.001
Per MPI rank memory allocation (min/avg/max) = 19.73 | 19.73 | 19.73 Mbytes
Step Temp Press TotEng PotEng Enthalpy 
  186674    1341.5422    1548.3436   -79313.264   -82720.903   -79081.158 
  186676    1340.4162    1601.6109   -79313.253   -82718.032   -79073.162 
  187169    1317.9564   -1140.2619   -79505.167   -82852.896   -79676.001 
Loop time of 83.4752 on 1 procs for 495 steps with 19652 atoms

Performance: 0.512 ns/day, 46.844 hours/ns, 5.930 timesteps/s
100.0% CPU use with 1 MPI tasks x no OpenMP threads

MPI task timing breakdown:
Section |  min time  |  avg time  |  max time  |%varavg| %total
---------------------------------------------------------------
Pair    | 45.776     | 45.776     | 45.776     |   0.0 | 54.84
Neigh   | 36.424     | 36.424     | 36.424     |   0.0 | 43.63
Comm    | 0.47374    | 0.47374    | 0.47374    |   0.0 |  0.57
Output  | 0.05062    | 0.05062    | 0.05062    |   0.0 |  0.06
Modify  | 0.58228    | 0.58228    | 0.58228    |   0.0 |  0.70
Other   |            | 0.1685     |            |       |  0.20

Nlocal:    19652 ave 19652 max 19652 min
Histogram: 1 0 0 0 0 0 0 0 0 0
Nghost:    20966 ave 20966 max 20966 min
Histogram: 1 0 0 0 0 0 0 0 0 0
Neighs:    2.05427e+06 ave 2.05427e+06 max 2.05427e+06 min
Histogram: 1 0 0 0 0 0 0 0 0 0

Total # of neighbors = 2054269
Ave neighs/atom = 104.532
Neighbor list builds = 495
Dangerous builds not checked
Setting up Verlet run ...
  Unit style    : metal
  Current step  : 187169
  Time step     : 0.001
Per MPI rank memory allocation (min/avg/max) = 19.73 | 19.73 | 19.73 Mbytes
Step Temp Press TotEng PotEng Enthalpy 
  187169    1317.9564   -1140.2619   -79505.167   -82852.896   -79676.001 
  193341    1320.6581    980.12872    -79657.28   -83011.872   -79511.053 
Loop time of 1116.53 on 1 procs for 6172 steps with 19652 atoms

Performance: 0.478 ns/day, 50.251 hours/ns, 5.528 timesteps/s
99.9% CPU use with 1 MPI tasks x no OpenMP threads

MPI task timing breakdown:
Section |  min time  |  avg time  |  max time  |%varavg| %total
---------------------------------------------------------------
Pair    | 615.24     | 615.24     | 615.24     |   0.0 | 55.10
Neigh   | 485.19     | 485.19     | 485.19     |   0.0 | 43.46
Comm    | 6.2875     | 6.2875     | 6.2875     |   0.0 |  0.56
Output  | 0.00017715 | 0.00017715 | 0.00017715 |   0.0 |  0.00
Modify  | 7.6308     | 7.6308     | 7.6308     |   0.0 |  0.68
Other   |            | 2.188      |            |       |  0.20

Nlocal:    19652 ave 19652 max 19652 min
Histogram: 1 0 0 0 0 0 0 0 0 0
Nghost:    21000 ave 21000 max 21000 min
Histogram: 1 0 0 0 0 0 0 0 0 0
Neighs:    2.0621e+06 ave 2.0621e+06 max 2.0621e+06 min
Histogram: 1 0 0 0 0 0 0 0 0 0

Total # of neighbors = 2062105
Ave neighs/atom = 104.931
Neighbor list builds = 6172
Dangerous builds not checked
Setting up Verlet run ...
  Unit style    : metal
  Current step  : 193341
  Time step     : 0.001
Per MPI rank memory allocation (min/avg/max) = 19.73 | 19.73 | 19.73 Mbytes
Step Temp Press TotEng PotEng Enthalpy 
  193341    1320.6581    980.12872    -79657.28   -83011.872   -79511.053 
  193343    1320.5918     993.8657   -79657.302   -83011.725   -79509.026 
  193836     1264.351   -664.31707   -79839.938   -83051.505   -79939.084 
Loop time of 92.5148 on 1 procs for 495 steps with 19652 atoms

Performance: 0.462 ns/day, 51.916 hours/ns, 5.350 timesteps/s
96.8% CPU use with 1 MPI tasks x no OpenMP threads

MPI task timing breakdown:
Section |  min time  |  avg time  |  max time  |%varavg| %total
---------------------------------------------------------------
Pair    | 49.617     | 49.617     | 49.617     |   0.0 | 53.63
Neigh   | 38.641     | 38.641     | 38.641     |   0.0 | 41.77
Comm    | 0.50148    | 0.50148    | 0.50148    |   0.0 |  0.54
Output  | 2.9662     | 2.9662     | 2.9662     |   0.0 |  3.21
Modify  | 0.61551    | 0.61551    | 0.61551    |   0.0 |  0.67
Other   |            | 0.1729     |            |       |  0.19

Nlocal:    19652 ave 19652 max 19652 min
Histogram: 1 0 0 0 0 0 0 0 0 0
Nghost:    20942 ave 20942 max 20942 min
Histogram: 1 0 0 0 0 0 0 0 0 0
Neighs:    2.06162e+06 ave 2.06162e+06 max 2.06162e+06 min
Histogram: 1 0 0 0 0 0 0 0 0 0

Total # of neighbors = 2061622
Ave neighs/atom = 104.906
Neighbor list builds = 495
Dangerous builds not checked
Setting up Verlet run ...
  Unit style    : metal
  Current step  : 193836
  Time step     : 0.001
Per MPI rank memory allocation (min/avg/max) = 19.73 | 19.73 | 19.73 Mbytes
Step Temp Press TotEng PotEng Enthalpy 
  193836     1264.351   -664.31707   -79839.938   -83051.505   -79939.084 
  200008    1253.4055   -1354.2245   -80006.236       -83190   -80207.929 
Loop time of 1151.31 on 1 procs for 6172 steps with 19652 atoms

Performance: 0.463 ns/day, 51.816 hours/ns, 5.361 timesteps/s
99.9% CPU use with 1 MPI tasks x no OpenMP threads

MPI task timing breakdown:
Section |  min time  |  avg time  |  max time  |%varavg| %total
---------------------------------------------------------------
Pair    | 635.6      | 635.6      | 635.6      |   0.0 | 55.21
Neigh   | 499.21     | 499.21     | 499.21     |   0.0 | 43.36
Comm    | 6.4268     | 6.4268     | 6.4268     |   0.0 |  0.56
Output  | 0.00019598 | 0.00019598 | 0.00019598 |   0.0 |  0.00
Modify  | 7.8517     | 7.8517     | 7.8517     |   0.0 |  0.68
Other   |            | 2.218      |            |       |  0.19

Nlocal:    19652 ave 19652 max 19652 min
Histogram: 1 0 0 0 0 0 0 0 0 0
Nghost:    21028 ave 21028 max 21028 min
Histogram: 1 0 0 0 0 0 0 0 0 0
Neighs:    2.0664e+06 ave 2.0664e+06 max 2.0664e+06 min
Histogram: 1 0 0 0 0 0 0 0 0 0

Total # of neighbors = 2066404
Ave neighs/atom = 105.15
Neighbor list builds = 6172
Dangerous builds not checked
Setting up Verlet run ...
  Unit style    : metal
  Current step  : 200008
  Time step     : 0.001
Per MPI rank memory allocation (min/avg/max) = 19.73 | 19.73 | 19.73 Mbytes
Step Temp Press TotEng PotEng Enthalpy 
  200008    1253.4055   -1354.2245   -80006.236       -83190   -80207.929 
  200010    1253.6867   -1345.5316    -80006.24   -83190.718   -80206.638 
  200503    1217.8207    287.47518   -80206.431   -83299.806    -80163.75 
Loop time of 85.3474 on 1 procs for 495 steps with 19652 atoms

Performance: 0.501 ns/day, 47.894 hours/ns, 5.800 timesteps/s
100.0% CPU use with 1 MPI tasks x no OpenMP threads

MPI task timing breakdown:
Section |  min time  |  avg time  |  max time  |%varavg| %total
---------------------------------------------------------------
Pair    | 46.867     | 46.867     | 46.867     |   0.0 | 54.91
Neigh   | 37.205     | 37.205     | 37.205     |   0.0 | 43.59
Comm    | 0.47902    | 0.47902    | 0.47902    |   0.0 |  0.56
Output  | 0.048799   | 0.048799   | 0.048799   |   0.0 |  0.06
Modify  | 0.58107    | 0.58107    | 0.58107    |   0.0 |  0.68
Other   |            | 0.1665     |            |       |  0.20

Nlocal:    19652 ave 19652 max 19652 min
Histogram: 1 0 0 0 0 0 0 0 0 0
Nghost:    21058 ave 21058 max 21058 min
Histogram: 1 0 0 0 0 0 0 0 0 0
Neighs:    2.07286e+06 ave 2.07286e+06 max 2.07286e+06 min
Histogram: 1 0 0 0 0 0 0 0 0 0

Total # of neighbors = 2072864
Ave neighs/atom = 105.479
Neighbor list builds = 495
Dangerous builds not checked
Setting up Verlet run ...
  Unit style    : metal
  Current step  : 200503
  Time step     : 0.001
Per MPI rank memory allocation (min/avg/max) = 19.73 | 19.73 | 19.73 Mbytes
Step Temp Press TotEng PotEng Enthalpy 
  200503    1217.8207    287.47518   -80206.431   -83299.806    -80163.75 
  206675    1205.7638    458.92911   -80394.314   -83457.064   -80326.344 
Loop time of 1141.85 on 1 procs for 6172 steps with 19652 atoms

Performance: 0.467 ns/day, 51.390 hours/ns, 5.405 timesteps/s
100.0% CPU use with 1 MPI tasks x no OpenMP threads

MPI task timing breakdown:
Section |  min time  |  avg time  |  max time  |%varavg| %total
---------------------------------------------------------------
Pair    | 632.13     | 632.13     | 632.13     |   0.0 | 55.36
Neigh   | 493.38     | 493.38     | 493.38     |   0.0 | 43.21
Comm    | 6.3773     | 6.3773     | 6.3773     |   0.0 |  0.56
Output  | 0.00025702 | 0.00025702 | 0.00025702 |   0.0 |  0.00
Modify  | 7.7623     | 7.7623     | 7.7623     |   0.0 |  0.68
Other   |            | 2.199      |            |       |  0.19

Nlocal:    19652 ave 19652 max 19652 min
Histogram: 1 0 0 0 0 0 0 0 0 0
Nghost:    21029 ave 21029 max 21029 min
Histogram: 1 0 0 0 0 0 0 0 0 0
Neighs:    2.0784e+06 ave 2.0784e+06 max 2.0784e+06 min
Histogram: 1 0 0 0 0 0 0 0 0 0

Total # of neighbors = 2078398
Ave neighs/atom = 105.76
Neighbor list builds = 6172
Dangerous builds not checked
Setting up Verlet run ...
  Unit style    : metal
  Current step  : 206675
  Time step     : 0.001
[...]
100.0% CPU use with 1 MPI tasks x no OpenMP threads

MPI task timing breakdown:
Section |  min time  |  avg time  |  max time  |%varavg| %total
---------------------------------------------------------------
Pair    | 56.652     | 56.652     | 56.652     |   0.0 | 56.54
Neigh   | 42.064     | 42.064     | 42.064     |   0.0 | 41.98
Comm    | 0.5495     | 0.5495     | 0.5495     |   0.0 |  0.55
Output  | 0.041905   | 0.041905   | 0.041905   |   0.0 |  0.04
Modify  | 0.69224    | 0.69224    | 0.69224    |   0.0 |  0.69
Other   |            | 0.1966     |            |       |  0.20

Nlocal:    19652 ave 19652 max 19652 min
Histogram: 1 0 0 0 0 0 0 0 0 0
Nghost:    21526 ave 21526 max 21526 min
Histogram: 1 0 0 0 0 0 0 0 0 0
Neighs:    2.20364e+06 ave 2.20364e+06 max 2.20364e+06 min
Histogram: 1 0 0 0 0 0 0 0 0 0

Total # of neighbors = 2203638
Ave neighs/atom = 112.133
Neighbor list builds = 495
Dangerous builds not checked
Setting up Verlet run ...
  Unit style    : metal
  Current step  : 307175
  Time step     : 0.001
Per MPI rank memory allocation (min/avg/max) = 20.11 | 20.11 | 20.11 Mbytes
Step Temp Press TotEng PotEng Enthalpy 
  307175     423.7565    784.50279   -85386.088   -86462.468   -85275.808 
  313347    396.82151   -1813.8726   -85504.048   -86512.011   -85759.217 
Loop time of 1347.68 on 1 procs for 6172 steps with 19652 atoms

Performance: 0.396 ns/day, 60.654 hours/ns, 4.580 timesteps/s
99.8% CPU use with 1 MPI tasks x no OpenMP threads

MPI task timing breakdown:
Section |  min time  |  avg time  |  max time  |%varavg| %total
---------------------------------------------------------------
Pair    | 765.98     | 765.98     | 765.98     |   0.0 | 56.84
Neigh   | 562.3      | 562.3      | 562.3      |   0.0 | 41.72
Comm    | 7.4138     | 7.4138     | 7.4138     |   0.0 |  0.55
Output  | 0.00028396 | 0.00028396 | 0.00028396 |   0.0 |  0.00
Modify  | 9.3632     | 9.3632     | 9.3632     |   0.0 |  0.69
Other   |            | 2.623      |            |       |  0.19

Nlocal:    19652 ave 19652 max 19652 min
Histogram: 1 0 0 0 0 0 0 0 0 0
Nghost:    21540 ave 21540 max 21540 min
Histogram: 1 0 0 0 0 0 0 0 0 0
Neighs:    2.2018e+06 ave 2.2018e+06 max 2.2018e+06 min
Histogram: 1 0 0 0 0 0 0 0 0 0

Total # of neighbors = 2201796
Ave neighs/atom = 112.039
Neighbor list builds = 6172
Dangerous builds not checked
Setting up Verlet run ...
  Unit style    : metal
  Current step  : 313347
  Time step     : 0.001
Per MPI rank memory allocation (min/avg/max) = 20.11 | 20.11 | 20.11 Mbytes
Step Temp Press TotEng PotEng Enthalpy 
  313347    396.82151   -1813.8726   -85504.048   -86512.011   -85759.217 
  313349    396.45949   -1782.9729   -85504.045   -86511.089   -85754.867 
  313842    374.26763    922.67686   -85649.999   -86600.673    -85520.59 
Loop time of 117.557 on 1 procs for 495 steps with 19652 atoms

Performance: 0.364 ns/day, 65.969 hours/ns, 4.211 timesteps/s
99.9% CPU use with 1 MPI tasks x no OpenMP threads

MPI task timing breakdown:
Section |  min time  |  avg time  |  max time  |%varavg| %total
---------------------------------------------------------------
Pair    | 66.781     | 66.781     | 66.781     |   0.0 | 56.81
Neigh   | 48.956     | 48.956     | 48.956     |   0.0 | 41.64
Comm    | 0.66483    | 0.66483    | 0.66483    |   0.0 |  0.57
Output  | 0.067537   | 0.067537   | 0.067537   |   0.0 |  0.06
Modify  | 0.84867    | 0.84867    | 0.84867    |   0.0 |  0.72
Other   |            | 0.2389     |            |       |  0.20

Nlocal:    19652 ave 19652 max 19652 min
Histogram: 1 0 0 0 0 0 0 0 0 0
Nghost:    21556 ave 21556 max 21556 min
Histogram: 1 0 0 0 0 0 0 0 0 0
Neighs:    2.20851e+06 ave 2.20851e+06 max 2.20851e+06 min
Histogram: 1 0 0 0 0 0 0 0 0 0

Total # of neighbors = 2208507
Ave neighs/atom = 112.381
Neighbor list builds = 495
Dangerous builds not checked
Setting up Verlet run ...
  Unit style    : metal
  Current step  : 313842
  Time step     : 0.001
Per MPI rank memory allocation (min/avg/max) = 20.11 | 20.11 | 20.11 Mbytes
Step Temp Press TotEng PotEng Enthalpy 
  313842    374.26763    922.67686   -85649.999   -86600.673    -85520.59 
  320014    351.43398    682.36508   -85766.914   -86659.589   -85671.299 
Loop time of 1433.93 on 1 procs for 6172 steps with 19652 atoms

Performance: 0.372 ns/day, 64.536 hours/ns, 4.304 timesteps/s
99.9% CPU use with 1 MPI tasks x no OpenMP threads

MPI task timing breakdown:
Section |  min time  |  avg time  |  max time  |%varavg| %total
---------------------------------------------------------------
Pair    | 819.74     | 819.74     | 819.74     |   0.0 | 57.17
Neigh   | 593.1      | 593.1      | 593.1      |   0.0 | 41.36
Comm    | 8.0672     | 8.0672     | 8.0672     |   0.0 |  0.56
Output  | 0.00020385 | 0.00020385 | 0.00020385 |   0.0 |  0.00
Modify  | 10.17      | 10.17      | 10.17      |   0.0 |  0.71
Other   |            | 2.854      |            |       |  0.20

Nlocal:    19652 ave 19652 max 19652 min
Histogram: 1 0 0 0 0 0 0 0 0 0
Nghost:    21576 ave 21576 max 21576 min
Histogram: 1 0 0 0 0 0 0 0 0 0
Neighs:    2.21122e+06 ave 2.21122e+06 max 2.21122e+06 min
Histogram: 1 0 0 0 0 0 0 0 0 0

Total # of neighbors = 2211216
Ave neighs/atom = 112.519
Neighbor list builds = 6172
Dangerous builds not checked
Setting up Verlet run ...
  Unit style    : metal
  Current step  : 320014
  Time step     : 0.001
Per MPI rank memory allocation (min/avg/max) = 20.11 | 20.11 | 20.11 Mbytes
Step Temp Press TotEng PotEng Enthalpy 
  320014    351.43398    682.36508   -85766.914   -86659.589   -85671.299 
  320016    351.49676    679.35607   -85766.916    -86659.75   -85671.722 
  320509    322.08254    387.13067   -85912.747   -86730.866   -85858.547 
Loop time of 116.366 on 1 procs for 495 steps with 19652 atoms

Performance: 0.368 ns/day, 65.301 hours/ns, 4.254 timesteps/s
99.9% CPU use with 1 MPI tasks x no OpenMP threads

MPI task timing breakdown:
Section |  min time  |  avg time  |  max time  |%varavg| %total
---------------------------------------------------------------
Pair    | 66.509     | 66.509     | 66.509     |   0.0 | 57.16
Neigh   | 48.104     | 48.104     | 48.104     |   0.0 | 41.34
Comm    | 0.64345    | 0.64345    | 0.64345    |   0.0 |  0.55
Output  | 0.063845   | 0.063845   | 0.063845   |   0.0 |  0.05
Modify  | 0.81508    | 0.81508    | 0.81508    |   0.0 |  0.70
Other   |            | 0.2305     |            |       |  0.20

Nlocal:    19652 ave 19652 max 19652 min
Histogram: 1 0 0 0 0 0 0 0 0 0
Nghost:    21564 ave 21564 max 21564 min
Histogram: 1 0 0 0 0 0 0 0 0 0
Neighs:    2.2142e+06 ave 2.2142e+06 max 2.2142e+06 min
Histogram: 1 0 0 0 0 0 0 0 0 0

Total # of neighbors = 2214203
Ave neighs/atom = 112.671
Neighbor list builds = 495
Dangerous builds not checked
Setting up Verlet run ...
  Unit style    : metal
  Current step  : 320509
  Time step     : 0.001
Per MPI rank memory allocation (min/avg/max) = 20.11 | 20.11 | 20.11 Mbytes
Step Temp Press TotEng PotEng Enthalpy 
  320509    322.08254    387.13067   -85912.747   -86730.866   -85858.547 
  326681    301.13806    -921.1858   -86026.793   -86791.711   -86155.716 
Loop time of 1403.12 on 1 procs for 6172 steps with 19652 atoms

Performance: 0.380 ns/day, 63.149 hours/ns, 4.399 timesteps/s
99.9% CPU use with 1 MPI tasks x no OpenMP threads

MPI task timing breakdown:
Section |  min time  |  avg time  |  max time  |%varavg| %total
---------------------------------------------------------------
Pair    | 801.17     | 801.17     | 801.17     |   0.0 | 57.10
Neigh   | 581.52     | 581.52     | 581.52     |   0.0 | 41.44
Comm    | 7.798      | 7.798      | 7.798      |   0.0 |  0.56
Output  | 0.00021911 | 0.00021911 | 0.00021911 |   0.0 |  0.00
Modify  | 9.8631     | 9.8631     | 9.8631     |   0.0 |  0.70
Other   |            | 2.769      |            |       |  0.20

Nlocal:    19652 ave 19652 max 19652 min
Histogram: 1 0 0 0 0 0 0 0 0 0
Nghost:    21531 ave 21531 max 21531 min
Histogram: 1 0 0 0 0 0 0 0 0 0
Neighs:    2.2153e+06 ave 2.2153e+06 max 2.2153e+06 min
Histogram: 1 0 0 0 0 0 0 0 0 0

Total # of neighbors = 2215296
Ave neighs/atom = 112.726
Neighbor list builds = 6172
Dangerous builds not checked
Setting up Verlet run ...
  Unit style    : metal
  Current step  : 326681
  Time step     : 0.001
Per MPI rank memory allocation (min/avg/max) = 20.11 | 20.11 | 20.11 Mbytes
Step Temp Press TotEng PotEng Enthalpy 
  326681    301.13806    -921.1858   -86026.793   -86791.711   -86155.716 
  326683    300.97002   -899.75598   -86026.794   -86791.285   -86152.718 
  327176     273.4853   -254.64995   -86169.425   -86864.103    -86205.01 
Loop time of 112.988 on 1 procs for 495 steps with 19652 atoms

Performance: 0.379 ns/day, 63.405 hours/ns, 4.381 timesteps/s
99.9% CPU use with 1 MPI tasks x no OpenMP threads

MPI task timing breakdown:
Section |  min time  |  avg time  |  max time  |%varavg| %total
---------------------------------------------------------------
Pair    | 64.435     | 64.435     | 64.435     |   0.0 | 57.03
Neigh   | 46.793     | 46.793     | 46.793     |   0.0 | 41.41
Comm    | 0.6306     | 0.6306     | 0.6306     |   0.0 |  0.56
Output  | 0.11823    | 0.11823    | 0.11823    |   0.0 |  0.10
Modify  | 0.78925    | 0.78925    | 0.78925    |   0.0 |  0.70
Other   |            | 0.2213     |            |       |  0.20

Nlocal:    19652 ave 19652 max 19652 min
Histogram: 1 0 0 0 0 0 0 0 0 0
Nghost:    21565 ave 21565 max 21565 min
Histogram: 1 0 0 0 0 0 0 0 0 0
Neighs:    2.21896e+06 ave 2.21896e+06 max 2.21896e+06 min
Histogram: 1 0 0 0 0 0 0 0 0 0

Total # of neighbors = 2218959
Ave neighs/atom = 112.913
Neighbor list builds = 495
Dangerous builds not checked
Setting up Verlet run ...
  Unit style    : metal
  Current step  : 327176
  Time step     : 0.001
Per MPI rank memory allocation (min/avg/max) = 20.11 | 20.11 | 20.11 Mbytes
Step Temp Press TotEng PotEng Enthalpy 
  327176     273.4853   -254.64995   -86169.425   -86864.103    -86205.01 
  333348    246.58898    181.62313    -86302.78   -86929.138   -86277.432 
Loop time of 1395.18 on 1 procs for 6172 steps with 19652 atoms

Performance: 0.382 ns/day, 62.792 hours/ns, 4.424 timesteps/s
99.9% CPU use with 1 MPI tasks x no OpenMP threads

MPI task timing breakdown:
Section |  min time  |  avg time  |  max time  |%varavg| %total
---------------------------------------------------------------
Pair    | 796.27     | 796.27     | 796.27     |   0.0 | 57.07
Neigh   | 578.73     | 578.73     | 578.73     |   0.0 | 41.48
Comm    | 7.6915     | 7.6915     | 7.6915     |   0.0 |  0.55
Output  | 0.00024891 | 0.00024891 | 0.00024891 |   0.0 |  0.00
Modify  | 9.7642     | 9.7642     | 9.7642     |   0.0 |  0.70
Other   |            | 2.727      |            |       |  0.20

Nlocal:    19652 ave 19652 max 19652 min
Histogram: 1 0 0 0 0 0 0 0 0 0
Nghost:    21580 ave 21580 max 21580 min
Histogram: 1 0 0 0 0 0 0 0 0 0
Neighs:    2.22221e+06 ave 2.22221e+06 max 2.22221e+06 min
Histogram: 1 0 0 0 0 0 0 0 0 0

Total # of neighbors = 2222208
Ave neighs/atom = 113.078
Neighbor list builds = 6172
Dangerous builds not checked
Setting up Verlet run ...
  Unit style    : metal
  Current step  : 333348
  Time step     : 0.001
Per MPI rank memory allocation (min/avg/max) = 20.11 | 20.11 | 20.11 Mbytes
Step Temp Press TotEng PotEng Enthalpy 
  333348    246.58898    181.62313    -86302.78   -86929.138   -86277.432 
  333350    246.55495    183.74452   -86302.777   -86929.049   -86277.133 
  333843    224.05505    206.15589   -86427.124   -86996.244   -86398.386 
Loop time of 109.753 on 1 procs for 495 steps with 19652 atoms

Performance: 0.390 ns/day, 61.590 hours/ns, 4.510 timesteps/s
99.7% CPU use with 1 MPI tasks x no OpenMP threads

MPI task timing breakdown:
Section |  min time  |  avg time  |  max time  |%varavg| %total
---------------------------------------------------------------
Pair    | 62.293     | 62.293     | 62.293     |   0.0 | 56.76
Neigh   | 45.752     | 45.752     | 45.752     |   0.0 | 41.69
Comm    | 0.60254    | 0.60254    | 0.60254    |   0.0 |  0.55
Output  | 0.12178    | 0.12178    | 0.12178    |   0.0 |  0.11
Modify  | 0.76883    | 0.76883    | 0.76883    |   0.0 |  0.70
Other   |            | 0.2153     |            |       |  0.20

Nlocal:    19652 ave 19652 max 19652 min
Histogram: 1 0 0 0 0 0 0 0 0 0
Nghost:    21621 ave 21621 max 21621 min
Histogram: 1 0 0 0 0 0 0 0 0 0
Neighs:    2.22559e+06 ave 2.22559e+06 max 2.22559e+06 min
Histogram: 1 0 0 0 0 0 0 0 0 0

Total # of neighbors = 2225593
Ave neighs/atom = 113.25
Neighbor list builds = 495
Dangerous builds not checked
Setting up Verlet run ...
  Unit style    : metal
  Current step  : 333843
  Time step     : 0.001
Per MPI rank memory allocation (min/avg/max) = 20.11 | 20.11 | 20.11 Mbytes
Step Temp Press TotEng PotEng Enthalpy 
  333843    224.05505    206.15589   -86427.124   -86996.244   -86398.386 
  340015    200.14052   -498.33401    -86548.85   -87057.225   -86618.272 
Loop time of 1426.5 on 1 procs for 6172 steps with 19652 atoms

Performance: 0.374 ns/day, 64.201 hours/ns, 4.327 timesteps/s
99.7% CPU use with 1 MPI tasks x no OpenMP threads

MPI task timing breakdown:
Section |  min time  |  avg time  |  max time  |%varavg| %total
---------------------------------------------------------------
Pair    | 816.17     | 816.17     | 816.17     |   0.0 | 57.22
Neigh   | 589.7      | 589.7      | 589.7      |   0.0 | 41.34
Comm    | 7.8512     | 7.8512     | 7.8512     |   0.0 |  0.55
Output  | 0.00037599 | 0.00037599 | 0.00037599 |   0.0 |  0.00
Modify  | 10.001     | 10.001     | 10.001     |   0.0 |  0.70
Other   |            | 2.776      |            |       |  0.19

Nlocal:    19652 ave 19652 max 19652 min
Histogram: 1 0 0 0 0 0 0 0 0 0
Nghost:    21628 ave 21628 max 21628 min
Histogram: 1 0 0 0 0 0 0 0 0 0
Neighs:    2.22728e+06 ave 2.22728e+06 max 2.22728e+06 min
Histogram: 1 0 0 0 0 0 0 0 0 0

Total # of neighbors = 2227280
Ave neighs/atom = 113.336
Neighbor list builds = 6172
Dangerous builds not checked
Setting up Verlet run ...
  Unit style    : metal
  Current step  : 340015
  Time step     : 0.001
Per MPI rank memory allocation (min/avg/max) = 20.11 | 20.11 | 20.11 Mbytes
Step Temp Press TotEng PotEng Enthalpy 
  340015    200.14052   -498.33401    -86548.85   -87057.225   -86618.272 
  340017    199.99824    -484.9487    -86548.85   -87056.864   -86616.407 
  340510    176.47438   -514.57572   -86678.441   -87126.702   -86750.043 
Loop time of 115.27 on 1 procs for 495 steps with 19652 atoms

Performance: 0.371 ns/day, 64.686 hours/ns, 4.294 timesteps/s
99.8% CPU use with 1 MPI tasks x no OpenMP threads

MPI task timing breakdown:
Section |  min time  |  avg time  |  max time  |%varavg| %total
---------------------------------------------------------------
Pair    | 65.773     | 65.773     | 65.773     |   0.0 | 57.06
Neigh   | 47.734     | 47.734     | 47.734     |   0.0 | 41.41
Comm    | 0.64108    | 0.64108    | 0.64108    |   0.0 |  0.56
Output  | 0.066149   | 0.066149   | 0.066149   |   0.0 |  0.06
Modify  | 0.82752    | 0.82752    | 0.82752    |   0.0 |  0.72
Other   |            | 0.2281     |            |       |  0.20

Nlocal:    19652 ave 19652 max 19652 min
Histogram: 1 0 0 0 0 0 0 0 0 0
Nghost:    21627 ave 21627 max 21627 min
Histogram: 1 0 0 0 0 0 0 0 0 0
Neighs:    2.23072e+06 ave 2.23072e+06 max 2.23072e+06 min
Histogram: 1 0 0 0 0 0 0 0 0 0

Total # of neighbors = 2230722
Ave neighs/atom = 113.511
Neighbor list builds = 495
Dangerous builds not checked
Setting up Verlet run ...
  Unit style    : metal
  Current step  : 340510
  Time step     : 0.001
Per MPI rank memory allocation (min/avg/max) = 20.11 | 20.11 | 20.11 Mbytes
Step Temp Press TotEng PotEng Enthalpy 
  340510    176.47438   -514.57572   -86678.441   -87126.702   -86750.043 
  346682    150.30201     302.2526   -86807.007   -87188.788   -86765.012 
Loop time of 1429.82 on 1 procs for 6172 steps with 19652 atoms

Performance: 0.373 ns/day, 64.351 hours/ns, 4.317 timesteps/s
99.8% CPU use with 1 MPI tasks x no OpenMP threads

MPI task timing breakdown:
Section |  min time  |  avg time  |  max time  |%varavg| %total
---------------------------------------------------------------
Pair    | 822.23     | 822.23     | 822.23     |   0.0 | 57.51
Neigh   | 586.98     | 586.98     | 586.98     |   0.0 | 41.05
Comm    | 7.8136     | 7.8136     | 7.8136     |   0.0 |  0.55
Output  | 0.00026298 | 0.00026298 | 0.00026298 |   0.0 |  0.00
Modify  | 9.9852     | 9.9852     | 9.9852     |   0.0 |  0.70
Other   |            | 2.809      |            |       |  0.20

Nlocal:    19652 ave 19652 max 19652 min
Histogram: 1 0 0 0 0 0 0 0 0 0
Nghost:    21625 ave 21625 max 21625 min
Histogram: 1 0 0 0 0 0 0 0 0 0
Neighs:    2.23419e+06 ave 2.23419e+06 max 2.23419e+06 min
Histogram: 1 0 0 0 0 0 0 0 0 0

Total # of neighbors = 2234193
Ave neighs/atom = 113.688
Neighbor list builds = 6172
Dangerous builds not checked
Setting up Verlet run ...
  Unit style    : metal
  Current step  : 346682
  Time step     : 0.001
Per MPI rank memory allocation (min/avg/max) = 20.11 | 20.11 | 20.11 Mbytes
Step Temp Press TotEng PotEng Enthalpy 
  346682    150.30201     302.2526   -86807.007   -87188.788   -86765.012 
  346684    150.34709    296.46989   -86807.008   -87188.903   -86765.816 
  347177    127.26023   -414.53957   -86929.231   -87252.484   -86986.795 
Loop time of 114.444 on 1 procs for 495 steps with 19652 atoms

Performance: 0.374 ns/day, 64.222 hours/ns, 4.325 timesteps/s
99.7% CPU use with 1 MPI tasks x no OpenMP threads

MPI task timing breakdown:
Section |  min time  |  avg time  |  max time  |%varavg| %total
---------------------------------------------------------------
Pair    | 65.675     | 65.675     | 65.675     |   0.0 | 57.39
Neigh   | 47.038     | 47.038     | 47.038     |   0.0 | 41.10
Comm    | 0.62549    | 0.62549    | 0.62549    |   0.0 |  0.55
Output  | 0.064571   | 0.064571   | 0.064571   |   0.0 |  0.06
Modify  | 0.81798    | 0.81798    | 0.81798    |   0.0 |  0.71
Other   |            | 0.2235     |            |       |  0.20

Nlocal:    19652 ave 19652 max 19652 min
Histogram: 1 0 0 0 0 0 0 0 0 0
Nghost:    21638 ave 21638 max 21638 min
Histogram: 1 0 0 0 0 0 0 0 0 0
Neighs:    2.23617e+06 ave 2.23617e+06 max 2.23617e+06 min
Histogram: 1 0 0 0 0 0 0 0 0 0

Total # of neighbors = 2236168
Ave neighs/atom = 113.788
Neighbor list builds = 495
Dangerous builds not checked
Setting up Verlet run ...
  Unit style    : metal
  Current step  : 347177
  Time step     : 0.001
Per MPI rank memory allocation (min/avg/max) = 20.11 | 20.11 | 20.11 Mbytes
Step Temp Press TotEng PotEng Enthalpy 
  347177    127.26023   -414.53957   -86929.231   -87252.484   -86986.795 
  353349    100.31573    643.99533   -87065.583   -87320.394   -86976.307 
Loop time of 1427.33 on 1 procs for 6172 steps with 19652 atoms

Performance: 0.374 ns/day, 64.238 hours/ns, 4.324 timesteps/s
99.4% CPU use with 1 MPI tasks x no OpenMP threads

MPI task timing breakdown:
Section |  min time  |  avg time  |  max time  |%varavg| %total
---------------------------------------------------------------
Pair    | 819.62     | 819.62     | 819.62     |   0.0 | 57.42
Neigh   | 586.84     | 586.84     | 586.84     |   0.0 | 41.11
Comm    | 7.9747     | 7.9747     | 7.9747     |   0.0 |  0.56
Output  | 0.00022697 | 0.00022697 | 0.00022697 |   0.0 |  0.00
Modify  | 10.08      | 10.08      | 10.08      |   0.0 |  0.71
Other   |            | 2.819      |            |       |  0.20

Nlocal:    19652 ave 19652 max 19652 min
Histogram: 1 0 0 0 0 0 0 0 0 0
Nghost:    21657 ave 21657 max 21657 min
Histogram: 1 0 0 0 0 0 0 0 0 0
Neighs:    2.24056e+06 ave 2.24056e+06 max 2.24056e+06 min
Histogram: 1 0 0 0 0 0 0 0 0 0

Total # of neighbors = 2240558
Ave neighs/atom = 114.012
Neighbor list builds = 6172
Dangerous builds not checked
Total wall time: 19:08:18
