LAMMPS (12 Dec 2018)
Lattice spacing in x,y,z = 4 4 4
Created orthogonal box = (0 0 0) to (68 68 68)
  1 by 1 by 1 MPI processor grid
Created 19652 atoms
  Time spent = 0.00394511 secs
Setting atom values ...
  19480 settings made for type/fraction
Neighbor list info ...
  update every 1 steps, delay 0 steps, check no
  max neighbors/atom: 2000, page size: 100000
  master list distance cutoff = 8.5
  ghost atom cutoff = 8.5
  binsize = 4.25, bins = 16 16 16
  1 neighbor lists, perpetual/occasional/extra = 1 0 0
  (1) pair eam/alloy, perpetual
      attributes: half, newton on
      pair build: half/bin/atomonly/newton
      stencil: half/bin/3d/newton
      bin: standard
Setting up Verlet run ...
  Unit style    : metal
  Current step  : 0
  Time step     : 0.001
Per MPI rank memory allocation (min/avg/max) = 18.19 | 18.19 | 18.19 Mbytes
Step Temp Press TotEng PotEng Enthalpy Volume 
       0          300    644501.64   -38570.515   -39332.543    87914.888       314432 
     667    864.56051    633877.71   -38570.704   -40766.766     85829.72       314432 
    1000    889.23201    634092.97   -38570.723   -40829.453    85871.947       314432 
Loop time of 126.661 on 1 procs for 1000 steps with 19652 atoms

Performance: 0.682 ns/day, 35.184 hours/ns, 7.895 timesteps/s
99.8% CPU use with 1 MPI tasks x no OpenMP threads

MPI task timing breakdown:
Section |  min time  |  avg time  |  max time  |%varavg| %total
---------------------------------------------------------------
Pair    | 69.89      | 69.89      | 69.89      |   0.0 | 55.18
Neigh   | 55.222     | 55.222     | 55.222     |   0.0 | 43.60
Comm    | 0.9024     | 0.9024     | 0.9024     |   0.0 |  0.71
Output  | 0.055806   | 0.055806   | 0.055806   |   0.0 |  0.04
Modify  | 0.30424    | 0.30424    | 0.30424    |   0.0 |  0.24
Other   |            | 0.2868     |            |       |  0.23

Nlocal:    19652 ave 19652 max 19652 min
Histogram: 1 0 0 0 0 0 0 0 0 0
Nghost:    18825 ave 18825 max 18825 min
Histogram: 1 0 0 0 0 0 0 0 0 0
Neighs:    1.5829e+06 ave 1.5829e+06 max 1.5829e+06 min
Histogram: 1 0 0 0 0 0 0 0 0 0

Total # of neighbors = 1582895
Ave neighs/atom = 80.5463
Neighbor list builds = 1000
Dangerous builds not checked
Setting up Verlet run ...
  Unit style    : metal
  Current step  : 1000
  Time step     : 0.001
Per MPI rank memory allocation (min/avg/max) = 18.19 | 18.19 | 18.19 Mbytes
Step Temp Press TotEng PotEng Enthalpy Volume 
    1000    889.23201    634092.97   -38570.723   -40829.453    85871.947       314432 
    1334    653.14734    104767.53   -74567.328   -76226.382   -40943.621    514196.64 
    2000    350.13994   -57.260063   -81227.486   -82116.873   -81250.688    649223.89 
Loop time of 90.2597 on 1 procs for 1000 steps with 19652 atoms

Performance: 0.957 ns/day, 25.072 hours/ns, 11.079 timesteps/s
100.0% CPU use with 1 MPI tasks x no OpenMP threads

MPI task timing breakdown:
Section |  min time  |  avg time  |  max time  |%varavg| %total
---------------------------------------------------------------
Pair    | 45.557     | 45.557     | 45.557     |   0.0 | 50.47
Neigh   | 42.401     | 42.401     | 42.401     |   0.0 | 46.98
Comm    | 0.82554    | 0.82554    | 0.82554    |   0.0 |  0.91
Output  | 0.055092   | 0.055092   | 0.055092   |   0.0 |  0.06
Modify  | 1.1203     | 1.1203     | 1.1203     |   0.0 |  1.24
Other   |            | 0.3015     |            |       |  0.33

Nlocal:    19652 ave 19652 max 19652 min
Histogram: 1 0 0 0 0 0 0 0 0 0
Nghost:    13977 ave 13977 max 13977 min
Histogram: 1 0 0 0 0 0 0 0 0 0
Neighs:    721879 ave 721879 max 721879 min
Histogram: 1 0 0 0 0 0 0 0 0 0

Total # of neighbors = 721879
Ave neighs/atom = 36.7331
Neighbor list builds = 1000
Dangerous builds not checked
Setting up Verlet run ...
  Unit style    : metal
  Current step  : 2000
  Time step     : 0.001
Per MPI rank memory allocation (min/avg/max) = 18.2 | 18.2 | 18.2 Mbytes
Step Temp Press TotEng PotEng Enthalpy Volume 
    2000    350.13994   -57.260063   -81227.486   -82116.873   -81250.688    649223.89 
    2001    350.65365   -55.101488     -81227.5   -82118.193   -81249.828    649223.85 
    2668    425.86503    75.592811   -81137.475   -82219.211   -81106.811    649935.23 
    3335    603.03814   -92.018389   -80368.346   -81900.118    -80405.87    653353.15 
    4002    798.19441    292.14408    -79359.82   -81387.307   -79240.071    656729.95 
    4669    996.53333     573.6407   -78321.911   -80853.196   -78085.457    660416.18 
    5336    1173.0865   -158.88846   -77273.992   -80253.738   -77340.061    666220.24 
    6003     1344.624   -309.79675   -76179.274   -79594.741   -76309.047    671147.88 
    6670    1524.1833   -580.82974   -74983.617   -78855.181   -75229.022    676931.94 
    7337    1721.9825   -484.37597   -73716.597   -78090.589   -73923.085    683003.87 
    8004    1910.2677   -422.08864   -72491.038   -77343.292   -72672.461    688650.68 
    8671    2083.5288   -723.66262   -71305.734   -76598.087   -71619.845    695436.73 
    9338    2263.7491   -164.97453   -70151.039   -75901.168   -70223.141    700221.69 
   10000     2439.547   -42.430829   -69093.624   -75290.295   -69112.296    705051.62 
Loop time of 616.276 on 1 procs for 8000 steps with 19652 atoms

Performance: 1.122 ns/day, 21.398 hours/ns, 12.981 timesteps/s
99.9% CPU use with 1 MPI tasks x no OpenMP threads

MPI task timing breakdown:
Section |  min time  |  avg time  |  max time  |%varavg| %total
---------------------------------------------------------------
Pair    | 295.86     | 295.86     | 295.86     |   0.0 | 48.01
Neigh   | 301.47     | 301.47     | 301.47     |   0.0 | 48.92
Comm    | 6.4246     | 6.4246     | 6.4246     |   0.0 |  1.04
Output  | 0.93494    | 0.93494    | 0.93494    |   0.0 |  0.15
Modify  | 9.0818     | 9.0818     | 9.0818     |   0.0 |  1.47
Other   |            | 2.505      |            |       |  0.41

Nlocal:    19652 ave 19652 max 19652 min
Histogram: 1 0 0 0 0 0 0 0 0 0
Nghost:    13546 ave 13546 max 13546 min
Histogram: 1 0 0 0 0 0 0 0 0 0
Neighs:    684483 ave 684483 max 684483 min
Histogram: 1 0 0 0 0 0 0 0 0 0

Total # of neighbors = 684483
Ave neighs/atom = 34.8302
Neighbor list builds = 8000
Dangerous builds not checked
Setting up Verlet run ...
  Unit style    : metal
  Current step  : 10000
  Time step     : 0.001
Per MPI rank memory allocation (min/avg/max) = 18.2 | 18.2 | 18.2 Mbytes
Step Temp Press TotEng PotEng Enthalpy Volume 
   10000     2439.547   -42.430829   -69093.624   -75290.295   -69112.296    705051.62 
   10005    2440.5105   -78.680442   -69093.561    -75292.68   -69128.185    705051.48 
   10672    2470.7356    196.05655    -68836.59   -75112.483   -68750.186    706093.48 
   11339    2459.6605    514.23659   -68890.705   -75138.467   -68664.406     705067.7 
   12006    2471.4627    101.91484   -68907.648   -75185.389   -68862.782    705332.05 
   12673    2437.8994   -441.24123   -68855.908   -75048.395   -69050.734    707425.81 
   13340     2485.108   -963.63592   -68863.283   -75175.684   -69289.218    708175.16 
   14007    2440.5379   -635.42348   -68976.659   -75175.848   -69257.177    707306.28 
   14674    2423.6132   -291.31314   -69000.162    -75156.36   -69128.663    706738.14 
   15341    2467.1792    334.72657   -68908.267   -75175.127   -68760.847    705627.51 
   16008     2445.705   -25.856865   -68918.978   -75131.291   -68930.373    706056.21 
   16675    2431.2362   -188.41712   -68966.625   -75142.186    -69049.71    706507.27 
   17342    2456.7895    46.041735    -68914.03   -75154.499   -68893.747    705827.93 
   18009    2441.0974   -93.906806   -68994.797   -75195.407   -69036.117    704971.46 
   18676    2453.1813    37.507204   -68949.802   -75181.106   -68933.288    705415.14 
   19343    2464.5482    213.80777    -68945.37   -75205.548   -68851.263    705198.93 
   20010    2457.8184    482.78226   -68935.615   -75178.698   -68723.214    704879.82 
   20677    2445.7409    240.26729   -68899.182   -75111.587   -68793.353    705698.83 
   21344    2468.9351    61.287169   -68861.566   -75132.886   -68834.556    706080.93 
   22011    2492.6046    507.88197   -68873.773   -75205.216   -68650.238    705170.67 
   22678    2447.3241    175.11783   -68930.374   -75146.801    -68853.27     705439.2 
   23345    2459.0354    633.68861   -69031.465   -75277.639   -68753.214    703510.25 
   24012    2438.0514    1053.2695   -68970.621   -75163.494   -68508.519    702924.49 
   24679     2454.995    624.65112   -68959.495   -75195.406   -68684.773    704638.49 
   25346    2464.5732    399.20767   -68950.193   -75210.433   -68774.679    704404.15 
   26013    2457.6112    509.45345   -68962.283    -75204.84   -68738.236    704603.88 
   26680    2437.0011    190.50028   -68971.413   -75161.617    -68887.52    705565.98 
   27347    2445.9209   -151.65816   -68968.169   -75181.031   -69035.011    706139.15 
   28014    2466.5936    54.120918   -68911.011   -75176.383   -68887.168    705818.91 
   28681    2434.6367   -194.19875   -68919.686   -75103.885    -69005.33    706579.02 
   29348    2438.1948   -344.43718    -68847.48   -75040.717   -68999.563    707426.87 
   30015    2439.9534    -611.0245   -68879.217   -75076.921   -69149.239    708027.57 
   30682    2445.4446    -192.1443   -68901.668   -75113.321   -68986.421     706704.4 
   31349    2435.8739   -448.57071   -68926.569   -75113.911   -69124.619    707381.75 
   32016    2443.8611   -610.35531   -68975.705   -75183.334   -69245.088    707127.73 
   32683    2429.9088   -448.37902   -68975.879   -75148.069   -69173.851    707405.58 
   33350    2441.9257   -302.40845   -68948.484   -75151.198   -69081.887    706775.26 
   34017    2451.4676   -50.972993   -68942.488   -75169.439   -68964.953    706106.81 
   34684    2428.1693   -619.21655   -69050.597   -75218.369   -69323.747    706754.29 
   35351    2418.4047   -902.78353   -69015.262   -75158.231   -69413.987    707620.11 
   36018    2475.0776   -630.56657   -68825.374   -75112.297   -69104.152    708332.41 
   36685    2448.4331   -916.69309   -69006.135   -75225.378   -69411.036    707676.69 
   37352    2454.9158   -594.66325    -68937.49     -75173.2   -69200.171    707730.15 
   38019    2439.4003   -503.76643   -68981.792   -75178.091     -69204.1    707028.14 
   38686    2463.8034   -565.27394   -68887.058   -75145.343   -69136.851    707996.65 
   39353    2479.5119   -368.93778   -68877.655   -75175.841   -69040.458    707001.31 
   40000     2457.214    164.00241   -68927.496   -75169.044   -68855.253    705759.91 
Loop time of 2193.76 on 1 procs for 30000 steps with 19652 atoms

Performance: 1.182 ns/day, 20.313 hours/ns, 13.675 timesteps/s
99.8% CPU use with 1 MPI tasks x no OpenMP threads

MPI task timing breakdown:
Section |  min time  |  avg time  |  max time  |%varavg| %total
---------------------------------------------------------------
Pair    | 1022.4     | 1022.4     | 1022.4     |   0.0 | 46.60
Neigh   | 1103.4     | 1103.4     | 1103.4     |   0.0 | 50.30
Comm    | 22.713     | 22.713     | 22.713     |   0.0 |  1.04
Output  | 3.9876     | 3.9876     | 3.9876     |   0.0 |  0.18
Modify  | 32.331     | 32.331     | 32.331     |   0.0 |  1.47
Other   |            | 8.939      |            |       |  0.41

Nlocal:    19652 ave 19652 max 19652 min
Histogram: 1 0 0 0 0 0 0 0 0 0
Nghost:    13588 ave 13588 max 13588 min
Histogram: 1 0 0 0 0 0 0 0 0 0
Neighs:    684252 ave 684252 max 684252 min
Histogram: 1 0 0 0 0 0 0 0 0 0

Total # of neighbors = 684252
Ave neighs/atom = 34.8184
Neighbor list builds = 30000
Dangerous builds not checked
Setting up Verlet run ...
  Unit style    : metal
  Current step  : 40000
  Time step     : 0.001
Per MPI rank memory allocation (min/avg/max) = 18.2 | 18.2 | 18.2 Mbytes
Step Temp Press TotEng PotEng Enthalpy Volume 
   40000     2457.214    164.00241   -68927.496   -75169.044   -68855.253    705759.91 
   40020    2452.7605      230.905    -68928.19   -75158.425   -68826.475    705768.78 
   40495    2406.4279    398.86083    -69194.95   -75307.496   -69019.777    703651.47 
Loop time of 36.2875 on 1 procs for 495 steps with 19652 atoms

Performance: 1.179 ns/day, 20.363 hours/ns, 13.641 timesteps/s
99.9% CPU use with 1 MPI tasks x no OpenMP threads

MPI task timing breakdown:
Section |  min time  |  avg time  |  max time  |%varavg| %total
---------------------------------------------------------------
Pair    | 16.816     | 16.816     | 16.816     |   0.0 | 46.34
Neigh   | 18.344     | 18.344     | 18.344     |   0.0 | 50.55
Comm    | 0.37485    | 0.37485    | 0.37485    |   0.0 |  1.03
Output  | 0.0615     | 0.0615     | 0.0615     |   0.0 |  0.17
Modify  | 0.54968    | 0.54968    | 0.54968    |   0.0 |  1.51
Other   |            | 0.1421     |            |       |  0.39

Nlocal:    19652 ave 19652 max 19652 min
Histogram: 1 0 0 0 0 0 0 0 0 0
Nghost:    13520 ave 13520 max 13520 min
Histogram: 1 0 0 0 0 0 0 0 0 0
Neighs:    686022 ave 686022 max 686022 min
Histogram: 1 0 0 0 0 0 0 0 0 0

Total # of neighbors = 686022
Ave neighs/atom = 34.9085
Neighbor list builds = 495
Dangerous builds not checked
Setting up Verlet run ...
  Unit style    : metal
  Current step  : 40495
  Time step     : 0.001
Per MPI rank memory allocation (min/avg/max) = 18.2 | 18.2 | 18.2 Mbytes
Step Temp Press TotEng PotEng Enthalpy Volume 
   40495    2406.4279    398.86083    -69194.95   -75307.496   -69019.777    703651.47 
   40667    2404.6464   -98.667952   -69204.464   -75312.485   -69247.863    704719.85 
Loop time of 11.1298 on 1 procs for 172 steps with 19652 atoms

Performance: 1.335 ns/day, 17.974 hours/ns, 15.454 timesteps/s
100.0% CPU use with 1 MPI tasks x no OpenMP threads

MPI task timing breakdown:
Section |  min time  |  avg time  |  max time  |%varavg| %total
---------------------------------------------------------------
Pair    | 5.0297     | 5.0297     | 5.0297     |   0.0 | 45.19
Neigh   | 5.7795     | 5.7795     | 5.7795     |   0.0 | 51.93
Comm    | 0.1105     | 0.1105     | 0.1105     |   0.0 |  0.99
Output  | 0.00013399 | 0.00013399 | 0.00013399 |   0.0 |  0.00
Modify  | 0.16735    | 0.16735    | 0.16735    |   0.0 |  1.50
Other   |            | 0.04263    |            |       |  0.38

Nlocal:    19652 ave 19652 max 19652 min
Histogram: 1 0 0 0 0 0 0 0 0 0
Nghost:    13553 ave 13553 max 13553 min
Histogram: 1 0 0 0 0 0 0 0 0 0
Neighs:    685148 ave 685148 max 685148 min
Histogram: 1 0 0 0 0 0 0 0 0 0

Total # of neighbors = 685148
Ave neighs/atom = 34.864
Neighbor list builds = 172
Dangerous builds not checked
Setting up Verlet run ...
  Unit style    : metal
  Current step  : 40667
  Time step     : 0.001
Per MPI rank memory allocation (min/avg/max) = 18.2 | 18.2 | 18.2 Mbytes
Step Temp Press TotEng PotEng Enthalpy Volume 
   40667    2404.6464   -98.667952   -69204.464   -75312.485   -69247.863    704719.85 
   40687     2413.586   -155.95364   -69205.315   -75336.043   -69273.911    704714.63 
   41162    2357.5016   -201.16786   -69436.385   -75424.654   -69524.795    704129.48 
Loop time of 34.4272 on 1 procs for 495 steps with 19652 atoms

Performance: 1.242 ns/day, 19.319 hours/ns, 14.378 timesteps/s
99.9% CPU use with 1 MPI tasks x no OpenMP threads

MPI task timing breakdown:
Section |  min time  |  avg time  |  max time  |%varavg| %total
---------------------------------------------------------------
Pair    | 15.79      | 15.79      | 15.79      |   0.0 | 45.87
Neigh   | 17.572     | 17.572     | 17.572     |   0.0 | 51.04
Comm    | 0.34726    | 0.34726    | 0.34726    |   0.0 |  1.01
Output  | 0.061328   | 0.061328   | 0.061328   |   0.0 |  0.18
Modify  | 0.52373    | 0.52373    | 0.52373    |   0.0 |  1.52
Other   |            | 0.1329     |            |       |  0.39

Nlocal:    19652 ave 19652 max 19652 min
Histogram: 1 0 0 0 0 0 0 0 0 0
Nghost:    13521 ave 13521 max 13521 min
Histogram: 1 0 0 0 0 0 0 0 0 0
Neighs:    685071 ave 685071 max 685071 min
Histogram: 1 0 0 0 0 0 0 0 0 0

Total # of neighbors = 685071
Ave neighs/atom = 34.8601
Neighbor list builds = 495
Dangerous builds not checked
Setting up Verlet run ...
  Unit style    : metal
  Current step  : 41162
  Time step     : 0.001
Per MPI rank memory allocation (min/avg/max) = 18.2 | 18.2 | 18.2 Mbytes
Step Temp Press TotEng PotEng Enthalpy Volume 
   41162    2357.5016   -201.16786   -69436.385   -75424.654   -69524.795    704129.48 
   41334    2341.1466   -306.46202   -69525.875     -75472.6   -69660.408    703338.47 
Loop time of 11.2815 on 1 procs for 172 steps with 19652 atoms

Performance: 1.317 ns/day, 18.219 hours/ns, 15.246 timesteps/s
100.0% CPU use with 1 MPI tasks x no OpenMP threads

MPI task timing breakdown:
Section |  min time  |  avg time  |  max time  |%varavg| %total
---------------------------------------------------------------
Pair    | 5.1192     | 5.1192     | 5.1192     |   0.0 | 45.38
Neigh   | 5.8309     | 5.8309     | 5.8309     |   0.0 | 51.69
Comm    | 0.11403    | 0.11403    | 0.11403    |   0.0 |  1.01
Output  | 0.00012708 | 0.00012708 | 0.00012708 |   0.0 |  0.00
Modify  | 0.17315    | 0.17315    | 0.17315    |   0.0 |  1.53
Other   |            | 0.04401    |            |       |  0.39

Nlocal:    19652 ave 19652 max 19652 min
Histogram: 1 0 0 0 0 0 0 0 0 0
Nghost:    13608 ave 13608 max 13608 min
Histogram: 1 0 0 0 0 0 0 0 0 0
Neighs:    686412 ave 686412 max 686412 min
Histogram: 1 0 0 0 0 0 0 0 0 0

Total # of neighbors = 686412
Ave neighs/atom = 34.9284
Neighbor list builds = 172
Dangerous builds not checked
Setting up Verlet run ...
  Unit style    : metal
  Current step  : 41334
  Time step     : 0.001
Per MPI rank memory allocation (min/avg/max) = 18.2 | 18.2 | 18.2 Mbytes
Step Temp Press TotEng PotEng Enthalpy Volume 
   41334    2341.1466   -306.46202   -69525.875     -75472.6   -69660.408    703338.47 
   41354    2353.1105    -308.2125   -69525.422   -75502.537   -69660.721    703324.25 
   41829    2302.0552    180.14209   -69762.273   -75609.703   -69683.396    701528.87 
Loop time of 36.4837 on 1 procs for 495 steps with 19652 atoms

Performance: 1.172 ns/day, 20.473 hours/ns, 13.568 timesteps/s
99.9% CPU use with 1 MPI tasks x no OpenMP threads

MPI task timing breakdown:
Section |  min time  |  avg time  |  max time  |%varavg| %total
---------------------------------------------------------------
Pair    | 16.896     | 16.896     | 16.896     |   0.0 | 46.31
Neigh   | 18.446     | 18.446     | 18.446     |   0.0 | 50.56
Comm    | 0.37624    | 0.37624    | 0.37624    |   0.0 |  1.03
Output  | 0.061288   | 0.061288   | 0.061288   |   0.0 |  0.17
Modify  | 0.56023    | 0.56023    | 0.56023    |   0.0 |  1.54
Other   |            | 0.1437     |            |       |  0.39

Nlocal:    19652 ave 19652 max 19652 min
Histogram: 1 0 0 0 0 0 0 0 0 0
Nghost:    13582 ave 13582 max 13582 min
Histogram: 1 0 0 0 0 0 0 0 0 0
Neighs:    687544 ave 687544 max 687544 min
Histogram: 1 0 0 0 0 0 0 0 0 0

Total # of neighbors = 687544
Ave neighs/atom = 34.986
Neighbor list builds = 495
Dangerous builds not checked
Setting up Verlet run ...
  Unit style    : metal
  Current step  : 41829
  Time step     : 0.001
Per MPI rank memory allocation (min/avg/max) = 18.2 | 18.2 | 18.2 Mbytes
Step Temp Press TotEng PotEng Enthalpy Volume 
   41829    2302.0552    180.14209   -69762.273   -75609.703   -69683.396    701528.87 
   42001    2292.9523   -112.18394   -69835.403    -75659.71   -69884.546    701850.61 
Loop time of 11.1956 on 1 procs for 172 steps with 19652 atoms

Performance: 1.327 ns/day, 18.081 hours/ns, 15.363 timesteps/s
100.0% CPU use with 1 MPI tasks x no OpenMP threads

MPI task timing breakdown:
Section |  min time  |  avg time  |  max time  |%varavg| %total
---------------------------------------------------------------
Pair    | 5.0864     | 5.0864     | 5.0864     |   0.0 | 45.43
Neigh   | 5.7828     | 5.7828     | 5.7828     |   0.0 | 51.65
Comm    | 0.11279    | 0.11279    | 0.11279    |   0.0 |  1.01
Output  | 0.00012922 | 0.00012922 | 0.00012922 |   0.0 |  0.00
Modify  | 0.17043    | 0.17043    | 0.17043    |   0.0 |  1.52
Other   |            | 0.04312    |            |       |  0.39

Nlocal:    19652 ave 19652 max 19652 min
Histogram: 1 0 0 0 0 0 0 0 0 0
Nghost:    13497 ave 13497 max 13497 min
Histogram: 1 0 0 0 0 0 0 0 0 0
Neighs:    686834 ave 686834 max 686834 min
Histogram: 1 0 0 0 0 0 0 0 0 0

Total # of neighbors = 686834
Ave neighs/atom = 34.9498
Neighbor list builds = 172
Dangerous builds not checked
Setting up Verlet run ...
  Unit style    : metal
  Current step  : 42001
  Time step     : 0.001
Per MPI rank memory allocation (min/avg/max) = 18.2 | 18.2 | 18.2 Mbytes
Step Temp Press TotEng PotEng Enthalpy Volume 
   42001    2292.9523   -112.18394   -69835.403    -75659.71   -69884.546    701850.61 
   42021    2294.7087   -149.24013   -69834.828   -75663.597   -69900.204    701844.77 
   42496    2261.7802    26.703027   -70045.364   -75790.492   -70033.695    700129.23 
Loop time of 33.8336 on 1 procs for 495 steps with 19652 atoms

Performance: 1.264 ns/day, 18.986 hours/ns, 14.630 timesteps/s
99.9% CPU use with 1 MPI tasks x no OpenMP threads

MPI task timing breakdown:
Section |  min time  |  avg time  |  max time  |%varavg| %total
---------------------------------------------------------------
Pair    | 15.615     | 15.615     | 15.615     |   0.0 | 46.15
Neigh   | 17.168     | 17.168     | 17.168     |   0.0 | 50.74
Comm    | 0.34162    | 0.34162    | 0.34162    |   0.0 |  1.01
Output  | 0.062111   | 0.062111   | 0.062111   |   0.0 |  0.18
Modify  | 0.50549    | 0.50549    | 0.50549    |   0.0 |  1.49
Other   |            | 0.1416     |            |       |  0.42

Nlocal:    19652 ave 19652 max 19652 min
Histogram: 1 0 0 0 0 0 0 0 0 0
Nghost:    13566 ave 13566 max 13566 min
Histogram: 1 0 0 0 0 0 0 0 0 0
Neighs:    688673 ave 688673 max 688673 min
Histogram: 1 0 0 0 0 0 0 0 0 0

Total # of neighbors = 688673
Ave neighs/atom = 35.0434
Neighbor list builds = 495
Dangerous builds not checked
Setting up Verlet run ...
  Unit style    : metal
  Current step  : 42496
  Time step     : 0.001
Per MPI rank memory allocation (min/avg/max) = 18.2 | 18.2 | 18.2 Mbytes
Step Temp Press TotEng PotEng Enthalpy Volume 
   42496    2261.7802    26.703027   -70045.364   -75790.492   -70033.695    700129.23 
   42668    2271.0577   -179.43273   -70141.948   -75910.642   -70220.358    700133.44 
Loop time of 11.767 on 1 procs for 172 steps with 19652 atoms

Performance: 1.263 ns/day, 19.004 hours/ns, 14.617 timesteps/s
100.0% CPU use with 1 MPI tasks x no OpenMP threads

MPI task timing breakdown:
Section |  min time  |  avg time  |  max time  |%varavg| %total
---------------------------------------------------------------
Pair    | 5.4323     | 5.4323     | 5.4323     |   0.0 | 46.17
Neigh   | 5.9844     | 5.9844     | 5.9844     |   0.0 | 50.86
Comm    | 0.12012    | 0.12012    | 0.12012    |   0.0 |  1.02
Output  | 0.00013804 | 0.00013804 | 0.00013804 |   0.0 |  0.00
Modify  | 0.17974    | 0.17974    | 0.17974    |   0.0 |  1.53
Other   |            | 0.05035    |            |       |  0.43

Nlocal:    19652 ave 19652 max 19652 min
Histogram: 1 0 0 0 0 0 0 0 0 0
Nghost:    13569 ave 13569 max 13569 min
Histogram: 1 0 0 0 0 0 0 0 0 0
Neighs:    688039 ave 688039 max 688039 min
Histogram: 1 0 0 0 0 0 0 0 0 0

Total # of neighbors = 688039
Ave neighs/atom = 35.0111
Neighbor list builds = 172
Dangerous builds not checked
Setting up Verlet run ...
  Unit style    : metal
  Current step  : 42668
  Time step     : 0.001
Per MPI rank memory allocation (min/avg/max) = 18.2 | 18.2 | 18.2 Mbytes
Step Temp Press TotEng PotEng Enthalpy Volume 
   42668    2271.0577   -179.43273   -70141.948   -75910.642   -70220.358    700133.44 
   42688    2266.6355   -172.74734   -70144.206   -75901.666   -70219.693    700124.87 
   43163     2208.907   -2.2188372   -70363.659   -75974.483   -70364.627    699339.51 
Loop time of 33.6355 on 1 procs for 495 steps with 19652 atoms

Performance: 1.272 ns/day, 18.875 hours/ns, 14.717 timesteps/s
99.9% CPU use with 1 MPI tasks x no OpenMP threads

MPI task timing breakdown:
Section |  min time  |  avg time  |  max time  |%varavg| %total
---------------------------------------------------------------
Pair    | 15.5       | 15.5       | 15.5       |   0.0 | 46.08
Neigh   | 17.076     | 17.076     | 17.076     |   0.0 | 50.77
Comm    | 0.3422     | 0.3422     | 0.3422     |   0.0 |  1.02
Output  | 0.063544   | 0.063544   | 0.063544   |   0.0 |  0.19
Modify  | 0.5082     | 0.5082     | 0.5082     |   0.0 |  1.51
Other   |            | 0.1448     |            |       |  0.43

Nlocal:    19652 ave 19652 max 19652 min
Histogram: 1 0 0 0 0 0 0 0 0 0
Nghost:    13617 ave 13617 max 13617 min
Histogram: 1 0 0 0 0 0 0 0 0 0
Neighs:    689109 ave 689109 max 689109 min
Histogram: 1 0 0 0 0 0 0 0 0 0

Total # of neighbors = 689109
Ave neighs/atom = 35.0656
Neighbor list builds = 495
Dangerous builds not checked
Setting up Verlet run ...
  Unit style    : metal
  Current step  : 43163
  Time step     : 0.001
Per MPI rank memory allocation (min/avg/max) = 18.2 | 18.2 | 18.2 Mbytes
Step Temp Press TotEng PotEng Enthalpy Volume 
   43163     2208.907   -2.2188372   -70363.659   -75974.483   -70364.627    699339.51 
   43335    2219.5956   -251.36734   -70397.855    -76035.83   -70507.499     698854.2 
Loop time of 11.9283 on 1 procs for 172 steps with 19652 atoms

Performance: 1.246 ns/day, 19.264 hours/ns, 14.419 timesteps/s
100.0% CPU use with 1 MPI tasks x no OpenMP threads

MPI task timing breakdown:
Section |  min time  |  avg time  |  max time  |%varavg| %total
---------------------------------------------------------------
Pair    | 5.5347     | 5.5347     | 5.5347     |   0.0 | 46.40
Neigh   | 6.0283     | 6.0283     | 6.0283     |   0.0 | 50.54
Comm    | 0.12939    | 0.12939    | 0.12939    |   0.0 |  1.08
Output  | 0.00014687 | 0.00014687 | 0.00014687 |   0.0 |  0.00
Modify  | 0.18485    | 0.18485    | 0.18485    |   0.0 |  1.55
Other   |            | 0.05094    |            |       |  0.43

Nlocal:    19652 ave 19652 max 19652 min
Histogram: 1 0 0 0 0 0 0 0 0 0
Nghost:    13549 ave 13549 max 13549 min
Histogram: 1 0 0 0 0 0 0 0 0 0
Neighs:    689323 ave 689323 max 689323 min
Histogram: 1 0 0 0 0 0 0 0 0 0

Total # of neighbors = 689323
Ave neighs/atom = 35.0765
Neighbor list builds = 172
Dangerous builds not checked
Setting up Verlet run ...
  Unit style    : metal
  Current step  : 43335
  Time step     : 0.001
Per MPI rank memory allocation (min/avg/max) = 18.2 | 18.2 | 18.2 Mbytes
Step Temp Press TotEng PotEng Enthalpy Volume 
   43335    2219.5956   -251.36734   -70397.855    -76035.83   -70507.499     698854.2 
   43355    2219.4139    -218.0785    -70400.06   -76037.573   -70495.182    698842.47 
   43830    2173.1788   -147.67907   -70658.328     -76178.4   -70722.602    697312.21 
Loop time of 35.2102 on 1 procs for 495 steps with 19652 atoms

Performance: 1.215 ns/day, 19.759 hours/ns, 14.058 timesteps/s
99.9% CPU use with 1 MPI tasks x no OpenMP threads

MPI task timing breakdown:
Section |  min time  |  avg time  |  max time  |%varavg| %total
---------------------------------------------------------------
Pair    | 16.425     | 16.425     | 16.425     |   0.0 | 46.65
Neigh   | 17.678     | 17.678     | 17.678     |   0.0 | 50.21
Comm    | 0.36897    | 0.36897    | 0.36897    |   0.0 |  1.05
Output  | 0.069638   | 0.069638   | 0.069638   |   0.0 |  0.20
Modify  | 0.52182    | 0.52182    | 0.52182    |   0.0 |  1.48
Other   |            | 0.1459     |            |       |  0.41

Nlocal:    19652 ave 19652 max 19652 min
Histogram: 1 0 0 0 0 0 0 0 0 0
Nghost:    13591 ave 13591 max 13591 min
Histogram: 1 0 0 0 0 0 0 0 0 0
Neighs:    690938 ave 690938 max 690938 min
Histogram: 1 0 0 0 0 0 0 0 0 0

Total # of neighbors = 690938
Ave neighs/atom = 35.1587
Neighbor list builds = 495
Dangerous builds not checked
Setting up Verlet run ...
  Unit style    : metal
  Current step  : 43830
  Time step     : 0.001
Per MPI rank memory allocation (min/avg/max) = 18.2 | 18.2 | 18.2 Mbytes
Step Temp Press TotEng PotEng Enthalpy Volume 
   43830    2173.1788   -147.67907   -70658.328     -76178.4   -70722.602    697312.21 
   44002    2147.6472   -17.731798   -70721.211   -76176.431   -70728.922     696737.1 
Loop time of 12.5777 on 1 procs for 172 steps with 19652 atoms

Performance: 1.182 ns/day, 20.313 hours/ns, 13.675 timesteps/s
100.0% CPU use with 1 MPI tasks x no OpenMP threads

MPI task timing breakdown:
Section |  min time  |  avg time  |  max time  |%varavg| %total
---------------------------------------------------------------
Pair    | 5.9046     | 5.9046     | 5.9046     |   0.0 | 46.95
Neigh   | 6.2949     | 6.2949     | 6.2949     |   0.0 | 50.05
Comm    | 0.13327    | 0.13327    | 0.13327    |   0.0 |  1.06
Output  | 0.000139   | 0.000139   | 0.000139   |   0.0 |  0.00
Modify  | 0.19159    | 0.19159    | 0.19159    |   0.0 |  1.52
Other   |            | 0.05314    |            |       |  0.42

Nlocal:    19652 ave 19652 max 19652 min
Histogram: 1 0 0 0 0 0 0 0 0 0
Nghost:    13642 ave 13642 max 13642 min
Histogram: 1 0 0 0 0 0 0 0 0 0
Neighs:    691170 ave 691170 max 691170 min
Histogram: 1 0 0 0 0 0 0 0 0 0

Total # of neighbors = 691170
Ave neighs/atom = 35.1705
Neighbor list builds = 172
Dangerous builds not checked
Setting up Verlet run ...
  Unit style    : metal
  Current step  : 44002
  Time step     : 0.001
Per MPI rank memory allocation (min/avg/max) = 18.2 | 18.2 | 18.2 Mbytes
Step Temp Press TotEng PotEng Enthalpy Volume 
   44002    2147.6472   -17.731798   -70721.211   -76176.431   -70728.922     696737.1 
   44022    2153.5677   -53.697837   -70721.253   -76191.511   -70744.604    696735.71 
   44497    2117.7499    65.019711   -70942.588   -76321.866   -70914.361    695554.59 
Loop time of 39.1111 on 1 procs for 495 steps with 19652 atoms

Performance: 1.093 ns/day, 21.948 hours/ns, 12.656 timesteps/s
99.9% CPU use with 1 MPI tasks x no OpenMP threads

MPI task timing breakdown:
Section |  min time  |  avg time  |  max time  |%varavg| %total
---------------------------------------------------------------
Pair    | 18.366     | 18.366     | 18.366     |   0.0 | 46.96
Neigh   | 19.511     | 19.511     | 19.511     |   0.0 | 49.89
Comm    | 0.40339    | 0.40339    | 0.40339    |   0.0 |  1.03
Output  | 0.064168   | 0.064168   | 0.064168   |   0.0 |  0.16
Modify  | 0.60174    | 0.60174    | 0.60174    |   0.0 |  1.54
Other   |            | 0.1646     |            |       |  0.42

Nlocal:    19652 ave 19652 max 19652 min
Histogram: 1 0 0 0 0 0 0 0 0 0
Nghost:    13649 ave 13649 max 13649 min
Histogram: 1 0 0 0 0 0 0 0 0 0
Neighs:    691752 ave 691752 max 691752 min
Histogram: 1 0 0 0 0 0 0 0 0 0

Total # of neighbors = 691752
Ave neighs/atom = 35.2001
Neighbor list builds = 495
Dangerous builds not checked
Setting up Verlet run ...
  Unit style    : metal
  Current step  : 44497
  Time step     : 0.001
Per MPI rank memory allocation (min/avg/max) = 18.2 | 18.2 | 18.2 Mbytes
Step Temp Press TotEng PotEng Enthalpy Volume 
   44497    2117.7499    65.019711   -70942.588   -76321.866   -70914.361    695554.59 
   44669    2094.4598   -106.82424     -71030.4   -76350.518   -71076.759    695304.37 
Loop time of 11.1212 on 1 procs for 172 steps with 19652 atoms

Performance: 1.336 ns/day, 17.961 hours/ns, 15.466 timesteps/s
100.0% CPU use with 1 MPI tasks x no OpenMP threads

MPI task timing breakdown:
Section |  min time  |  avg time  |  max time  |%varavg| %total
---------------------------------------------------------------
Pair    | 5.102      | 5.102      | 5.102      |   0.0 | 45.88
Neigh   | 5.6961     | 5.6961     | 5.6961     |   0.0 | 51.22
Comm    | 0.11079    | 0.11079    | 0.11079    |   0.0 |  1.00
Output  | 0.00015092 | 0.00015092 | 0.00015092 |   0.0 |  0.00
Modify  | 0.16543    | 0.16543    | 0.16543    |   0.0 |  1.49
Other   |            | 0.04667    |            |       |  0.42

Nlocal:    19652 ave 19652 max 19652 min
Histogram: 1 0 0 0 0 0 0 0 0 0
Nghost:    13648 ave 13648 max 13648 min
Histogram: 1 0 0 0 0 0 0 0 0 0
Neighs:    691910 ave 691910 max 691910 min
Histogram: 1 0 0 0 0 0 0 0 0 0

Total # of neighbors = 691910
Ave neighs/atom = 35.2081
Neighbor list builds = 172
Dangerous builds not checked
Setting up Verlet run ...
  Unit style    : metal
  Current step  : 44669
  Time step     : 0.001
Per MPI rank memory allocation (min/avg/max) = 18.2 | 18.2 | 18.2 Mbytes
Step Temp Press TotEng PotEng Enthalpy Volume 
   44669    2094.4598   -106.82424     -71030.4   -76350.518   -71076.759    695304.37 
   44689    2103.9005   -67.416609   -71030.232   -76374.331   -71059.489    695299.47 
   45164    2065.9009   -10.200476   -71280.243   -76527.819   -71284.661    694040.75 
Loop time of 32.4881 on 1 procs for 495 steps with 19652 atoms

Performance: 1.316 ns/day, 18.231 hours/ns, 15.236 timesteps/s
99.9% CPU use with 1 MPI tasks x no OpenMP threads

MPI task timing breakdown:
Section |  min time  |  avg time  |  max time  |%varavg| %total
---------------------------------------------------------------
Pair    | 14.918     | 14.918     | 14.918     |   0.0 | 45.92
Neigh   | 16.562     | 16.562     | 16.562     |   0.0 | 50.98
Comm    | 0.32676    | 0.32676    | 0.32676    |   0.0 |  1.01
Output  | 0.062369   | 0.062369   | 0.062369   |   0.0 |  0.19
Modify  | 0.48249    | 0.48249    | 0.48249    |   0.0 |  1.49
Other   |            | 0.1361     |            |       |  0.42

Nlocal:    19652 ave 19652 max 19652 min
Histogram: 1 0 0 0 0 0 0 0 0 0
Nghost:    13682 ave 13682 max 13682 min
Histogram: 1 0 0 0 0 0 0 0 0 0
Neighs:    692962 ave 692962 max 692962 min
Histogram: 1 0 0 0 0 0 0 0 0 0

Total # of neighbors = 692962
Ave neighs/atom = 35.2617
Neighbor list builds = 495
Dangerous builds not checked
Setting up Verlet run ...
  Unit style    : metal
  Current step  : 45164
  Time step     : 0.001
Per MPI rank memory allocation (min/avg/max) = 18.2 | 18.2 | 18.2 Mbytes
Step Temp Press TotEng PotEng Enthalpy Volume 
   45164    2065.9009   -10.200476   -71280.243   -76527.819   -71284.661    694040.75 
   45336    2047.8533    64.984988   -71363.178   -76564.912    -71335.03     693974.7 
Loop time of 12.2823 on 1 procs for 172 steps with 19652 atoms

Performance: 1.210 ns/day, 19.836 hours/ns, 14.004 timesteps/s
100.0% CPU use with 1 MPI tasks x no OpenMP threads

MPI task timing breakdown:
Section |  min time  |  avg time  |  max time  |%varavg| %total
---------------------------------------------------------------
Pair    | 5.7561     | 5.7561     | 5.7561     |   0.0 | 46.87
Neigh   | 6.1635     | 6.1635     | 6.1635     |   0.0 | 50.18
Comm    | 0.12691    | 0.12691    | 0.12691    |   0.0 |  1.03
Output  | 0.00018287 | 0.00018287 | 0.00018287 |   0.0 |  0.00
Modify  | 0.18411    | 0.18411    | 0.18411    |   0.0 |  1.50
Other   |            | 0.05148    |            |       |  0.42

Nlocal:    19652 ave 19652 max 19652 min
Histogram: 1 0 0 0 0 0 0 0 0 0
Nghost:    13646 ave 13646 max 13646 min
Histogram: 1 0 0 0 0 0 0 0 0 0
Neighs:    692634 ave 692634 max 692634 min
Histogram: 1 0 0 0 0 0 0 0 0 0

Total # of neighbors = 692634
Ave neighs/atom = 35.245
Neighbor list builds = 172
Dangerous builds not checked
Setting up Verlet run ...
  Unit style    : metal
  Current step  : 45336
  Time step     : 0.001
Per MPI rank memory allocation (min/avg/max) = 18.2 | 18.2 | 18.2 Mbytes
Step Temp Press TotEng PotEng Enthalpy Volume 
   45336    2047.8533    64.984988   -71363.178   -76564.912    -71335.03     693974.7 
   45356    2047.0259    26.832738   -71363.062   -76562.694   -71351.439    693977.48 
   45831    1996.8433    102.07466    -71564.74   -76636.903   -71520.606     692729.8 
Loop time of 35.621 on 1 procs for 495 steps with 19652 atoms

Performance: 1.201 ns/day, 19.989 hours/ns, 13.896 timesteps/s
99.9% CPU use with 1 MPI tasks x no OpenMP threads

MPI task timing breakdown:
Section |  min time  |  avg time  |  max time  |%varavg| %total
---------------------------------------------------------------
Pair    | 16.698     | 16.698     | 16.698     |   0.0 | 46.88
Neigh   | 17.813     | 17.813     | 17.813     |   0.0 | 50.01
Comm    | 0.36824    | 0.36824    | 0.36824    |   0.0 |  1.03
Output  | 0.069243   | 0.069243   | 0.069243   |   0.0 |  0.19
Modify  | 0.5252     | 0.5252     | 0.5252     |   0.0 |  1.47
Other   |            | 0.1476     |            |       |  0.41

Nlocal:    19652 ave 19652 max 19652 min
Histogram: 1 0 0 0 0 0 0 0 0 0
Nghost:    13632 ave 13632 max 13632 min
Histogram: 1 0 0 0 0 0 0 0 0 0
Neighs:    693596 ave 693596 max 693596 min
Histogram: 1 0 0 0 0 0 0 0 0 0

Total # of neighbors = 693596
Ave neighs/atom = 35.2939
Neighbor list builds = 495
Dangerous builds not checked
Setting up Verlet run ...
  Unit style    : metal
  Current step  : 45831
  Time step     : 0.001
Per MPI rank memory allocation (min/avg/max) = 18.2 | 18.2 | 18.2 Mbytes
Step Temp Press TotEng PotEng Enthalpy Volume 
   45831    1996.8433    102.07466    -71564.74   -76636.903   -71520.606     692729.8 
   46003      1996.09   -221.51763   -71606.665   -76676.916   -71702.479    692994.06 
Loop time of 11.1557 on 1 procs for 172 steps with 19652 atoms

Performance: 1.332 ns/day, 18.016 hours/ns, 15.418 timesteps/s
100.0% CPU use with 1 MPI tasks x no OpenMP threads

MPI task timing breakdown:
Section |  min time  |  avg time  |  max time  |%varavg| %total
---------------------------------------------------------------
Pair    | 5.1242     | 5.1242     | 5.1242     |   0.0 | 45.93
Neigh   | 5.7067     | 5.7067     | 5.7067     |   0.0 | 51.16
Comm    | 0.11225    | 0.11225    | 0.11225    |   0.0 |  1.01
Output  | 0.00014305 | 0.00014305 | 0.00014305 |   0.0 |  0.00
Modify  | 0.16564    | 0.16564    | 0.16564    |   0.0 |  1.48
Other   |            | 0.04675    |            |       |  0.42

Nlocal:    19652 ave 19652 max 19652 min
Histogram: 1 0 0 0 0 0 0 0 0 0
Nghost:    13613 ave 13613 max 13613 min
Histogram: 1 0 0 0 0 0 0 0 0 0
Neighs:    692898 ave 692898 max 692898 min
Histogram: 1 0 0 0 0 0 0 0 0 0

Total # of neighbors = 692898
Ave neighs/atom = 35.2584
Neighbor list builds = 172
Dangerous builds not checked
Setting up Verlet run ...
  Unit style    : metal
  Current step  : 46003
  Time step     : 0.001
Per MPI rank memory allocation (min/avg/max) = 18.2 | 18.2 | 18.2 Mbytes
Step Temp Press TotEng PotEng Enthalpy Volume 
   46003      1996.09   -221.51763   -71606.665   -76676.916   -71702.479    692994.06 
   46023    2004.4325   -251.04688   -71606.664   -76698.105   -71715.248    692981.71 
   46498     1953.656    77.214362   -71888.715   -76851.179    -71855.41     691078.1 
Loop time of 32.9055 on 1 procs for 495 steps with 19652 atoms

Performance: 1.300 ns/day, 18.465 hours/ns, 15.043 timesteps/s
99.9% CPU use with 1 MPI tasks x no OpenMP threads

MPI task timing breakdown:
Section |  min time  |  avg time  |  max time  |%varavg| %total
---------------------------------------------------------------
Pair    | 15.193     | 15.193     | 15.193     |   0.0 | 46.17
Neigh   | 16.702     | 16.702     | 16.702     |   0.0 | 50.76
Comm    | 0.32712    | 0.32712    | 0.32712    |   0.0 |  0.99
Output  | 0.066671   | 0.066671   | 0.066671   |   0.0 |  0.20
Modify  | 0.48144    | 0.48144    | 0.48144    |   0.0 |  1.46
Other   |            | 0.136      |            |       |  0.41

Nlocal:    19652 ave 19652 max 19652 min
Histogram: 1 0 0 0 0 0 0 0 0 0
Nghost:    13640 ave 13640 max 13640 min
Histogram: 1 0 0 0 0 0 0 0 0 0
Neighs:    694562 ave 694562 max 694562 min
Histogram: 1 0 0 0 0 0 0 0 0 0

Total # of neighbors = 694562
Ave neighs/atom = 35.3431
Neighbor list builds = 495
Dangerous builds not checked
Setting up Verlet run ...
  Unit style    : metal
  Current step  : 46498
  Time step     : 0.001
Per MPI rank memory allocation (min/avg/max) = 18.2 | 18.2 | 18.2 Mbytes
Step Temp Press TotEng PotEng Enthalpy Volume 
   46498     1953.656    77.214362   -71888.715   -76851.179    -71855.41     691078.1 
   46670    1956.8989   -301.14912   -71975.644   -76946.345   -72105.591    691347.88 
Loop time of 11.156 on 1 procs for 172 steps with 19652 atoms

Performance: 1.332 ns/day, 18.017 hours/ns, 15.418 timesteps/s
100.0% CPU use with 1 MPI tasks x no OpenMP threads

MPI task timing breakdown:
Section |  min time  |  avg time  |  max time  |%varavg| %total
---------------------------------------------------------------
Pair    | 5.1345     | 5.1345     | 5.1345     |   0.0 | 46.02
Neigh   | 5.6991     | 5.6991     | 5.6991     |   0.0 | 51.09
Comm    | 0.11027    | 0.11027    | 0.11027    |   0.0 |  0.99
Output  | 0.0001359  | 0.0001359  | 0.0001359  |   0.0 |  0.00
Modify  | 0.16539    | 0.16539    | 0.16539    |   0.0 |  1.48
Other   |            | 0.04668    |            |       |  0.42

Nlocal:    19652 ave 19652 max 19652 min
Histogram: 1 0 0 0 0 0 0 0 0 0
Nghost:    13648 ave 13648 max 13648 min
Histogram: 1 0 0 0 0 0 0 0 0 0
Neighs:    694038 ave 694038 max 694038 min
Histogram: 1 0 0 0 0 0 0 0 0 0

Total # of neighbors = 694038
Ave neighs/atom = 35.3164
Neighbor list builds = 172
Dangerous builds not checked
Setting up Verlet run ...
  Unit style    : metal
  Current step  : 46670
  Time step     : 0.001
Per MPI rank memory allocation (min/avg/max) = 18.2 | 18.2 | 18.2 Mbytes
Step Temp Press TotEng PotEng Enthalpy Volume 
   46670    1956.8989   -301.14912   -71975.644   -76946.345   -72105.591    691347.88 
   46690    1956.0935   -321.80321   -71976.443   -76945.099     -72115.3    691331.35 
   47165    1921.9199   -117.79592   -72225.192   -77107.044   -72275.917     689922.2 
Loop time of 33.0704 on 1 procs for 495 steps with 19652 atoms

Performance: 1.293 ns/day, 18.558 hours/ns, 14.968 timesteps/s
100.0% CPU use with 1 MPI tasks x no OpenMP threads

MPI task timing breakdown:
Section |  min time  |  avg time  |  max time  |%varavg| %total
---------------------------------------------------------------
Pair    | 15.241     | 15.241     | 15.241     |   0.0 | 46.09
Neigh   | 16.812     | 16.812     | 16.812     |   0.0 | 50.84
Comm    | 0.32797    | 0.32797    | 0.32797    |   0.0 |  0.99
Output  | 0.060138   | 0.060138   | 0.060138   |   0.0 |  0.18
Modify  | 0.49132    | 0.49132    | 0.49132    |   0.0 |  1.49
Other   |            | 0.1377     |            |       |  0.42

Nlocal:    19652 ave 19652 max 19652 min
Histogram: 1 0 0 0 0 0 0 0 0 0
Nghost:    13695 ave 13695 max 13695 min
Histogram: 1 0 0 0 0 0 0 0 0 0
Neighs:    695085 ave 695085 max 695085 min
Histogram: 1 0 0 0 0 0 0 0 0 0

Total # of neighbors = 695085
Ave neighs/atom = 35.3697
Neighbor list builds = 495
Dangerous builds not checked
Setting up Verlet run ...
  Unit style    : metal
  Current step  : 47165
  Time step     : 0.001
Per MPI rank memory allocation (min/avg/max) = 18.2 | 18.2 | 18.2 Mbytes
Step Temp Press TotEng PotEng Enthalpy Volume 
   47165    1921.9199   -117.79592   -72225.192   -77107.044   -72275.917     689922.2 
   47337    1903.8068   -33.374548    -72307.58   -77143.423   -72321.934    689077.84 
Loop time of 11.4366 on 1 procs for 172 steps with 19652 atoms

Performance: 1.299 ns/day, 18.470 hours/ns, 15.039 timesteps/s
100.0% CPU use with 1 MPI tasks x no OpenMP threads

MPI task timing breakdown:
Section |  min time  |  avg time  |  max time  |%varavg| %total
---------------------------------------------------------------
Pair    | 5.2914     | 5.2914     | 5.2914     |   0.0 | 46.27
Neigh   | 5.8108     | 5.8108     | 5.8108     |   0.0 | 50.81
Comm    | 0.11454    | 0.11454    | 0.11454    |   0.0 |  1.00
Output  | 0.00013709 | 0.00013709 | 0.00013709 |   0.0 |  0.00
Modify  | 0.17153    | 0.17153    | 0.17153    |   0.0 |  1.50
Other   |            | 0.04827    |            |       |  0.42

Nlocal:    19652 ave 19652 max 19652 min
Histogram: 1 0 0 0 0 0 0 0 0 0
Nghost:    13718 ave 13718 max 13718 min
Histogram: 1 0 0 0 0 0 0 0 0 0
Neighs:    696156 ave 696156 max 696156 min
Histogram: 1 0 0 0 0 0 0 0 0 0

Total # of neighbors = 696156
Ave neighs/atom = 35.4242
Neighbor list builds = 172
Dangerous builds not checked
Setting up Verlet run ...
  Unit style    : metal
  Current step  : 47337
  Time step     : 0.001
Per MPI rank memory allocation (min/avg/max) = 18.2 | 18.2 | 18.2 Mbytes
Step Temp Press TotEng PotEng Enthalpy Volume 
   47337    1903.8068   -33.374548    -72307.58   -77143.423   -72321.934    689077.84 
   47357    1904.4107   -31.430165   -72308.083   -77145.459     -72321.6    689075.68 
   47832    1858.7848    428.06979   -72532.486   -77253.969   -72348.896    687139.69 
Loop time of 34.0325 on 1 procs for 495 steps with 19652 atoms

Performance: 1.257 ns/day, 19.098 hours/ns, 14.545 timesteps/s
100.0% CPU use with 1 MPI tasks x no OpenMP threads

MPI task timing breakdown:
Section |  min time  |  avg time  |  max time  |%varavg| %total
---------------------------------------------------------------
Pair    | 15.796     | 15.796     | 15.796     |   0.0 | 46.41
Neigh   | 17.189     | 17.189     | 17.189     |   0.0 | 50.51
Comm    | 0.34205    | 0.34205    | 0.34205    |   0.0 |  1.01
Output  | 0.058651   | 0.058651   | 0.058651   |   0.0 |  0.17
Modify  | 0.50541    | 0.50541    | 0.50541    |   0.0 |  1.49
Other   |            | 0.1413     |            |       |  0.42

Nlocal:    19652 ave 19652 max 19652 min
Histogram: 1 0 0 0 0 0 0 0 0 0
Nghost:    13664 ave 13664 max 13664 min
Histogram: 1 0 0 0 0 0 0 0 0 0
Neighs:    697378 ave 697378 max 697378 min
Histogram: 1 0 0 0 0 0 0 0 0 0

Total # of neighbors = 697378
Ave neighs/atom = 35.4864
Neighbor list builds = 495
Dangerous builds not checked
Setting up Verlet run ...
  Unit style    : metal
  Current step  : 47832
  Time step     : 0.001
Per MPI rank memory allocation (min/avg/max) = 18.2 | 18.2 | 18.2 Mbytes
Step Temp Press TotEng PotEng Enthalpy Volume 
   47832    1858.7848    428.06979   -72532.486   -77253.969   -72348.896    687139.69 
   48004    1853.7334   -385.59538   -72623.585   -77332.237   -72789.228    688259.06 
Loop time of 11.2336 on 1 procs for 172 steps with 19652 atoms

Performance: 1.323 ns/day, 18.142 hours/ns, 15.311 timesteps/s
100.0% CPU use with 1 MPI tasks x no OpenMP threads

MPI task timing breakdown:
Section |  min time  |  avg time  |  max time  |%varavg| %total
---------------------------------------------------------------
Pair    | 5.18       | 5.18       | 5.18       |   0.0 | 46.11
Neigh   | 5.7251     | 5.7251     | 5.7251     |   0.0 | 50.96
Comm    | 0.11398    | 0.11398    | 0.11398    |   0.0 |  1.01
Output  | 0.000144   | 0.000144   | 0.000144   |   0.0 |  0.00
Modify  | 0.16721    | 0.16721    | 0.16721    |   0.0 |  1.49
Other   |            | 0.04714    |            |       |  0.42

Nlocal:    19652 ave 19652 max 19652 min
Histogram: 1 0 0 0 0 0 0 0 0 0
Nghost:    13716 ave 13716 max 13716 min
Histogram: 1 0 0 0 0 0 0 0 0 0
Neighs:    695800 ave 695800 max 695800 min
Histogram: 1 0 0 0 0 0 0 0 0 0

Total # of neighbors = 695800
Ave neighs/atom = 35.4061
Neighbor list builds = 172
Dangerous builds not checked
Setting up Verlet run ...
  Unit style    : metal
  Current step  : 48004
  Time step     : 0.001
Per MPI rank memory allocation (min/avg/max) = 18.2 | 18.2 | 18.2 Mbytes
Step Temp Press TotEng PotEng Enthalpy Volume 
   48004    1853.7334   -385.59538   -72623.585   -77332.237   -72789.228    688259.06 
   48024     1855.457   -408.99398   -72624.106   -77337.136   -72799.795    688236.37 
   48499    1817.2958      30.8309   -72831.805   -77447.902   -72818.597    686348.07 
Loop time of 34.0359 on 1 procs for 495 steps with 19652 atoms

Performance: 1.257 ns/day, 19.100 hours/ns, 14.543 timesteps/s
99.9% CPU use with 1 MPI tasks x no OpenMP threads

MPI task timing breakdown:
Section |  min time  |  avg time  |  max time  |%varavg| %total
---------------------------------------------------------------
Pair    | 15.877     | 15.877     | 15.877     |   0.0 | 46.65
Neigh   | 17.106     | 17.106     | 17.106     |   0.0 | 50.26
Comm    | 0.35019    | 0.35019    | 0.35019    |   0.0 |  1.03
Output  | 0.062144   | 0.062144   | 0.062144   |   0.0 |  0.18
Modify  | 0.50118    | 0.50118    | 0.50118    |   0.0 |  1.47
Other   |            | 0.1399     |            |       |  0.41

Nlocal:    19652 ave 19652 max 19652 min
Histogram: 1 0 0 0 0 0 0 0 0 0
Nghost:    13692 ave 13692 max 13692 min
Histogram: 1 0 0 0 0 0 0 0 0 0
Neighs:    697542 ave 697542 max 697542 min
Histogram: 1 0 0 0 0 0 0 0 0 0

Total # of neighbors = 697542
Ave neighs/atom = 35.4947
Neighbor list builds = 495
Dangerous builds not checked
Setting up Verlet run ...
  Unit style    : metal
  Current step  : 48499
  Time step     : 0.001
Per MPI rank memory allocation (min/avg/max) = 18.2 | 18.2 | 18.2 Mbytes
Step Temp Press TotEng PotEng Enthalpy Volume 
   48499    1817.2958      30.8309   -72831.805   -77447.902   -72818.597    686348.07 
   48671    1819.3858    16.082718   -72911.199   -77532.605   -72904.316    685754.08 
Loop time of 11.1643 on 1 procs for 172 steps with 19652 atoms

Performance: 1.331 ns/day, 18.030 hours/ns, 15.406 timesteps/s
100.0% CPU use with 1 MPI tasks x no OpenMP threads

MPI task timing breakdown:
Section |  min time  |  avg time  |  max time  |%varavg| %total
---------------------------------------------------------------
Pair    | 5.1445     | 5.1445     | 5.1445     |   0.0 | 46.08
Neigh   | 5.6947     | 5.6947     | 5.6947     |   0.0 | 51.01
Comm    | 0.11169    | 0.11169    | 0.11169    |   0.0 |  1.00
Output  | 0.00014305 | 0.00014305 | 0.00014305 |   0.0 |  0.00
Modify  | 0.16606    | 0.16606    | 0.16606    |   0.0 |  1.49
Other   |            | 0.04713    |            |       |  0.42

Nlocal:    19652 ave 19652 max 19652 min
Histogram: 1 0 0 0 0 0 0 0 0 0
Nghost:    13654 ave 13654 max 13654 min
Histogram: 1 0 0 0 0 0 0 0 0 0
Neighs:    698174 ave 698174 max 698174 min
Histogram: 1 0 0 0 0 0 0 0 0 0

Total # of neighbors = 698174
Ave neighs/atom = 35.5269
Neighbor list builds = 172
Dangerous builds not checked
Setting up Verlet run ...
  Unit style    : metal
  Current step  : 48671
  Time step     : 0.001
Per MPI rank memory allocation (min/avg/max) = 18.2 | 18.2 | 18.2 Mbytes
Step Temp Press TotEng PotEng Enthalpy Volume 
   48671    1819.3858    16.082718   -72911.199   -77532.605   -72904.316    685754.08 
   48691    1813.7968    75.144489   -72913.144   -77520.353   -72880.981    685756.28 
   49166    1764.4855    322.95453   -73172.525   -77654.479   -73034.615     684171.7 
Loop time of 32.8746 on 1 procs for 495 steps with 19652 atoms

Performance: 1.301 ns/day, 18.448 hours/ns, 15.057 timesteps/s
99.9% CPU use with 1 MPI tasks x no OpenMP threads

MPI task timing breakdown:
Section |  min time  |  avg time  |  max time  |%varavg| %total
---------------------------------------------------------------
Pair    | 15.199     | 15.199     | 15.199     |   0.0 | 46.23
Neigh   | 16.663     | 16.663     | 16.663     |   0.0 | 50.69
Comm    | 0.32889    | 0.32889    | 0.32889    |   0.0 |  1.00
Output  | 0.061116   | 0.061116   | 0.061116   |   0.0 |  0.19
Modify  | 0.48515    | 0.48515    | 0.48515    |   0.0 |  1.48
Other   |            | 0.1373     |            |       |  0.42

Nlocal:    19652 ave 19652 max 19652 min
Histogram: 1 0 0 0 0 0 0 0 0 0
Nghost:    13710 ave 13710 max 13710 min
Histogram: 1 0 0 0 0 0 0 0 0 0
Neighs:    698912 ave 698912 max 698912 min
Histogram: 1 0 0 0 0 0 0 0 0 0

Total # of neighbors = 698912
Ave neighs/atom = 35.5644
Neighbor list builds = 495
Dangerous builds not checked
Setting up Verlet run ...
  Unit style    : metal
  Current step  : 49166
  Time step     : 0.001
Per MPI rank memory allocation (min/avg/max) = 18.2 | 18.2 | 18.2 Mbytes
Step Temp Press TotEng PotEng Enthalpy Volume 
   49166    1764.4855    322.95453   -73172.525   -77654.479   -73034.615     684171.7 
   49338    1762.5255   -299.79075   -73250.814   -77727.789   -73378.974    684927.54 
Loop time of 11.1932 on 1 procs for 172 steps with 19652 atoms

Performance: 1.328 ns/day, 18.077 hours/ns, 15.366 timesteps/s
100.0% CPU use with 1 MPI tasks x no OpenMP threads

MPI task timing breakdown:
Section |  min time  |  avg time  |  max time  |%varavg| %total
---------------------------------------------------------------
Pair    | 5.1697     | 5.1697     | 5.1697     |   0.0 | 46.19
Neigh   | 5.6986     | 5.6986     | 5.6986     |   0.0 | 50.91
Comm    | 0.11178    | 0.11178    | 0.11178    |   0.0 |  1.00
Output  | 0.0001359  | 0.0001359  | 0.0001359  |   0.0 |  0.00
Modify  | 0.16598    | 0.16598    | 0.16598    |   0.0 |  1.48
Other   |            | 0.04697    |            |       |  0.42

Nlocal:    19652 ave 19652 max 19652 min
Histogram: 1 0 0 0 0 0 0 0 0 0
Nghost:    13711 ave 13711 max 13711 min
Histogram: 1 0 0 0 0 0 0 0 0 0
Neighs:    698270 ave 698270 max 698270 min
Histogram: 1 0 0 0 0 0 0 0 0 0

Total # of neighbors = 698270
Ave neighs/atom = 35.5318
Neighbor list builds = 172
Dangerous builds not checked
Setting up Verlet run ...
  Unit style    : metal
  Current step  : 49338
  Time step     : 0.001
Per MPI rank memory allocation (min/avg/max) = 18.2 | 18.2 | 18.2 Mbytes
Step Temp Press TotEng PotEng Enthalpy Volume 
   49338    1762.5255   -299.79075   -73250.814   -77727.789   -73378.974    684927.54 
   49358    1759.7589   -293.30114   -73252.139   -77722.087   -73377.522    684909.91 
   49833    1709.2624   -154.52879   -73517.957   -77859.639   -73583.886    683558.15 
Loop time of 34.1281 on 1 procs for 495 steps with 19652 atoms

Performance: 1.253 ns/day, 19.152 hours/ns, 14.504 timesteps/s
100.0% CPU use with 1 MPI tasks x no OpenMP threads

MPI task timing breakdown:
Section |  min time  |  avg time  |  max time  |%varavg| %total
---------------------------------------------------------------
Pair    | 15.89      | 15.89      | 15.89      |   0.0 | 46.56
Neigh   | 17.191     | 17.191     | 17.191     |   0.0 | 50.37
Comm    | 0.3412     | 0.3412     | 0.3412     |   0.0 |  1.00
Output  | 0.05929    | 0.05929    | 0.05929    |   0.0 |  0.17
Modify  | 0.50589    | 0.50589    | 0.50589    |   0.0 |  1.48
Other   |            | 0.1411     |            |       |  0.41

Nlocal:    19652 ave 19652 max 19652 min
Histogram: 1 0 0 0 0 0 0 0 0 0
Nghost:    13709 ave 13709 max 13709 min
Histogram: 1 0 0 0 0 0 0 0 0 0
Neighs:    699334 ave 699334 max 699334 min
Histogram: 1 0 0 0 0 0 0 0 0 0

Total # of neighbors = 699334
Ave neighs/atom = 35.5859
Neighbor list builds = 495
Dangerous builds not checked
Setting up Verlet run ...
  Unit style    : metal
  Current step  : 49833
  Time step     : 0.001
Per MPI rank memory allocation (min/avg/max) = 18.2 | 18.2 | 18.2 Mbytes
Step Temp Press TotEng PotEng Enthalpy Volume 
   49833    1709.2624   -154.52879   -73517.957   -77859.639   -73583.886    683558.15 
   50005    1692.3694   -9.6190265   -73561.232   -77860.004   -73565.333    683091.57 
Loop time of 11.2046 on 1 procs for 172 steps with 19652 atoms

Performance: 1.326 ns/day, 18.095 hours/ns, 15.351 timesteps/s
100.0% CPU use with 1 MPI tasks x no OpenMP threads

MPI task timing breakdown:
Section |  min time  |  avg time  |  max time  |%varavg| %total
---------------------------------------------------------------
Pair    | 5.1782     | 5.1782     | 5.1782     |   0.0 | 46.21
Neigh   | 5.7014     | 5.7014     | 5.7014     |   0.0 | 50.88
Comm    | 0.11221    | 0.11221    | 0.11221    |   0.0 |  1.00
Output  | 0.00013995 | 0.00013995 | 0.00013995 |   0.0 |  0.00
Modify  | 0.16579    | 0.16579    | 0.16579    |   0.0 |  1.48
Other   |            | 0.04696    |            |       |  0.42

Nlocal:    19652 ave 19652 max 19652 min
Histogram: 1 0 0 0 0 0 0 0 0 0
Nghost:    13708 ave 13708 max 13708 min
Histogram: 1 0 0 0 0 0 0 0 0 0
Neighs:    699374 ave 699374 max 699374 min
Histogram: 1 0 0 0 0 0 0 0 0 0

Total # of neighbors = 699374
Ave neighs/atom = 35.5879
Neighbor list builds = 172
Dangerous builds not checked
Setting up Verlet run ...
  Unit style    : metal
  Current step  : 50005
  Time step     : 0.001
Per MPI rank memory allocation (min/avg/max) = 18.2 | 18.2 | 18.2 Mbytes
Step Temp Press TotEng PotEng Enthalpy Volume 
   50005    1692.3694   -9.6190265   -73561.232   -77860.004   -73565.333    683091.57 
   50025    1696.4671   -74.533238   -73560.631   -77869.812   -73592.409    683089.79 
   50500    1652.5669   -143.98089   -73847.584   -78045.255   -73908.864    681907.41 
Loop time of 32.9867 on 1 procs for 495 steps with 19652 atoms

Performance: 1.297 ns/day, 18.511 hours/ns, 15.006 timesteps/s
100.0% CPU use with 1 MPI tasks x no OpenMP threads

MPI task timing breakdown:
Section |  min time  |  avg time  |  max time  |%varavg| %total
---------------------------------------------------------------
Pair    | 15.292     | 15.292     | 15.292     |   0.0 | 46.36
Neigh   | 16.69      | 16.69      | 16.69      |   0.0 | 50.60
Comm    | 0.32628    | 0.32628    | 0.32628    |   0.0 |  0.99
Output  | 0.057772   | 0.057772   | 0.057772   |   0.0 |  0.18
Modify  | 0.48409    | 0.48409    | 0.48409    |   0.0 |  1.47
Other   |            | 0.137      |            |       |  0.42

Nlocal:    19652 ave 19652 max 19652 min
Histogram: 1 0 0 0 0 0 0 0 0 0
Nghost:    13752 ave 13752 max 13752 min
Histogram: 1 0 0 0 0 0 0 0 0 0
Neighs:    700384 ave 700384 max 700384 min
Histogram: 1 0 0 0 0 0 0 0 0 0

Total # of neighbors = 700384
Ave neighs/atom = 35.6393
Neighbor list builds = 495
Dangerous builds not checked
Setting up Verlet run ...
  Unit style    : metal
  Current step  : 50500
  Time step     : 0.001
Per MPI rank memory allocation (min/avg/max) = 18.2 | 18.2 | 18.2 Mbytes
Step Temp Press TotEng PotEng Enthalpy Volume 
   50500    1652.5669   -143.98089   -73847.584   -78045.255   -73908.864    681907.41 
   50672    1643.2768   -254.92071   -73914.822   -78088.894   -74023.258    681519.72 
Loop time of 11.2114 on 1 procs for 172 steps with 19652 atoms

Performance: 1.326 ns/day, 18.106 hours/ns, 15.341 timesteps/s
100.0% CPU use with 1 MPI tasks x no OpenMP threads

MPI task timing breakdown:
Section |  min time  |  avg time  |  max time  |%varavg| %total
---------------------------------------------------------------
Pair    | 5.1897     | 5.1897     | 5.1897     |   0.0 | 46.29
Neigh   | 5.6994     | 5.6994     | 5.6994     |   0.0 | 50.84
Comm    | 0.11004    | 0.11004    | 0.11004    |   0.0 |  0.98
Output  | 0.00014114 | 0.00014114 | 0.00014114 |   0.0 |  0.00
Modify  | 0.16531    | 0.16531    | 0.16531    |   0.0 |  1.47
Other   |            | 0.04683    |            |       |  0.42

Nlocal:    19652 ave 19652 max 19652 min
Histogram: 1 0 0 0 0 0 0 0 0 0
Nghost:    13723 ave 13723 max 13723 min
Histogram: 1 0 0 0 0 0 0 0 0 0
Neighs:    700370 ave 700370 max 700370 min
Histogram: 1 0 0 0 0 0 0 0 0 0

Total # of neighbors = 700370
Ave neighs/atom = 35.6386
Neighbor list builds = 172
Dangerous builds not checked
Setting up Verlet run ...
  Unit style    : metal
  Current step  : 50672
  Time step     : 0.001
Per MPI rank memory allocation (min/avg/max) = 18.2 | 18.2 | 18.2 Mbytes
Step Temp Press TotEng PotEng Enthalpy Volume 
   50672    1643.2768   -254.92071   -73914.822   -78088.894   -74023.258    681519.72 
   50692    1642.7109   -216.81588   -73914.166   -78086.802   -74006.391    681504.45 
   51167    1619.9592   -175.83666   -74138.721   -78253.565   -74213.392    680382.25 
Loop time of 33.6438 on 1 procs for 495 steps with 19652 atoms

Performance: 1.271 ns/day, 18.880 hours/ns, 14.713 timesteps/s
99.9% CPU use with 1 MPI tasks x no OpenMP threads

MPI task timing breakdown:
Section |  min time  |  avg time  |  max time  |%varavg| %total
---------------------------------------------------------------
Pair    | 15.626     | 15.626     | 15.626     |   0.0 | 46.44
Neigh   | 16.99      | 16.99      | 16.99      |   0.0 | 50.50
Comm    | 0.33486    | 0.33486    | 0.33486    |   0.0 |  1.00
Output  | 0.060189   | 0.060189   | 0.060189   |   0.0 |  0.18
Modify  | 0.49695    | 0.49695    | 0.49695    |   0.0 |  1.48
Other   |            | 0.1361     |            |       |  0.40

Nlocal:    19652 ave 19652 max 19652 min
Histogram: 1 0 0 0 0 0 0 0 0 0
Nghost:    13752 ave 13752 max 13752 min
Histogram: 1 0 0 0 0 0 0 0 0 0
Neighs:    700925 ave 700925 max 700925 min
Histogram: 1 0 0 0 0 0 0 0 0 0

Total # of neighbors = 700925
Ave neighs/atom = 35.6669
Neighbor list builds = 495
Dangerous builds not checked
Setting up Verlet run ...
  Unit style    : metal
  Current step  : 51167
  Time step     : 0.001
Per MPI rank memory allocation (min/avg/max) = 18.2 | 18.2 | 18.2 Mbytes
Step Temp Press TotEng PotEng Enthalpy Volume 
   51167    1619.9592   -175.83666   -74138.721   -78253.565   -74213.392    680382.25 
   51339    1610.5752    28.251315    -74212.96   -78303.968   -74200.971    679944.98 
Loop time of 11.0723 on 1 procs for 172 steps with 19652 atoms

Performance: 1.342 ns/day, 17.882 hours/ns, 15.534 timesteps/s
100.0% CPU use with 1 MPI tasks x no OpenMP threads

MPI task timing breakdown:
Section |  min time  |  avg time  |  max time  |%varavg| %total
---------------------------------------------------------------
Pair    | 5.0737     | 5.0737     | 5.0737     |   0.0 | 45.82
Neigh   | 5.684      | 5.684      | 5.684      |   0.0 | 51.34
Comm    | 0.10847    | 0.10847    | 0.10847    |   0.0 |  0.98
Output  | 0.00012207 | 0.00012207 | 0.00012207 |   0.0 |  0.00
Modify  | 0.16395    | 0.16395    | 0.16395    |   0.0 |  1.48
Other   |            | 0.04205    |            |       |  0.38

Nlocal:    19652 ave 19652 max 19652 min
Histogram: 1 0 0 0 0 0 0 0 0 0
Nghost:    13744 ave 13744 max 13744 min
Histogram: 1 0 0 0 0 0 0 0 0 0
Neighs:    701500 ave 701500 max 701500 min
Histogram: 1 0 0 0 0 0 0 0 0 0

Total # of neighbors = 701500
Ave neighs/atom = 35.6961
Neighbor list builds = 172
Dangerous builds not checked
Setting up Verlet run ...
  Unit style    : metal
  Current step  : 51339
  Time step     : 0.001
Per MPI rank memory allocation (min/avg/max) = 18.2 | 18.2 | 18.2 Mbytes
Step Temp Press TotEng PotEng Enthalpy Volume 
   51339    1610.5752    28.251315    -74212.96   -78303.968   -74200.971    679944.98 
   51359       1601.1    2.8857834   -74213.814   -78280.753   -74212.589    679946.43 
   51834     1563.072   -67.707788   -74443.762   -78414.108   -74472.452    678874.73 
Loop time of 32.2973 on 1 procs for 495 steps with 19652 atoms

Performance: 1.324 ns/day, 18.124 hours/ns, 15.326 timesteps/s
99.9% CPU use with 1 MPI tasks x no OpenMP threads

MPI task timing breakdown:
Section |  min time  |  avg time  |  max time  |%varavg| %total
---------------------------------------------------------------
Pair    | 14.816     | 14.816     | 14.816     |   0.0 | 45.87
Neigh   | 16.487     | 16.487     | 16.487     |   0.0 | 51.05
Comm    | 0.31612    | 0.31612    | 0.31612    |   0.0 |  0.98
Output  | 0.086114   | 0.086114   | 0.086114   |   0.0 |  0.27
Modify  | 0.47177    | 0.47177    | 0.47177    |   0.0 |  1.46
Other   |            | 0.1209     |            |       |  0.37

Nlocal:    19652 ave 19652 max 19652 min
Histogram: 1 0 0 0 0 0 0 0 0 0
Nghost:    13710 ave 13710 max 13710 min
Histogram: 1 0 0 0 0 0 0 0 0 0
Neighs:    701674 ave 701674 max 701674 min
Histogram: 1 0 0 0 0 0 0 0 0 0

Total # of neighbors = 701674
Ave neighs/atom = 35.705
Neighbor list builds = 495
Dangerous builds not checked
Setting up Verlet run ...
  Unit style    : metal
  Current step  : 51834
  Time step     : 0.001
Per MPI rank memory allocation (min/avg/max) = 18.2 | 18.2 | 18.2 Mbytes
Step Temp Press TotEng PotEng Enthalpy Volume 
   51834     1563.072   -67.707788   -74443.762   -78414.108   -74472.452    678874.73 
   52006    1550.7815   -94.791152   -74506.415   -78445.541    -74546.58    678876.05 
Loop time of 10.9685 on 1 procs for 172 steps with 19652 atoms

Performance: 1.355 ns/day, 17.714 hours/ns, 15.681 timesteps/s
100.0% CPU use with 1 MPI tasks x no OpenMP threads

MPI task timing breakdown:
Section |  min time  |  avg time  |  max time  |%varavg| %total
---------------------------------------------------------------
Pair    | 5.0137     | 5.0137     | 5.0137     |   0.0 | 45.71
Neigh   | 5.6452     | 5.6452     | 5.6452     |   0.0 | 51.47
Comm    | 0.10673    | 0.10673    | 0.10673    |   0.0 |  0.97
Output  | 0.00012589 | 0.00012589 | 0.00012589 |   0.0 |  0.00
Modify  | 0.16258    | 0.16258    | 0.16258    |   0.0 |  1.48
Other   |            | 0.04019    |            |       |  0.37

Nlocal:    19652 ave 19652 max 19652 min
Histogram: 1 0 0 0 0 0 0 0 0 0
Nghost:    13783 ave 13783 max 13783 min
Histogram: 1 0 0 0 0 0 0 0 0 0
Neighs:    701611 ave 701611 max 701611 min
Histogram: 1 0 0 0 0 0 0 0 0 0

Total # of neighbors = 701611
Ave neighs/atom = 35.7018
Neighbor list builds = 172
Dangerous builds not checked
Setting up Verlet run ...
  Unit style    : metal
  Current step  : 52006
  Time step     : 0.001
Per MPI rank memory allocation (min/avg/max) = 18.2 | 18.2 | 18.2 Mbytes
Step Temp Press TotEng PotEng Enthalpy Volume 
   52006    1550.7815   -94.791152   -74506.415   -78445.541    -74546.58    678876.05 
   52026    1560.0371   -200.64225   -74506.892   -78469.528   -74591.907    678867.25 
   52501    1518.6346     184.8372   -74735.526   -78592.996   -74657.377    677403.17 
Loop time of 32.4358 on 1 procs for 495 steps with 19652 atoms

Performance: 1.319 ns/day, 18.202 hours/ns, 15.261 timesteps/s
99.9% CPU use with 1 MPI tasks x no OpenMP threads

MPI task timing breakdown:
Section |  min time  |  avg time  |  max time  |%varavg| %total
---------------------------------------------------------------
Pair    | 14.892     | 14.892     | 14.892     |   0.0 | 45.91
Neigh   | 16.569     | 16.569     | 16.569     |   0.0 | 51.08
Comm    | 0.31541    | 0.31541    | 0.31541    |   0.0 |  0.97
Output  | 0.062502   | 0.062502   | 0.062502   |   0.0 |  0.19
Modify  | 0.47561    | 0.47561    | 0.47561    |   0.0 |  1.47
Other   |            | 0.1213     |            |       |  0.37

Nlocal:    19652 ave 19652 max 19652 min
Histogram: 1 0 0 0 0 0 0 0 0 0
Nghost:    13771 ave 13771 max 13771 min
Histogram: 1 0 0 0 0 0 0 0 0 0
Neighs:    702698 ave 702698 max 702698 min
Histogram: 1 0 0 0 0 0 0 0 0 0

Total # of neighbors = 702698
Ave neighs/atom = 35.7571
Neighbor list builds = 495
Dangerous builds not checked
Setting up Verlet run ...
  Unit style    : metal
  Current step  : 52501
  Time step     : 0.001
Per MPI rank memory allocation (min/avg/max) = 18.2 | 18.2 | 18.2 Mbytes
Step Temp Press TotEng PotEng Enthalpy Volume 
   52501    1518.6346     184.8372   -74735.526   -78592.996   -74657.377    677403.17 
   52673    1509.2142   -280.86936   -74809.432   -78642.973   -74928.201    677501.71 
Loop time of 11.1092 on 1 procs for 172 steps with 19652 atoms

Performance: 1.338 ns/day, 17.941 hours/ns, 15.483 timesteps/s
100.0% CPU use with 1 MPI tasks x no OpenMP threads

MPI task timing breakdown:
Section |  min time  |  avg time  |  max time  |%varavg| %total
---------------------------------------------------------------
Pair    | 5.108      | 5.108      | 5.108      |   0.0 | 45.98
Neigh   | 5.6868     | 5.6868     | 5.6868     |   0.0 | 51.19
Comm    | 0.10772    | 0.10772    | 0.10772    |   0.0 |  0.97
Output  | 0.00010896 | 0.00010896 | 0.00010896 |   0.0 |  0.00
Modify  | 0.16435    | 0.16435    | 0.16435    |   0.0 |  1.48
Other   |            | 0.04218    |            |       |  0.38

Nlocal:    19652 ave 19652 max 19652 min
Histogram: 1 0 0 0 0 0 0 0 0 0
Nghost:    13799 ave 13799 max 13799 min
Histogram: 1 0 0 0 0 0 0 0 0 0
Neighs:    702082 ave 702082 max 702082 min
Histogram: 1 0 0 0 0 0 0 0 0 0

Total # of neighbors = 702082
Ave neighs/atom = 35.7257
Neighbor list builds = 172
Dangerous builds not checked
Setting up Verlet run ...
  Unit style    : metal
  Current step  : 52673
  Time step     : 0.001
Per MPI rank memory allocation (min/avg/max) = 18.2 | 18.2 | 18.2 Mbytes
Step Temp Press TotEng PotEng Enthalpy Volume 
   52673    1509.2142   -280.86936   -74809.432   -78642.973   -74928.201    677501.71 
   52693    1505.7084   -305.69089   -74810.361   -78634.998   -74939.623    677482.03 
   53168    1465.1809   -245.12856   -75077.435   -78799.128   -75180.867    676038.52 
Loop time of 32.8945 on 1 procs for 495 steps with 19652 atoms

Performance: 1.300 ns/day, 18.459 hours/ns, 15.048 timesteps/s
99.9% CPU use with 1 MPI tasks x no OpenMP threads

MPI task timing breakdown:
Section |  min time  |  avg time  |  max time  |%varavg| %total
---------------------------------------------------------------
Pair    | 15.167     | 15.167     | 15.167     |   0.0 | 46.11
Neigh   | 16.706     | 16.706     | 16.706     |   0.0 | 50.79
Comm    | 0.32328    | 0.32328    | 0.32328    |   0.0 |  0.98
Output  | 0.086099   | 0.086099   | 0.086099   |   0.0 |  0.26
Modify  | 0.48756    | 0.48756    | 0.48756    |   0.0 |  1.48
Other   |            | 0.1251     |            |       |  0.38

Nlocal:    19652 ave 19652 max 19652 min
Histogram: 1 0 0 0 0 0 0 0 0 0
Nghost:    13807 ave 13807 max 13807 min
Histogram: 1 0 0 0 0 0 0 0 0 0
Neighs:    703734 ave 703734 max 703734 min
Histogram: 1 0 0 0 0 0 0 0 0 0

Total # of neighbors = 703734
Ave neighs/atom = 35.8098
Neighbor list builds = 495
Dangerous builds not checked
Setting up Verlet run ...
  Unit style    : metal
  Current step  : 53168
  Time step     : 0.001
Per MPI rank memory allocation (min/avg/max) = 18.2 | 18.2 | 18.2 Mbytes
Step Temp Press TotEng PotEng Enthalpy Volume 
   53168    1465.1809   -245.12856   -75077.435   -78799.128   -75180.867    676038.52 
   53340    1463.0768   -20.854615   -75151.007   -78867.355   -75159.799    675512.15 
Loop time of 11.145 on 1 procs for 172 steps with 19652 atoms

Performance: 1.333 ns/day, 17.999 hours/ns, 15.433 timesteps/s
100.0% CPU use with 1 MPI tasks x no OpenMP threads

MPI task timing breakdown:
Section |  min time  |  avg time  |  max time  |%varavg| %total
---------------------------------------------------------------
Pair    | 5.1341     | 5.1341     | 5.1341     |   0.0 | 46.07
Neigh   | 5.6952     | 5.6952     | 5.6952     |   0.0 | 51.10
Comm    | 0.10938    | 0.10938    | 0.10938    |   0.0 |  0.98
Output  | 0.00012493 | 0.00012493 | 0.00012493 |   0.0 |  0.00
Modify  | 0.16425    | 0.16425    | 0.16425    |   0.0 |  1.47
Other   |            | 0.04197    |            |       |  0.38

Nlocal:    19652 ave 19652 max 19652 min
Histogram: 1 0 0 0 0 0 0 0 0 0
Nghost:    13759 ave 13759 max 13759 min
Histogram: 1 0 0 0 0 0 0 0 0 0
Neighs:    703791 ave 703791 max 703791 min
Histogram: 1 0 0 0 0 0 0 0 0 0

Total # of neighbors = 703791
Ave neighs/atom = 35.8127
Neighbor list builds = 172
Dangerous builds not checked
Setting up Verlet run ...
  Unit style    : metal
  Current step  : 53340
  Time step     : 0.001
Per MPI rank memory allocation (min/avg/max) = 18.2 | 18.2 | 18.2 Mbytes
Step Temp Press TotEng PotEng Enthalpy Volume 
   53340    1463.0768   -20.854615   -75151.007   -78867.355   -75159.799    675512.15 
   53360    1460.6648   -63.950504   -75152.382   -78862.604   -75179.345     675509.7 
   53835     1416.367    80.245998   -75407.336   -79005.037    -75373.58    673966.97 
Loop time of 32.1825 on 1 procs for 495 steps with 19652 atoms

Performance: 1.329 ns/day, 18.060 hours/ns, 15.381 timesteps/s
99.9% CPU use with 1 MPI tasks x no OpenMP threads

MPI task timing breakdown:
Section |  min time  |  avg time  |  max time  |%varavg| %total
---------------------------------------------------------------
Pair    | 14.792     | 14.792     | 14.792     |   0.0 | 45.96
Neigh   | 16.421     | 16.421     | 16.421     |   0.0 | 51.03
Comm    | 0.3133     | 0.3133     | 0.3133     |   0.0 |  0.97
Output  | 0.064934   | 0.064934   | 0.064934   |   0.0 |  0.20
Modify  | 0.4704     | 0.4704     | 0.4704     |   0.0 |  1.46
Other   |            | 0.1203     |            |       |  0.37

Nlocal:    19652 ave 19652 max 19652 min
Histogram: 1 0 0 0 0 0 0 0 0 0
Nghost:    13810 ave 13810 max 13810 min
Histogram: 1 0 0 0 0 0 0 0 0 0
Neighs:    704664 ave 704664 max 704664 min
Histogram: 1 0 0 0 0 0 0 0 0 0

Total # of neighbors = 704664
Ave neighs/atom = 35.8571
Neighbor list builds = 495
Dangerous builds not checked
Setting up Verlet run ...
  Unit style    : metal
  Current step  : 53835
  Time step     : 0.001
Per MPI rank memory allocation (min/avg/max) = 18.2 | 18.2 | 18.2 Mbytes
Step Temp Press TotEng PotEng Enthalpy Volume 
   53835     1416.367    80.245998   -75407.336   -79005.037    -75373.58    673966.97 
   54007    1404.7205   -171.19299   -75473.088   -79041.206   -75545.129    674227.06 
Loop time of 11.4029 on 1 procs for 172 steps with 19652 atoms

Performance: 1.303 ns/day, 18.416 hours/ns, 15.084 timesteps/s
100.0% CPU use with 1 MPI tasks x no OpenMP threads

MPI task timing breakdown:
Section |  min time  |  avg time  |  max time  |%varavg| %total
---------------------------------------------------------------
Pair    | 5.2642     | 5.2642     | 5.2642     |   0.0 | 46.17
Neigh   | 5.8102     | 5.8102     | 5.8102     |   0.0 | 50.95
Comm    | 0.11272    | 0.11272    | 0.11272    |   0.0 |  0.99
Output  | 0.00012183 | 0.00012183 | 0.00012183 |   0.0 |  0.00
Modify  | 0.1714     | 0.1714     | 0.1714     |   0.0 |  1.50
Other   |            | 0.04423    |            |       |  0.39

Nlocal:    19652 ave 19652 max 19652 min
Histogram: 1 0 0 0 0 0 0 0 0 0
Nghost:    13792 ave 13792 max 13792 min
Histogram: 1 0 0 0 0 0 0 0 0 0
Neighs:    704285 ave 704285 max 704285 min
Histogram: 1 0 0 0 0 0 0 0 0 0

Total # of neighbors = 704285
Ave neighs/atom = 35.8378
Neighbor list builds = 172
Dangerous builds not checked
Setting up Verlet run ...
  Unit style    : metal
  Current step  : 54007
  Time step     : 0.001
Per MPI rank memory allocation (min/avg/max) = 18.2 | 18.2 | 18.2 Mbytes
Step Temp Press TotEng PotEng Enthalpy Volume 
   54007    1404.7205   -171.19299   -75473.088   -79041.206   -75545.129    674227.06 
   54027    1407.5299   -147.28669   -75473.731   -79048.985   -75535.711    674215.48 
   54502    1362.8316   -142.76733   -75762.698   -79224.414   -75822.656    672865.63 
Loop time of 32.6632 on 1 procs for 495 steps with 19652 atoms

Performance: 1.309 ns/day, 18.330 hours/ns, 15.155 timesteps/s
99.9% CPU use with 1 MPI tasks x no OpenMP threads

MPI task timing breakdown:
Section |  min time  |  avg time  |  max time  |%varavg| %total
---------------------------------------------------------------
Pair    | 15.068     | 15.068     | 15.068     |   0.0 | 46.13
Neigh   | 16.609     | 16.609     | 16.609     |   0.0 | 50.85
Comm    | 0.319      | 0.319      | 0.319      |   0.0 |  0.98
Output  | 0.065728   | 0.065728   | 0.065728   |   0.0 |  0.20
Modify  | 0.47868    | 0.47868    | 0.47868    |   0.0 |  1.47
Other   |            | 0.1229     |            |       |  0.38

Nlocal:    19652 ave 19652 max 19652 min
Histogram: 1 0 0 0 0 0 0 0 0 0
Nghost:    13814 ave 13814 max 13814 min
Histogram: 1 0 0 0 0 0 0 0 0 0
Neighs:    705070 ave 705070 max 705070 min
Histogram: 1 0 0 0 0 0 0 0 0 0

Total # of neighbors = 705070
Ave neighs/atom = 35.8778
Neighbor list builds = 495
Dangerous builds not checked
Setting up Verlet run ...
  Unit style    : metal
  Current step  : 54502
  Time step     : 0.001
Per MPI rank memory allocation (min/avg/max) = 18.2 | 18.2 | 18.2 Mbytes
Step Temp Press TotEng PotEng Enthalpy Volume 
   54502    1362.8316   -142.76733   -75762.698   -79224.414   -75822.656    672865.63 
   54674    1363.5614   -96.343637   -75834.672   -79298.242   -75875.102    672353.07 
Loop time of 11.8954 on 1 procs for 172 steps with 19652 atoms

Performance: 1.249 ns/day, 19.211 hours/ns, 14.459 timesteps/s
100.0% CPU use with 1 MPI tasks x no OpenMP threads

MPI task timing breakdown:
Section |  min time  |  avg time  |  max time  |%varavg| %total
---------------------------------------------------------------
Pair    | 5.5765     | 5.5765     | 5.5765     |   0.0 | 46.88
Neigh   | 5.9772     | 5.9772     | 5.9772     |   0.0 | 50.25
Comm    | 0.11823    | 0.11823    | 0.11823    |   0.0 |  0.99
Output  | 0.00012398 | 0.00012398 | 0.00012398 |   0.0 |  0.00
Modify  | 0.17729    | 0.17729    | 0.17729    |   0.0 |  1.49
Other   |            | 0.04597    |            |       |  0.39

Nlocal:    19652 ave 19652 max 19652 min
Histogram: 1 0 0 0 0 0 0 0 0 0
Nghost:    13801 ave 13801 max 13801 min
Histogram: 1 0 0 0 0 0 0 0 0 0
Neighs:    705240 ave 705240 max 705240 min
Histogram: 1 0 0 0 0 0 0 0 0 0

Total # of neighbors = 705240
Ave neighs/atom = 35.8864
Neighbor list builds = 172
Dangerous builds not checked
Setting up Verlet run ...
  Unit style    : metal
  Current step  : 54674
  Time step     : 0.001
Per MPI rank memory allocation (min/avg/max) = 18.2 | 18.2 | 18.2 Mbytes
Step Temp Press TotEng PotEng Enthalpy Volume 
   54674    1363.5614   -96.343637   -75834.672   -79298.242   -75875.102    672353.07 
   54694     1359.665   -103.48576   -75836.025   -79289.698   -75879.452    672345.52 
   55169    1322.6835    16.715667    -76092.27   -79452.007   -76085.271    670866.05 
Loop time of 33.2844 on 1 procs for 495 steps with 19652 atoms

Performance: 1.285 ns/day, 18.678 hours/ns, 14.872 timesteps/s
99.9% CPU use with 1 MPI tasks x no OpenMP threads

MPI task timing breakdown:
Section |  min time  |  avg time  |  max time  |%varavg| %total
---------------------------------------------------------------
Pair    | 15.465     | 15.465     | 15.465     |   0.0 | 46.46
Neigh   | 16.814     | 16.814     | 16.814     |   0.0 | 50.52
Comm    | 0.32543    | 0.32543    | 0.32543    |   0.0 |  0.98
Output  | 0.060978   | 0.060978   | 0.060978   |   0.0 |  0.18
Modify  | 0.4924     | 0.4924     | 0.4924     |   0.0 |  1.48
Other   |            | 0.1259     |            |       |  0.38

Nlocal:    19652 ave 19652 max 19652 min
Histogram: 1 0 0 0 0 0 0 0 0 0
Nghost:    13814 ave 13814 max 13814 min
Histogram: 1 0 0 0 0 0 0 0 0 0
Neighs:    706095 ave 706095 max 706095 min
Histogram: 1 0 0 0 0 0 0 0 0 0

Total # of neighbors = 706095
Ave neighs/atom = 35.9299
Neighbor list builds = 495
Dangerous builds not checked
Setting up Verlet run ...
  Unit style    : metal
  Current step  : 55169
  Time step     : 0.001
Per MPI rank memory allocation (min/avg/max) = 18.2 | 18.2 | 18.2 Mbytes
Step Temp Press TotEng PotEng Enthalpy Volume 
   55169    1322.6835    16.715667    -76092.27   -79452.007   -76085.271    670866.05 
   55341    1311.9768     39.37286   -76161.425   -79493.966    -76144.94    670806.51 
Loop time of 11.8464 on 1 procs for 172 steps with 19652 atoms

Performance: 1.254 ns/day, 19.132 hours/ns, 14.519 timesteps/s
99.5% CPU use with 1 MPI tasks x no OpenMP threads

MPI task timing breakdown:
Section |  min time  |  avg time  |  max time  |%varavg| %total
---------------------------------------------------------------
Pair    | 5.5239     | 5.5239     | 5.5239     |   0.0 | 46.63
Neigh   | 5.9837     | 5.9837     | 5.9837     |   0.0 | 50.51
Comm    | 0.11557    | 0.11557    | 0.11557    |   0.0 |  0.98
Output  | 0.00012302 | 0.00012302 | 0.00012302 |   0.0 |  0.00
Modify  | 0.1778     | 0.1778     | 0.1778     |   0.0 |  1.50
Other   |            | 0.04536    |            |       |  0.38

Nlocal:    19652 ave 19652 max 19652 min
Histogram: 1 0 0 0 0 0 0 0 0 0
Nghost:    13801 ave 13801 max 13801 min
Histogram: 1 0 0 0 0 0 0 0 0 0
Neighs:    705563 ave 705563 max 705563 min
Histogram: 1 0 0 0 0 0 0 0 0 0

Total # of neighbors = 705563
Ave neighs/atom = 35.9029
Neighbor list builds = 172
Dangerous builds not checked
Setting up Verlet run ...
  Unit style    : metal
  Current step  : 55341
  Time step     : 0.001
[...]
Pair    | 16.202     | 16.202     | 16.202     |   0.0 | 47.46
Neigh   | 16.917     | 16.917     | 16.917     |   0.0 | 49.55
Comm    | 0.33499    | 0.33499    | 0.33499    |   0.0 |  0.98
Output  | 0.056517   | 0.056517   | 0.056517   |   0.0 |  0.17
Modify  | 0.50007    | 0.50007    | 0.50007    |   0.0 |  1.46
Other   |            | 0.1298     |            |       |  0.38

Nlocal:    19652 ave 19652 max 19652 min
Histogram: 1 0 0 0 0 0 0 0 0 0
Nghost:    14017 ave 14017 max 14017 min
Histogram: 1 0 0 0 0 0 0 0 0 0
Neighs:    711627 ave 711627 max 711627 min
Histogram: 1 0 0 0 0 0 0 0 0 0

Total # of neighbors = 711627
Ave neighs/atom = 36.2114
Neighbor list builds = 495
Dangerous builds not checked
Setting up Verlet run ...
  Unit style    : metal
  Current step  : 67175
  Time step     : 0.001
Per MPI rank memory allocation (min/avg/max) = 18.2 | 18.2 | 18.2 Mbytes
Step Temp Press TotEng PotEng Enthalpy Volume 
   67175    423.28747   -96.782034   -81636.184   -82711.373   -81675.373    648750.59 
   67347    416.99196    53.705835   -81692.279   -82751.477   -81670.551    648209.11 
Loop time of 13.7138 on 1 procs for 172 steps with 19652 atoms

Performance: 1.084 ns/day, 22.148 hours/ns, 12.542 timesteps/s
99.5% CPU use with 1 MPI tasks x no OpenMP threads

MPI task timing breakdown:
Section |  min time  |  avg time  |  max time  |%varavg| %total
---------------------------------------------------------------
Pair    | 6.7407     | 6.7407     | 6.7407     |   0.0 | 49.15
Neigh   | 6.5573     | 6.5573     | 6.5573     |   0.0 | 47.82
Comm    | 0.14808    | 0.14808    | 0.14808    |   0.0 |  1.08
Output  | 0.00012302 | 0.00012302 | 0.00012302 |   0.0 |  0.00
Modify  | 0.20723    | 0.20723    | 0.20723    |   0.0 |  1.51
Other   |            | 0.06039    |            |       |  0.44

Nlocal:    19652 ave 19652 max 19652 min
Histogram: 1 0 0 0 0 0 0 0 0 0
Nghost:    14041 ave 14041 max 14041 min
Histogram: 1 0 0 0 0 0 0 0 0 0
Neighs:    711770 ave 711770 max 711770 min
Histogram: 1 0 0 0 0 0 0 0 0 0

Total # of neighbors = 711770
Ave neighs/atom = 36.2187
Neighbor list builds = 172
Dangerous builds not checked
Setting up Verlet run ...
  Unit style    : metal
  Current step  : 67347
  Time step     : 0.001
Per MPI rank memory allocation (min/avg/max) = 18.2 | 18.2 | 18.2 Mbytes
Step Temp Press TotEng PotEng Enthalpy Volume 
   67347    416.99196    53.705835   -81692.279   -82751.477   -81670.551    648209.11 
   67367    416.01454    40.050247   -81694.159   -82750.874   -81677.955    648220.58 
   67842    372.95089   -5.7285077   -81904.792   -82852.121   -81907.107    647605.73 
Loop time of 37.5815 on 1 procs for 495 steps with 19652 atoms

Performance: 1.138 ns/day, 21.090 hours/ns, 13.171 timesteps/s
99.0% CPU use with 1 MPI tasks x no OpenMP threads

MPI task timing breakdown:
Section |  min time  |  avg time  |  max time  |%varavg| %total
---------------------------------------------------------------
Pair    | 18.181     | 18.181     | 18.181     |   0.0 | 48.38
Neigh   | 18.281     | 18.281     | 18.281     |   0.0 | 48.64
Comm    | 0.3682     | 0.3682     | 0.3682     |   0.0 |  0.98
Output  | 0.059077   | 0.059077   | 0.059077   |   0.0 |  0.16
Modify  | 0.54721    | 0.54721    | 0.54721    |   0.0 |  1.46
Other   |            | 0.1455     |            |       |  0.39

Nlocal:    19652 ave 19652 max 19652 min
Histogram: 1 0 0 0 0 0 0 0 0 0
Nghost:    14033 ave 14033 max 14033 min
Histogram: 1 0 0 0 0 0 0 0 0 0
Neighs:    711852 ave 711852 max 711852 min
Histogram: 1 0 0 0 0 0 0 0 0 0

Total # of neighbors = 711852
Ave neighs/atom = 36.2229
Neighbor list builds = 495
Dangerous builds not checked
Setting up Verlet run ...
  Unit style    : metal
  Current step  : 67842
  Time step     : 0.001
Per MPI rank memory allocation (min/avg/max) = 18.2 | 18.2 | 18.2 Mbytes
Step Temp Press TotEng PotEng Enthalpy Volume 
   67842    372.95089   -5.7285077   -81904.792   -82852.121   -81907.107    647605.73 
   68014    362.67235    63.612369   -81961.116   -82882.337   -81935.415    647330.56 
Loop time of 12.6841 on 1 procs for 172 steps with 19652 atoms

Performance: 1.172 ns/day, 20.485 hours/ns, 13.560 timesteps/s
99.9% CPU use with 1 MPI tasks x no OpenMP threads

MPI task timing breakdown:
Section |  min time  |  avg time  |  max time  |%varavg| %total
---------------------------------------------------------------
Pair    | 6.133      | 6.133      | 6.133      |   0.0 | 48.35
Neigh   | 6.1869     | 6.1869     | 6.1869     |   0.0 | 48.78
Comm    | 0.12699    | 0.12699    | 0.12699    |   0.0 |  1.00
Output  | 0.00011897 | 0.00011897 | 0.00011897 |   0.0 |  0.00
Modify  | 0.18658    | 0.18658    | 0.18658    |   0.0 |  1.47
Other   |            | 0.05062    |            |       |  0.40

Nlocal:    19652 ave 19652 max 19652 min
Histogram: 1 0 0 0 0 0 0 0 0 0
Nghost:    14042 ave 14042 max 14042 min
Histogram: 1 0 0 0 0 0 0 0 0 0
Neighs:    712065 ave 712065 max 712065 min
Histogram: 1 0 0 0 0 0 0 0 0 0

Total # of neighbors = 712065
Ave neighs/atom = 36.2337
Neighbor list builds = 172
Dangerous builds not checked
Setting up Verlet run ...
  Unit style    : metal
  Current step  : 68014
  Time step     : 0.001
Per MPI rank memory allocation (min/avg/max) = 18.2 | 18.2 | 18.2 Mbytes
Step Temp Press TotEng PotEng Enthalpy Volume 
   68014    362.67235    63.612369   -81961.116   -82882.337   -81935.415    647330.56 
   68034    362.02071    49.480474   -81962.515   -82882.081   -81942.523    647346.91 
   68509    323.84679   -51.926634   -82171.168   -82993.768   -82192.124    646595.67 
Loop time of 34.0254 on 1 procs for 495 steps with 19652 atoms

Performance: 1.257 ns/day, 19.094 hours/ns, 14.548 timesteps/s
99.1% CPU use with 1 MPI tasks x no OpenMP threads

MPI task timing breakdown:
Section |  min time  |  avg time  |  max time  |%varavg| %total
---------------------------------------------------------------
Pair    | 15.965     | 15.965     | 15.965     |   0.0 | 46.92
Neigh   | 16.797     | 16.797     | 16.797     |   0.0 | 49.37
Comm    | 0.32142    | 0.32142    | 0.32142    |   0.0 |  0.94
Output  | 0.32445    | 0.32445    | 0.32445    |   0.0 |  0.95
Modify  | 0.49073    | 0.49073    | 0.49073    |   0.0 |  1.44
Other   |            | 0.1264     |            |       |  0.37

Nlocal:    19652 ave 19652 max 19652 min
Histogram: 1 0 0 0 0 0 0 0 0 0
Nghost:    14029 ave 14029 max 14029 min
Histogram: 1 0 0 0 0 0 0 0 0 0
Neighs:    712329 ave 712329 max 712329 min
Histogram: 1 0 0 0 0 0 0 0 0 0

Total # of neighbors = 712329
Ave neighs/atom = 36.2472
Neighbor list builds = 495
Dangerous builds not checked
Setting up Verlet run ...
  Unit style    : metal
  Current step  : 68509
  Time step     : 0.001
Per MPI rank memory allocation (min/avg/max) = 18.2 | 18.2 | 18.2 Mbytes
Step Temp Press TotEng PotEng Enthalpy Volume 
   68509    323.84679   -51.926634   -82171.168   -82993.768   -82192.124    646595.67 
   68681    314.85912   -87.563543   -82226.433   -83026.204   -82261.764    646457.18 
Loop time of 11.2669 on 1 procs for 172 steps with 19652 atoms

Performance: 1.319 ns/day, 18.196 hours/ns, 15.266 timesteps/s
100.0% CPU use with 1 MPI tasks x no OpenMP threads

MPI task timing breakdown:
Section |  min time  |  avg time  |  max time  |%varavg| %total
---------------------------------------------------------------
Pair    | 5.2949     | 5.2949     | 5.2949     |   0.0 | 47.00
Neigh   | 5.6611     | 5.6611     | 5.6611     |   0.0 | 50.25
Comm    | 0.10578    | 0.10578    | 0.10578    |   0.0 |  0.94
Output  | 0.00010705 | 0.00010705 | 0.00010705 |   0.0 |  0.00
Modify  | 0.16332    | 0.16332    | 0.16332    |   0.0 |  1.45
Other   |            | 0.04168    |            |       |  0.37

Nlocal:    19652 ave 19652 max 19652 min
Histogram: 1 0 0 0 0 0 0 0 0 0
Nghost:    14062 ave 14062 max 14062 min
Histogram: 1 0 0 0 0 0 0 0 0 0
Neighs:    712290 ave 712290 max 712290 min
Histogram: 1 0 0 0 0 0 0 0 0 0

Total # of neighbors = 712290
Ave neighs/atom = 36.2452
Neighbor list builds = 172
Dangerous builds not checked
Setting up Verlet run ...
  Unit style    : metal
  Current step  : 68681
  Time step     : 0.001
Per MPI rank memory allocation (min/avg/max) = 18.2 | 18.2 | 18.2 Mbytes
Step Temp Press TotEng PotEng Enthalpy Volume 
   68681    314.85912   -87.563543   -82226.433   -83026.204   -82261.764    646457.18 
   68701    315.19383   -84.972953   -82228.129    -83028.75   -82262.413    646429.68 
   69176    276.39475   -19.177034   -82436.378   -83138.446   -82444.104    645531.81 
Loop time of 34.212 on 1 procs for 495 steps with 19652 atoms

Performance: 1.250 ns/day, 19.199 hours/ns, 14.469 timesteps/s
98.3% CPU use with 1 MPI tasks x no OpenMP threads

MPI task timing breakdown:
Section |  min time  |  avg time  |  max time  |%varavg| %total
---------------------------------------------------------------
Pair    | 15.992     | 15.992     | 15.992     |   0.0 | 46.75
Neigh   | 16.666     | 16.666     | 16.666     |   0.0 | 48.71
Comm    | 0.32141    | 0.32141    | 0.32141    |   0.0 |  0.94
Output  | 0.61269    | 0.61269    | 0.61269    |   0.0 |  1.79
Modify  | 0.48871    | 0.48871    | 0.48871    |   0.0 |  1.43
Other   |            | 0.1311     |            |       |  0.38

Nlocal:    19652 ave 19652 max 19652 min
Histogram: 1 0 0 0 0 0 0 0 0 0
Nghost:    14032 ave 14032 max 14032 min
Histogram: 1 0 0 0 0 0 0 0 0 0
Neighs:    712789 ave 712789 max 712789 min
Histogram: 1 0 0 0 0 0 0 0 0 0

Total # of neighbors = 712789
Ave neighs/atom = 36.2706
Neighbor list builds = 495
Dangerous builds not checked
Setting up Verlet run ...
  Unit style    : metal
  Current step  : 69176
  Time step     : 0.001
Per MPI rank memory allocation (min/avg/max) = 18.2 | 18.2 | 18.2 Mbytes
Step Temp Press TotEng PotEng Enthalpy Volume 
   69176    276.39475   -19.177034   -82436.378   -83138.446   -82444.104    645531.81 
   69348     267.5221    9.5261939    -82491.79    -83171.32   -82487.953     645260.5 
Loop time of 17.0535 on 1 procs for 172 steps with 19652 atoms

Performance: 0.871 ns/day, 27.541 hours/ns, 10.086 timesteps/s
66.2% CPU use with 1 MPI tasks x no OpenMP threads

MPI task timing breakdown:
Section |  min time  |  avg time  |  max time  |%varavg| %total
---------------------------------------------------------------
Pair    | 5.3137     | 5.3137     | 5.3137     |   0.0 | 31.16
Neigh   | 5.6534     | 5.6534     | 5.6534     |   0.0 | 33.15
Comm    | 0.1057     | 0.1057     | 0.1057     |   0.0 |  0.62
Output  | 5.776      | 5.776      | 5.776      |   0.0 | 33.87
Modify  | 0.16297    | 0.16297    | 0.16297    |   0.0 |  0.96
Other   |            | 0.04173    |            |       |  0.24

Nlocal:    19652 ave 19652 max 19652 min
Histogram: 1 0 0 0 0 0 0 0 0 0
Nghost:    14033 ave 14033 max 14033 min
Histogram: 1 0 0 0 0 0 0 0 0 0
Neighs:    712595 ave 712595 max 712595 min
Histogram: 1 0 0 0 0 0 0 0 0 0

Total # of neighbors = 712595
Ave neighs/atom = 36.2607
Neighbor list builds = 172
Dangerous builds not checked
Setting up Verlet run ...
  Unit style    : metal
  Current step  : 69348
  Time step     : 0.001
Per MPI rank memory allocation (min/avg/max) = 18.2 | 18.2 | 18.2 Mbytes
Step Temp Press TotEng PotEng Enthalpy Volume 
   69348     267.5221    9.5261939    -82491.79    -83171.32   -82487.953     645260.5 
   69368    267.34548    12.072969   -82493.779   -83172.861   -82488.916    645264.68 
   69843    227.62821   -62.198952   -82697.327   -83275.523   -82722.351     644611.5 
Loop time of 33.6169 on 1 procs for 495 steps with 19652 atoms

Performance: 1.272 ns/day, 18.865 hours/ns, 14.725 timesteps/s
99.0% CPU use with 1 MPI tasks x no OpenMP threads

MPI task timing breakdown:
Section |  min time  |  avg time  |  max time  |%varavg| %total
---------------------------------------------------------------
Pair    | 15.753     | 15.753     | 15.753     |   0.0 | 46.86
Neigh   | 16.569     | 16.569     | 16.569     |   0.0 | 49.29
Comm    | 0.31552    | 0.31552    | 0.31552    |   0.0 |  0.94
Output  | 0.37382    | 0.37382    | 0.37382    |   0.0 |  1.11
Modify  | 0.48188    | 0.48188    | 0.48188    |   0.0 |  1.43
Other   |            | 0.1232     |            |       |  0.37

Nlocal:    19652 ave 19652 max 19652 min
Histogram: 1 0 0 0 0 0 0 0 0 0
Nghost:    14035 ave 14035 max 14035 min
Histogram: 1 0 0 0 0 0 0 0 0 0
Neighs:    712992 ave 712992 max 712992 min
Histogram: 1 0 0 0 0 0 0 0 0 0

Total # of neighbors = 712992
Ave neighs/atom = 36.2809
Neighbor list builds = 495
Dangerous builds not checked
Setting up Verlet run ...
  Unit style    : metal
  Current step  : 69843
  Time step     : 0.001
Per MPI rank memory allocation (min/avg/max) = 18.2 | 18.2 | 18.2 Mbytes
Step Temp Press TotEng PotEng Enthalpy Volume 
   69843    227.62821   -62.198952   -82697.327   -83275.523   -82722.351     644611.5 
   70015    217.46936   -64.658903   -82750.921   -83303.312   -82776.927    644402.02 
Loop time of 12.4996 on 1 procs for 172 steps with 19652 atoms

Performance: 1.189 ns/day, 20.187 hours/ns, 13.760 timesteps/s
99.9% CPU use with 1 MPI tasks x no OpenMP threads

MPI task timing breakdown:
Section |  min time  |  avg time  |  max time  |%varavg| %total
---------------------------------------------------------------
Pair    | 5.9867     | 5.9867     | 5.9867     |   0.0 | 47.90
Neigh   | 6.1523     | 6.1523     | 6.1523     |   0.0 | 49.22
Comm    | 0.12225    | 0.12225    | 0.12225    |   0.0 |  0.98
Output  | 0.00013304 | 0.00013304 | 0.00013304 |   0.0 |  0.00
Modify  | 0.19048    | 0.19048    | 0.19048    |   0.0 |  1.52
Other   |            | 0.04771    |            |       |  0.38

Nlocal:    19652 ave 19652 max 19652 min
Histogram: 1 0 0 0 0 0 0 0 0 0
Nghost:    14033 ave 14033 max 14033 min
Histogram: 1 0 0 0 0 0 0 0 0 0
Neighs:    713256 ave 713256 max 713256 min
Histogram: 1 0 0 0 0 0 0 0 0 0

Total # of neighbors = 713256
Ave neighs/atom = 36.2943
Neighbor list builds = 172
Dangerous builds not checked
Setting up Verlet run ...
  Unit style    : metal
  Current step  : 70015
  Time step     : 0.001
Per MPI rank memory allocation (min/avg/max) = 18.2 | 18.2 | 18.2 Mbytes
Step Temp Press TotEng PotEng Enthalpy Volume 
   70015    217.46936   -64.658903   -82750.921   -83303.312   -82776.927    644402.02 
   70035    216.73013   -43.822177   -82752.907   -83303.421   -82770.532     644374.5 
   70510    179.76831   -2.4767668    -82951.36   -83407.988   -82952.355     643494.7 
Loop time of 35.9476 on 1 procs for 495 steps with 19652 atoms

Performance: 1.190 ns/day, 20.173 hours/ns, 13.770 timesteps/s
98.5% CPU use with 1 MPI tasks x no OpenMP threads

MPI task timing breakdown:
Section |  min time  |  avg time  |  max time  |%varavg| %total
---------------------------------------------------------------
Pair    | 16.978     | 16.978     | 16.978     |   0.0 | 47.23
Neigh   | 17.465     | 17.465     | 17.465     |   0.0 | 48.58
Comm    | 0.3413     | 0.3413     | 0.3413     |   0.0 |  0.95
Output  | 0.50111    | 0.50111    | 0.50111    |   0.0 |  1.39
Modify  | 0.52532    | 0.52532    | 0.52532    |   0.0 |  1.46
Other   |            | 0.1366     |            |       |  0.38

Nlocal:    19652 ave 19652 max 19652 min
Histogram: 1 0 0 0 0 0 0 0 0 0
Nghost:    14013 ave 14013 max 14013 min
Histogram: 1 0 0 0 0 0 0 0 0 0
Neighs:    713315 ave 713315 max 713315 min
Histogram: 1 0 0 0 0 0 0 0 0 0

Total # of neighbors = 713315
Ave neighs/atom = 36.2973
Neighbor list builds = 495
Dangerous builds not checked
Setting up Verlet run ...
  Unit style    : metal
  Current step  : 70510
  Time step     : 0.001
Per MPI rank memory allocation (min/avg/max) = 18.2 | 18.2 | 18.2 Mbytes
Step Temp Press TotEng PotEng Enthalpy Volume 
   70510    179.76831   -2.4767668    -82951.36   -83407.988   -82952.355     643494.7 
   70682    169.56617   -4.4135979   -83005.202   -83435.915   -83006.974    643301.47 
Loop time of 12.0003 on 1 procs for 172 steps with 19652 atoms

Performance: 1.238 ns/day, 19.380 hours/ns, 14.333 timesteps/s
100.0% CPU use with 1 MPI tasks x no OpenMP threads

MPI task timing breakdown:
Section |  min time  |  avg time  |  max time  |%varavg| %total
---------------------------------------------------------------
Pair    | 5.7236     | 5.7236     | 5.7236     |   0.0 | 47.70
Neigh   | 5.943      | 5.943      | 5.943      |   0.0 | 49.52
Comm    | 0.11404    | 0.11404    | 0.11404    |   0.0 |  0.95
Output  | 0.00012398 | 0.00012398 | 0.00012398 |   0.0 |  0.00
Modify  | 0.17599    | 0.17599    | 0.17599    |   0.0 |  1.47
Other   |            | 0.0435     |            |       |  0.36

Nlocal:    19652 ave 19652 max 19652 min
Histogram: 1 0 0 0 0 0 0 0 0 0
Nghost:    14042 ave 14042 max 14042 min
Histogram: 1 0 0 0 0 0 0 0 0 0
Neighs:    713492 ave 713492 max 713492 min
Histogram: 1 0 0 0 0 0 0 0 0 0

Total # of neighbors = 713492
Ave neighs/atom = 36.3063
Neighbor list builds = 172
Dangerous builds not checked
Setting up Verlet run ...
  Unit style    : metal
  Current step  : 70682
  Time step     : 0.001
Per MPI rank memory allocation (min/avg/max) = 18.2 | 18.2 | 18.2 Mbytes
Step Temp Press TotEng PotEng Enthalpy Volume 
   70682    169.56617   -4.4135979   -83005.202   -83435.915   -83006.974    643301.47 
   70702    170.49998   -25.924982   -83007.536   -83440.621   -83017.945    643294.17 
   71177    132.50584    36.165894   -83204.233    -83540.81   -83189.731    642461.62 
Loop time of 36.2542 on 1 procs for 495 steps with 19652 atoms

Performance: 1.180 ns/day, 20.345 hours/ns, 13.654 timesteps/s
91.6% CPU use with 1 MPI tasks x no OpenMP threads

MPI task timing breakdown:
Section |  min time  |  avg time  |  max time  |%varavg| %total
---------------------------------------------------------------
Pair    | 15.78      | 15.78      | 15.78      |   0.0 | 43.52
Neigh   | 16.468     | 16.468     | 16.468     |   0.0 | 45.42
Comm    | 0.31772    | 0.31772    | 0.31772    |   0.0 |  0.88
Output  | 3.0754     | 3.0754     | 3.0754     |   0.0 |  8.48
Modify  | 0.48171    | 0.48171    | 0.48171    |   0.0 |  1.33
Other   |            | 0.1319     |            |       |  0.36

Nlocal:    19652 ave 19652 max 19652 min
Histogram: 1 0 0 0 0 0 0 0 0 0
Nghost:    14059 ave 14059 max 14059 min
Histogram: 1 0 0 0 0 0 0 0 0 0
Neighs:    713551 ave 713551 max 713551 min
Histogram: 1 0 0 0 0 0 0 0 0 0

Total # of neighbors = 713551
Ave neighs/atom = 36.3093
Neighbor list builds = 495
Dangerous builds not checked
Setting up Verlet run ...
  Unit style    : metal
  Current step  : 71177
  Time step     : 0.001
Per MPI rank memory allocation (min/avg/max) = 18.2 | 18.2 | 18.2 Mbytes
Step Temp Press TotEng PotEng Enthalpy Volume 
   71177    132.50584    36.165894   -83204.233    -83540.81   -83189.731    642461.62 
   71349    121.84998   -54.318641   -83257.613   -83567.123   -83279.392    642414.82 
Loop time of 11.9036 on 1 procs for 172 steps with 19652 atoms

Performance: 1.248 ns/day, 19.224 hours/ns, 14.449 timesteps/s
100.0% CPU use with 1 MPI tasks x no OpenMP threads

MPI task timing breakdown:
Section |  min time  |  avg time  |  max time  |%varavg| %total
---------------------------------------------------------------
Pair    | 5.7069     | 5.7069     | 5.7069     |   0.0 | 47.94
Neigh   | 5.857      | 5.857      | 5.857      |   0.0 | 49.20
Comm    | 0.1167     | 0.1167     | 0.1167     |   0.0 |  0.98
Output  | 0.00012994 | 0.00012994 | 0.00012994 |   0.0 |  0.00
Modify  | 0.17439    | 0.17439    | 0.17439    |   0.0 |  1.47
Other   |            | 0.04852    |            |       |  0.41

Nlocal:    19652 ave 19652 max 19652 min
Histogram: 1 0 0 0 0 0 0 0 0 0
Nghost:    14057 ave 14057 max 14057 min
Histogram: 1 0 0 0 0 0 0 0 0 0
Neighs:    713458 ave 713458 max 713458 min
Histogram: 1 0 0 0 0 0 0 0 0 0

Total # of neighbors = 713458
Ave neighs/atom = 36.3046
Neighbor list builds = 172
Dangerous builds not checked
Total wall time: 1:26:40
