LAMMPS (12 Dec 2018)
Lattice spacing in x,y,z = 4 4 4
Created orthogonal box = (0 0 0) to (68 68 68)
  1 by 1 by 1 MPI processor grid
Created 19652 atoms
  Time spent = 0.00219798 secs
Setting atom values ...
  206 settings made for type/fraction
Neighbor list info ...
  update every 1 steps, delay 0 steps, check no
  max neighbors/atom: 2000, page size: 100000
  master list distance cutoff = 8.5
  ghost atom cutoff = 8.5
  binsize = 4.25, bins = 16 16 16
  1 neighbor lists, perpetual/occasional/extra = 1 0 0
  (1) pair eam/alloy, perpetual
      attributes: half, newton on
      pair build: half/bin/atomonly/newton
      stencil: half/bin/3d/newton
      bin: standard
Setting up Verlet run ...
  Unit style    : metal
  Current step  : 0
  Time step     : 0.001
Per MPI rank memory allocation (min/avg/max) = 18.19 | 18.19 | 18.19 Mbytes
Step Temp Press TotEng PotEng Enthalpy Volume 
       0          300    639595.78   -102542.49   -103304.52    22980.119       314432 
     667    178.50251    595579.52   -102542.43   -102995.84    14341.863       314432 
    1000    197.40966    579475.58   -102542.43   -103043.87    11181.412       314432 
Loop time of 182.838 on 1 procs for 1000 steps with 19652 atoms

Performance: 0.473 ns/day, 50.788 hours/ns, 5.469 timesteps/s
99.6% CPU use with 1 MPI tasks x no OpenMP threads

MPI task timing breakdown:
Section |  min time  |  avg time  |  max time  |%varavg| %total
---------------------------------------------------------------
Pair    | 107        | 107        | 107        |   0.0 | 58.52
Neigh   | 72.879     | 72.879     | 72.879     |   0.0 | 39.86
Comm    | 1.7271     | 1.7271     | 1.7271     |   0.0 |  0.94
Output  | 0.067624   | 0.067624   | 0.067624   |   0.0 |  0.04
Modify  | 0.63724    | 0.63724    | 0.63724    |   0.0 |  0.35
Other   |            | 0.5283     |            |       |  0.29

Nlocal:    19652 ave 19652 max 19652 min
Histogram: 1 0 0 0 0 0 0 0 0 0
Nghost:    19929 ave 19929 max 19929 min
Histogram: 1 0 0 0 0 0 0 0 0 0
Neighs:    1.56449e+06 ave 1.56449e+06 max 1.56449e+06 min
Histogram: 1 0 0 0 0 0 0 0 0 0

Total # of neighbors = 1564487
Ave neighs/atom = 79.6096
Neighbor list builds = 1000
Dangerous builds not checked
Setting up Verlet run ...
  Unit style    : metal
  Current step  : 1000
  Time step     : 0.001
Per MPI rank memory allocation (min/avg/max) = 18.19 | 18.19 | 18.19 Mbytes
Step Temp Press TotEng PotEng Enthalpy Volume 
    1000    197.40966    579475.58   -102542.43   -103043.87    11181.412       314432 
    1334    310.96108    16157.895   -121634.35   -122424.22    -117118.2    447810.54 
    2000    291.69746   -30.816779   -121902.99   -122643.93   -121911.78    456852.16 
Loop time of 160.734 on 1 procs for 1000 steps with 19652 atoms

Performance: 0.538 ns/day, 44.648 hours/ns, 6.221 timesteps/s
99.6% CPU use with 1 MPI tasks x no OpenMP threads

MPI task timing breakdown:
Section |  min time  |  avg time  |  max time  |%varavg| %total
---------------------------------------------------------------
Pair    | 90.608     | 90.608     | 90.608     |   0.0 | 56.37
Neigh   | 66.244     | 66.244     | 66.244     |   0.0 | 41.21
Comm    | 1.4373     | 1.4373     | 1.4373     |   0.0 |  0.89
Output  | 0.065811   | 0.065811   | 0.065811   |   0.0 |  0.04
Modify  | 1.892      | 1.892      | 1.892      |   0.0 |  1.18
Other   |            | 0.4863     |            |       |  0.30

Nlocal:    19652 ave 19652 max 19652 min
Histogram: 1 0 0 0 0 0 0 0 0 0
Nghost:    14822 ave 14822 max 14822 min
Histogram: 1 0 0 0 0 0 0 0 0 0
Neighs:    1.09734e+06 ave 1.09734e+06 max 1.09734e+06 min
Histogram: 1 0 0 0 0 0 0 0 0 0

Total # of neighbors = 1097335
Ave neighs/atom = 55.8383
Neighbor list builds = 1000
Dangerous builds not checked
Setting up Verlet run ...
  Unit style    : metal
  Current step  : 2000
  Time step     : 0.001
Per MPI rank memory allocation (min/avg/max) = 18.19 | 18.19 | 18.19 Mbytes
Step Temp Press TotEng PotEng Enthalpy Volume 
    2000    291.69746   -30.816779   -121902.99   -122643.93   -121911.78    456852.16 
    2001    291.59353   -33.220273   -121902.99   -122643.66   -121912.46    456852.15 
    2668    388.99382   -144.36587   -121407.44   -122395.52   -121448.66    457458.11 
    3335    572.75571   -162.90412   -120371.16   -121826.01   -120417.77    458434.58 
    4002    810.00053   -246.01319   -119111.48   -121168.95   -119182.18    460468.93 
    4669    995.94799    316.39397   -117914.13   -120443.93    -117822.9    461992.65 
    5336      1200.71    809.75579   -116818.89    -119868.8   -116584.53    463698.67 
    6003     1359.621    1105.8706   -115709.36   -119162.92   -115388.01    465557.71 
    6670    1551.5633    164.94039   -114493.88   -118434.99   -114445.66    468394.85 
    7337    1722.6182   -656.76157   -113234.18   -117609.79   -113427.43    471440.08 
    8004    1901.9659   -1832.8625   -111787.45   -116618.62   -112331.26    475368.82 
    8671    2059.0249    559.88187   -110060.85   -115290.96   -109893.89    477763.28 
    9338    2233.0098     454.2919   -108039.64   -113711.69   -107902.68    483029.43 
   10000    2442.5614    125.03217   -106499.86   -112704.19   -106461.81     487584.5 
Loop time of 1170.3 on 1 procs for 8000 steps with 19652 atoms

Performance: 0.591 ns/day, 40.636 hours/ns, 6.836 timesteps/s
99.7% CPU use with 1 MPI tasks x no OpenMP threads

MPI task timing breakdown:
Section |  min time  |  avg time  |  max time  |%varavg| %total
---------------------------------------------------------------
Pair    | 652.82     | 652.82     | 652.82     |   0.0 | 55.78
Neigh   | 486.61     | 486.61     | 486.61     |   0.0 | 41.58
Comm    | 11.147     | 11.147     | 11.147     |   0.0 |  0.95
Output  | 0.82288    | 0.82288    | 0.82288    |   0.0 |  0.07
Modify  | 15.013     | 15.013     | 15.013     |   0.0 |  1.28
Other   |            | 3.89       |            |       |  0.33

Nlocal:    19652 ave 19652 max 19652 min
Histogram: 1 0 0 0 0 0 0 0 0 0
Nghost:    15724 ave 15724 max 15724 min
Histogram: 1 0 0 0 0 0 0 0 0 0
Neighs:    1.00762e+06 ave 1.00762e+06 max 1.00762e+06 min
Histogram: 1 0 0 0 0 0 0 0 0 0

Total # of neighbors = 1007617
Ave neighs/atom = 51.273
Neighbor list builds = 8000
Dangerous builds not checked
Setting up Verlet run ...
  Unit style    : metal
  Current step  : 10000
  Time step     : 0.001
Per MPI rank memory allocation (min/avg/max) = 18.19 | 18.19 | 18.19 Mbytes
Step Temp Press TotEng PotEng Enthalpy Volume 
   10000    2442.5614    125.03217   -106499.86   -112704.19   -106461.81     487584.5 
   10005      2440.14    153.20163    -106499.8   -112697.98   -106453.18    487584.68 
   10672    2459.2347    -513.8587   -106394.49   -112641.17   -106551.06    488148.96 
   11339    2444.2574    1247.6287   -106394.81   -112603.44   -106015.54    487049.88 
   12006    2458.7786   -853.90699   -106416.39   -112661.91   -106676.77    488555.37 
   12673    2450.0862   -445.73045    -106366.2   -112589.65   -106502.08    488414.62 
   13340     2459.153    1208.2872   -106348.86   -112595.33    -105981.3    487375.92 
   14007    2434.6629   -933.82117   -106379.83    -112564.1   -106664.91    489108.73 
   14674    2442.5078   -981.46974   -106377.06   -112581.25   -106676.63    489021.93 
   15341    2449.3736    1228.4402   -106359.51   -112581.15   -105985.77    487445.63 
   16008     2432.092   -102.82261   -106367.66    -112545.4      -106399    488307.98 
   16675    2441.6183   -259.53807   -106340.12   -112542.05   -106419.28    488652.04 
   17342     2470.931    149.61435   -106328.67   -112605.06    -106283.1    488066.13 
   18009    2453.9221   -1242.2227   -106262.53   -112495.72   -106642.02     489445.3 
   18676    2455.3973    94.977729    -106257.6   -112494.53   -106228.65    488384.39 
   19343    2447.1444    1311.8928   -106409.11   -112625.08   -106010.47    486840.79 
   20010    2470.2742    -655.3051   -106346.87   -112621.59   -106546.73    488663.77 
   20677    2444.7739   -1596.6459   -106316.14   -112526.09      -106804    489555.15 
   21344    2465.0907    240.55732   -106365.86   -112627.41   -106292.63    487722.49 
   22011    2444.1186    732.42664   -106422.62   -112630.91   -106199.83    487364.36 
   22678    2432.7848    -716.6423   -106377.58   -112557.07   -106596.17    488691.97 
   23345     2453.269    1536.2044   -106382.01   -112613.54   -105915.29    486760.85 
   24012    2425.0072    422.24579   -106391.15   -112550.89   -106262.62    487685.62 
   24679    2435.0457    509.67894   -106399.26    -112584.5   -106244.16    487564.78 
   25346    2449.5561    326.37975   -106402.43   -112624.52   -106303.06     487801.4 
   26013     2453.274   -903.28108   -106332.22   -112563.76   -106607.67    488580.23 
   26680    2472.8352    -38.42967   -106295.81   -112577.04   -106307.52    488419.05 
   27347    2455.6247   -1367.9872   -106310.49   -112548.01   -106728.39    489430.62 
   28014    2448.1044   -1240.7307   -106351.09    -112569.5   -106729.86    489107.13 
   28681     2460.093    1926.6451   -106352.97   -112601.83   -105767.76    486655.24 
   29348    2447.2255    -430.9024   -106335.45   -112551.62   -106466.89    488728.03 
   30015    2461.7601   -215.69011    -106390.1   -112643.19   -106455.85    488396.51 
   30682    2471.7144    454.74659    -106349.6   -112627.98   -106211.13       487863 
   31349    2436.5393   -682.85216   -106392.69   -112581.72   -106600.91    488537.23 
   32016    2450.9231    1069.6309   -106283.73    -112509.3   -105958.15    487676.64 
   32683    2437.8048    1125.8503   -106345.89   -112538.14   -106003.49    487267.46 
   33350    2438.6459   -1396.2359   -106387.25   -112581.63   -106813.89     489577.6 
   34017    2426.1716   -1201.3886   -106463.67   -112626.37   -106830.38    489039.28 
   34684    2454.1542    633.10369   -106257.07   -112490.85   -106064.21    488069.02 
   35351    2453.8376    10.610027   -106287.03      -112520    -106283.8    488133.35 
   36018    2451.0678   -822.89877   -106415.22   -112641.15   -106666.11    488487.27 
   36685    2454.2837    1139.6838   -106326.21   -112560.32   -105979.29     487710.1 
   37352    2441.6811   -840.65816   -106355.82   -112557.91   -106612.35     488919.5 
   38019    2460.0459    -395.0301   -106356.63   -112605.37   -106477.06    488462.49 
   38686    2469.2137    690.92618   -106297.97      -112570   -106087.65    487717.14 
   39353    2454.3047   -127.04209   -106313.61   -112547.77   -106352.33    488316.21 
   40000    2459.7522    -1361.136   -106359.61    -112607.6   -106775.38    489397.63 
Loop time of 4508.85 on 1 procs for 30000 steps with 19652 atoms

Performance: 0.575 ns/day, 41.749 hours/ns, 6.654 timesteps/s
99.6% CPU use with 1 MPI tasks x no OpenMP threads

MPI task timing breakdown:
Section |  min time  |  avg time  |  max time  |%varavg| %total
---------------------------------------------------------------
Pair    | 2494.7     | 2494.7     | 2494.7     |   0.0 | 55.33
Neigh   | 1901.3     | 1901.3     | 1901.3     |   0.0 | 42.17
Comm    | 41.641     | 41.641     | 41.641     |   0.0 |  0.92
Output  | 2.944      | 2.944      | 2.944      |   0.0 |  0.07
Modify  | 54.423     | 54.423     | 54.423     |   0.0 |  1.21
Other   |            | 13.86      |            |       |  0.31

Nlocal:    19652 ave 19652 max 19652 min
Histogram: 1 0 0 0 0 0 0 0 0 0
Nghost:    15587 ave 15587 max 15587 min
Histogram: 1 0 0 0 0 0 0 0 0 0
Neighs:    1.00376e+06 ave 1.00376e+06 max 1.00376e+06 min
Histogram: 1 0 0 0 0 0 0 0 0 0

Total # of neighbors = 1003757
Ave neighs/atom = 51.0766
Neighbor list builds = 30000
Dangerous builds not checked
Setting up Verlet run ...
  Unit style    : metal
  Current step  : 40000
  Time step     : 0.001
Per MPI rank memory allocation (min/avg/max) = 18.19 | 18.19 | 18.19 Mbytes
Step Temp Press TotEng PotEng Enthalpy Volume 
   40000    2459.7522    -1361.136   -106359.61    -112607.6   -106775.38    489397.63 
   40020    2448.9543   -1125.4034   -106360.43      -112581   -106704.17     489369.7 
   40495    2422.0079   -810.18939   -106545.87   -112697.99   -106792.78    488264.87 
Loop time of 54.3026 on 1 procs for 495 steps with 19652 atoms

Performance: 0.788 ns/day, 30.473 hours/ns, 9.116 timesteps/s
100.0% CPU use with 1 MPI tasks x no OpenMP threads

MPI task timing breakdown:
Section |  min time  |  avg time  |  max time  |%varavg| %total
---------------------------------------------------------------
Pair    | 28.292     | 28.292     | 28.292     |   0.0 | 52.10
Neigh   | 24.711     | 24.711     | 24.711     |   0.0 | 45.51
Comm    | 0.46179    | 0.46179    | 0.46179    |   0.0 |  0.85
Output  | 0.049045   | 0.049045   | 0.049045   |   0.0 |  0.09
Modify  | 0.62181    | 0.62181    | 0.62181    |   0.0 |  1.15
Other   |            | 0.1677     |            |       |  0.31

Nlocal:    19652 ave 19652 max 19652 min
Histogram: 1 0 0 0 0 0 0 0 0 0
Nghost:    15678 ave 15678 max 15678 min
Histogram: 1 0 0 0 0 0 0 0 0 0
Neighs:    1.00601e+06 ave 1.00601e+06 max 1.00601e+06 min
Histogram: 1 0 0 0 0 0 0 0 0 0

Total # of neighbors = 1006010
Ave neighs/atom = 51.1912
Neighbor list builds = 495
Dangerous builds not checked
Setting up Verlet run ...
  Unit style    : metal
  Current step  : 40495
  Time step     : 0.001
Per MPI rank memory allocation (min/avg/max) = 18.19 | 18.19 | 18.19 Mbytes
Step Temp Press TotEng PotEng Enthalpy Volume 
   40495    2422.0079   -810.18939   -106545.87   -112697.99   -106792.78    488264.87 
   40667    2384.1654    391.46503   -106648.94   -112704.94   -106529.92    487139.19 
Loop time of 19.8804 on 1 procs for 172 steps with 19652 atoms

Performance: 0.748 ns/day, 32.107 hours/ns, 8.652 timesteps/s
99.9% CPU use with 1 MPI tasks x no OpenMP threads

MPI task timing breakdown:
Section |  min time  |  avg time  |  max time  |%varavg| %total
---------------------------------------------------------------
Pair    | 10.389     | 10.389     | 10.389     |   0.0 | 52.26
Neigh   | 9.0112     | 9.0112     | 9.0112     |   0.0 | 45.33
Comm    | 0.17579    | 0.17579    | 0.17579    |   0.0 |  0.88
Output  | 0.00026393 | 0.00026393 | 0.00026393 |   0.0 |  0.00
Modify  | 0.24103    | 0.24103    | 0.24103    |   0.0 |  1.21
Other   |            | 0.06361    |            |       |  0.32

Nlocal:    19652 ave 19652 max 19652 min
Histogram: 1 0 0 0 0 0 0 0 0 0
Nghost:    15770 ave 15770 max 15770 min
Histogram: 1 0 0 0 0 0 0 0 0 0
Neighs:    1.00889e+06 ave 1.00889e+06 max 1.00889e+06 min
Histogram: 1 0 0 0 0 0 0 0 0 0

Total # of neighbors = 1008892
Ave neighs/atom = 51.3379
Neighbor list builds = 172
Dangerous builds not checked
Setting up Verlet run ...
  Unit style    : metal
  Current step  : 40667
  Time step     : 0.001
Per MPI rank memory allocation (min/avg/max) = 18.19 | 18.19 | 18.19 Mbytes
Step Temp Press TotEng PotEng Enthalpy Volume 
   40667    2384.1654    391.46503   -106648.94   -112704.94   -106529.92    487139.19 
   40687     2393.742    337.51553    -106647.7   -112728.02   -106545.08    487147.57 
   41162    2379.2191    662.59653   -106904.02   -112947.46   -106703.04     485992.1 
Loop time of 51.56 on 1 procs for 495 steps with 19652 atoms

Performance: 0.829 ns/day, 28.934 hours/ns, 9.600 timesteps/s
100.0% CPU use with 1 MPI tasks x no OpenMP threads

MPI task timing breakdown:
Section |  min time  |  avg time  |  max time  |%varavg| %total
---------------------------------------------------------------
Pair    | 26.402     | 26.402     | 26.402     |   0.0 | 51.21
Neigh   | 23.896     | 23.896     | 23.896     |   0.0 | 46.35
Comm    | 0.44729    | 0.44729    | 0.44729    |   0.0 |  0.87
Output  | 0.044857   | 0.044857   | 0.044857   |   0.0 |  0.09
Modify  | 0.60701    | 0.60701    | 0.60701    |   0.0 |  1.18
Other   |            | 0.1635     |            |       |  0.32

Nlocal:    19652 ave 19652 max 19652 min
Histogram: 1 0 0 0 0 0 0 0 0 0
Nghost:    15755 ave 15755 max 15755 min
Histogram: 1 0 0 0 0 0 0 0 0 0
Neighs:    1.011e+06 ave 1.011e+06 max 1.011e+06 min
Histogram: 1 0 0 0 0 0 0 0 0 0

Total # of neighbors = 1011003
Ave neighs/atom = 51.4453
Neighbor list builds = 495
Dangerous builds not checked
Setting up Verlet run ...
  Unit style    : metal
  Current step  : 41162
  Time step     : 0.001
Per MPI rank memory allocation (min/avg/max) = 18.19 | 18.19 | 18.19 Mbytes
Step Temp Press TotEng PotEng Enthalpy Volume 
   41162    2379.2191    662.59653   -106904.02   -112947.46   -106703.04     485992.1 
   41334    2337.1979   -436.31336   -106977.84   -112914.54   -107110.38    486690.48 
Loop time of 21.0612 on 1 procs for 172 steps with 19652 atoms

Performance: 0.706 ns/day, 34.014 hours/ns, 8.167 timesteps/s
99.5% CPU use with 1 MPI tasks x no OpenMP threads

MPI task timing breakdown:
Section |  min time  |  avg time  |  max time  |%varavg| %total
---------------------------------------------------------------
Pair    | 11.183     | 11.183     | 11.183     |   0.0 | 53.10
Neigh   | 9.3724     | 9.3724     | 9.3724     |   0.0 | 44.50
Comm    | 0.1854     | 0.1854     | 0.1854     |   0.0 |  0.88
Output  | 0.00017977 | 0.00017977 | 0.00017977 |   0.0 |  0.00
Modify  | 0.25546    | 0.25546    | 0.25546    |   0.0 |  1.21
Other   |            | 0.0648     |            |       |  0.31

Nlocal:    19652 ave 19652 max 19652 min
Histogram: 1 0 0 0 0 0 0 0 0 0
Nghost:    15671 ave 15671 max 15671 min
Histogram: 1 0 0 0 0 0 0 0 0 0
Neighs:    1.00992e+06 ave 1.00992e+06 max 1.00992e+06 min
Histogram: 1 0 0 0 0 0 0 0 0 0

Total # of neighbors = 1009918
Ave neighs/atom = 51.3901
Neighbor list builds = 172
Dangerous builds not checked
Setting up Verlet run ...
  Unit style    : metal
  Current step  : 41334
  Time step     : 0.001
Per MPI rank memory allocation (min/avg/max) = 18.19 | 18.19 | 18.19 Mbytes
Step Temp Press TotEng PotEng Enthalpy Volume 
   41334    2337.1979   -436.31336   -106977.84   -112914.54   -107110.38    486690.48 
   41354    2341.8833   -486.33472   -106976.76   -112925.36   -107124.49    486680.34 
   41829    2316.5387   -35.630812   -107226.27   -113110.49   -107237.07    485532.33 
Loop time of 59.5 on 1 procs for 495 steps with 19652 atoms

Performance: 0.719 ns/day, 33.389 hours/ns, 8.319 timesteps/s
99.9% CPU use with 1 MPI tasks x no OpenMP threads

MPI task timing breakdown:
Section |  min time  |  avg time  |  max time  |%varavg| %total
---------------------------------------------------------------
Pair    | 31.344     | 31.344     | 31.344     |   0.0 | 52.68
Neigh   | 26.723     | 26.723     | 26.723     |   0.0 | 44.91
Comm    | 0.50736    | 0.50736    | 0.50736    |   0.0 |  0.85
Output  | 0.052257   | 0.052257   | 0.052257   |   0.0 |  0.09
Modify  | 0.69142    | 0.69142    | 0.69142    |   0.0 |  1.16
Other   |            | 0.1816     |            |       |  0.31

Nlocal:    19652 ave 19652 max 19652 min
Histogram: 1 0 0 0 0 0 0 0 0 0
Nghost:    15755 ave 15755 max 15755 min
Histogram: 1 0 0 0 0 0 0 0 0 0
Neighs:    1.01239e+06 ave 1.01239e+06 max 1.01239e+06 min
Histogram: 1 0 0 0 0 0 0 0 0 0

Total # of neighbors = 1012391
Ave neighs/atom = 51.5159
Neighbor list builds = 495
Dangerous builds not checked
Setting up Verlet run ...
  Unit style    : metal
  Current step  : 41829
  Time step     : 0.001
Per MPI rank memory allocation (min/avg/max) = 18.19 | 18.19 | 18.19 Mbytes
Step Temp Press TotEng PotEng Enthalpy Volume 
   41829    2316.5387   -35.630812   -107226.27   -113110.49   -107237.07    485532.33 
   42001    2302.0972   -91.757039   -107288.01   -113135.54   -107315.81    485367.29 
Loop time of 19.0256 on 1 procs for 172 steps with 19652 atoms

Performance: 0.781 ns/day, 30.726 hours/ns, 9.040 timesteps/s
99.9% CPU use with 1 MPI tasks x no OpenMP threads

MPI task timing breakdown:
Section |  min time  |  avg time  |  max time  |%varavg| %total
---------------------------------------------------------------
Pair    | 9.9465     | 9.9465     | 9.9465     |   0.0 | 52.28
Neigh   | 8.6175     | 8.6175     | 8.6175     |   0.0 | 45.29
Comm    | 0.16991    | 0.16991    | 0.16991    |   0.0 |  0.89
Output  | 0.00026393 | 0.00026393 | 0.00026393 |   0.0 |  0.00
Modify  | 0.22983    | 0.22983    | 0.22983    |   0.0 |  1.21
Other   |            | 0.06166    |            |       |  0.32

Nlocal:    19652 ave 19652 max 19652 min
Histogram: 1 0 0 0 0 0 0 0 0 0
Nghost:    15711 ave 15711 max 15711 min
Histogram: 1 0 0 0 0 0 0 0 0 0
Neighs:    1.01164e+06 ave 1.01164e+06 max 1.01164e+06 min
Histogram: 1 0 0 0 0 0 0 0 0 0

Total # of neighbors = 1011641
Ave neighs/atom = 51.4778
Neighbor list builds = 172
Dangerous builds not checked
Setting up Verlet run ...
  Unit style    : metal
  Current step  : 42001
  Time step     : 0.001
Per MPI rank memory allocation (min/avg/max) = 18.19 | 18.19 | 18.19 Mbytes
Step Temp Press TotEng PotEng Enthalpy Volume 
   42001    2302.0972   -91.757039   -107288.01   -113135.54   -107315.81    485367.29 
   42021    2303.5013    -172.2553   -107288.35   -113139.45   -107340.53    485364.44 
   42496    2253.7534   -100.04365   -107523.73   -113248.47      -107554    484789.54 
Loop time of 61.6904 on 1 procs for 495 steps with 19652 atoms

Performance: 0.693 ns/day, 34.619 hours/ns, 8.024 timesteps/s
99.9% CPU use with 1 MPI tasks x no OpenMP threads

MPI task timing breakdown:
Section |  min time  |  avg time  |  max time  |%varavg| %total
---------------------------------------------------------------
Pair    | 32.689     | 32.689     | 32.689     |   0.0 | 52.99
Neigh   | 27.473     | 27.473     | 27.473     |   0.0 | 44.53
Comm    | 0.53741    | 0.53741    | 0.53741    |   0.0 |  0.87
Output  | 0.064066   | 0.064066   | 0.064066   |   0.0 |  0.10
Modify  | 0.73701    | 0.73701    | 0.73701    |   0.0 |  1.19
Other   |            | 0.19       |            |       |  0.31

Nlocal:    19652 ave 19652 max 19652 min
Histogram: 1 0 0 0 0 0 0 0 0 0
Nghost:    15661 ave 15661 max 15661 min
Histogram: 1 0 0 0 0 0 0 0 0 0
Neighs:    1.01354e+06 ave 1.01354e+06 max 1.01354e+06 min
Histogram: 1 0 0 0 0 0 0 0 0 0

Total # of neighbors = 1013535
Ave neighs/atom = 51.5741
Neighbor list builds = 495
Dangerous builds not checked
Setting up Verlet run ...
  Unit style    : metal
  Current step  : 42496
  Time step     : 0.001
Per MPI rank memory allocation (min/avg/max) = 18.19 | 18.19 | 18.19 Mbytes
Step Temp Press TotEng PotEng Enthalpy Volume 
   42496    2253.7534   -100.04365   -107523.73   -113248.47      -107554    484789.54 
   42668    2250.5572    215.34723   -107594.06   -113310.69   -107528.97    484335.55 
Loop time of 19.4185 on 1 procs for 172 steps with 19652 atoms

Performance: 0.765 ns/day, 31.361 hours/ns, 8.858 timesteps/s
100.0% CPU use with 1 MPI tasks x no OpenMP threads

MPI task timing breakdown:
Section |  min time  |  avg time  |  max time  |%varavg| %total
---------------------------------------------------------------
Pair    | 10.183     | 10.183     | 10.183     |   0.0 | 52.44
Neigh   | 8.7605     | 8.7605     | 8.7605     |   0.0 | 45.11
Comm    | 0.17032    | 0.17032    | 0.17032    |   0.0 |  0.88
Output  | 0.00017595 | 0.00017595 | 0.00017595 |   0.0 |  0.00
Modify  | 0.24249    | 0.24249    | 0.24249    |   0.0 |  1.25
Other   |            | 0.06193    |            |       |  0.32

Nlocal:    19652 ave 19652 max 19652 min
Histogram: 1 0 0 0 0 0 0 0 0 0
Nghost:    15646 ave 15646 max 15646 min
Histogram: 1 0 0 0 0 0 0 0 0 0
Neighs:    1.01552e+06 ave 1.01552e+06 max 1.01552e+06 min
Histogram: 1 0 0 0 0 0 0 0 0 0

Total # of neighbors = 1015517
Ave neighs/atom = 51.675
Neighbor list builds = 172
Dangerous builds not checked
Setting up Verlet run ...
  Unit style    : metal
  Current step  : 42668
  Time step     : 0.001
Per MPI rank memory allocation (min/avg/max) = 18.19 | 18.19 | 18.19 Mbytes
Step Temp Press TotEng PotEng Enthalpy Volume 
   42668    2250.5572    215.34723   -107594.06   -113310.69   -107528.97    484335.55 
   42688    2263.1758    11.207765   -107594.65   -113343.32   -107591.26    484339.28 
   43163    2205.3694    218.11019   -107871.38   -113473.22   -107805.57    483450.31 
Loop time of 56.1766 on 1 procs for 495 steps with 19652 atoms

Performance: 0.761 ns/day, 31.524 hours/ns, 8.812 timesteps/s
99.9% CPU use with 1 MPI tasks x no OpenMP threads

MPI task timing breakdown:
Section |  min time  |  avg time  |  max time  |%varavg| %total
---------------------------------------------------------------
Pair    | 29.304     | 29.304     | 29.304     |   0.0 | 52.16
Neigh   | 25.487     | 25.487     | 25.487     |   0.0 | 45.37
Comm    | 0.48507    | 0.48507    | 0.48507    |   0.0 |  0.86
Output  | 0.053737   | 0.053737   | 0.053737   |   0.0 |  0.10
Modify  | 0.66948    | 0.66948    | 0.66948    |   0.0 |  1.19
Other   |            | 0.1774     |            |       |  0.32

Nlocal:    19652 ave 19652 max 19652 min
Histogram: 1 0 0 0 0 0 0 0 0 0
Nghost:    15710 ave 15710 max 15710 min
Histogram: 1 0 0 0 0 0 0 0 0 0
Neighs:    1.01674e+06 ave 1.01674e+06 max 1.01674e+06 min
Histogram: 1 0 0 0 0 0 0 0 0 0

Total # of neighbors = 1016745
Ave neighs/atom = 51.7375
Neighbor list builds = 495
Dangerous builds not checked
Setting up Verlet run ...
  Unit style    : metal
  Current step  : 43163
  Time step     : 0.001
Per MPI rank memory allocation (min/avg/max) = 18.19 | 18.19 | 18.19 Mbytes
Step Temp Press TotEng PotEng Enthalpy Volume 
   43163    2205.3694    218.11019   -107871.38   -113473.22   -107805.57    483450.31 
   43335    2213.8584   -377.55817   -107879.39   -113502.79   -107993.42    483900.15 
Loop time of 21.7953 on 1 procs for 172 steps with 19652 atoms

Performance: 0.682 ns/day, 35.199 hours/ns, 7.892 timesteps/s
99.9% CPU use with 1 MPI tasks x no OpenMP threads

MPI task timing breakdown:
Section |  min time  |  avg time  |  max time  |%varavg| %total
---------------------------------------------------------------
Pair    | 11.687     | 11.687     | 11.687     |   0.0 | 53.62
Neigh   | 9.5586     | 9.5586     | 9.5586     |   0.0 | 43.86
Comm    | 0.20166    | 0.20166    | 0.20166    |   0.0 |  0.93
Output  | 0.00017595 | 0.00017595 | 0.00017595 |   0.0 |  0.00
Modify  | 0.277      | 0.277      | 0.277      |   0.0 |  1.27
Other   |            | 0.07046    |            |       |  0.32

Nlocal:    19652 ave 19652 max 19652 min
Histogram: 1 0 0 0 0 0 0 0 0 0
Nghost:    15735 ave 15735 max 15735 min
Histogram: 1 0 0 0 0 0 0 0 0 0
Neighs:    1.01638e+06 ave 1.01638e+06 max 1.01638e+06 min
Histogram: 1 0 0 0 0 0 0 0 0 0

Total # of neighbors = 1016376
Ave neighs/atom = 51.7187
Neighbor list builds = 172
Dangerous builds not checked
Setting up Verlet run ...
  Unit style    : metal
  Current step  : 43335
  Time step     : 0.001
Per MPI rank memory allocation (min/avg/max) = 18.19 | 18.19 | 18.19 Mbytes
Step Temp Press TotEng PotEng Enthalpy Volume 
   43335    2213.8584   -377.55817   -107879.39   -113502.79   -107993.42    483900.15 
   43355    2217.8045   -517.57105   -107881.05   -113514.47   -108037.36    483890.07 
   43830    2166.3956     162.9206   -108137.18   -113640.03   -108088.11    482641.15 
Loop time of 58.0892 on 1 procs for 495 steps with 19652 atoms

Performance: 0.736 ns/day, 32.598 hours/ns, 8.521 timesteps/s
100.0% CPU use with 1 MPI tasks x no OpenMP threads

MPI task timing breakdown:
Section |  min time  |  avg time  |  max time  |%varavg| %total
---------------------------------------------------------------
Pair    | 30.497     | 30.497     | 30.497     |   0.0 | 52.50
Neigh   | 26.194     | 26.194     | 26.194     |   0.0 | 45.09
Comm    | 0.49161    | 0.49161    | 0.49161    |   0.0 |  0.85
Output  | 0.052768   | 0.052768   | 0.052768   |   0.0 |  0.09
Modify  | 0.67612    | 0.67612    | 0.67612    |   0.0 |  1.16
Other   |            | 0.1777     |            |       |  0.31

Nlocal:    19652 ave 19652 max 19652 min
Histogram: 1 0 0 0 0 0 0 0 0 0
Nghost:    15768 ave 15768 max 15768 min
Histogram: 1 0 0 0 0 0 0 0 0 0
Neighs:    1.01866e+06 ave 1.01866e+06 max 1.01866e+06 min
Histogram: 1 0 0 0 0 0 0 0 0 0

Total # of neighbors = 1018663
Ave neighs/atom = 51.8351
Neighbor list builds = 495
Dangerous builds not checked
Setting up Verlet run ...
  Unit style    : metal
  Current step  : 43830
  Time step     : 0.001
Per MPI rank memory allocation (min/avg/max) = 18.19 | 18.19 | 18.19 Mbytes
Step Temp Press TotEng PotEng Enthalpy Volume 
   43830    2166.3956     162.9206   -108137.18   -113640.03   -108088.11    482641.15 
   44002    2147.1508   -161.06733    -108242.1   -113696.05   -108290.63       482767 
Loop time of 21.6627 on 1 procs for 172 steps with 19652 atoms

Performance: 0.686 ns/day, 34.985 hours/ns, 7.940 timesteps/s
99.9% CPU use with 1 MPI tasks x no OpenMP threads

MPI task timing breakdown:
Section |  min time  |  avg time  |  max time  |%varavg| %total
---------------------------------------------------------------
Pair    | 11.545     | 11.545     | 11.545     |   0.0 | 53.29
Neigh   | 9.6028     | 9.6028     | 9.6028     |   0.0 | 44.33
Comm    | 0.18614    | 0.18614    | 0.18614    |   0.0 |  0.86
Output  | 0.00020289 | 0.00020289 | 0.00020289 |   0.0 |  0.00
Modify  | 0.2609     | 0.2609     | 0.2609     |   0.0 |  1.20
Other   |            | 0.06767    |            |       |  0.31

Nlocal:    19652 ave 19652 max 19652 min
Histogram: 1 0 0 0 0 0 0 0 0 0
Nghost:    15770 ave 15770 max 15770 min
Histogram: 1 0 0 0 0 0 0 0 0 0
Neighs:    1.01869e+06 ave 1.01869e+06 max 1.01869e+06 min
Histogram: 1 0 0 0 0 0 0 0 0 0

Total # of neighbors = 1018691
Ave neighs/atom = 51.8365
Neighbor list builds = 172
Dangerous builds not checked
Setting up Verlet run ...
  Unit style    : metal
  Current step  : 44002
  Time step     : 0.001
Per MPI rank memory allocation (min/avg/max) = 18.19 | 18.19 | 18.19 Mbytes
Step Temp Press TotEng PotEng Enthalpy Volume 
   44002    2147.1508   -161.06733    -108242.1   -113696.05   -108290.63       482767 
   44022    2143.0662   -138.91043   -108241.64   -113685.23    -108283.5    482763.53 
   44497     2108.761    34.491097   -108447.14   -113803.58   -108436.77    481907.37 
Loop time of 62.8499 on 1 procs for 495 steps with 19652 atoms

Performance: 0.680 ns/day, 35.269 hours/ns, 7.876 timesteps/s
100.0% CPU use with 1 MPI tasks x no OpenMP threads

MPI task timing breakdown:
Section |  min time  |  avg time  |  max time  |%varavg| %total
---------------------------------------------------------------
Pair    | 33.483     | 33.483     | 33.483     |   0.0 | 53.27
Neigh   | 27.823     | 27.823     | 27.823     |   0.0 | 44.27
Comm    | 0.55017    | 0.55017    | 0.55017    |   0.0 |  0.88
Output  | 0.063871   | 0.063871   | 0.063871   |   0.0 |  0.10
Modify  | 0.74057    | 0.74057    | 0.74057    |   0.0 |  1.18
Other   |            | 0.1895     |            |       |  0.30

Nlocal:    19652 ave 19652 max 19652 min
Histogram: 1 0 0 0 0 0 0 0 0 0
Nghost:    15778 ave 15778 max 15778 min
Histogram: 1 0 0 0 0 0 0 0 0 0
Neighs:    1.02029e+06 ave 1.02029e+06 max 1.02029e+06 min
Histogram: 1 0 0 0 0 0 0 0 0 0

Total # of neighbors = 1020294
Ave neighs/atom = 51.9181
Neighbor list builds = 495
Dangerous builds not checked
Setting up Verlet run ...
  Unit style    : metal
  Current step  : 44497
  Time step     : 0.001
Per MPI rank memory allocation (min/avg/max) = 18.19 | 18.19 | 18.19 Mbytes
Step Temp Press TotEng PotEng Enthalpy Volume 
   44497     2108.761    34.491097   -108447.14   -113803.58   -108436.77    481907.37 
   44669    2097.4265   -43.029404   -108521.77   -113849.42   -108534.71    481782.36 
Loop time of 21.8408 on 1 procs for 172 steps with 19652 atoms

Performance: 0.680 ns/day, 35.273 hours/ns, 7.875 timesteps/s
100.0% CPU use with 1 MPI tasks x no OpenMP threads

MPI task timing breakdown:
Section |  min time  |  avg time  |  max time  |%varavg| %total
---------------------------------------------------------------
Pair    | 11.668     | 11.668     | 11.668     |   0.0 | 53.42
Neigh   | 9.6328     | 9.6328     | 9.6328     |   0.0 | 44.10
Comm    | 0.20033    | 0.20033    | 0.20033    |   0.0 |  0.92
Output  | 0.00022507 | 0.00022507 | 0.00022507 |   0.0 |  0.00
Modify  | 0.27022    | 0.27022    | 0.27022    |   0.0 |  1.24
Other   |            | 0.06897    |            |       |  0.32

Nlocal:    19652 ave 19652 max 19652 min
Histogram: 1 0 0 0 0 0 0 0 0 0
Nghost:    15797 ave 15797 max 15797 min
Histogram: 1 0 0 0 0 0 0 0 0 0
Neighs:    1.02034e+06 ave 1.02034e+06 max 1.02034e+06 min
Histogram: 1 0 0 0 0 0 0 0 0 0

Total # of neighbors = 1020345
Ave neighs/atom = 51.9207
Neighbor list builds = 172
Dangerous builds not checked
Setting up Verlet run ...
  Unit style    : metal
  Current step  : 44669
  Time step     : 0.001
Per MPI rank memory allocation (min/avg/max) = 18.19 | 18.19 | 18.19 Mbytes
Step Temp Press TotEng PotEng Enthalpy Volume 
   44669    2097.4265   -43.029404   -108521.77   -113849.42   -108534.71    481782.36 
   44689    2101.2944   -110.83892   -108521.72    -113859.2   -108555.05     481780.7 
   45164    2063.2958   -147.00786   -108754.47   -113995.42   -108798.62    481215.86 
Loop time of 62.4525 on 1 procs for 495 steps with 19652 atoms

Performance: 0.685 ns/day, 35.046 hours/ns, 7.926 timesteps/s
100.0% CPU use with 1 MPI tasks x no OpenMP threads

MPI task timing breakdown:
Section |  min time  |  avg time  |  max time  |%varavg| %total
---------------------------------------------------------------
Pair    | 33.198     | 33.198     | 33.198     |   0.0 | 53.16
Neigh   | 27.688     | 27.688     | 27.688     |   0.0 | 44.33
Comm    | 0.54994    | 0.54994    | 0.54994    |   0.0 |  0.88
Output  | 0.067282   | 0.067282   | 0.067282   |   0.0 |  0.11
Modify  | 0.75572    | 0.75572    | 0.75572    |   0.0 |  1.21
Other   |            | 0.1943     |            |       |  0.31

Nlocal:    19652 ave 19652 max 19652 min
Histogram: 1 0 0 0 0 0 0 0 0 0
Nghost:    15742 ave 15742 max 15742 min
Histogram: 1 0 0 0 0 0 0 0 0 0
Neighs:    1.02186e+06 ave 1.02186e+06 max 1.02186e+06 min
Histogram: 1 0 0 0 0 0 0 0 0 0

Total # of neighbors = 1021864
Ave neighs/atom = 51.998
Neighbor list builds = 495
Dangerous builds not checked
Setting up Verlet run ...
  Unit style    : metal
  Current step  : 45164
  Time step     : 0.001
Per MPI rank memory allocation (min/avg/max) = 18.19 | 18.19 | 18.19 Mbytes
Step Temp Press TotEng PotEng Enthalpy Volume 
   45164    2063.2958   -147.00786   -108754.47   -113995.42   -108798.62    481215.86 
   45336    2044.8013    200.13719   -108828.49   -114022.47    -108768.4    480983.19 
Loop time of 19.7551 on 1 procs for 172 steps with 19652 atoms

Performance: 0.752 ns/day, 31.904 hours/ns, 8.707 timesteps/s
100.0% CPU use with 1 MPI tasks x no OpenMP threads

MPI task timing breakdown:
Section |  min time  |  avg time  |  max time  |%varavg| %total
---------------------------------------------------------------
Pair    | 10.368     | 10.368     | 10.368     |   0.0 | 52.48
Neigh   | 8.9206     | 8.9206     | 8.9206     |   0.0 | 45.16
Comm    | 0.16878    | 0.16878    | 0.16878    |   0.0 |  0.85
Output  | 0.00023413 | 0.00023413 | 0.00023413 |   0.0 |  0.00
Modify  | 0.23534    | 0.23534    | 0.23534    |   0.0 |  1.19
Other   |            | 0.06183    |            |       |  0.31

Nlocal:    19652 ave 19652 max 19652 min
Histogram: 1 0 0 0 0 0 0 0 0 0
Nghost:    15748 ave 15748 max 15748 min
Histogram: 1 0 0 0 0 0 0 0 0 0
Neighs:    1.02225e+06 ave 1.02225e+06 max 1.02225e+06 min
Histogram: 1 0 0 0 0 0 0 0 0 0

Total # of neighbors = 1022254
Ave neighs/atom = 52.0178
Neighbor list builds = 172
Dangerous builds not checked
Setting up Verlet run ...
  Unit style    : metal
  Current step  : 45336
  Time step     : 0.001
Per MPI rank memory allocation (min/avg/max) = 18.19 | 18.19 | 18.19 Mbytes
Step Temp Press TotEng PotEng Enthalpy Volume 
   45336    2044.8013    200.13719   -108828.49   -114022.47    -108768.4    480983.19 
   45356    2043.0676     275.8601   -108827.92    -114017.5   -108745.11    480988.95 
   45831    2016.7777    1005.4731   -109096.72   -114219.52   -108795.82    479465.45 
Loop time of 65.3607 on 1 procs for 495 steps with 19652 atoms

Performance: 0.654 ns/day, 36.678 hours/ns, 7.573 timesteps/s
99.9% CPU use with 1 MPI tasks x no OpenMP threads

MPI task timing breakdown:
Section |  min time  |  avg time  |  max time  |%varavg| %total
---------------------------------------------------------------
Pair    | 35.152     | 35.152     | 35.152     |   0.0 | 53.78
Neigh   | 28.612     | 28.612     | 28.612     |   0.0 | 43.78
Comm    | 0.56649    | 0.56649    | 0.56649    |   0.0 |  0.87
Output  | 0.061337   | 0.061337   | 0.061337   |   0.0 |  0.09
Modify  | 0.76991    | 0.76991    | 0.76991    |   0.0 |  1.18
Other   |            | 0.199      |            |       |  0.30

Nlocal:    19652 ave 19652 max 19652 min
Histogram: 1 0 0 0 0 0 0 0 0 0
Nghost:    15773 ave 15773 max 15773 min
Histogram: 1 0 0 0 0 0 0 0 0 0
Neighs:    1.02642e+06 ave 1.02642e+06 max 1.02642e+06 min
Histogram: 1 0 0 0 0 0 0 0 0 0

Total # of neighbors = 1026419
Ave neighs/atom = 52.2297
Neighbor list builds = 495
Dangerous builds not checked
Setting up Verlet run ...
  Unit style    : metal
  Current step  : 45831
  Time step     : 0.001
Per MPI rank memory allocation (min/avg/max) = 18.19 | 18.19 | 18.19 Mbytes
Step Temp Press TotEng PotEng Enthalpy Volume 
   45831    2016.7777    1005.4731   -109096.72   -114219.52   -108795.82    479465.45 
   46003    1980.8187   -493.87674   -109180.45   -114211.91    -109328.6    480604.59 
Loop time of 19.3325 on 1 procs for 172 steps with 19652 atoms

Performance: 0.769 ns/day, 31.222 hours/ns, 8.897 timesteps/s
100.0% CPU use with 1 MPI tasks x no OpenMP threads

MPI task timing breakdown:
Section |  min time  |  avg time  |  max time  |%varavg| %total
---------------------------------------------------------------
Pair    | 10.064     | 10.064     | 10.064     |   0.0 | 52.06
Neigh   | 8.8035     | 8.8035     | 8.8035     |   0.0 | 45.54
Comm    | 0.16953    | 0.16953    | 0.16953    |   0.0 |  0.88
Output  | 0.0002439  | 0.0002439  | 0.0002439  |   0.0 |  0.00
Modify  | 0.23327    | 0.23327    | 0.23327    |   0.0 |  1.21
Other   |            | 0.06228    |            |       |  0.32

Nlocal:    19652 ave 19652 max 19652 min
Histogram: 1 0 0 0 0 0 0 0 0 0
Nghost:    15756 ave 15756 max 15756 min
Histogram: 1 0 0 0 0 0 0 0 0 0
Neighs:    1.02383e+06 ave 1.02383e+06 max 1.02383e+06 min
Histogram: 1 0 0 0 0 0 0 0 0 0

Total # of neighbors = 1023826
Ave neighs/atom = 52.0978
Neighbor list builds = 172
Dangerous builds not checked
Setting up Verlet run ...
  Unit style    : metal
  Current step  : 46003
  Time step     : 0.001
Per MPI rank memory allocation (min/avg/max) = 18.19 | 18.19 | 18.19 Mbytes
Step Temp Press TotEng PotEng Enthalpy Volume 
   46003    1980.8187   -493.87674   -109180.45   -114211.91    -109328.6    480604.59 
   46023    1987.8942   -427.56109   -109178.73   -114228.16   -109306.98    480592.85 
   46498    1961.6835   -622.40679   -109401.45   -114384.31   -109587.86    479827.38 
Loop time of 54.5531 on 1 procs for 495 steps with 19652 atoms

Performance: 0.784 ns/day, 30.613 hours/ns, 9.074 timesteps/s
100.0% CPU use with 1 MPI tasks x no OpenMP threads

MPI task timing breakdown:
Section |  min time  |  avg time  |  max time  |%varavg| %total
---------------------------------------------------------------
Pair    | 28.308     | 28.308     | 28.308     |   0.0 | 51.89
Neigh   | 24.941     | 24.941     | 24.941     |   0.0 | 45.72
Comm    | 0.46342    | 0.46342    | 0.46342    |   0.0 |  0.85
Output  | 0.044602   | 0.044602   | 0.044602   |   0.0 |  0.08
Modify  | 0.62852    | 0.62852    | 0.62852    |   0.0 |  1.15
Other   |            | 0.1678     |            |       |  0.31

Nlocal:    19652 ave 19652 max 19652 min
Histogram: 1 0 0 0 0 0 0 0 0 0
Nghost:    15778 ave 15778 max 15778 min
Histogram: 1 0 0 0 0 0 0 0 0 0
Neighs:    1.0258e+06 ave 1.0258e+06 max 1.0258e+06 min
Histogram: 1 0 0 0 0 0 0 0 0 0

Total # of neighbors = 1025796
Ave neighs/atom = 52.198
Neighbor list builds = 495
Dangerous builds not checked
Setting up Verlet run ...
  Unit style    : metal
  Current step  : 46498
  Time step     : 0.001
Per MPI rank memory allocation (min/avg/max) = 18.19 | 18.19 | 18.19 Mbytes
Step Temp Press TotEng PotEng Enthalpy Volume 
   46498    1961.6835   -622.40679   -109401.45   -114384.31   -109587.86    479827.38 
   46670    1944.0451   -40.809944   -109465.12   -114403.18   -109477.33    479350.46 
Loop time of 20.9002 on 1 procs for 172 steps with 19652 atoms

Performance: 0.711 ns/day, 33.754 hours/ns, 8.230 timesteps/s
100.0% CPU use with 1 MPI tasks x no OpenMP threads

MPI task timing breakdown:
Section |  min time  |  avg time  |  max time  |%varavg| %total
---------------------------------------------------------------
Pair    | 11.106     | 11.106     | 11.106     |   0.0 | 53.14
Neigh   | 9.2991     | 9.2991     | 9.2991     |   0.0 | 44.49
Comm    | 0.17855    | 0.17855    | 0.17855    |   0.0 |  0.85
Output  | 0.00023103 | 0.00023103 | 0.00023103 |   0.0 |  0.00
Modify  | 0.25167    | 0.25167    | 0.25167    |   0.0 |  1.20
Other   |            | 0.06469    |            |       |  0.31

Nlocal:    19652 ave 19652 max 19652 min
Histogram: 1 0 0 0 0 0 0 0 0 0
Nghost:    15760 ave 15760 max 15760 min
Histogram: 1 0 0 0 0 0 0 0 0 0
Neighs:    1.0269e+06 ave 1.0269e+06 max 1.0269e+06 min
Histogram: 1 0 0 0 0 0 0 0 0 0

Total # of neighbors = 1026897
Ave neighs/atom = 52.2541
Neighbor list builds = 172
Dangerous builds not checked
Setting up Verlet run ...
  Unit style    : metal
  Current step  : 46670
  Time step     : 0.001
Per MPI rank memory allocation (min/avg/max) = 18.19 | 18.19 | 18.19 Mbytes
Step Temp Press TotEng PotEng Enthalpy Volume 
   46670    1944.0451   -40.809944   -109465.12   -114403.18   -109477.33    479350.46 
   46690    1947.7256    -12.68545    -109464.7    -114412.1   -109468.49    479349.45 
   47165    1921.0408   -393.42177   -109679.67   -114559.29   -109797.34    479164.04 
Loop time of 63.1437 on 1 procs for 495 steps with 19652 atoms

Performance: 0.677 ns/day, 35.434 hours/ns, 7.839 timesteps/s
99.9% CPU use with 1 MPI tasks x no OpenMP threads

MPI task timing breakdown:
Section |  min time  |  avg time  |  max time  |%varavg| %total
---------------------------------------------------------------
Pair    | 33.742     | 33.742     | 33.742     |   0.0 | 53.44
Neigh   | 27.852     | 27.852     | 27.852     |   0.0 | 44.11
Comm    | 0.54251    | 0.54251    | 0.54251    |   0.0 |  0.86
Output  | 0.063024   | 0.063024   | 0.063024   |   0.0 |  0.10
Modify  | 0.74954    | 0.74954    | 0.74954    |   0.0 |  1.19
Other   |            | 0.1952     |            |       |  0.31

Nlocal:    19652 ave 19652 max 19652 min
Histogram: 1 0 0 0 0 0 0 0 0 0
Nghost:    15797 ave 15797 max 15797 min
Histogram: 1 0 0 0 0 0 0 0 0 0
Neighs:    1.02751e+06 ave 1.02751e+06 max 1.02751e+06 min
Histogram: 1 0 0 0 0 0 0 0 0 0

Total # of neighbors = 1027512
Ave neighs/atom = 52.2854
Neighbor list builds = 495
Dangerous builds not checked
Setting up Verlet run ...
  Unit style    : metal
  Current step  : 47165
  Time step     : 0.001
Per MPI rank memory allocation (min/avg/max) = 18.19 | 18.19 | 18.19 Mbytes
Step Temp Press TotEng PotEng Enthalpy Volume 
   47165    1921.0408   -393.42177   -109679.67   -114559.29   -109797.34    479164.04 
   47337    1896.9389    236.60986   -109764.73   -114583.13   -109694.08    478380.29 
Loop time of 21.6047 on 1 procs for 172 steps with 19652 atoms

Performance: 0.688 ns/day, 34.891 hours/ns, 7.961 timesteps/s
99.9% CPU use with 1 MPI tasks x no OpenMP threads

MPI task timing breakdown:
Section |  min time  |  avg time  |  max time  |%varavg| %total
---------------------------------------------------------------
Pair    | 11.567     | 11.567     | 11.567     |   0.0 | 53.54
Neigh   | 9.5152     | 9.5152     | 9.5152     |   0.0 | 44.04
Comm    | 0.19146    | 0.19146    | 0.19146    |   0.0 |  0.89
Output  | 0.00016212 | 0.00016212 | 0.00016212 |   0.0 |  0.00
Modify  | 0.26255    | 0.26255    | 0.26255    |   0.0 |  1.22
Other   |            | 0.06815    |            |       |  0.32

Nlocal:    19652 ave 19652 max 19652 min
Histogram: 1 0 0 0 0 0 0 0 0 0
Nghost:    15799 ave 15799 max 15799 min
Histogram: 1 0 0 0 0 0 0 0 0 0
Neighs:    1.02914e+06 ave 1.02914e+06 max 1.02914e+06 min
Histogram: 1 0 0 0 0 0 0 0 0 0

Total # of neighbors = 1029143
Ave neighs/atom = 52.3684
Neighbor list builds = 172
Dangerous builds not checked
Setting up Verlet run ...
  Unit style    : metal
  Current step  : 47337
  Time step     : 0.001
Per MPI rank memory allocation (min/avg/max) = 18.19 | 18.19 | 18.19 Mbytes
Step Temp Press TotEng PotEng Enthalpy Volume 
   47337    1896.9389    236.60986   -109764.73   -114583.13   -109694.08    478380.29 
   47357    1899.4754    214.44931   -109764.54   -114589.38   -109700.51    478386.48 
   47832    1876.2638    752.34224   -110018.52    -114784.4   -109794.41    477261.72 
Loop time of 58.9512 on 1 procs for 495 steps with 19652 atoms

Performance: 0.725 ns/day, 33.081 hours/ns, 8.397 timesteps/s
100.0% CPU use with 1 MPI tasks x no OpenMP threads

MPI task timing breakdown:
Section |  min time  |  avg time  |  max time  |%varavg| %total
---------------------------------------------------------------
Pair    | 31.235     | 31.235     | 31.235     |   0.0 | 52.98
Neigh   | 26.267     | 26.267     | 26.267     |   0.0 | 44.56
Comm    | 0.52408    | 0.52408    | 0.52408    |   0.0 |  0.89
Output  | 0.056504   | 0.056504   | 0.056504   |   0.0 |  0.10
Modify  | 0.68725    | 0.68725    | 0.68725    |   0.0 |  1.17
Other   |            | 0.1815     |            |       |  0.31

Nlocal:    19652 ave 19652 max 19652 min
Histogram: 1 0 0 0 0 0 0 0 0 0
Nghost:    15834 ave 15834 max 15834 min
Histogram: 1 0 0 0 0 0 0 0 0 0
Neighs:    1.03173e+06 ave 1.03173e+06 max 1.03173e+06 min
Histogram: 1 0 0 0 0 0 0 0 0 0

Total # of neighbors = 1031727
Ave neighs/atom = 52.4998
Neighbor list builds = 495
Dangerous builds not checked
Setting up Verlet run ...
  Unit style    : metal
  Current step  : 47832
  Time step     : 0.001
Per MPI rank memory allocation (min/avg/max) = 18.19 | 18.19 | 18.19 Mbytes
Step Temp Press TotEng PotEng Enthalpy Volume 
   47832    1876.2638    752.34224   -110018.52    -114784.4   -109794.41    477261.72 
   48004    1844.1011   -893.15511   -110102.38   -114786.56   -110368.94    478163.77 
Loop time of 19.5892 on 1 procs for 172 steps with 19652 atoms

Performance: 0.759 ns/day, 31.636 hours/ns, 8.780 timesteps/s
99.9% CPU use with 1 MPI tasks x no OpenMP threads

MPI task timing breakdown:
Section |  min time  |  avg time  |  max time  |%varavg| %total
---------------------------------------------------------------
Pair    | 10.344     | 10.344     | 10.344     |   0.0 | 52.81
Neigh   | 8.7787     | 8.7787     | 8.7787     |   0.0 | 44.81
Comm    | 0.17017    | 0.17017    | 0.17017    |   0.0 |  0.87
Output  | 0.00020409 | 0.00020409 | 0.00020409 |   0.0 |  0.00
Modify  | 0.2331     | 0.2331     | 0.2331     |   0.0 |  1.19
Other   |            | 0.06264    |            |       |  0.32

Nlocal:    19652 ave 19652 max 19652 min
Histogram: 1 0 0 0 0 0 0 0 0 0
Nghost:    15808 ave 15808 max 15808 min
Histogram: 1 0 0 0 0 0 0 0 0 0
Neighs:    1.02998e+06 ave 1.02998e+06 max 1.02998e+06 min
Histogram: 1 0 0 0 0 0 0 0 0 0

Total # of neighbors = 1029982
Ave neighs/atom = 52.4111
Neighbor list builds = 172
Dangerous builds not checked
Setting up Verlet run ...
  Unit style    : metal
  Current step  : 48004
  Time step     : 0.001
Per MPI rank memory allocation (min/avg/max) = 18.19 | 18.19 | 18.19 Mbytes
Step Temp Press TotEng PotEng Enthalpy Volume 
   48004    1844.1011   -893.15511   -110102.38   -114786.56   -110368.94    478163.77 
   48024    1852.4002   -947.98137   -110102.13   -114807.39   -110385.04    478138.71 
   48499    1800.9403   -790.25258   -110367.86   -114942.41   -110603.32    477382.73 
Loop time of 58.3354 on 1 procs for 495 steps with 19652 atoms

Performance: 0.733 ns/day, 32.736 hours/ns, 8.485 timesteps/s
100.0% CPU use with 1 MPI tasks x no OpenMP threads

MPI task timing breakdown:
Section |  min time  |  avg time  |  max time  |%varavg| %total
---------------------------------------------------------------
Pair    | 30.912     | 30.912     | 30.912     |   0.0 | 52.99
Neigh   | 25.987     | 25.987     | 25.987     |   0.0 | 44.55
Comm    | 0.50732    | 0.50732    | 0.50732    |   0.0 |  0.87
Output  | 0.069324   | 0.069324   | 0.069324   |   0.0 |  0.12
Modify  | 0.67944    | 0.67944    | 0.67944    |   0.0 |  1.16
Other   |            | 0.1803     |            |       |  0.31

Nlocal:    19652 ave 19652 max 19652 min
Histogram: 1 0 0 0 0 0 0 0 0 0
Nghost:    15787 ave 15787 max 15787 min
Histogram: 1 0 0 0 0 0 0 0 0 0
Neighs:    1.03156e+06 ave 1.03156e+06 max 1.03156e+06 min
Histogram: 1 0 0 0 0 0 0 0 0 0

Total # of neighbors = 1031559
Ave neighs/atom = 52.4913
Neighbor list builds = 495
Dangerous builds not checked
Setting up Verlet run ...
  Unit style    : metal
  Current step  : 48499
  Time step     : 0.001
Per MPI rank memory allocation (min/avg/max) = 18.19 | 18.19 | 18.19 Mbytes
Step Temp Press TotEng PotEng Enthalpy Volume 
   48499    1800.9403   -790.25258   -110367.86   -114942.41   -110603.32    477382.73 
   48671    1810.5531    360.03712   -110423.71   -115022.68   -110316.61    476583.66 
Loop time of 19.5814 on 1 procs for 172 steps with 19652 atoms

Performance: 0.759 ns/day, 31.624 hours/ns, 8.784 timesteps/s
100.0% CPU use with 1 MPI tasks x no OpenMP threads

MPI task timing breakdown:
Section |  min time  |  avg time  |  max time  |%varavg| %total
---------------------------------------------------------------
Pair    | 10.365     | 10.365     | 10.365     |   0.0 | 52.93
Neigh   | 8.7546     | 8.7546     | 8.7546     |   0.0 | 44.71
Comm    | 0.16973    | 0.16973    | 0.16973    |   0.0 |  0.87
Output  | 0.00018597 | 0.00018597 | 0.00018597 |   0.0 |  0.00
Modify  | 0.2306     | 0.2306     | 0.2306     |   0.0 |  1.18
Other   |            | 0.06109    |            |       |  0.31

Nlocal:    19652 ave 19652 max 19652 min
Histogram: 1 0 0 0 0 0 0 0 0 0
Nghost:    15839 ave 15839 max 15839 min
Histogram: 1 0 0 0 0 0 0 0 0 0
Neighs:    1.03376e+06 ave 1.03376e+06 max 1.03376e+06 min
Histogram: 1 0 0 0 0 0 0 0 0 0

Total # of neighbors = 1033755
Ave neighs/atom = 52.603
Neighbor list builds = 172
Dangerous builds not checked
Setting up Verlet run ...
  Unit style    : metal
  Current step  : 48671
  Time step     : 0.001
Per MPI rank memory allocation (min/avg/max) = 18.19 | 18.19 | 18.19 Mbytes
Step Temp Press TotEng PotEng Enthalpy Volume 
   48671    1810.5531    360.03712   -110423.71   -115022.68   -110316.61    476583.66 
   48691    1808.1797    321.55036   -110424.78   -115017.72   -110329.13     476593.5 
   49166    1763.1127    884.22724   -110651.38   -115129.84   -110388.97    475459.85 
Loop time of 56.214 on 1 procs for 495 steps with 19652 atoms

Performance: 0.761 ns/day, 31.545 hours/ns, 8.806 timesteps/s
99.9% CPU use with 1 MPI tasks x no OpenMP threads

MPI task timing breakdown:
Section |  min time  |  avg time  |  max time  |%varavg| %total
---------------------------------------------------------------
Pair    | 29.517     | 29.517     | 29.517     |   0.0 | 52.51
Neigh   | 25.31      | 25.31      | 25.31      |   0.0 | 45.03
Comm    | 0.49035    | 0.49035    | 0.49035    |   0.0 |  0.87
Output  | 0.049002   | 0.049002   | 0.049002   |   0.0 |  0.09
Modify  | 0.66811    | 0.66811    | 0.66811    |   0.0 |  1.19
Other   |            | 0.1791     |            |       |  0.32

Nlocal:    19652 ave 19652 max 19652 min
Histogram: 1 0 0 0 0 0 0 0 0 0
Nghost:    15851 ave 15851 max 15851 min
Histogram: 1 0 0 0 0 0 0 0 0 0
Neighs:    1.03596e+06 ave 1.03596e+06 max 1.03596e+06 min
Histogram: 1 0 0 0 0 0 0 0 0 0

Total # of neighbors = 1035962
Ave neighs/atom = 52.7153
Neighbor list builds = 495
Dangerous builds not checked
Setting up Verlet run ...
  Unit style    : metal
  Current step  : 49166
  Time step     : 0.001
Per MPI rank memory allocation (min/avg/max) = 18.19 | 18.19 | 18.19 Mbytes
Step Temp Press TotEng PotEng Enthalpy Volume 
   49166    1763.1127    884.22724   -110651.38   -115129.84   -110388.97    475459.85 
   49338    1755.3297    -713.7432   -110732.35   -115191.05   -110944.59    476427.04 
Loop time of 20.4699 on 1 procs for 172 steps with 19652 atoms

Performance: 0.726 ns/day, 33.059 hours/ns, 8.403 timesteps/s
100.0% CPU use with 1 MPI tasks x no OpenMP threads

MPI task timing breakdown:
Section |  min time  |  avg time  |  max time  |%varavg| %total
---------------------------------------------------------------
Pair    | 10.837     | 10.837     | 10.837     |   0.0 | 52.94
Neigh   | 9.1548     | 9.1548     | 9.1548     |   0.0 | 44.72
Comm    | 0.17484    | 0.17484    | 0.17484    |   0.0 |  0.85
Output  | 0.00017881 | 0.00017881 | 0.00017881 |   0.0 |  0.00
Modify  | 0.23917    | 0.23917    | 0.23917    |   0.0 |  1.17
Other   |            | 0.06363    |            |       |  0.31

Nlocal:    19652 ave 19652 max 19652 min
Histogram: 1 0 0 0 0 0 0 0 0 0
Nghost:    15850 ave 15850 max 15850 min
Histogram: 1 0 0 0 0 0 0 0 0 0
Neighs:    1.03428e+06 ave 1.03428e+06 max 1.03428e+06 min
Histogram: 1 0 0 0 0 0 0 0 0 0

Total # of neighbors = 1034281
Ave neighs/atom = 52.6298
Neighbor list builds = 172
Dangerous builds not checked
Setting up Verlet run ...
  Unit style    : metal
  Current step  : 49338
  Time step     : 0.001
Per MPI rank memory allocation (min/avg/max) = 18.19 | 18.19 | 18.19 Mbytes
Step Temp Press TotEng PotEng Enthalpy Volume 
   49338    1755.3297    -713.7432   -110732.35   -115191.05   -110944.59    476427.04 
   49358     1759.464    -843.1971    -110733.2    -115202.4   -110983.93    476405.15 
   49833    1717.3143   -345.58335   -110998.46   -115360.59   -111101.05    475640.94 
Loop time of 68.8473 on 1 procs for 495 steps with 19652 atoms

Performance: 0.621 ns/day, 38.635 hours/ns, 7.190 timesteps/s
90.4% CPU use with 1 MPI tasks x no OpenMP threads

MPI task timing breakdown:
Section |  min time  |  avg time  |  max time  |%varavg| %total
---------------------------------------------------------------
Pair    | 36.803     | 36.803     | 36.803     |   0.0 | 53.46
Neigh   | 30.374     | 30.374     | 30.374     |   0.0 | 44.12
Comm    | 0.57457    | 0.57457    | 0.57457    |   0.0 |  0.83
Output  | 0.065525   | 0.065525   | 0.065525   |   0.0 |  0.10
Modify  | 0.81916    | 0.81916    | 0.81916    |   0.0 |  1.19
Other   |            | 0.2112     |            |       |  0.31

Nlocal:    19652 ave 19652 max 19652 min
Histogram: 1 0 0 0 0 0 0 0 0 0
Nghost:    15846 ave 15846 max 15846 min
Histogram: 1 0 0 0 0 0 0 0 0 0
Neighs:    1.03661e+06 ave 1.03661e+06 max 1.03661e+06 min
Histogram: 1 0 0 0 0 0 0 0 0 0

Total # of neighbors = 1036613
Ave neighs/atom = 52.7485
Neighbor list builds = 495
Dangerous builds not checked
Setting up Verlet run ...
  Unit style    : metal
  Current step  : 49833
  Time step     : 0.001
Per MPI rank memory allocation (min/avg/max) = 18.19 | 18.19 | 18.19 Mbytes
Step Temp Press TotEng PotEng Enthalpy Volume 
   49833    1717.3143   -345.58335   -110998.46   -115360.59   -111101.05    475640.94 
   50005    1705.6849     204.3037   -111080.38   -115412.98    -111019.8    475064.77 
Loop time of 27.4573 on 1 procs for 172 steps with 19652 atoms

Performance: 0.541 ns/day, 44.343 hours/ns, 6.264 timesteps/s
84.4% CPU use with 1 MPI tasks x no OpenMP threads

MPI task timing breakdown:
Section |  min time  |  avg time  |  max time  |%varavg| %total
---------------------------------------------------------------
Pair    | 15.103     | 15.103     | 15.103     |   0.0 | 55.01
Neigh   | 11.661     | 11.661     | 11.661     |   0.0 | 42.47
Comm    | 0.25904    | 0.25904    | 0.25904    |   0.0 |  0.94
Output  | 0.0010231  | 0.0010231  | 0.0010231  |   0.0 |  0.00
Modify  | 0.35322    | 0.35322    | 0.35322    |   0.0 |  1.29
Other   |            | 0.07945    |            |       |  0.29

Nlocal:    19652 ave 19652 max 19652 min
Histogram: 1 0 0 0 0 0 0 0 0 0
Nghost:    15834 ave 15834 max 15834 min
Histogram: 1 0 0 0 0 0 0 0 0 0
Neighs:    1.03762e+06 ave 1.03762e+06 max 1.03762e+06 min
Histogram: 1 0 0 0 0 0 0 0 0 0

Total # of neighbors = 1037624
Ave neighs/atom = 52.7999
Neighbor list builds = 172
Dangerous builds not checked
Setting up Verlet run ...
  Unit style    : metal
  Current step  : 50005
  Time step     : 0.001
Per MPI rank memory allocation (min/avg/max) = 18.19 | 18.19 | 18.19 Mbytes
Step Temp Press TotEng PotEng Enthalpy Volume 
   50005    1705.6849     204.3037   -111080.38   -115412.98    -111019.8    475064.77 
   50025    1704.5682      166.951   -111081.04    -115410.8   -111031.54    475070.54 
   50500    1668.8858    14.775559   -111323.29   -115562.41   -111318.91    474478.92 
Loop time of 72.4841 on 1 procs for 495 steps with 19652 atoms

Performance: 0.590 ns/day, 40.676 hours/ns, 6.829 timesteps/s
92.0% CPU use with 1 MPI tasks x no OpenMP threads

MPI task timing breakdown:
Section |  min time  |  avg time  |  max time  |%varavg| %total
---------------------------------------------------------------
Pair    | 38.957     | 38.957     | 38.957     |   0.0 | 53.75
Neigh   | 31.574     | 31.574     | 31.574     |   0.0 | 43.56
Comm    | 0.62213    | 0.62213    | 0.62213    |   0.0 |  0.86
Output  | 0.16543    | 0.16543    | 0.16543    |   0.0 |  0.23
Modify  | 0.91467    | 0.91467    | 0.91467    |   0.0 |  1.26
Other   |            | 0.2506     |            |       |  0.35

Nlocal:    19652 ave 19652 max 19652 min
Histogram: 1 0 0 0 0 0 0 0 0 0
Nghost:    15876 ave 15876 max 15876 min
Histogram: 1 0 0 0 0 0 0 0 0 0
Neighs:    1.03921e+06 ave 1.03921e+06 max 1.03921e+06 min
Histogram: 1 0 0 0 0 0 0 0 0 0

Total # of neighbors = 1039214
Ave neighs/atom = 52.8808
Neighbor list builds = 495
Dangerous builds not checked
Setting up Verlet run ...
  Unit style    : metal
  Current step  : 50500
  Time step     : 0.001
Per MPI rank memory allocation (min/avg/max) = 18.19 | 18.19 | 18.19 Mbytes
Step Temp Press TotEng PotEng Enthalpy Volume 
   50500    1668.8858    14.775559   -111323.29   -115562.41   -111318.91    474478.92 
   50672    1666.2939   -168.92844   -111406.16    -115638.7   -111456.21     474637.2 
Loop time of 27.3628 on 1 procs for 172 steps with 19652 atoms

Performance: 0.543 ns/day, 44.191 hours/ns, 6.286 timesteps/s
84.5% CPU use with 1 MPI tasks x no OpenMP threads

MPI task timing breakdown:
Section |  min time  |  avg time  |  max time  |%varavg| %total
---------------------------------------------------------------
Pair    | 14.788     | 14.788     | 14.788     |   0.0 | 54.04
Neigh   | 11.884     | 11.884     | 11.884     |   0.0 | 43.43
Comm    | 0.25587    | 0.25587    | 0.25587    |   0.0 |  0.94
Output  | 0.00024199 | 0.00024199 | 0.00024199 |   0.0 |  0.00
Modify  | 0.34935    | 0.34935    | 0.34935    |   0.0 |  1.28
Other   |            | 0.08555    |            |       |  0.31

Nlocal:    19652 ave 19652 max 19652 min
Histogram: 1 0 0 0 0 0 0 0 0 0
Nghost:    15833 ave 15833 max 15833 min
Histogram: 1 0 0 0 0 0 0 0 0 0
Neighs:    1.03996e+06 ave 1.03996e+06 max 1.03996e+06 min
Histogram: 1 0 0 0 0 0 0 0 0 0

Total # of neighbors = 1039957
Ave neighs/atom = 52.9186
Neighbor list builds = 172
Dangerous builds not checked
Setting up Verlet run ...
  Unit style    : metal
  Current step  : 50672
  Time step     : 0.001
Per MPI rank memory allocation (min/avg/max) = 18.19 | 18.19 | 18.19 Mbytes
Step Temp Press TotEng PotEng Enthalpy Volume 
   50672    1666.2939   -168.92844   -111406.16    -115638.7   -111456.21     474637.2 
   50692    1662.9407   -170.07269   -111407.88    -115631.9   -111458.26    474631.89 
   51167    1601.9902   -282.52306   -111667.56   -115736.76   -111751.13    473952.12 
Loop time of 69.9575 on 1 procs for 495 steps with 19652 atoms

Performance: 0.611 ns/day, 39.258 hours/ns, 7.076 timesteps/s
92.8% CPU use with 1 MPI tasks x no OpenMP threads

MPI task timing breakdown:
Section |  min time  |  avg time  |  max time  |%varavg| %total
---------------------------------------------------------------
Pair    | 37.281     | 37.281     | 37.281     |   0.0 | 53.29
Neigh   | 30.776     | 30.776     | 30.776     |   0.0 | 43.99
Comm    | 0.62625    | 0.62625    | 0.62625    |   0.0 |  0.90
Output  | 0.18616    | 0.18616    | 0.18616    |   0.0 |  0.27
Modify  | 0.83365    | 0.83365    | 0.83365    |   0.0 |  1.19
Other   |            | 0.2553     |            |       |  0.36

Nlocal:    19652 ave 19652 max 19652 min
Histogram: 1 0 0 0 0 0 0 0 0 0
Nghost:    15898 ave 15898 max 15898 min
Histogram: 1 0 0 0 0 0 0 0 0 0
Neighs:    1.04034e+06 ave 1.04034e+06 max 1.04034e+06 min
Histogram: 1 0 0 0 0 0 0 0 0 0

Total # of neighbors = 1040345
Ave neighs/atom = 52.9384
Neighbor list builds = 495
Dangerous builds not checked
Setting up Verlet run ...
  Unit style    : metal
  Current step  : 51167
  Time step     : 0.001
Per MPI rank memory allocation (min/avg/max) = 18.19 | 18.19 | 18.19 Mbytes
Step Temp Press TotEng PotEng Enthalpy Volume 
   51167    1601.9902   -282.52306   -111667.56   -115736.76   -111751.13    473952.12 
   51339     1602.813    270.16933   -111733.52   -115804.81   -111653.72    473278.13 
Loop time of 26.5783 on 1 procs for 172 steps with 19652 atoms

Performance: 0.559 ns/day, 42.924 hours/ns, 6.471 timesteps/s
89.1% CPU use with 1 MPI tasks x no OpenMP threads

MPI task timing breakdown:
Section |  min time  |  avg time  |  max time  |%varavg| %total
---------------------------------------------------------------
Pair    | 14.452     | 14.452     | 14.452     |   0.0 | 54.37
Neigh   | 11.479     | 11.479     | 11.479     |   0.0 | 43.19
Comm    | 0.23284    | 0.23284    | 0.23284    |   0.0 |  0.88
Output  | 0.00036216 | 0.00036216 | 0.00036216 |   0.0 |  0.00
Modify  | 0.32449    | 0.32449    | 0.32449    |   0.0 |  1.22
Other   |            | 0.09001    |            |       |  0.34

Nlocal:    19652 ave 19652 max 19652 min
Histogram: 1 0 0 0 0 0 0 0 0 0
Nghost:    15836 ave 15836 max 15836 min
Histogram: 1 0 0 0 0 0 0 0 0 0
Neighs:    1.04279e+06 ave 1.04279e+06 max 1.04279e+06 min
Histogram: 1 0 0 0 0 0 0 0 0 0

Total # of neighbors = 1042791
Ave neighs/atom = 53.0628
Neighbor list builds = 172
Dangerous builds not checked
Setting up Verlet run ...
  Unit style    : metal
  Current step  : 51339
  Time step     : 0.001
Per MPI rank memory allocation (min/avg/max) = 18.19 | 18.19 | 18.19 Mbytes
Step Temp Press TotEng PotEng Enthalpy Volume 
   51339     1602.813    270.16933   -111733.52   -115804.81   -111653.72    473278.13 
   51359    1601.2988    376.72978   -111733.88   -115801.33    -111622.6    473287.58 
   51834    1567.1124   -228.28806   -111981.03   -115961.64   -112048.44     473094.7 
Loop time of 73.1332 on 1 procs for 495 steps with 19652 atoms

Performance: 0.585 ns/day, 41.040 hours/ns, 6.768 timesteps/s
89.6% CPU use with 1 MPI tasks x no OpenMP threads

MPI task timing breakdown:
Section |  min time  |  avg time  |  max time  |%varavg| %total
---------------------------------------------------------------
Pair    | 39.332     | 39.332     | 39.332     |   0.0 | 53.78
Neigh   | 31.903     | 31.903     | 31.903     |   0.0 | 43.62
Comm    | 0.66865    | 0.66865    | 0.66865    |   0.0 |  0.91
Output  | 0.11834    | 0.11834    | 0.11834    |   0.0 |  0.16
Modify  | 0.86694    | 0.86694    | 0.86694    |   0.0 |  1.19
Other   |            | 0.2444     |            |       |  0.33

Nlocal:    19652 ave 19652 max 19652 min
Histogram: 1 0 0 0 0 0 0 0 0 0
Nghost:    15826 ave 15826 max 15826 min
Histogram: 1 0 0 0 0 0 0 0 0 0
Neighs:    1.04287e+06 ave 1.04287e+06 max 1.04287e+06 min
Histogram: 1 0 0 0 0 0 0 0 0 0

Total # of neighbors = 1042874
Ave neighs/atom = 53.0671
Neighbor list builds = 495
Dangerous builds not checked
Setting up Verlet run ...
  Unit style    : metal
  Current step  : 51834
  Time step     : 0.001
Per MPI rank memory allocation (min/avg/max) = 18.19 | 18.19 | 18.19 Mbytes
Step Temp Press TotEng PotEng Enthalpy Volume 
   51834    1567.1124   -228.28806   -111981.03   -115961.64   -112048.44     473094.7 
   52006     1556.813    183.99686   -112060.47   -116014.92   -112006.18    472717.45 
Loop time of 24.9837 on 1 procs for 172 steps with 19652 atoms

Performance: 0.595 ns/day, 40.348 hours/ns, 6.884 timesteps/s
90.8% CPU use with 1 MPI tasks x no OpenMP threads

MPI task timing breakdown:
Section |  min time  |  avg time  |  max time  |%varavg| %total
---------------------------------------------------------------
Pair    | 13.338     | 13.338     | 13.338     |   0.0 | 53.39
Neigh   | 11.014     | 11.014     | 11.014     |   0.0 | 44.09
Comm    | 0.22729    | 0.22729    | 0.22729    |   0.0 |  0.91
Output  | 0.0002501  | 0.0002501  | 0.0002501  |   0.0 |  0.00
Modify  | 0.32346    | 0.32346    | 0.32346    |   0.0 |  1.29
Other   |            | 0.08047    |            |       |  0.32

Nlocal:    19652 ave 19652 max 19652 min
Histogram: 1 0 0 0 0 0 0 0 0 0
Nghost:    15837 ave 15837 max 15837 min
Histogram: 1 0 0 0 0 0 0 0 0 0
Neighs:    1.04413e+06 ave 1.04413e+06 max 1.04413e+06 min
Histogram: 1 0 0 0 0 0 0 0 0 0

Total # of neighbors = 1044127
Ave neighs/atom = 53.1308
Neighbor list builds = 172
Dangerous builds not checked
Setting up Verlet run ...
  Unit style    : metal
  Current step  : 52006
  Time step     : 0.001
Per MPI rank memory allocation (min/avg/max) = 18.19 | 18.19 | 18.19 Mbytes
Step Temp Press TotEng PotEng Enthalpy Volume 
   52006     1556.813    183.99686   -112060.47   -116014.92   -112006.18    472717.45 
   52026    1549.3986     199.3287   -112060.99    -115996.6   -112002.17    472723.55 
   52501    1512.8231   -209.38393   -112304.33   -116147.04   -112366.07    472378.76 
Loop time of 75.9859 on 1 procs for 495 steps with 19652 atoms

Performance: 0.563 ns/day, 42.641 hours/ns, 6.514 timesteps/s
85.8% CPU use with 1 MPI tasks x no OpenMP threads

MPI task timing breakdown:
Section |  min time  |  avg time  |  max time  |%varavg| %total
---------------------------------------------------------------
Pair    | 41.131     | 41.131     | 41.131     |   0.0 | 54.13
Neigh   | 32.996     | 32.996     | 32.996     |   0.0 | 43.42
Comm    | 0.63323    | 0.63323    | 0.63323    |   0.0 |  0.83
Output  | 0.07094    | 0.07094    | 0.07094    |   0.0 |  0.09
Modify  | 0.91319    | 0.91319    | 0.91319    |   0.0 |  1.20
Other   |            | 0.2417     |            |       |  0.32

Nlocal:    19652 ave 19652 max 19652 min
Histogram: 1 0 0 0 0 0 0 0 0 0
Nghost:    15913 ave 15913 max 15913 min
Histogram: 1 0 0 0 0 0 0 0 0 0
Neighs:    1.04489e+06 ave 1.04489e+06 max 1.04489e+06 min
Histogram: 1 0 0 0 0 0 0 0 0 0

Total # of neighbors = 1044892
Ave neighs/atom = 53.1698
Neighbor list builds = 495
Dangerous builds not checked
Setting up Verlet run ...
  Unit style    : metal
  Current step  : 52501
  Time step     : 0.001
Per MPI rank memory allocation (min/avg/max) = 18.19 | 18.19 | 18.19 Mbytes
Step Temp Press TotEng PotEng Enthalpy Volume 
   52501    1512.8231   -209.38393   -112304.33   -116147.04   -112366.07    472378.76 
   52673    1520.1772    324.43806   -112389.37   -116250.75   -112293.85    471710.51 
Loop time of 28.0362 on 1 procs for 172 steps with 19652 atoms

Performance: 0.530 ns/day, 45.278 hours/ns, 6.135 timesteps/s
84.5% CPU use with 1 MPI tasks x no OpenMP threads

MPI task timing breakdown:
Section |  min time  |  avg time  |  max time  |%varavg| %total
---------------------------------------------------------------
Pair    | 15.287     | 15.287     | 15.287     |   0.0 | 54.53
Neigh   | 12.032     | 12.032     | 12.032     |   0.0 | 42.92
Comm    | 0.28158    | 0.28158    | 0.28158    |   0.0 |  1.00
Output  | 0.00026894 | 0.00026894 | 0.00026894 |   0.0 |  0.00
Modify  | 0.34903    | 0.34903    | 0.34903    |   0.0 |  1.24
Other   |            | 0.0866     |            |       |  0.31

Nlocal:    19652 ave 19652 max 19652 min
Histogram: 1 0 0 0 0 0 0 0 0 0
Nghost:    15913 ave 15913 max 15913 min
Histogram: 1 0 0 0 0 0 0 0 0 0
Neighs:    1.0466e+06 ave 1.0466e+06 max 1.0466e+06 min
Histogram: 1 0 0 0 0 0 0 0 0 0

Total # of neighbors = 1046597
Ave neighs/atom = 53.2565
Neighbor list builds = 172
Dangerous builds not checked
Setting up Verlet run ...
  Unit style    : metal
  Current step  : 52673
  Time step     : 0.001
Per MPI rank memory allocation (min/avg/max) = 18.19 | 18.19 | 18.19 Mbytes
Step Temp Press TotEng PotEng Enthalpy Volume 
   52673    1520.1772    324.43806   -112389.37   -116250.75   -112293.85    471710.51 
   52693    1515.5686    264.16506   -112391.42    -116241.1   -112313.64    471720.36 
   53168    1453.7317    139.31896   -112647.73   -116340.34   -112606.74    471360.94 
Loop time of 71.116 on 1 procs for 495 steps with 19652 atoms

Performance: 0.601 ns/day, 39.908 hours/ns, 6.960 timesteps/s
92.2% CPU use with 1 MPI tasks x no OpenMP threads

MPI task timing breakdown:
Section |  min time  |  avg time  |  max time  |%varavg| %total
---------------------------------------------------------------
Pair    | 37.947     | 37.947     | 37.947     |   0.0 | 53.36
Neigh   | 31.281     | 31.281     | 31.281     |   0.0 | 43.99
Comm    | 0.6435     | 0.6435     | 0.6435     |   0.0 |  0.90
Output  | 0.11692    | 0.11692    | 0.11692    |   0.0 |  0.16
Modify  | 0.88338    | 0.88338    | 0.88338    |   0.0 |  1.24
Other   |            | 0.2437     |            |       |  0.34

Nlocal:    19652 ave 19652 max 19652 min
Histogram: 1 0 0 0 0 0 0 0 0 0
Nghost:    15913 ave 15913 max 15913 min
Histogram: 1 0 0 0 0 0 0 0 0 0
Neighs:    1.04844e+06 ave 1.04844e+06 max 1.04844e+06 min
Histogram: 1 0 0 0 0 0 0 0 0 0

Total # of neighbors = 1048436
Ave neighs/atom = 53.3501
Neighbor list builds = 495
Dangerous builds not checked
Setting up Verlet run ...
  Unit style    : metal
  Current step  : 53168
  Time step     : 0.001
Per MPI rank memory allocation (min/avg/max) = 18.19 | 18.19 | 18.19 Mbytes
Step Temp Press TotEng PotEng Enthalpy Volume 
   53168    1453.7317    139.31896   -112647.73   -116340.34   -112606.74    471360.94 
   53340    1454.8608   -64.918987   -112721.78   -116417.25   -112740.87    471342.15 
Loop time of 26.1831 on 1 procs for 172 steps with 19652 atoms

Performance: 0.568 ns/day, 42.285 hours/ns, 6.569 timesteps/s
84.9% CPU use with 1 MPI tasks x no OpenMP threads

MPI task timing breakdown:
Section |  min time  |  avg time  |  max time  |%varavg| %total
---------------------------------------------------------------
Pair    | 14.001     | 14.001     | 14.001     |   0.0 | 53.48
Neigh   | 11.528     | 11.528     | 11.528     |   0.0 | 44.03
Comm    | 0.23029    | 0.23029    | 0.23029    |   0.0 |  0.88
Output  | 0.00034904 | 0.00034904 | 0.00034904 |   0.0 |  0.00
Modify  | 0.33815    | 0.33815    | 0.33815    |   0.0 |  1.29
Other   |            | 0.08473    |            |       |  0.32

Nlocal:    19652 ave 19652 max 19652 min
Histogram: 1 0 0 0 0 0 0 0 0 0
Nghost:    15898 ave 15898 max 15898 min
Histogram: 1 0 0 0 0 0 0 0 0 0
Neighs:    1.04836e+06 ave 1.04836e+06 max 1.04836e+06 min
Histogram: 1 0 0 0 0 0 0 0 0 0

Total # of neighbors = 1048362
Ave neighs/atom = 53.3463
Neighbor list builds = 172
Dangerous builds not checked
Setting up Verlet run ...
  Unit style    : metal
  Current step  : 53340
  Time step     : 0.001
Per MPI rank memory allocation (min/avg/max) = 18.19 | 18.19 | 18.19 Mbytes
Step Temp Press TotEng PotEng Enthalpy Volume 
   53340    1454.8608   -64.918987   -112721.78   -116417.25   -112740.87    471342.15 
   53360    1458.6873    10.892241   -112722.45   -116427.64   -112719.24    471340.94 
   53835    1423.4551   -34.853878   -112992.13   -116607.83   -113002.37    470774.65 
Loop time of 73.821 on 1 procs for 495 steps with 19652 atoms

Performance: 0.579 ns/day, 41.426 hours/ns, 6.705 timesteps/s
92.0% CPU use with 1 MPI tasks x no OpenMP threads

MPI task timing breakdown:
Section |  min time  |  avg time  |  max time  |%varavg| %total
---------------------------------------------------------------
Pair    | 39.734     | 39.734     | 39.734     |   0.0 | 53.83
Neigh   | 32.176     | 32.176     | 32.176     |   0.0 | 43.59
Comm    | 0.66273    | 0.66273    | 0.66273    |   0.0 |  0.90
Output  | 0.072986   | 0.072986   | 0.072986   |   0.0 |  0.10
Modify  | 0.93279    | 0.93279    | 0.93279    |   0.0 |  1.26
Other   |            | 0.2422     |            |       |  0.33

Nlocal:    19652 ave 19652 max 19652 min
Histogram: 1 0 0 0 0 0 0 0 0 0
Nghost:    15951 ave 15951 max 15951 min
Histogram: 1 0 0 0 0 0 0 0 0 0
Neighs:    1.05047e+06 ave 1.05047e+06 max 1.05047e+06 min
Histogram: 1 0 0 0 0 0 0 0 0 0

Total # of neighbors = 1050466
Ave neighs/atom = 53.4534
Neighbor list builds = 495
Dangerous builds not checked
Setting up Verlet run ...
  Unit style    : metal
  Current step  : 53835
  Time step     : 0.001
Per MPI rank memory allocation (min/avg/max) = 18.19 | 18.19 | 18.19 Mbytes
Step Temp Press TotEng PotEng Enthalpy Volume 
   53835    1423.4551   -34.853878   -112992.13   -116607.83   -113002.37    470774.65 
   54007    1413.0149    114.88914   -113067.72   -116656.91   -113033.99     470451.4 
Loop time of 24.1007 on 1 procs for 172 steps with 19652 atoms

Performance: 0.617 ns/day, 38.922 hours/ns, 7.137 timesteps/s
98.8% CPU use with 1 MPI tasks x no OpenMP threads

MPI task timing breakdown:
Section |  min time  |  avg time  |  max time  |%varavg| %total
---------------------------------------------------------------
Pair    | 13.173     | 13.173     | 13.173     |   0.0 | 54.66
Neigh   | 10.308     | 10.308     | 10.308     |   0.0 | 42.77
Comm    | 0.22799    | 0.22799    | 0.22799    |   0.0 |  0.95
Output  | 0.00043321 | 0.00043321 | 0.00043321 |   0.0 |  0.00
Modify  | 0.30808    | 0.30808    | 0.30808    |   0.0 |  1.28
Other   |            | 0.08324    |            |       |  0.35

Nlocal:    19652 ave 19652 max 19652 min
Histogram: 1 0 0 0 0 0 0 0 0 0
Nghost:    15930 ave 15930 max 15930 min
Histogram: 1 0 0 0 0 0 0 0 0 0
Neighs:    1.05081e+06 ave 1.05081e+06 max 1.05081e+06 min
Histogram: 1 0 0 0 0 0 0 0 0 0

Total # of neighbors = 1050810
Ave neighs/atom = 53.4709
Neighbor list builds = 172
Dangerous builds not checked
Setting up Verlet run ...
  Unit style    : metal
  Current step  : 54007
  Time step     : 0.001
Per MPI rank memory allocation (min/avg/max) = 18.19 | 18.19 | 18.19 Mbytes
Step Temp Press TotEng PotEng Enthalpy Volume 
   54007    1413.0149    114.88914   -113067.72   -116656.91   -113033.99     470451.4 
   54027    1413.9531    139.77501   -113069.25   -116660.82    -113028.2    470455.89 
   54502    1375.3128    318.49329    -113325.1   -116818.52   -113231.71    469779.34 
Loop time of 74.4821 on 1 procs for 495 steps with 19652 atoms

Performance: 0.574 ns/day, 41.797 hours/ns, 6.646 timesteps/s
95.2% CPU use with 1 MPI tasks x no OpenMP threads

MPI task timing breakdown:
Section |  min time  |  avg time  |  max time  |%varavg| %total
---------------------------------------------------------------
Pair    | 40.366     | 40.366     | 40.366     |   0.0 | 54.20
Neigh   | 32.104     | 32.104     | 32.104     |   0.0 | 43.10
Comm    | 0.69744    | 0.69744    | 0.69744    |   0.0 |  0.94
Output  | 0.071329   | 0.071329   | 0.071329   |   0.0 |  0.10
Modify  | 0.95028    | 0.95028    | 0.95028    |   0.0 |  1.28
Other   |            | 0.2931     |            |       |  0.39

Nlocal:    19652 ave 19652 max 19652 min
Histogram: 1 0 0 0 0 0 0 0 0 0
Nghost:    15928 ave 15928 max 15928 min
Histogram: 1 0 0 0 0 0 0 0 0 0
Neighs:    1.05322e+06 ave 1.05322e+06 max 1.05322e+06 min
Histogram: 1 0 0 0 0 0 0 0 0 0

Total # of neighbors = 1053216
Ave neighs/atom = 53.5933
Neighbor list builds = 495
Dangerous builds not checked
Setting up Verlet run ...
  Unit style    : metal
  Current step  : 54502
  Time step     : 0.001
Per MPI rank memory allocation (min/avg/max) = 18.19 | 18.19 | 18.19 Mbytes
Step Temp Press TotEng PotEng Enthalpy Volume 
   54502    1375.3128    318.49329    -113325.1   -116818.52   -113231.71    469779.34 
   54674    1359.3789   -365.08516   -113405.76   -116858.71   -113512.84    469906.17 
Loop time of 25.8777 on 1 procs for 172 steps with 19652 atoms

Performance: 0.574 ns/day, 41.792 hours/ns, 6.647 timesteps/s
95.8% CPU use with 1 MPI tasks x no OpenMP threads

MPI task timing breakdown:
Section |  min time  |  avg time  |  max time  |%varavg| %total
---------------------------------------------------------------
Pair    | 14.128     | 14.128     | 14.128     |   0.0 | 54.60
Neigh   | 11.049     | 11.049     | 11.049     |   0.0 | 42.70
Comm    | 0.25183    | 0.25183    | 0.25183    |   0.0 |  0.97
Output  | 0.00049591 | 0.00049591 | 0.00049591 |   0.0 |  0.00
Modify  | 0.34       | 0.34       | 0.34       |   0.0 |  1.31
Other   |            | 0.1079     |            |       |  0.42

Nlocal:    19652 ave 19652 max 19652 min
Histogram: 1 0 0 0 0 0 0 0 0 0
Nghost:    15879 ave 15879 max 15879 min
Histogram: 1 0 0 0 0 0 0 0 0 0
Neighs:    1.05321e+06 ave 1.05321e+06 max 1.05321e+06 min
Histogram: 1 0 0 0 0 0 0 0 0 0

Total # of neighbors = 1053207
Ave neighs/atom = 53.5929
Neighbor list builds = 172
Dangerous builds not checked
Setting up Verlet run ...
  Unit style    : metal
  Current step  : 54674
  Time step     : 0.001
Per MPI rank memory allocation (min/avg/max) = 18.19 | 18.19 | 18.19 Mbytes
Step Temp Press TotEng PotEng Enthalpy Volume 
   54674    1359.3789   -365.08516   -113405.76   -116858.71   -113512.84    469906.17 
   54694    1360.3077   -399.91939   -113406.87   -116862.17   -113524.16    469892.28 
   55169    1321.5041    66.999836   -113680.88   -117037.62   -113661.27    469052.61 
Loop time of 65.6874 on 1 procs for 495 steps with 19652 atoms

Performance: 0.651 ns/day, 36.862 hours/ns, 7.536 timesteps/s
99.9% CPU use with 1 MPI tasks x no OpenMP threads

MPI task timing breakdown:
Section |  min time  |  avg time  |  max time  |%varavg| %total
---------------------------------------------------------------
Pair    | 35.53      | 35.53      | 35.53      |   0.0 | 54.09
Neigh   | 28.368     | 28.368     | 28.368     |   0.0 | 43.19
Comm    | 0.63258    | 0.63258    | 0.63258    |   0.0 |  0.96
Output  | 0.073168   | 0.073168   | 0.073168   |   0.0 |  0.11
Modify  | 0.85924    | 0.85924    | 0.85924    |   0.0 |  1.31
Other   |            | 0.2249     |            |       |  0.34

Nlocal:    19652 ave 19652 max 19652 min
Histogram: 1 0 0 0 0 0 0 0 0 0
Nghost:    15910 ave 15910 max 15910 min
Histogram: 1 0 0 0 0 0 0 0 0 0
Neighs:    1.0552e+06 ave 1.0552e+06 max 1.0552e+06 min
Histogram: 1 0 0 0 0 0 0 0 0 0

Total # of neighbors = 1055201
Ave neighs/atom = 53.6943
Neighbor list builds = 495
Dangerous builds not checked
Setting up Verlet run ...
  Unit style    : metal
  Current step  : 55169
  Time step     : 0.001
Per MPI rank memory allocation (min/avg/max) = 18.19 | 18.19 | 18.19 Mbytes
Step Temp Press TotEng PotEng Enthalpy Volume 
   55169    1321.5041    66.999836   -113680.88   -117037.62   -113661.27    469052.61 
   55341    1317.8857   -29.770257   -113759.13   -117106.68   -113767.84     468997.6 
Loop time of 22.4821 on 1 procs for 172 steps with 19652 atoms

Performance: 0.661 ns/day, 36.308 hours/ns, 7.651 timesteps/s
100.0% CPU use with 1 MPI tasks x no OpenMP threads

MPI task timing breakdown:
Section |  min time  |  avg time  |  max time  |%varavg| %total
[...]
Modify  | 0.94436    | 0.94436    | 0.94436    |   0.0 |  1.34
Other   |            | 0.2488     |            |       |  0.35

Nlocal:    19652 ave 19652 max 19652 min
Histogram: 1 0 0 0 0 0 0 0 0 0
Nghost:    16078 ave 16078 max 16078 min
Histogram: 1 0 0 0 0 0 0 0 0 0
Neighs:    1.09618e+06 ave 1.09618e+06 max 1.09618e+06 min
Histogram: 1 0 0 0 0 0 0 0 0 0

Total # of neighbors = 1096177
Ave neighs/atom = 55.7794
Neighbor list builds = 495
Dangerous builds not checked
Setting up Verlet run ...
  Unit style    : metal
  Current step  : 67175
  Time step     : 0.001
Per MPI rank memory allocation (min/avg/max) = 18.19 | 18.19 | 18.19 Mbytes
Step Temp Press TotEng PotEng Enthalpy Volume 
   67175    423.15117   -51.107352   -119399.76    -120474.6   -119414.36    457667.59 
   67347    413.88705   -60.800444   -119454.59    -120505.9   -119471.96    457570.19 
Loop time of 24.1177 on 1 procs for 172 steps with 19652 atoms

Performance: 0.616 ns/day, 38.950 hours/ns, 7.132 timesteps/s
100.0% CPU use with 1 MPI tasks x no OpenMP threads

MPI task timing breakdown:
Section |  min time  |  avg time  |  max time  |%varavg| %total
---------------------------------------------------------------
Pair    | 13.34      | 13.34      | 13.34      |   0.0 | 55.31
Neigh   | 10.123     | 10.123     | 10.123     |   0.0 | 41.97
Comm    | 0.2434     | 0.2434     | 0.2434     |   0.0 |  1.01
Output  | 0.00027084 | 0.00027084 | 0.00027084 |   0.0 |  0.00
Modify  | 0.32407    | 0.32407    | 0.32407    |   0.0 |  1.34
Other   |            | 0.08705    |            |       |  0.36

Nlocal:    19652 ave 19652 max 19652 min
Histogram: 1 0 0 0 0 0 0 0 0 0
Nghost:    16041 ave 16041 max 16041 min
Histogram: 1 0 0 0 0 0 0 0 0 0
Neighs:    1.09594e+06 ave 1.09594e+06 max 1.09594e+06 min
Histogram: 1 0 0 0 0 0 0 0 0 0

Total # of neighbors = 1095942
Ave neighs/atom = 55.7675
Neighbor list builds = 172
Dangerous builds not checked
Setting up Verlet run ...
  Unit style    : metal
  Current step  : 67347
  Time step     : 0.001
Per MPI rank memory allocation (min/avg/max) = 18.19 | 18.19 | 18.19 Mbytes
Step Temp Press TotEng PotEng Enthalpy Volume 
   67347    413.88705   -60.800444   -119454.59    -120505.9   -119471.96    457570.19 
   67367    414.25958   -54.022986   -119456.17   -120508.43    -119471.6    457563.09 
   67842    373.45191    74.808684   -119673.22   -120621.82   -119651.87    457166.82 
Loop time of 72.3438 on 1 procs for 495 steps with 19652 atoms

Performance: 0.591 ns/day, 40.597 hours/ns, 6.842 timesteps/s
99.8% CPU use with 1 MPI tasks x no OpenMP threads

MPI task timing breakdown:
Section |  min time  |  avg time  |  max time  |%varavg| %total
---------------------------------------------------------------
Pair    | 40.214     | 40.214     | 40.214     |   0.0 | 55.59
Neigh   | 30.103     | 30.103     | 30.103     |   0.0 | 41.61
Comm    | 0.72897    | 0.72897    | 0.72897    |   0.0 |  1.01
Output  | 0.068018   | 0.068018   | 0.068018   |   0.0 |  0.09
Modify  | 0.97964    | 0.97964    | 0.97964    |   0.0 |  1.35
Other   |            | 0.2503     |            |       |  0.35

Nlocal:    19652 ave 19652 max 19652 min
Histogram: 1 0 0 0 0 0 0 0 0 0
Nghost:    16099 ave 16099 max 16099 min
Histogram: 1 0 0 0 0 0 0 0 0 0
Neighs:    1.0982e+06 ave 1.0982e+06 max 1.0982e+06 min
Histogram: 1 0 0 0 0 0 0 0 0 0

Total # of neighbors = 1098197
Ave neighs/atom = 55.8822
Neighbor list builds = 495
Dangerous builds not checked
Setting up Verlet run ...
  Unit style    : metal
  Current step  : 67842
  Time step     : 0.001
Per MPI rank memory allocation (min/avg/max) = 18.19 | 18.19 | 18.19 Mbytes
Step Temp Press TotEng PotEng Enthalpy Volume 
   67842    373.45191    74.808684   -119673.22   -120621.82   -119651.87    457166.82 
   68014    365.88312    145.73438   -119729.45   -120658.83   -119687.89    456983.04 
Loop time of 24.1331 on 1 procs for 172 steps with 19652 atoms

Performance: 0.616 ns/day, 38.975 hours/ns, 7.127 timesteps/s
100.0% CPU use with 1 MPI tasks x no OpenMP threads

MPI task timing breakdown:
Section |  min time  |  avg time  |  max time  |%varavg| %total
---------------------------------------------------------------
Pair    | 13.418     | 13.418     | 13.418     |   0.0 | 55.60
Neigh   | 10.065     | 10.065     | 10.065     |   0.0 | 41.71
Comm    | 0.24185    | 0.24185    | 0.24185    |   0.0 |  1.00
Output  | 0.00019789 | 0.00019789 | 0.00019789 |   0.0 |  0.00
Modify  | 0.32157    | 0.32157    | 0.32157    |   0.0 |  1.33
Other   |            | 0.08619    |            |       |  0.36

Nlocal:    19652 ave 19652 max 19652 min
Histogram: 1 0 0 0 0 0 0 0 0 0
Nghost:    16080 ave 16080 max 16080 min
Histogram: 1 0 0 0 0 0 0 0 0 0
Neighs:    1.09861e+06 ave 1.09861e+06 max 1.09861e+06 min
Histogram: 1 0 0 0 0 0 0 0 0 0

Total # of neighbors = 1098607
Ave neighs/atom = 55.9031
Neighbor list builds = 172
Dangerous builds not checked
Setting up Verlet run ...
  Unit style    : metal
  Current step  : 68014
  Time step     : 0.001
Per MPI rank memory allocation (min/avg/max) = 18.19 | 18.19 | 18.19 Mbytes
Step Temp Press TotEng PotEng Enthalpy Volume 
   68014    365.88312    145.73438   -119729.45   -120658.83   -119687.89    456983.04 
   68034    366.49301    97.867203   -119731.27    -120662.2   -119703.36    457000.98 
   68509    324.98749    140.82574   -119946.03   -120771.53    -119905.9    456562.84 
Loop time of 69.3731 on 1 procs for 495 steps with 19652 atoms

Performance: 0.616 ns/day, 38.930 hours/ns, 7.135 timesteps/s
99.5% CPU use with 1 MPI tasks x no OpenMP threads

MPI task timing breakdown:
Section |  min time  |  avg time  |  max time  |%varavg| %total
---------------------------------------------------------------
Pair    | 38.274     | 38.274     | 38.274     |   0.0 | 55.17
Neigh   | 29.199     | 29.199     | 29.199     |   0.0 | 42.09
Comm    | 0.6858     | 0.6858     | 0.6858     |   0.0 |  0.99
Output  | 0.052994   | 0.052994   | 0.052994   |   0.0 |  0.08
Modify  | 0.92244    | 0.92244    | 0.92244    |   0.0 |  1.33
Other   |            | 0.2382     |            |       |  0.34

Nlocal:    19652 ave 19652 max 19652 min
Histogram: 1 0 0 0 0 0 0 0 0 0
Nghost:    16085 ave 16085 max 16085 min
Histogram: 1 0 0 0 0 0 0 0 0 0
Neighs:    1.10019e+06 ave 1.10019e+06 max 1.10019e+06 min
Histogram: 1 0 0 0 0 0 0 0 0 0

Total # of neighbors = 1100190
Ave neighs/atom = 55.9836
Neighbor list builds = 495
Dangerous builds not checked
Setting up Verlet run ...
  Unit style    : metal
  Current step  : 68509
  Time step     : 0.001
Per MPI rank memory allocation (min/avg/max) = 18.19 | 18.19 | 18.19 Mbytes
Step Temp Press TotEng PotEng Enthalpy Volume 
   68509    324.98749    140.82574   -119946.03   -120771.53    -119905.9    456562.84 
   68681    314.24844    177.77454   -120002.94   -120801.16   -119952.29    456473.47 
Loop time of 23.0813 on 1 procs for 172 steps with 19652 atoms

Performance: 0.644 ns/day, 37.276 hours/ns, 7.452 timesteps/s
99.9% CPU use with 1 MPI tasks x no OpenMP threads

MPI task timing breakdown:
Section |  min time  |  avg time  |  max time  |%varavg| %total
---------------------------------------------------------------
Pair    | 12.694     | 12.694     | 12.694     |   0.0 | 55.00
Neigh   | 9.7922     | 9.7922     | 9.7922     |   0.0 | 42.42
Comm    | 0.21589    | 0.21589    | 0.21589    |   0.0 |  0.94
Output  | 0.00025821 | 0.00025821 | 0.00025821 |   0.0 |  0.00
Modify  | 0.30001    | 0.30001    | 0.30001    |   0.0 |  1.30
Other   |            | 0.07894    |            |       |  0.34

Nlocal:    19652 ave 19652 max 19652 min
Histogram: 1 0 0 0 0 0 0 0 0 0
Nghost:    16048 ave 16048 max 16048 min
Histogram: 1 0 0 0 0 0 0 0 0 0
Neighs:    1.10046e+06 ave 1.10046e+06 max 1.10046e+06 min
Histogram: 1 0 0 0 0 0 0 0 0 0

Total # of neighbors = 1100458
Ave neighs/atom = 55.9973
Neighbor list builds = 172
Dangerous builds not checked
Setting up Verlet run ...
  Unit style    : metal
  Current step  : 68681
  Time step     : 0.001
Per MPI rank memory allocation (min/avg/max) = 18.19 | 18.19 | 18.19 Mbytes
Step Temp Press TotEng PotEng Enthalpy Volume 
   68681    314.24844    177.77454   -120002.94   -120801.16   -119952.29    456473.47 
   68701    314.16638    129.33905   -120004.54   -120802.55   -119967.68    456499.78 
   69176    276.25252    122.73076    -120213.1   -120914.81   -120178.16    456122.76 
Loop time of 69.8639 on 1 procs for 495 steps with 19652 atoms

Performance: 0.612 ns/day, 39.205 hours/ns, 7.085 timesteps/s
99.9% CPU use with 1 MPI tasks x no OpenMP threads

MPI task timing breakdown:
Section |  min time  |  avg time  |  max time  |%varavg| %total
---------------------------------------------------------------
Pair    | 38.604     | 38.604     | 38.604     |   0.0 | 55.26
Neigh   | 29.341     | 29.341     | 29.341     |   0.0 | 42.00
Comm    | 0.69087    | 0.69087    | 0.69087    |   0.0 |  0.99
Output  | 0.061462   | 0.061462   | 0.061462   |   0.0 |  0.09
Modify  | 0.92491    | 0.92491    | 0.92491    |   0.0 |  1.32
Other   |            | 0.2416     |            |       |  0.35

Nlocal:    19652 ave 19652 max 19652 min
Histogram: 1 0 0 0 0 0 0 0 0 0
Nghost:    16077 ave 16077 max 16077 min
Histogram: 1 0 0 0 0 0 0 0 0 0
Neighs:    1.10196e+06 ave 1.10196e+06 max 1.10196e+06 min
Histogram: 1 0 0 0 0 0 0 0 0 0

Total # of neighbors = 1101965
Ave neighs/atom = 56.0739
Neighbor list builds = 495
Dangerous builds not checked
Setting up Verlet run ...
  Unit style    : metal
  Current step  : 69176
  Time step     : 0.001
Per MPI rank memory allocation (min/avg/max) = 18.19 | 18.19 | 18.19 Mbytes
Step Temp Press TotEng PotEng Enthalpy Volume 
   69176    276.25252    122.73076    -120213.1   -120914.81   -120178.16    456122.76 
   69348    266.29356    35.320439   -120267.63   -120944.04   -120257.57    456049.07 
Loop time of 23.0762 on 1 procs for 172 steps with 19652 atoms

Performance: 0.644 ns/day, 37.268 hours/ns, 7.454 timesteps/s
99.9% CPU use with 1 MPI tasks x no OpenMP threads

MPI task timing breakdown:
Section |  min time  |  avg time  |  max time  |%varavg| %total
---------------------------------------------------------------
Pair    | 12.699     | 12.699     | 12.699     |   0.0 | 55.03
Neigh   | 9.7689     | 9.7689     | 9.7689     |   0.0 | 42.33
Comm    | 0.22764    | 0.22764    | 0.22764    |   0.0 |  0.99
Output  | 0.00020289 | 0.00020289 | 0.00020289 |   0.0 |  0.00
Modify  | 0.29751    | 0.29751    | 0.29751    |   0.0 |  1.29
Other   |            | 0.08247    |            |       |  0.36

Nlocal:    19652 ave 19652 max 19652 min
Histogram: 1 0 0 0 0 0 0 0 0 0
Nghost:    16085 ave 16085 max 16085 min
Histogram: 1 0 0 0 0 0 0 0 0 0
Neighs:    1.10177e+06 ave 1.10177e+06 max 1.10177e+06 min
Histogram: 1 0 0 0 0 0 0 0 0 0

Total # of neighbors = 1101773
Ave neighs/atom = 56.0642
Neighbor list builds = 172
Dangerous builds not checked
Setting up Verlet run ...
  Unit style    : metal
  Current step  : 69348
  Time step     : 0.001
Per MPI rank memory allocation (min/avg/max) = 18.19 | 18.19 | 18.19 Mbytes
Step Temp Press TotEng PotEng Enthalpy Volume 
   69348    266.29356    35.320439   -120267.63   -120944.04   -120257.57    456049.07 
   69368    267.95404   -3.9742519   -120269.56   -120950.19   -120270.69    456053.71 
   69843    226.84167   -106.90223   -120475.28   -121051.47   -120505.69    455767.86 
Loop time of 63.8689 on 1 procs for 495 steps with 19652 atoms

Performance: 0.670 ns/day, 35.841 hours/ns, 7.750 timesteps/s
99.9% CPU use with 1 MPI tasks x no OpenMP threads

MPI task timing breakdown:
Section |  min time  |  avg time  |  max time  |%varavg| %total
---------------------------------------------------------------
Pair    | 34.719     | 34.719     | 34.719     |   0.0 | 54.36
Neigh   | 27.465     | 27.465     | 27.465     |   0.0 | 43.00
Comm    | 0.59312    | 0.59312    | 0.59312    |   0.0 |  0.93
Output  | 0.071668   | 0.071668   | 0.071668   |   0.0 |  0.11
Modify  | 0.80597    | 0.80597    | 0.80597    |   0.0 |  1.26
Other   |            | 0.2141     |            |       |  0.34

Nlocal:    19652 ave 19652 max 19652 min
Histogram: 1 0 0 0 0 0 0 0 0 0
Nghost:    16093 ave 16093 max 16093 min
Histogram: 1 0 0 0 0 0 0 0 0 0
Neighs:    1.1034e+06 ave 1.1034e+06 max 1.1034e+06 min
Histogram: 1 0 0 0 0 0 0 0 0 0

Total # of neighbors = 1103401
Ave neighs/atom = 56.147
Neighbor list builds = 495
Dangerous builds not checked
Setting up Verlet run ...
  Unit style    : metal
  Current step  : 69843
  Time step     : 0.001
Per MPI rank memory allocation (min/avg/max) = 18.19 | 18.19 | 18.19 Mbytes
Step Temp Press TotEng PotEng Enthalpy Volume 
   69843    226.84167   -106.90223   -120475.28   -121051.47   -120505.69    455767.86 
   70015    218.45578    21.223056   -120529.83   -121084.72   -120523.79    455633.05 
Loop time of 22.2059 on 1 procs for 172 steps with 19652 atoms

Performance: 0.669 ns/day, 35.862 hours/ns, 7.746 timesteps/s
99.2% CPU use with 1 MPI tasks x no OpenMP threads

MPI task timing breakdown:
Section |  min time  |  avg time  |  max time  |%varavg| %total
---------------------------------------------------------------
Pair    | 12.018     | 12.018     | 12.018     |   0.0 | 54.12
Neigh   | 9.6344     | 9.6344     | 9.6344     |   0.0 | 43.39
Comm    | 0.20253    | 0.20253    | 0.20253    |   0.0 |  0.91
Output  | 0.00019598 | 0.00019598 | 0.00019598 |   0.0 |  0.00
Modify  | 0.27818    | 0.27818    | 0.27818    |   0.0 |  1.25
Other   |            | 0.07291    |            |       |  0.33

Nlocal:    19652 ave 19652 max 19652 min
Histogram: 1 0 0 0 0 0 0 0 0 0
Nghost:    16097 ave 16097 max 16097 min
Histogram: 1 0 0 0 0 0 0 0 0 0
Neighs:    1.10374e+06 ave 1.10374e+06 max 1.10374e+06 min
Histogram: 1 0 0 0 0 0 0 0 0 0

Total # of neighbors = 1103736
Ave neighs/atom = 56.1641
Neighbor list builds = 172
Dangerous builds not checked
Setting up Verlet run ...
  Unit style    : metal
  Current step  : 70015
  Time step     : 0.001
Per MPI rank memory allocation (min/avg/max) = 18.19 | 18.19 | 18.19 Mbytes
Step Temp Press TotEng PotEng Enthalpy Volume 
   70015    218.45578    21.223056   -120529.83   -121084.72   -120523.79    455633.05 
   70035     219.1754    21.190604   -120531.99   -121088.71   -120525.96    455638.72 
   70510    180.11938   -90.902059   -120733.61   -121191.13   -120759.45     455306.6 
Loop time of 63.2557 on 1 procs for 495 steps with 19652 atoms

Performance: 0.676 ns/day, 35.497 hours/ns, 7.825 timesteps/s
99.9% CPU use with 1 MPI tasks x no OpenMP threads

MPI task timing breakdown:
Section |  min time  |  avg time  |  max time  |%varavg| %total
---------------------------------------------------------------
Pair    | 34.254     | 34.254     | 34.254     |   0.0 | 54.15
Neigh   | 27.379     | 27.379     | 27.379     |   0.0 | 43.28
Comm    | 0.56139    | 0.56139    | 0.56139    |   0.0 |  0.89
Output  | 0.067924   | 0.067924   | 0.067924   |   0.0 |  0.11
Modify  | 0.78731    | 0.78731    | 0.78731    |   0.0 |  1.24
Other   |            | 0.2058     |            |       |  0.33

Nlocal:    19652 ave 19652 max 19652 min
Histogram: 1 0 0 0 0 0 0 0 0 0
Nghost:    16108 ave 16108 max 16108 min
Histogram: 1 0 0 0 0 0 0 0 0 0
Neighs:    1.10453e+06 ave 1.10453e+06 max 1.10453e+06 min
Histogram: 1 0 0 0 0 0 0 0 0 0

Total # of neighbors = 1104531
Ave neighs/atom = 56.2045
Neighbor list builds = 495
Dangerous builds not checked
Setting up Verlet run ...
  Unit style    : metal
  Current step  : 70510
  Time step     : 0.001
Per MPI rank memory allocation (min/avg/max) = 18.19 | 18.19 | 18.19 Mbytes
Step Temp Press TotEng PotEng Enthalpy Volume 
   70510    180.11938   -90.902059   -120733.61   -121191.13   -120759.45     455306.6 
   70682    169.44569    90.657619   -120788.62   -121219.02   -120762.87    455089.42 
Loop time of 21.1298 on 1 procs for 172 steps with 19652 atoms

Performance: 0.703 ns/day, 34.124 hours/ns, 8.140 timesteps/s
100.0% CPU use with 1 MPI tasks x no OpenMP threads

MPI task timing breakdown:
Section |  min time  |  avg time  |  max time  |%varavg| %total
---------------------------------------------------------------
Pair    | 11.444     | 11.444     | 11.444     |   0.0 | 54.16
Neigh   | 9.1625     | 9.1625     | 9.1625     |   0.0 | 43.36
Comm    | 0.18896    | 0.18896    | 0.18896    |   0.0 |  0.89
Output  | 0.00021195 | 0.00021195 | 0.00021195 |   0.0 |  0.00
Modify  | 0.26386    | 0.26386    | 0.26386    |   0.0 |  1.25
Other   |            | 0.07008    |            |       |  0.33

Nlocal:    19652 ave 19652 max 19652 min
Histogram: 1 0 0 0 0 0 0 0 0 0
Nghost:    16098 ave 16098 max 16098 min
Histogram: 1 0 0 0 0 0 0 0 0 0
Neighs:    1.10504e+06 ave 1.10504e+06 max 1.10504e+06 min
Histogram: 1 0 0 0 0 0 0 0 0 0

Total # of neighbors = 1105039
Ave neighs/atom = 56.2304
Neighbor list builds = 172
Dangerous builds not checked
Setting up Verlet run ...
  Unit style    : metal
  Current step  : 70682
  Time step     : 0.001
Per MPI rank memory allocation (min/avg/max) = 18.19 | 18.19 | 18.19 Mbytes
Step Temp Press TotEng PotEng Enthalpy Volume 
   70682    169.44569    90.657619   -120788.62   -121219.02   -120762.87    455089.42 
   70702    169.90166    40.828772   -120790.92   -121222.48   -120779.32    455114.27 
   71177    131.85268    66.260666   -120988.26   -121323.18   -120969.45     454802.2 
Loop time of 61.037 on 1 procs for 495 steps with 19652 atoms

Performance: 0.701 ns/day, 34.252 hours/ns, 8.110 timesteps/s
99.9% CPU use with 1 MPI tasks x no OpenMP threads

MPI task timing breakdown:
Section |  min time  |  avg time  |  max time  |%varavg| %total
---------------------------------------------------------------
Pair    | 32.773     | 32.773     | 32.773     |   0.0 | 53.69
Neigh   | 26.703     | 26.703     | 26.703     |   0.0 | 43.75
Comm    | 0.53861    | 0.53861    | 0.53861    |   0.0 |  0.88
Output  | 0.062609   | 0.062609   | 0.062609   |   0.0 |  0.10
Modify  | 0.75932    | 0.75932    | 0.75932    |   0.0 |  1.24
Other   |            | 0.2011     |            |       |  0.33

Nlocal:    19652 ave 19652 max 19652 min
Histogram: 1 0 0 0 0 0 0 0 0 0
Nghost:    16094 ave 16094 max 16094 min
Histogram: 1 0 0 0 0 0 0 0 0 0
Neighs:    1.1068e+06 ave 1.1068e+06 max 1.1068e+06 min
Histogram: 1 0 0 0 0 0 0 0 0 0

Total # of neighbors = 1106804
Ave neighs/atom = 56.3202
Neighbor list builds = 495
Dangerous builds not checked
Setting up Verlet run ...
  Unit style    : metal
  Current step  : 71177
  Time step     : 0.001
Per MPI rank memory allocation (min/avg/max) = 18.19 | 18.19 | 18.19 Mbytes
Step Temp Press TotEng PotEng Enthalpy Volume 
   71177    131.85268    66.260666   -120988.26   -121323.18   -120969.45     454802.2 
   71349    121.71218   -14.471593   -121041.79   -121350.95    -121045.9    454718.57 
Loop time of 20.9919 on 1 procs for 172 steps with 19652 atoms

Performance: 0.708 ns/day, 33.902 hours/ns, 8.194 timesteps/s
100.0% CPU use with 1 MPI tasks x no OpenMP threads

MPI task timing breakdown:
Section |  min time  |  avg time  |  max time  |%varavg| %total
---------------------------------------------------------------
Pair    | 11.3       | 11.3       | 11.3       |   0.0 | 53.83
Neigh   | 9.1677     | 9.1677     | 9.1677     |   0.0 | 43.67
Comm    | 0.18924    | 0.18924    | 0.18924    |   0.0 |  0.90
Output  | 0.00019503 | 0.00019503 | 0.00019503 |   0.0 |  0.00
Modify  | 0.26674    | 0.26674    | 0.26674    |   0.0 |  1.27
Other   |            | 0.06825    |            |       |  0.33

Nlocal:    19652 ave 19652 max 19652 min
Histogram: 1 0 0 0 0 0 0 0 0 0
Nghost:    16104 ave 16104 max 16104 min
Histogram: 1 0 0 0 0 0 0 0 0 0
Neighs:    1.10675e+06 ave 1.10675e+06 max 1.10675e+06 min
Histogram: 1 0 0 0 0 0 0 0 0 0

Total # of neighbors = 1106747
Ave neighs/atom = 56.3173
Neighbor list builds = 172
Dangerous builds not checked
Total wall time: 2:48:55
