LAMMPS (12 Dec 2018)
Lattice spacing in x,y,z = 4 4 4
Created orthogonal box = (0 0 0) to (68 68 68)
  1 by 1 by 1 MPI processor grid
Created 19652 atoms
  Time spent = 0.00320411 secs
Setting atom values ...
  19652 settings made for type/fraction
Neighbor list info ...
  update every 1 steps, delay 0 steps, check no
  max neighbors/atom: 2000, page size: 100000
  master list distance cutoff = 8.5
  ghost atom cutoff = 8.5
  binsize = 4.25, bins = 16 16 16
  1 neighbor lists, perpetual/occasional/extra = 1 0 0
  (1) pair eam/alloy, perpetual
      attributes: half, newton on
      pair build: half/bin/atomonly/newton
      stencil: half/bin/3d/newton
      bin: standard
Setting up Verlet run ...
  Unit style    : metal
  Current step  : 0
  Time step     : 0.001
Per MPI rank memory allocation (min/avg/max) = 18.19 | 18.19 | 18.19 Mbytes
Step Temp Press TotEng PotEng Enthalpy Volume 
       0          300    713593.33   -100529.05   -101291.08    39515.802       314432 
    1000    287.57123    601198.97   -100528.98   -101259.44    17458.144       314432 
Loop time of 170.774 on 1 procs for 1000 steps with 19652 atoms

Performance: 0.506 ns/day, 47.437 hours/ns, 5.856 timesteps/s
95.9% CPU use with 1 MPI tasks x no OpenMP threads

MPI task timing breakdown:
Section |  min time  |  avg time  |  max time  |%varavg| %total
---------------------------------------------------------------
Pair    | 96.088     | 96.088     | 96.088     |   0.0 | 56.27
Neigh   | 72.456     | 72.456     | 72.456     |   0.0 | 42.43
Comm    | 1.2807     | 1.2807     | 1.2807     |   0.0 |  0.75
Output  | 0.09489    | 0.09489    | 0.09489    |   0.0 |  0.06
Modify  | 0.45451    | 0.45451    | 0.45451    |   0.0 |  0.27
Other   |            | 0.3996     |            |       |  0.23

Nlocal:    19652 ave 19652 max 19652 min
Histogram: 1 0 0 0 0 0 0 0 0 0
Nghost:    19592 ave 19592 max 19592 min
Histogram: 1 0 0 0 0 0 0 0 0 0
Neighs:    1.5836e+06 ave 1.5836e+06 max 1.5836e+06 min
Histogram: 1 0 0 0 0 0 0 0 0 0

Total # of neighbors = 1583602
Ave neighs/atom = 80.5822
Neighbor list builds = 1000
Dangerous builds not checked
Setting up Verlet run ...
  Unit style    : metal
  Current step  : 1000
  Time step     : 0.001
Per MPI rank memory allocation (min/avg/max) = 18.19 | 18.19 | 18.19 Mbytes
Step Temp Press TotEng PotEng Enthalpy Volume 
    1000    287.57123    601198.97   -100528.98   -101259.44    17458.144       314432 
    2000    289.66383    4.9305682   -122935.03    -123670.8   -122933.61    461661.03 
Loop time of 140.239 on 1 procs for 1000 steps with 19652 atoms

Performance: 0.616 ns/day, 38.955 hours/ns, 7.131 timesteps/s
97.5% CPU use with 1 MPI tasks x no OpenMP threads

MPI task timing breakdown:
Section |  min time  |  avg time  |  max time  |%varavg| %total
---------------------------------------------------------------
Pair    | 75.42      | 75.42      | 75.42      |   0.0 | 53.78
Neigh   | 61.723     | 61.723     | 61.723     |   0.0 | 44.01
Comm    | 1.1291     | 1.1291     | 1.1291     |   0.0 |  0.81
Output  | 0.060553   | 0.060553   | 0.060553   |   0.0 |  0.04
Modify  | 1.5089     | 1.5089     | 1.5089     |   0.0 |  1.08
Other   |            | 0.3971     |            |       |  0.28

Nlocal:    19652 ave 19652 max 19652 min
Histogram: 1 0 0 0 0 0 0 0 0 0
Nghost:    14809 ave 14809 max 14809 min
Histogram: 1 0 0 0 0 0 0 0 0 0
Neighs:    1.06896e+06 ave 1.06896e+06 max 1.06896e+06 min
Histogram: 1 0 0 0 0 0 0 0 0 0

Total # of neighbors = 1068958
Ave neighs/atom = 54.3944
Neighbor list builds = 1000
Dangerous builds not checked
Setting up Verlet run ...
  Unit style    : metal
  Current step  : 2000
  Time step     : 0.001
Per MPI rank memory allocation (min/avg/max) = 18.19 | 18.19 | 18.19 Mbytes
Step Temp Press TotEng PotEng Enthalpy Volume 
    2000    289.66383    4.9305682   -122935.03    -123670.8   -122933.61    461661.03 
    3000    454.13505   -20.204549   -121984.23   -123137.77   -121990.05    462028.01 
    4000    814.28173   -76.361409   -120203.86   -122272.21   -120225.99    464427.34 
    5000    1097.6888    1402.5552   -118586.13   -121374.36   -118178.12    466081.26 
    6000    1371.8355    1146.5165   -116956.68   -120441.27   -116620.89    469243.49 
    7000    1649.0809    934.97026   -115376.35   -119565.17   -115100.63     472489.3 
    8000    1909.0208    735.95783   -113567.07   -118416.16   -113348.26     476345.8 
    9000     2172.272    1722.8684   -111511.05   -117028.82   -110994.53    480330.78 
   10000     2372.301   -1479.5414   -108625.97   -114651.83    -109078.2    489712.41 
Loop time of 1032.97 on 1 procs for 8000 steps with 19652 atoms

Performance: 0.669 ns/day, 35.867 hours/ns, 7.745 timesteps/s
96.3% CPU use with 1 MPI tasks x no OpenMP threads

MPI task timing breakdown:
Section |  min time  |  avg time  |  max time  |%varavg| %total
---------------------------------------------------------------
Pair    | 554.97     | 554.97     | 554.97     |   0.0 | 53.73
Neigh   | 453.34     | 453.34     | 453.34     |   0.0 | 43.89
Comm    | 8.6645     | 8.6645     | 8.6645     |   0.0 |  0.84
Output  | 0.50522    | 0.50522    | 0.50522    |   0.0 |  0.05
Modify  | 12.34      | 12.34      | 12.34      |   0.0 |  1.19
Other   |            | 3.148      |            |       |  0.30

Nlocal:    19652 ave 19652 max 19652 min
Histogram: 1 0 0 0 0 0 0 0 0 0
Nghost:    15535 ave 15535 max 15535 min
Histogram: 1 0 0 0 0 0 0 0 0 0
Neighs:    1.00194e+06 ave 1.00194e+06 max 1.00194e+06 min
Histogram: 1 0 0 0 0 0 0 0 0 0

Total # of neighbors = 1001935
Ave neighs/atom = 50.9839
Neighbor list builds = 8000
Dangerous builds not checked
Setting up Verlet run ...
  Unit style    : metal
  Current step  : 10000
  Time step     : 0.001
Per MPI rank memory allocation (min/avg/max) = 18.19 | 18.19 | 18.19 Mbytes
Step Temp Press TotEng PotEng Enthalpy Volume 
   10000     2372.301   -1479.5414   -108625.97   -114651.83    -109078.2    489712.41 
   11000    2459.9411   -1060.0423   -106994.29   -113242.76   -107321.59    494689.11 
   12000    2431.7141   -451.16007   -107039.82    -113216.6   -107179.03       494375 
   13000    2444.6312   -11.297476   -107082.74   -113292.33   -107086.22    493331.99 
   14000     2463.556   -361.99757   -106921.23   -113178.88   -107032.92    494369.59 
   15000    2453.4388   -422.35853   -107001.39   -113233.35   -107131.72    494382.53 
   16000    2430.8774   -1046.6128   -107042.03   -113216.68      -107365    494423.02 
   17000    2443.0704    -1734.601   -107056.25   -113261.87   -107592.28    495114.62 
   18000    2449.4326   -34.601188   -107076.89   -113298.67   -107087.55    493932.36 
   19000    2465.2495    732.58168   -107005.65   -113267.61   -106780.06    493371.98 
   20000    2472.5959    2191.8298    -106872.2   -113152.82    -106198.3    492603.19 
   21000    2450.3328    629.98971   -106958.46   -113182.53   -106764.45    493391.36 
   22000    2471.2637    813.11625   -106942.73   -113219.96   -106692.42    493206.98 
   23000    2465.7808   -951.25363   -106975.58   -113238.89   -107269.23    494592.66 
   24000    2454.5564   -770.56411   -107006.27   -113241.07   -107244.05    494383.46 
   25000    2440.6017     -1170.85   -107009.23   -113208.58   -107370.87    494864.32 
   26000    2449.5295   -220.46854   -107065.23   -113287.26   -107133.17    493667.74 
   27000    2435.2869    80.830175   -107048.23   -113234.08   -107023.33    493569.62 
   28000    2426.7714    493.06554   -106993.52   -113157.74   -106841.68    493390.52 
   29000    2450.7017    207.76114   -106996.11   -113221.11   -106932.08    493759.12 
   30000    2455.5885   -367.10673   -107044.53   -113281.95   -107157.59    493417.67 
   31000    2465.4126  -0.66226481   -106914.85   -113177.22   -106915.05     493999.9 
   32000    2447.4771    715.04941   -107063.02   -113279.83   -106843.01    492968.44 
   33000    2450.4658    1147.8284   -107009.72   -113234.13   -106656.37    493221.57 
   34000    2458.6578    1139.5433   -106969.96   -113215.17   -106619.22     493133.4 
   35000    2469.3915    2269.4741   -107007.69   -113280.16   -106310.74    492022.82 
   36000    2459.4651    633.18993   -106958.57   -113205.84   -106763.58    493378.04 
   37000    2452.4855    517.49262   -106946.48   -113176.01    -106787.1    493440.93 
   38000    2449.4202      61.1653   -106946.73   -113168.48   -106927.88       493747 
   39000    2441.0691    483.36052   -106974.65   -113175.19    -106825.7    493738.49 
   40000    2432.6267    1269.3721   -107037.73   -113216.83   -106647.05    493107.62 
Loop time of 4051.14 on 1 procs for 30000 steps with 19652 atoms

Performance: 0.640 ns/day, 37.511 hours/ns, 7.405 timesteps/s
98.0% CPU use with 1 MPI tasks x no OpenMP threads

MPI task timing breakdown:
Section |  min time  |  avg time  |  max time  |%varavg| %total
---------------------------------------------------------------
Pair    | 2138.7     | 2138.7     | 2138.7     |   0.0 | 52.79
Neigh   | 1817.4     | 1817.4     | 1817.4     |   0.0 | 44.86
Comm    | 33.807     | 33.807     | 33.807     |   0.0 |  0.83
Output  | 3.481      | 3.481      | 3.481      |   0.0 |  0.09
Modify  | 45.938     | 45.938     | 45.938     |   0.0 |  1.13
Other   |            | 11.85      |            |       |  0.29

Nlocal:    19652 ave 19652 max 19652 min
Histogram: 1 0 0 0 0 0 0 0 0 0
Nghost:    15594 ave 15594 max 15594 min
Histogram: 1 0 0 0 0 0 0 0 0 0
Neighs:    996075 ave 996075 max 996075 min
Histogram: 1 0 0 0 0 0 0 0 0 0

Total # of neighbors = 996075
Ave neighs/atom = 50.6857
Neighbor list builds = 30000
Dangerous builds not checked
Setting up Verlet run ...
  Unit style    : metal
  Current step  : 40000
  Time step     : 0.001
Per MPI rank memory allocation (min/avg/max) = 18.19 | 18.19 | 18.19 Mbytes
Step Temp Press TotEng PotEng Enthalpy Volume 
   40000    2432.6267    1269.3721   -107037.73   -113216.83   -106647.05    493107.62 
   40495    2386.1791    749.74611   -107292.22   -113353.33   -107061.81    492382.73 
Loop time of 65.1022 on 1 procs for 495 steps with 19652 atoms

Performance: 0.657 ns/day, 36.533 hours/ns, 7.603 timesteps/s
99.9% CPU use with 1 MPI tasks x no OpenMP threads

MPI task timing breakdown:
Section |  min time  |  avg time  |  max time  |%varavg| %total
---------------------------------------------------------------
Pair    | 34.278     | 34.278     | 34.278     |   0.0 | 52.65
Neigh   | 29.294     | 29.294     | 29.294     |   0.0 | 45.00
Comm    | 0.56313    | 0.56313    | 0.56313    |   0.0 |  0.86
Output  | 0.00025916 | 0.00025916 | 0.00025916 |   0.0 |  0.00
Modify  | 0.76578    | 0.76578    | 0.76578    |   0.0 |  1.18
Other   |            | 0.2013     |            |       |  0.31

Nlocal:    19652 ave 19652 max 19652 min
Histogram: 1 0 0 0 0 0 0 0 0 0
Nghost:    15599 ave 15599 max 15599 min
Histogram: 1 0 0 0 0 0 0 0 0 0
Neighs:    997640 ave 997640 max 997640 min
Histogram: 1 0 0 0 0 0 0 0 0 0

Total # of neighbors = 997640
Ave neighs/atom = 50.7653
Neighbor list builds = 495
Dangerous builds not checked
Setting up Verlet run ...
  Unit style    : metal
  Current step  : 40495
  Time step     : 0.001
Per MPI rank memory allocation (min/avg/max) = 18.19 | 18.19 | 18.19 Mbytes
Step Temp Press TotEng PotEng Enthalpy Volume 
   40495    2386.1791    749.74611   -107292.22   -113353.33   -107061.81    492382.73 
   41000    2390.6515     1095.811   -107307.33    -113379.8   -106970.65     492256.4 
Loop time of 65.475 on 1 procs for 505 steps with 19652 atoms

Performance: 0.666 ns/day, 36.015 hours/ns, 7.713 timesteps/s
99.9% CPU use with 1 MPI tasks x no OpenMP threads

MPI task timing breakdown:
Section |  min time  |  avg time  |  max time  |%varavg| %total
---------------------------------------------------------------
Pair    | 34.568     | 34.568     | 34.568     |   0.0 | 52.80
Neigh   | 29.308     | 29.308     | 29.308     |   0.0 | 44.76
Comm    | 0.56492    | 0.56492    | 0.56492    |   0.0 |  0.86
Output  | 0.068435   | 0.068435   | 0.068435   |   0.0 |  0.10
Modify  | 0.76532    | 0.76532    | 0.76532    |   0.0 |  1.17
Other   |            | 0.2        |            |       |  0.31

Nlocal:    19652 ave 19652 max 19652 min
Histogram: 1 0 0 0 0 0 0 0 0 0
Nghost:    15566 ave 15566 max 15566 min
Histogram: 1 0 0 0 0 0 0 0 0 0
Neighs:    998181 ave 998181 max 998181 min
Histogram: 1 0 0 0 0 0 0 0 0 0

Total # of neighbors = 998181
Ave neighs/atom = 50.7928
Neighbor list builds = 505
Dangerous builds not checked
Setting up Verlet run ...
  Unit style    : metal
  Current step  : 41000
  Time step     : 0.001
Per MPI rank memory allocation (min/avg/max) = 18.19 | 18.19 | 18.19 Mbytes
Step Temp Press TotEng PotEng Enthalpy Volume 
   41000    2390.6515     1095.811   -107307.33    -113379.8   -106970.65     492256.4 
   41495     2374.689    597.77548   -107526.78   -113558.71   -107343.21    492016.43 
Loop time of 63.5245 on 1 procs for 495 steps with 19652 atoms

Performance: 0.673 ns/day, 35.648 hours/ns, 7.792 timesteps/s
99.9% CPU use with 1 MPI tasks x no OpenMP threads

MPI task timing breakdown:
Section |  min time  |  avg time  |  max time  |%varavg| %total
---------------------------------------------------------------
Pair    | 33.288     | 33.288     | 33.288     |   0.0 | 52.40
Neigh   | 28.722     | 28.722     | 28.722     |   0.0 | 45.21
Comm    | 0.56689    | 0.56689    | 0.56689    |   0.0 |  0.89
Output  | 0.00024819 | 0.00024819 | 0.00024819 |   0.0 |  0.00
Modify  | 0.74217    | 0.74217    | 0.74217    |   0.0 |  1.17
Other   |            | 0.2044     |            |       |  0.32

Nlocal:    19652 ave 19652 max 19652 min
Histogram: 1 0 0 0 0 0 0 0 0 0
Nghost:    15600 ave 15600 max 15600 min
Histogram: 1 0 0 0 0 0 0 0 0 0
Neighs:    998411 ave 998411 max 998411 min
Histogram: 1 0 0 0 0 0 0 0 0 0

Total # of neighbors = 998411
Ave neighs/atom = 50.8045
Neighbor list builds = 495
Dangerous builds not checked
Setting up Verlet run ...
  Unit style    : metal
  Current step  : 41495
  Time step     : 0.001
Per MPI rank memory allocation (min/avg/max) = 18.19 | 18.19 | 18.19 Mbytes
Step Temp Press TotEng PotEng Enthalpy Volume 
   41495     2374.689    597.77548   -107526.78   -113558.71   -107343.21    492016.43 
   42000     2319.184    283.70195    -107682.8   -113573.74   -107595.68     491977.4 
Loop time of 63.7294 on 1 procs for 505 steps with 19652 atoms

Performance: 0.685 ns/day, 35.055 hours/ns, 7.924 timesteps/s
99.9% CPU use with 1 MPI tasks x no OpenMP threads

MPI task timing breakdown:
Section |  min time  |  avg time  |  max time  |%varavg| %total
---------------------------------------------------------------
Pair    | 33.589     | 33.589     | 33.589     |   0.0 | 52.71
Neigh   | 28.6       | 28.6       | 28.6       |   0.0 | 44.88
Comm    | 0.54237    | 0.54237    | 0.54237    |   0.0 |  0.85
Output  | 0.06587    | 0.06587    | 0.06587    |   0.0 |  0.10
Modify  | 0.74023    | 0.74023    | 0.74023    |   0.0 |  1.16
Other   |            | 0.1916     |            |       |  0.30

Nlocal:    19652 ave 19652 max 19652 min
Histogram: 1 0 0 0 0 0 0 0 0 0
Nghost:    15648 ave 15648 max 15648 min
Histogram: 1 0 0 0 0 0 0 0 0 0
Neighs:    998823 ave 998823 max 998823 min
Histogram: 1 0 0 0 0 0 0 0 0 0

Total # of neighbors = 998823
Ave neighs/atom = 50.8255
Neighbor list builds = 505
Dangerous builds not checked
Setting up Verlet run ...
  Unit style    : metal
  Current step  : 42000
  Time step     : 0.001
Per MPI rank memory allocation (min/avg/max) = 18.19 | 18.19 | 18.19 Mbytes
Step Temp Press TotEng PotEng Enthalpy Volume 
   42000     2319.184    283.70195    -107682.8   -113573.74   -107595.68     491977.4 
   42495    2341.4675   -77.614087   -107817.41   -113764.96   -107841.22    491480.13 
Loop time of 63.1952 on 1 procs for 495 steps with 19652 atoms

Performance: 0.677 ns/day, 35.463 hours/ns, 7.833 timesteps/s
99.9% CPU use with 1 MPI tasks x no OpenMP threads

MPI task timing breakdown:
Section |  min time  |  avg time  |  max time  |%varavg| %total
---------------------------------------------------------------
Pair    | 33.336     | 33.336     | 33.336     |   0.0 | 52.75
Neigh   | 28.385     | 28.385     | 28.385     |   0.0 | 44.92
Comm    | 0.54085    | 0.54085    | 0.54085    |   0.0 |  0.86
Output  | 0.00022101 | 0.00022101 | 0.00022101 |   0.0 |  0.00
Modify  | 0.74186    | 0.74186    | 0.74186    |   0.0 |  1.17
Other   |            | 0.1913     |            |       |  0.30

Nlocal:    19652 ave 19652 max 19652 min
Histogram: 1 0 0 0 0 0 0 0 0 0
Nghost:    15688 ave 15688 max 15688 min
Histogram: 1 0 0 0 0 0 0 0 0 0
Neighs:    1.00034e+06 ave 1.00034e+06 max 1.00034e+06 min
Histogram: 1 0 0 0 0 0 0 0 0 0

Total # of neighbors = 1000338
Ave neighs/atom = 50.9026
Neighbor list builds = 495
Dangerous builds not checked
Setting up Verlet run ...
  Unit style    : metal
  Current step  : 42495
  Time step     : 0.001
Per MPI rank memory allocation (min/avg/max) = 18.19 | 18.19 | 18.19 Mbytes
Step Temp Press TotEng PotEng Enthalpy Volume 
   42495    2341.4675   -77.614087   -107817.41   -113764.96   -107841.22    491480.13 
   43000    2281.7854    326.90447   -107997.45   -113793.39   -107897.24    491126.41 
Loop time of 63.0152 on 1 procs for 505 steps with 19652 atoms

Performance: 0.692 ns/day, 34.662 hours/ns, 8.014 timesteps/s
99.9% CPU use with 1 MPI tasks x no OpenMP threads

MPI task timing breakdown:
Section |  min time  |  avg time  |  max time  |%varavg| %total
---------------------------------------------------------------
Pair    | 33.039     | 33.039     | 33.039     |   0.0 | 52.43
Neigh   | 28.459     | 28.459     | 28.459     |   0.0 | 45.16
Comm    | 0.53566    | 0.53566    | 0.53566    |   0.0 |  0.85
Output  | 0.062165   | 0.062165   | 0.062165   |   0.0 |  0.10
Modify  | 0.72843    | 0.72843    | 0.72843    |   0.0 |  1.16
Other   |            | 0.1914     |            |       |  0.30

Nlocal:    19652 ave 19652 max 19652 min
Histogram: 1 0 0 0 0 0 0 0 0 0
Nghost:    15626 ave 15626 max 15626 min
Histogram: 1 0 0 0 0 0 0 0 0 0
Neighs:    1.00081e+06 ave 1.00081e+06 max 1.00081e+06 min
Histogram: 1 0 0 0 0 0 0 0 0 0

Total # of neighbors = 1000812
Ave neighs/atom = 50.9267
Neighbor list builds = 505
Dangerous builds not checked
Setting up Verlet run ...
  Unit style    : metal
  Current step  : 43000
  Time step     : 0.001
Per MPI rank memory allocation (min/avg/max) = 18.19 | 18.19 | 18.19 Mbytes
Step Temp Press TotEng PotEng Enthalpy Volume 
   43000    2281.7854    326.90447   -107997.45   -113793.39   -107897.24    491126.41 
   43495    2258.3623    413.26606   -108242.95    -113979.4   -108116.51       490196 
Loop time of 60.3737 on 1 procs for 495 steps with 19652 atoms

Performance: 0.708 ns/day, 33.880 hours/ns, 8.199 timesteps/s
100.0% CPU use with 1 MPI tasks x no OpenMP threads

MPI task timing breakdown:
Section |  min time  |  avg time  |  max time  |%varavg| %total
---------------------------------------------------------------
Pair    | 31.475     | 31.475     | 31.475     |   0.0 | 52.13
Neigh   | 27.496     | 27.496     | 27.496     |   0.0 | 45.54
Comm    | 0.51839    | 0.51839    | 0.51839    |   0.0 |  0.86
Output  | 0.00021696 | 0.00021696 | 0.00021696 |   0.0 |  0.00
Modify  | 0.70307    | 0.70307    | 0.70307    |   0.0 |  1.16
Other   |            | 0.1817     |            |       |  0.30

Nlocal:    19652 ave 19652 max 19652 min
Histogram: 1 0 0 0 0 0 0 0 0 0
Nghost:    15643 ave 15643 max 15643 min
Histogram: 1 0 0 0 0 0 0 0 0 0
Neighs:    1.00301e+06 ave 1.00301e+06 max 1.00301e+06 min
Histogram: 1 0 0 0 0 0 0 0 0 0

Total # of neighbors = 1003014
Ave neighs/atom = 51.0388
Neighbor list builds = 495
Dangerous builds not checked
Setting up Verlet run ...
  Unit style    : metal
  Current step  : 43495
  Time step     : 0.001
Per MPI rank memory allocation (min/avg/max) = 18.19 | 18.19 | 18.19 Mbytes
Step Temp Press TotEng PotEng Enthalpy Volume 
   43495    2258.3623    413.26606   -108242.95    -113979.4   -108116.51       490196 
   44000    2256.4291    1131.8335   -108217.77   -113949.31   -107871.84    489679.64 
Loop time of 61.5767 on 1 procs for 505 steps with 19652 atoms

Performance: 0.709 ns/day, 33.871 hours/ns, 8.201 timesteps/s
99.9% CPU use with 1 MPI tasks x no OpenMP threads

MPI task timing breakdown:
Section |  min time  |  avg time  |  max time  |%varavg| %total
---------------------------------------------------------------
Pair    | 32.173     | 32.173     | 32.173     |   0.0 | 52.25
Neigh   | 27.929     | 27.929     | 27.929     |   0.0 | 45.36
Comm    | 0.51845    | 0.51845    | 0.51845    |   0.0 |  0.84
Output  | 0.063205   | 0.063205   | 0.063205   |   0.0 |  0.10
Modify  | 0.70949    | 0.70949    | 0.70949    |   0.0 |  1.15
Other   |            | 0.1829     |            |       |  0.30

Nlocal:    19652 ave 19652 max 19652 min
Histogram: 1 0 0 0 0 0 0 0 0 0
Nghost:    15682 ave 15682 max 15682 min
Histogram: 1 0 0 0 0 0 0 0 0 0
Neighs:    1.0037e+06 ave 1.0037e+06 max 1.0037e+06 min
Histogram: 1 0 0 0 0 0 0 0 0 0

Total # of neighbors = 1003700
Ave neighs/atom = 51.0737
Neighbor list builds = 505
Dangerous builds not checked
Setting up Verlet run ...
  Unit style    : metal
  Current step  : 44000
  Time step     : 0.001
Per MPI rank memory allocation (min/avg/max) = 18.19 | 18.19 | 18.19 Mbytes
Step Temp Press TotEng PotEng Enthalpy Volume 
   44000    2256.4291    1131.8335   -108217.77   -113949.31   -107871.84    489679.64 
   44495    2221.8138    1022.6666   -108559.81   -114203.41   -108247.83    488758.21 
Loop time of 62.1658 on 1 procs for 495 steps with 19652 atoms

Performance: 0.688 ns/day, 34.885 hours/ns, 7.963 timesteps/s
99.9% CPU use with 1 MPI tasks x no OpenMP threads

MPI task timing breakdown:
Section |  min time  |  avg time  |  max time  |%varavg| %total
---------------------------------------------------------------
Pair    | 32.754     | 32.754     | 32.754     |   0.0 | 52.69
Neigh   | 27.991     | 27.991     | 27.991     |   0.0 | 45.03
Comm    | 0.52183    | 0.52183    | 0.52183    |   0.0 |  0.84
Output  | 0.00032616 | 0.00032616 | 0.00032616 |   0.0 |  0.00
Modify  | 0.71419    | 0.71419    | 0.71419    |   0.0 |  1.15
Other   |            | 0.184      |            |       |  0.30

Nlocal:    19652 ave 19652 max 19652 min
Histogram: 1 0 0 0 0 0 0 0 0 0
Nghost:    15675 ave 15675 max 15675 min
Histogram: 1 0 0 0 0 0 0 0 0 0
Neighs:    1.00564e+06 ave 1.00564e+06 max 1.00564e+06 min
Histogram: 1 0 0 0 0 0 0 0 0 0

Total # of neighbors = 1005638
Ave neighs/atom = 51.1723
Neighbor list builds = 495
Dangerous builds not checked
Setting up Verlet run ...
  Unit style    : metal
  Current step  : 44495
  Time step     : 0.001
Per MPI rank memory allocation (min/avg/max) = 18.19 | 18.19 | 18.19 Mbytes
Step Temp Press TotEng PotEng Enthalpy Volume 
   44495    2221.8138    1022.6666   -108559.81   -114203.41   -108247.83    488758.21 
   45000    2193.7765     228.0402   -108634.83   -114207.22    -108565.2    489251.94 
Loop time of 63.7054 on 1 procs for 505 steps with 19652 atoms

Performance: 0.685 ns/day, 35.041 hours/ns, 7.927 timesteps/s
99.9% CPU use with 1 MPI tasks x no OpenMP threads

MPI task timing breakdown:
Section |  min time  |  avg time  |  max time  |%varavg| %total
---------------------------------------------------------------
Pair    | 33.575     | 33.575     | 33.575     |   0.0 | 52.70
Neigh   | 28.595     | 28.595     | 28.595     |   0.0 | 44.89
Comm    | 0.54845    | 0.54845    | 0.54845    |   0.0 |  0.86
Output  | 0.060585   | 0.060585   | 0.060585   |   0.0 |  0.10
Modify  | 0.73468    | 0.73468    | 0.73468    |   0.0 |  1.15
Other   |            | 0.1917     |            |       |  0.30

Nlocal:    19652 ave 19652 max 19652 min
Histogram: 1 0 0 0 0 0 0 0 0 0
Nghost:    15663 ave 15663 max 15663 min
Histogram: 1 0 0 0 0 0 0 0 0 0
Neighs:    1.00486e+06 ave 1.00486e+06 max 1.00486e+06 min
Histogram: 1 0 0 0 0 0 0 0 0 0

Total # of neighbors = 1004862
Ave neighs/atom = 51.1328
Neighbor list builds = 505
Dangerous builds not checked
Setting up Verlet run ...
  Unit style    : metal
  Current step  : 45000
  Time step     : 0.001
Per MPI rank memory allocation (min/avg/max) = 18.19 | 18.19 | 18.19 Mbytes
Step Temp Press TotEng PotEng Enthalpy Volume 
   45000    2193.7765     228.0402   -108634.83   -114207.22    -108565.2    489251.94 
   45495    2173.5988   -443.58599   -108881.32   -114402.46    -109016.7    488957.27 
Loop time of 59.6516 on 1 procs for 495 steps with 19652 atoms

Performance: 0.717 ns/day, 33.475 hours/ns, 8.298 timesteps/s
100.0% CPU use with 1 MPI tasks x no OpenMP threads

MPI task timing breakdown:
Section |  min time  |  avg time  |  max time  |%varavg| %total
---------------------------------------------------------------
Pair    | 30.987     | 30.987     | 30.987     |   0.0 | 51.95
Neigh   | 27.286     | 27.286     | 27.286     |   0.0 | 45.74
Comm    | 0.50576    | 0.50576    | 0.50576    |   0.0 |  0.85
Output  | 0.00021791 | 0.00021791 | 0.00021791 |   0.0 |  0.00
Modify  | 0.69332    | 0.69332    | 0.69332    |   0.0 |  1.16
Other   |            | 0.1791     |            |       |  0.30

Nlocal:    19652 ave 19652 max 19652 min
Histogram: 1 0 0 0 0 0 0 0 0 0
Nghost:    15722 ave 15722 max 15722 min
Histogram: 1 0 0 0 0 0 0 0 0 0
Neighs:    1.00584e+06 ave 1.00584e+06 max 1.00584e+06 min
Histogram: 1 0 0 0 0 0 0 0 0 0

Total # of neighbors = 1005840
Ave neighs/atom = 51.1826
Neighbor list builds = 495
Dangerous builds not checked
Setting up Verlet run ...
  Unit style    : metal
  Current step  : 45495
  Time step     : 0.001
Per MPI rank memory allocation (min/avg/max) = 18.19 | 18.19 | 18.19 Mbytes
Step Temp Press TotEng PotEng Enthalpy Volume 
   45495    2173.5988   -443.58599   -108881.32   -114402.46    -109016.7    488957.27 
   46000    2156.5269    197.13282   -108995.44   -114473.21   -108935.36    488302.45 
Loop time of 64.7093 on 1 procs for 505 steps with 19652 atoms

Performance: 0.674 ns/day, 35.594 hours/ns, 7.804 timesteps/s
99.9% CPU use with 1 MPI tasks x no OpenMP threads

MPI task timing breakdown:
Section |  min time  |  avg time  |  max time  |%varavg| %total
---------------------------------------------------------------
Pair    | 34.124     | 34.124     | 34.124     |   0.0 | 52.73
Neigh   | 29.023     | 29.023     | 29.023     |   0.0 | 44.85
Comm    | 0.55402    | 0.55402    | 0.55402    |   0.0 |  0.86
Output  | 0.066542   | 0.066542   | 0.066542   |   0.0 |  0.10
Modify  | 0.74796    | 0.74796    | 0.74796    |   0.0 |  1.16
Other   |            | 0.1941     |            |       |  0.30

Nlocal:    19652 ave 19652 max 19652 min
Histogram: 1 0 0 0 0 0 0 0 0 0
Nghost:    15622 ave 15622 max 15622 min
Histogram: 1 0 0 0 0 0 0 0 0 0
Neighs:    1.00724e+06 ave 1.00724e+06 max 1.00724e+06 min
Histogram: 1 0 0 0 0 0 0 0 0 0

Total # of neighbors = 1007243
Ave neighs/atom = 51.254
Neighbor list builds = 505
Dangerous builds not checked
Setting up Verlet run ...
  Unit style    : metal
  Current step  : 46000
  Time step     : 0.001
Per MPI rank memory allocation (min/avg/max) = 18.19 | 18.19 | 18.19 Mbytes
Step Temp Press TotEng PotEng Enthalpy Volume 
   46000    2156.5269    197.13282   -108995.44   -114473.21   -108935.36    488302.45 
   46495    2109.4764    604.10468    -109248.3   -114606.56   -109064.54    487345.04 
Loop time of 64.0846 on 1 procs for 495 steps with 19652 atoms

Performance: 0.667 ns/day, 35.962 hours/ns, 7.724 timesteps/s
99.9% CPU use with 1 MPI tasks x no OpenMP threads

MPI task timing breakdown:
Section |  min time  |  avg time  |  max time  |%varavg| %total
---------------------------------------------------------------
Pair    | 33.961     | 33.961     | 33.961     |   0.0 | 52.99
Neigh   | 28.641     | 28.641     | 28.641     |   0.0 | 44.69
Comm    | 0.55185    | 0.55185    | 0.55185    |   0.0 |  0.86
Output  | 0.00022984 | 0.00022984 | 0.00022984 |   0.0 |  0.00
Modify  | 0.73513    | 0.73513    | 0.73513    |   0.0 |  1.15
Other   |            | 0.1951     |            |       |  0.30

Nlocal:    19652 ave 19652 max 19652 min
Histogram: 1 0 0 0 0 0 0 0 0 0
Nghost:    15636 ave 15636 max 15636 min
Histogram: 1 0 0 0 0 0 0 0 0 0
Neighs:    1.00886e+06 ave 1.00886e+06 max 1.00886e+06 min
Histogram: 1 0 0 0 0 0 0 0 0 0

Total # of neighbors = 1008865
Ave neighs/atom = 51.3365
Neighbor list builds = 495
Dangerous builds not checked
Setting up Verlet run ...
  Unit style    : metal
  Current step  : 46495
  Time step     : 0.001
Per MPI rank memory allocation (min/avg/max) = 18.19 | 18.19 | 18.19 Mbytes
Step Temp Press TotEng PotEng Enthalpy Volume 
   46495    2109.4764    604.10468    -109248.3   -114606.56   -109064.54    487345.04 
   47000    2095.5694    1117.7727   -109304.26    -114627.2   -108964.47    487041.61 
Loop time of 60.8157 on 1 procs for 505 steps with 19652 atoms

Performance: 0.717 ns/day, 33.452 hours/ns, 8.304 timesteps/s
99.9% CPU use with 1 MPI tasks x no OpenMP threads

MPI task timing breakdown:
Section |  min time  |  avg time  |  max time  |%varavg| %total
---------------------------------------------------------------
Pair    | 31.633     | 31.633     | 31.633     |   0.0 | 52.01
Neigh   | 27.706     | 27.706     | 27.706     |   0.0 | 45.56
Comm    | 0.52711    | 0.52711    | 0.52711    |   0.0 |  0.87
Output  | 0.05101    | 0.05101    | 0.05101    |   0.0 |  0.08
Modify  | 0.71395    | 0.71395    | 0.71395    |   0.0 |  1.17
Other   |            | 0.184      |            |       |  0.30

Nlocal:    19652 ave 19652 max 19652 min
Histogram: 1 0 0 0 0 0 0 0 0 0
Nghost:    15711 ave 15711 max 15711 min
Histogram: 1 0 0 0 0 0 0 0 0 0
Neighs:    1.01011e+06 ave 1.01011e+06 max 1.01011e+06 min
Histogram: 1 0 0 0 0 0 0 0 0 0

Total # of neighbors = 1010113
Ave neighs/atom = 51.4
Neighbor list builds = 505
Dangerous builds not checked
Setting up Verlet run ...
  Unit style    : metal
  Current step  : 47000
  Time step     : 0.001
Per MPI rank memory allocation (min/avg/max) = 18.19 | 18.19 | 18.19 Mbytes
Step Temp Press TotEng PotEng Enthalpy Volume 
   47000    2095.5694    1117.7727   -109304.26    -114627.2   -108964.47    487041.61 
   47495    2063.9698    1460.3382   -109498.92   -114741.59   -109055.69    486281.25 
Loop time of 62.3693 on 1 procs for 495 steps with 19652 atoms

Performance: 0.686 ns/day, 35.000 hours/ns, 7.937 timesteps/s
99.9% CPU use with 1 MPI tasks x no OpenMP threads

MPI task timing breakdown:
Section |  min time  |  avg time  |  max time  |%varavg| %total
---------------------------------------------------------------
Pair    | 32.809     | 32.809     | 32.809     |   0.0 | 52.60
Neigh   | 28.128     | 28.128     | 28.128     |   0.0 | 45.10
Comm    | 0.52735    | 0.52735    | 0.52735    |   0.0 |  0.85
Output  | 0.00021005 | 0.00021005 | 0.00021005 |   0.0 |  0.00
Modify  | 0.71943    | 0.71943    | 0.71943    |   0.0 |  1.15
Other   |            | 0.1852     |            |       |  0.30

Nlocal:    19652 ave 19652 max 19652 min
Histogram: 1 0 0 0 0 0 0 0 0 0
Nghost:    15776 ave 15776 max 15776 min
Histogram: 1 0 0 0 0 0 0 0 0 0
Neighs:    1.01188e+06 ave 1.01188e+06 max 1.01188e+06 min
Histogram: 1 0 0 0 0 0 0 0 0 0

Total # of neighbors = 1011876
Ave neighs/atom = 51.4897
Neighbor list builds = 495
Dangerous builds not checked
Setting up Verlet run ...
  Unit style    : metal
  Current step  : 47495
  Time step     : 0.001
Per MPI rank memory allocation (min/avg/max) = 18.19 | 18.19 | 18.19 Mbytes
Step Temp Press TotEng PotEng Enthalpy Volume 
   47495    2063.9698    1460.3382   -109498.92   -114741.59   -109055.69    486281.25 
   48000    2052.6368    914.43189   -109669.29   -114883.18   -109391.85    486111.45 
Loop time of 63.4919 on 1 procs for 505 steps with 19652 atoms

Performance: 0.687 ns/day, 34.924 hours/ns, 7.954 timesteps/s
99.9% CPU use with 1 MPI tasks x no OpenMP threads

MPI task timing breakdown:
Section |  min time  |  avg time  |  max time  |%varavg| %total
---------------------------------------------------------------
Pair    | 33.376     | 33.376     | 33.376     |   0.0 | 52.57
Neigh   | 28.575     | 28.575     | 28.575     |   0.0 | 45.01
Comm    | 0.54448    | 0.54448    | 0.54448    |   0.0 |  0.86
Output  | 0.063353   | 0.063353   | 0.063353   |   0.0 |  0.10
Modify  | 0.74326    | 0.74326    | 0.74326    |   0.0 |  1.17
Other   |            | 0.1901     |            |       |  0.30

Nlocal:    19652 ave 19652 max 19652 min
Histogram: 1 0 0 0 0 0 0 0 0 0
Nghost:    15697 ave 15697 max 15697 min
Histogram: 1 0 0 0 0 0 0 0 0 0
Neighs:    1.0129e+06 ave 1.0129e+06 max 1.0129e+06 min
Histogram: 1 0 0 0 0 0 0 0 0 0

Total # of neighbors = 1012897
Ave neighs/atom = 51.5417
Neighbor list builds = 505
Dangerous builds not checked
Setting up Verlet run ...
  Unit style    : metal
  Current step  : 48000
  Time step     : 0.001
Per MPI rank memory allocation (min/avg/max) = 18.19 | 18.19 | 18.19 Mbytes
Step Temp Press TotEng PotEng Enthalpy Volume 
   48000    2052.6368    914.43189   -109669.29   -114883.18   -109391.85    486111.45 
   48495    2006.5299    1290.7491   -109886.58   -114983.34   -109495.53    485402.38 
Loop time of 60.7403 on 1 procs for 495 steps with 19652 atoms

Performance: 0.704 ns/day, 34.085 hours/ns, 8.149 timesteps/s
99.9% CPU use with 1 MPI tasks x no OpenMP threads

MPI task timing breakdown:
Section |  min time  |  avg time  |  max time  |%varavg| %total
---------------------------------------------------------------
Pair    | 31.811     | 31.811     | 31.811     |   0.0 | 52.37
Neigh   | 27.523     | 27.523     | 27.523     |   0.0 | 45.31
Comm    | 0.51924    | 0.51924    | 0.51924    |   0.0 |  0.85
Output  | 0.00023699 | 0.00023699 | 0.00023699 |   0.0 |  0.00
Modify  | 0.70469    | 0.70469    | 0.70469    |   0.0 |  1.16
Other   |            | 0.1816     |            |       |  0.30

Nlocal:    19652 ave 19652 max 19652 min
Histogram: 1 0 0 0 0 0 0 0 0 0
Nghost:    15680 ave 15680 max 15680 min
Histogram: 1 0 0 0 0 0 0 0 0 0
Neighs:    1.01444e+06 ave 1.01444e+06 max 1.01444e+06 min
Histogram: 1 0 0 0 0 0 0 0 0 0

Total # of neighbors = 1014440
Ave neighs/atom = 51.6202
Neighbor list builds = 495
Dangerous builds not checked
Setting up Verlet run ...
  Unit style    : metal
  Current step  : 48495
  Time step     : 0.001
Per MPI rank memory allocation (min/avg/max) = 18.19 | 18.19 | 18.19 Mbytes
Step Temp Press TotEng PotEng Enthalpy Volume 
   48495    2006.5299    1290.7491   -109886.58   -114983.34   -109495.53    485402.38 
   49000    2025.2819    76.479287    -109858.4    -115002.8   -109835.19    486110.66 
Loop time of 65.4896 on 1 procs for 505 steps with 19652 atoms

Performance: 0.666 ns/day, 36.023 hours/ns, 7.711 timesteps/s
99.9% CPU use with 1 MPI tasks x no OpenMP threads

MPI task timing breakdown:
Section |  min time  |  avg time  |  max time  |%varavg| %total
---------------------------------------------------------------
Pair    | 34.62      | 34.62      | 34.62      |   0.0 | 52.86
Neigh   | 29.287     | 29.287     | 29.287     |   0.0 | 44.72
Comm    | 0.55888    | 0.55888    | 0.55888    |   0.0 |  0.85
Output  | 0.064834   | 0.064834   | 0.064834   |   0.0 |  0.10
Modify  | 0.76117    | 0.76117    | 0.76117    |   0.0 |  1.16
Other   |            | 0.1976     |            |       |  0.30

Nlocal:    19652 ave 19652 max 19652 min
Histogram: 1 0 0 0 0 0 0 0 0 0
Nghost:    15734 ave 15734 max 15734 min
Histogram: 1 0 0 0 0 0 0 0 0 0
Neighs:    1.0129e+06 ave 1.0129e+06 max 1.0129e+06 min
Histogram: 1 0 0 0 0 0 0 0 0 0

Total # of neighbors = 1012904
Ave neighs/atom = 51.542
Neighbor list builds = 505
Dangerous builds not checked
Setting up Verlet run ...
  Unit style    : metal
  Current step  : 49000
  Time step     : 0.001
Per MPI rank memory allocation (min/avg/max) = 18.19 | 18.19 | 18.19 Mbytes
Step Temp Press TotEng PotEng Enthalpy Volume 
   49000    2025.2819    76.479287    -109858.4    -115002.8   -109835.19    486110.66 
   49495    1967.6085    42.406739   -110165.75   -115163.66    -110152.9    485520.57 
Loop time of 62.3422 on 1 procs for 495 steps with 19652 atoms

Performance: 0.686 ns/day, 34.984 hours/ns, 7.940 timesteps/s
99.9% CPU use with 1 MPI tasks x no OpenMP threads

MPI task timing breakdown:
Section |  min time  |  avg time  |  max time  |%varavg| %total
---------------------------------------------------------------
Pair    | 32.858     | 32.858     | 32.858     |   0.0 | 52.71
Neigh   | 28.042     | 28.042     | 28.042     |   0.0 | 44.98
Comm    | 0.53242    | 0.53242    | 0.53242    |   0.0 |  0.85
Output  | 0.00020409 | 0.00020409 | 0.00020409 |   0.0 |  0.00
Modify  | 0.72095    | 0.72095    | 0.72095    |   0.0 |  1.16
Other   |            | 0.1881     |            |       |  0.30

Nlocal:    19652 ave 19652 max 19652 min
Histogram: 1 0 0 0 0 0 0 0 0 0
Nghost:    15769 ave 15769 max 15769 min
Histogram: 1 0 0 0 0 0 0 0 0 0
Neighs:    1.01409e+06 ave 1.01409e+06 max 1.01409e+06 min
Histogram: 1 0 0 0 0 0 0 0 0 0

Total # of neighbors = 1014086
Ave neighs/atom = 51.6022
Neighbor list builds = 495
Dangerous builds not checked
Setting up Verlet run ...
  Unit style    : metal
  Current step  : 49495
  Time step     : 0.001
Per MPI rank memory allocation (min/avg/max) = 18.19 | 18.19 | 18.19 Mbytes
Step Temp Press TotEng PotEng Enthalpy Volume 
   49495    1967.6085    42.406739   -110165.75   -115163.66    -110152.9    485520.57 
   50000    1949.2289    318.20663    -110296.1   -115247.32   -110199.75    485090.37 
Loop time of 64.4969 on 1 procs for 505 steps with 19652 atoms

Performance: 0.676 ns/day, 35.477 hours/ns, 7.830 timesteps/s
98.7% CPU use with 1 MPI tasks x no OpenMP threads

MPI task timing breakdown:
Section |  min time  |  avg time  |  max time  |%varavg| %total
---------------------------------------------------------------
Pair    | 33.557     | 33.557     | 33.557     |   0.0 | 52.03
Neigh   | 28.646     | 28.646     | 28.646     |   0.0 | 44.41
Comm    | 0.54979    | 0.54979    | 0.54979    |   0.0 |  0.85
Output  | 0.80501    | 0.80501    | 0.80501    |   0.0 |  1.25
Modify  | 0.74328    | 0.74328    | 0.74328    |   0.0 |  1.15
Other   |            | 0.1956     |            |       |  0.30

Nlocal:    19652 ave 19652 max 19652 min
Histogram: 1 0 0 0 0 0 0 0 0 0
Nghost:    15697 ave 15697 max 15697 min
Histogram: 1 0 0 0 0 0 0 0 0 0
Neighs:    1.01474e+06 ave 1.01474e+06 max 1.01474e+06 min
Histogram: 1 0 0 0 0 0 0 0 0 0

Total # of neighbors = 1014736
Ave neighs/atom = 51.6353
Neighbor list builds = 505
Dangerous builds not checked
Setting up Verlet run ...
  Unit style    : metal
  Current step  : 50000
  Time step     : 0.001
Per MPI rank memory allocation (min/avg/max) = 18.19 | 18.19 | 18.19 Mbytes
Step Temp Press TotEng PotEng Enthalpy Volume 
   50000    1949.2289    318.20663    -110296.1   -115247.32   -110199.75    485090.37 
   50495    1891.6987    650.99961   -110529.47   -115334.56   -110332.71    484265.22 
Loop time of 62.5703 on 1 procs for 495 steps with 19652 atoms

Performance: 0.684 ns/day, 35.112 hours/ns, 7.911 timesteps/s
99.9% CPU use with 1 MPI tasks x no OpenMP threads

MPI task timing breakdown:
Section |  min time  |  avg time  |  max time  |%varavg| %total
---------------------------------------------------------------
Pair    | 33.066     | 33.066     | 33.066     |   0.0 | 52.85
Neigh   | 28.057     | 28.057     | 28.057     |   0.0 | 44.84
Comm    | 0.53032    | 0.53032    | 0.53032    |   0.0 |  0.85
Output  | 0.00025105 | 0.00025105 | 0.00025105 |   0.0 |  0.00
Modify  | 0.72961    | 0.72961    | 0.72961    |   0.0 |  1.17
Other   |            | 0.1866     |            |       |  0.30

Nlocal:    19652 ave 19652 max 19652 min
Histogram: 1 0 0 0 0 0 0 0 0 0
Nghost:    15715 ave 15715 max 15715 min
Histogram: 1 0 0 0 0 0 0 0 0 0
Neighs:    1.01694e+06 ave 1.01694e+06 max 1.01694e+06 min
Histogram: 1 0 0 0 0 0 0 0 0 0

Total # of neighbors = 1016944
Ave neighs/atom = 51.7476
Neighbor list builds = 495
Dangerous builds not checked
Setting up Verlet run ...
  Unit style    : metal
  Current step  : 50495
  Time step     : 0.001
Per MPI rank memory allocation (min/avg/max) = 18.19 | 18.19 | 18.19 Mbytes
Step Temp Press TotEng PotEng Enthalpy Volume 
   50495    1891.6987    650.99961   -110529.47   -115334.56   -110332.71    484265.22 
   51000    1903.1486    198.09249   -110659.26   -115493.43    -110599.4    484117.81 
Loop time of 62.6671 on 1 procs for 505 steps with 19652 atoms

Performance: 0.696 ns/day, 34.470 hours/ns, 8.058 timesteps/s
99.9% CPU use with 1 MPI tasks x no OpenMP threads

MPI task timing breakdown:
Section |  min time  |  avg time  |  max time  |%varavg| %total
---------------------------------------------------------------
Pair    | 32.67      | 32.67      | 32.67      |   0.0 | 52.13
Neigh   | 28.485     | 28.485     | 28.485     |   0.0 | 45.45
Comm    | 0.53433    | 0.53433    | 0.53433    |   0.0 |  0.85
Output  | 0.055489   | 0.055489   | 0.055489   |   0.0 |  0.09
Modify  | 0.72753    | 0.72753    | 0.72753    |   0.0 |  1.16
Other   |            | 0.1948     |            |       |  0.31

Nlocal:    19652 ave 19652 max 19652 min
Histogram: 1 0 0 0 0 0 0 0 0 0
Nghost:    15693 ave 15693 max 15693 min
Histogram: 1 0 0 0 0 0 0 0 0 0
Neighs:    1.01754e+06 ave 1.01754e+06 max 1.01754e+06 min
Histogram: 1 0 0 0 0 0 0 0 0 0

Total # of neighbors = 1017537
Ave neighs/atom = 51.7778
Neighbor list builds = 505
Dangerous builds not checked
Setting up Verlet run ...
  Unit style    : metal
  Current step  : 51000
  Time step     : 0.001
Per MPI rank memory allocation (min/avg/max) = 18.19 | 18.19 | 18.19 Mbytes
Step Temp Press TotEng PotEng Enthalpy Volume 
   51000    1903.1486    198.09249   -110659.26   -115493.43    -110599.4    484117.81 
   51495    1881.5068    103.44651   -110860.66   -115639.86   -110829.43    483739.03 
Loop time of 61.358 on 1 procs for 495 steps with 19652 atoms

Performance: 0.697 ns/day, 34.432 hours/ns, 8.067 timesteps/s
99.9% CPU use with 1 MPI tasks x no OpenMP threads

MPI task timing breakdown:
Section |  min time  |  avg time  |  max time  |%varavg| %total
---------------------------------------------------------------
Pair    | 32.353     | 32.353     | 32.353     |   0.0 | 52.73
Neigh   | 27.602     | 27.602     | 27.602     |   0.0 | 44.98
Comm    | 0.51371    | 0.51371    | 0.51371    |   0.0 |  0.84
Output  | 0.00017381 | 0.00017381 | 0.00017381 |   0.0 |  0.00
Modify  | 0.7059     | 0.7059     | 0.7059     |   0.0 |  1.15
Other   |            | 0.1831     |            |       |  0.30

Nlocal:    19652 ave 19652 max 19652 min
Histogram: 1 0 0 0 0 0 0 0 0 0
Nghost:    15783 ave 15783 max 15783 min
Histogram: 1 0 0 0 0 0 0 0 0 0
Neighs:    1.01828e+06 ave 1.01828e+06 max 1.01828e+06 min
Histogram: 1 0 0 0 0 0 0 0 0 0

Total # of neighbors = 1018278
Ave neighs/atom = 51.8155
Neighbor list builds = 495
Dangerous builds not checked
Setting up Verlet run ...
  Unit style    : metal
  Current step  : 51495
  Time step     : 0.001
Per MPI rank memory allocation (min/avg/max) = 18.19 | 18.19 | 18.19 Mbytes
Step Temp Press TotEng PotEng Enthalpy Volume 
   51495    1881.5068    103.44651   -110860.66   -115639.86   -110829.43    483739.03 
   52000    1847.7608    353.63882   -111024.98   -115718.46   -110918.31    483264.62 
Loop time of 62.904 on 1 procs for 505 steps with 19652 atoms

Performance: 0.694 ns/day, 34.601 hours/ns, 8.028 timesteps/s
99.9% CPU use with 1 MPI tasks x no OpenMP threads

MPI task timing breakdown:
Section |  min time  |  avg time  |  max time  |%varavg| %total
---------------------------------------------------------------
Pair    | 32.928     | 32.928     | 32.928     |   0.0 | 52.35
Neigh   | 28.456     | 28.456     | 28.456     |   0.0 | 45.24
Comm    | 0.52954    | 0.52954    | 0.52954    |   0.0 |  0.84
Output  | 0.066607   | 0.066607   | 0.066607   |   0.0 |  0.11
Modify  | 0.73033    | 0.73033    | 0.73033    |   0.0 |  1.16
Other   |            | 0.1932     |            |       |  0.31

Nlocal:    19652 ave 19652 max 19652 min
Histogram: 1 0 0 0 0 0 0 0 0 0
Nghost:    15736 ave 15736 max 15736 min
Histogram: 1 0 0 0 0 0 0 0 0 0
Neighs:    1.02031e+06 ave 1.02031e+06 max 1.02031e+06 min
Histogram: 1 0 0 0 0 0 0 0 0 0

Total # of neighbors = 1020307
Ave neighs/atom = 51.9187
Neighbor list builds = 505
Dangerous builds not checked
Setting up Verlet run ...
  Unit style    : metal
  Current step  : 52000
  Time step     : 0.001
Per MPI rank memory allocation (min/avg/max) = 18.19 | 18.19 | 18.19 Mbytes
Step Temp Press TotEng PotEng Enthalpy Volume 
   52000    1847.7608    353.63882   -111024.98   -115718.46   -110918.31    483264.62 
   52495    1816.8303    517.21615   -111213.01   -115827.93   -111057.18    482720.22 
Loop time of 61.7713 on 1 procs for 495 steps with 19652 atoms

Performance: 0.692 ns/day, 34.664 hours/ns, 8.013 timesteps/s
99.9% CPU use with 1 MPI tasks x no OpenMP threads

MPI task timing breakdown:
Section |  min time  |  avg time  |  max time  |%varavg| %total
---------------------------------------------------------------
Pair    | 32.42      | 32.42      | 32.42      |   0.0 | 52.48
Neigh   | 27.912     | 27.912     | 27.912     |   0.0 | 45.19
Comm    | 0.52871    | 0.52871    | 0.52871    |   0.0 |  0.86
Output  | 0.00025201 | 0.00025201 | 0.00025201 |   0.0 |  0.00
Modify  | 0.71877    | 0.71877    | 0.71877    |   0.0 |  1.16
Other   |            | 0.191      |            |       |  0.31

Nlocal:    19652 ave 19652 max 19652 min
Histogram: 1 0 0 0 0 0 0 0 0 0
Nghost:    15754 ave 15754 max 15754 min
Histogram: 1 0 0 0 0 0 0 0 0 0
Neighs:    1.02135e+06 ave 1.02135e+06 max 1.02135e+06 min
Histogram: 1 0 0 0 0 0 0 0 0 0

Total # of neighbors = 1021347
Ave neighs/atom = 51.9717
Neighbor list builds = 495
Dangerous builds not checked
Setting up Verlet run ...
  Unit style    : metal
  Current step  : 52495
  Time step     : 0.001
Per MPI rank memory allocation (min/avg/max) = 18.19 | 18.19 | 18.19 Mbytes
Step Temp Press TotEng PotEng Enthalpy Volume 
   52495    1816.8303    517.21615   -111213.01   -115827.93   -111057.18    482720.22 
   53000    1801.6259     581.8534   -111293.47   -115869.76   -111118.23    482514.03 
Loop time of 62.5658 on 1 procs for 505 steps with 19652 atoms

Performance: 0.697 ns/day, 34.415 hours/ns, 8.072 timesteps/s
99.9% CPU use with 1 MPI tasks x no OpenMP threads

MPI task timing breakdown:
Section |  min time  |  avg time  |  max time  |%varavg| %total
---------------------------------------------------------------
Pair    | 32.899     | 32.899     | 32.899     |   0.0 | 52.58
Neigh   | 28.173     | 28.173     | 28.173     |   0.0 | 45.03
Comm    | 0.52224    | 0.52224    | 0.52224    |   0.0 |  0.83
Output  | 0.063396   | 0.063396   | 0.063396   |   0.0 |  0.10
Modify  | 0.72002    | 0.72002    | 0.72002    |   0.0 |  1.15
Other   |            | 0.1875     |            |       |  0.30

Nlocal:    19652 ave 19652 max 19652 min
Histogram: 1 0 0 0 0 0 0 0 0 0
Nghost:    15740 ave 15740 max 15740 min
Histogram: 1 0 0 0 0 0 0 0 0 0
Neighs:    1.02172e+06 ave 1.02172e+06 max 1.02172e+06 min
Histogram: 1 0 0 0 0 0 0 0 0 0

Total # of neighbors = 1021720
Ave neighs/atom = 51.9906
Neighbor list builds = 505
Dangerous builds not checked
Setting up Verlet run ...
  Unit style    : metal
  Current step  : 53000
  Time step     : 0.001
Per MPI rank memory allocation (min/avg/max) = 18.19 | 18.19 | 18.19 Mbytes
Step Temp Press TotEng PotEng Enthalpy Volume 
   53000    1801.6259     581.8534   -111293.47   -115869.76   -111118.23    482514.03 
   53495    1760.8287    157.11126    -111495.5   -115968.17   -111448.23    482086.59 
Loop time of 60.8232 on 1 procs for 495 steps with 19652 atoms

Performance: 0.703 ns/day, 34.132 hours/ns, 8.138 timesteps/s
99.9% CPU use with 1 MPI tasks x no OpenMP threads

MPI task timing breakdown:
Section |  min time  |  avg time  |  max time  |%varavg| %total
---------------------------------------------------------------
Pair    | 31.653     | 31.653     | 31.653     |   0.0 | 52.04
Neigh   | 27.746     | 27.746     | 27.746     |   0.0 | 45.62
Comm    | 0.51839    | 0.51839    | 0.51839    |   0.0 |  0.85
Output  | 0.00023508 | 0.00023508 | 0.00023508 |   0.0 |  0.00
Modify  | 0.70881    | 0.70881    | 0.70881    |   0.0 |  1.17
Other   |            | 0.1975     |            |       |  0.32

Nlocal:    19652 ave 19652 max 19652 min
Histogram: 1 0 0 0 0 0 0 0 0 0
Nghost:    15723 ave 15723 max 15723 min
Histogram: 1 0 0 0 0 0 0 0 0 0
Neighs:    1.02242e+06 ave 1.02242e+06 max 1.02242e+06 min
Histogram: 1 0 0 0 0 0 0 0 0 0

Total # of neighbors = 1022419
Ave neighs/atom = 52.0262
Neighbor list builds = 495
Dangerous builds not checked
Setting up Verlet run ...
  Unit style    : metal
  Current step  : 53495
  Time step     : 0.001
Per MPI rank memory allocation (min/avg/max) = 18.19 | 18.19 | 18.19 Mbytes
Step Temp Press TotEng PotEng Enthalpy Volume 
   53495    1760.8287    157.11126    -111495.5   -115968.17   -111448.23    482086.59 
   54000    1758.5931    383.30588   -111637.39   -116104.38   -111522.13    481772.56 
Loop time of 61.8957 on 1 procs for 505 steps with 19652 atoms

Performance: 0.705 ns/day, 34.046 hours/ns, 8.159 timesteps/s
99.9% CPU use with 1 MPI tasks x no OpenMP threads

MPI task timing breakdown:
Section |  min time  |  avg time  |  max time  |%varavg| %total
---------------------------------------------------------------
Pair    | 32.503     | 32.503     | 32.503     |   0.0 | 52.51
Neigh   | 27.904     | 27.904     | 27.904     |   0.0 | 45.08
Comm    | 0.52205    | 0.52205    | 0.52205    |   0.0 |  0.84
Output  | 0.065593   | 0.065593   | 0.065593   |   0.0 |  0.11
Modify  | 0.71638    | 0.71638    | 0.71638    |   0.0 |  1.16
Other   |            | 0.185      |            |       |  0.30

Nlocal:    19652 ave 19652 max 19652 min
Histogram: 1 0 0 0 0 0 0 0 0 0
Nghost:    15730 ave 15730 max 15730 min
Histogram: 1 0 0 0 0 0 0 0 0 0
Neighs:    1.02394e+06 ave 1.02394e+06 max 1.02394e+06 min
Histogram: 1 0 0 0 0 0 0 0 0 0

Total # of neighbors = 1023936
Ave neighs/atom = 52.1034
Neighbor list builds = 505
Dangerous builds not checked
Setting up Verlet run ...
  Unit style    : metal
  Current step  : 54000
  Time step     : 0.001
Per MPI rank memory allocation (min/avg/max) = 18.19 | 18.19 | 18.19 Mbytes
Step Temp Press TotEng PotEng Enthalpy Volume 
   54000    1758.5931    383.30588   -111637.39   -116104.38   -111522.13    481772.56 
   54495    1717.4188    138.51417   -111905.88   -116268.28   -111864.27     481313.1 
Loop time of 61.3172 on 1 procs for 495 steps with 19652 atoms

Performance: 0.697 ns/day, 34.409 hours/ns, 8.073 timesteps/s
99.9% CPU use with 1 MPI tasks x no OpenMP threads

MPI task timing breakdown:
Section |  min time  |  avg time  |  max time  |%varavg| %total
---------------------------------------------------------------
Pair    | 32.157     | 32.157     | 32.157     |   0.0 | 52.44
Neigh   | 27.734     | 27.734     | 27.734     |   0.0 | 45.23
Comm    | 0.52116    | 0.52116    | 0.52116    |   0.0 |  0.85
Output  | 0.00020695 | 0.00020695 | 0.00020695 |   0.0 |  0.00
Modify  | 0.71226    | 0.71226    | 0.71226    |   0.0 |  1.16
Other   |            | 0.1919     |            |       |  0.31

Nlocal:    19652 ave 19652 max 19652 min
Histogram: 1 0 0 0 0 0 0 0 0 0
Nghost:    15799 ave 15799 max 15799 min
Histogram: 1 0 0 0 0 0 0 0 0 0
Neighs:    1.0255e+06 ave 1.0255e+06 max 1.0255e+06 min
Histogram: 1 0 0 0 0 0 0 0 0 0

Total # of neighbors = 1025499
Ave neighs/atom = 52.1829
Neighbor list builds = 495
Dangerous builds not checked
Setting up Verlet run ...
  Unit style    : metal
  Current step  : 54495
  Time step     : 0.001
Per MPI rank memory allocation (min/avg/max) = 18.19 | 18.19 | 18.19 Mbytes
Step Temp Press TotEng PotEng Enthalpy Volume 
   54495    1717.4188    138.51417   -111905.88   -116268.28   -111864.27     481313.1 
   55000    1693.5813   -495.49521   -112078.26   -116380.11   -112227.09    481261.67 
Loop time of 64.9658 on 1 procs for 505 steps with 19652 atoms

Performance: 0.672 ns/day, 35.735 hours/ns, 7.773 timesteps/s
99.9% CPU use with 1 MPI tasks x no OpenMP threads

MPI task timing breakdown:
Section |  min time  |  avg time  |  max time  |%varavg| %total
---------------------------------------------------------------
Pair    | 34.241     | 34.241     | 34.241     |   0.0 | 52.71
Neigh   | 29.136     | 29.136     | 29.136     |   0.0 | 44.85
Comm    | 0.56072    | 0.56072    | 0.56072    |   0.0 |  0.86
Output  | 0.067297   | 0.067297   | 0.067297   |   0.0 |  0.10
Modify  | 0.75759    | 0.75759    | 0.75759    |   0.0 |  1.17
Other   |            | 0.2036     |            |       |  0.31

Nlocal:    19652 ave 19652 max 19652 min
Histogram: 1 0 0 0 0 0 0 0 0 0
Nghost:    15783 ave 15783 max 15783 min
Histogram: 1 0 0 0 0 0 0 0 0 0
Neighs:    1.02584e+06 ave 1.02584e+06 max 1.02584e+06 min
Histogram: 1 0 0 0 0 0 0 0 0 0

Total # of neighbors = 1025837
Ave neighs/atom = 52.2001
Neighbor list builds = 505
Dangerous builds not checked
Setting up Verlet run ...
  Unit style    : metal
  Current step  : 55000
  Time step     : 0.001
Per MPI rank memory allocation (min/avg/max) = 18.19 | 18.19 | 18.19 Mbytes
Step Temp Press TotEng PotEng Enthalpy Volume 
   55000    1693.5813   -495.49521   -112078.26   -116380.11   -112227.09    481261.67 
   55495    1662.1808    346.33154   -112277.44   -116499.53   -112173.65    480142.43 
Loop time of 60.0469 on 1 procs for 495 steps with 19652 atoms

Performance: 0.712 ns/day, 33.696 hours/ns, 8.244 timesteps/s
99.9% CPU use with 1 MPI tasks x no OpenMP threads

MPI task timing breakdown:
Section |  min time  |  avg time  |  max time  |%varavg| %total
---------------------------------------------------------------
Pair    | 31.685     | 31.685     | 31.685     |   0.0 | 52.77
Neigh   | 26.971     | 26.971     | 26.971     |   0.0 | 44.92
Comm    | 0.51079    | 0.51079    | 0.51079    |   0.0 |  0.85
Output  | 0.00016689 | 0.00016689 | 0.00016689 |   0.0 |  0.00
Modify  | 0.69888    | 0.69888    | 0.69888    |   0.0 |  1.16
Other   |            | 0.1812     |            |       |  0.30

Nlocal:    19652 ave 19652 max 19652 min
Histogram: 1 0 0 0 0 0 0 0 0 0
Nghost:    15787 ave 15787 max 15787 min
Histogram: 1 0 0 0 0 0 0 0 0 0
Neighs:    1.02882e+06 ave 1.02882e+06 max 1.02882e+06 min
Histogram: 1 0 0 0 0 0 0 0 0 0

Total # of neighbors = 1028822
Ave neighs/atom = 52.352
Neighbor list builds = 495
Dangerous builds not checked
Setting up Verlet run ...
  Unit style    : metal
  Current step  : 55495
  Time step     : 0.001
Per MPI rank memory allocation (min/avg/max) = 18.19 | 18.19 | 18.19 Mbytes
Step Temp Press TotEng PotEng Enthalpy Volume 
   55495    1662.1808    346.33154   -112277.44   -116499.53   -112173.65    480142.43 
   56000    1636.8576   -374.07144   -112444.81   -116602.58   -112556.96    480331.81 
Loop time of 65.6726 on 1 procs for 505 steps with 19652 atoms

Performance: 0.664 ns/day, 36.124 hours/ns, 7.690 timesteps/s
99.8% CPU use with 1 MPI tasks x no OpenMP threads

MPI task timing breakdown:
Section |  min time  |  avg time  |  max time  |%varavg| %total
---------------------------------------------------------------
Pair    | 34.987     | 34.987     | 34.987     |   0.0 | 53.27
Neigh   | 29.094     | 29.094     | 29.094     |   0.0 | 44.30
Comm    | 0.56491    | 0.56491    | 0.56491    |   0.0 |  0.86
Output  | 0.06626    | 0.06626    | 0.06626    |   0.0 |  0.10
Modify  | 0.76226    | 0.76226    | 0.76226    |   0.0 |  1.16
Other   |            | 0.1976     |            |       |  0.30

Nlocal:    19652 ave 19652 max 19652 min
Histogram: 1 0 0 0 0 0 0 0 0 0
Nghost:    15703 ave 15703 max 15703 min
Histogram: 1 0 0 0 0 0 0 0 0 0
Neighs:    1.02821e+06 ave 1.02821e+06 max 1.02821e+06 min
Histogram: 1 0 0 0 0 0 0 0 0 0

Total # of neighbors = 1028210
Ave neighs/atom = 52.3209
Neighbor list builds = 505
Dangerous builds not checked
Setting up Verlet run ...
  Unit style    : metal
  Current step  : 56000
  Time step     : 0.001
Per MPI rank memory allocation (min/avg/max) = 18.19 | 18.19 | 18.19 Mbytes
Step Temp Press TotEng PotEng Enthalpy Volume 
   56000    1636.8576   -374.07144   -112444.81   -116602.58   -112556.96    480331.81 
   56495    1608.0101    24.101485   -112608.06   -116692.55   -112600.84     479680.8 
Loop time of 62.2738 on 1 procs for 495 steps with 19652 atoms

Performance: 0.687 ns/day, 34.946 hours/ns, 7.949 timesteps/s
99.9% CPU use with 1 MPI tasks x no OpenMP threads

MPI task timing breakdown:
Section |  min time  |  avg time  |  max time  |%varavg| %total
---------------------------------------------------------------
Pair    | 33.069     | 33.069     | 33.069     |   0.0 | 53.10
Neigh   | 27.768     | 27.768     | 27.768     |   0.0 | 44.59
Comm    | 0.52443    | 0.52443    | 0.52443    |   0.0 |  0.84
Output  | 0.00022388 | 0.00022388 | 0.00022388 |   0.0 |  0.00
Modify  | 0.72372    | 0.72372    | 0.72372    |   0.0 |  1.16
Other   |            | 0.1887     |            |       |  0.30

Nlocal:    19652 ave 19652 max 19652 min
Histogram: 1 0 0 0 0 0 0 0 0 0
Nghost:    15713 ave 15713 max 15713 min
Histogram: 1 0 0 0 0 0 0 0 0 0
Neighs:    1.02979e+06 ave 1.02979e+06 max 1.02979e+06 min
Histogram: 1 0 0 0 0 0 0 0 0 0

Total # of neighbors = 1029786
Ave neighs/atom = 52.4011
Neighbor list builds = 495
Dangerous builds not checked
Setting up Verlet run ...
  Unit style    : metal
  Current step  : 56495
  Time step     : 0.001
Per MPI rank memory allocation (min/avg/max) = 18.19 | 18.19 | 18.19 Mbytes
Step Temp Press TotEng PotEng Enthalpy Volume 
   56495    1608.0101    24.101485   -112608.06   -116692.55   -112600.84     479680.8 
   57000    1588.6901   -448.99962   -112775.16   -116810.58   -112909.54    479502.01 
Loop time of 64.3955 on 1 procs for 505 steps with 19652 atoms

Performance: 0.678 ns/day, 35.421 hours/ns, 7.842 timesteps/s
99.9% CPU use with 1 MPI tasks x no OpenMP threads

MPI task timing breakdown:
Section |  min time  |  avg time  |  max time  |%varavg| %total
---------------------------------------------------------------
Pair    | 34.037     | 34.037     | 34.037     |   0.0 | 52.86
Neigh   | 28.81      | 28.81      | 28.81      |   0.0 | 44.74
Comm    | 0.54295    | 0.54295    | 0.54295    |   0.0 |  0.84
Output  | 0.061479   | 0.061479   | 0.061479   |   0.0 |  0.10
Modify  | 0.7495     | 0.7495     | 0.7495     |   0.0 |  1.16
Other   |            | 0.1944     |            |       |  0.30

Nlocal:    19652 ave 19652 max 19652 min
Histogram: 1 0 0 0 0 0 0 0 0 0
Nghost:    15766 ave 15766 max 15766 min
Histogram: 1 0 0 0 0 0 0 0 0 0
Neighs:    1.03059e+06 ave 1.03059e+06 max 1.03059e+06 min
Histogram: 1 0 0 0 0 0 0 0 0 0

Total # of neighbors = 1030592
Ave neighs/atom = 52.4421
Neighbor list builds = 505
Dangerous builds not checked
Setting up Verlet run ...
  Unit style    : metal
  Current step  : 57000
  Time step     : 0.001
Per MPI rank memory allocation (min/avg/max) = 18.19 | 18.19 | 18.19 Mbytes
Step Temp Press TotEng PotEng Enthalpy Volume 
   57000    1588.6901   -448.99962   -112775.16   -116810.58   -112909.54    479502.01 
   57495    1551.6518     165.7383   -112979.51   -116920.85   -112929.97    478905.11 
Loop time of 59.8835 on 1 procs for 495 steps with 19652 atoms

Performance: 0.714 ns/day, 33.605 hours/ns, 8.266 timesteps/s
99.9% CPU use with 1 MPI tasks x no OpenMP threads

MPI task timing breakdown:
Section |  min time  |  avg time  |  max time  |%varavg| %total
---------------------------------------------------------------
Pair    | 31.383     | 31.383     | 31.383     |   0.0 | 52.41
Neigh   | 27.112     | 27.112     | 27.112     |   0.0 | 45.27
Comm    | 0.51099    | 0.51099    | 0.51099    |   0.0 |  0.85
Output  | 0.00023603 | 0.00023603 | 0.00023603 |   0.0 |  0.00
Modify  | 0.69687    | 0.69687    | 0.69687    |   0.0 |  1.16
Other   |            | 0.1806     |            |       |  0.30

Nlocal:    19652 ave 19652 max 19652 min
Histogram: 1 0 0 0 0 0 0 0 0 0
Nghost:    15755 ave 15755 max 15755 min
Histogram: 1 0 0 0 0 0 0 0 0 0
Neighs:    1.03239e+06 ave 1.03239e+06 max 1.03239e+06 min
Histogram: 1 0 0 0 0 0 0 0 0 0

Total # of neighbors = 1032389
Ave neighs/atom = 52.5335
Neighbor list builds = 495
Dangerous builds not checked
Setting up Verlet run ...
  Unit style    : metal
  Current step  : 57495
  Time step     : 0.001
Per MPI rank memory allocation (min/avg/max) = 18.19 | 18.19 | 18.19 Mbytes
Step Temp Press TotEng PotEng Enthalpy Volume 
   57495    1551.6518     165.7383   -112979.51   -116920.85   -112929.97    478905.11 
   58000    1553.1812   -289.07649   -113025.21   -116970.43   -113111.66    479143.38 
Loop time of 64.6564 on 1 procs for 505 steps with 19652 atoms

Performance: 0.675 ns/day, 35.565 hours/ns, 7.811 timesteps/s
99.9% CPU use with 1 MPI tasks x no OpenMP threads

MPI task timing breakdown:
Section |  min time  |  avg time  |  max time  |%varavg| %total
---------------------------------------------------------------
Pair    | 34.494     | 34.494     | 34.494     |   0.0 | 53.35
Neigh   | 28.61      | 28.61      | 28.61      |   0.0 | 44.25
Comm    | 0.54488    | 0.54488    | 0.54488    |   0.0 |  0.84
Output  | 0.066318   | 0.066318   | 0.066318   |   0.0 |  0.10
Modify  | 0.7473     | 0.7473     | 0.7473     |   0.0 |  1.16
Other   |            | 0.1948     |            |       |  0.30

Nlocal:    19652 ave 19652 max 19652 min
Histogram: 1 0 0 0 0 0 0 0 0 0
Nghost:    15728 ave 15728 max 15728 min
Histogram: 1 0 0 0 0 0 0 0 0 0
Neighs:    1.03164e+06 ave 1.03164e+06 max 1.03164e+06 min
Histogram: 1 0 0 0 0 0 0 0 0 0

Total # of neighbors = 1031640
Ave neighs/atom = 52.4954
Neighbor list builds = 505
Dangerous builds not checked
Setting up Verlet run ...
  Unit style    : metal
  Current step  : 58000
  Time step     : 0.001
Per MPI rank memory allocation (min/avg/max) = 18.19 | 18.19 | 18.19 Mbytes
Step Temp Press TotEng PotEng Enthalpy Volume 
   58000    1553.1812   -289.07649   -113025.21   -116970.43   -113111.66    479143.38 
   58495    1515.4432   -393.39514   -113269.12   -117118.48   -113386.64    478627.96 
Loop time of 62.605 on 1 procs for 495 steps with 19652 atoms

Performance: 0.683 ns/day, 35.132 hours/ns, 7.907 timesteps/s
99.8% CPU use with 1 MPI tasks x no OpenMP threads

MPI task timing breakdown:
Section |  min time  |  avg time  |  max time  |%varavg| %total
---------------------------------------------------------------
Pair    | 33.318     | 33.318     | 33.318     |   0.0 | 53.22
Neigh   | 27.84      | 27.84      | 27.84      |   0.0 | 44.47
Comm    | 0.53295    | 0.53295    | 0.53295    |   0.0 |  0.85
Output  | 0.00022602 | 0.00022602 | 0.00022602 |   0.0 |  0.00
Modify  | 0.72346    | 0.72346    | 0.72346    |   0.0 |  1.16
Other   |            | 0.1904     |            |       |  0.30

Nlocal:    19652 ave 19652 max 19652 min
Histogram: 1 0 0 0 0 0 0 0 0 0
Nghost:    15810 ave 15810 max 15810 min
Histogram: 1 0 0 0 0 0 0 0 0 0
Neighs:    1.03347e+06 ave 1.03347e+06 max 1.03347e+06 min
Histogram: 1 0 0 0 0 0 0 0 0 0

Total # of neighbors = 1033472
Ave neighs/atom = 52.5886
Neighbor list builds = 495
Dangerous builds not checked
Setting up Verlet run ...
  Unit style    : metal
  Current step  : 58495
  Time step     : 0.001
Per MPI rank memory allocation (min/avg/max) = 18.19 | 18.19 | 18.19 Mbytes
Step Temp Press TotEng PotEng Enthalpy Volume 
   58495    1515.4432   -393.39514   -113269.12   -117118.48   -113386.64    478627.96 
   59000    1501.3701    -246.1344   -113415.85   -117229.46   -113489.28    478030.24 
Loop time of 62.7285 on 1 procs for 505 steps with 19652 atoms

Performance: 0.696 ns/day, 34.504 hours/ns, 8.051 timesteps/s
99.9% CPU use with 1 MPI tasks x no OpenMP threads

MPI task timing breakdown:
Section |  min time  |  avg time  |  max time  |%varavg| %total
---------------------------------------------------------------
Pair    | 33.263     | 33.263     | 33.263     |   0.0 | 53.03
Neigh   | 27.959     | 27.959     | 27.959     |   0.0 | 44.57
Comm    | 0.53131    | 0.53131    | 0.53131    |   0.0 |  0.85
Output  | 0.057504   | 0.057504   | 0.057504   |   0.0 |  0.09
Modify  | 0.72768    | 0.72768    | 0.72768    |   0.0 |  1.16
Other   |            | 0.1893     |            |       |  0.30

Nlocal:    19652 ave 19652 max 19652 min
Histogram: 1 0 0 0 0 0 0 0 0 0
Nghost:    15860 ave 15860 max 15860 min
Histogram: 1 0 0 0 0 0 0 0 0 0
Neighs:    1.03455e+06 ave 1.03455e+06 max 1.03455e+06 min
Histogram: 1 0 0 0 0 0 0 0 0 0

Total # of neighbors = 1034554
Ave neighs/atom = 52.6437
Neighbor list builds = 505
Dangerous builds not checked
Setting up Verlet run ...
  Unit style    : metal
  Current step  : 59000
  Time step     : 0.001
Per MPI rank memory allocation (min/avg/max) = 18.19 | 18.19 | 18.19 Mbytes
Step Temp Press TotEng PotEng Enthalpy Volume 
   59000    1501.3701    -246.1344   -113415.85   -117229.46   -113489.28    478030.24 
   59495    1468.3594    300.54031   -113646.53    -117376.3   -113557.02    477193.95 
Loop time of 63.1167 on 1 procs for 495 steps with 19652 atoms

Performance: 0.678 ns/day, 35.419 hours/ns, 7.843 timesteps/s
99.5% CPU use with 1 MPI tasks x no OpenMP threads

MPI task timing breakdown:
Section |  min time  |  avg time  |  max time  |%varavg| %total
---------------------------------------------------------------
Pair    | 33.649     | 33.649     | 33.649     |   0.0 | 53.31
Neigh   | 28         | 28         | 28         |   0.0 | 44.36
Comm    | 0.54397    | 0.54397    | 0.54397    |   0.0 |  0.86
Output  | 0.00017715 | 0.00017715 | 0.00017715 |   0.0 |  0.00
Modify  | 0.7328     | 0.7328     | 0.7328     |   0.0 |  1.16
Other   |            | 0.1908     |            |       |  0.30

Nlocal:    19652 ave 19652 max 19652 min
Histogram: 1 0 0 0 0 0 0 0 0 0
Nghost:    15919 ave 15919 max 15919 min
Histogram: 1 0 0 0 0 0 0 0 0 0
Neighs:    1.03708e+06 ave 1.03708e+06 max 1.03708e+06 min
Histogram: 1 0 0 0 0 0 0 0 0 0

Total # of neighbors = 1037075
Ave neighs/atom = 52.772
Neighbor list builds = 495
Dangerous builds not checked
Setting up Verlet run ...
  Unit style    : metal
  Current step  : 59495
  Time step     : 0.001
Per MPI rank memory allocation (min/avg/max) = 18.19 | 18.19 | 18.19 Mbytes
Step Temp Press TotEng PotEng Enthalpy Volume 
   59495    1468.3594    300.54031   -113646.53    -117376.3   -113557.02    477193.95 
   60000    1443.4388   -427.42503   -113818.56   -117485.03   -113945.85    477127.45 
Loop time of 61.2874 on 1 procs for 505 steps with 19652 atoms

Performance: 0.712 ns/day, 33.711 hours/ns, 8.240 timesteps/s
99.8% CPU use with 1 MPI tasks x no OpenMP threads

MPI task timing breakdown:
Section |  min time  |  avg time  |  max time  |%varavg| %total
---------------------------------------------------------------
Pair    | 32.316     | 32.316     | 32.316     |   0.0 | 52.73
Neigh   | 27.494     | 27.494     | 27.494     |   0.0 | 44.86
Comm    | 0.51964    | 0.51964    | 0.51964    |   0.0 |  0.85
Output  | 0.060044   | 0.060044   | 0.060044   |   0.0 |  0.10
Modify  | 0.71285    | 0.71285    | 0.71285    |   0.0 |  1.16
Other   |            | 0.1843     |            |       |  0.30

Nlocal:    19652 ave 19652 max 19652 min
Histogram: 1 0 0 0 0 0 0 0 0 0
Nghost:    15903 ave 15903 max 15903 min
Histogram: 1 0 0 0 0 0 0 0 0 0
Neighs:    1.03793e+06 ave 1.03793e+06 max 1.03793e+06 min
Histogram: 1 0 0 0 0 0 0 0 0 0

Total # of neighbors = 1037929
Ave neighs/atom = 52.8154
Neighbor list builds = 505
Dangerous builds not checked
Setting up Verlet run ...
  Unit style    : metal
  Current step  : 60000
  Time step     : 0.001
Per MPI rank memory allocation (min/avg/max) = 18.19 | 18.19 | 18.19 Mbytes
Step Temp Press TotEng PotEng Enthalpy Volume 
   60000    1443.4388   -427.42503   -113818.56   -117485.03   -113945.85    477127.45 
   60495    1418.8341    596.83074   -114027.65   -117631.62   -113850.27    476178.94 
Loop time of 54.518 on 1 procs for 495 steps with 19652 atoms

Performance: 0.784 ns/day, 30.594 hours/ns, 9.080 timesteps/s
99.9% CPU use with 1 MPI tasks x no OpenMP threads

MPI task timing breakdown:
Section |  min time  |  avg time  |  max time  |%varavg| %total
---------------------------------------------------------------
Pair    | 28.309     | 28.309     | 28.309     |   0.0 | 51.93
Neigh   | 24.959     | 24.959     | 24.959     |   0.0 | 45.78
Comm    | 0.45628    | 0.45628    | 0.45628    |   0.0 |  0.84
Output  | 0.00015497 | 0.00015497 | 0.00015497 |   0.0 |  0.00
Modify  | 0.62883    | 0.62883    | 0.62883    |   0.0 |  1.15
Other   |            | 0.164      |            |       |  0.30

Nlocal:    19652 ave 19652 max 19652 min
Histogram: 1 0 0 0 0 0 0 0 0 0
Nghost:    15811 ave 15811 max 15811 min
Histogram: 1 0 0 0 0 0 0 0 0 0
Neighs:    1.04038e+06 ave 1.04038e+06 max 1.04038e+06 min
Histogram: 1 0 0 0 0 0 0 0 0 0

Total # of neighbors = 1040376
Ave neighs/atom = 52.94
Neighbor list builds = 495
Dangerous builds not checked
Setting up Verlet run ...
  Unit style    : metal
  Current step  : 60495
  Time step     : 0.001
Per MPI rank memory allocation (min/avg/max) = 18.19 | 18.19 | 18.19 Mbytes
Step Temp Press TotEng PotEng Enthalpy Volume 
   60495    1418.8341    596.83074   -114027.65   -117631.62   -113850.27    476178.94 
   61000    1388.2306   -880.77314   -114167.92   -117694.15   -114430.03       476792 
Loop time of 55.1569 on 1 procs for 505 steps with 19652 atoms

Performance: 0.791 ns/day, 30.339 hours/ns, 9.156 timesteps/s
99.0% CPU use with 1 MPI tasks x no OpenMP threads

MPI task timing breakdown:
Section |  min time  |  avg time  |  max time  |%varavg| %total
---------------------------------------------------------------
Pair    | 28.574     | 28.574     | 28.574     |   0.0 | 51.81
Neigh   | 25.273     | 25.273     | 25.273     |   0.0 | 45.82
Comm    | 0.46331    | 0.46331    | 0.46331    |   0.0 |  0.84
Output  | 0.041384   | 0.041384   | 0.041384   |   0.0 |  0.08
Modify  | 0.63887    | 0.63887    | 0.63887    |   0.0 |  1.16
Other   |            | 0.1659     |            |       |  0.30

Nlocal:    19652 ave 19652 max 19652 min
Histogram: 1 0 0 0 0 0 0 0 0 0
Nghost:    15854 ave 15854 max 15854 min
Histogram: 1 0 0 0 0 0 0 0 0 0
Neighs:    1.03939e+06 ave 1.03939e+06 max 1.03939e+06 min
Histogram: 1 0 0 0 0 0 0 0 0 0

Total # of neighbors = 1039392
Ave neighs/atom = 52.8899
Neighbor list builds = 505
Dangerous builds not checked
Setting up Verlet run ...
  Unit style    : metal
  Current step  : 61000
  Time step     : 0.001
Per MPI rank memory allocation (min/avg/max) = 18.19 | 18.19 | 18.19 Mbytes
Step Temp Press TotEng PotEng Enthalpy Volume 
   61000    1388.2306   -880.77314   -114167.92   -117694.15   -114430.03       476792 
   61495    1373.8586    647.59747   -114353.79   -117843.52   -114161.68    475294.49 
Loop time of 59.2592 on 1 procs for 495 steps with 19652 atoms

Performance: 0.722 ns/day, 33.254 hours/ns, 8.353 timesteps/s
99.5% CPU use with 1 MPI tasks x no OpenMP threads

MPI task timing breakdown:
Section |  min time  |  avg time  |  max time  |%varavg| %total
---------------------------------------------------------------
Pair    | 31.194     | 31.194     | 31.194     |   0.0 | 52.64
Neigh   | 26.701     | 26.701     | 26.701     |   0.0 | 45.06
Comm    | 0.50088    | 0.50088    | 0.50088    |   0.0 |  0.85
Output  | 0.00016594 | 0.00016594 | 0.00016594 |   0.0 |  0.00
Modify  | 0.68451    | 0.68451    | 0.68451    |   0.0 |  1.16
Other   |            | 0.1782     |            |       |  0.30

Nlocal:    19652 ave 19652 max 19652 min
Histogram: 1 0 0 0 0 0 0 0 0 0
Nghost:    15839 ave 15839 max 15839 min
Histogram: 1 0 0 0 0 0 0 0 0 0
Neighs:    1.04343e+06 ave 1.04343e+06 max 1.04343e+06 min
Histogram: 1 0 0 0 0 0 0 0 0 0

Total # of neighbors = 1043427
Ave neighs/atom = 53.0952
Neighbor list builds = 495
Dangerous builds not checked
Setting up Verlet run ...
  Unit style    : metal
  Current step  : 61495
  Time step     : 0.001
Per MPI rank memory allocation (min/avg/max) = 18.19 | 18.19 | 18.19 Mbytes
Step Temp Press TotEng PotEng Enthalpy Volume 
   61495    1373.8586    647.59747   -114353.79   -117843.52   -114161.68    475294.49 
   62000    1335.1602   -653.16553   -114526.86   -117918.29   -114720.88    475914.01 
Loop time of 58.2187 on 1 procs for 505 steps with 19652 atoms

Performance: 0.749 ns/day, 32.023 hours/ns, 8.674 timesteps/s
99.5% CPU use with 1 MPI tasks x no OpenMP threads

MPI task timing breakdown:
Section |  min time  |  avg time  |  max time  |%varavg| %total
---------------------------------------------------------------
Pair    | 30.519     | 30.519     | 30.519     |   0.0 | 52.42
Neigh   | 26.328     | 26.328     | 26.328     |   0.0 | 45.22
Comm    | 0.48265    | 0.48265    | 0.48265    |   0.0 |  0.83
Output  | 0.048777   | 0.048777   | 0.048777   |   0.0 |  0.08
Modify  | 0.66771    | 0.66771    | 0.66771    |   0.0 |  1.15
Other   |            | 0.1731     |            |       |  0.30

Nlocal:    19652 ave 19652 max 19652 min
Histogram: 1 0 0 0 0 0 0 0 0 0
Nghost:    15866 ave 15866 max 15866 min
Histogram: 1 0 0 0 0 0 0 0 0 0
Neighs:    1.04174e+06 ave 1.04174e+06 max 1.04174e+06 min
Histogram: 1 0 0 0 0 0 0 0 0 0

Total # of neighbors = 1041735
Ave neighs/atom = 53.0091
Neighbor list builds = 505
Dangerous builds not checked
Setting up Verlet run ...
  Unit style    : metal
  Current step  : 62000
  Time step     : 0.001
Per MPI rank memory allocation (min/avg/max) = 18.19 | 18.19 | 18.19 Mbytes
Step Temp Press TotEng PotEng Enthalpy Volume 
   62000    1335.1602   -653.16553   -114526.86   -117918.29   -114720.88    475914.01 
   62495     1328.162    466.85085   -114703.43   -118077.09   -114565.08    474808.32 
Loop time of 53.4171 on 1 procs for 495 steps with 19652 atoms

Performance: 0.801 ns/day, 29.976 hours/ns, 9.267 timesteps/s
98.9% CPU use with 1 MPI tasks x no OpenMP threads

MPI task timing breakdown:
Section |  min time  |  avg time  |  max time  |%varavg| %total
---------------------------------------------------------------
Pair    | 27.395     | 27.395     | 27.395     |   0.0 | 51.29
Neigh   | 24.301     | 24.301     | 24.301     |   0.0 | 45.49
Comm    | 0.43595    | 0.43595    | 0.43595    |   0.0 |  0.82
Output  | 0.51973    | 0.51973    | 0.51973    |   0.0 |  0.97
Modify  | 0.60736    | 0.60736    | 0.60736    |   0.0 |  1.14
Other   |            | 0.1574     |            |       |  0.29

Nlocal:    19652 ave 19652 max 19652 min
Histogram: 1 0 0 0 0 0 0 0 0 0
Nghost:    15857 ave 15857 max 15857 min
Histogram: 1 0 0 0 0 0 0 0 0 0
Neighs:    1.04514e+06 ave 1.04514e+06 max 1.04514e+06 min
Histogram: 1 0 0 0 0 0 0 0 0 0

Total # of neighbors = 1045144
Ave neighs/atom = 53.1826
Neighbor list builds = 495
Dangerous builds not checked
Setting up Verlet run ...
  Unit style    : metal
  Current step  : 62495
  Time step     : 0.001
Per MPI rank memory allocation (min/avg/max) = 18.19 | 18.19 | 18.19 Mbytes
Step Temp Press TotEng PotEng Enthalpy Volume 
   62495     1328.162    466.85085   -114703.43   -118077.09   -114565.08    474808.32 
   63000     1301.614    -488.4162   -114875.52   -118181.74   -115020.31    474977.65 
Loop time of 59.4298 on 1 procs for 505 steps with 19652 atoms

Performance: 0.734 ns/day, 32.690 hours/ns, 8.497 timesteps/s
99.8% CPU use with 1 MPI tasks x no OpenMP threads

MPI task timing breakdown:
Section |  min time  |  avg time  |  max time  |%varavg| %total
---------------------------------------------------------------
Pair    | 31.286     | 31.286     | 31.286     |   0.0 | 52.64
Neigh   | 26.69      | 26.69      | 26.69      |   0.0 | 44.91
Comm    | 0.51395    | 0.51395    | 0.51395    |   0.0 |  0.86
Output  | 0.064701   | 0.064701   | 0.064701   |   0.0 |  0.11
Modify  | 0.69499    | 0.69499    | 0.69499    |   0.0 |  1.17
Other   |            | 0.1802     |            |       |  0.30

Nlocal:    19652 ave 19652 max 19652 min
Histogram: 1 0 0 0 0 0 0 0 0 0
Nghost:    15887 ave 15887 max 15887 min
Histogram: 1 0 0 0 0 0 0 0 0 0
Neighs:    1.04512e+06 ave 1.04512e+06 max 1.04512e+06 min
Histogram: 1 0 0 0 0 0 0 0 0 0

Total # of neighbors = 1045116
Ave neighs/atom = 53.1812
Neighbor list builds = 505
Dangerous builds not checked
Setting up Verlet run ...
  Unit style    : metal
  Current step  : 63000
  Time step     : 0.001
Per MPI rank memory allocation (min/avg/max) = 18.19 | 18.19 | 18.19 Mbytes
Step Temp Press TotEng PotEng Enthalpy Volume 
   63000     1301.614    -488.4162   -114875.52   -118181.74   -115020.31    474977.65 
   63495      1268.13    597.83513   -115084.86   -118306.02   -114908.03    473878.96 
Loop time of 59.8054 on 1 procs for 495 steps with 19652 atoms

Performance: 0.715 ns/day, 33.561 hours/ns, 8.277 timesteps/s
98.1% CPU use with 1 MPI tasks x no OpenMP threads

MPI task timing breakdown:
Section |  min time  |  avg time  |  max time  |%varavg| %total
---------------------------------------------------------------
Pair    | 31.485     | 31.485     | 31.485     |   0.0 | 52.65
Neigh   | 26.949     | 26.949     | 26.949     |   0.0 | 45.06
Comm    | 0.50014    | 0.50014    | 0.50014    |   0.0 |  0.84
Output  | 0.00016689 | 0.00016689 | 0.00016689 |   0.0 |  0.00
Modify  | 0.68783    | 0.68783    | 0.68783    |   0.0 |  1.15
Other   |            | 0.1838     |            |       |  0.31

Nlocal:    19652 ave 19652 max 19652 min
Histogram: 1 0 0 0 0 0 0 0 0 0
Nghost:    15888 ave 15888 max 15888 min
Histogram: 1 0 0 0 0 0 0 0 0 0
Neighs:    1.04806e+06 ave 1.04806e+06 max 1.04806e+06 min
Histogram: 1 0 0 0 0 0 0 0 0 0

Total # of neighbors = 1048064
Ave neighs/atom = 53.3312
Neighbor list builds = 495
Dangerous builds not checked
Setting up Verlet run ...
  Unit style    : metal
  Current step  : 63495
  Time step     : 0.001
Per MPI rank memory allocation (min/avg/max) = 18.19 | 18.19 | 18.19 Mbytes
Step Temp Press TotEng PotEng Enthalpy Volume 
   63495      1268.13    597.83513   -115084.86   -118306.02   -114908.03    473878.96 
   64000    1262.3116   -408.12062      -115201   -118407.39   -115321.78    474144.04 
Loop time of 57.8159 on 1 procs for 505 steps with 19652 atoms

Performance: 0.755 ns/day, 31.802 hours/ns, 8.735 timesteps/s
99.8% CPU use with 1 MPI tasks x no OpenMP threads

MPI task timing breakdown:
Section |  min time  |  avg time  |  max time  |%varavg| %total
---------------------------------------------------------------
Pair    | 30.206     | 30.206     | 30.206     |   0.0 | 52.24
Neigh   | 26.242     | 26.242     | 26.242     |   0.0 | 45.39
Comm    | 0.47867    | 0.47867    | 0.47867    |   0.0 |  0.83
Output  | 0.041593   | 0.041593   | 0.041593   |   0.0 |  0.07
Modify  | 0.67428    | 0.67428    | 0.67428    |   0.0 |  1.17
Other   |            | 0.1735     |            |       |  0.30

Nlocal:    19652 ave 19652 max 19652 min
Histogram: 1 0 0 0 0 0 0 0 0 0
Nghost:    15891 ave 15891 max 15891 min
Histogram: 1 0 0 0 0 0 0 0 0 0
Neighs:    1.04763e+06 ave 1.04763e+06 max 1.04763e+06 min
Histogram: 1 0 0 0 0 0 0 0 0 0

Total # of neighbors = 1047629
Ave neighs/atom = 53.309
Neighbor list builds = 505
Dangerous builds not checked
Setting up Verlet run ...
  Unit style    : metal
  Current step  : 64000
  Time step     : 0.001
Per MPI rank memory allocation (min/avg/max) = 18.19 | 18.19 | 18.19 Mbytes
Step Temp Press TotEng PotEng Enthalpy Volume 
   64000    1262.3116   -408.12062      -115201   -118407.39   -115321.78    474144.04 
   64495    1215.9348    415.02421   -115391.51   -118480.09   -115268.93    473215.89 
Loop time of 49.7723 on 1 procs for 495 steps with 19652 atoms

[...]

Performance: 0.816 ns/day, 29.404 hours/ns, 9.447 timesteps/s
99.9% CPU use with 1 MPI tasks x no OpenMP threads

MPI task timing breakdown:
Section |  min time  |  avg time  |  max time  |%varavg| %total
---------------------------------------------------------------
Pair    | 27.338     | 27.338     | 27.338     |   0.0 | 52.17
Neigh   | 23.878     | 23.878     | 23.878     |   0.0 | 45.57
Comm    | 0.4287     | 0.4287     | 0.4287     |   0.0 |  0.82
Output  | 0.00016189 | 0.00016189 | 0.00016189 |   0.0 |  0.00
Modify  | 0.59575    | 0.59575    | 0.59575    |   0.0 |  1.14
Other   |            | 0.1565     |            |       |  0.30

Nlocal:    19652 ave 19652 max 19652 min
Histogram: 1 0 0 0 0 0 0 0 0 0
Nghost:    16019 ave 16019 max 16019 min
Histogram: 1 0 0 0 0 0 0 0 0 0
Neighs:    1.08427e+06 ave 1.08427e+06 max 1.08427e+06 min
Histogram: 1 0 0 0 0 0 0 0 0 0

Total # of neighbors = 1084272
Ave neighs/atom = 55.1736
Neighbor list builds = 495
Dangerous builds not checked
Setting up Verlet run ...
  Unit style    : metal
  Current step  : 80495
  Time step     : 0.001
Per MPI rank memory allocation (min/avg/max) = 18.19 | 18.19 | 18.19 Mbytes
Step Temp Press TotEng PotEng Enthalpy Volume 
   80495    419.23715    211.48532   -120300.67   -121365.57   -120239.43    463952.77 
   81000    400.94381    228.81595    -120434.7   -121453.14   -120368.49    463658.58 
Loop time of 53.9664 on 1 procs for 505 steps with 19652 atoms

Performance: 0.809 ns/day, 29.685 hours/ns, 9.358 timesteps/s
98.7% CPU use with 1 MPI tasks x no OpenMP threads

MPI task timing breakdown:
Section |  min time  |  avg time  |  max time  |%varavg| %total
---------------------------------------------------------------
Pair    | 28.105     | 28.105     | 28.105     |   0.0 | 52.08
Neigh   | 24.573     | 24.573     | 24.573     |   0.0 | 45.53
Comm    | 0.44333    | 0.44333    | 0.44333    |   0.0 |  0.82
Output  | 0.066576   | 0.066576   | 0.066576   |   0.0 |  0.12
Modify  | 0.6038     | 0.6038     | 0.6038     |   0.0 |  1.12
Other   |            | 0.1753     |            |       |  0.32

Nlocal:    19652 ave 19652 max 19652 min
Histogram: 1 0 0 0 0 0 0 0 0 0
Nghost:    15974 ave 15974 max 15974 min
Histogram: 1 0 0 0 0 0 0 0 0 0
Neighs:    1.0855e+06 ave 1.0855e+06 max 1.0855e+06 min
Histogram: 1 0 0 0 0 0 0 0 0 0

Total # of neighbors = 1085497
Ave neighs/atom = 55.236
Neighbor list builds = 505
Dangerous builds not checked
Setting up Verlet run ...
  Unit style    : metal
  Current step  : 81000
  Time step     : 0.001
Per MPI rank memory allocation (min/avg/max) = 18.19 | 18.19 | 18.19 Mbytes
Step Temp Press TotEng PotEng Enthalpy Volume 
   81000    400.94381    228.81595    -120434.7   -121453.14   -120368.49    463658.58 
   81495      371.044   -146.67804   -120571.86   -121514.35   -120614.31    463655.64 
Loop time of 51.7308 on 1 procs for 495 steps with 19652 atoms

Performance: 0.827 ns/day, 29.030 hours/ns, 9.569 timesteps/s
99.4% CPU use with 1 MPI tasks x no OpenMP threads

MPI task timing breakdown:
Section |  min time  |  avg time  |  max time  |%varavg| %total
---------------------------------------------------------------
Pair    | 26.966     | 26.966     | 26.966     |   0.0 | 52.13
Neigh   | 23.595     | 23.595     | 23.595     |   0.0 | 45.61
Comm    | 0.42618    | 0.42618    | 0.42618    |   0.0 |  0.82
Output  | 0.00015211 | 0.00015211 | 0.00015211 |   0.0 |  0.00
Modify  | 0.5908     | 0.5908     | 0.5908     |   0.0 |  1.14
Other   |            | 0.153      |            |       |  0.30

Nlocal:    19652 ave 19652 max 19652 min
Histogram: 1 0 0 0 0 0 0 0 0 0
Nghost:    16022 ave 16022 max 16022 min
Histogram: 1 0 0 0 0 0 0 0 0 0
Neighs:    1.08547e+06 ave 1.08547e+06 max 1.08547e+06 min
Histogram: 1 0 0 0 0 0 0 0 0 0

Total # of neighbors = 1085466
Ave neighs/atom = 55.2344
Neighbor list builds = 495
Dangerous builds not checked
Setting up Verlet run ...
  Unit style    : metal
  Current step  : 81495
  Time step     : 0.001
Per MPI rank memory allocation (min/avg/max) = 18.19 | 18.19 | 18.19 Mbytes
Step Temp Press TotEng PotEng Enthalpy Volume 
   81495      371.044   -146.67804   -120571.86   -121514.35   -120614.31    463655.64 
   82000    349.52093    70.620655   -120701.97   -121589.79   -120681.55    463300.04 
Loop time of 59.5348 on 1 procs for 505 steps with 19652 atoms

Performance: 0.733 ns/day, 32.747 hours/ns, 8.482 timesteps/s
99.4% CPU use with 1 MPI tasks x no OpenMP threads

MPI task timing breakdown:
Section |  min time  |  avg time  |  max time  |%varavg| %total
---------------------------------------------------------------
Pair    | 31.582     | 31.582     | 31.582     |   0.0 | 53.05
Neigh   | 26.516     | 26.516     | 26.516     |   0.0 | 44.54
Comm    | 0.49547    | 0.49547    | 0.49547    |   0.0 |  0.83
Output  | 0.063968   | 0.063968   | 0.063968   |   0.0 |  0.11
Modify  | 0.69653    | 0.69653    | 0.69653    |   0.0 |  1.17
Other   |            | 0.1804     |            |       |  0.30

Nlocal:    19652 ave 19652 max 19652 min
Histogram: 1 0 0 0 0 0 0 0 0 0
Nghost:    16025 ave 16025 max 16025 min
Histogram: 1 0 0 0 0 0 0 0 0 0
Neighs:    1.0868e+06 ave 1.0868e+06 max 1.0868e+06 min
Histogram: 1 0 0 0 0 0 0 0 0 0

Total # of neighbors = 1086797
Ave neighs/atom = 55.3021
Neighbor list builds = 505
Dangerous builds not checked
Setting up Verlet run ...
  Unit style    : metal
  Current step  : 82000
  Time step     : 0.001
Per MPI rank memory allocation (min/avg/max) = 18.19 | 18.19 | 18.19 Mbytes
Step Temp Press TotEng PotEng Enthalpy Volume 
   82000    349.52093    70.620655   -120701.97   -121589.79   -120681.55    463300.04 
   82495    324.07614   -164.61745   -120836.63   -121659.81   -120884.22     463179.1 
Loop time of 52.6374 on 1 procs for 495 steps with 19652 atoms

Performance: 0.813 ns/day, 29.538 hours/ns, 9.404 timesteps/s
99.9% CPU use with 1 MPI tasks x no OpenMP threads

MPI task timing breakdown:
Section |  min time  |  avg time  |  max time  |%varavg| %total
---------------------------------------------------------------
Pair    | 27.533     | 27.533     | 27.533     |   0.0 | 52.31
Neigh   | 23.922     | 23.922     | 23.922     |   0.0 | 45.45
Comm    | 0.42973    | 0.42973    | 0.42973    |   0.0 |  0.82
Output  | 0.00017118 | 0.00017118 | 0.00017118 |   0.0 |  0.00
Modify  | 0.59606    | 0.59606    | 0.59606    |   0.0 |  1.13
Other   |            | 0.1563     |            |       |  0.30

Nlocal:    19652 ave 19652 max 19652 min
Histogram: 1 0 0 0 0 0 0 0 0 0
Nghost:    16018 ave 16018 max 16018 min
Histogram: 1 0 0 0 0 0 0 0 0 0
Neighs:    1.08749e+06 ave 1.08749e+06 max 1.08749e+06 min
Histogram: 1 0 0 0 0 0 0 0 0 0

Total # of neighbors = 1087486
Ave neighs/atom = 55.3372
Neighbor list builds = 495
Dangerous builds not checked
Setting up Verlet run ...
  Unit style    : metal
  Current step  : 82495
  Time step     : 0.001
Per MPI rank memory allocation (min/avg/max) = 18.19 | 18.19 | 18.19 Mbytes
Step Temp Press TotEng PotEng Enthalpy Volume 
   82495    324.07614   -164.61745   -120836.63   -121659.81   -120884.22     463179.1 
   83000    298.52584   -180.38449    -120969.2   -121727.49   -121021.32    462934.49 
Loop time of 49.1729 on 1 procs for 505 steps with 19652 atoms

Performance: 0.887 ns/day, 27.048 hours/ns, 10.270 timesteps/s
100.0% CPU use with 1 MPI tasks x no OpenMP threads

MPI task timing breakdown:
Section |  min time  |  avg time  |  max time  |%varavg| %total
---------------------------------------------------------------
Pair    | 25.298     | 25.298     | 25.298     |   0.0 | 51.45
Neigh   | 22.743     | 22.743     | 22.743     |   0.0 | 46.25
Comm    | 0.39601    | 0.39601    | 0.39601    |   0.0 |  0.81
Output  | 0.043243   | 0.043243   | 0.043243   |   0.0 |  0.09
Modify  | 0.54824    | 0.54824    | 0.54824    |   0.0 |  1.11
Other   |            | 0.1445     |            |       |  0.29

Nlocal:    19652 ave 19652 max 19652 min
Histogram: 1 0 0 0 0 0 0 0 0 0
Nghost:    16018 ave 16018 max 16018 min
Histogram: 1 0 0 0 0 0 0 0 0 0
Neighs:    1.08818e+06 ave 1.08818e+06 max 1.08818e+06 min
Histogram: 1 0 0 0 0 0 0 0 0 0

Total # of neighbors = 1088184
Ave neighs/atom = 55.3727
Neighbor list builds = 505
Dangerous builds not checked
Setting up Verlet run ...
  Unit style    : metal
  Current step  : 83000
  Time step     : 0.001
Per MPI rank memory allocation (min/avg/max) = 18.19 | 18.19 | 18.19 Mbytes
Step Temp Press TotEng PotEng Enthalpy Volume 
   83000    298.52584   -180.38449    -120969.2   -121727.49   -121021.32    462934.49 
   83495    272.68663   -275.94963   -121100.88   -121793.53   -121180.59    462797.06 
Loop time of 51.7816 on 1 procs for 495 steps with 19652 atoms

Performance: 0.826 ns/day, 29.058 hours/ns, 9.559 timesteps/s
99.8% CPU use with 1 MPI tasks x no OpenMP threads

MPI task timing breakdown:
Section |  min time  |  avg time  |  max time  |%varavg| %total
---------------------------------------------------------------
Pair    | 27.017     | 27.017     | 27.017     |   0.0 | 52.17
Neigh   | 23.579     | 23.579     | 23.579     |   0.0 | 45.54
Comm    | 0.42707    | 0.42707    | 0.42707    |   0.0 |  0.82
Output  | 0.018095   | 0.018095   | 0.018095   |   0.0 |  0.03
Modify  | 0.58768    | 0.58768    | 0.58768    |   0.0 |  1.13
Other   |            | 0.1527     |            |       |  0.29

Nlocal:    19652 ave 19652 max 19652 min
Histogram: 1 0 0 0 0 0 0 0 0 0
Nghost:    16016 ave 16016 max 16016 min
Histogram: 1 0 0 0 0 0 0 0 0 0
Neighs:    1.08871e+06 ave 1.08871e+06 max 1.08871e+06 min
Histogram: 1 0 0 0 0 0 0 0 0 0

Total # of neighbors = 1088709
Ave neighs/atom = 55.3994
Neighbor list builds = 495
Dangerous builds not checked
Setting up Verlet run ...
  Unit style    : metal
  Current step  : 83495
  Time step     : 0.001
Per MPI rank memory allocation (min/avg/max) = 18.19 | 18.19 | 18.19 Mbytes
Step Temp Press TotEng PotEng Enthalpy Volume 
   83495    272.68663   -275.94963   -121100.88   -121793.53   -121180.59    462797.06 
   84000    248.54668     161.1821   -121229.57    -121860.9   -121183.06    462328.37 
Loop time of 51.0691 on 1 procs for 505 steps with 19652 atoms

Performance: 0.854 ns/day, 28.091 hours/ns, 9.889 timesteps/s
100.0% CPU use with 1 MPI tasks x no OpenMP threads

MPI task timing breakdown:
Section |  min time  |  avg time  |  max time  |%varavg| %total
---------------------------------------------------------------
Pair    | 26.478     | 26.478     | 26.478     |   0.0 | 51.85
Neigh   | 23.397     | 23.397     | 23.397     |   0.0 | 45.81
Comm    | 0.41928    | 0.41928    | 0.41928    |   0.0 |  0.82
Output  | 0.041282   | 0.041282   | 0.041282   |   0.0 |  0.08
Modify  | 0.58212    | 0.58212    | 0.58212    |   0.0 |  1.14
Other   |            | 0.152      |            |       |  0.30

Nlocal:    19652 ave 19652 max 19652 min
Histogram: 1 0 0 0 0 0 0 0 0 0
Nghost:    15994 ave 15994 max 15994 min
Histogram: 1 0 0 0 0 0 0 0 0 0
Neighs:    1.09004e+06 ave 1.09004e+06 max 1.09004e+06 min
Histogram: 1 0 0 0 0 0 0 0 0 0

Total # of neighbors = 1090045
Ave neighs/atom = 55.4674
Neighbor list builds = 505
Dangerous builds not checked
Setting up Verlet run ...
  Unit style    : metal
  Current step  : 84000
  Time step     : 0.001
Per MPI rank memory allocation (min/avg/max) = 18.19 | 18.19 | 18.19 Mbytes
Step Temp Press TotEng PotEng Enthalpy Volume 
   84000    248.54668     161.1821   -121229.57    -121860.9   -121183.06    462328.37 
   84495     223.1829   -59.526036   -121358.17   -121925.07   -121375.34    462215.06 
Loop time of 51.8066 on 1 procs for 495 steps with 19652 atoms

Performance: 0.826 ns/day, 29.072 hours/ns, 9.555 timesteps/s
99.9% CPU use with 1 MPI tasks x no OpenMP threads

MPI task timing breakdown:
Section |  min time  |  avg time  |  max time  |%varavg| %total
---------------------------------------------------------------
Pair    | 27.163     | 27.163     | 27.163     |   0.0 | 52.43
Neigh   | 23.476     | 23.476     | 23.476     |   0.0 | 45.32
Comm    | 0.42238    | 0.42238    | 0.42238    |   0.0 |  0.82
Output  | 0.00017405 | 0.00017405 | 0.00017405 |   0.0 |  0.00
Modify  | 0.59152    | 0.59152    | 0.59152    |   0.0 |  1.14
Other   |            | 0.1533     |            |       |  0.30

Nlocal:    19652 ave 19652 max 19652 min
Histogram: 1 0 0 0 0 0 0 0 0 0
Nghost:    16048 ave 16048 max 16048 min
Histogram: 1 0 0 0 0 0 0 0 0 0
Neighs:    1.09045e+06 ave 1.09045e+06 max 1.09045e+06 min
Histogram: 1 0 0 0 0 0 0 0 0 0

Total # of neighbors = 1090451
Ave neighs/atom = 55.488
Neighbor list builds = 495
Dangerous builds not checked
Setting up Verlet run ...
  Unit style    : metal
  Current step  : 84495
  Time step     : 0.001
Per MPI rank memory allocation (min/avg/max) = 18.19 | 18.19 | 18.19 Mbytes
Step Temp Press TotEng PotEng Enthalpy Volume 
   84495     223.1829   -59.526036   -121358.17   -121925.07   -121375.34    462215.06 
   85000    199.88189    27.051149   -121486.93   -121994.65   -121479.13    461937.36 
Loop time of 51.5375 on 1 procs for 505 steps with 19652 atoms

Performance: 0.847 ns/day, 28.348 hours/ns, 9.799 timesteps/s
99.9% CPU use with 1 MPI tasks x no OpenMP threads

MPI task timing breakdown:
Section |  min time  |  avg time  |  max time  |%varavg| %total
---------------------------------------------------------------
Pair    | 26.808     | 26.808     | 26.808     |   0.0 | 52.02
Neigh   | 23.543     | 23.543     | 23.543     |   0.0 | 45.68
Comm    | 0.41271    | 0.41271    | 0.41271    |   0.0 |  0.80
Output  | 0.04125    | 0.04125    | 0.04125    |   0.0 |  0.08
Modify  | 0.58033    | 0.58033    | 0.58033    |   0.0 |  1.13
Other   |            | 0.1521     |            |       |  0.30

Nlocal:    19652 ave 19652 max 19652 min
Histogram: 1 0 0 0 0 0 0 0 0 0
Nghost:    16055 ave 16055 max 16055 min
Histogram: 1 0 0 0 0 0 0 0 0 0
Neighs:    1.09142e+06 ave 1.09142e+06 max 1.09142e+06 min
Histogram: 1 0 0 0 0 0 0 0 0 0

Total # of neighbors = 1091415
Ave neighs/atom = 55.5371
Neighbor list builds = 505
Dangerous builds not checked
Setting up Verlet run ...
  Unit style    : metal
  Current step  : 85000
  Time step     : 0.001
Per MPI rank memory allocation (min/avg/max) = 18.19 | 18.19 | 18.19 Mbytes
Step Temp Press TotEng PotEng Enthalpy Volume 
   85000    199.88189    27.051149   -121486.93   -121994.65   -121479.13    461937.36 
   85495    174.58965    28.717781   -121613.18   -122056.66   -121604.91    461755.91 
Loop time of 51.0959 on 1 procs for 495 steps with 19652 atoms

Performance: 0.837 ns/day, 28.673 hours/ns, 9.688 timesteps/s
99.1% CPU use with 1 MPI tasks x no OpenMP threads

MPI task timing breakdown:
Section |  min time  |  avg time  |  max time  |%varavg| %total
---------------------------------------------------------------
Pair    | 26.557     | 26.557     | 26.557     |   0.0 | 51.97
Neigh   | 23.378     | 23.378     | 23.378     |   0.0 | 45.75
Comm    | 0.41852    | 0.41852    | 0.41852    |   0.0 |  0.82
Output  | 0.00016809 | 0.00016809 | 0.00016809 |   0.0 |  0.00
Modify  | 0.59003    | 0.59003    | 0.59003    |   0.0 |  1.15
Other   |            | 0.1521     |            |       |  0.30

Nlocal:    19652 ave 19652 max 19652 min
Histogram: 1 0 0 0 0 0 0 0 0 0
Nghost:    16010 ave 16010 max 16010 min
Histogram: 1 0 0 0 0 0 0 0 0 0
Neighs:    1.09245e+06 ave 1.09245e+06 max 1.09245e+06 min
Histogram: 1 0 0 0 0 0 0 0 0 0

Total # of neighbors = 1092450
Ave neighs/atom = 55.5898
Neighbor list builds = 495
Dangerous builds not checked
Setting up Verlet run ...
  Unit style    : metal
  Current step  : 85495
  Time step     : 0.001
Per MPI rank memory allocation (min/avg/max) = 18.19 | 18.19 | 18.19 Mbytes
Step Temp Press TotEng PotEng Enthalpy Volume 
   85495    174.58965    28.717781   -121613.18   -122056.66   -121604.91    461755.91 
   86000    150.98094    39.143434    -121742.8    -122126.3   -121731.52    461530.84 
Loop time of 54.2231 on 1 procs for 505 steps with 19652 atoms

Performance: 0.805 ns/day, 29.826 hours/ns, 9.313 timesteps/s
99.9% CPU use with 1 MPI tasks x no OpenMP threads

MPI task timing breakdown:
Section |  min time  |  avg time  |  max time  |%varavg| %total
---------------------------------------------------------------
Pair    | 28.447     | 28.447     | 28.447     |   0.0 | 52.46
Neigh   | 24.502     | 24.502     | 24.502     |   0.0 | 45.19
Comm    | 0.44097    | 0.44097    | 0.44097    |   0.0 |  0.81
Output  | 0.050176   | 0.050176   | 0.050176   |   0.0 |  0.09
Modify  | 0.61903    | 0.61903    | 0.61903    |   0.0 |  1.14
Other   |            | 0.1636     |            |       |  0.30

Nlocal:    19652 ave 19652 max 19652 min
Histogram: 1 0 0 0 0 0 0 0 0 0
Nghost:    16027 ave 16027 max 16027 min
Histogram: 1 0 0 0 0 0 0 0 0 0
Neighs:    1.09298e+06 ave 1.09298e+06 max 1.09298e+06 min
Histogram: 1 0 0 0 0 0 0 0 0 0

Total # of neighbors = 1092981
Ave neighs/atom = 55.6168
Neighbor list builds = 505
Dangerous builds not checked
Setting up Verlet run ...
  Unit style    : metal
  Current step  : 86000
  Time step     : 0.001
Per MPI rank memory allocation (min/avg/max) = 18.19 | 18.19 | 18.19 Mbytes
Step Temp Press TotEng PotEng Enthalpy Volume 
   86000    150.98094    39.143434    -121742.8    -122126.3   -121731.52    461530.84 
   86495    126.33724   -3.7364279   -121865.37   -122186.28   -121866.45    461333.29 
Loop time of 53.6131 on 1 procs for 495 steps with 19652 atoms

Performance: 0.798 ns/day, 30.086 hours/ns, 9.233 timesteps/s
99.0% CPU use with 1 MPI tasks x no OpenMP threads

MPI task timing breakdown:
Section |  min time  |  avg time  |  max time  |%varavg| %total
---------------------------------------------------------------
Pair    | 28.066     | 28.066     | 28.066     |   0.0 | 52.35
Neigh   | 24.341     | 24.341     | 24.341     |   0.0 | 45.40
Comm    | 0.44038    | 0.44038    | 0.44038    |   0.0 |  0.82
Output  | 0.00016809 | 0.00016809 | 0.00016809 |   0.0 |  0.00
Modify  | 0.60076    | 0.60076    | 0.60076    |   0.0 |  1.12
Other   |            | 0.1652     |            |       |  0.31

Nlocal:    19652 ave 19652 max 19652 min
Histogram: 1 0 0 0 0 0 0 0 0 0
Nghost:    16024 ave 16024 max 16024 min
Histogram: 1 0 0 0 0 0 0 0 0 0
Neighs:    1.09405e+06 ave 1.09405e+06 max 1.09405e+06 min
Histogram: 1 0 0 0 0 0 0 0 0 0

Total # of neighbors = 1094052
Ave neighs/atom = 55.6713
Neighbor list builds = 495
Dangerous builds not checked
Setting up Verlet run ...
  Unit style    : metal
  Current step  : 86495
  Time step     : 0.001
Per MPI rank memory allocation (min/avg/max) = 18.19 | 18.19 | 18.19 Mbytes
Step Temp Press TotEng PotEng Enthalpy Volume 
   86495    126.33724   -3.7364279   -121865.37   -122186.28   -121866.45    461333.29 
   87000    102.69497    6.5350937   -121992.16   -122253.01   -121990.28    461148.17 
Loop time of 54.8026 on 1 procs for 505 steps with 19652 atoms

Performance: 0.796 ns/day, 30.144 hours/ns, 9.215 timesteps/s
99.8% CPU use with 1 MPI tasks x no OpenMP threads

MPI task timing breakdown:
Section |  min time  |  avg time  |  max time  |%varavg| %total
---------------------------------------------------------------
Pair    | 28.741     | 28.741     | 28.741     |   0.0 | 52.44
Neigh   | 24.75      | 24.75      | 24.75      |   0.0 | 45.16
Comm    | 0.44897    | 0.44897    | 0.44897    |   0.0 |  0.82
Output  | 0.060155   | 0.060155   | 0.060155   |   0.0 |  0.11
Modify  | 0.6365     | 0.6365     | 0.6365     |   0.0 |  1.16
Other   |            | 0.1658     |            |       |  0.30

Nlocal:    19652 ave 19652 max 19652 min
Histogram: 1 0 0 0 0 0 0 0 0 0
Nghost:    16019 ave 16019 max 16019 min
Histogram: 1 0 0 0 0 0 0 0 0 0
Neighs:    1.09457e+06 ave 1.09457e+06 max 1.09457e+06 min
Histogram: 1 0 0 0 0 0 0 0 0 0

Total # of neighbors = 1094572
Ave neighs/atom = 55.6977
Neighbor list builds = 505
Dangerous builds not checked
Total wall time: 3:00:13
