LAMMPS (12 Dec 2018)
Lattice spacing in x,y,z = 4 4 4
Created orthogonal box = (0 0 0) to (68 68 68)
  1 by 1 by 1 MPI processor grid
Created 19652 atoms
  Time spent = 0.00473881 secs
Setting atom values ...
  206 settings made for type/fraction
Neighbor list info ...
  update every 1 steps, delay 0 steps, check no
  max neighbors/atom: 2000, page size: 100000
  master list distance cutoff = 8.5
  ghost atom cutoff = 8.5
  binsize = 4.25, bins = 16 16 16
  1 neighbor lists, perpetual/occasional/extra = 1 0 0
  (1) pair eam/alloy, perpetual
      attributes: half, newton on
      pair build: half/bin/atomonly/newton
      stencil: half/bin/3d/newton
      bin: standard
Setting up Verlet run ...
  Unit style    : metal
  Current step  : 0
  Time step     : 0.001
Per MPI rank memory allocation (min/avg/max) = 18.19 | 18.19 | 18.19 Mbytes
Step Temp Press TotEng PotEng Enthalpy 
       0          300    639595.78   -102542.49   -103304.52    22980.119 
    1000    193.43993     581457.3   -102542.43   -103033.78    11570.333 
Loop time of 177.904 on 1 procs for 1000 steps with 19652 atoms

Performance: 0.486 ns/day, 49.418 hours/ns, 5.621 timesteps/s
99.3% CPU use with 1 MPI tasks x no OpenMP threads

MPI task timing breakdown:
Section |  min time  |  avg time  |  max time  |%varavg| %total
---------------------------------------------------------------
Pair    | 104.74     | 104.74     | 104.74     |   0.0 | 58.87
Neigh   | 70.497     | 70.497     | 70.497     |   0.0 | 39.63
Comm    | 1.6218     | 1.6218     | 1.6218     |   0.0 |  0.91
Output  | 0.00023317 | 0.00023317 | 0.00023317 |   0.0 |  0.00
Modify  | 0.55363    | 0.55363    | 0.55363    |   0.0 |  0.31
Other   |            | 0.4931     |            |       |  0.28

Nlocal:    19652 ave 19652 max 19652 min
Histogram: 1 0 0 0 0 0 0 0 0 0
Nghost:    19981 ave 19981 max 19981 min
Histogram: 1 0 0 0 0 0 0 0 0 0
Neighs:    1.56341e+06 ave 1.56341e+06 max 1.56341e+06 min
Histogram: 1 0 0 0 0 0 0 0 0 0

Total # of neighbors = 1563412
Ave neighs/atom = 79.5549
Neighbor list builds = 1000
Dangerous builds not checked
Setting up Verlet run ...
  Unit style    : metal
  Current step  : 1000
  Time step     : 0.001
Per MPI rank memory allocation (min/avg/max) = 18.19 | 18.19 | 18.19 Mbytes
Step Temp Press TotEng PotEng Enthalpy 
    1000    193.43993     581457.3   -102542.43   -103033.78    11570.333 
    2000    305.44237     -14.1381   -121861.85    -122637.7   -121865.88 
Loop time of 148.543 on 1 procs for 1000 steps with 19652 atoms

Performance: 0.582 ns/day, 41.262 hours/ns, 6.732 timesteps/s
99.6% CPU use with 1 MPI tasks x no OpenMP threads

MPI task timing breakdown:
Section |  min time  |  avg time  |  max time  |%varavg| %total
---------------------------------------------------------------
Pair    | 84.005     | 84.005     | 84.005     |   0.0 | 56.55
Neigh   | 61.068     | 61.068     | 61.068     |   0.0 | 41.11
Comm    | 1.3199     | 1.3199     | 1.3199     |   0.0 |  0.89
Output  | 0.00013995 | 0.00013995 | 0.00013995 |   0.0 |  0.00
Modify  | 1.6594     | 1.6594     | 1.6594     |   0.0 |  1.12
Other   |            | 0.4908     |            |       |  0.33

Nlocal:    19652 ave 19652 max 19652 min
Histogram: 1 0 0 0 0 0 0 0 0 0
Nghost:    14821 ave 14821 max 14821 min
Histogram: 1 0 0 0 0 0 0 0 0 0
Neighs:    1.09674e+06 ave 1.09674e+06 max 1.09674e+06 min
Histogram: 1 0 0 0 0 0 0 0 0 0

Total # of neighbors = 1096739
Ave neighs/atom = 55.808
Neighbor list builds = 1000
Dangerous builds not checked
Setting up Verlet run ...
  Unit style    : metal
  Current step  : 2000
  Time step     : 0.001
Per MPI rank memory allocation (min/avg/max) = 18.2 | 18.2 | 18.2 Mbytes
Step Temp Press TotEng PotEng Enthalpy 
    2000    305.44237     -14.1381   -121861.85    -122637.7   -121865.88 
    5000    1103.8756    52.951457   -117334.56   -120138.51   -117319.26 
   10000    2463.9392    799.24416   -106496.79   -112755.42   -106253.91 
Loop time of 1135.36 on 1 procs for 8000 steps with 19652 atoms

Performance: 0.609 ns/day, 39.422 hours/ns, 7.046 timesteps/s
98.6% CPU use with 1 MPI tasks x no OpenMP threads

MPI task timing breakdown:
Section |  min time  |  avg time  |  max time  |%varavg| %total
---------------------------------------------------------------
Pair    | 635.77     | 635.77     | 635.77     |   0.0 | 56.00
Neigh   | 471.17     | 471.17     | 471.17     |   0.0 | 41.50
Comm    | 10.585     | 10.585     | 10.585     |   0.0 |  0.93
Output  | 0.14485    | 0.14485    | 0.14485    |   0.0 |  0.01
Modify  | 13.739     | 13.739     | 13.739     |   0.0 |  1.21
Other   |            | 3.957      |            |       |  0.35

Nlocal:    19652 ave 19652 max 19652 min
Histogram: 1 0 0 0 0 0 0 0 0 0
Nghost:    15649 ave 15649 max 15649 min
Histogram: 1 0 0 0 0 0 0 0 0 0
Neighs:    1.00912e+06 ave 1.00912e+06 max 1.00912e+06 min
Histogram: 1 0 0 0 0 0 0 0 0 0

Total # of neighbors = 1009121
Ave neighs/atom = 51.3495
Neighbor list builds = 8000
Dangerous builds not checked
Setting up Verlet run ...
  Unit style    : metal
  Current step  : 10000
  Time step     : 0.001
Per MPI rank memory allocation (min/avg/max) = 18.2 | 18.2 | 18.2 Mbytes
Step Temp Press TotEng PotEng Enthalpy 
   10000    2463.9392    799.24416   -106496.79   -112755.42   -106253.91 
   15000    2446.7366   -605.60365   -106414.01   -112628.94    -106598.7 
   20000    2438.3111   -514.67161   -106407.04   -112600.57   -106563.95 
   25000    2432.9491    1155.3324   -106476.54   -112656.45   -106125.35 
   30000    2462.5175     1156.976   -106337.34   -112592.36   -105985.32 
   35000    2468.7114    719.97858   -106331.11   -112601.87   -106112.02 
   40000    2426.9464   -1299.8964   -106443.85   -112608.51    -106840.6 
Loop time of 4741.68 on 1 procs for 30000 steps with 19652 atoms

Performance: 0.547 ns/day, 43.904 hours/ns, 6.327 timesteps/s
98.4% CPU use with 1 MPI tasks x no OpenMP threads

MPI task timing breakdown:
Section |  min time  |  avg time  |  max time  |%varavg| %total
---------------------------------------------------------------
Pair    | 2682.2     | 2682.2     | 2682.2     |   0.0 | 56.57
Neigh   | 1946.8     | 1946.8     | 1946.8     |   0.0 | 41.06
Comm    | 42.751     | 42.751     | 42.751     |   0.0 |  0.90
Output  | 0.95277    | 0.95277    | 0.95277    |   0.0 |  0.02
Modify  | 53.585     | 53.585     | 53.585     |   0.0 |  1.13
Other   |            | 15.38      |            |       |  0.32

Nlocal:    19652 ave 19652 max 19652 min
Histogram: 1 0 0 0 0 0 0 0 0 0
Nghost:    15672 ave 15672 max 15672 min
Histogram: 1 0 0 0 0 0 0 0 0 0
Neighs:    1.00493e+06 ave 1.00493e+06 max 1.00493e+06 min
Histogram: 1 0 0 0 0 0 0 0 0 0

Total # of neighbors = 1004932
Ave neighs/atom = 51.1364
Neighbor list builds = 30000
Dangerous builds not checked
Setting up Verlet run ...
  Unit style    : metal
  Current step  : 40000
  Time step     : 0.001
Per MPI rank memory allocation (min/avg/max) = 18.2 | 18.2 | 18.2 Mbytes
Step Temp Press TotEng PotEng Enthalpy 
   40000    2426.9464   -1299.8964   -106443.85   -112608.51    -106840.6 
   40495    2407.8246    -1193.864    -106580.6   -112696.69   -106944.48 
Loop time of 74.5463 on 1 procs for 495 steps with 19652 atoms

Performance: 0.574 ns/day, 41.833 hours/ns, 6.640 timesteps/s
99.0% CPU use with 1 MPI tasks x no OpenMP threads

MPI task timing breakdown:
Section |  min time  |  avg time  |  max time  |%varavg| %total
---------------------------------------------------------------
Pair    | 41.941     | 41.941     | 41.941     |   0.0 | 56.26
Neigh   | 30.719     | 30.719     | 30.719     |   0.0 | 41.21
Comm    | 0.69965    | 0.69965    | 0.69965    |   0.0 |  0.94
Output  | 0.00017595 | 0.00017595 | 0.00017595 |   0.0 |  0.00
Modify  | 0.93368    | 0.93368    | 0.93368    |   0.0 |  1.25
Other   |            | 0.2523     |            |       |  0.34

Nlocal:    19652 ave 19652 max 19652 min
Histogram: 1 0 0 0 0 0 0 0 0 0
Nghost:    15721 ave 15721 max 15721 min
Histogram: 1 0 0 0 0 0 0 0 0 0
Neighs:    1.00652e+06 ave 1.00652e+06 max 1.00652e+06 min
Histogram: 1 0 0 0 0 0 0 0 0 0

Total # of neighbors = 1006519
Ave neighs/atom = 51.2171
Neighbor list builds = 495
Dangerous builds not checked
Setting up Verlet run ...
  Unit style    : metal
  Current step  : 40495
  Time step     : 0.001
Per MPI rank memory allocation (min/avg/max) = 18.2 | 18.2 | 18.2 Mbytes
Step Temp Press TotEng PotEng Enthalpy 
   40495    2407.8246    -1193.864    -106580.6   -112696.69   -106944.48 
   45000    2388.8462   -498.72237    -106769.1   -112836.99   -106920.77 
Loop time of 631.067 on 1 procs for 4505 steps with 19652 atoms

Performance: 0.617 ns/day, 38.912 hours/ns, 7.139 timesteps/s
98.1% CPU use with 1 MPI tasks x no OpenMP threads

MPI task timing breakdown:
Section |  min time  |  avg time  |  max time  |%varavg| %total
---------------------------------------------------------------
Pair    | 345.13     | 345.13     | 345.13     |   0.0 | 54.69
Neigh   | 270.98     | 270.98     | 270.98     |   0.0 | 42.94
Comm    | 5.5023     | 5.5023     | 5.5023     |   0.0 |  0.87
Output  | 0.10952    | 0.10952    | 0.10952    |   0.0 |  0.02
Modify  | 7.2924     | 7.2924     | 7.2924     |   0.0 |  1.16
Other   |            | 2.054      |            |       |  0.33

Nlocal:    19652 ave 19652 max 19652 min
Histogram: 1 0 0 0 0 0 0 0 0 0
Nghost:    15731 ave 15731 max 15731 min
Histogram: 1 0 0 0 0 0 0 0 0 0
Neighs:    1.00862e+06 ave 1.00862e+06 max 1.00862e+06 min
Histogram: 1 0 0 0 0 0 0 0 0 0

Total # of neighbors = 1008616
Ave neighs/atom = 51.3238
Neighbor list builds = 4505
Dangerous builds not checked
Setting up Verlet run ...
  Unit style    : metal
  Current step  : 45000
  Time step     : 0.001
Per MPI rank memory allocation (min/avg/max) = 18.2 | 18.2 | 18.2 Mbytes
Step Temp Press TotEng PotEng Enthalpy 
   45000    2388.8462   -498.72237    -106769.1   -112836.99   -106920.77 
   45495    2352.6631   -906.99746   -106836.58   -112812.56   -107112.49 
Loop time of 70.0509 on 1 procs for 495 steps with 19652 atoms

Performance: 0.611 ns/day, 39.310 hours/ns, 7.066 timesteps/s
98.7% CPU use with 1 MPI tasks x no OpenMP threads

MPI task timing breakdown:
Section |  min time  |  avg time  |  max time  |%varavg| %total
---------------------------------------------------------------
Pair    | 37.572     | 37.572     | 37.572     |   0.0 | 53.64
Neigh   | 30.827     | 30.827     | 30.827     |   0.0 | 44.01
Comm    | 0.59796    | 0.59796    | 0.59796    |   0.0 |  0.85
Output  | 0.00017786 | 0.00017786 | 0.00017786 |   0.0 |  0.00
Modify  | 0.82175    | 0.82175    | 0.82175    |   0.0 |  1.17
Other   |            | 0.2311     |            |       |  0.33

Nlocal:    19652 ave 19652 max 19652 min
Histogram: 1 0 0 0 0 0 0 0 0 0
Nghost:    15687 ave 15687 max 15687 min
Histogram: 1 0 0 0 0 0 0 0 0 0
Neighs:    1.00801e+06 ave 1.00801e+06 max 1.00801e+06 min
Histogram: 1 0 0 0 0 0 0 0 0 0

Total # of neighbors = 1008008
Ave neighs/atom = 51.2929
Neighbor list builds = 495
Dangerous builds not checked
Setting up Verlet run ...
  Unit style    : metal
  Current step  : 45495
  Time step     : 0.001
Per MPI rank memory allocation (min/avg/max) = 18.2 | 18.2 | 18.2 Mbytes
Step Temp Press TotEng PotEng Enthalpy 
   45495    2352.6631   -906.99746   -106836.58   -112812.56   -107112.49 
   50000    2360.1584    1646.9855   -106961.04   -112956.06    -106462.1 
Loop time of 642.875 on 1 procs for 4505 steps with 19652 atoms

Performance: 0.605 ns/day, 39.640 hours/ns, 7.008 timesteps/s
98.7% CPU use with 1 MPI tasks x no OpenMP threads

MPI task timing breakdown:
Section |  min time  |  avg time  |  max time  |%varavg| %total
---------------------------------------------------------------
Pair    | 355.71     | 355.71     | 355.71     |   0.0 | 55.33
Neigh   | 271.41     | 271.41     | 271.41     |   0.0 | 42.22
Comm    | 5.8455     | 5.8455     | 5.8455     |   0.0 |  0.91
Output  | 0.22885    | 0.22885    | 0.22885    |   0.0 |  0.04
Modify  | 7.4762     | 7.4762     | 7.4762     |   0.0 |  1.16
Other   |            | 2.197      |            |       |  0.34

Nlocal:    19652 ave 19652 max 19652 min
Histogram: 1 0 0 0 0 0 0 0 0 0
Nghost:    15772 ave 15772 max 15772 min
Histogram: 1 0 0 0 0 0 0 0 0 0
Neighs:    1.01271e+06 ave 1.01271e+06 max 1.01271e+06 min
Histogram: 1 0 0 0 0 0 0 0 0 0

Total # of neighbors = 1012711
Ave neighs/atom = 51.5322
Neighbor list builds = 4505
Dangerous builds not checked
Setting up Verlet run ...
  Unit style    : metal
  Current step  : 50000
  Time step     : 0.001
Per MPI rank memory allocation (min/avg/max) = 18.2 | 18.2 | 18.2 Mbytes
Step Temp Press TotEng PotEng Enthalpy 
   50000    2360.1584    1646.9855   -106961.04   -112956.06    -106462.1 
   50495    2312.3032    968.68362   -107173.04    -113046.5   -106879.92 
Loop time of 69.5342 on 1 procs for 495 steps with 19652 atoms

Performance: 0.615 ns/day, 39.020 hours/ns, 7.119 timesteps/s
98.2% CPU use with 1 MPI tasks x no OpenMP threads

MPI task timing breakdown:
Section |  min time  |  avg time  |  max time  |%varavg| %total
---------------------------------------------------------------
Pair    | 38.2       | 38.2       | 38.2       |   0.0 | 54.94
Neigh   | 29.561     | 29.561     | 29.561     |   0.0 | 42.51
Comm    | 0.68072    | 0.68072    | 0.68072    |   0.0 |  0.98
Output  | 0.00013208 | 0.00013208 | 0.00013208 |   0.0 |  0.00
Modify  | 0.83116    | 0.83116    | 0.83116    |   0.0 |  1.20
Other   |            | 0.2614     |            |       |  0.38

Nlocal:    19652 ave 19652 max 19652 min
Histogram: 1 0 0 0 0 0 0 0 0 0
Nghost:    15728 ave 15728 max 15728 min
Histogram: 1 0 0 0 0 0 0 0 0 0
Neighs:    1.0137e+06 ave 1.0137e+06 max 1.0137e+06 min
Histogram: 1 0 0 0 0 0 0 0 0 0

Total # of neighbors = 1013702
Ave neighs/atom = 51.5826
Neighbor list builds = 495
Dangerous builds not checked
Setting up Verlet run ...
  Unit style    : metal
  Current step  : 50495
  Time step     : 0.001
Per MPI rank memory allocation (min/avg/max) = 18.2 | 18.2 | 18.2 Mbytes
Step Temp Press TotEng PotEng Enthalpy 
   50495    2312.3032    968.68362   -107173.04    -113046.5   -106879.92 
   55000    2294.0984   -2036.0426   -107353.74   -113180.96   -107972.12 
Loop time of 664.569 on 1 procs for 4505 steps with 19652 atoms

Performance: 0.586 ns/day, 40.977 hours/ns, 6.779 timesteps/s
99.2% CPU use with 1 MPI tasks x no OpenMP threads

MPI task timing breakdown:
Section |  min time  |  avg time  |  max time  |%varavg| %total
---------------------------------------------------------------
Pair    | 369.61     | 369.61     | 369.61     |   0.0 | 55.62
Neigh   | 278.76     | 278.76     | 278.76     |   0.0 | 41.95
Comm    | 6.0494     | 6.0494     | 6.0494     |   0.0 |  0.91
Output  | 0.14912    | 0.14912    | 0.14912    |   0.0 |  0.02
Modify  | 7.7753     | 7.7753     | 7.7753     |   0.0 |  1.17
Other   |            | 2.225      |            |       |  0.33

Nlocal:    19652 ave 19652 max 19652 min
Histogram: 1 0 0 0 0 0 0 0 0 0
Nghost:    15659 ave 15659 max 15659 min
Histogram: 1 0 0 0 0 0 0 0 0 0
Neighs:    1.00996e+06 ave 1.00996e+06 max 1.00996e+06 min
Histogram: 1 0 0 0 0 0 0 0 0 0

Total # of neighbors = 1009962
Ave neighs/atom = 51.3923
Neighbor list builds = 4505
Dangerous builds not checked
Setting up Verlet run ...
  Unit style    : metal
  Current step  : 55000
  Time step     : 0.001
Per MPI rank memory allocation (min/avg/max) = 18.2 | 18.2 | 18.2 Mbytes
Step Temp Press TotEng PotEng Enthalpy 
   55000    2294.0984   -2036.0426   -107353.74   -113180.96   -107972.12 
   55495    2251.8658   -1442.1203    -107505.8   -113225.75   -107943.15 
Loop time of 64.9642 on 1 procs for 495 steps with 19652 atoms

Performance: 0.658 ns/day, 36.456 hours/ns, 7.620 timesteps/s
97.9% CPU use with 1 MPI tasks x no OpenMP threads

MPI task timing breakdown:
Section |  min time  |  avg time  |  max time  |%varavg| %total
---------------------------------------------------------------
Pair    | 34.759     | 34.759     | 34.759     |   0.0 | 53.50
Neigh   | 28.662     | 28.662     | 28.662     |   0.0 | 44.12
Comm    | 0.55534    | 0.55534    | 0.55534    |   0.0 |  0.85
Output  | 0.00017405 | 0.00017405 | 0.00017405 |   0.0 |  0.00
Modify  | 0.77326    | 0.77326    | 0.77326    |   0.0 |  1.19
Other   |            | 0.2143     |            |       |  0.33

Nlocal:    19652 ave 19652 max 19652 min
Histogram: 1 0 0 0 0 0 0 0 0 0
Nghost:    15667 ave 15667 max 15667 min
Histogram: 1 0 0 0 0 0 0 0 0 0
Neighs:    1.01141e+06 ave 1.01141e+06 max 1.01141e+06 min
Histogram: 1 0 0 0 0 0 0 0 0 0

Total # of neighbors = 1011411
Ave neighs/atom = 51.4661
Neighbor list builds = 495
Dangerous builds not checked
Setting up Verlet run ...
  Unit style    : metal
  Current step  : 55495
  Time step     : 0.001
Per MPI rank memory allocation (min/avg/max) = 18.2 | 18.2 | 18.2 Mbytes
Step Temp Press TotEng PotEng Enthalpy 
   55495    2251.8658   -1442.1203    -107505.8   -113225.75   -107943.15 
   60000    2270.8527   -450.94318   -107567.84   -113336.01   -107704.28 
Loop time of 599.598 on 1 procs for 4505 steps with 19652 atoms

Performance: 0.649 ns/day, 36.971 hours/ns, 7.513 timesteps/s
98.9% CPU use with 1 MPI tasks x no OpenMP threads

MPI task timing breakdown:
Section |  min time  |  avg time  |  max time  |%varavg| %total
---------------------------------------------------------------
Pair    | 322.14     | 322.14     | 322.14     |   0.0 | 53.73
Neigh   | 263.13     | 263.13     | 263.13     |   0.0 | 43.88
Comm    | 5.2311     | 5.2311     | 5.2311     |   0.0 |  0.87
Output  | 0.1698     | 0.1698     | 0.1698     |   0.0 |  0.03
Modify  | 7.012      | 7.012      | 7.012      |   0.0 |  1.17
Other   |            | 1.918      |            |       |  0.32

Nlocal:    19652 ave 19652 max 19652 min
Histogram: 1 0 0 0 0 0 0 0 0 0
Nghost:    15650 ave 15650 max 15650 min
Histogram: 1 0 0 0 0 0 0 0 0 0
Neighs:    1.01418e+06 ave 1.01418e+06 max 1.01418e+06 min
Histogram: 1 0 0 0 0 0 0 0 0 0

Total # of neighbors = 1014185
Ave neighs/atom = 51.6072
Neighbor list builds = 4505
Dangerous builds not checked
Setting up Verlet run ...
  Unit style    : metal
  Current step  : 60000
  Time step     : 0.001
Per MPI rank memory allocation (min/avg/max) = 18.2 | 18.2 | 18.2 Mbytes
Step Temp Press TotEng PotEng Enthalpy 
   60000    2270.8527   -450.94318   -107567.84   -113336.01   -107704.28 
   60495    2234.9505   -1096.5331   -107827.33    -113504.3   -108158.85 
Loop time of 68.613 on 1 procs for 495 steps with 19652 atoms

Performance: 0.623 ns/day, 38.503 hours/ns, 7.214 timesteps/s
98.0% CPU use with 1 MPI tasks x no OpenMP threads

MPI task timing breakdown:
Section |  min time  |  avg time  |  max time  |%varavg| %total
---------------------------------------------------------------
Pair    | 36.879     | 36.879     | 36.879     |   0.0 | 53.75
Neigh   | 30.015     | 30.015     | 30.015     |   0.0 | 43.75
Comm    | 0.62147    | 0.62147    | 0.62147    |   0.0 |  0.91
Output  | 0.00016189 | 0.00016189 | 0.00016189 |   0.0 |  0.00
Modify  | 0.84987    | 0.84987    | 0.84987    |   0.0 |  1.24
Other   |            | 0.2477     |            |       |  0.36

Nlocal:    19652 ave 19652 max 19652 min
Histogram: 1 0 0 0 0 0 0 0 0 0
Nghost:    15716 ave 15716 max 15716 min
Histogram: 1 0 0 0 0 0 0 0 0 0
Neighs:    1.01461e+06 ave 1.01461e+06 max 1.01461e+06 min
Histogram: 1 0 0 0 0 0 0 0 0 0

Total # of neighbors = 1014608
Ave neighs/atom = 51.6287
Neighbor list builds = 495
Dangerous builds not checked
Setting up Verlet run ...
  Unit style    : metal
  Current step  : 60495
  Time step     : 0.001
Per MPI rank memory allocation (min/avg/max) = 18.2 | 18.2 | 18.2 Mbytes
Step Temp Press TotEng PotEng Enthalpy 
   60495    2234.9505   -1096.5331   -107827.33    -113504.3   -108158.85 
   65000    2188.7951   -329.43207    -107926.3   -113486.04   -108025.75 
Loop time of 637.566 on 1 procs for 4505 steps with 19652 atoms

Performance: 0.610 ns/day, 39.312 hours/ns, 7.066 timesteps/s
99.3% CPU use with 1 MPI tasks x no OpenMP threads

MPI task timing breakdown:
Section |  min time  |  avg time  |  max time  |%varavg| %total
---------------------------------------------------------------
Pair    | 350.09     | 350.09     | 350.09     |   0.0 | 54.91
Neigh   | 272.22     | 272.22     | 272.22     |   0.0 | 42.70
Comm    | 5.656      | 5.656      | 5.656      |   0.0 |  0.89
Output  | 0.080534   | 0.080534   | 0.080534   |   0.0 |  0.01
Modify  | 7.4033     | 7.4033     | 7.4033     |   0.0 |  1.16
Other   |            | 2.12       |            |       |  0.33

Nlocal:    19652 ave 19652 max 19652 min
Histogram: 1 0 0 0 0 0 0 0 0 0
Nghost:    15719 ave 15719 max 15719 min
Histogram: 1 0 0 0 0 0 0 0 0 0
Neighs:    1.01666e+06 ave 1.01666e+06 max 1.01666e+06 min
Histogram: 1 0 0 0 0 0 0 0 0 0

Total # of neighbors = 1016661
Ave neighs/atom = 51.7332
Neighbor list builds = 4505
Dangerous builds not checked
Setting up Verlet run ...
  Unit style    : metal
  Current step  : 65000
  Time step     : 0.001
Per MPI rank memory allocation (min/avg/max) = 18.2 | 18.2 | 18.2 Mbytes
Step Temp Press TotEng PotEng Enthalpy 
   65000    2188.7951   -329.43207    -107926.3   -113486.04   -108025.75 
   65495    2167.5534    704.81993   -108129.46   -113635.24   -107917.21 
Loop time of 69.5479 on 1 procs for 495 steps with 19652 atoms

Performance: 0.615 ns/day, 39.028 hours/ns, 7.117 timesteps/s
100.0% CPU use with 1 MPI tasks x no OpenMP threads

MPI task timing breakdown:
Section |  min time  |  avg time  |  max time  |%varavg| %total
---------------------------------------------------------------
Pair    | 38.451     | 38.451     | 38.451     |   0.0 | 55.29
Neigh   | 29.408     | 29.408     | 29.408     |   0.0 | 42.28
Comm    | 0.63347    | 0.63347    | 0.63347    |   0.0 |  0.91
Output  | 0.00017285 | 0.00017285 | 0.00017285 |   0.0 |  0.00
Modify  | 0.81987    | 0.81987    | 0.81987    |   0.0 |  1.18
Other   |            | 0.2354     |            |       |  0.34

Nlocal:    19652 ave 19652 max 19652 min
Histogram: 1 0 0 0 0 0 0 0 0 0
Nghost:    15719 ave 15719 max 15719 min
Histogram: 1 0 0 0 0 0 0 0 0 0
Neighs:    1.01917e+06 ave 1.01917e+06 max 1.01917e+06 min
Histogram: 1 0 0 0 0 0 0 0 0 0

Total # of neighbors = 1019173
Ave neighs/atom = 51.861
Neighbor list builds = 495
Dangerous builds not checked
Setting up Verlet run ...
  Unit style    : metal
  Current step  : 65495
  Time step     : 0.001
Per MPI rank memory allocation (min/avg/max) = 18.2 | 18.2 | 18.2 Mbytes
Step Temp Press TotEng PotEng Enthalpy 
   65495    2167.5534    704.81993   -108129.46   -113635.24   -107917.21 
   70000    2135.7474   -454.47732   -108266.58   -113691.57   -108403.56 
Loop time of 684.983 on 1 procs for 4505 steps with 19652 atoms

Performance: 0.568 ns/day, 42.236 hours/ns, 6.577 timesteps/s
98.6% CPU use with 1 MPI tasks x no OpenMP threads

MPI task timing breakdown:
Section |  min time  |  avg time  |  max time  |%varavg| %total
---------------------------------------------------------------
Pair    | 385.27     | 385.27     | 385.27     |   0.0 | 56.25
Neigh   | 282.93     | 282.93     | 282.93     |   0.0 | 41.30
Comm    | 6.3138     | 6.3138     | 6.3138     |   0.0 |  0.92
Output  | 0.081396   | 0.081396   | 0.081396   |   0.0 |  0.01
Modify  | 8.0791     | 8.0791     | 8.0791     |   0.0 |  1.18
Other   |            | 2.309      |            |       |  0.34

Nlocal:    19652 ave 19652 max 19652 min
Histogram: 1 0 0 0 0 0 0 0 0 0
Nghost:    15687 ave 15687 max 15687 min
Histogram: 1 0 0 0 0 0 0 0 0 0
Neighs:    1.01797e+06 ave 1.01797e+06 max 1.01797e+06 min
Histogram: 1 0 0 0 0 0 0 0 0 0

Total # of neighbors = 1017974
Ave neighs/atom = 51.8
Neighbor list builds = 4505
Dangerous builds not checked
Setting up Verlet run ...
  Unit style    : metal
  Current step  : 70000
  Time step     : 0.001
Per MPI rank memory allocation (min/avg/max) = 18.2 | 18.2 | 18.2 Mbytes
Step Temp Press TotEng PotEng Enthalpy 
   70000    2135.7474   -454.47732   -108266.58   -113691.57   -108403.56 
   70495    2106.3105    511.16479   -108449.65   -113799.87   -108295.95 
Loop time of 74.4754 on 1 procs for 495 steps with 19652 atoms

Performance: 0.574 ns/day, 41.793 hours/ns, 6.646 timesteps/s
98.3% CPU use with 1 MPI tasks x no OpenMP threads

MPI task timing breakdown:
Section |  min time  |  avg time  |  max time  |%varavg| %total
---------------------------------------------------------------
Pair    | 41.228     | 41.228     | 41.228     |   0.0 | 55.36
Neigh   | 31.431     | 31.431     | 31.431     |   0.0 | 42.20
Comm    | 0.66429    | 0.66429    | 0.66429    |   0.0 |  0.89
Output  | 0.00019193 | 0.00019193 | 0.00019193 |   0.0 |  0.00
Modify  | 0.87907    | 0.87907    | 0.87907    |   0.0 |  1.18
Other   |            | 0.2737     |            |       |  0.37

Nlocal:    19652 ave 19652 max 19652 min
Histogram: 1 0 0 0 0 0 0 0 0 0
Nghost:    15705 ave 15705 max 15705 min
Histogram: 1 0 0 0 0 0 0 0 0 0
Neighs:    1.02089e+06 ave 1.02089e+06 max 1.02089e+06 min
Histogram: 1 0 0 0 0 0 0 0 0 0

Total # of neighbors = 1020894
Ave neighs/atom = 51.9486
Neighbor list builds = 495
Dangerous builds not checked
Setting up Verlet run ...
  Unit style    : metal
  Current step  : 70495
  Time step     : 0.001
Per MPI rank memory allocation (min/avg/max) = 18.2 | 18.2 | 18.2 Mbytes
Step Temp Press TotEng PotEng Enthalpy 
   70495    2106.3105    511.16479   -108449.65   -113799.87   -108295.95 
   75000    2080.9907    61.651747   -108666.48   -113952.39   -108647.95 
Loop time of 655.298 on 1 procs for 4505 steps with 19652 atoms

Performance: 0.594 ns/day, 40.406 hours/ns, 6.875 timesteps/s
99.6% CPU use with 1 MPI tasks x no OpenMP threads

MPI task timing breakdown:
Section |  min time  |  avg time  |  max time  |%varavg| %total
---------------------------------------------------------------
Pair    | 363.55     | 363.55     | 363.55     |   0.0 | 55.48
Neigh   | 276.15     | 276.15     | 276.15     |   0.0 | 42.14
Comm    | 5.825      | 5.825      | 5.825      |   0.0 |  0.89
Output  | 0.082981   | 0.082981   | 0.082981   |   0.0 |  0.01
Modify  | 7.5942     | 7.5942     | 7.5942     |   0.0 |  1.16
Other   |            | 2.095      |            |       |  0.32

Nlocal:    19652 ave 19652 max 19652 min
Histogram: 1 0 0 0 0 0 0 0 0 0
Nghost:    15657 ave 15657 max 15657 min
Histogram: 1 0 0 0 0 0 0 0 0 0
Neighs:    1.02171e+06 ave 1.02171e+06 max 1.02171e+06 min
Histogram: 1 0 0 0 0 0 0 0 0 0

Total # of neighbors = 1021710
Ave neighs/atom = 51.9901
Neighbor list builds = 4505
Dangerous builds not checked
Setting up Verlet run ...
  Unit style    : metal
  Current step  : 75000
  Time step     : 0.001
Per MPI rank memory allocation (min/avg/max) = 18.2 | 18.2 | 18.2 Mbytes
Step Temp Press TotEng PotEng Enthalpy 
   75000    2080.9907    61.651747   -108666.48   -113952.39   -108647.95 
   75495    2076.6094    572.43738   -108742.51   -114017.29   -108570.67 
Loop time of 66.8375 on 1 procs for 495 steps with 19652 atoms

Performance: 0.640 ns/day, 37.507 hours/ns, 7.406 timesteps/s
99.7% CPU use with 1 MPI tasks x no OpenMP threads

MPI task timing breakdown:
Section |  min time  |  avg time  |  max time  |%varavg| %total
---------------------------------------------------------------
Pair    | 36.154     | 36.154     | 36.154     |   0.0 | 54.09
Neigh   | 29.051     | 29.051     | 29.051     |   0.0 | 43.47
Comm    | 0.59096    | 0.59096    | 0.59096    |   0.0 |  0.88
Output  | 0.00016999 | 0.00016999 | 0.00016999 |   0.0 |  0.00
Modify  | 0.8068     | 0.8068     | 0.8068     |   0.0 |  1.21
Other   |            | 0.234      |            |       |  0.35

Nlocal:    19652 ave 19652 max 19652 min
Histogram: 1 0 0 0 0 0 0 0 0 0
Nghost:    15732 ave 15732 max 15732 min
Histogram: 1 0 0 0 0 0 0 0 0 0
Neighs:    1.0232e+06 ave 1.0232e+06 max 1.0232e+06 min
Histogram: 1 0 0 0 0 0 0 0 0 0

Total # of neighbors = 1023204
Ave neighs/atom = 52.0662
Neighbor list builds = 495
Dangerous builds not checked
Setting up Verlet run ...
  Unit style    : metal
  Current step  : 75495
  Time step     : 0.001
Per MPI rank memory allocation (min/avg/max) = 18.2 | 18.2 | 18.2 Mbytes
Step Temp Press TotEng PotEng Enthalpy 
   75495    2076.6094    572.43738   -108742.51   -114017.29   -108570.67 
   80000    2053.9911   -594.19899   -108886.49   -114103.82   -109064.99 
Loop time of 648.913 on 1 procs for 4505 steps with 19652 atoms

Performance: 0.600 ns/day, 40.012 hours/ns, 6.942 timesteps/s
99.1% CPU use with 1 MPI tasks x no OpenMP threads

MPI task timing breakdown:
Section |  min time  |  avg time  |  max time  |%varavg| %total
---------------------------------------------------------------
Pair    | 356.79     | 356.79     | 356.79     |   0.0 | 54.98
Neigh   | 276.48     | 276.48     | 276.48     |   0.0 | 42.61
Comm    | 5.7917     | 5.7917     | 5.7917     |   0.0 |  0.89
Output  | 0.076882   | 0.076882   | 0.076882   |   0.0 |  0.01
Modify  | 7.7088     | 7.7088     | 7.7088     |   0.0 |  1.19
Other   |            | 2.066      |            |       |  0.32

Nlocal:    19652 ave 19652 max 19652 min
Histogram: 1 0 0 0 0 0 0 0 0 0
Nghost:    15711 ave 15711 max 15711 min
Histogram: 1 0 0 0 0 0 0 0 0 0
Neighs:    1.02217e+06 ave 1.02217e+06 max 1.02217e+06 min
Histogram: 1 0 0 0 0 0 0 0 0 0

Total # of neighbors = 1022170
Ave neighs/atom = 52.0135
Neighbor list builds = 4505
Dangerous builds not checked
Setting up Verlet run ...
  Unit style    : metal
  Current step  : 80000
  Time step     : 0.001
Per MPI rank memory allocation (min/avg/max) = 18.2 | 18.2 | 18.2 Mbytes
Step Temp Press TotEng PotEng Enthalpy 
   80000    2053.9911   -594.19899   -108886.49   -114103.82   -109064.99 
   80495    2017.2164   -479.48315   -109042.85   -114166.77   -109186.86 
Loop time of 65.4349 on 1 procs for 495 steps with 19652 atoms

Performance: 0.654 ns/day, 36.720 hours/ns, 7.565 timesteps/s
98.6% CPU use with 1 MPI tasks x no OpenMP threads

MPI task timing breakdown:
Section |  min time  |  avg time  |  max time  |%varavg| %total
---------------------------------------------------------------
Pair    | 35.22      | 35.22      | 35.22      |   0.0 | 53.83
Neigh   | 28.635     | 28.635     | 28.635     |   0.0 | 43.76
Comm    | 0.57873    | 0.57873    | 0.57873    |   0.0 |  0.88
Output  | 0.00014806 | 0.00014806 | 0.00014806 |   0.0 |  0.00
Modify  | 0.77061    | 0.77061    | 0.77061    |   0.0 |  1.18
Other   |            | 0.2301     |            |       |  0.35

Nlocal:    19652 ave 19652 max 19652 min
Histogram: 1 0 0 0 0 0 0 0 0 0
Nghost:    15703 ave 15703 max 15703 min
Histogram: 1 0 0 0 0 0 0 0 0 0
Neighs:    1.02256e+06 ave 1.02256e+06 max 1.02256e+06 min
Histogram: 1 0 0 0 0 0 0 0 0 0

Total # of neighbors = 1022561
Ave neighs/atom = 52.0334
Neighbor list builds = 495
Dangerous builds not checked
Setting up Verlet run ...
  Unit style    : metal
  Current step  : 80495
  Time step     : 0.001
Per MPI rank memory allocation (min/avg/max) = 18.2 | 18.2 | 18.2 Mbytes
Step Temp Press TotEng PotEng Enthalpy 
   80495    2017.2164   -479.48315   -109042.85   -114166.77   -109186.86 
   85000    1996.8868     36.92487   -109207.08   -114279.35   -109196.02 
Loop time of 604.732 on 1 procs for 4505 steps with 19652 atoms

Performance: 0.644 ns/day, 37.288 hours/ns, 7.450 timesteps/s
99.0% CPU use with 1 MPI tasks x no OpenMP threads

MPI task timing breakdown:
Section |  min time  |  avg time  |  max time  |%varavg| %total
---------------------------------------------------------------
Pair    | 324.43     | 324.43     | 324.43     |   0.0 | 53.65
Neigh   | 265.91     | 265.91     | 265.91     |   0.0 | 43.97
Comm    | 5.2421     | 5.2421     | 5.2421     |   0.0 |  0.87
Output  | 0.074473   | 0.074473   | 0.074473   |   0.0 |  0.01
Modify  | 7.1457     | 7.1457     | 7.1457     |   0.0 |  1.18
Other   |            | 1.924      |            |       |  0.32

Nlocal:    19652 ave 19652 max 19652 min
Histogram: 1 0 0 0 0 0 0 0 0 0
Nghost:    15797 ave 15797 max 15797 min
Histogram: 1 0 0 0 0 0 0 0 0 0
Neighs:    1.02592e+06 ave 1.02592e+06 max 1.02592e+06 min
Histogram: 1 0 0 0 0 0 0 0 0 0

Total # of neighbors = 1025920
Ave neighs/atom = 52.2044
Neighbor list builds = 4505
Dangerous builds not checked
Setting up Verlet run ...
  Unit style    : metal
  Current step  : 85000
  Time step     : 0.001
Per MPI rank memory allocation (min/avg/max) = 18.2 | 18.2 | 18.2 Mbytes
Step Temp Press TotEng PotEng Enthalpy 
   85000    1996.8868     36.92487   -109207.08   -114279.35   -109196.02 
   85495    1951.7469      943.593   -109413.93   -114371.54   -109131.89 
Loop time of 70.5666 on 1 procs for 495 steps with 19652 atoms

Performance: 0.606 ns/day, 39.600 hours/ns, 7.015 timesteps/s
97.0% CPU use with 1 MPI tasks x no OpenMP threads

MPI task timing breakdown:
Section |  min time  |  avg time  |  max time  |%varavg| %total
---------------------------------------------------------------
Pair    | 38.409     | 38.409     | 38.409     |   0.0 | 54.43
Neigh   | 30.451     | 30.451     | 30.451     |   0.0 | 43.15
Comm    | 0.62549    | 0.62549    | 0.62549    |   0.0 |  0.89
Output  | 0.00013709 | 0.00013709 | 0.00013709 |   0.0 |  0.00
Modify  | 0.84943    | 0.84943    | 0.84943    |   0.0 |  1.20
Other   |            | 0.2319     |            |       |  0.33

Nlocal:    19652 ave 19652 max 19652 min
Histogram: 1 0 0 0 0 0 0 0 0 0
Nghost:    15770 ave 15770 max 15770 min
Histogram: 1 0 0 0 0 0 0 0 0 0
Neighs:    1.02756e+06 ave 1.02756e+06 max 1.02756e+06 min
Histogram: 1 0 0 0 0 0 0 0 0 0

Total # of neighbors = 1027560
Ave neighs/atom = 52.2878
Neighbor list builds = 495
Dangerous builds not checked
Setting up Verlet run ...
  Unit style    : metal
  Current step  : 85495
  Time step     : 0.001
Per MPI rank memory allocation (min/avg/max) = 18.2 | 18.2 | 18.2 Mbytes
Step Temp Press TotEng PotEng Enthalpy 
   85495    1951.7469      943.593   -109413.93   -114371.54   -109131.89 
   90000     1943.582    -147.8995    -109511.1   -114447.98   -109555.35 
Loop time of 661.288 on 1 procs for 4505 steps with 19652 atoms

Performance: 0.589 ns/day, 40.775 hours/ns, 6.812 timesteps/s
97.0% CPU use with 1 MPI tasks x no OpenMP threads

MPI task timing breakdown:
Section |  min time  |  avg time  |  max time  |%varavg| %total
---------------------------------------------------------------
Pair    | 365.24     | 365.24     | 365.24     |   0.0 | 55.23
Neigh   | 280.14     | 280.14     | 280.14     |   0.0 | 42.36
Comm    | 5.934      | 5.934      | 5.934      |   0.0 |  0.90
Output  | 0.085011   | 0.085011   | 0.085011   |   0.0 |  0.01
Modify  | 7.7295     | 7.7295     | 7.7295     |   0.0 |  1.17
Other   |            | 2.16       |            |       |  0.33

Nlocal:    19652 ave 19652 max 19652 min
Histogram: 1 0 0 0 0 0 0 0 0 0
Nghost:    15815 ave 15815 max 15815 min
Histogram: 1 0 0 0 0 0 0 0 0 0
Neighs:    1.02686e+06 ave 1.02686e+06 max 1.02686e+06 min
Histogram: 1 0 0 0 0 0 0 0 0 0

Total # of neighbors = 1026855
Ave neighs/atom = 52.2519
Neighbor list builds = 4505
Dangerous builds not checked
Setting up Verlet run ...
  Unit style    : metal
  Current step  : 90000
  Time step     : 0.001
Per MPI rank memory allocation (min/avg/max) = 18.2 | 18.2 | 18.2 Mbytes
Step Temp Press TotEng PotEng Enthalpy 
   90000     1943.582    -147.8995    -109511.1   -114447.98   -109555.35 
   90495    1919.0443    385.64252   -109713.02   -114587.57   -109597.86 
Loop time of 65.1543 on 1 procs for 495 steps with 19652 atoms

Performance: 0.656 ns/day, 36.562 hours/ns, 7.597 timesteps/s
99.5% CPU use with 1 MPI tasks x no OpenMP threads

MPI task timing breakdown:
Section |  min time  |  avg time  |  max time  |%varavg| %total
---------------------------------------------------------------
Pair    | 35.365     | 35.365     | 35.365     |   0.0 | 54.28
Neigh   | 28.217     | 28.217     | 28.217     |   0.0 | 43.31
Comm    | 0.57056    | 0.57056    | 0.57056    |   0.0 |  0.88
Output  | 0.00017405 | 0.00017405 | 0.00017405 |   0.0 |  0.00
Modify  | 0.77125    | 0.77125    | 0.77125    |   0.0 |  1.18
Other   |            | 0.2304     |            |       |  0.35

Nlocal:    19652 ave 19652 max 19652 min
Histogram: 1 0 0 0 0 0 0 0 0 0
Nghost:    15809 ave 15809 max 15809 min
Histogram: 1 0 0 0 0 0 0 0 0 0
Neighs:    1.0293e+06 ave 1.0293e+06 max 1.0293e+06 min
Histogram: 1 0 0 0 0 0 0 0 0 0

Total # of neighbors = 1029299
Ave neighs/atom = 52.3763
Neighbor list builds = 495
Dangerous builds not checked
Setting up Verlet run ...
  Unit style    : metal
  Current step  : 90495
  Time step     : 0.001
Per MPI rank memory allocation (min/avg/max) = 18.2 | 18.2 | 18.2 Mbytes
Step Temp Press TotEng PotEng Enthalpy 
   90495    1919.0443    385.64252   -109713.02   -114587.57   -109597.86 
   95000    1896.5524   -1438.8737   -109888.27   -114705.69   -110318.61 
Loop time of 632.793 on 1 procs for 4505 steps with 19652 atoms

Performance: 0.615 ns/day, 39.018 hours/ns, 7.119 timesteps/s
98.6% CPU use with 1 MPI tasks x no OpenMP threads

MPI task timing breakdown:
Section |  min time  |  avg time  |  max time  |%varavg| %total
---------------------------------------------------------------
Pair    | 347.35     | 347.35     | 347.35     |   0.0 | 54.89
Neigh   | 270.38     | 270.38     | 270.38     |   0.0 | 42.73
Comm    | 5.6024     | 5.6024     | 5.6024     |   0.0 |  0.89
Output  | 0.059202   | 0.059202   | 0.059202   |   0.0 |  0.01
Modify  | 7.365      | 7.365      | 7.365      |   0.0 |  1.16
Other   |            | 2.032      |            |       |  0.32

Nlocal:    19652 ave 19652 max 19652 min
Histogram: 1 0 0 0 0 0 0 0 0 0
Nghost:    15798 ave 15798 max 15798 min
Histogram: 1 0 0 0 0 0 0 0 0 0
Neighs:    1.02754e+06 ave 1.02754e+06 max 1.02754e+06 min
Histogram: 1 0 0 0 0 0 0 0 0 0

Total # of neighbors = 1027538
Ave neighs/atom = 52.2867
Neighbor list builds = 4505
Dangerous builds not checked
Setting up Verlet run ...
  Unit style    : metal
  Current step  : 95000
  Time step     : 0.001
Per MPI rank memory allocation (min/avg/max) = 18.2 | 18.2 | 18.2 Mbytes
Step Temp Press TotEng PotEng Enthalpy 
   95000    1896.5524   -1438.8737   -109888.27   -114705.69   -110318.61 
   95495    1853.8603   -835.97461   -110099.57   -114808.54   -110349.06 
Loop time of 68.8229 on 1 procs for 495 steps with 19652 atoms

Performance: 0.621 ns/day, 38.621 hours/ns, 7.192 timesteps/s
98.9% CPU use with 1 MPI tasks x no OpenMP threads

MPI task timing breakdown:
Section |  min time  |  avg time  |  max time  |%varavg| %total
---------------------------------------------------------------
Pair    | 37.405     | 37.405     | 37.405     |   0.0 | 54.35
Neigh   | 29.836     | 29.836     | 29.836     |   0.0 | 43.35
Comm    | 0.58695    | 0.58695    | 0.58695    |   0.0 |  0.85
Output  | 0.00015688 | 0.00015688 | 0.00015688 |   0.0 |  0.00
Modify  | 0.77434    | 0.77434    | 0.77434    |   0.0 |  1.13
Other   |            | 0.2209     |            |       |  0.32

Nlocal:    19652 ave 19652 max 19652 min
Histogram: 1 0 0 0 0 0 0 0 0 0
Nghost:    15798 ave 15798 max 15798 min
Histogram: 1 0 0 0 0 0 0 0 0 0
Neighs:    1.0296e+06 ave 1.0296e+06 max 1.0296e+06 min
Histogram: 1 0 0 0 0 0 0 0 0 0

Total # of neighbors = 1029596
Ave neighs/atom = 52.3914
Neighbor list builds = 495
Dangerous builds not checked
Setting up Verlet run ...
  Unit style    : metal
  Current step  : 95495
  Time step     : 0.001
Per MPI rank memory allocation (min/avg/max) = 18.2 | 18.2 | 18.2 Mbytes
Step Temp Press TotEng PotEng Enthalpy 
   95495    1853.8603   -835.97461   -110099.57   -114808.54   -110349.06 
  100000    1849.5876   -102.93688   -110179.63   -114877.75   -110210.31 
Loop time of 622.961 on 1 procs for 4505 steps with 19652 atoms

Performance: 0.625 ns/day, 38.412 hours/ns, 7.232 timesteps/s
98.9% CPU use with 1 MPI tasks x no OpenMP threads

MPI task timing breakdown:
Section |  min time  |  avg time  |  max time  |%varavg| %total
---------------------------------------------------------------
Pair    | 338.95     | 338.95     | 338.95     |   0.0 | 54.41
Neigh   | 268.95     | 268.95     | 268.95     |   0.0 | 43.17
Comm    | 5.4983     | 5.4983     | 5.4983     |   0.0 |  0.88
Output  | 0.084898   | 0.084898   | 0.084898   |   0.0 |  0.01
Modify  | 7.3442     | 7.3442     | 7.3442     |   0.0 |  1.18
Other   |            | 2.135      |            |       |  0.34

Nlocal:    19652 ave 19652 max 19652 min
Histogram: 1 0 0 0 0 0 0 0 0 0
Nghost:    15864 ave 15864 max 15864 min
Histogram: 1 0 0 0 0 0 0 0 0 0
Neighs:    1.03142e+06 ave 1.03142e+06 max 1.03142e+06 min
Histogram: 1 0 0 0 0 0 0 0 0 0

Total # of neighbors = 1031422
Ave neighs/atom = 52.4843
Neighbor list builds = 4505
Dangerous builds not checked
Setting up Verlet run ...
  Unit style    : metal
  Current step  : 100000
  Time step     : 0.001
Per MPI rank memory allocation (min/avg/max) = 18.2 | 18.2 | 18.2 Mbytes
Step Temp Press TotEng PotEng Enthalpy 
  100000    1849.5876   -102.93688   -110179.63   -114877.75   -110210.31 
  100495    1823.9342   -224.13838   -110365.31   -114998.27   -110432.06 
Loop time of 63.9909 on 1 procs for 495 steps with 19652 atoms

Performance: 0.668 ns/day, 35.910 hours/ns, 7.735 timesteps/s
98.9% CPU use with 1 MPI tasks x no OpenMP threads

MPI task timing breakdown:
Section |  min time  |  avg time  |  max time  |%varavg| %total
---------------------------------------------------------------
Pair    | 34.233     | 34.233     | 34.233     |   0.0 | 53.50
Neigh   | 28.172     | 28.172     | 28.172     |   0.0 | 44.03
Comm    | 0.60377    | 0.60377    | 0.60377    |   0.0 |  0.94
Output  | 0.00013018 | 0.00013018 | 0.00013018 |   0.0 |  0.00
Modify  | 0.74766    | 0.74766    | 0.74766    |   0.0 |  1.17
Other   |            | 0.2343     |            |       |  0.37

Nlocal:    19652 ave 19652 max 19652 min
Histogram: 1 0 0 0 0 0 0 0 0 0
Nghost:    15784 ave 15784 max 15784 min
Histogram: 1 0 0 0 0 0 0 0 0 0
Neighs:    1.0322e+06 ave 1.0322e+06 max 1.0322e+06 min
Histogram: 1 0 0 0 0 0 0 0 0 0

Total # of neighbors = 1032205
Ave neighs/atom = 52.5242
Neighbor list builds = 495
Dangerous builds not checked
Setting up Verlet run ...
  Unit style    : metal
  Current step  : 100495
  Time step     : 0.001
Per MPI rank memory allocation (min/avg/max) = 18.2 | 18.2 | 18.2 Mbytes
Step Temp Press TotEng PotEng Enthalpy 
  100495    1823.9342   -224.13838   -110365.31   -114998.27   -110432.06 
  105000    1798.7961    192.29923   -110520.41   -115089.51   -110463.23 
Loop time of 634.97 on 1 procs for 4505 steps with 19652 atoms

Performance: 0.613 ns/day, 39.152 hours/ns, 7.095 timesteps/s
99.0% CPU use with 1 MPI tasks x no OpenMP threads

MPI task timing breakdown:
Section |  min time  |  avg time  |  max time  |%varavg| %total
---------------------------------------------------------------
Pair    | 347.04     | 347.04     | 347.04     |   0.0 | 54.65
Neigh   | 272.8      | 272.8      | 272.8      |   0.0 | 42.96
Comm    | 5.6028     | 5.6028     | 5.6028     |   0.0 |  0.88
Output  | 0.080316   | 0.080316   | 0.080316   |   0.0 |  0.01
Modify  | 7.3625     | 7.3625     | 7.3625     |   0.0 |  1.16
Other   |            | 2.078      |            |       |  0.33

Nlocal:    19652 ave 19652 max 19652 min
Histogram: 1 0 0 0 0 0 0 0 0 0
Nghost:    15797 ave 15797 max 15797 min
Histogram: 1 0 0 0 0 0 0 0 0 0
Neighs:    1.0346e+06 ave 1.0346e+06 max 1.0346e+06 min
Histogram: 1 0 0 0 0 0 0 0 0 0

Total # of neighbors = 1034605
Ave neighs/atom = 52.6463
Neighbor list builds = 4505
Dangerous builds not checked
Setting up Verlet run ...
  Unit style    : metal
  Current step  : 105000
  Time step     : 0.001
Per MPI rank memory allocation (min/avg/max) = 18.2 | 18.2 | 18.2 Mbytes
Step Temp Press TotEng PotEng Enthalpy 
  105000    1798.7961    192.29923   -110520.41   -115089.51   -110463.23 
  105495    1751.9208    659.74724   -110729.16    -115179.2    -110533.3 
Loop time of 71.4989 on 1 procs for 495 steps with 19652 atoms

Performance: 0.598 ns/day, 40.123 hours/ns, 6.923 timesteps/s
96.8% CPU use with 1 MPI tasks x no OpenMP threads

MPI task timing breakdown:
Section |  min time  |  avg time  |  max time  |%varavg| %total
---------------------------------------------------------------
Pair    | 39.044     | 39.044     | 39.044     |   0.0 | 54.61
Neigh   | 30.766     | 30.766     | 30.766     |   0.0 | 43.03
Comm    | 0.62081    | 0.62081    | 0.62081    |   0.0 |  0.87
Output  | 0.00022697 | 0.00022697 | 0.00022697 |   0.0 |  0.00
Modify  | 0.85279    | 0.85279    | 0.85279    |   0.0 |  1.19
Other   |            | 0.2152     |            |       |  0.30

Nlocal:    19652 ave 19652 max 19652 min
Histogram: 1 0 0 0 0 0 0 0 0 0
Nghost:    15816 ave 15816 max 15816 min
Histogram: 1 0 0 0 0 0 0 0 0 0
Neighs:    1.0362e+06 ave 1.0362e+06 max 1.0362e+06 min
Histogram: 1 0 0 0 0 0 0 0 0 0

Total # of neighbors = 1036195
Ave neighs/atom = 52.7272
Neighbor list builds = 495
Dangerous builds not checked
Setting up Verlet run ...
  Unit style    : metal
  Current step  : 105495
  Time step     : 0.001
Per MPI rank memory allocation (min/avg/max) = 18.2 | 18.2 | 18.2 Mbytes
Step Temp Press TotEng PotEng Enthalpy 
  105495    1751.9208    659.74724   -110729.16    -115179.2    -110533.3 
  110000    1738.5448   -646.54394   -110879.18   -115295.25   -111071.32 
Loop time of 601.985 on 1 procs for 4505 steps with 19652 atoms

Performance: 0.647 ns/day, 37.118 hours/ns, 7.484 timesteps/s
99.0% CPU use with 1 MPI tasks x no OpenMP threads

MPI task timing breakdown:
Section |  min time  |  avg time  |  max time  |%varavg| %total
---------------------------------------------------------------
Pair    | 324.54     | 324.54     | 324.54     |   0.0 | 53.91
Neigh   | 263.07     | 263.07     | 263.07     |   0.0 | 43.70
Comm    | 5.3351     | 5.3351     | 5.3351     |   0.0 |  0.89
Output  | 0.07845    | 0.07845    | 0.07845    |   0.0 |  0.01
Modify  | 6.9937     | 6.9937     | 6.9937     |   0.0 |  1.16
Other   |            | 1.96       |            |       |  0.33

Nlocal:    19652 ave 19652 max 19652 min
Histogram: 1 0 0 0 0 0 0 0 0 0
Nghost:    15805 ave 15805 max 15805 min
Histogram: 1 0 0 0 0 0 0 0 0 0
Neighs:    1.03513e+06 ave 1.03513e+06 max 1.03513e+06 min
Histogram: 1 0 0 0 0 0 0 0 0 0

Total # of neighbors = 1035134
Ave neighs/atom = 52.6732
Neighbor list builds = 4505
Dangerous builds not checked
Setting up Verlet run ...
  Unit style    : metal
  Current step  : 110000
  Time step     : 0.001
Per MPI rank memory allocation (min/avg/max) = 18.2 | 18.2 | 18.2 Mbytes
Step Temp Press TotEng PotEng Enthalpy 
  110000    1738.5448   -646.54394   -110879.18   -115295.25   -111071.32 
  110495    1709.9962   -340.41513   -111013.61   -115357.16   -111114.68 
Loop time of 70.1611 on 1 procs for 495 steps with 19652 atoms

Performance: 0.610 ns/day, 39.372 hours/ns, 7.055 timesteps/s
97.7% CPU use with 1 MPI tasks x no OpenMP threads

MPI task timing breakdown:
Section |  min time  |  avg time  |  max time  |%varavg| %total
---------------------------------------------------------------
Pair    | 38.256     | 38.256     | 38.256     |   0.0 | 54.53
Neigh   | 30.136     | 30.136     | 30.136     |   0.0 | 42.95
Comm    | 0.6774     | 0.6774     | 0.6774     |   0.0 |  0.97
Output  | 0.00018406 | 0.00018406 | 0.00018406 |   0.0 |  0.00
Modify  | 0.86705    | 0.86705    | 0.86705    |   0.0 |  1.24
Other   |            | 0.2239     |            |       |  0.32

Nlocal:    19652 ave 19652 max 19652 min
Histogram: 1 0 0 0 0 0 0 0 0 0
Nghost:    15740 ave 15740 max 15740 min
Histogram: 1 0 0 0 0 0 0 0 0 0
Neighs:    1.03654e+06 ave 1.03654e+06 max 1.03654e+06 min
Histogram: 1 0 0 0 0 0 0 0 0 0

Total # of neighbors = 1036543
Ave neighs/atom = 52.7449
Neighbor list builds = 495
Dangerous builds not checked
Setting up Verlet run ...
  Unit style    : metal
  Current step  : 110495
  Time step     : 0.001
Per MPI rank memory allocation (min/avg/max) = 18.2 | 18.2 | 18.2 Mbytes
Step Temp Press TotEng PotEng Enthalpy 
  110495    1709.9962   -340.41513   -111013.61   -115357.16   -111114.68 
  115000     1685.917   -653.34707   -111176.72    -115459.1    -111370.6 
Loop time of 612.384 on 1 procs for 4505 steps with 19652 atoms

Performance: 0.636 ns/day, 37.760 hours/ns, 7.356 timesteps/s
97.9% CPU use with 1 MPI tasks x no OpenMP threads

MPI task timing breakdown:
Section |  min time  |  avg time  |  max time  |%varavg| %total
---------------------------------------------------------------
Pair    | 331.1      | 331.1      | 331.1      |   0.0 | 54.07
Neigh   | 266.47     | 266.47     | 266.47     |   0.0 | 43.51
Comm    | 5.4568     | 5.4568     | 5.4568     |   0.0 |  0.89
Output  | 0.060863   | 0.060863   | 0.060863   |   0.0 |  0.01
Modify  | 7.2969     | 7.2969     | 7.2969     |   0.0 |  1.19
Other   |            | 2.001      |            |       |  0.33

Nlocal:    19652 ave 19652 max 19652 min
Histogram: 1 0 0 0 0 0 0 0 0 0
Nghost:    15836 ave 15836 max 15836 min
Histogram: 1 0 0 0 0 0 0 0 0 0
Neighs:    1.03706e+06 ave 1.03706e+06 max 1.03706e+06 min
Histogram: 1 0 0 0 0 0 0 0 0 0

Total # of neighbors = 1037059
Ave neighs/atom = 52.7712
Neighbor list builds = 4505
Dangerous builds not checked
Setting up Verlet run ...
  Unit style    : metal
  Current step  : 115000
  Time step     : 0.001
Per MPI rank memory allocation (min/avg/max) = 18.2 | 18.2 | 18.2 Mbytes
Step Temp Press TotEng PotEng Enthalpy 
  115000     1685.917   -653.34707   -111176.72    -115459.1    -111370.6 
  115495    1664.8654   -122.01297   -111351.53   -115580.44   -111387.67 
Loop time of 61.7469 on 1 procs for 495 steps with 19652 atoms

Performance: 0.693 ns/day, 34.650 hours/ns, 8.017 timesteps/s
97.1% CPU use with 1 MPI tasks x no OpenMP threads

MPI task timing breakdown:
Section |  min time  |  avg time  |  max time  |%varavg| %total
---------------------------------------------------------------
Pair    | 32.799     | 32.799     | 32.799     |   0.0 | 53.12
Neigh   | 27.438     | 27.438     | 27.438     |   0.0 | 44.44
Comm    | 0.54395    | 0.54395    | 0.54395    |   0.0 |  0.88
Output  | 0.00017595 | 0.00017595 | 0.00017595 |   0.0 |  0.00
Modify  | 0.75193    | 0.75193    | 0.75193    |   0.0 |  1.22
Other   |            | 0.2137     |            |       |  0.35

Nlocal:    19652 ave 19652 max 19652 min
Histogram: 1 0 0 0 0 0 0 0 0 0
Nghost:    15821 ave 15821 max 15821 min
Histogram: 1 0 0 0 0 0 0 0 0 0
Neighs:    1.03907e+06 ave 1.03907e+06 max 1.03907e+06 min
Histogram: 1 0 0 0 0 0 0 0 0 0

Total # of neighbors = 1039073
Ave neighs/atom = 52.8737
Neighbor list builds = 495
Dangerous builds not checked
Setting up Verlet run ...
  Unit style    : metal
  Current step  : 115495
  Time step     : 0.001
Per MPI rank memory allocation (min/avg/max) = 18.2 | 18.2 | 18.2 Mbytes
Step Temp Press TotEng PotEng Enthalpy 
  115495    1664.8654   -122.01297   -111351.53   -115580.44   -111387.67 
  120000    1643.2285     134.8656   -111459.35    -115633.3   -111419.43 
Loop time of 612.808 on 1 procs for 4505 steps with 19652 atoms

Performance: 0.635 ns/day, 37.786 hours/ns, 7.351 timesteps/s
96.8% CPU use with 1 MPI tasks x no OpenMP threads

MPI task timing breakdown:
Section |  min time  |  avg time  |  max time  |%varavg| %total
---------------------------------------------------------------
Pair    | 330.84     | 330.84     | 330.84     |   0.0 | 53.99
Neigh   | 267.31     | 267.31     | 267.31     |   0.0 | 43.62
Comm    | 5.3264     | 5.3264     | 5.3264     |   0.0 |  0.87
Output  | 0.066384   | 0.066384   | 0.066384   |   0.0 |  0.01
Modify  | 7.178      | 7.178      | 7.178      |   0.0 |  1.17
Other   |            | 2.086      |            |       |  0.34

Nlocal:    19652 ave 19652 max 19652 min
Histogram: 1 0 0 0 0 0 0 0 0 0
Nghost:    15769 ave 15769 max 15769 min
Histogram: 1 0 0 0 0 0 0 0 0 0
Neighs:    1.03973e+06 ave 1.03973e+06 max 1.03973e+06 min
Histogram: 1 0 0 0 0 0 0 0 0 0

Total # of neighbors = 1039729
Ave neighs/atom = 52.907
Neighbor list builds = 4505
Dangerous builds not checked
Setting up Verlet run ...
  Unit style    : metal
  Current step  : 120000
  Time step     : 0.001
Per MPI rank memory allocation (min/avg/max) = 18.2 | 18.2 | 18.2 Mbytes
Step Temp Press TotEng PotEng Enthalpy 
  120000    1643.2285     134.8656   -111459.35    -115633.3   -111419.43 
  120495    1614.0081    262.69104   -111673.35   -115773.07   -111595.67 
Loop time of 56.9809 on 1 procs for 495 steps with 19652 atoms

Performance: 0.751 ns/day, 31.976 hours/ns, 8.687 timesteps/s
91.0% CPU use with 1 MPI tasks x no OpenMP threads

MPI task timing breakdown:
Section |  min time  |  avg time  |  max time  |%varavg| %total
---------------------------------------------------------------
Pair    | 30.206     | 30.206     | 30.206     |   0.0 | 53.01
Neigh   | 25.395     | 25.395     | 25.395     |   0.0 | 44.57
Comm    | 0.49501    | 0.49501    | 0.49501    |   0.0 |  0.87
Output  | 0.00016212 | 0.00016212 | 0.00016212 |   0.0 |  0.00
Modify  | 0.68479    | 0.68479    | 0.68479    |   0.0 |  1.20
Other   |            | 0.1998     |            |       |  0.35

Nlocal:    19652 ave 19652 max 19652 min
Histogram: 1 0 0 0 0 0 0 0 0 0
Nghost:    15771 ave 15771 max 15771 min
Histogram: 1 0 0 0 0 0 0 0 0 0
Neighs:    1.04152e+06 ave 1.04152e+06 max 1.04152e+06 min
Histogram: 1 0 0 0 0 0 0 0 0 0

Total # of neighbors = 1041525
Ave neighs/atom = 52.9984
Neighbor list builds = 495
Dangerous builds not checked
Setting up Verlet run ...
  Unit style    : metal
  Current step  : 120495
  Time step     : 0.001
Per MPI rank memory allocation (min/avg/max) = 18.2 | 18.2 | 18.2 Mbytes
Step Temp Press TotEng PotEng Enthalpy 
  120495    1614.0081    262.69104   -111673.35   -115773.07   -111595.67 
  125000    1608.9603    1106.5191   -111781.94   -115868.84   -111455.58 
Loop time of 653.692 on 1 procs for 4505 steps with 19652 atoms

Performance: 0.595 ns/day, 40.307 hours/ns, 6.892 timesteps/s
97.7% CPU use with 1 MPI tasks x no OpenMP threads

MPI task timing breakdown:
Section |  min time  |  avg time  |  max time  |%varavg| %total
---------------------------------------------------------------
Pair    | 362.33     | 362.33     | 362.33     |   0.0 | 55.43
Neigh   | 275.24     | 275.24     | 275.24     |   0.0 | 42.11
Comm    | 6.0098     | 6.0098     | 6.0098     |   0.0 |  0.92
Output  | 0.091166   | 0.091166   | 0.091166   |   0.0 |  0.01
Modify  | 7.7488     | 7.7488     | 7.7488     |   0.0 |  1.19
Other   |            | 2.278      |            |       |  0.35

Nlocal:    19652 ave 19652 max 19652 min
Histogram: 1 0 0 0 0 0 0 0 0 0
Nghost:    15817 ave 15817 max 15817 min
Histogram: 1 0 0 0 0 0 0 0 0 0
Neighs:    1.04418e+06 ave 1.04418e+06 max 1.04418e+06 min
Histogram: 1 0 0 0 0 0 0 0 0 0

Total # of neighbors = 1044183
Ave neighs/atom = 53.1337
Neighbor list builds = 4505
Dangerous builds not checked
Setting up Verlet run ...
  Unit style    : metal
  Current step  : 125000
  Time step     : 0.001
Per MPI rank memory allocation (min/avg/max) = 18.2 | 18.2 | 18.2 Mbytes
Step Temp Press TotEng PotEng Enthalpy 
  125000    1608.9603    1106.5191   -111781.94   -115868.84   -111455.58 
  125495    1564.6681     657.8594   -112015.66   -115990.06   -111821.72 
Loop time of 72.4272 on 1 procs for 495 steps with 19652 atoms

Performance: 0.590 ns/day, 40.644 hours/ns, 6.834 timesteps/s
98.2% CPU use with 1 MPI tasks x no OpenMP threads

MPI task timing breakdown:
Section |  min time  |  avg time  |  max time  |%varavg| %total
---------------------------------------------------------------
Pair    | 39.988     | 39.988     | 39.988     |   0.0 | 55.21
Neigh   | 30.612     | 30.612     | 30.612     |   0.0 | 42.27
Comm    | 0.71571    | 0.71571    | 0.71571    |   0.0 |  0.99
Output  | 0.00016212 | 0.00016212 | 0.00016212 |   0.0 |  0.00
Modify  | 0.8506     | 0.8506     | 0.8506     |   0.0 |  1.17
Other   |            | 0.2602     |            |       |  0.36

Nlocal:    19652 ave 19652 max 19652 min
Histogram: 1 0 0 0 0 0 0 0 0 0
Nghost:    15886 ave 15886 max 15886 min
Histogram: 1 0 0 0 0 0 0 0 0 0
Neighs:    1.04531e+06 ave 1.04531e+06 max 1.04531e+06 min
Histogram: 1 0 0 0 0 0 0 0 0 0

Total # of neighbors = 1045312
Ave neighs/atom = 53.1911
Neighbor list builds = 495
Dangerous builds not checked
Setting up Verlet run ...
  Unit style    : metal
  Current step  : 125495
  Time step     : 0.001
Per MPI rank memory allocation (min/avg/max) = 18.2 | 18.2 | 18.2 Mbytes
Step Temp Press TotEng PotEng Enthalpy 
  125495    1564.6681     657.8594   -112015.66   -115990.06   -111821.72 
  130000    1555.7462   -295.88519   -112095.71   -116047.44   -112183.01 
Loop time of 665.652 on 1 procs for 4505 steps with 19652 atoms

Performance: 0.585 ns/day, 41.044 hours/ns, 6.768 timesteps/s
97.9% CPU use with 1 MPI tasks x no OpenMP threads

MPI task timing breakdown:
Section |  min time  |  avg time  |  max time  |%varavg| %total
---------------------------------------------------------------
Pair    | 370.49     | 370.49     | 370.49     |   0.0 | 55.66
Neigh   | 278.87     | 278.87     | 278.87     |   0.0 | 41.89
Comm    | 6.1039     | 6.1039     | 6.1039     |   0.0 |  0.92
Output  | 0.088375   | 0.088375   | 0.088375   |   0.0 |  0.01
Modify  | 7.845      | 7.845      | 7.845      |   0.0 |  1.18
Other   |            | 2.253      |            |       |  0.34

Nlocal:    19652 ave 19652 max 19652 min
Histogram: 1 0 0 0 0 0 0 0 0 0
Nghost:    15829 ave 15829 max 15829 min
Histogram: 1 0 0 0 0 0 0 0 0 0
Neighs:    1.04415e+06 ave 1.04415e+06 max 1.04415e+06 min
Histogram: 1 0 0 0 0 0 0 0 0 0

Total # of neighbors = 1044150
Ave neighs/atom = 53.132
Neighbor list builds = 4505
Dangerous builds not checked
Setting up Verlet run ...
  Unit style    : metal
  Current step  : 130000
  Time step     : 0.001
Per MPI rank memory allocation (min/avg/max) = 18.2 | 18.2 | 18.2 Mbytes
Step Temp Press TotEng PotEng Enthalpy 
  130000    1555.7462   -295.88519   -112095.71   -116047.44   -112183.01 
  130495    1519.4575    5.6800122   -112315.97   -116175.53   -112314.29 
Loop time of 72.5698 on 1 procs for 495 steps with 19652 atoms

Performance: 0.589 ns/day, 40.724 hours/ns, 6.821 timesteps/s
99.4% CPU use with 1 MPI tasks x no OpenMP threads

MPI task timing breakdown:
Section |  min time  |  avg time  |  max time  |%varavg| %total
---------------------------------------------------------------
Pair    | 39.772     | 39.772     | 39.772     |   0.0 | 54.81
Neigh   | 31.116     | 31.116     | 31.116     |   0.0 | 42.88
Comm    | 0.65018    | 0.65018    | 0.65018    |   0.0 |  0.90
Output  | 0.00022602 | 0.00022602 | 0.00022602 |   0.0 |  0.00
Modify  | 0.79766    | 0.79766    | 0.79766    |   0.0 |  1.10
Other   |            | 0.2331     |            |       |  0.32

Nlocal:    19652 ave 19652 max 19652 min
Histogram: 1 0 0 0 0 0 0 0 0 0
Nghost:    15842 ave 15842 max 15842 min
Histogram: 1 0 0 0 0 0 0 0 0 0
Neighs:    1.04581e+06 ave 1.04581e+06 max 1.04581e+06 min
Histogram: 1 0 0 0 0 0 0 0 0 0

Total # of neighbors = 1045807
Ave neighs/atom = 53.2163
Neighbor list builds = 495
Dangerous builds not checked
Setting up Verlet run ...
  Unit style    : metal
  Current step  : 130495
  Time step     : 0.001
Per MPI rank memory allocation (min/avg/max) = 18.2 | 18.2 | 18.2 Mbytes
Step Temp Press TotEng PotEng Enthalpy 
  130495    1519.4575    5.6800122   -112315.97   -116175.53   -112314.29 
  135000    1513.3518    428.96931   -112424.52   -116268.57   -112298.27 
Loop time of 657.366 on 1 procs for 4505 steps with 19652 atoms

Performance: 0.592 ns/day, 40.533 hours/ns, 6.853 timesteps/s
98.6% CPU use with 1 MPI tasks x no OpenMP threads

MPI task timing breakdown:
Section |  min time  |  avg time  |  max time  |%varavg| %total
---------------------------------------------------------------
Pair    | 364.61     | 364.61     | 364.61     |   0.0 | 55.47
Neigh   | 276.88     | 276.88     | 276.88     |   0.0 | 42.12
Comm    | 5.8673     | 5.8673     | 5.8673     |   0.0 |  0.89
Output  | 0.086153   | 0.086153   | 0.086153   |   0.0 |  0.01
Modify  | 7.8127     | 7.8127     | 7.8127     |   0.0 |  1.19
Other   |            | 2.111      |            |       |  0.32

Nlocal:    19652 ave 19652 max 19652 min
Histogram: 1 0 0 0 0 0 0 0 0 0
Nghost:    15891 ave 15891 max 15891 min
Histogram: 1 0 0 0 0 0 0 0 0 0
Neighs:    1.04746e+06 ave 1.04746e+06 max 1.04746e+06 min
Histogram: 1 0 0 0 0 0 0 0 0 0

Total # of neighbors = 1047464
Ave neighs/atom = 53.3006
Neighbor list builds = 4505
Dangerous builds not checked
Setting up Verlet run ...
  Unit style    : metal
  Current step  : 135000
  Time step     : 0.001
Per MPI rank memory allocation (min/avg/max) = 18.2 | 18.2 | 18.2 Mbytes
Step Temp Press TotEng PotEng Enthalpy 
  135000    1513.3518    428.96931   -112424.52   -116268.57   -112298.27 
  135495    1468.3924    466.35503   -112683.19   -116413.04   -112546.08 
Loop time of 67.8997 on 1 procs for 495 steps with 19652 atoms

Performance: 0.630 ns/day, 38.103 hours/ns, 7.290 timesteps/s
97.6% CPU use with 1 MPI tasks x no OpenMP threads

MPI task timing breakdown:
Section |  min time  |  avg time  |  max time  |%varavg| %total
---------------------------------------------------------------
Pair    | 37.287     | 37.287     | 37.287     |   0.0 | 54.92
Neigh   | 28.956     | 28.956     | 28.956     |   0.0 | 42.65
Comm    | 0.61588    | 0.61588    | 0.61588    |   0.0 |  0.91
Output  | 0.00018716 | 0.00018716 | 0.00018716 |   0.0 |  0.00
Modify  | 0.81175    | 0.81175    | 0.81175    |   0.0 |  1.20
Other   |            | 0.2283     |            |       |  0.34

Nlocal:    19652 ave 19652 max 19652 min
Histogram: 1 0 0 0 0 0 0 0 0 0
Nghost:    15903 ave 15903 max 15903 min
Histogram: 1 0 0 0 0 0 0 0 0 0
Neighs:    1.04932e+06 ave 1.04932e+06 max 1.04932e+06 min
Histogram: 1 0 0 0 0 0 0 0 0 0

Total # of neighbors = 1049322
Ave neighs/atom = 53.3952
Neighbor list builds = 495
Dangerous builds not checked
Setting up Verlet run ...
  Unit style    : metal
  Current step  : 135495
  Time step     : 0.001
Per MPI rank memory allocation (min/avg/max) = 18.2 | 18.2 | 18.2 Mbytes
Step Temp Press TotEng PotEng Enthalpy 
  135495    1468.3924    466.35503   -112683.19   -116413.04   -112546.08 
  140000    1445.9229   -1192.8929   -112853.93    -116526.7   -113205.18 
Loop time of 617.912 on 1 procs for 4505 steps with 19652 atoms

Performance: 0.630 ns/day, 38.100 hours/ns, 7.291 timesteps/s
98.2% CPU use with 1 MPI tasks x no OpenMP threads

MPI task timing breakdown:
Section |  min time  |  avg time  |  max time  |%varavg| %total
---------------------------------------------------------------
Pair    | 335.86     | 335.86     | 335.86     |   0.0 | 54.35
Neigh   | 267.06     | 267.06     | 267.06     |   0.0 | 43.22
Comm    | 5.4883     | 5.4883     | 5.4883     |   0.0 |  0.89
Output  | 0.2078     | 0.2078     | 0.2078     |   0.0 |  0.03
Modify  | 7.206      | 7.206      | 7.206      |   0.0 |  1.17
Other   |            | 2.09       |            |       |  0.34

Nlocal:    19652 ave 19652 max 19652 min
Histogram: 1 0 0 0 0 0 0 0 0 0
Nghost:    15955 ave 15955 max 15955 min
Histogram: 1 0 0 0 0 0 0 0 0 0
Neighs:    1.04768e+06 ave 1.04768e+06 max 1.04768e+06 min
Histogram: 1 0 0 0 0 0 0 0 0 0

Total # of neighbors = 1047684
Ave neighs/atom = 53.3118
Neighbor list builds = 4505
Dangerous builds not checked
Setting up Verlet run ...
  Unit style    : metal
  Current step  : 140000
  Time step     : 0.001
Per MPI rank memory allocation (min/avg/max) = 18.2 | 18.2 | 18.2 Mbytes
Step Temp Press TotEng PotEng Enthalpy 
  140000    1445.9229   -1192.8929   -112853.93    -116526.7   -113205.18 
  140495    1416.2021   -146.94646   -113030.46   -116627.74   -113073.63 
Loop time of 66.5857 on 1 procs for 495 steps with 19652 atoms

Performance: 0.642 ns/day, 37.366 hours/ns, 7.434 timesteps/s
99.3% CPU use with 1 MPI tasks x no OpenMP threads

MPI task timing breakdown:
Section |  min time  |  avg time  |  max time  |%varavg| %total
---------------------------------------------------------------
Pair    | 36.165     | 36.165     | 36.165     |   0.0 | 54.31
Neigh   | 28.79      | 28.79      | 28.79      |   0.0 | 43.24
Comm    | 0.60003    | 0.60003    | 0.60003    |   0.0 |  0.90
Output  | 0.00020313 | 0.00020313 | 0.00020313 |   0.0 |  0.00
Modify  | 0.80883    | 0.80883    | 0.80883    |   0.0 |  1.21
Other   |            | 0.2214     |            |       |  0.33

Nlocal:    19652 ave 19652 max 19652 min
Histogram: 1 0 0 0 0 0 0 0 0 0
Nghost:    15855 ave 15855 max 15855 min
Histogram: 1 0 0 0 0 0 0 0 0 0
Neighs:    1.05036e+06 ave 1.05036e+06 max 1.05036e+06 min
Histogram: 1 0 0 0 0 0 0 0 0 0

Total # of neighbors = 1050357
Ave neighs/atom = 53.4478
Neighbor list builds = 495
Dangerous builds not checked
Setting up Verlet run ...
  Unit style    : metal
  Current step  : 140495
  Time step     : 0.001
Per MPI rank memory allocation (min/avg/max) = 18.2 | 18.2 | 18.2 Mbytes
Step Temp Press TotEng PotEng Enthalpy 
  140495    1416.2021   -146.94646   -113030.46   -116627.74   -113073.63 
  145000    1392.6649   -82.452933   -113123.37   -116660.86   -113147.58 
Loop time of 636.809 on 1 procs for 4505 steps with 19652 atoms

Performance: 0.611 ns/day, 39.266 hours/ns, 7.074 timesteps/s
99.6% CPU use with 1 MPI tasks x no OpenMP threads

MPI task timing breakdown:
Section |  min time  |  avg time  |  max time  |%varavg| %total
---------------------------------------------------------------
Pair    | 351.38     | 351.38     | 351.38     |   0.0 | 55.18
Neigh   | 269.77     | 269.77     | 269.77     |   0.0 | 42.36
Comm    | 5.7806     | 5.7806     | 5.7806     |   0.0 |  0.91
Output  | 0.077837   | 0.077837   | 0.077837   |   0.0 |  0.01
Modify  | 7.6339     | 7.6339     | 7.6339     |   0.0 |  1.20
Other   |            | 2.166      |            |       |  0.34

Nlocal:    19652 ave 19652 max 19652 min
Histogram: 1 0 0 0 0 0 0 0 0 0
Nghost:    15929 ave 15929 max 15929 min
Histogram: 1 0 0 0 0 0 0 0 0 0
Neighs:    1.0511e+06 ave 1.0511e+06 max 1.0511e+06 min
Histogram: 1 0 0 0 0 0 0 0 0 0

Total # of neighbors = 1051101
Ave neighs/atom = 53.4857
Neighbor list builds = 4505
Dangerous builds not checked
Setting up Verlet run ...
  Unit style    : metal
  Current step  : 145000
  Time step     : 0.001
Per MPI rank memory allocation (min/avg/max) = 18.2 | 18.2 | 18.2 Mbytes
Step Temp Press TotEng PotEng Enthalpy 
  145000    1392.6649   -82.452933   -113123.37   -116660.86   -113147.58 
  145495    1368.5089     315.9408   -113312.06    -116788.2    -113219.4 
Loop time of 73.688 on 1 procs for 495 steps with 19652 atoms

Performance: 0.580 ns/day, 41.351 hours/ns, 6.718 timesteps/s
99.9% CPU use with 1 MPI tasks x no OpenMP threads

MPI task timing breakdown:
Section |  min time  |  avg time  |  max time  |%varavg| %total
---------------------------------------------------------------
Pair    | 41.717     | 41.717     | 41.717     |   0.0 | 56.61
Neigh   | 30.084     | 30.084     | 30.084     |   0.0 | 40.83
Comm    | 0.70956    | 0.70956    | 0.70956    |   0.0 |  0.96
Output  | 0.00025892 | 0.00025892 | 0.00025892 |   0.0 |  0.00
Modify  | 0.92877    | 0.92877    | 0.92877    |   0.0 |  1.26
Other   |            | 0.248      |            |       |  0.34

Nlocal:    19652 ave 19652 max 19652 min
Histogram: 1 0 0 0 0 0 0 0 0 0
Nghost:    15917 ave 15917 max 15917 min
Histogram: 1 0 0 0 0 0 0 0 0 0
Neighs:    1.053e+06 ave 1.053e+06 max 1.053e+06 min
Histogram: 1 0 0 0 0 0 0 0 0 0

Total # of neighbors = 1053004
Ave neighs/atom = 53.5825
Neighbor list builds = 495
Dangerous builds not checked
Setting up Verlet run ...
  Unit style    : metal
  Current step  : 145495
  Time step     : 0.001
Per MPI rank memory allocation (min/avg/max) = 18.2 | 18.2 | 18.2 Mbytes
Step Temp Press TotEng PotEng Enthalpy 
  145495    1368.5089     315.9408   -113312.06    -116788.2    -113219.4 
  150000    1338.6658    27.143535   -113490.98   -116891.31   -113483.03 
Loop time of 665.218 on 1 procs for 4505 steps with 19652 atoms

Performance: 0.585 ns/day, 41.017 hours/ns, 6.772 timesteps/s
99.6% CPU use with 1 MPI tasks x no OpenMP threads

MPI task timing breakdown:
Section |  min time  |  avg time  |  max time  |%varavg| %total
---------------------------------------------------------------
Pair    | 373.03     | 373.03     | 373.03     |   0.0 | 56.08
Neigh   | 275.3      | 275.3      | 275.3      |   0.0 | 41.38
Comm    | 6.251      | 6.251      | 6.251      |   0.0 |  0.94
Output  | 0.087401   | 0.087401   | 0.087401   |   0.0 |  0.01
Modify  | 8.2827     | 8.2827     | 8.2827     |   0.0 |  1.25
Other   |            | 2.271      |            |       |  0.34

Nlocal:    19652 ave 19652 max 19652 min
Histogram: 1 0 0 0 0 0 0 0 0 0
Nghost:    15884 ave 15884 max 15884 min
Histogram: 1 0 0 0 0 0 0 0 0 0
Neighs:    1.05434e+06 ave 1.05434e+06 max 1.05434e+06 min
Histogram: 1 0 0 0 0 0 0 0 0 0

Total # of neighbors = 1054337
Ave neighs/atom = 53.6504
Neighbor list builds = 4505
Dangerous builds not checked
Setting up Verlet run ...
  Unit style    : metal
  Current step  : 150000
  Time step     : 0.001
Per MPI rank memory allocation (min/avg/max) = 18.2 | 18.2 | 18.2 Mbytes
Step Temp Press TotEng PotEng Enthalpy 
  150000    1338.6658    27.143535   -113490.98   -116891.31   -113483.03 
  150495    1315.7514   -312.79464   -113705.44   -117047.56   -113797.04 
Loop time of 71.8158 on 1 procs for 495 steps with 19652 atoms

Performance: 0.596 ns/day, 40.301 hours/ns, 6.893 timesteps/s
98.7% CPU use with 1 MPI tasks x no OpenMP threads

MPI task timing breakdown:
Section |  min time  |  avg time  |  max time  |%varavg| %total
---------------------------------------------------------------
Pair    | 39.683     | 39.683     | 39.683     |   0.0 | 55.26
Neigh   | 30.235     | 30.235     | 30.235     |   0.0 | 42.10
Comm    | 0.69421    | 0.69421    | 0.69421    |   0.0 |  0.97
Output  | 0.00019193 | 0.00019193 | 0.00019193 |   0.0 |  0.00
Modify  | 0.93404    | 0.93404    | 0.93404    |   0.0 |  1.30
Other   |            | 0.2687     |            |       |  0.37

Nlocal:    19652 ave 19652 max 19652 min
Histogram: 1 0 0 0 0 0 0 0 0 0
Nghost:    15891 ave 15891 max 15891 min
Histogram: 1 0 0 0 0 0 0 0 0 0
Neighs:    1.05539e+06 ave 1.05539e+06 max 1.05539e+06 min
Histogram: 1 0 0 0 0 0 0 0 0 0

Total # of neighbors = 1055391
Ave neighs/atom = 53.704
Neighbor list builds = 495
Dangerous builds not checked
Setting up Verlet run ...
  Unit style    : metal
  Current step  : 150495
  Time step     : 0.001
Per MPI rank memory allocation (min/avg/max) = 18.2 | 18.2 | 18.2 Mbytes
Step Temp Press TotEng PotEng Enthalpy 
  150495    1315.7514   -312.79464   -113705.44   -117047.56   -113797.04 
  155000    1297.6999   -810.62882   -113860.43   -117156.71   -114097.91 
Loop time of 676.068 on 1 procs for 4505 steps with 19652 atoms

Performance: 0.576 ns/day, 41.686 hours/ns, 6.664 timesteps/s
98.9% CPU use with 1 MPI tasks x no OpenMP threads

MPI task timing breakdown:
Section |  min time  |  avg time  |  max time  |%varavg| %total
---------------------------------------------------------------
Pair    | 381.02     | 381.02     | 381.02     |   0.0 | 56.36
Neigh   | 277.85     | 277.85     | 277.85     |   0.0 | 41.10
Comm    | 6.4068     | 6.4068     | 6.4068     |   0.0 |  0.95
Output  | 0.124      | 0.124      | 0.124      |   0.0 |  0.02
Modify  | 8.3432     | 8.3432     | 8.3432     |   0.0 |  1.23
Other   |            | 2.331      |            |       |  0.34

Nlocal:    19652 ave 19652 max 19652 min
Histogram: 1 0 0 0 0 0 0 0 0 0
Nghost:    15891 ave 15891 max 15891 min
Histogram: 1 0 0 0 0 0 0 0 0 0
Neighs:    1.0545e+06 ave 1.0545e+06 max 1.0545e+06 min
Histogram: 1 0 0 0 0 0 0 0 0 0

Total # of neighbors = 1054501
Ave neighs/atom = 53.6587
Neighbor list builds = 4505
Dangerous builds not checked
Setting up Verlet run ...
  Unit style    : metal
  Current step  : 155000
  Time step     : 0.001
Per MPI rank memory allocation (min/avg/max) = 18.2 | 18.2 | 18.2 Mbytes
Step Temp Press TotEng PotEng Enthalpy 
  155000    1297.6999   -810.62882   -113860.43   -117156.71   -114097.91 
  155495    1268.1257    49.301244   -114056.11   -117277.26    -114041.7 
Loop time of 64.9553 on 1 procs for 495 steps with 19652 atoms

Performance: 0.658 ns/day, 36.451 hours/ns, 7.621 timesteps/s
99.0% CPU use with 1 MPI tasks x no OpenMP threads

MPI task timing breakdown:
Section |  min time  |  avg time  |  max time  |%varavg| %total
---------------------------------------------------------------
Pair    | 35.55      | 35.55      | 35.55      |   0.0 | 54.73
Neigh   | 27.836     | 27.836     | 27.836     |   0.0 | 42.85
Comm    | 0.57633    | 0.57633    | 0.57633    |   0.0 |  0.89
Output  | 0.00020909 | 0.00020909 | 0.00020909 |   0.0 |  0.00
Modify  | 0.78065    | 0.78065    | 0.78065    |   0.0 |  1.20
Other   |            | 0.2123     |            |       |  0.33

Nlocal:    19652 ave 19652 max 19652 min
Histogram: 1 0 0 0 0 0 0 0 0 0
Nghost:    15945 ave 15945 max 15945 min
Histogram: 1 0 0 0 0 0 0 0 0 0
Neighs:    1.05859e+06 ave 1.05859e+06 max 1.05859e+06 min
Histogram: 1 0 0 0 0 0 0 0 0 0

Total # of neighbors = 1058590
Ave neighs/atom = 53.8668
Neighbor list builds = 495
Dangerous builds not checked
Setting up Verlet run ...
  Unit style    : metal
  Current step  : 155495
  Time step     : 0.001
Per MPI rank memory allocation (min/avg/max) = 18.2 | 18.2 | 18.2 Mbytes
Step Temp Press TotEng PotEng Enthalpy 
  155495    1268.1257    49.301244   -114056.11   -117277.26    -114041.7 
  160000     1242.074    128.67451   -114274.22    -117429.2   -114236.66 
Loop time of 657.358 on 1 procs for 4505 steps with 19652 atoms

Performance: 0.592 ns/day, 40.533 hours/ns, 6.853 timesteps/s
98.3% CPU use with 1 MPI tasks x no OpenMP threads

MPI task timing breakdown:
Section |  min time  |  avg time  |  max time  |%varavg| %total
---------------------------------------------------------------
Pair    | 368.07     | 368.07     | 368.07     |   0.0 | 55.99
Neigh   | 272.78     | 272.78     | 272.78     |   0.0 | 41.50
Comm    | 6.2719     | 6.2719     | 6.2719     |   0.0 |  0.95
Output  | 0.08135    | 0.08135    | 0.08135    |   0.0 |  0.01
Modify  | 8.0525     | 8.0525     | 8.0525     |   0.0 |  1.22
Other   |            | 2.101      |            |       |  0.32

Nlocal:    19652 ave 19652 max 19652 min
Histogram: 1 0 0 0 0 0 0 0 0 0
Nghost:    15953 ave 15953 max 15953 min
Histogram: 1 0 0 0 0 0 0 0 0 0
Neighs:    1.05914e+06 ave 1.05914e+06 max 1.05914e+06 min
Histogram: 1 0 0 0 0 0 0 0 0 0

Total # of neighbors = 1059137
Ave neighs/atom = 53.8946
Neighbor list builds = 4505
Dangerous builds not checked
Setting up Verlet run ...
  Unit style    : metal
  Current step  : 160000
  Time step     : 0.001
Per MPI rank memory allocation (min/avg/max) = 18.2 | 18.2 | 18.2 Mbytes
Step Temp Press TotEng PotEng Enthalpy 
  160000     1242.074    128.67451   -114274.22    -117429.2   -114236.66 
  160495    1212.8708    -108.9345   -114364.58   -117445.38   -114396.39 
Loop time of 65.9657 on 1 procs for 495 steps with 19652 atoms

Performance: 0.648 ns/day, 37.018 hours/ns, 7.504 timesteps/s
100.0% CPU use with 1 MPI tasks x no OpenMP threads

MPI task timing breakdown:
Section |  min time  |  avg time  |  max time  |%varavg| %total
---------------------------------------------------------------
Pair    | 36.093     | 36.093     | 36.093     |   0.0 | 54.71
Neigh   | 28.227     | 28.227     | 28.227     |   0.0 | 42.79
Comm    | 0.60552    | 0.60552    | 0.60552    |   0.0 |  0.92
Output  | 0.00019312 | 0.00019312 | 0.00019312 |   0.0 |  0.00
Modify  | 0.80776    | 0.80776    | 0.80776    |   0.0 |  1.22
Other   |            | 0.2325     |            |       |  0.35

Nlocal:    19652 ave 19652 max 19652 min
Histogram: 1 0 0 0 0 0 0 0 0 0
Nghost:    15865 ave 15865 max 15865 min
Histogram: 1 0 0 0 0 0 0 0 0 0
Neighs:    1.05989e+06 ave 1.05989e+06 max 1.05989e+06 min
Histogram: 1 0 0 0 0 0 0 0 0 0

Total # of neighbors = 1059888
Ave neighs/atom = 53.9328
Neighbor list builds = 495
Dangerous builds not checked
Setting up Verlet run ...
  Unit style    : metal
  Current step  : 160495
  Time step     : 0.001
Per MPI rank memory allocation (min/avg/max) = 18.2 | 18.2 | 18.2 Mbytes
Step Temp Press TotEng PotEng Enthalpy 
  160495    1212.8708    -108.9345   -114364.58   -117445.38   -114396.39 
  165000    1189.4116    1582.2517   -114584.85   -117606.07   -114124.34 
Loop time of 654.094 on 1 procs for 4505 steps with 19652 atoms

Performance: 0.595 ns/day, 40.331 hours/ns, 6.887 timesteps/s
98.9% CPU use with 1 MPI tasks x no OpenMP threads

MPI task timing breakdown:
Section |  min time  |  avg time  |  max time  |%varavg| %total
---------------------------------------------------------------
Pair    | 362.96     | 362.96     | 362.96     |   0.0 | 55.49
Neigh   | 274.82     | 274.82     | 274.82     |   0.0 | 42.02
Comm    | 6.118      | 6.118      | 6.118      |   0.0 |  0.94
Output  | 0.081541   | 0.081541   | 0.081541   |   0.0 |  0.01
Modify  | 7.8576     | 7.8576     | 7.8576     |   0.0 |  1.20
Other   |            | 2.26       |            |       |  0.35

Nlocal:    19652 ave 19652 max 19652 min
Histogram: 1 0 0 0 0 0 0 0 0 0
Nghost:    15979 ave 15979 max 15979 min
Histogram: 1 0 0 0 0 0 0 0 0 0
Neighs:    1.06445e+06 ave 1.06445e+06 max 1.06445e+06 min
Histogram: 1 0 0 0 0 0 0 0 0 0

Total # of neighbors = 1064449
Ave neighs/atom = 54.1649
Neighbor list builds = 4505
Dangerous builds not checked
Setting up Verlet run ...
  Unit style    : metal
  Current step  : 165000
  Time step     : 0.001
Per MPI rank memory allocation (min/avg/max) = 18.2 | 18.2 | 18.2 Mbytes
Step Temp Press TotEng PotEng Enthalpy 
  165000    1189.4116    1582.2517   -114584.85   -117606.07   -114124.34 
  165495    1159.8559   -876.91181   -114761.81   -117707.95   -115017.66 
Loop time of 73.8026 on 1 procs for 495 steps with 19652 atoms

Performance: 0.579 ns/day, 41.416 hours/ns, 6.707 timesteps/s
98.8% CPU use with 1 MPI tasks x no OpenMP threads

MPI task timing breakdown:
Section |  min time  |  avg time  |  max time  |%varavg| %total
---------------------------------------------------------------
Pair    | 40.735     | 40.735     | 40.735     |   0.0 | 55.20
Neigh   | 31.184     | 31.184     | 31.184     |   0.0 | 42.25
Comm    | 0.70296    | 0.70296    | 0.70296    |   0.0 |  0.95
Output  | 0.00018001 | 0.00018001 | 0.00018001 |   0.0 |  0.00
Modify  | 0.91197    | 0.91197    | 0.91197    |   0.0 |  1.24
Other   |            | 0.2684     |            |       |  0.36

Nlocal:    19652 ave 19652 max 19652 min
Histogram: 1 0 0 0 0 0 0 0 0 0
Nghost:    15910 ave 15910 max 15910 min
Histogram: 1 0 0 0 0 0 0 0 0 0
Neighs:    1.06139e+06 ave 1.06139e+06 max 1.06139e+06 min
Histogram: 1 0 0 0 0 0 0 0 0 0

Total # of neighbors = 1061393
Ave neighs/atom = 54.0094
Neighbor list builds = 495
Dangerous builds not checked
Setting up Verlet run ...
  Unit style    : metal
  Current step  : 165495
  Time step     : 0.001
Per MPI rank memory allocation (min/avg/max) = 18.2 | 18.2 | 18.2 Mbytes
Step Temp Press TotEng PotEng Enthalpy 
  165495    1159.8559   -876.91181   -114761.81   -117707.95   -115017.66 
  170000    1153.6604    265.57959   -114938.82   -117869.22   -114861.53 
Loop time of 660.187 on 1 procs for 4505 steps with 19652 atoms

Performance: 0.590 ns/day, 40.707 hours/ns, 6.824 timesteps/s
99.0% CPU use with 1 MPI tasks x no OpenMP threads

MPI task timing breakdown:
Section |  min time  |  avg time  |  max time  |%varavg| %total
[...]
Neighbor list builds = 4505
Dangerous builds not checked
Setting up Verlet run ...
  Unit style    : metal
  Current step  : 240000
  Time step     : 0.001
Per MPI rank memory allocation (min/avg/max) = 18.2 | 18.2 | 18.2 Mbytes
Step Temp Press TotEng PotEng Enthalpy 
  240000    449.03166    662.25029   -119764.75   -120905.33   -119575.93 
  240495    419.39227   -473.96774   -119909.87   -120975.17    -120045.1 
Loop time of 69.2723 on 1 procs for 495 steps with 19652 atoms

Performance: 0.617 ns/day, 38.873 hours/ns, 7.146 timesteps/s
99.9% CPU use with 1 MPI tasks x no OpenMP threads

MPI task timing breakdown:
Section |  min time  |  avg time  |  max time  |%varavg| %total
---------------------------------------------------------------
Pair    | 38.385     | 38.385     | 38.385     |   0.0 | 55.41
Neigh   | 29.143     | 29.143     | 29.143     |   0.0 | 42.07
Comm    | 0.64775    | 0.64775    | 0.64775    |   0.0 |  0.94
Output  | 0.00020599 | 0.00020599 | 0.00020599 |   0.0 |  0.00
Modify  | 0.84991    | 0.84991    | 0.84991    |   0.0 |  1.23
Other   |            | 0.2461     |            |       |  0.36

Nlocal:    19652 ave 19652 max 19652 min
Histogram: 1 0 0 0 0 0 0 0 0 0
Nghost:    16057 ave 16057 max 16057 min
Histogram: 1 0 0 0 0 0 0 0 0 0
Neighs:    1.09881e+06 ave 1.09881e+06 max 1.09881e+06 min
Histogram: 1 0 0 0 0 0 0 0 0 0

Total # of neighbors = 1098812
Ave neighs/atom = 55.9135
Neighbor list builds = 495
Dangerous builds not checked
Setting up Verlet run ...
  Unit style    : metal
  Current step  : 240495
  Time step     : 0.001
Per MPI rank memory allocation (min/avg/max) = 18.2 | 18.2 | 18.2 Mbytes
Step Temp Press TotEng PotEng Enthalpy 
  240495    419.39227   -473.96774   -119909.87   -120975.17    -120045.1 
  245000    395.84877    511.04521   -120048.76   -121054.26    -119903.2 
Loop time of 652.697 on 1 procs for 4505 steps with 19652 atoms

Performance: 0.596 ns/day, 40.245 hours/ns, 6.902 timesteps/s
97.8% CPU use with 1 MPI tasks x no OpenMP threads

MPI task timing breakdown:
Section |  min time  |  avg time  |  max time  |%varavg| %total
---------------------------------------------------------------
Pair    | 367.84     | 367.84     | 367.84     |   0.0 | 56.36
Neigh   | 267.05     | 267.05     | 267.05     |   0.0 | 40.91
Comm    | 6.5547     | 6.5547     | 6.5547     |   0.0 |  1.00
Output  | 0.43968    | 0.43968    | 0.43968    |   0.0 |  0.07
Modify  | 8.5043     | 8.5043     | 8.5043     |   0.0 |  1.30
Other   |            | 2.306      |            |       |  0.35

Nlocal:    19652 ave 19652 max 19652 min
Histogram: 1 0 0 0 0 0 0 0 0 0
Nghost:    16074 ave 16074 max 16074 min
Histogram: 1 0 0 0 0 0 0 0 0 0
Neighs:    1.10027e+06 ave 1.10027e+06 max 1.10027e+06 min
Histogram: 1 0 0 0 0 0 0 0 0 0

Total # of neighbors = 1100269
Ave neighs/atom = 55.9876
Neighbor list builds = 4505
Dangerous builds not checked
Setting up Verlet run ...
  Unit style    : metal
  Current step  : 245000
  Time step     : 0.001
Per MPI rank memory allocation (min/avg/max) = 18.2 | 18.2 | 18.2 Mbytes
Step Temp Press TotEng PotEng Enthalpy 
  245000    395.84877    511.04521   -120048.76   -121054.26    -119903.2 
  245495    370.21061   -551.65152   -120191.19   -121131.56   -120348.44 
Loop time of 69.3828 on 1 procs for 495 steps with 19652 atoms

Performance: 0.616 ns/day, 38.935 hours/ns, 7.134 timesteps/s
96.6% CPU use with 1 MPI tasks x no OpenMP threads

MPI task timing breakdown:
Section |  min time  |  avg time  |  max time  |%varavg| %total
---------------------------------------------------------------
Pair    | 38.652     | 38.652     | 38.652     |   0.0 | 55.71
Neigh   | 28.93      | 28.93      | 28.93      |   0.0 | 41.70
Comm    | 0.66994    | 0.66994    | 0.66994    |   0.0 |  0.97
Output  | 0.00025296 | 0.00025296 | 0.00025296 |   0.0 |  0.00
Modify  | 0.87007    | 0.87007    | 0.87007    |   0.0 |  1.25
Other   |            | 0.2611     |            |       |  0.38

Nlocal:    19652 ave 19652 max 19652 min
Histogram: 1 0 0 0 0 0 0 0 0 0
Nghost:    16058 ave 16058 max 16058 min
Histogram: 1 0 0 0 0 0 0 0 0 0
Neighs:    1.10016e+06 ave 1.10016e+06 max 1.10016e+06 min
Histogram: 1 0 0 0 0 0 0 0 0 0

Total # of neighbors = 1100161
Ave neighs/atom = 55.9821
Neighbor list builds = 495
Dangerous builds not checked
Setting up Verlet run ...
  Unit style    : metal
  Current step  : 245495
  Time step     : 0.001
Per MPI rank memory allocation (min/avg/max) = 18.2 | 18.2 | 18.2 Mbytes
Step Temp Press TotEng PotEng Enthalpy 
  245495    370.21061   -551.65152   -120191.19   -121131.56   -120348.44 
  250000    348.86767   -44.181928   -120316.65   -121202.81   -120329.24 
Loop time of 668.298 on 1 procs for 4505 steps with 19652 atoms

Performance: 0.582 ns/day, 41.207 hours/ns, 6.741 timesteps/s
96.0% CPU use with 1 MPI tasks x no OpenMP threads

MPI task timing breakdown:
Section |  min time  |  avg time  |  max time  |%varavg| %total
---------------------------------------------------------------
Pair    | 376.96     | 376.96     | 376.96     |   0.0 | 56.41
Neigh   | 273.37     | 273.37     | 273.37     |   0.0 | 40.91
Comm    | 6.7563     | 6.7563     | 6.7563     |   0.0 |  1.01
Output  | 0.085909   | 0.085909   | 0.085909   |   0.0 |  0.01
Modify  | 8.7124     | 8.7124     | 8.7124     |   0.0 |  1.30
Other   |            | 2.415      |            |       |  0.36

Nlocal:    19652 ave 19652 max 19652 min
Histogram: 1 0 0 0 0 0 0 0 0 0
Nghost:    16100 ave 16100 max 16100 min
Histogram: 1 0 0 0 0 0 0 0 0 0
Neighs:    1.10092e+06 ave 1.10092e+06 max 1.10092e+06 min
Histogram: 1 0 0 0 0 0 0 0 0 0

Total # of neighbors = 1100922
Ave neighs/atom = 56.0209
Neighbor list builds = 4505
Dangerous builds not checked
Setting up Verlet run ...
  Unit style    : metal
  Current step  : 250000
  Time step     : 0.001
Per MPI rank memory allocation (min/avg/max) = 18.2 | 18.2 | 18.2 Mbytes
Step Temp Press TotEng PotEng Enthalpy 
  250000    348.86767   -44.181928   -120316.65   -121202.81   -120329.24 
  250495    319.27724    164.53938   -120461.53   -121272.53   -120414.71 
Loop time of 75.4505 on 1 procs for 495 steps with 19652 atoms

Performance: 0.567 ns/day, 42.340 hours/ns, 6.561 timesteps/s
95.2% CPU use with 1 MPI tasks x no OpenMP threads

MPI task timing breakdown:
Section |  min time  |  avg time  |  max time  |%varavg| %total
---------------------------------------------------------------
Pair    | 42.142     | 42.142     | 42.142     |   0.0 | 55.85
Neigh   | 31.301     | 31.301     | 31.301     |   0.0 | 41.49
Comm    | 0.76936    | 0.76936    | 0.76936    |   0.0 |  1.02
Output  | 0.00018096 | 0.00018096 | 0.00018096 |   0.0 |  0.00
Modify  | 0.95523    | 0.95523    | 0.95523    |   0.0 |  1.27
Other   |            | 0.2827     |            |       |  0.37

Nlocal:    19652 ave 19652 max 19652 min
Histogram: 1 0 0 0 0 0 0 0 0 0
Nghost:    16110 ave 16110 max 16110 min
Histogram: 1 0 0 0 0 0 0 0 0 0
Neighs:    1.10238e+06 ave 1.10238e+06 max 1.10238e+06 min
Histogram: 1 0 0 0 0 0 0 0 0 0

Total # of neighbors = 1102381
Ave neighs/atom = 56.0951
Neighbor list builds = 495
Dangerous builds not checked
Setting up Verlet run ...
  Unit style    : metal
  Current step  : 250495
  Time step     : 0.001
Per MPI rank memory allocation (min/avg/max) = 18.2 | 18.2 | 18.2 Mbytes
Step Temp Press TotEng PotEng Enthalpy 
  250495    319.27724    164.53938   -120461.53   -121272.53   -120414.71 
  255000    301.14709   -844.45691   -120597.06      -121362   -120837.52 
Loop time of 662.274 on 1 procs for 4505 steps with 19652 atoms

Performance: 0.588 ns/day, 40.836 hours/ns, 6.802 timesteps/s
97.5% CPU use with 1 MPI tasks x no OpenMP threads

MPI task timing breakdown:
Section |  min time  |  avg time  |  max time  |%varavg| %total
---------------------------------------------------------------
Pair    | 373.15     | 373.15     | 373.15     |   0.0 | 56.34
Neigh   | 270.95     | 270.95     | 270.95     |   0.0 | 40.91
Comm    | 6.8691     | 6.8691     | 6.8691     |   0.0 |  1.04
Output  | 0.086444   | 0.086444   | 0.086444   |   0.0 |  0.01
Modify  | 8.7489     | 8.7489     | 8.7489     |   0.0 |  1.32
Other   |            | 2.473      |            |       |  0.37

Nlocal:    19652 ave 19652 max 19652 min
Histogram: 1 0 0 0 0 0 0 0 0 0
Nghost:    16110 ave 16110 max 16110 min
Histogram: 1 0 0 0 0 0 0 0 0 0
Neighs:    1.10187e+06 ave 1.10187e+06 max 1.10187e+06 min
Histogram: 1 0 0 0 0 0 0 0 0 0

Total # of neighbors = 1101871
Ave neighs/atom = 56.0692
Neighbor list builds = 4505
Dangerous builds not checked
Setting up Verlet run ...
  Unit style    : metal
  Current step  : 255000
  Time step     : 0.001
Per MPI rank memory allocation (min/avg/max) = 18.2 | 18.2 | 18.2 Mbytes
Step Temp Press TotEng PotEng Enthalpy 
  255000    301.14709   -844.45691   -120597.06      -121362   -120837.52 
  255495     272.3849   -824.89488   -120736.19   -121428.07   -120970.94 
Loop time of 69.3143 on 1 procs for 495 steps with 19652 atoms

Performance: 0.617 ns/day, 38.897 hours/ns, 7.141 timesteps/s
99.1% CPU use with 1 MPI tasks x no OpenMP threads

MPI task timing breakdown:
Section |  min time  |  avg time  |  max time  |%varavg| %total
---------------------------------------------------------------
Pair    | 38.747     | 38.747     | 38.747     |   0.0 | 55.90
Neigh   | 28.616     | 28.616     | 28.616     |   0.0 | 41.28
Comm    | 0.79451    | 0.79451    | 0.79451    |   0.0 |  1.15
Output  | 0.00018406 | 0.00018406 | 0.00018406 |   0.0 |  0.00
Modify  | 0.90032    | 0.90032    | 0.90032    |   0.0 |  1.30
Other   |            | 0.2558     |            |       |  0.37

Nlocal:    19652 ave 19652 max 19652 min
Histogram: 1 0 0 0 0 0 0 0 0 0
Nghost:    16103 ave 16103 max 16103 min
Histogram: 1 0 0 0 0 0 0 0 0 0
Neighs:    1.1026e+06 ave 1.1026e+06 max 1.1026e+06 min
Histogram: 1 0 0 0 0 0 0 0 0 0

Total # of neighbors = 1102595
Ave neighs/atom = 56.106
Neighbor list builds = 495
Dangerous builds not checked
Setting up Verlet run ...
  Unit style    : metal
  Current step  : 255495
  Time step     : 0.001
Per MPI rank memory allocation (min/avg/max) = 18.2 | 18.2 | 18.2 Mbytes
Step Temp Press TotEng PotEng Enthalpy 
  255495     272.3849   -824.89488   -120736.19   -121428.07   -120970.94 
  260000    250.93746   -342.72069   -120867.83   -121505.23   -120965.26 
Loop time of 632.079 on 1 procs for 4505 steps with 19652 atoms

Performance: 0.616 ns/day, 38.974 hours/ns, 7.127 timesteps/s
99.0% CPU use with 1 MPI tasks x no OpenMP threads

MPI task timing breakdown:
Section |  min time  |  avg time  |  max time  |%varavg| %total
---------------------------------------------------------------
Pair    | 352.65     | 352.65     | 352.65     |   0.0 | 55.79
Neigh   | 262.99     | 262.99     | 262.99     |   0.0 | 41.61
Comm    | 6.0538     | 6.0538     | 6.0538     |   0.0 |  0.96
Output  | 0.10276    | 0.10276    | 0.10276    |   0.0 |  0.02
Modify  | 8.0503     | 8.0503     | 8.0503     |   0.0 |  1.27
Other   |            | 2.226      |            |       |  0.35

Nlocal:    19652 ave 19652 max 19652 min
Histogram: 1 0 0 0 0 0 0 0 0 0
Nghost:    16087 ave 16087 max 16087 min
Histogram: 1 0 0 0 0 0 0 0 0 0
Neighs:    1.10388e+06 ave 1.10388e+06 max 1.10388e+06 min
Histogram: 1 0 0 0 0 0 0 0 0 0

Total # of neighbors = 1103878
Ave neighs/atom = 56.1713
Neighbor list builds = 4505
Dangerous builds not checked
Setting up Verlet run ...
  Unit style    : metal
  Current step  : 260000
  Time step     : 0.001
Per MPI rank memory allocation (min/avg/max) = 18.2 | 18.2 | 18.2 Mbytes
Step Temp Press TotEng PotEng Enthalpy 
  260000    250.93746   -342.72069   -120867.83   -121505.23   -120965.26 
  260495     225.9759    109.54264   -121007.26   -121581.26   -120976.15 
Loop time of 70.907 on 1 procs for 495 steps with 19652 atoms

Performance: 0.603 ns/day, 39.791 hours/ns, 6.981 timesteps/s
95.1% CPU use with 1 MPI tasks x no OpenMP threads

MPI task timing breakdown:
Section |  min time  |  avg time  |  max time  |%varavg| %total
---------------------------------------------------------------
Pair    | 39.82      | 39.82      | 39.82      |   0.0 | 56.16
Neigh   | 29.278     | 29.278     | 29.278     |   0.0 | 41.29
Comm    | 0.68847    | 0.68847    | 0.68847    |   0.0 |  0.97
Output  | 0.00020194 | 0.00020194 | 0.00020194 |   0.0 |  0.00
Modify  | 0.87905    | 0.87905    | 0.87905    |   0.0 |  1.24
Other   |            | 0.242      |            |       |  0.34

Nlocal:    19652 ave 19652 max 19652 min
Histogram: 1 0 0 0 0 0 0 0 0 0
Nghost:    16112 ave 16112 max 16112 min
Histogram: 1 0 0 0 0 0 0 0 0 0
Neighs:    1.10497e+06 ave 1.10497e+06 max 1.10497e+06 min
Histogram: 1 0 0 0 0 0 0 0 0 0

Total # of neighbors = 1104972
Ave neighs/atom = 56.2269
Neighbor list builds = 495
Dangerous builds not checked
Setting up Verlet run ...
  Unit style    : metal
  Current step  : 260495
  Time step     : 0.001
Per MPI rank memory allocation (min/avg/max) = 18.2 | 18.2 | 18.2 Mbytes
Step Temp Press TotEng PotEng Enthalpy 
  260495     225.9759    109.54264   -121007.26   -121581.26   -120976.15 
  265000    199.55271   -325.58471   -121137.03   -121643.91    -121229.5 
Loop time of 744.626 on 1 procs for 4505 steps with 19652 atoms

Performance: 0.523 ns/day, 45.914 hours/ns, 6.050 timesteps/s
81.3% CPU use with 1 MPI tasks x no OpenMP threads

MPI task timing breakdown:
Section |  min time  |  avg time  |  max time  |%varavg| %total
---------------------------------------------------------------
Pair    | 417.19     | 417.19     | 417.19     |   0.0 | 56.03
Neigh   | 307.16     | 307.16     | 307.16     |   0.0 | 41.25
Comm    | 7.5923     | 7.5923     | 7.5923     |   0.0 |  1.02
Output  | 0.092162   | 0.092162   | 0.092162   |   0.0 |  0.01
Modify  | 9.8244     | 9.8244     | 9.8244     |   0.0 |  1.32
Other   |            | 2.766      |            |       |  0.37

Nlocal:    19652 ave 19652 max 19652 min
Histogram: 1 0 0 0 0 0 0 0 0 0
Nghost:    16116 ave 16116 max 16116 min
Histogram: 1 0 0 0 0 0 0 0 0 0
Neighs:    1.10513e+06 ave 1.10513e+06 max 1.10513e+06 min
Histogram: 1 0 0 0 0 0 0 0 0 0

Total # of neighbors = 1105128
Ave neighs/atom = 56.2349
Neighbor list builds = 4505
Dangerous builds not checked
Setting up Verlet run ...
  Unit style    : metal
  Current step  : 265000
  Time step     : 0.001
Per MPI rank memory allocation (min/avg/max) = 18.2 | 18.2 | 18.2 Mbytes
Step Temp Press TotEng PotEng Enthalpy 
  265000    199.55271   -325.58471   -121137.03   -121643.91    -121229.5 
  265495    175.86346     236.5764   -121266.97   -121713.68   -121199.86 
Loop time of 81.9978 on 1 procs for 495 steps with 19652 atoms

Performance: 0.522 ns/day, 46.014 hours/ns, 6.037 timesteps/s
82.3% CPU use with 1 MPI tasks x no OpenMP threads

MPI task timing breakdown:
Section |  min time  |  avg time  |  max time  |%varavg| %total
---------------------------------------------------------------
Pair    | 46.899     | 46.899     | 46.899     |   0.0 | 57.20
Neigh   | 32.741     | 32.741     | 32.741     |   0.0 | 39.93
Comm    | 0.89972    | 0.89972    | 0.89972    |   0.0 |  1.10
Output  | 0.00018215 | 0.00018215 | 0.00018215 |   0.0 |  0.00
Modify  | 1.1537     | 1.1537     | 1.1537     |   0.0 |  1.41
Other   |            | 0.3049     |            |       |  0.37

Nlocal:    19652 ave 19652 max 19652 min
Histogram: 1 0 0 0 0 0 0 0 0 0
Nghost:    16136 ave 16136 max 16136 min
Histogram: 1 0 0 0 0 0 0 0 0 0
Neighs:    1.10685e+06 ave 1.10685e+06 max 1.10685e+06 min
Histogram: 1 0 0 0 0 0 0 0 0 0

Total # of neighbors = 1106847
Ave neighs/atom = 56.3224
Neighbor list builds = 495
Dangerous builds not checked
Setting up Verlet run ...
  Unit style    : metal
  Current step  : 265495
  Time step     : 0.001
Per MPI rank memory allocation (min/avg/max) = 18.2 | 18.2 | 18.2 Mbytes
Step Temp Press TotEng PotEng Enthalpy 
  265495    175.86346     236.5764   -121266.97   -121713.68   -121199.86 
  270000    149.11164    233.96252   -121406.56   -121785.32   -121340.22 
Loop time of 711.624 on 1 procs for 4505 steps with 19652 atoms

Performance: 0.547 ns/day, 43.879 hours/ns, 6.331 timesteps/s
82.5% CPU use with 1 MPI tasks x no OpenMP threads

MPI task timing breakdown:
Section |  min time  |  avg time  |  max time  |%varavg| %total
---------------------------------------------------------------
Pair    | 395.8      | 395.8      | 395.8      |   0.0 | 55.62
Neigh   | 297.34     | 297.34     | 297.34     |   0.0 | 41.78
Comm    | 6.7956     | 6.7956     | 6.7956     |   0.0 |  0.95
Output  | 0.073445   | 0.073445   | 0.073445   |   0.0 |  0.01
Modify  | 9.0755     | 9.0755     | 9.0755     |   0.0 |  1.28
Other   |            | 2.542      |            |       |  0.36

Nlocal:    19652 ave 19652 max 19652 min
Histogram: 1 0 0 0 0 0 0 0 0 0
Nghost:    16164 ave 16164 max 16164 min
Histogram: 1 0 0 0 0 0 0 0 0 0
Neighs:    1.10741e+06 ave 1.10741e+06 max 1.10741e+06 min
Histogram: 1 0 0 0 0 0 0 0 0 0

Total # of neighbors = 1107407
Ave neighs/atom = 56.3509
Neighbor list builds = 4505
Dangerous builds not checked
Setting up Verlet run ...
  Unit style    : metal
  Current step  : 270000
  Time step     : 0.001
Per MPI rank memory allocation (min/avg/max) = 18.2 | 18.2 | 18.2 Mbytes
Step Temp Press TotEng PotEng Enthalpy 
  270000    149.11164    233.96252   -121406.56   -121785.32   -121340.22 
  270495    127.38927   -85.908461   -121521.86   -121845.44   -121546.21 
Loop time of 81.9023 on 1 procs for 495 steps with 19652 atoms

Performance: 0.522 ns/day, 45.961 hours/ns, 6.044 timesteps/s
77.2% CPU use with 1 MPI tasks x no OpenMP threads

MPI task timing breakdown:
Section |  min time  |  avg time  |  max time  |%varavg| %total
---------------------------------------------------------------
Pair    | 45.424     | 45.424     | 45.424     |   0.0 | 55.46
Neigh   | 34.398     | 34.398     | 34.398     |   0.0 | 42.00
Comm    | 0.81307    | 0.81307    | 0.81307    |   0.0 |  0.99
Output  | 0.00016713 | 0.00016713 | 0.00016713 |   0.0 |  0.00
Modify  | 0.99463    | 0.99463    | 0.99463    |   0.0 |  1.21
Other   |            | 0.2723     |            |       |  0.33

Nlocal:    19652 ave 19652 max 19652 min
Histogram: 1 0 0 0 0 0 0 0 0 0
Nghost:    16134 ave 16134 max 16134 min
Histogram: 1 0 0 0 0 0 0 0 0 0
Neighs:    1.10758e+06 ave 1.10758e+06 max 1.10758e+06 min
Histogram: 1 0 0 0 0 0 0 0 0 0

Total # of neighbors = 1107576
Ave neighs/atom = 56.3595
Neighbor list builds = 495
Dangerous builds not checked
Setting up Verlet run ...
  Unit style    : metal
  Current step  : 270495
  Time step     : 0.001
Per MPI rank memory allocation (min/avg/max) = 18.2 | 18.2 | 18.2 Mbytes
Step Temp Press TotEng PotEng Enthalpy 
  270495    127.38927   -85.908461   -121521.86   -121845.44   -121546.21 
  275000    99.907781    395.99777   -121661.21   -121914.98   -121549.04 
Loop time of 657.53 on 1 procs for 4505 steps with 19652 atoms

Performance: 0.592 ns/day, 40.543 hours/ns, 6.851 timesteps/s
83.2% CPU use with 1 MPI tasks x no OpenMP threads

MPI task timing breakdown:
Section |  min time  |  avg time  |  max time  |%varavg| %total
---------------------------------------------------------------
Pair    | 361.9      | 361.9      | 361.9      |   0.0 | 55.04
Neigh   | 279.01     | 279.01     | 279.01     |   0.0 | 42.43
Comm    | 6.0217     | 6.0217     | 6.0217     |   0.0 |  0.92
Output  | 0.22637    | 0.22637    | 0.22637    |   0.0 |  0.03
Modify  | 8.0883     | 8.0883     | 8.0883     |   0.0 |  1.23
Other   |            | 2.284      |            |       |  0.35

Nlocal:    19652 ave 19652 max 19652 min
Histogram: 1 0 0 0 0 0 0 0 0 0
Nghost:    16151 ave 16151 max 16151 min
Histogram: 1 0 0 0 0 0 0 0 0 0
Neighs:    1.10914e+06 ave 1.10914e+06 max 1.10914e+06 min
Histogram: 1 0 0 0 0 0 0 0 0 0

Total # of neighbors = 1109139
Ave neighs/atom = 56.439
Neighbor list builds = 4505
Dangerous builds not checked
Total wall time: 11:12:50
