LAMMPS (12 Dec 2018)
Lattice spacing in x,y,z = 4 4 4
Created orthogonal box = (0 0 0) to (68 68 68)
  1 by 1 by 2 MPI processor grid
Created 19652 atoms
  Time spent = 0.00161695 secs
Setting atom values ...
  417 settings made for type/fraction
Neighbor list info ...
  update every 1 steps, delay 0 steps, check no
  max neighbors/atom: 2000, page size: 100000
  master list distance cutoff = 8.5
  ghost atom cutoff = 8.5
  binsize = 4.25, bins = 16 16 16
  1 neighbor lists, perpetual/occasional/extra = 1 0 0
  (1) pair eam/alloy, perpetual
      attributes: half, newton on
      pair build: half/bin/atomonly/newton
      stencil: half/bin/3d/newton
      bin: standard
Setting up Verlet run ...
  Unit style    : metal
  Current step  : 0
  Time step     : 0.001
Per MPI rank memory allocation (min/avg/max) = 11.15 | 11.15 | 11.15 Mbytes
Step Temp Press TotEng PotEng Enthalpy 
       0          300      1200412   -19364.497   -20126.524       216220 
    1000    164.06686    1203530.1   -19364.374   -19781.118    216832.06 
Loop time of 91.2398 on 2 procs for 1000 steps with 19652 atoms

Performance: 0.947 ns/day, 25.344 hours/ns, 10.960 timesteps/s
95.6% CPU use with 2 MPI tasks x no OpenMP threads

MPI task timing breakdown:
Section |  min time  |  avg time  |  max time  |%varavg| %total
---------------------------------------------------------------
Pair    | 52.666     | 52.939     | 53.211     |   3.7 | 58.02
Neigh   | 32.188     | 33.473     | 34.757     |  22.2 | 36.69
Comm    | 3.3998     | 4.4289     | 5.458      |  48.9 |  4.85
Output  | 7.2002e-05 | 0.00010109 | 0.00013018 |   0.0 |  0.00
Modify  | 0.19155    | 0.19893    | 0.2063     |   1.7 |  0.22
Other   |            | 0.2003     |            |       |  0.22

Nlocal:    9826 ave 9839 max 9813 min
Histogram: 1 0 0 0 0 0 0 0 0 1
Nghost:    14211 ave 14224 max 14198 min
Histogram: 1 0 0 0 0 0 0 0 0 1
Neighs:    795457 ave 796626 max 794288 min
Histogram: 1 0 0 0 0 0 0 0 0 1

Total # of neighbors = 1590914
Ave neighs/atom = 80.9543
Neighbor list builds = 1000
Dangerous builds not checked
Setting up Verlet run ...
  Unit style    : metal
  Current step  : 1000
  Time step     : 0.001
Per MPI rank memory allocation (min/avg/max) = 11.15 | 11.15 | 11.15 Mbytes
Step Temp Press TotEng PotEng Enthalpy 
    1000    164.06686    1203530.1   -19364.374   -19781.118    216832.06 
    2000    180.59903    1505.8408   -86293.897   -86752.635   -85609.359 
Loop time of 59.0587 on 2 procs for 1000 steps with 19652 atoms

Performance: 1.463 ns/day, 16.405 hours/ns, 16.932 timesteps/s
99.4% CPU use with 2 MPI tasks x no OpenMP threads

MPI task timing breakdown:
Section |  min time  |  avg time  |  max time  |%varavg| %total
---------------------------------------------------------------
Pair    | 30.762     | 30.829     | 30.896     |   1.2 | 52.20
Neigh   | 24.167     | 24.877     | 25.588     |  14.2 | 42.12
Comm    | 1.7405     | 2.4009     | 3.0613     |  42.6 |  4.07
Output  | 6.9857e-05 | 0.0001024  | 0.00013494 |   0.0 |  0.00
Modify  | 0.74737    | 0.75338    | 0.75939    |   0.7 |  1.28
Other   |            | 0.1981     |            |       |  0.34

Nlocal:    9826 ave 9891 max 9761 min
Histogram: 1 0 0 0 0 0 0 0 0 1
Nghost:    10346 ave 10411 max 10281 min
Histogram: 1 0 0 0 0 0 0 0 0 1
Neighs:    355276 ave 356508 max 354045 min
Histogram: 1 0 0 0 0 0 0 0 0 1

Total # of neighbors = 710553
Ave neighs/atom = 36.1568
Neighbor list builds = 1000
Dangerous builds not checked
Setting up Verlet run ...
  Unit style    : metal
  Current step  : 2000
  Time step     : 0.001
Per MPI rank memory allocation (min/avg/max) = 11.17 | 11.17 | 11.17 Mbytes
Step Temp Press TotEng PotEng Enthalpy 
    2000    180.59903    1505.8408   -86293.897   -86752.635   -85609.359 
   10000    2490.5515   -185.21267   -73736.708   -80062.935    -73832.96 
Loop time of 481.381 on 2 procs for 8000 steps with 19652 atoms

Performance: 1.436 ns/day, 16.715 hours/ns, 16.619 timesteps/s
86.8% CPU use with 2 MPI tasks x no OpenMP threads

MPI task timing breakdown:
Section |  min time  |  avg time  |  max time  |%varavg| %total
---------------------------------------------------------------
Pair    | 234.05     | 236.98     | 239.9      |  19.0 | 49.23
Neigh   | 176.89     | 187.21     | 197.54     |  75.5 | 38.89
Comm    | 34.066     | 42.237     | 50.409     | 125.7 |  8.77
Output  | 7.5817e-05 | 0.00010538 | 0.00013494 |   0.0 |  0.00
Modify  | 12.517     | 13.174     | 13.831     |  18.1 |  2.74
Other   |            | 1.781      |            |       |  0.37

Nlocal:    9826 ave 9841 max 9811 min
Histogram: 1 0 0 0 0 0 0 0 0 1
Nghost:    8838.5 ave 8855 max 8822 min
Histogram: 1 0 0 0 0 0 0 0 0 1
Neighs:    294491 ave 294521 max 294461 min
Histogram: 1 0 0 0 0 0 0 0 0 1

Total # of neighbors = 588982
Ave neighs/atom = 29.9706
Neighbor list builds = 8000
Dangerous builds not checked
Setting up Verlet run ...
  Unit style    : metal
  Current step  : 10000
  Time step     : 0.001
Per MPI rank memory allocation (min/avg/max) = 11.18 | 11.18 | 11.18 Mbytes
Step Temp Press TotEng PotEng Enthalpy 
   10000    2490.5515   -185.21267   -73736.708   -80062.935    -73832.96 
   20000    2438.2064   -537.28916   -73850.892   -80044.159   -74130.175 
   40000    2470.9727    735.46006   -73798.939   -80075.434   -73418.031 
Loop time of 1972.92 on 2 procs for 30000 steps with 19652 atoms

Performance: 1.314 ns/day, 18.268 hours/ns, 15.206 timesteps/s
79.5% CPU use with 2 MPI tasks x no OpenMP threads

MPI task timing breakdown:
Section |  min time  |  avg time  |  max time  |%varavg| %total
---------------------------------------------------------------
Pair    | 988.55     | 990.53     | 992.51     |   6.3 | 50.21
Neigh   | 731.22     | 733.08     | 734.94     |   6.9 | 37.16
Comm    | 202.68     | 202.68     | 202.68     |   0.0 | 10.27
Output  | 0.30202    | 0.30205    | 0.30209    |   0.0 |  0.02
Modify  | 38.866     | 39.001     | 39.136     |   2.2 |  1.98
Other   |            | 7.327      |            |       |  0.37

Nlocal:    9826 ave 9852 max 9800 min
Histogram: 1 0 0 0 0 0 0 0 0 1
Nghost:    8898 ave 8917 max 8879 min
Histogram: 1 0 0 0 0 0 0 0 0 1
Neighs:    295459 ave 296838 max 294080 min
Histogram: 1 0 0 0 0 0 0 0 0 1

Total # of neighbors = 590918
Ave neighs/atom = 30.0691
Neighbor list builds = 30000
Dangerous builds not checked
Setting up Verlet run ...
  Unit style    : metal
  Current step  : 40000
  Time step     : 0.001
Per MPI rank memory allocation (min/avg/max) = 11.26 | 11.26 | 11.26 Mbytes
Step Temp Press TotEng PotEng Enthalpy 
   40000    2470.9727    735.46006   -73798.939   -80075.434   -73418.031 
   40495    2423.5391    61.256809   -73964.882   -80120.892   -73933.135 
Loop time of 22.573 on 2 procs for 495 steps with 19652 atoms

Performance: 1.895 ns/day, 12.667 hours/ns, 21.929 timesteps/s
97.4% CPU use with 2 MPI tasks x no OpenMP threads

MPI task timing breakdown:
Section |  min time  |  avg time  |  max time  |%varavg| %total
---------------------------------------------------------------
Pair    | 10.935     | 11.132     | 11.329     |   5.9 | 49.32
Neigh   | 9.0882     | 9.703      | 10.318     |  19.7 | 42.99
Comm    | 0.79493    | 1.2445     | 1.6941     |  40.3 |  5.51
Output  | 7.2002e-05 | 9.4056e-05 | 0.00011611 |   0.0 |  0.00
Modify  | 0.37373    | 0.39564    | 0.41755    |   3.5 |  1.75
Other   |            | 0.09761    |            |       |  0.43

Nlocal:    9826 ave 9848 max 9804 min
Histogram: 1 0 0 0 0 0 0 0 0 1
Nghost:    8834 ave 8861 max 8807 min
Histogram: 1 0 0 0 0 0 0 0 0 1
Neighs:    294891 ave 295793 max 293989 min
Histogram: 1 0 0 0 0 0 0 0 0 1

Total # of neighbors = 589782
Ave neighs/atom = 30.0113
Neighbor list builds = 495
Dangerous builds not checked
Setting up Verlet run ...
  Unit style    : metal
  Current step  : 40495
  Time step     : 0.001
Per MPI rank memory allocation (min/avg/max) = 11.26 | 11.26 | 11.26 Mbytes
Step Temp Press TotEng PotEng Enthalpy 
   40495    2423.5391    61.256809   -73964.882   -80120.892   -73933.135 
   60000    2388.8157   -229.43204   -74074.651   -80142.461   -74193.651 
Loop time of 1202.72 on 2 procs for 19505 steps with 19652 atoms

Performance: 1.401 ns/day, 17.128 hours/ns, 16.217 timesteps/s
83.5% CPU use with 2 MPI tasks x no OpenMP threads

MPI task timing breakdown:
Section |  min time  |  avg time  |  max time  |%varavg| %total
---------------------------------------------------------------
Pair    | 593.67     | 599.75     | 605.84     |  24.9 | 49.87
Neigh   | 426.28     | 446.76     | 467.23     |  96.9 | 37.15
Comm    | 114.94     | 130.1      | 145.26     | 132.9 | 10.82
Output  | 0.22919    | 0.2292     | 0.22922    |   0.0 |  0.02
Modify  | 20.817     | 21.276     | 21.735     |  10.0 |  1.77
Other   |            | 4.603      |            |       |  0.38

Nlocal:    9826 ave 9837 max 9815 min
Histogram: 1 0 0 0 0 0 0 0 0 1
Nghost:    8848.5 ave 8881 max 8816 min
Histogram: 1 0 0 0 0 0 0 0 0 1
Neighs:    294847 ave 295511 max 294183 min
Histogram: 1 0 0 0 0 0 0 0 0 1

Total # of neighbors = 589694
Ave neighs/atom = 30.0068
Neighbor list builds = 19505
Dangerous builds not checked
Setting up Verlet run ...
  Unit style    : metal
  Current step  : 60000
  Time step     : 0.001
Per MPI rank memory allocation (min/avg/max) = 11.28 | 11.28 | 11.28 Mbytes
Step Temp Press TotEng PotEng Enthalpy 
   60000    2388.8157   -229.43204   -74074.651   -80142.461   -74193.651 
   60495    2368.5918    321.57357   -74245.493   -80261.933   -74079.294 
Loop time of 54.1534 on 2 procs for 495 steps with 19652 atoms

Performance: 0.790 ns/day, 30.389 hours/ns, 9.141 timesteps/s
60.1% CPU use with 2 MPI tasks x no OpenMP threads

MPI task timing breakdown:
Section |  min time  |  avg time  |  max time  |%varavg| %total
---------------------------------------------------------------
Pair    | 24.017     | 24.466     | 24.915     |   9.1 | 45.18
Neigh   | 15.653     | 16.868     | 18.083     |  29.6 | 31.15
Comm    | 9.2477     | 9.9832     | 10.719     |  23.3 | 18.44
Output  | 7.0095e-05 | 9.3579e-05 | 0.00011706 |   0.0 |  0.00
Modify  | 2.5862     | 2.6333     | 2.6804     |   2.9 |  4.86
Other   |            | 0.203      |            |       |  0.37

Nlocal:    9826 ave 9847 max 9805 min
Histogram: 1 0 0 0 0 0 0 0 0 1
Nghost:    8841 ave 8869 max 8813 min
Histogram: 1 0 0 0 0 0 0 0 0 1
Neighs:    295822 ave 296647 max 294998 min
Histogram: 1 0 0 0 0 0 0 0 0 1

Total # of neighbors = 591645
Ave neighs/atom = 30.1061
Neighbor list builds = 495
Dangerous builds not checked
Setting up Verlet run ...
  Unit style    : metal
  Current step  : 60495
  Time step     : 0.001
Per MPI rank memory allocation (min/avg/max) = 11.28 | 11.28 | 11.28 Mbytes
Step Temp Press TotEng PotEng Enthalpy 
   60495    2368.5918    321.57357   -74245.493   -80261.933   -74079.294 
   80000    2353.8906   -337.08767    -74295.51   -80274.607   -74469.926 
Loop time of 1032.27 on 2 procs for 19505 steps with 19652 atoms

Performance: 1.633 ns/day, 14.701 hours/ns, 18.895 timesteps/s
90.0% CPU use with 2 MPI tasks x no OpenMP threads

MPI task timing breakdown:
Section |  min time  |  avg time  |  max time  |%varavg| %total
---------------------------------------------------------------
Pair    | 487.8      | 491.23     | 494.66     |  15.5 | 47.59
Neigh   | 388.04     | 397.53     | 407.03     |  47.6 | 38.51
Comm    | 107.6      | 113.92     | 120.24     |  59.2 | 11.04
Output  | 4.17       | 4.17       | 4.17       |   0.0 |  0.40
Modify  | 21.296     | 21.409     | 21.522     |   2.4 |  2.07
Other   |            | 4.007      |            |       |  0.39

Nlocal:    9826 ave 9858 max 9794 min
Histogram: 1 0 0 0 0 0 0 0 0 1
Nghost:    8894 ave 8913 max 8875 min
Histogram: 1 0 0 0 0 0 0 0 0 1
Neighs:    295618 ave 297269 max 293968 min
Histogram: 1 0 0 0 0 0 0 0 0 1

Total # of neighbors = 591237
Ave neighs/atom = 30.0853
Neighbor list builds = 19505
Dangerous builds not checked
Setting up Verlet run ...
  Unit style    : metal
  Current step  : 80000
  Time step     : 0.001
Per MPI rank memory allocation (min/avg/max) = 11.29 | 11.29 | 11.29 Mbytes
Step Temp Press TotEng PotEng Enthalpy 
   80000    2353.8906   -337.08767    -74295.51   -80274.607   -74469.926 
   80495    2308.7101    33.245619   -74455.877   -80320.211   -74438.715 
Loop time of 31.5769 on 2 procs for 495 steps with 19652 atoms

Performance: 1.354 ns/day, 17.720 hours/ns, 15.676 timesteps/s
83.0% CPU use with 2 MPI tasks x no OpenMP threads

MPI task timing breakdown:
Section |  min time  |  avg time  |  max time  |%varavg| %total
---------------------------------------------------------------
Pair    | 20.402     | 20.5       | 20.599     |   2.2 | 64.92
Neigh   | 9.4374     | 9.5894     | 9.7414     |   4.9 | 30.37
Comm    | 0.91032    | 0.97306    | 1.0358     |   6.4 |  3.08
Output  | 8.1062e-05 | 9.3937e-05 | 0.00010681 |   0.0 |  0.00
Modify  | 0.41201    | 0.42027    | 0.42854    |   1.3 |  1.33
Other   |            | 0.09373    |            |       |  0.30

Nlocal:    9826 ave 9850 max 9802 min
Histogram: 1 0 0 0 0 0 0 0 0 1
Nghost:    8855.5 ave 8870 max 8841 min
Histogram: 1 0 0 0 0 0 0 0 0 1
Neighs:    296358 ave 297452 max 295263 min
Histogram: 1 0 0 0 0 0 0 0 0 1

Total # of neighbors = 592715
Ave neighs/atom = 30.1605
Neighbor list builds = 495
Dangerous builds not checked
Setting up Verlet run ...
  Unit style    : metal
  Current step  : 80495
  Time step     : 0.001
Per MPI rank memory allocation (min/avg/max) = 11.29 | 11.29 | 11.29 Mbytes
Step Temp Press TotEng PotEng Enthalpy 
   80495    2308.7101    33.245619   -74455.877   -80320.211   -74438.715 
  100000    2299.4748   -681.87551   -74497.345    -80338.22   -74850.184 
Loop time of 918.879 on 2 procs for 19505 steps with 19652 atoms

Performance: 1.834 ns/day, 13.086 hours/ns, 21.227 timesteps/s
95.6% CPU use with 2 MPI tasks x no OpenMP threads

MPI task timing breakdown:
Section |  min time  |  avg time  |  max time  |%varavg| %total
---------------------------------------------------------------
Pair    | 421.37     | 425.88     | 430.39     |  21.9 | 46.35
Neigh   | 375.51     | 385.8      | 396.1      |  52.4 | 41.99
Comm    | 51.452     | 57.602     | 63.753     |  81.0 |  6.27
Output  | 0.11687    | 0.11687    | 0.11688    |   0.0 |  0.01
Modify  | 45.374     | 45.634     | 45.894     |   3.9 |  4.97
Other   |            | 3.844      |            |       |  0.42

Nlocal:    9826 ave 9830 max 9822 min
Histogram: 1 0 0 0 0 0 0 0 0 1
Nghost:    8809 ave 8813 max 8805 min
Histogram: 1 0 0 0 0 0 0 0 0 1
Neighs:    295742 ave 295803 max 295681 min
Histogram: 1 0 0 0 0 0 0 0 0 1

Total # of neighbors = 591484
Ave neighs/atom = 30.0979
Neighbor list builds = 19505
Dangerous builds not checked
Setting up Verlet run ...
  Unit style    : metal
  Current step  : 100000
  Time step     : 0.001
Per MPI rank memory allocation (min/avg/max) = 11.31 | 11.31 | 11.31 Mbytes
Step Temp Press TotEng PotEng Enthalpy 
  100000    2299.4748   -681.87551   -74497.345    -80338.22   -74850.184 
  100495    2254.8253    150.28799    -74751.47   -80478.932   -74674.149 
Loop time of 18.6825 on 2 procs for 495 steps with 19652 atoms

Performance: 2.289 ns/day, 10.484 hours/ns, 26.495 timesteps/s
98.3% CPU use with 2 MPI tasks x no OpenMP threads

MPI task timing breakdown:
Section |  min time  |  avg time  |  max time  |%varavg| %total
---------------------------------------------------------------
Pair    | 8.8258     | 8.8382     | 8.8505     |   0.4 | 47.31
Neigh   | 8.3876     | 8.4171     | 8.4467     |   1.0 | 45.05
Comm    | 0.76851    | 0.79016    | 0.81181    |   2.4 |  4.23
Output  | 7.9155e-05 | 0.11311    | 0.22615    |  33.6 |  0.61
Modify  | 0.32712    | 0.32955    | 0.33199    |   0.4 |  1.76
Other   |            | 0.1943     |            |       |  1.04

Nlocal:    9826 ave 9833 max 9819 min
Histogram: 1 0 0 0 0 0 0 0 0 1
Nghost:    8868.5 ave 8877 max 8860 min
Histogram: 1 0 0 0 0 0 0 0 0 1
Neighs:    297384 ave 297437 max 297330 min
Histogram: 1 0 0 0 0 0 0 0 0 1

Total # of neighbors = 594767
Ave neighs/atom = 30.265
Neighbor list builds = 495
Dangerous builds not checked
Setting up Verlet run ...
  Unit style    : metal
  Current step  : 100495
  Time step     : 0.001
Per MPI rank memory allocation (min/avg/max) = 11.31 | 11.31 | 11.31 Mbytes
Step Temp Press TotEng PotEng Enthalpy 
  100495    2254.8253    150.28799    -74751.47   -80478.932   -74674.149 
  120000    2270.5833   -436.65213   -74707.327   -80474.816   -74932.456 
Loop time of 889.677 on 2 procs for 19505 steps with 19652 atoms

Performance: 1.894 ns/day, 12.670 hours/ns, 21.924 timesteps/s
97.4% CPU use with 2 MPI tasks x no OpenMP threads

MPI task timing breakdown:
Section |  min time  |  avg time  |  max time  |%varavg| %total
---------------------------------------------------------------
Pair    | 432.55     | 433.51     | 434.47     |   4.6 | 48.73
Neigh   | 384.81     | 392.07     | 399.32     |  36.6 | 44.07
Comm    | 37.453     | 43.995     | 50.537     |  98.6 |  4.95
Output  | 0.18085    | 0.18087    | 0.18088    |   0.0 |  0.02
Modify  | 15.834     | 15.944     | 16.055     |   2.8 |  1.79
Other   |            | 3.98       |            |       |  0.45

Nlocal:    9826 ave 9838 max 9814 min
Histogram: 1 0 0 0 0 0 0 0 0 1
Nghost:    8888 ave 8908 max 8868 min
Histogram: 1 0 0 0 0 0 0 0 0 1
Neighs:    296794 ave 297439 max 296149 min
Histogram: 1 0 0 0 0 0 0 0 0 1

Total # of neighbors = 593588
Ave neighs/atom = 30.205
Neighbor list builds = 19505
Dangerous builds not checked
Setting up Verlet run ...
  Unit style    : metal
  Current step  : 120000
  Time step     : 0.001
Per MPI rank memory allocation (min/avg/max) = 11.31 | 11.31 | 11.31 Mbytes
Step Temp Press TotEng PotEng Enthalpy 
  120000    2270.5833   -436.65213   -74707.327   -80474.816   -74932.456 
  120495    2211.9108   -9.3921881   -74936.731   -80555.186   -74941.558 
Loop time of 21.8863 on 2 procs for 495 steps with 19652 atoms

Performance: 1.954 ns/day, 12.282 hours/ns, 22.617 timesteps/s
99.3% CPU use with 2 MPI tasks x no OpenMP threads

MPI task timing breakdown:
Section |  min time  |  avg time  |  max time  |%varavg| %total
---------------------------------------------------------------
Pair    | 10.392     | 10.536     | 10.681     |   4.5 | 48.14
Neigh   | 9.9199     | 10.053     | 10.185     |   4.2 | 45.93
Comm    | 0.4958     | 0.77984    | 1.0639     |  32.2 |  3.56
Output  | 8.297e-05  | 0.00010848 | 0.00013399 |   0.0 |  0.00
Modify  | 0.4117     | 0.41437    | 0.41705    |   0.4 |  1.89
Other   |            | 0.103      |            |       |  0.47

Nlocal:    9826 ave 9838 max 9814 min
Histogram: 1 0 0 0 0 0 0 0 0 1
Nghost:    8903 ave 8917 max 8889 min
Histogram: 1 0 0 0 0 0 0 0 0 1
Neighs:    297662 ave 298796 max 296529 min
Histogram: 1 0 0 0 0 0 0 0 0 1

Total # of neighbors = 595325
Ave neighs/atom = 30.2934
Neighbor list builds = 495
Dangerous builds not checked
Setting up Verlet run ...
  Unit style    : metal
  Current step  : 120495
  Time step     : 0.001
Per MPI rank memory allocation (min/avg/max) = 11.31 | 11.31 | 11.31 Mbytes
Step Temp Press TotEng PotEng Enthalpy 
  120495    2211.9108   -9.3921881   -74936.731   -80555.186   -74941.558 
  140000    2202.1474   -181.55734   -74992.236   -80585.891   -75085.534 
Loop time of 959.013 on 2 procs for 19505 steps with 19652 atoms

Performance: 1.757 ns/day, 13.658 hours/ns, 20.339 timesteps/s
95.5% CPU use with 2 MPI tasks x no OpenMP threads

MPI task timing breakdown:
Section |  min time  |  avg time  |  max time  |%varavg| %total
---------------------------------------------------------------
Pair    | 471.38     | 473.68     | 475.98     |  10.6 | 49.39
Neigh   | 396.17     | 415.05     | 433.92     |  92.6 | 43.28
Comm    | 31.691     | 48.807     | 65.923     | 245.0 |  5.09
Output  | 0.24498    | 0.245      | 0.24502    |   0.0 |  0.03
Modify  | 16.658     | 16.955     | 17.251     |   7.2 |  1.77
Other   |            | 4.281      |            |       |  0.45

Nlocal:    9826 ave 9839 max 9813 min
Histogram: 1 0 0 0 0 0 0 0 0 1
Nghost:    8821 ave 8842 max 8800 min
Histogram: 1 0 0 0 0 0 0 0 0 1
Neighs:    297627 ave 298812 max 296442 min
Histogram: 1 0 0 0 0 0 0 0 0 1

Total # of neighbors = 595254
Ave neighs/atom = 30.2897
Neighbor list builds = 19505
Dangerous builds not checked
Setting up Verlet run ...
  Unit style    : metal
  Current step  : 140000
  Time step     : 0.001
Per MPI rank memory allocation (min/avg/max) = 11.32 | 11.32 | 11.32 Mbytes
Step Temp Press TotEng PotEng Enthalpy 
  140000    2202.1474   -181.55734   -74992.236   -80585.891   -75085.534 
  140495     2156.213   -138.60945   -75210.971   -80687.948   -75282.043 
Loop time of 21.7399 on 2 procs for 495 steps with 19652 atoms

Performance: 1.967 ns/day, 12.200 hours/ns, 22.769 timesteps/s
97.2% CPU use with 2 MPI tasks x no OpenMP threads

MPI task timing breakdown:
Section |  min time  |  avg time  |  max time  |%varavg| %total
---------------------------------------------------------------
Pair    | 10.601     | 10.728     | 10.856     |   3.9 | 49.35
Neigh   | 8.5249     | 9.2396     | 9.9544     |  23.5 | 42.50
Comm    | 0.69397    | 1.3156     | 1.9373     |  54.2 |  6.05
Output  | 6.9141e-05 | 0.00010014 | 0.00013113 |   0.0 |  0.00
Modify  | 0.34228    | 0.36545    | 0.38862    |   3.8 |  1.68
Other   |            | 0.09071    |            |       |  0.42

Nlocal:    9826 ave 9830 max 9822 min
Histogram: 1 0 0 0 0 0 0 0 0 1
Nghost:    8900.5 ave 8905 max 8896 min
Histogram: 1 0 0 0 0 0 0 0 0 1
Neighs:    298454 ave 299225 max 297684 min
Histogram: 1 0 0 0 0 0 0 0 0 1

Total # of neighbors = 596909
Ave neighs/atom = 30.374
Neighbor list builds = 495
Dangerous builds not checked
Setting up Verlet run ...
  Unit style    : metal
  Current step  : 140495
  Time step     : 0.001
Per MPI rank memory allocation (min/avg/max) = 11.32 | 11.32 | 11.32 Mbytes
Step Temp Press TotEng PotEng Enthalpy 
  140495     2156.213   -138.60945   -75210.971   -80687.948   -75282.043 
  160000    2143.8855    674.53505   -75301.214   -80746.878   -74956.715 
Loop time of 1073.05 on 2 procs for 19505 steps with 19652 atoms

Performance: 1.570 ns/day, 15.282 hours/ns, 18.177 timesteps/s
89.8% CPU use with 2 MPI tasks x no OpenMP threads

MPI task timing breakdown:
Section |  min time  |  avg time  |  max time  |%varavg| %total
---------------------------------------------------------------
Pair    | 520.8      | 521.14     | 521.48     |   1.5 | 48.57
Neigh   | 422.07     | 426.32     | 430.57     |  20.6 | 39.73
Comm    | 83.835     | 90.671     | 97.507     |  71.8 |  8.45
Output  | 0.066608   | 0.066623   | 0.066638   |   0.0 |  0.01
Modify  | 19.039     | 30.464     | 41.889     | 207.0 |  2.84
Other   |            | 4.394      |            |       |  0.41

Nlocal:    9826 ave 9841 max 9811 min
Histogram: 1 0 0 0 0 0 0 0 0 1
Nghost:    8874.5 ave 8918 max 8831 min
Histogram: 1 0 0 0 0 0 0 0 0 1
Neighs:    299439 ave 300372 max 298506 min
Histogram: 1 0 0 0 0 0 0 0 0 1

Total # of neighbors = 598878
Ave neighs/atom = 30.4742
Neighbor list builds = 19505
Dangerous builds not checked
Setting up Verlet run ...
  Unit style    : metal
  Current step  : 160000
  Time step     : 0.001
Per MPI rank memory allocation (min/avg/max) = 11.33 | 11.33 | 11.33 Mbytes
Step Temp Press TotEng PotEng Enthalpy 
  160000    2143.8855    674.53505   -75301.214   -80746.878   -74956.715 
  160495     2121.809    309.23234   -75391.418   -80781.006   -75233.445 
Loop time of 36.107 on 2 procs for 495 steps with 19652 atoms

Performance: 1.184 ns/day, 20.262 hours/ns, 13.709 timesteps/s
77.3% CPU use with 2 MPI tasks x no OpenMP threads

MPI task timing breakdown:
Section |  min time  |  avg time  |  max time  |%varavg| %total
---------------------------------------------------------------
Pair    | 18         | 18.3       | 18.599     |   7.0 | 50.68
Neigh   | 13.085     | 13.725     | 14.366     |  17.3 | 38.01
Comm    | 2.8058     | 3.1382     | 3.4706     |  18.8 |  8.69
Output  | 6.6042e-05 | 0.00010157 | 0.00013709 |   0.0 |  0.00
Modify  | 0.79392    | 0.80449    | 0.81507    |   1.2 |  2.23
Other   |            | 0.1392     |            |       |  0.39

Nlocal:    9826 ave 9833 max 9819 min
Histogram: 1 0 0 0 0 0 0 0 0 1
Nghost:    8926.5 ave 8928 max 8925 min
Histogram: 1 0 0 0 0 0 0 0 0 1
Neighs:    299279 ave 299467 max 299091 min
Histogram: 1 0 0 0 0 0 0 0 0 1

Total # of neighbors = 598558
Ave neighs/atom = 30.4579
Neighbor list builds = 495
Dangerous builds not checked
Setting up Verlet run ...
  Unit style    : metal
  Current step  : 160495
  Time step     : 0.001
Per MPI rank memory allocation (min/avg/max) = 11.33 | 11.33 | 11.33 Mbytes
Step Temp Press TotEng PotEng Enthalpy 
  160495     2121.809    309.23234   -75391.418   -80781.006   -75233.445 
  180000    2080.7828    328.06985   -75572.768   -80858.146   -75405.378 
Loop time of 1234.74 on 2 procs for 19505 steps with 19652 atoms

Performance: 1.365 ns/day, 17.584 hours/ns, 15.797 timesteps/s
81.4% CPU use with 2 MPI tasks x no OpenMP threads

MPI task timing breakdown:
Section |  min time  |  avg time  |  max time  |%varavg| %total
---------------------------------------------------------------
Pair    | 619.29     | 621.53     | 623.77     |   9.0 | 50.34
Neigh   | 467        | 477.91     | 488.82     |  49.9 | 38.71
Comm    | 96.573     | 105.53     | 114.48     |  87.2 |  8.55
Output  | 0.25767    | 0.25769    | 0.2577     |   0.0 |  0.02
Modify  | 24.39      | 24.553     | 24.717     |   3.3 |  1.99
Other   |            | 4.96       |            |       |  0.40

Nlocal:    9826 ave 9835 max 9817 min
Histogram: 1 0 0 0 0 0 0 0 0 1
Nghost:    8900.5 ave 8909 max 8892 min
Histogram: 1 0 0 0 0 0 0 0 0 1
Neighs:    299643 ave 300222 max 299064 min
Histogram: 1 0 0 0 0 0 0 0 0 1

Total # of neighbors = 599286
Ave neighs/atom = 30.4949
Neighbor list builds = 19505
Dangerous builds not checked
Setting up Verlet run ...
  Unit style    : metal
  Current step  : 180000
  Time step     : 0.001
Per MPI rank memory allocation (min/avg/max) = 11.33 | 11.33 | 11.33 Mbytes
Step Temp Press TotEng PotEng Enthalpy 
  180000    2080.7828    328.06985   -75572.768   -80858.146   -75405.378 
  180495    2053.1411    310.90307   -75667.131   -80882.296   -75508.537 
Loop time of 35.3393 on 2 procs for 495 steps with 19652 atoms

Performance: 1.210 ns/day, 19.831 hours/ns, 14.007 timesteps/s
81.6% CPU use with 2 MPI tasks x no OpenMP threads

MPI task timing breakdown:
Section |  min time  |  avg time  |  max time  |%varavg| %total
---------------------------------------------------------------
Pair    | 17.229     | 18.566     | 19.903     |  31.0 | 52.54
Neigh   | 7.6353     | 12.086     | 16.536     | 128.0 | 34.20
Comm    | 0.72516    | 3.979      | 7.2329     | 163.1 | 11.26
Output  | 8.9884e-05 | 0.00011098 | 0.00013208 |   0.0 |  0.00
Modify  | 0.497      | 0.58373    | 0.67046    |  11.4 |  1.65
Other   |            | 0.125      |            |       |  0.35

Nlocal:    9826 ave 9832 max 9820 min
Histogram: 1 0 0 0 0 0 0 0 0 1
Nghost:    8868 ave 8881 max 8855 min
Histogram: 1 0 0 0 0 0 0 0 0 1
Neighs:    299798 ave 301705 max 297890 min
Histogram: 1 0 0 0 0 0 0 0 0 1

Total # of neighbors = 599595
Ave neighs/atom = 30.5106
Neighbor list builds = 495
Dangerous builds not checked
Setting up Verlet run ...
  Unit style    : metal
  Current step  : 180495
  Time step     : 0.001
Per MPI rank memory allocation (min/avg/max) = 11.33 | 11.33 | 11.33 Mbytes
Step Temp Press TotEng PotEng Enthalpy 
  180495    2053.1411    310.90307   -75667.131   -80882.296   -75508.537 
  200000    2046.6891   -454.91329   -75764.999   -80963.775   -75997.316 
Loop time of 1124.85 on 2 procs for 19505 steps with 19652 atoms

Performance: 1.498 ns/day, 16.019 hours/ns, 17.340 timesteps/s
85.8% CPU use with 2 MPI tasks x no OpenMP threads

MPI task timing breakdown:
Section |  min time  |  avg time  |  max time  |%varavg| %total
---------------------------------------------------------------
Pair    | 554.47     | 555.79     | 557.11     |   5.6 | 49.41
Neigh   | 425.66     | 428.45     | 431.23     |  13.5 | 38.09
Comm    | 115.6      | 117.23     | 118.86     |  15.0 | 10.42
Output  | 0.061941   | 0.061956   | 0.06197    |   0.0 |  0.01
Modify  | 19.13      | 19.247     | 19.364     |   2.7 |  1.71
Other   |            | 4.078      |            |       |  0.36

Nlocal:    9826 ave 9839 max 9813 min
Histogram: 1 0 0 0 0 0 0 0 0 1
Nghost:    8904.5 ave 8927 max 8882 min
Histogram: 1 0 0 0 0 0 0 0 0 1
Neighs:    299414 ave 299683 max 299145 min
Histogram: 1 0 0 0 0 0 0 0 0 1

Total # of neighbors = 598828
Ave neighs/atom = 30.4716
Neighbor list builds = 19505
Dangerous builds not checked
Setting up Verlet run ...
  Unit style    : metal
  Current step  : 200000
  Time step     : 0.001
Per MPI rank memory allocation (min/avg/max) = 11.34 | 11.34 | 11.34 Mbytes
Step Temp Press TotEng PotEng Enthalpy 
  200000    2046.6891   -454.91329   -75764.999   -80963.775   -75997.316 
  200495    1995.6339   -72.376814   -75961.085   -81030.177   -75997.923 
Loop time of 36.2707 on 2 procs for 495 steps with 19652 atoms

Performance: 1.179 ns/day, 20.354 hours/ns, 13.647 timesteps/s
79.0% CPU use with 2 MPI tasks x no OpenMP threads

MPI task timing breakdown:
Section |  min time  |  avg time  |  max time  |%varavg| %total
---------------------------------------------------------------
Pair    | 18.455     | 18.597     | 18.738     |   3.3 | 51.27
Neigh   | 13.175     | 13.77      | 14.365     |  16.0 | 37.97
Comm    | 2.6504     | 3.1167     | 3.583      |  26.4 |  8.59
Output  | 7.0095e-05 | 9.3579e-05 | 0.00011706 |   0.0 |  0.00
Modify  | 0.62793    | 0.63561    | 0.64329    |   1.0 |  1.75
Other   |            | 0.1514     |            |       |  0.42

Nlocal:    9826 ave 9830 max 9822 min
Histogram: 1 0 0 0 0 0 0 0 0 1
Nghost:    8860.5 ave 8875 max 8846 min
Histogram: 1 0 0 0 0 0 0 0 0 1
Neighs:    300364 ave 302839 max 297889 min
Histogram: 1 0 0 0 0 0 0 0 0 1

Total # of neighbors = 600728
Ave neighs/atom = 30.5683
Neighbor list builds = 495
Dangerous builds not checked
Setting up Verlet run ...
  Unit style    : metal
  Current step  : 200495
  Time step     : 0.001
Per MPI rank memory allocation (min/avg/max) = 11.34 | 11.34 | 11.34 Mbytes
Step Temp Press TotEng PotEng Enthalpy 
  200495    1995.6339   -72.376814   -75961.085   -81030.177   -75997.923 
  220000    1987.6302     393.3221   -76039.613   -81088.374    -75839.93 
Loop time of 1235.31 on 2 procs for 19505 steps with 19652 atoms

Performance: 1.364 ns/day, 17.593 hours/ns, 15.790 timesteps/s
84.0% CPU use with 2 MPI tasks x no OpenMP threads

MPI task timing breakdown:
Section |  min time  |  avg time  |  max time  |%varavg| %total
---------------------------------------------------------------
Pair    | 610.59     | 614.41     | 618.23     |  15.4 | 49.74
Neigh   | 487.04     | 487.24     | 487.45     |   0.9 | 39.44
Comm    | 100.45     | 104.49     | 108.53     |  39.5 |  8.46
Output  | 0.25339    | 0.25341    | 0.25343    |   0.0 |  0.02
Modify  | 24.078     | 24.106     | 24.133     |   0.6 |  1.95
Other   |            | 4.81       |            |       |  0.39

Nlocal:    9826 ave 9833 max 9819 min
Histogram: 1 0 0 0 0 0 0 0 0 1
Nghost:    8893 ave 8926 max 8860 min
Histogram: 1 0 0 0 0 0 0 0 0 1
Neighs:    301274 ave 303621 max 298927 min
Histogram: 1 0 0 0 0 0 0 0 0 1

Total # of neighbors = 602548
Ave neighs/atom = 30.6609
Neighbor list builds = 19505
Dangerous builds not checked
Setting up Verlet run ...
  Unit style    : metal
  Current step  : 220000
  Time step     : 0.001
Per MPI rank memory allocation (min/avg/max) = 11.34 | 11.34 | 11.34 Mbytes
Step Temp Press TotEng PotEng Enthalpy 
  220000    1987.6302     393.3221   -76039.613   -81088.374    -75839.93 
  220495    1963.8391    683.31497   -76164.415   -81152.745   -75817.998 
Loop time of 30.3739 on 2 procs for 495 steps with 19652 atoms

Performance: 1.408 ns/day, 17.045 hours/ns, 16.297 timesteps/s
85.8% CPU use with 2 MPI tasks x no OpenMP threads

MPI task timing breakdown:
Section |  min time  |  avg time  |  max time  |%varavg| %total
---------------------------------------------------------------
Pair    | 15.292     | 15.296     | 15.299     |   0.1 | 50.36
Neigh   | 11.14      | 11.534     | 11.928     |  11.6 | 37.97
Comm    | 2.4825     | 2.8882     | 3.2939     |  23.9 |  9.51
Output  | 7.1049e-05 | 0.00010002 | 0.00012898 |   0.0 |  0.00
Modify  | 0.52581    | 0.52989    | 0.53397    |   0.6 |  1.74
Other   |            | 0.1262     |            |       |  0.42

Nlocal:    9826 ave 9842 max 9810 min
Histogram: 1 0 0 0 0 0 0 0 0 1
Nghost:    8941 ave 8967 max 8915 min
Histogram: 1 0 0 0 0 0 0 0 0 1
Neighs:    301597 ave 303388 max 299806 min
Histogram: 1 0 0 0 0 0 0 0 0 1

Total # of neighbors = 603194
Ave neighs/atom = 30.6938
Neighbor list builds = 495
Dangerous builds not checked
Setting up Verlet run ...
  Unit style    : metal
  Current step  : 220495
  Time step     : 0.001
Per MPI rank memory allocation (min/avg/max) = 11.34 | 11.34 | 11.34 Mbytes
Step Temp Press TotEng PotEng Enthalpy 
  220495    1963.8391    683.31497   -76164.415   -81152.745   -75817.998 
  240000     1949.182    1120.5939   -76214.215   -81165.315    -75647.38 
Loop time of 1489.14 on 2 procs for 19505 steps with 19652 atoms

Performance: 1.132 ns/day, 21.207 hours/ns, 13.098 timesteps/s
76.0% CPU use with 2 MPI tasks x no OpenMP threads

MPI task timing breakdown:
Section |  min time  |  avg time  |  max time  |%varavg| %total
---------------------------------------------------------------
Pair    | 734.2      | 738.64     | 743.08     |  16.3 | 49.60
Neigh   | 551.53     | 553.64     | 555.76     |   9.0 | 37.18
Comm    | 160.96     | 163.19     | 165.42     |  17.4 | 10.96
Output  | 0.074429   | 0.074447   | 0.074466   |   0.0 |  0.00
Modify  | 28.094     | 28.104     | 28.114     |   0.2 |  1.89
Other   |            | 5.492      |            |       |  0.37

Nlocal:    9826 ave 9833 max 9819 min
Histogram: 1 0 0 0 0 0 0 0 0 1
Nghost:    8906.5 ave 8934 max 8879 min
Histogram: 1 0 0 0 0 0 0 0 0 1
Neighs:    302291 ave 305076 max 299506 min
Histogram: 1 0 0 0 0 0 0 0 0 1

Total # of neighbors = 604582
Ave neighs/atom = 30.7644
Neighbor list builds = 19505
Dangerous builds not checked
Setting up Verlet run ...
  Unit style    : metal
  Current step  : 240000
  Time step     : 0.001
Per MPI rank memory allocation (min/avg/max) = 11.35 | 11.35 | 11.35 Mbytes
Step Temp Press TotEng PotEng Enthalpy 
  240000     1949.182    1120.5939   -76214.215   -81165.315    -75647.38 
  240495    1917.1938    560.00697   -76398.576   -81268.423   -76115.371 
Loop time of 29.9889 on 2 procs for 495 steps with 19652 atoms

Performance: 1.426 ns/day, 16.829 hours/ns, 16.506 timesteps/s
85.7% CPU use with 2 MPI tasks x no OpenMP threads

MPI task timing breakdown:
Section |  min time  |  avg time  |  max time  |%varavg| %total
---------------------------------------------------------------
Pair    | 14.64      | 15.159     | 15.679     |  13.3 | 50.55
Neigh   | 9.8249     | 11.246     | 12.667     |  42.4 | 37.50
Comm    | 2.0704     | 2.9945     | 3.9186     |  53.4 |  9.99
Output  | 7.9155e-05 | 9.8109e-05 | 0.00011706 |   0.0 |  0.00
Modify  | 0.47187    | 0.48682    | 0.50178    |   2.1 |  1.62
Other   |            | 0.1023     |            |       |  0.34

Nlocal:    9826 ave 9840 max 9812 min
Histogram: 1 0 0 0 0 0 0 0 0 1
Nghost:    8891 ave 8937 max 8845 min
Histogram: 1 0 0 0 0 0 0 0 0 1
Neighs:    302476 ave 305292 max 299661 min
Histogram: 1 0 0 0 0 0 0 0 0 1

Total # of neighbors = 604953
Ave neighs/atom = 30.7833
Neighbor list builds = 495
Dangerous builds not checked
Setting up Verlet run ...
  Unit style    : metal
  Current step  : 240495
  Time step     : 0.001
Per MPI rank memory allocation (min/avg/max) = 11.35 | 11.35 | 11.35 Mbytes
Step Temp Press TotEng PotEng Enthalpy 
  240495    1917.1938    560.00697   -76398.576   -81268.423   -76115.371 
  260000     1896.539    62.172804   -76425.563   -81242.945    -76394.06 
Loop time of 1339.28 on 2 procs for 19505 steps with 19652 atoms

Performance: 1.258 ns/day, 19.073 hours/ns, 14.564 timesteps/s
81.3% CPU use with 2 MPI tasks x no OpenMP threads

MPI task timing breakdown:
Section |  min time  |  avg time  |  max time  |%varavg| %total
---------------------------------------------------------------
Pair    | 672.57     | 673.71     | 674.86     |   4.4 | 50.30
Neigh   | 519.33     | 524.88     | 530.42     |  24.2 | 39.19
Comm    | 103.93     | 110.64     | 117.36     |  63.9 |  8.26
Output  | 0.13354    | 0.13355    | 0.13356    |   0.0 |  0.01
Modify  | 24.697     | 24.725     | 24.753     |   0.6 |  1.85
Other   |            | 5.184      |            |       |  0.39

Nlocal:    9826 ave 9826 max 9826 min
Histogram: 2 0 0 0 0 0 0 0 0 0
Nghost:    8916 ave 8950 max 8882 min
Histogram: 1 0 0 0 0 0 0 0 0 1
Neighs:    301774 ave 303950 max 299599 min
Histogram: 1 0 0 0 0 0 0 0 0 1

Total # of neighbors = 603549
Ave neighs/atom = 30.7118
Neighbor list builds = 19505
Dangerous builds not checked
Setting up Verlet run ...
  Unit style    : metal
  Current step  : 260000
  Time step     : 0.001
Per MPI rank memory allocation (min/avg/max) = 11.35 | 11.35 | 11.35 Mbytes
Step Temp Press TotEng PotEng Enthalpy 
  260000     1896.539    62.172804   -76425.563   -81242.945    -76394.06 
  260495    1861.0461    71.481218   -76644.565   -81371.792   -76608.467 
Loop time of 44.9433 on 2 procs for 495 steps with 19652 atoms

Performance: 0.952 ns/day, 25.221 hours/ns, 11.014 timesteps/s
67.8% CPU use with 2 MPI tasks x no OpenMP threads

MPI task timing breakdown:
Section |  min time  |  avg time  |  max time  |%varavg| %total
---------------------------------------------------------------
Pair    | 22.731     | 22.818     | 22.906     |   1.8 | 50.77
Neigh   | 15.939     | 16.663     | 17.387     |  17.7 | 37.08
Comm    | 3.6338     | 4.3301     | 5.0265     |  33.5 |  9.63
Output  | 7.2956e-05 | 0.00010049 | 0.00012803 |   0.0 |  0.00
Modify  | 0.90009    | 0.95516    | 1.0102     |   5.6 |  2.13
Other   |            | 0.1761     |            |       |  0.39

Nlocal:    9826 ave 9835 max 9817 min
Histogram: 1 0 0 0 0 0 0 0 0 1
Nghost:    8966 ave 8989 max 8943 min
Histogram: 1 0 0 0 0 0 0 0 0 1
Neighs:    303018 ave 305601 max 300435 min
Histogram: 1 0 0 0 0 0 0 0 0 1

Total # of neighbors = 606036
Ave neighs/atom = 30.8384
Neighbor list builds = 495
Dangerous builds not checked
Setting up Verlet run ...
  Unit style    : metal
  Current step  : 260495
  Time step     : 0.001
Per MPI rank memory allocation (min/avg/max) = 11.35 | 11.35 | 11.35 Mbytes
Step Temp Press TotEng PotEng Enthalpy 
  260495    1861.0461    71.481218   -76644.565   -81371.792   -76608.467 
  280000    1863.1973     229.6797   -76673.159    -81405.85   -76557.152 
Loop time of 1363.52 on 2 procs for 19505 steps with 19652 atoms

Performance: 1.236 ns/day, 19.418 hours/ns, 14.305 timesteps/s
79.8% CPU use with 2 MPI tasks x no OpenMP threads

MPI task timing breakdown:
Section |  min time  |  avg time  |  max time  |%varavg| %total
---------------------------------------------------------------
Pair    | 677.58     | 686.64     | 695.71     |  34.6 | 50.36
Neigh   | 507.89     | 523.45     | 539.02     |  68.0 | 38.39
Comm    | 115.23     | 122.3      | 129.36     |  63.9 |  8.97
Output  | 0.069953   | 0.069963   | 0.069973   |   0.0 |  0.01
Modify  | 25.57      | 25.9       | 26.229     |   6.5 |  1.90
Other   |            | 5.152      |            |       |  0.38

Nlocal:    9826 ave 9843 max 9809 min
Histogram: 1 0 0 0 0 0 0 0 0 1
Nghost:    8903.5 ave 8907 max 8900 min
Histogram: 1 0 0 0 0 0 0 0 0 1
Neighs:    302670 ave 304669 max 300672 min
Histogram: 1 0 0 0 0 0 0 0 0 1

Total # of neighbors = 605341
Ave neighs/atom = 30.803
Neighbor list builds = 19505
Dangerous builds not checked
Setting up Verlet run ...
  Unit style    : metal
  Current step  : 280000
  Time step     : 0.001
Per MPI rank memory allocation (min/avg/max) = 11.35 | 11.35 | 11.35 Mbytes
Step Temp Press TotEng PotEng Enthalpy 
  280000    1863.1973     229.6797   -76673.159    -81405.85   -76557.152 
  280495    1805.1171    400.21228   -76866.517   -81451.679   -76664.864 
Loop time of 35.9604 on 2 procs for 495 steps with 19652 atoms

Performance: 1.189 ns/day, 20.180 hours/ns, 13.765 timesteps/s
77.3% CPU use with 2 MPI tasks x no OpenMP threads

MPI task timing breakdown:
Section |  min time  |  avg time  |  max time  |%varavg| %total
---------------------------------------------------------------
Pair    | 18.196     | 18.244     | 18.291     |   1.1 | 50.73
Neigh   | 13.563     | 13.719     | 13.874     |   4.2 | 38.15
Comm    | 3.0479     | 3.2497     | 3.4515     |  11.2 |  9.04
Output  | 6.9141e-05 | 9.1553e-05 | 0.00011396 |   0.0 |  0.00
Modify  | 0.60179    | 0.61129    | 0.6208     |   1.2 |  1.70
Other   |            | 0.1371     |            |       |  0.38

Nlocal:    9826 ave 9861 max 9791 min
Histogram: 1 0 0 0 0 0 0 0 0 1
Nghost:    8933 ave 8947 max 8919 min
Histogram: 1 0 0 0 0 0 0 0 0 1
Neighs:    303438 ave 304612 max 302264 min
Histogram: 1 0 0 0 0 0 0 0 0 1

Total # of neighbors = 606876
Ave neighs/atom = 30.8811
Neighbor list builds = 495
Dangerous builds not checked
Setting up Verlet run ...
  Unit style    : metal
  Current step  : 280495
  Time step     : 0.001
Per MPI rank memory allocation (min/avg/max) = 11.35 | 11.35 | 11.35 Mbytes
Step Temp Press TotEng PotEng Enthalpy 
  280495    1805.1171    400.21228   -76866.517   -81451.679   -76664.864 
  300000    1815.6655   -207.14569   -76877.109   -81489.065   -76981.667 
Loop time of 1337.17 on 2 procs for 19505 steps with 19652 atoms

Performance: 1.260 ns/day, 19.043 hours/ns, 14.587 timesteps/s
80.8% CPU use with 2 MPI tasks x no OpenMP threads

MPI task timing breakdown:
Section |  min time  |  avg time  |  max time  |%varavg| %total
---------------------------------------------------------------
Pair    | 662.74     | 665.87     | 669        |  12.1 | 49.80
Neigh   | 506.53     | 513.55     | 520.56     |  31.0 | 38.41
Comm    | 122.59     | 126.79     | 130.99     |  37.3 |  9.48
Output  | 0.77063    | 0.77065    | 0.77067    |   0.0 |  0.06
Modify  | 25.02      | 25.21      | 25.399     |   3.8 |  1.89
Other   |            | 4.986      |            |       |  0.37

Nlocal:    9826 ave 9840 max 9812 min
Histogram: 1 0 0 0 0 0 0 0 0 1
Nghost:    8922 ave 8934 max 8910 min
Histogram: 1 0 0 0 0 0 0 0 0 1
Neighs:    302926 ave 304979 max 300872 min
Histogram: 1 0 0 0 0 0 0 0 0 1

Total # of neighbors = 605851
Ave neighs/atom = 30.829
Neighbor list builds = 19505
Dangerous builds not checked
Setting up Verlet run ...
  Unit style    : metal
  Current step  : 300000
  Time step     : 0.001
Per MPI rank memory allocation (min/avg/max) = 11.35 | 11.35 | 11.36 Mbytes
Step Temp Press TotEng PotEng Enthalpy 
  300000    1815.6655   -207.14569   -76877.109   -81489.065   -76981.667 
  300495    1759.5899    -58.36216   -77121.199   -81590.718   -77150.581 
Loop time of 21.9018 on 2 procs for 495 steps with 19652 atoms

Performance: 1.953 ns/day, 12.291 hours/ns, 22.601 timesteps/s
97.8% CPU use with 2 MPI tasks x no OpenMP threads

MPI task timing breakdown:
Section |  min time  |  avg time  |  max time  |%varavg| %total
---------------------------------------------------------------
Pair    | 10.363     | 10.422     | 10.48      |   1.8 | 47.58
Neigh   | 9.8392     | 9.9439     | 10.049     |   3.3 | 45.40
Comm    | 1.0108     | 1.0637     | 1.1166     |   5.1 |  4.86
Output  | 6.1989e-05 | 8.3447e-05 | 0.0001049  |   0.0 |  0.00
Modify  | 0.37282    | 0.37932    | 0.38581    |   1.1 |  1.73
Other   |            | 0.09322    |            |       |  0.43

Nlocal:    9826 ave 9828 max 9824 min
Histogram: 1 0 0 0 0 0 0 0 0 1
Nghost:    8954.5 ave 8960 max 8949 min
Histogram: 1 0 0 0 0 0 0 0 0 1
Neighs:    303731 ave 305707 max 301755 min
Histogram: 1 0 0 0 0 0 0 0 0 1

Total # of neighbors = 607462
Ave neighs/atom = 30.911
Neighbor list builds = 495
Dangerous builds not checked
Setting up Verlet run ...
  Unit style    : metal
  Current step  : 300495
  Time step     : 0.001
Per MPI rank memory allocation (min/avg/max) = 11.35 | 11.35 | 11.36 Mbytes
Step Temp Press TotEng PotEng Enthalpy 
  300495    1759.5899    -58.36216   -77121.199   -81590.718   -77150.581 
  320000    1760.0939    188.65907   -77164.567   -81635.366   -77069.735 
Loop time of 1296.76 on 2 procs for 19505 steps with 19652 atoms

Performance: 1.300 ns/day, 18.468 hours/ns, 15.041 timesteps/s
79.8% CPU use with 2 MPI tasks x no OpenMP threads

MPI task timing breakdown:
Section |  min time  |  avg time  |  max time  |%varavg| %total
---------------------------------------------------------------
Pair    | 640.22     | 649.95     | 659.67     |  38.2 | 50.12
Neigh   | 484.79     | 505.93     | 527.07     |  94.0 | 39.01
Comm    | 99.774     | 111.74     | 123.7      | 113.2 |  8.62
Output  | 0.09267    | 0.092682   | 0.092695   |   0.0 |  0.01
Modify  | 23.733     | 24.138     | 24.542     |   8.2 |  1.86
Other   |            | 4.91       |            |       |  0.38

Nlocal:    9826 ave 9842 max 9810 min
Histogram: 1 0 0 0 0 0 0 0 0 1
Nghost:    8953.5 ave 8954 max 8953 min
Histogram: 1 0 0 0 0 0 0 0 0 1
Neighs:    304250 ave 307135 max 301365 min
Histogram: 1 0 0 0 0 0 0 0 0 1

Total # of neighbors = 608500
Ave neighs/atom = 30.9638
Neighbor list builds = 19505
Dangerous builds not checked
Setting up Verlet run ...
  Unit style    : metal
  Current step  : 320000
  Time step     : 0.001
Per MPI rank memory allocation (min/avg/max) = 11.36 | 11.36 | 11.36 Mbytes
Step Temp Press TotEng PotEng Enthalpy 
  320000    1760.0939    188.65907   -77164.567   -81635.366   -77069.735 
  320495     1716.822    183.34721    -77356.88   -81717.765   -77264.856 
Loop time of 26.0014 on 2 procs for 495 steps with 19652 atoms

Performance: 1.645 ns/day, 14.591 hours/ns, 19.037 timesteps/s
91.6% CPU use with 2 MPI tasks x no OpenMP threads

MPI task timing breakdown:
Section |  min time  |  avg time  |  max time  |%varavg| %total
---------------------------------------------------------------
Pair    | 12.242     | 12.526     | 12.811     |   8.0 | 48.18
Neigh   | 10.388     | 11.288     | 12.187     |  26.8 | 43.41
Comm    | 0.9365     | 1.582      | 2.2275     |  51.3 |  6.08
Output  | 7.4863e-05 | 0.00010943 | 0.000144   |   0.0 |  0.00
Modify  | 0.47652    | 0.4949     | 0.51328    |   2.6 |  1.90
Other   |            | 0.1103     |            |       |  0.42

Nlocal:    9826 ave 9871 max 9781 min
Histogram: 1 0 0 0 0 0 0 0 0 1
Nghost:    8954 ave 9018 max 8890 min
Histogram: 1 0 0 0 0 0 0 0 0 1
Neighs:    304586 ave 308503 max 300670 min
Histogram: 1 0 0 0 0 0 0 0 0 1

Total # of neighbors = 609173
Ave neighs/atom = 30.998
Neighbor list builds = 495
Dangerous builds not checked
Setting up Verlet run ...
  Unit style    : metal
  Current step  : 320495
  Time step     : 0.001
Per MPI rank memory allocation (min/avg/max) = 11.36 | 11.36 | 11.36 Mbytes
Step Temp Press TotEng PotEng Enthalpy 
  320495     1716.822    183.34721    -77356.88   -81717.765   -77264.856 
  340000    1701.0195    241.98267   -77468.843   -81789.587   -77347.508 
Loop time of 933.056 on 2 procs for 19505 steps with 19652 atoms

Performance: 1.806 ns/day, 13.288 hours/ns, 20.904 timesteps/s
98.8% CPU use with 2 MPI tasks x no OpenMP threads

MPI task timing breakdown:
Section |  min time  |  avg time  |  max time  |%varavg| %total
---------------------------------------------------------------
Pair    | 453.91     | 456.71     | 459.51     |  13.1 | 48.95
Neigh   | 414.98     | 416.58     | 418.18     |   7.8 | 44.65
Comm    | 38.571     | 39.68      | 40.789     |  17.6 |  4.25
Output  | 0.25965    | 0.25967    | 0.2597     |   0.0 |  0.03
Modify  | 15.677     | 15.759     | 15.84      |   2.1 |  1.69
Other   |            | 4.069      |            |       |  0.44

Nlocal:    9826 ave 9833 max 9819 min
Histogram: 1 0 0 0 0 0 0 0 0 1
Nghost:    8938 ave 8945 max 8931 min
Histogram: 1 0 0 0 0 0 0 0 0 1
Neighs:    304849 ave 306717 max 302981 min
Histogram: 1 0 0 0 0 0 0 0 0 1

Total # of neighbors = 609698
Ave neighs/atom = 31.0247
Neighbor list builds = 19505
Dangerous builds not checked
Setting up Verlet run ...
  Unit style    : metal
  Current step  : 340000
  Time step     : 0.001
Per MPI rank memory allocation (min/avg/max) = 11.36 | 11.36 | 11.36 Mbytes
Step Temp Press TotEng PotEng Enthalpy 
  340000    1701.0195    241.98267   -77468.843   -81789.587   -77347.508 
  340495    1661.7275     367.1619   -77639.297   -81860.236   -77455.642 
Loop time of 23.9197 on 2 procs for 495 steps with 19652 atoms

Performance: 1.788 ns/day, 13.423 hours/ns, 20.694 timesteps/s
98.1% CPU use with 2 MPI tasks x no OpenMP threads

MPI task timing breakdown:
Section |  min time  |  avg time  |  max time  |%varavg| %total
---------------------------------------------------------------
Pair    | 11.382     | 11.543     | 11.705     |   4.8 | 48.26
Neigh   | 10.364     | 10.893     | 11.421     |  16.0 | 45.54
Comm    | 0.56629    | 0.95697    | 1.3477     |  39.9 |  4.00
Output  | 7.7009e-05 | 9.048e-05  | 0.00010395 |   0.0 |  0.00
Modify  | 0.40428    | 0.42058    | 0.43688    |   2.5 |  1.76
Other   |            | 0.106      |            |       |  0.44

Nlocal:    9826 ave 9828 max 9824 min
Histogram: 1 0 0 0 0 0 0 0 0 1
Nghost:    8948 ave 8980 max 8916 min
Histogram: 1 0 0 0 0 0 0 0 0 1
Neighs:    305630 ave 307921 max 303340 min
Histogram: 1 0 0 0 0 0 0 0 0 1

Total # of neighbors = 611261
Ave neighs/atom = 31.1043
Neighbor list builds = 495
Dangerous builds not checked
Setting up Verlet run ...
  Unit style    : metal
  Current step  : 340495
  Time step     : 0.001
Per MPI rank memory allocation (min/avg/max) = 11.36 | 11.36 | 11.36 Mbytes
Step Temp Press TotEng PotEng Enthalpy 
  340495    1661.7275     367.1619   -77639.297   -81860.236   -77455.642 
  360000    1666.2359   -65.952182   -77611.121   -81843.512   -77644.157 
Loop time of 974.713 on 2 procs for 19505 steps with 19652 atoms

Performance: 1.729 ns/day, 13.881 hours/ns, 20.011 timesteps/s
96.8% CPU use with 2 MPI tasks x no OpenMP threads

MPI task timing breakdown:
Section |  min time  |  avg time  |  max time  |%varavg| %total
---------------------------------------------------------------
Pair    | 459.48     | 461.63     | 463.78     |  10.0 | 47.36
Neigh   | 407.89     | 420.59     | 433.29     |  61.9 | 43.15
Comm    | 56.826     | 72.141     | 87.457     | 180.3 |  7.40
Output  | 0.17676    | 0.17677    | 0.17678    |   0.0 |  0.02
Modify  | 15.765     | 16.016     | 16.267     |   6.3 |  1.64
Other   |            | 4.154      |            |       |  0.43

Nlocal:    9826 ave 9831 max 9821 min
Histogram: 1 0 0 0 0 0 0 0 0 1
Nghost:    8960 ave 8973 max 8947 min
Histogram: 1 0 0 0 0 0 0 0 0 1
Neighs:    305042 ave 306734 max 303351 min
Histogram: 1 0 0 0 0 0 0 0 0 1

Total # of neighbors = 610085
Ave neighs/atom = 31.0444
Neighbor list builds = 19505
Dangerous builds not checked
Setting up Verlet run ...
  Unit style    : metal
  Current step  : 360000
  Time step     : 0.001
Per MPI rank memory allocation (min/avg/max) = 11.36 | 11.36 | 11.36 Mbytes
Step Temp Press TotEng PotEng Enthalpy 
  360000    1666.2359   -65.952182   -77611.121   -81843.512   -77644.157 
  360495    1605.3991   -58.236234   -77865.889   -81943.749   -77895.012 
Loop time of 24.8685 on 2 procs for 495 steps with 19652 atoms

Performance: 1.720 ns/day, 13.955 hours/ns, 19.905 timesteps/s
96.6% CPU use with 2 MPI tasks x no OpenMP threads

MPI task timing breakdown:
Section |  min time  |  avg time  |  max time  |%varavg| %total
---------------------------------------------------------------
Pair    | 11.864     | 12.204     | 12.544     |   9.7 | 49.08
Neigh   | 9.2947     | 10.565     | 11.835     |  39.1 | 42.48
Comm    | 0.54602    | 1.5188     | 2.4916     |  78.9 |  6.11
Output  | 6.9141e-05 | 0.00010705 | 0.00014496 |   0.0 |  0.00
Modify  | 0.45108    | 0.47887    | 0.50665    |   4.0 |  1.93
Other   |            | 0.1017     |            |       |  0.41

Nlocal:    9826 ave 9848 max 9804 min
Histogram: 1 0 0 0 0 0 0 0 0 1
Nghost:    8953.5 ave 8955 max 8952 min
Histogram: 1 0 0 0 0 0 0 0 0 1
Neighs:    305626 ave 306968 max 304284 min
Histogram: 1 0 0 0 0 0 0 0 0 1

Total # of neighbors = 611252
Ave neighs/atom = 31.1038
Neighbor list builds = 495
Dangerous builds not checked
Setting up Verlet run ...
  Unit style    : metal
  Current step  : 360495
  Time step     : 0.001
Per MPI rank memory allocation (min/avg/max) = 11.36 | 11.36 | 11.36 Mbytes
Step Temp Press TotEng PotEng Enthalpy 
  360495    1605.3991   -58.236234   -77865.889   -81943.749   -77895.012 
  380000    1606.6917    783.05695   -77937.198   -82018.342   -77547.159 
Loop time of 914.301 on 2 procs for 19505 steps with 19652 atoms

Performance: 1.843 ns/day, 13.021 hours/ns, 21.333 timesteps/s
98.9% CPU use with 2 MPI tasks x no OpenMP threads

MPI task timing breakdown:
Section |  min time  |  avg time  |  max time  |%varavg| %total
---------------------------------------------------------------
Pair    | 428.8      | 438.43     | 448.06     |  46.0 | 47.95
Neigh   | 407.62     | 413.14     | 418.67     |  27.2 | 45.19
Comm    | 27.662     | 43.051     | 58.441     | 234.5 |  4.71
Output  | 0.062512   | 0.062523   | 0.062534   |   0.0 |  0.01
Modify  | 15.58      | 15.657     | 15.733     |   1.9 |  1.71
Other   |            | 3.956      |            |       |  0.43

Nlocal:    9826 ave 9829 max 9823 min
Histogram: 1 0 0 0 0 0 0 0 0 1
Nghost:    8993.5 ave 9008 max 8979 min
Histogram: 1 0 0 0 0 0 0 0 0 1
Neighs:    306902 ave 309325 max 304480 min
Histogram: 1 0 0 0 0 0 0 0 0 1

Total # of neighbors = 613805
Ave neighs/atom = 31.2337
Neighbor list builds = 19505
Dangerous builds not checked
Setting up Verlet run ...
  Unit style    : metal
  Current step  : 380000
  Time step     : 0.001
Per MPI rank memory allocation (min/avg/max) = 11.36 | 11.36 | 11.36 Mbytes
Step Temp Press TotEng PotEng Enthalpy 
  380000    1606.6917    783.05695   -77937.198   -82018.342   -77547.159 
  380495    1568.7513    780.85811   -78085.341   -82070.112   -77696.946 
Loop time of 21.7388 on 2 procs for 495 steps with 19652 atoms

Performance: 1.967 ns/day, 12.199 hours/ns, 22.770 timesteps/s
99.6% CPU use with 2 MPI tasks x no OpenMP threads

MPI task timing breakdown:
Section |  min time  |  avg time  |  max time  |%varavg| %total
---------------------------------------------------------------
Pair    | 10.228     | 10.314     | 10.4       |   2.7 | 47.45
Neigh   | 10.34      | 10.359     | 10.378     |   0.6 | 47.65
Comm    | 0.47334    | 0.57934    | 0.68535    |  13.9 |  2.67
Output  | 6.7949e-05 | 9.6917e-05 | 0.00012589 |   0.0 |  0.00
Modify  | 0.38733    | 0.38774    | 0.38815    |   0.1 |  1.78
Other   |            | 0.09856    |            |       |  0.45

Nlocal:    9826 ave 9831 max 9821 min
Histogram: 1 0 0 0 0 0 0 0 0 1
Nghost:    8959 ave 8987 max 8931 min
Histogram: 1 0 0 0 0 0 0 0 0 1
Neighs:    307152 ave 309569 max 304735 min
Histogram: 1 0 0 0 0 0 0 0 0 1

Total # of neighbors = 614304
Ave neighs/atom = 31.2591
Neighbor list builds = 495
Dangerous builds not checked
Setting up Verlet run ...
  Unit style    : metal
  Current step  : 380495
  Time step     : 0.001
Per MPI rank memory allocation (min/avg/max) = 11.36 | 11.36 | 11.36 Mbytes
Step Temp Press TotEng PotEng Enthalpy 
  380495    1568.7513    780.85811   -78085.341   -82070.112   -77696.946 
  400000     1555.279    -314.0118   -78150.157   -82100.707   -78306.814 
Loop time of 884.833 on 2 procs for 19505 steps with 19652 atoms

Performance: 1.905 ns/day, 12.601 hours/ns, 22.044 timesteps/s
98.9% CPU use with 2 MPI tasks x no OpenMP threads

MPI task timing breakdown:
Section |  min time  |  avg time  |  max time  |%varavg| %total
---------------------------------------------------------------
Pair    | 421.9      | 425.4      | 428.9      |  17.0 | 48.08
Neigh   | 405.03     | 409.21     | 413.38     |  20.6 | 46.25
Comm    | 30.065     | 30.851     | 31.637     |  14.1 |  3.49
Output  | 0.059245   | 0.059248   | 0.059252   |   0.0 |  0.01
Modify  | 15.374     | 15.453     | 15.531     |   2.0 |  1.75
Other   |            | 3.863      |            |       |  0.44

Nlocal:    9826 ave 9839 max 9813 min
Histogram: 1 0 0 0 0 0 0 0 0 1
Nghost:    8945.5 ave 8948 max 8943 min
Histogram: 1 0 0 0 0 0 0 0 0 1
Neighs:    306336 ave 308066 max 304606 min
Histogram: 1 0 0 0 0 0 0 0 0 1

Total # of neighbors = 612672
Ave neighs/atom = 31.1761
Neighbor list builds = 19505
Dangerous builds not checked
Setting up Verlet run ...
  Unit style    : metal
  Current step  : 400000
  Time step     : 0.001
Per MPI rank memory allocation (min/avg/max) = 11.36 | 11.36 | 11.36 Mbytes
Step Temp Press TotEng PotEng Enthalpy 
  400000     1555.279    -314.0118   -78150.157   -82100.707   -78306.814 
  400495    1503.1863    -271.5883   -78341.887   -82160.117   -78477.244 
Loop time of 22.8906 on 2 procs for 495 steps with 19652 atoms

Performance: 1.868 ns/day, 12.845 hours/ns, 21.625 timesteps/s
99.6% CPU use with 2 MPI tasks x no OpenMP threads

MPI task timing breakdown:
Section |  min time  |  avg time  |  max time  |%varavg| %total
---------------------------------------------------------------
Pair    | 10.766     | 11.036     | 11.307     |   8.1 | 48.21
Neigh   | 10.414     | 10.455     | 10.496     |   1.3 | 45.67
Comm    | 0.63463    | 0.86874    | 1.1028     |  25.1 |  3.80
Output  | 0.00010204 | 0.00013006 | 0.00015807 |   0.0 |  0.00
Modify  | 0.4204     | 0.42108    | 0.42176    |   0.1 |  1.84
Other   |            | 0.1092     |            |       |  0.48

Nlocal:    9826 ave 9833 max 9819 min
Histogram: 1 0 0 0 0 0 0 0 0 1
Nghost:    8972.5 ave 8985 max 8960 min
Histogram: 1 0 0 0 0 0 0 0 0 1
Neighs:    306534 ave 308130 max 304938 min
Histogram: 1 0 0 0 0 0 0 0 0 1

Total # of neighbors = 613068
Ave neighs/atom = 31.1962
Neighbor list builds = 495
Dangerous builds not checked
Setting up Verlet run ...
  Unit style    : metal
  Current step  : 400495
  Time step     : 0.001
Per MPI rank memory allocation (min/avg/max) = 11.36 | 11.36 | 11.36 Mbytes
Step Temp Press TotEng PotEng Enthalpy 
  400495    1503.1863    -271.5883   -78341.887   -82160.117   -78477.244 
  420000     1502.271      64.7938   -78401.639   -82217.544   -78369.418 
Loop time of 906.775 on 2 procs for 19505 steps with 19652 atoms

Performance: 1.858 ns/day, 12.914 hours/ns, 21.510 timesteps/s
98.7% CPU use with 2 MPI tasks x no OpenMP threads

MPI task timing breakdown:
Section |  min time  |  avg time  |  max time  |%varavg| %total
---------------------------------------------------------------
Pair    | 433.66     | 437.9      | 442.13     |  20.2 | 48.29
Neigh   | 409.65     | 415.46     | 421.26     |  28.5 | 45.82
Comm    | 31.93      | 33.55      | 35.171     |  28.0 |  3.70
Output  | 0.060502   | 0.060511   | 0.06052    |   0.0 |  0.01
Modify  | 15.784     | 15.81      | 15.835     |   0.6 |  1.74
Other   |            | 4.001      |            |       |  0.44

Nlocal:    9826 ave 9833 max 9819 min
Histogram: 1 0 0 0 0 0 0 0 0 1
Nghost:    9017.5 ave 9024 max 9011 min
Histogram: 1 0 0 0 0 0 0 0 0 1
Neighs:    307388 ave 309320 max 305455 min
Histogram: 1 0 0 0 0 0 0 0 0 1

Total # of neighbors = 614775
Ave neighs/atom = 31.2831
Neighbor list builds = 19505
Dangerous builds not checked
Setting up Verlet run ...
  Unit style    : metal
  Current step  : 420000
  Time step     : 0.001
Per MPI rank memory allocation (min/avg/max) = 11.36 | 11.36 | 11.36 Mbytes
Step Temp Press TotEng PotEng Enthalpy 
  420000     1502.271      64.7938   -78401.639   -82217.544   -78369.418 
  420495    1466.9029    108.89504   -78611.433     -82337.5   -78557.404 
Loop time of 22.0289 on 2 procs for 495 steps with 19652 atoms

Performance: 1.941 ns/day, 12.362 hours/ns, 22.470 timesteps/s
98.9% CPU use with 2 MPI tasks x no OpenMP threads

MPI task timing breakdown:
Section |  min time  |  avg time  |  max time  |%varavg| %total
---------------------------------------------------------------
Pair    | 10.477     | 10.612     | 10.748     |   4.2 | 48.17
Neigh   | 9.8318     | 10.121     | 10.41      |   9.1 | 45.94
Comm    | 0.6512     | 0.81364    | 0.97608    |  18.0 |  3.69
Output  | 6.9857e-05 | 9.346e-05  | 0.00011706 |   0.0 |  0.00
Modify  | 0.37976    | 0.38609    | 0.39242    |   1.0 |  1.75
Other   |            | 0.09601    |            |       |  0.44

Nlocal:    9826 ave 9846 max 9806 min
Histogram: 1 0 0 0 0 0 0 0 0 1
Nghost:    9030.5 ave 9052 max 9009 min
Histogram: 1 0 0 0 0 0 0 0 0 1
Neighs:    307840 ave 309679 max 306000 min
Histogram: 1 0 0 0 0 0 0 0 0 1

Total # of neighbors = 615679
Ave neighs/atom = 31.3291
Neighbor list builds = 495
Dangerous builds not checked
Setting up Verlet run ...
  Unit style    : metal
  Current step  : 420495
  Time step     : 0.001
Per MPI rank memory allocation (min/avg/max) = 11.36 | 11.36 | 11.36 Mbytes
Step Temp Press TotEng PotEng Enthalpy 
  420495    1466.9029    108.89504   -78611.433     -82337.5   -78557.404 
  440000    1461.6186    94.793258   -78650.575   -82363.219   -78603.574 
Loop time of 913.63 on 2 procs for 19505 steps with 19652 atoms

Performance: 1.845 ns/day, 13.011 hours/ns, 21.349 timesteps/s
98.8% CPU use with 2 MPI tasks x no OpenMP threads

MPI task timing breakdown:
Section |  min time  |  avg time  |  max time  |%varavg| %total
---------------------------------------------------------------
Pair    | 437.66     | 439.09     | 440.53     |   6.8 | 48.06
Neigh   | 419.15     | 419.37     | 419.6      |   1.1 | 45.90
Comm    | 33.724     | 34.824     | 35.924     |  18.6 |  3.81
Output  | 0.057394   | 0.05741    | 0.057425   |   0.0 |  0.01
Modify  | 16.075     | 16.152     | 16.229     |   1.9 |  1.77
Other   |            | 4.13       |            |       |  0.45

Nlocal:    9826 ave 9851 max 9801 min
Histogram: 1 0 0 0 0 0 0 0 0 1
Nghost:    8975.5 ave 8997 max 8954 min
Histogram: 1 0 0 0 0 0 0 0 0 1
Neighs:    308232 ave 311365 max 305099 min
Histogram: 1 0 0 0 0 0 0 0 0 1

Total # of neighbors = 616464
Ave neighs/atom = 31.369
Neighbor list builds = 19505
Dangerous builds not checked
Setting up Verlet run ...
  Unit style    : metal
  Current step  : 440000
  Time step     : 0.001
Per MPI rank memory allocation (min/avg/max) = 11.36 | 11.36 | 11.36 Mbytes
Step Temp Press TotEng PotEng Enthalpy 
  440000    1461.6186    94.793258   -78650.575   -82363.219   -78603.574 
  440495    1412.0127    131.20552   -78858.611   -82445.252   -78793.652 
Loop time of 21.4687 on 2 procs for 495 steps with 19652 atoms

Performance: 1.992 ns/day, 12.048 hours/ns, 23.057 timesteps/s
99.3% CPU use with 2 MPI tasks x no OpenMP threads

MPI task timing breakdown:
Section |  min time  |  avg time  |  max time  |%varavg| %total
---------------------------------------------------------------
Pair    | 9.8478     | 9.9405     | 10.033     |   2.9 | 46.30
Neigh   | 10.246     | 10.261     | 10.276     |   0.5 | 47.80
Comm    | 0.69429    | 0.79202    | 0.88974    |  11.0 |  3.69
Output  | 6.9141e-05 | 0.00010359 | 0.00013804 |   0.0 |  0.00
Modify  | 0.36963    | 0.37903    | 0.38842    |   1.5 |  1.77
Other   |            | 0.09599    |            |       |  0.45

Nlocal:    9826 ave 9846 max 9806 min
Histogram: 1 0 0 0 0 0 0 0 0 1
Nghost:    8964.5 ave 8991 max 8938 min
Histogram: 1 0 0 0 0 0 0 0 0 1
Neighs:    308614 ave 311450 max 305777 min
Histogram: 1 0 0 0 0 0 0 0 0 1

Total # of neighbors = 617227
Ave neighs/atom = 31.4078
Neighbor list builds = 495
Dangerous builds not checked
Setting up Verlet run ...
  Unit style    : metal
  Current step  : 440495
  Time step     : 0.001
Per MPI rank memory allocation (min/avg/max) = 11.36 | 11.36 | 11.36 Mbytes
Step Temp Press TotEng PotEng Enthalpy 
  440495    1412.0127    131.20552   -78858.611   -82445.252   -78793.652 
  460000    1393.2905    362.47052   -78953.443   -82492.528   -78774.339 
Loop time of 895.936 on 2 procs for 19505 steps with 19652 atoms

Performance: 1.881 ns/day, 12.759 hours/ns, 21.771 timesteps/s
98.0% CPU use with 2 MPI tasks x no OpenMP threads

MPI task timing breakdown:
Section |  min time  |  avg time  |  max time  |%varavg| %total
---------------------------------------------------------------
Pair    | 417.13     | 422.82     | 428.51     |  27.7 | 47.19
Neigh   | 407.79     | 407.88     | 407.98     |   0.5 | 45.53
Comm    | 40.25      | 45.899     | 51.548     |  83.4 |  5.12
Output  | 0.066313   | 0.066326   | 0.066338   |   0.0 |  0.01
Modify  | 15.224     | 15.282     | 15.34      |   1.5 |  1.71
Other   |            | 3.986      |            |       |  0.44

Nlocal:    9826 ave 9854 max 9798 min
Histogram: 1 0 0 0 0 0 0 0 0 1
Nghost:    8960 ave 8995 max 8925 min
Histogram: 1 0 0 0 0 0 0 0 0 1
Neighs:    309228 ave 312551 max 305906 min
Histogram: 1 0 0 0 0 0 0 0 0 1

Total # of neighbors = 618457
Ave neighs/atom = 31.4704
Neighbor list builds = 19505
Dangerous builds not checked
Setting up Verlet run ...
  Unit style    : metal
  Current step  : 460000
  Time step     : 0.001
Per MPI rank memory allocation (min/avg/max) = 11.36 | 11.36 | 11.36 Mbytes
Step Temp Press TotEng PotEng Enthalpy 
  460000    1393.2905    362.47052   -78953.443   -82492.528   -78774.339 
  460495    1349.5938     333.2013    -79117.88   -82545.972   -78953.425 
Loop time of 22.2314 on 2 procs for 495 steps with 19652 atoms

Performance: 1.924 ns/day, 12.476 hours/ns, 22.266 timesteps/s
99.9% CPU use with 2 MPI tasks x no OpenMP threads

MPI task timing breakdown:
Section |  min time  |  avg time  |  max time  |%varavg| %total
---------------------------------------------------------------
Pair    | 10.126     | 10.601     | 11.075     |  14.6 | 47.68
Neigh   | 9.7251     | 10.375     | 11.024     |  20.2 | 46.67
Comm    | 0.55743    | 0.75776    | 0.95809    |  23.0 |  3.41
Output  | 8.3208e-05 | 0.00010502 | 0.00012684 |   0.0 |  0.00
Modify  | 0.37304    | 0.3969     | 0.42076    |   3.8 |  1.79
Other   |            | 0.1013     |            |       |  0.46

Nlocal:    9826 ave 9845 max 9807 min
Histogram: 1 0 0 0 0 0 0 0 0 1
Nghost:    9020 ave 9024 max 9016 min
Histogram: 1 0 0 0 0 0 0 0 0 1
Neighs:    309362 ave 312907 max 305817 min
Histogram: 1 0 0 0 0 0 0 0 0 1

Total # of neighbors = 618724
Ave neighs/atom = 31.484
Neighbor list builds = 495
Dangerous builds not checked
Setting up Verlet run ...
  Unit style    : metal
  Current step  : 460495
  Time step     : 0.001
Per MPI rank memory allocation (min/avg/max) = 11.36 | 11.36 | 11.36 Mbytes
Step Temp Press TotEng PotEng Enthalpy 
  460495    1349.5938     333.2013    -79117.88   -82545.972   -78953.425 
  480000    1342.4853    431.49215   -79202.725    -82612.76   -78990.068 
Loop time of 878.39 on 2 procs for 19505 steps with 19652 atoms

Performance: 1.919 ns/day, 12.509 hours/ns, 22.205 timesteps/s
99.4% CPU use with 2 MPI tasks x no OpenMP threads

MPI task timing breakdown:
Section |  min time  |  avg time  |  max time  |%varavg| %total
---------------------------------------------------------------
Pair    | 411.86     | 415.99     | 420.11     |  20.2 | 47.36
Neigh   | 411.7      | 413.01     | 414.32     |   6.5 | 47.02
Comm    | 27.074     | 29.653     | 32.233     |  47.4 |  3.38
Output  | 0.22163    | 0.22165    | 0.22167    |   0.0 |  0.03
Modify  | 15.301     | 15.536     | 15.771     |   6.0 |  1.77
Other   |            | 3.98       |            |       |  0.45

Nlocal:    9826 ave 9835 max 9817 min
Histogram: 1 0 0 0 0 0 0 0 0 1
Nghost:    9001 ave 9013 max 8989 min
Histogram: 1 0 0 0 0 0 0 0 0 1
Neighs:    310093 ave 311975 max 308211 min
Histogram: 1 0 0 0 0 0 0 0 0 1

Total # of neighbors = 620186
Ave neighs/atom = 31.5584
Neighbor list builds = 19505
Dangerous builds not checked
Setting up Verlet run ...
  Unit style    : metal
  Current step  : 480000
  Time step     : 0.001
Per MPI rank memory allocation (min/avg/max) = 11.36 | 11.36 | 11.36 Mbytes
Step Temp Press TotEng PotEng Enthalpy 
  480000    1342.4853    431.49215   -79202.725    -82612.76   -78990.068 
  480495     1316.743    613.23495    -79361.84   -82706.487   -79060.271 
Loop time of 22.1212 on 2 procs for 495 steps with 19652 atoms

Performance: 1.933 ns/day, 12.414 hours/ns, 22.377 timesteps/s
99.9% CPU use with 2 MPI tasks x no OpenMP threads

MPI task timing breakdown:
Section |  min time  |  avg time  |  max time  |%varavg| %total
---------------------------------------------------------------
Pair    | 10.257     | 10.487     | 10.717     |   7.1 | 47.41
Neigh   | 10.146     | 10.37      | 10.594     |   7.0 | 46.88
Comm    | 0.75212    | 0.76102    | 0.76992    |   1.0 |  3.44
Output  | 7.987e-05  | 9.9421e-05 | 0.00011897 |   0.0 |  0.00
Modify  | 0.38656    | 0.40077    | 0.41498    |   2.2 |  1.81
Other   |            | 0.1018     |            |       |  0.46

Nlocal:    9826 ave 9831 max 9821 min
Histogram: 1 0 0 0 0 0 0 0 0 1
Nghost:    9019.5 ave 9041 max 8998 min
Histogram: 1 0 0 0 0 0 0 0 0 1
Neighs:    310618 ave 312746 max 308489 min
Histogram: 1 0 0 0 0 0 0 0 0 1

Total # of neighbors = 621235
Ave neighs/atom = 31.6118
Neighbor list builds = 495
Dangerous builds not checked
Setting up Verlet run ...
  Unit style    : metal
  Current step  : 480495
  Time step     : 0.001
Per MPI rank memory allocation (min/avg/max) = 11.36 | 11.36 | 11.36 Mbytes
Step Temp Press TotEng PotEng Enthalpy 
  480495     1316.743    613.23495    -79361.84   -82706.487   -79060.271 
  500000    1310.1942   -753.65086   -79409.385   -82737.398   -79781.533 
Loop time of 867.538 on 2 procs for 19505 steps with 19652 atoms

Performance: 1.943 ns/day, 12.355 hours/ns, 22.483 timesteps/s
99.3% CPU use with 2 MPI tasks x no OpenMP threads

MPI task timing breakdown:
Section |  min time  |  avg time  |  max time  |%varavg| %total
---------------------------------------------------------------
Pair    | 409.34     | 415.01     | 420.69     |  27.8 | 47.84
Neigh   | 395.68     | 399.75     | 403.83     |  20.4 | 46.08
Comm    | 32.184     | 33.685     | 35.185     |  25.8 |  3.88
Output  | 0.048077   | 0.048087   | 0.048098   |   0.0 |  0.01
Modify  | 15.012     | 15.116     | 15.219     |   2.7 |  1.74
Other   |            | 3.921      |            |       |  0.45

Nlocal:    9826 ave 9827 max 9825 min
Histogram: 1 0 0 0 0 0 0 0 0 1
Nghost:    8968.5 ave 8986 max 8951 min
Histogram: 1 0 0 0 0 0 0 0 0 1
Neighs:    309419 ave 311919 max 306919 min
Histogram: 1 0 0 0 0 0 0 0 0 1

Total # of neighbors = 618838
Ave neighs/atom = 31.4898
Neighbor list builds = 19505
Dangerous builds not checked
Setting up Verlet run ...
  Unit style    : metal
  Current step  : 500000
  Time step     : 0.001
Per MPI rank memory allocation (min/avg/max) = 11.36 | 11.36 | 11.36 Mbytes
Step Temp Press TotEng PotEng Enthalpy 
  500000    1310.1942   -753.65086   -79409.385   -82737.398   -79781.533 
  500495    1260.3974   -235.29006   -79609.969   -82811.493   -79725.823 
Loop time of 21.067 on 2 procs for 495 steps with 19652 atoms

Performance: 2.030 ns/day, 11.822 hours/ns, 23.496 timesteps/s
99.4% CPU use with 2 MPI tasks x no OpenMP threads

MPI task timing breakdown:
Section |  min time  |  avg time  |  max time  |%varavg| %total
---------------------------------------------------------------
Pair    | 9.8982     | 10.045     | 10.192     |   4.6 | 47.68
Neigh   | 9.7665     | 9.8989     | 10.031     |   4.2 | 46.99
Comm    | 0.63215    | 0.64337    | 0.65459    |   1.4 |  3.05
Output  | 9.0122e-05 | 0.00010061 | 0.0001111  |   0.0 |  0.00
Modify  | 0.37327    | 0.37657    | 0.37988    |   0.5 |  1.79
Other   |            | 0.1033     |            |       |  0.49

Nlocal:    9826 ave 9834 max 9818 min
Histogram: 1 0 0 0 0 0 0 0 0 1
Nghost:    9017 ave 9021 max 9013 min
Histogram: 1 0 0 0 0 0 0 0 0 1
Neighs:    310032 ave 312000 max 308064 min
Histogram: 1 0 0 0 0 0 0 0 0 1

Total # of neighbors = 620064
Ave neighs/atom = 31.5522
Neighbor list builds = 495
Dangerous builds not checked
Setting up Verlet run ...
  Unit style    : metal
  Current step  : 500495
  Time step     : 0.001
Per MPI rank memory allocation (min/avg/max) = 11.36 | 11.36 | 11.36 Mbytes
Step Temp Press TotEng PotEng Enthalpy 
  500495    1260.3974   -235.29006   -79609.969   -82811.493   -79725.823 
  520000    1247.8382    66.725472   -79701.247    -82870.87   -79668.477 
Loop time of 877.648 on 2 procs for 19505 steps with 19652 atoms

Performance: 1.920 ns/day, 12.499 hours/ns, 22.224 timesteps/s
99.0% CPU use with 2 MPI tasks x no OpenMP threads

MPI task timing breakdown:
Section |  min time  |  avg time  |  max time  |%varavg| %total
---------------------------------------------------------------
Pair    | 423.51     | 424.37     | 425.24     |   4.2 | 48.35
Neigh   | 393.91     | 397.36     | 400.81     |  17.3 | 45.28
Comm    | 34.017     | 36.76      | 39.503     |  45.2 |  4.19
Output  | 0.061987   | 0.06199    | 0.061992   |   0.0 |  0.01
Modify  | 14.94      | 15.078     | 15.216     |   3.5 |  1.72
Other   |            | 4.009      |            |       |  0.46

Nlocal:    9826 ave 9827 max 9825 min
Histogram: 1 0 0 0 0 0 0 0 0 1
Nghost:    9009.5 ave 9029 max 8990 min
Histogram: 1 0 0 0 0 0 0 0 0 1
Neighs:    310968 ave 313824 max 308113 min
Histogram: 1 0 0 0 0 0 0 0 0 1

Total # of neighbors = 621937
Ave neighs/atom = 31.6475
Neighbor list builds = 19505
Dangerous builds not checked
Setting up Verlet run ...
  Unit style    : metal
  Current step  : 520000
  Time step     : 0.001
Per MPI rank memory allocation (min/avg/max) = 11.37 | 11.37 | 11.37 Mbytes
Step Temp Press TotEng PotEng Enthalpy 
  520000    1247.8382    66.725472   -79701.247    -82870.87   -79668.477 
  520495    1223.1809    92.711098   -79865.265   -82972.256   -79819.787 
Loop time of 22.1168 on 2 procs for 495 steps with 19652 atoms

Performance: 1.934 ns/day, 12.411 hours/ns, 22.381 timesteps/s
99.8% CPU use with 2 MPI tasks x no OpenMP threads

MPI task timing breakdown:
Section |  min time  |  avg time  |  max time  |%varavg| %total
---------------------------------------------------------------
Pair    | 10.179     | 10.449     | 10.718     |   8.3 | 47.24
Neigh   | 10.327     | 10.437     | 10.547     |   3.4 | 47.19
Comm    | 0.56172    | 0.7238     | 0.88588    |  19.1 |  3.27
Output  | 7.1049e-05 | 0.00011349 | 0.00015593 |   0.0 |  0.00
Modify  | 0.4026     | 0.40364    | 0.40468    |   0.2 |  1.83
Other   |            | 0.1037     |            |       |  0.47

Nlocal:    9826 ave 9838 max 9814 min
Histogram: 1 0 0 0 0 0 0 0 0 1
Nghost:    9039 ave 9059 max 9019 min
Histogram: 1 0 0 0 0 0 0 0 0 1
Neighs:    311254 ave 313936 max 308571 min
Histogram: 1 0 0 0 0 0 0 0 0 1

Total # of neighbors = 622507
Ave neighs/atom = 31.6765
Neighbor list builds = 495
Dangerous builds not checked
Setting up Verlet run ...
  Unit style    : metal
  Current step  : 520495
  Time step     : 0.001
Per MPI rank memory allocation (min/avg/max) = 11.37 | 11.37 | 11.37 Mbytes
Step Temp Press TotEng PotEng Enthalpy 
  520495    1223.1809    92.711098   -79865.265   -82972.256   -79819.787 
  540000    1202.1583    676.15667   -79986.002   -83039.593   -79655.243 
Loop time of 884.446 on 2 procs for 19505 steps with 19652 atoms

Performance: 1.905 ns/day, 12.596 hours/ns, 22.053 timesteps/s
98.8% CPU use with 2 MPI tasks x no OpenMP threads

MPI task timing breakdown:
Section |  min time  |  avg time  |  max time  |%varavg| %total
---------------------------------------------------------------
Pair    | 413.04     | 423.59     | 434.14     |  51.3 | 47.89
Neigh   | 384.01     | 400.5      | 416.99     |  82.4 | 45.28
Comm    | 34.531     | 40.923     | 47.315     |  99.9 |  4.63
Output  | 0.064436   | 0.064458   | 0.064481   |   0.0 |  0.01
Modify  | 14.989     | 15.463     | 15.937     |  12.1 |  1.75
Other   |            | 3.903      |            |       |  0.44

Nlocal:    9826 ave 9835 max 9817 min
Histogram: 1 0 0 0 0 0 0 0 0 1
Nghost:    9059.5 ave 9087 max 9032 min
Histogram: 1 0 0 0 0 0 0 0 0 1
Neighs:    312146 ave 314842 max 309449 min
Histogram: 1 0 0 0 0 0 0 0 0 1

Total # of neighbors = 624291
Ave neighs/atom = 31.7673
Neighbor list builds = 19505
Dangerous builds not checked
Setting up Verlet run ...
  Unit style    : metal
  Current step  : 540000
  Time step     : 0.001
Per MPI rank memory allocation (min/avg/max) = 11.37 | 11.37 | 11.37 Mbytes
Step Temp Press TotEng PotEng Enthalpy 
  540000    1202.1583    676.15667   -79986.002   -83039.593   -79655.243 
  540495    1160.3677    361.18961   -80142.728   -83090.167   -79966.122 
Loop time of 21.0184 on 2 procs for 495 steps with 19652 atoms

Performance: 2.035 ns/day, 11.795 hours/ns, 23.551 timesteps/s
99.2% CPU use with 2 MPI tasks x no OpenMP threads

MPI task timing breakdown:
Section |  min time  |  avg time  |  max time  |%varavg| %total
---------------------------------------------------------------
Pair    | 9.9608     | 10.032     | 10.103     |   2.2 | 47.73
Neigh   | 9.5778     | 9.695      | 9.8122     |   3.8 | 46.13
Comm    | 0.78978    | 0.83819    | 0.8866     |   5.3 |  3.99
Output  | 6.9857e-05 | 9.8944e-05 | 0.00012803 |   0.0 |  0.00
Modify  | 0.35366    | 0.35857    | 0.36349    |   0.8 |  1.71
Other   |            | 0.0949     |            |       |  0.45

Nlocal:    9826 ave 9842 max 9810 min
Histogram: 1 0 0 0 0 0 0 0 0 1
Nghost:    9075 ave 9102 max 9048 min
Histogram: 1 0 0 0 0 0 0 0 0 1
Neighs:    312000 ave 315017 max 308983 min
Histogram: 1 0 0 0 0 0 0 0 0 1

Total # of neighbors = 624000
Ave neighs/atom = 31.7525
Neighbor list builds = 495
Dangerous builds not checked
Setting up Verlet run ...
  Unit style    : metal
  Current step  : 540495
  Time step     : 0.001
Per MPI rank memory allocation (min/avg/max) = 11.37 | 11.37 | 11.37 Mbytes
Step Temp Press TotEng PotEng Enthalpy 
  540495    1160.3677    361.18961   -80142.728   -83090.167   -79966.122 
  560000    1145.5385    227.56862    -80234.77   -83144.542   -80123.572 
Loop time of 895.039 on 2 procs for 19505 steps with 19652 atoms

Performance: 1.883 ns/day, 12.747 hours/ns, 21.792 timesteps/s
97.6% CPU use with 2 MPI tasks x no OpenMP threads

MPI task timing breakdown:
Section |  min time  |  avg time  |  max time  |%varavg| %total
---------------------------------------------------------------
Pair    | 414.2      | 418.98     | 423.77     |  23.4 | 46.81
Neigh   | 388.46     | 397.98     | 407.51     |  47.7 | 44.47
Comm    | 53.097     | 58.09      | 63.083     |  65.5 |  6.49
Output  | 0.26317    | 0.26318    | 0.26319    |   0.0 |  0.03
Modify  | 15.6       | 15.87      | 16.14      |   6.8 |  1.77
Other   |            | 3.851      |            |       |  0.43

Nlocal:    9826 ave 9839 max 9813 min
Histogram: 1 0 0 0 0 0 0 0 0 1
Nghost:    9061 ave 9087 max 9035 min
Histogram: 1 0 0 0 0 0 0 0 0 1
Neighs:    312424 ave 314360 max 310489 min
Histogram: 1 0 0 0 0 0 0 0 0 1

Total # of neighbors = 624849
Ave neighs/atom = 31.7957
Neighbor list builds = 19505
Dangerous builds not checked
Setting up Verlet run ...
  Unit style    : metal
  Current step  : 560000
  Time step     : 0.001
Per MPI rank memory allocation (min/avg/max) = 11.37 | 11.37 | 11.37 Mbytes
Step Temp Press TotEng PotEng Enthalpy 
  560000    1145.5385    227.56862    -80234.77   -83144.542   -80123.572 
  560495    1108.4281    367.27183   -80390.377   -83205.885   -80211.223 
Loop time of 21.3732 on 2 procs for 495 steps with 19652 atoms

[...]
Nghost:    9165.5 ave 9173 max 9158 min
Histogram: 1 0 0 0 0 0 0 0 0 1
Neighs:    320452 ave 322220 max 318685 min
Histogram: 1 0 0 0 0 0 0 0 0 1

Total # of neighbors = 640905
Ave neighs/atom = 32.6127
Neighbor list builds = 19505
Dangerous builds not checked
Setting up Verlet run ...
  Unit style    : metal
  Current step  : 840000
  Time step     : 0.001
Per MPI rank memory allocation (min/avg/max) = 11.37 | 11.37 | 11.37 Mbytes
Step Temp Press TotEng PotEng Enthalpy 
  840000    451.26049    -534.7771   -84138.078    -85284.32   -84391.092 
  840495     420.9854   -262.25837   -84291.802   -85361.143    -84415.63 
Loop time of 24.6836 on 2 procs for 495 steps with 19652 atoms

Performance: 1.733 ns/day, 13.852 hours/ns, 20.054 timesteps/s
95.7% CPU use with 2 MPI tasks x no OpenMP threads

MPI task timing breakdown:
Section |  min time  |  avg time  |  max time  |%varavg| %total
---------------------------------------------------------------
Pair    | 12.008     | 12.069     | 12.13      |   1.8 | 48.90
Neigh   | 10.56      | 11.035     | 11.511     |  14.3 | 44.71
Comm    | 0.63384    | 1.0638     | 1.4937     |  41.7 |  4.31
Output  | 7.1049e-05 | 0.00010502 | 0.000139   |   0.0 |  0.00
Modify  | 0.40279    | 0.41302    | 0.42325    |   1.6 |  1.67
Other   |            | 0.1021     |            |       |  0.41

Nlocal:    9826 ave 9832 max 9820 min
Histogram: 1 0 0 0 0 0 0 0 0 1
Nghost:    9154 ave 9160 max 9148 min
Histogram: 1 0 0 0 0 0 0 0 0 1
Neighs:    321064 ave 323188 max 318940 min
Histogram: 1 0 0 0 0 0 0 0 0 1

Total # of neighbors = 642128
Ave neighs/atom = 32.6749
Neighbor list builds = 495
Dangerous builds not checked
Setting up Verlet run ...
  Unit style    : metal
  Current step  : 840495
  Time step     : 0.001
Per MPI rank memory allocation (min/avg/max) = 11.37 | 11.37 | 11.37 Mbytes
Step Temp Press TotEng PotEng Enthalpy 
  840495     420.9854   -262.25837   -84291.802   -85361.143    -84415.63 
  860000    403.15046    -147.6884   -84451.283   -85475.322   -84520.827 
Loop time of 965.234 on 2 procs for 19505 steps with 19652 atoms

Performance: 1.746 ns/day, 13.746 hours/ns, 20.208 timesteps/s
94.8% CPU use with 2 MPI tasks x no OpenMP threads

MPI task timing breakdown:
Section |  min time  |  avg time  |  max time  |%varavg| %total
---------------------------------------------------------------
Pair    | 463.36     | 468.88     | 474.41     |  25.5 | 48.58
Neigh   | 411.79     | 417.2      | 422.62     |  26.5 | 43.22
Comm    | 58.432     | 58.47      | 58.508     |   0.5 |  6.06
Output  | 0.12396    | 0.12397    | 0.12399    |   0.0 |  0.01
Modify  | 16.405     | 16.51      | 16.615     |   2.6 |  1.71
Other   |            | 4.042      |            |       |  0.42

Nlocal:    9826 ave 9832 max 9820 min
Histogram: 1 0 0 0 0 0 0 0 0 1
Nghost:    9155 ave 9183 max 9127 min
Histogram: 1 0 0 0 0 0 0 0 0 1
Neighs:    321586 ave 324276 max 318896 min
Histogram: 1 0 0 0 0 0 0 0 0 1

Total # of neighbors = 643172
Ave neighs/atom = 32.7281
Neighbor list builds = 19505
Dangerous builds not checked
Setting up Verlet run ...
  Unit style    : metal
  Current step  : 860000
  Time step     : 0.001
Per MPI rank memory allocation (min/avg/max) = 11.37 | 11.37 | 11.37 Mbytes
Step Temp Press TotEng PotEng Enthalpy 
  860000    403.15046    -147.6884   -84451.283   -85475.322   -84520.827 
  860495    370.76457   -130.06551    -84609.82   -85551.596   -84670.999 
Loop time of 23.6266 on 2 procs for 495 steps with 19652 atoms

Performance: 1.810 ns/day, 13.258 hours/ns, 20.951 timesteps/s
99.2% CPU use with 2 MPI tasks x no OpenMP threads

MPI task timing breakdown:
Section |  min time  |  avg time  |  max time  |%varavg| %total
---------------------------------------------------------------
Pair    | 11.169     | 11.325     | 11.48      |   4.6 | 47.93
Neigh   | 10.939     | 10.948     | 10.958     |   0.3 | 46.34
Comm    | 0.64682    | 0.81915    | 0.99148    |  19.0 |  3.47
Output  | 7.1049e-05 | 9.656e-05  | 0.00012207 |   0.0 |  0.00
Modify  | 0.4233     | 0.42928    | 0.43525    |   0.9 |  1.82
Other   |            | 0.1051     |            |       |  0.44

Nlocal:    9826 ave 9836 max 9816 min
Histogram: 1 0 0 0 0 0 0 0 0 1
Nghost:    9198.5 ave 9212 max 9185 min
Histogram: 1 0 0 0 0 0 0 0 0 1
Neighs:    321716 ave 324614 max 318817 min
Histogram: 1 0 0 0 0 0 0 0 0 1

Total # of neighbors = 643431
Ave neighs/atom = 32.7412
Neighbor list builds = 495
Dangerous builds not checked
Setting up Verlet run ...
  Unit style    : metal
  Current step  : 860495
  Time step     : 0.001
Per MPI rank memory allocation (min/avg/max) = 11.37 | 11.37 | 11.37 Mbytes
Step Temp Press TotEng PotEng Enthalpy 
  860495    370.76457   -130.06551    -84609.82   -85551.596   -84670.999 
  880000    352.07371    20.002558    -84797.79    -85692.09   -84788.403 
Loop time of 1041.99 on 2 procs for 19505 steps with 19652 atoms

Performance: 1.617 ns/day, 14.839 hours/ns, 18.719 timesteps/s
92.5% CPU use with 2 MPI tasks x no OpenMP threads

MPI task timing breakdown:
Section |  min time  |  avg time  |  max time  |%varavg| %total
---------------------------------------------------------------
Pair    | 512.16     | 513.39     | 514.63     |   5.5 | 49.27
Neigh   | 408.63     | 411.86     | 415.1      |  15.9 | 39.53
Comm    | 92.444     | 94.595     | 96.746     |  22.1 |  9.08
Output  | 0.19433    | 0.19436    | 0.19439    |   0.0 |  0.02
Modify  | 17.685     | 17.783     | 17.881     |   2.3 |  1.71
Other   |            | 4.165      |            |       |  0.40

Nlocal:    9826 ave 9829 max 9823 min
Histogram: 1 0 0 0 0 0 0 0 0 1
Nghost:    9185 ave 9219 max 9151 min
Histogram: 1 0 0 0 0 0 0 0 0 1
Neighs:    322286 ave 324703 max 319870 min
Histogram: 1 0 0 0 0 0 0 0 0 1

Total # of neighbors = 644573
Ave neighs/atom = 32.7994
Neighbor list builds = 19505
Dangerous builds not checked
Setting up Verlet run ...
  Unit style    : metal
  Current step  : 880000
  Time step     : 0.001
Per MPI rank memory allocation (min/avg/max) = 11.37 | 11.37 | 11.37 Mbytes
Step Temp Press TotEng PotEng Enthalpy 
  880000    352.07371    20.002558    -84797.79    -85692.09   -84788.403 
  880495    323.55022   -114.86123   -84944.581   -85766.428   -84998.436 
Loop time of 27.9947 on 2 procs for 495 steps with 19652 atoms

Performance: 1.528 ns/day, 15.710 hours/ns, 17.682 timesteps/s
91.2% CPU use with 2 MPI tasks x no OpenMP threads

MPI task timing breakdown:
Section |  min time  |  avg time  |  max time  |%varavg| %total
---------------------------------------------------------------
Pair    | 13.319     | 14.054     | 14.788     |  19.6 | 50.20
Neigh   | 10.092     | 10.967     | 11.842     |  26.4 | 39.17
Comm    | 2.1426     | 2.3179     | 2.4931     |  11.5 |  8.28
Output  | 0.0001092  | 0.00011206 | 0.00011492 |   0.0 |  0.00
Modify  | 0.52255    | 0.54071    | 0.55887    |   2.5 |  1.93
Other   |            | 0.1155     |            |       |  0.41

Nlocal:    9826 ave 9838 max 9814 min
Histogram: 1 0 0 0 0 0 0 0 0 1
Nghost:    9184.5 ave 9202 max 9167 min
Histogram: 1 0 0 0 0 0 0 0 0 1
Neighs:    322366 ave 324251 max 320481 min
Histogram: 1 0 0 0 0 0 0 0 0 1

Total # of neighbors = 644732
Ave neighs/atom = 32.8074
Neighbor list builds = 495
Dangerous builds not checked
Setting up Verlet run ...
  Unit style    : metal
  Current step  : 880495
  Time step     : 0.001
Per MPI rank memory allocation (min/avg/max) = 11.37 | 11.37 | 11.37 Mbytes
Step Temp Press TotEng PotEng Enthalpy 
  880495    323.55022   -114.86123   -84944.581   -85766.428   -84998.436 
  900000    299.75899    57.187482   -85115.469   -85876.884   -85088.717 
Loop time of 1055.58 on 2 procs for 19505 steps with 19652 atoms

Performance: 1.596 ns/day, 15.033 hours/ns, 18.478 timesteps/s
88.6% CPU use with 2 MPI tasks x no OpenMP threads

MPI task timing breakdown:
Section |  min time  |  avg time  |  max time  |%varavg| %total
---------------------------------------------------------------
Pair    | 513.52     | 515.21     | 516.89     |   7.4 | 48.81
Neigh   | 401.51     | 410.84     | 420.16     |  46.0 | 38.92
Comm    | 99.007     | 107.04     | 115.07     |  77.6 | 10.14
Output  | 0.15089    | 0.1509     | 0.1509     |   0.0 |  0.01
Modify  | 17.763     | 18.062     | 18.36      |   7.0 |  1.71
Other   |            | 4.288      |            |       |  0.41

Nlocal:    9826 ave 9828 max 9824 min
Histogram: 1 0 0 0 0 0 0 0 0 1
Nghost:    9211 ave 9233 max 9189 min
Histogram: 1 0 0 0 0 0 0 0 0 1
Neighs:    322818 ave 325285 max 320352 min
Histogram: 1 0 0 0 0 0 0 0 0 1

Total # of neighbors = 645637
Ave neighs/atom = 32.8535
Neighbor list builds = 19505
Dangerous builds not checked
Setting up Verlet run ...
  Unit style    : metal
  Current step  : 900000
  Time step     : 0.001
Per MPI rank memory allocation (min/avg/max) = 11.37 | 11.37 | 11.37 Mbytes
Step Temp Press TotEng PotEng Enthalpy 
  900000    299.75899    57.187482   -85115.469   -85876.884   -85088.717 
  900495    273.02304   -97.192325   -85258.105   -85951.608   -85303.528 
Loop time of 22.1778 on 2 procs for 495 steps with 19652 atoms

Performance: 1.928 ns/day, 12.445 hours/ns, 22.320 timesteps/s
96.7% CPU use with 2 MPI tasks x no OpenMP threads

MPI task timing breakdown:
Section |  min time  |  avg time  |  max time  |%varavg| %total
---------------------------------------------------------------
Pair    | 10.737     | 10.907     | 11.077     |   5.1 | 49.18
Neigh   | 7.9743     | 9.1219     | 10.27      |  38.0 | 41.13
Comm    | 0.64028    | 1.6713     | 2.7022     |  79.7 |  7.54
Output  | 8.7023e-05 | 0.00011253 | 0.00013804 |   0.0 |  0.00
Modify  | 0.33438    | 0.37745    | 0.42052    |   7.0 |  1.70
Other   |            | 0.0997     |            |       |  0.45

Nlocal:    9826 ave 9827 max 9825 min
Histogram: 1 0 0 0 0 0 0 0 0 1
Nghost:    9220 ave 9247 max 9193 min
Histogram: 1 0 0 0 0 0 0 0 0 1
Neighs:    323150 ave 325510 max 320789 min
Histogram: 1 0 0 0 0 0 0 0 0 1

Total # of neighbors = 646299
Ave neighs/atom = 32.8872
Neighbor list builds = 495
Dangerous builds not checked
Setting up Verlet run ...
  Unit style    : metal
  Current step  : 900495
  Time step     : 0.001
Per MPI rank memory allocation (min/avg/max) = 11.37 | 11.37 | 11.37 Mbytes
Step Temp Press TotEng PotEng Enthalpy 
  900495    273.02304   -97.192325   -85258.105   -85951.608   -85303.528 
  920000    253.20908    23.581213   -85434.723   -86077.897   -85423.725 
Loop time of 1167.16 on 2 procs for 19505 steps with 19652 atoms

Performance: 1.444 ns/day, 16.622 hours/ns, 16.711 timesteps/s
87.9% CPU use with 2 MPI tasks x no OpenMP threads

MPI task timing breakdown:
Section |  min time  |  avg time  |  max time  |%varavg| %total
---------------------------------------------------------------
Pair    | 579.44     | 584.26     | 589.09     |  20.0 | 50.06
Neigh   | 462.39     | 463.4      | 464.4      |   4.7 | 39.70
Comm    | 87.634     | 93.692     | 99.75      |  62.6 |  8.03
Output  | 0.07072    | 0.070746   | 0.070772   |   0.0 |  0.01
Modify  | 20.862     | 21.033     | 21.203     |   3.7 |  1.80
Other   |            | 4.707      |            |       |  0.40

Nlocal:    9826 ave 9843 max 9809 min
Histogram: 1 0 0 0 0 0 0 0 0 1
Nghost:    9252 ave 9255 max 9249 min
Histogram: 1 0 0 0 0 0 0 0 0 1
Neighs:    323551 ave 325198 max 321904 min
Histogram: 1 0 0 0 0 0 0 0 0 1

Total # of neighbors = 647102
Ave neighs/atom = 32.928
Neighbor list builds = 19505
Dangerous builds not checked
Setting up Verlet run ...
  Unit style    : metal
  Current step  : 920000
  Time step     : 0.001
Per MPI rank memory allocation (min/avg/max) = 11.37 | 11.37 | 11.37 Mbytes
Step Temp Press TotEng PotEng Enthalpy 
  920000    253.20908    23.581213   -85434.723   -86077.897   -85423.725 
  920495     225.7057    21.659321   -85569.397    -86142.71   -85559.311 
Loop time of 27.9651 on 2 procs for 495 steps with 19652 atoms

Performance: 1.529 ns/day, 15.693 hours/ns, 17.701 timesteps/s
90.8% CPU use with 2 MPI tasks x no OpenMP threads

MPI task timing breakdown:
Section |  min time  |  avg time  |  max time  |%varavg| %total
---------------------------------------------------------------
Pair    | 13.833     | 14.307     | 14.781     |  12.5 | 51.16
Neigh   | 7.7628     | 10.345     | 12.927     |  80.3 | 36.99
Comm    | 0.55985    | 2.7711     | 4.9823     | 132.8 |  9.91
Output  | 7.4863e-05 | 0.00010753 | 0.00014019 |   0.0 |  0.00
Modify  | 0.35475    | 0.43189    | 0.50904    |  11.7 |  1.54
Other   |            | 0.1097     |            |       |  0.39

Nlocal:    9826 ave 9850 max 9802 min
Histogram: 1 0 0 0 0 0 0 0 0 1
Nghost:    9249 ave 9259 max 9239 min
Histogram: 1 0 0 0 0 0 0 0 0 1
Neighs:    323738 ave 325102 max 322375 min
Histogram: 1 0 0 0 0 0 0 0 0 1

Total # of neighbors = 647477
Ave neighs/atom = 32.9471
Neighbor list builds = 495
Dangerous builds not checked
Setting up Verlet run ...
  Unit style    : metal
  Current step  : 920495
  Time step     : 0.001
Per MPI rank memory allocation (min/avg/max) = 11.37 | 11.37 | 11.37 Mbytes
Step Temp Press TotEng PotEng Enthalpy 
  920495     225.7057    21.659321   -85569.397    -86142.71   -85559.311 
  940000    199.84391   -122.57586   -85743.172   -86250.794   -85800.201 
Loop time of 1235.03 on 2 procs for 19505 steps with 19652 atoms

Performance: 1.365 ns/day, 17.589 hours/ns, 15.793 timesteps/s
83.2% CPU use with 2 MPI tasks x no OpenMP threads

MPI task timing breakdown:
Section |  min time  |  avg time  |  max time  |%varavg| %total
---------------------------------------------------------------
Pair    | 608.7      | 620.13     | 631.57     |  45.9 | 50.21
Neigh   | 445.95     | 467.28     | 488.62     |  98.7 | 37.84
Comm    | 107.89     | 118.21     | 128.53     |  94.9 |  9.57
Output  | 0.062026   | 0.062038   | 0.062049   |   0.0 |  0.01
Modify  | 24.229     | 24.526     | 24.824     |   6.0 |  1.99
Other   |            | 4.82       |            |       |  0.39

Nlocal:    9826 ave 9829 max 9823 min
Histogram: 1 0 0 0 0 0 0 0 0 1
Nghost:    9242.5 ave 9280 max 9205 min
Histogram: 1 0 0 0 0 0 0 0 0 1
Neighs:    324126 ave 326310 max 321941 min
Histogram: 1 0 0 0 0 0 0 0 0 1

Total # of neighbors = 648251
Ave neighs/atom = 32.9865
Neighbor list builds = 19505
Dangerous builds not checked
Setting up Verlet run ...
  Unit style    : metal
  Current step  : 940000
  Time step     : 0.001
Per MPI rank memory allocation (min/avg/max) = 11.37 | 11.37 | 11.37 Mbytes
Step Temp Press TotEng PotEng Enthalpy 
  940000    199.84391   -122.57586   -85743.172   -86250.794   -85800.201 
  940495    174.32946   -41.569559   -85861.934   -86304.747   -85881.247 
Loop time of 34.2317 on 2 procs for 495 steps with 19652 atoms

Performance: 1.249 ns/day, 19.210 hours/ns, 14.460 timesteps/s
80.5% CPU use with 2 MPI tasks x no OpenMP threads

MPI task timing breakdown:
Section |  min time  |  avg time  |  max time  |%varavg| %total
---------------------------------------------------------------
Pair    | 17.114     | 17.638     | 18.162     |  12.5 | 51.53
Neigh   | 9.2355     | 12.123     | 15.01      |  82.9 | 35.41
Comm    | 1.2504     | 3.751      | 6.2516     | 129.1 | 10.96
Output  | 9.203e-05  | 0.00011206 | 0.00013208 |   0.0 |  0.00
Modify  | 0.48941    | 0.60444    | 0.71947    |  14.8 |  1.77
Other   |            | 0.1151     |            |       |  0.34

Nlocal:    9826 ave 9845 max 9807 min
Histogram: 1 0 0 0 0 0 0 0 0 1
Nghost:    9257 ave 9260 max 9254 min
Histogram: 1 0 0 0 0 0 0 0 0 1
Neighs:    324574 ave 326062 max 323086 min
Histogram: 1 0 0 0 0 0 0 0 0 1

Total # of neighbors = 649148
Ave neighs/atom = 33.0322
Neighbor list builds = 495
Dangerous builds not checked
Setting up Verlet run ...
  Unit style    : metal
  Current step  : 940495
  Time step     : 0.001
Per MPI rank memory allocation (min/avg/max) = 11.37 | 11.37 | 11.37 Mbytes
Step Temp Press TotEng PotEng Enthalpy 
  940495    174.32946   -41.569559   -85861.934   -86304.747   -85881.247 
  960000    150.67995    307.45446   -86022.321   -86405.062   -85879.828 
Loop time of 1166.7 on 2 procs for 19505 steps with 19652 atoms

Performance: 1.444 ns/day, 16.615 hours/ns, 16.718 timesteps/s
85.2% CPU use with 2 MPI tasks x no OpenMP threads

MPI task timing breakdown:
Section |  min time  |  avg time  |  max time  |%varavg| %total
---------------------------------------------------------------
Pair    | 589.8      | 592.86     | 595.92     |  12.6 | 50.82
Neigh   | 442.59     | 446.47     | 450.35     |  18.4 | 38.27
Comm    | 101.03     | 102        | 102.96     |   9.5 |  8.74
Output  | 0.05269    | 0.052696   | 0.052703   |   0.0 |  0.00
Modify  | 20.537     | 20.617     | 20.697     |   1.8 |  1.77
Other   |            | 4.7        |            |       |  0.40

Nlocal:    9826 ave 9840 max 9812 min
Histogram: 1 0 0 0 0 0 0 0 0 1
Nghost:    9281 ave 9288 max 9274 min
Histogram: 1 0 0 0 0 0 0 0 0 1
Neighs:    325286 ave 327312 max 323260 min
Histogram: 1 0 0 0 0 0 0 0 0 1

Total # of neighbors = 650572
Ave neighs/atom = 33.1046
Neighbor list builds = 19505
Dangerous builds not checked
Setting up Verlet run ...
  Unit style    : metal
  Current step  : 960000
  Time step     : 0.001
Per MPI rank memory allocation (min/avg/max) = 11.37 | 11.37 | 11.37 Mbytes
Step Temp Press TotEng PotEng Enthalpy 
  960000    150.67995    307.45446   -86022.321   -86405.062   -85879.828 
  960495    126.58945   -148.46583   -86139.042    -86460.59   -86207.871 
Loop time of 44.024 on 2 procs for 495 steps with 19652 atoms

Performance: 0.971 ns/day, 24.705 hours/ns, 11.244 timesteps/s
64.7% CPU use with 2 MPI tasks x no OpenMP threads

MPI task timing breakdown:
Section |  min time  |  avg time  |  max time  |%varavg| %total
---------------------------------------------------------------
Pair    | 21.181     | 21.403     | 21.624     |   4.8 | 48.62
Neigh   | 16.104     | 16.975     | 17.846     |  21.1 | 38.56
Comm    | 3.4783     | 4.1418     | 4.8053     |  32.6 |  9.41
Output  | 9.1076e-05 | 0.0001235  | 0.00015593 |   0.0 |  0.00
Modify  | 1.2979     | 1.3244     | 1.3509     |   2.3 |  3.01
Other   |            | 0.1803     |            |       |  0.41

Nlocal:    9826 ave 9831 max 9821 min
Histogram: 1 0 0 0 0 0 0 0 0 1
Nghost:    9264.5 ave 9267 max 9262 min
Histogram: 1 0 0 0 0 0 0 0 0 1
Neighs:    325166 ave 327284 max 323048 min
Histogram: 1 0 0 0 0 0 0 0 0 1

Total # of neighbors = 650332
Ave neighs/atom = 33.0924
Neighbor list builds = 495
Dangerous builds not checked
Setting up Verlet run ...
  Unit style    : metal
  Current step  : 960495
  Time step     : 0.001
Per MPI rank memory allocation (min/avg/max) = 11.37 | 11.37 | 11.37 Mbytes
Step Temp Press TotEng PotEng Enthalpy 
  960495    126.58945   -148.46583   -86139.042    -86460.59   -86207.871 
  980000    100.44647    97.617604   -86299.095   -86554.239   -86253.929 
Loop time of 1066.6 on 2 procs for 19505 steps with 19652 atoms

Performance: 1.580 ns/day, 15.190 hours/ns, 18.287 timesteps/s
89.8% CPU use with 2 MPI tasks x no OpenMP threads

MPI task timing breakdown:
Section |  min time  |  avg time  |  max time  |%varavg| %total
---------------------------------------------------------------
Pair    | 520.83     | 524.91     | 528.99     |  17.8 | 49.21
Neigh   | 419.46     | 429.84     | 440.23     |  50.1 | 40.30
Comm    | 80.36      | 87.005     | 93.649     |  71.2 |  8.16
Output  | 0.051918   | 0.051933   | 0.051948   |   0.0 |  0.00
Modify  | 19.846     | 20.081     | 20.315     |   5.2 |  1.88
Other   |            | 4.715      |            |       |  0.44

Nlocal:    9826 ave 9841 max 9811 min
Histogram: 1 0 0 0 0 0 0 0 0 1
Nghost:    9244.5 ave 9254 max 9235 min
Histogram: 1 0 0 0 0 0 0 0 0 1
Neighs:    325980 ave 327660 max 324299 min
Histogram: 1 0 0 0 0 0 0 0 0 1

Total # of neighbors = 651959
Ave neighs/atom = 33.1752
Neighbor list builds = 19505
Dangerous builds not checked
Total wall time: 14:19:38
