LAMMPS (12 Dec 2018)
Lattice spacing in x,y,z = 4 4 4
Created orthogonal box = (0 0 0) to (68 68 68)
  1 by 1 by 2 MPI processor grid
Created 19652 atoms
  Time spent = 0.0016942 secs
Setting atom values ...
  19281 settings made for type/fraction
Neighbor list info ...
  update every 1 steps, delay 0 steps, check no
  max neighbors/atom: 2000, page size: 100000
  master list distance cutoff = 8.5
  ghost atom cutoff = 8.5
  binsize = 4.25, bins = 16 16 16
  1 neighbor lists, perpetual/occasional/extra = 1 0 0
  (1) pair eam/alloy, perpetual
      attributes: half, newton on
      pair build: half/bin/atomonly/newton
      stencil: half/bin/3d/newton
      bin: standard
Setting up Verlet run ...
  Unit style    : metal
  Current step  : 0
  Time step     : 0.001
Per MPI rank memory allocation (min/avg/max) = 11.15 | 11.15 | 11.15 Mbytes
Step Temp Press TotEng PotEng Enthalpy 
       0          300    20088.665   -66737.626   -67499.653   -62795.164 
    1000     160.7015    26326.093   -66737.453    -67145.65   -61570.877 
Loop time of 90.9166 on 2 procs for 1000 steps with 19652 atoms

Performance: 0.950 ns/day, 25.255 hours/ns, 10.999 timesteps/s
98.7% CPU use with 2 MPI tasks x no OpenMP threads

MPI task timing breakdown:
Section |  min time  |  avg time  |  max time  |%varavg| %total
---------------------------------------------------------------
Pair    | 52.223     | 52.477     | 52.73      |   3.5 | 57.72
Neigh   | 35.25      | 35.419     | 35.587     |   2.8 | 38.96
Comm    | 2.5094     | 2.5959     | 2.6823     |   5.4 |  2.86
Output  | 0.00011516 | 0.00012958 | 0.000144   |   0.0 |  0.00
Modify  | 0.21032    | 0.21319    | 0.21606    |   0.6 |  0.23
Other   |            | 0.2122     |            |       |  0.23

Nlocal:    9826 ave 9836 max 9816 min
Histogram: 1 0 0 0 0 0 0 0 0 1
Nghost:    14211 ave 14221 max 14201 min
Histogram: 1 0 0 0 0 0 0 0 0 1
Neighs:    786203 ave 787560 max 784846 min
Histogram: 1 0 0 0 0 0 0 0 0 1

Total # of neighbors = 1572406
Ave neighs/atom = 80.0125
Neighbor list builds = 1000
Dangerous builds not checked
Setting up Verlet run ...
  Unit style    : metal
  Current step  : 1000
  Time step     : 0.001
Per MPI rank memory allocation (min/avg/max) = 11.15 | 11.15 | 11.15 Mbytes
Step Temp Press TotEng PotEng Enthalpy 
    1000     160.7015    26326.093   -66737.453    -67145.65   -61570.877 
    2000    299.79455   -112.80882   -66015.161   -66776.666   -66038.308 
Loop time of 87.985 on 2 procs for 1000 steps with 19652 atoms

Performance: 0.982 ns/day, 24.440 hours/ns, 11.366 timesteps/s
99.4% CPU use with 2 MPI tasks x no OpenMP threads

MPI task timing breakdown:
Section |  min time  |  avg time  |  max time  |%varavg| %total
---------------------------------------------------------------
Pair    | 49.171     | 49.901     | 50.631     |  10.3 | 56.72
Neigh   | 33.175     | 34.167     | 35.159     |  17.0 | 38.83
Comm    | 2.6311     | 2.8916     | 3.152      |  15.3 |  3.29
Output  | 8.6069e-05 | 0.00010908 | 0.00013208 |   0.0 |  0.00
Modify  | 0.79127    | 0.80115    | 0.81104    |   1.1 |  0.91
Other   |            | 0.2243     |            |       |  0.25

Nlocal:    9826 ave 9833 max 9819 min
Histogram: 1 0 0 0 0 0 0 0 0 1
Nghost:    14210.5 ave 14217 max 14204 min
Histogram: 1 0 0 0 0 0 0 0 0 1
Neighs:    726060 ave 726830 max 725290 min
Histogram: 1 0 0 0 0 0 0 0 0 1

Total # of neighbors = 1452120
Ave neighs/atom = 73.8917
Neighbor list builds = 1000
Dangerous builds not checked
Setting up Verlet run ...
  Unit style    : metal
  Current step  : 2000
  Time step     : 0.001
Per MPI rank memory allocation (min/avg/max) = 11.15 | 11.15 | 11.15 Mbytes
Step Temp Press TotEng PotEng Enthalpy 
    2000    299.79455   -112.80882   -66015.161   -66776.666   -66038.308 
   10000    2432.1808    776.53752   -51730.808   -57908.769   -51513.956 
Loop time of 696.967 on 2 procs for 8000 steps with 19652 atoms

Performance: 0.992 ns/day, 24.200 hours/ns, 11.478 timesteps/s
97.3% CPU use with 2 MPI tasks x no OpenMP threads

MPI task timing breakdown:
Section |  min time  |  avg time  |  max time  |%varavg| %total
---------------------------------------------------------------
Pair    | 372.3      | 375.92     | 379.54     |  18.7 | 53.94
Neigh   | 275.49     | 276.6      | 277.72     |   6.7 | 39.69
Comm    | 30.667     | 35.555     | 40.443     |  82.0 |  5.10
Output  | 0.049461   | 0.049472   | 0.049483   |   0.0 |  0.01
Modify  | 6.9266     | 7.0272     | 7.1279     |   3.8 |  1.01
Other   |            | 1.812      |            |       |  0.26

Nlocal:    9826 ave 9827 max 9825 min
Histogram: 1 0 0 0 0 0 0 0 0 1
Nghost:    11324 ave 11340 max 11308 min
Histogram: 1 0 0 0 0 0 0 0 0 1
Neighs:    551396 ave 557784 max 545007 min
Histogram: 1 0 0 0 0 0 0 0 0 1

Total # of neighbors = 1102791
Ave neighs/atom = 56.116
Neighbor list builds = 8000
Dangerous builds not checked
Setting up Verlet run ...
  Unit style    : metal
  Current step  : 10000
  Time step     : 0.001
Per MPI rank memory allocation (min/avg/max) = 11.19 | 11.19 | 11.19 Mbytes
Step Temp Press TotEng PotEng Enthalpy 
   10000    2432.1808    776.53752   -51730.808   -57908.769   -51513.956 
   20000    2430.5785    378.85323   -51767.807   -57941.698    -51661.96 
   30000    2440.0663    147.46901   -51690.695   -57888.686   -51649.415 
   40000    2472.0049    1116.9842   -51674.341   -57953.459   -51362.758 
Loop time of 2439.84 on 2 procs for 30000 steps with 19652 atoms

Performance: 1.062 ns/day, 22.591 hours/ns, 12.296 timesteps/s
98.5% CPU use with 2 MPI tasks x no OpenMP threads

MPI task timing breakdown:
Section |  min time  |  avg time  |  max time  |%varavg| %total
---------------------------------------------------------------
Pair    | 1285.3     | 1306.6     | 1327.9     |  58.9 | 53.55
Neigh   | 988.18     | 996.26     | 1004.3     |  25.6 | 40.83
Comm    | 75.225     | 104.81     | 134.39     | 289.0 |  4.30
Output  | 0.19684    | 0.1969     | 0.19696    |   0.0 |  0.01
Modify  | 25.33      | 25.369     | 25.408     |   0.8 |  1.04
Other   |            | 6.579      |            |       |  0.27

Nlocal:    9826 ave 9830 max 9822 min
Histogram: 1 0 0 0 0 0 0 0 0 1
Nghost:    11372.5 ave 11420 max 11325 min
Histogram: 1 0 0 0 0 0 0 0 0 1
Neighs:    551957 ave 557176 max 546738 min
Histogram: 1 0 0 0 0 0 0 0 0 1

Total # of neighbors = 1103914
Ave neighs/atom = 56.1731
Neighbor list builds = 30000
Dangerous builds not checked
Setting up Verlet run ...
  Unit style    : metal
  Current step  : 40000
  Time step     : 0.001
Per MPI rank memory allocation (min/avg/max) = 11.28 | 11.28 | 11.28 Mbytes
Step Temp Press TotEng PotEng Enthalpy 
   40000    2472.0049    1116.9842   -51674.341   -57953.459   -51362.758 
   40495      2406.34    76.318824   -51930.493   -58042.816   -51909.249 
Loop time of 41.0914 on 2 procs for 495 steps with 19652 atoms

Performance: 1.041 ns/day, 23.059 hours/ns, 12.046 timesteps/s
93.8% CPU use with 2 MPI tasks x no OpenMP threads

MPI task timing breakdown:
Section |  min time  |  avg time  |  max time  |%varavg| %total
---------------------------------------------------------------
Pair    | 22.542     | 22.83      | 23.118     |   6.0 | 55.56
Neigh   | 15.936     | 16.147     | 16.359     |   5.3 | 39.30
Comm    | 1.0854     | 1.5949     | 2.1043     |  40.3 |  3.88
Output  | 8.8215e-05 | 0.0001092  | 0.00013018 |   0.0 |  0.00
Modify  | 0.40681    | 0.40706    | 0.40732    |   0.0 |  0.99
Other   |            | 0.1114     |            |       |  0.27

Nlocal:    9826 ave 9827 max 9825 min
Histogram: 1 0 0 0 0 0 0 0 0 1
Nghost:    11453.5 ave 11502 max 11405 min
Histogram: 1 0 0 0 0 0 0 0 0 1
Neighs:    553577 ave 559222 max 547932 min
Histogram: 1 0 0 0 0 0 0 0 0 1

Total # of neighbors = 1107154
Ave neighs/atom = 56.338
Neighbor list builds = 495
Dangerous builds not checked
Setting up Verlet run ...
  Unit style    : metal
  Current step  : 40495
  Time step     : 0.001
Per MPI rank memory allocation (min/avg/max) = 11.28 | 11.28 | 11.28 Mbytes
Step Temp Press TotEng PotEng Enthalpy 
   40495      2406.34    76.318824   -51930.493   -58042.816   -51909.249 
   50000    2386.9262    668.94005   -52094.206   -58157.217   -51909.086 
Loop time of 910.384 on 2 procs for 9505 steps with 19652 atoms

Performance: 0.902 ns/day, 26.605 hours/ns, 10.441 timesteps/s
91.4% CPU use with 2 MPI tasks x no OpenMP threads

MPI task timing breakdown:
Section |  min time  |  avg time  |  max time  |%varavg| %total
---------------------------------------------------------------
Pair    | 474.28     | 483.5      | 492.71     |  41.9 | 53.11
Neigh   | 322.57     | 322.9      | 323.23     |   1.8 | 35.47
Comm    | 83.131     | 91.992     | 100.85     |  92.4 | 10.10
Output  | 0.27758    | 0.27759    | 0.2776     |   0.0 |  0.03
Modify  | 9.5673     | 9.6049     | 9.6426     |   1.2 |  1.06
Other   |            | 2.11       |            |       |  0.23

Nlocal:    9826 ave 9826 max 9826 min
Histogram: 2 0 0 0 0 0 0 0 0 0
Nghost:    11391.5 ave 11396 max 11387 min
Histogram: 1 0 0 0 0 0 0 0 0 1
Neighs:    556602 ave 562797 max 550406 min
Histogram: 1 0 0 0 0 0 0 0 0 1

Total # of neighbors = 1113203
Ave neighs/atom = 56.6458
Neighbor list builds = 9505
Dangerous builds not checked
Setting up Verlet run ...
  Unit style    : metal
  Current step  : 50000
  Time step     : 0.001
Per MPI rank memory allocation (min/avg/max) = 11.3 | 11.3 | 11.3 Mbytes
Step Temp Press TotEng PotEng Enthalpy 
   50000    2386.9262    668.94005   -52094.206   -58157.217   -51909.086 
   50495    2352.1167   -1763.6787   -52139.402   -58113.993   -52630.434 
Loop time of 43.209 on 2 procs for 495 steps with 19652 atoms

Performance: 0.990 ns/day, 24.247 hours/ns, 11.456 timesteps/s
92.8% CPU use with 2 MPI tasks x no OpenMP threads

MPI task timing breakdown:
Section |  min time  |  avg time  |  max time  |%varavg| %total
---------------------------------------------------------------
Pair    | 22.889     | 23.111     | 23.332     |   4.6 | 53.49
Neigh   | 15.805     | 16.039     | 16.273     |   5.8 | 37.12
Comm    | 3.1025     | 3.5651     | 4.0276     |  24.5 |  8.25
Output  | 7.2002e-05 | 0.00010598 | 0.00013995 |   0.0 |  0.00
Modify  | 0.39077    | 0.39116    | 0.39154    |   0.1 |  0.91
Other   |            | 0.103      |            |       |  0.24

Nlocal:    9826 ave 9838 max 9814 min
Histogram: 1 0 0 0 0 0 0 0 0 1
Nghost:    11422.5 ave 11452 max 11393 min
Histogram: 1 0 0 0 0 0 0 0 0 1
Neighs:    553154 ave 560638 max 545671 min
Histogram: 1 0 0 0 0 0 0 0 0 1

Total # of neighbors = 1106309
Ave neighs/atom = 56.295
Neighbor list builds = 495
Dangerous builds not checked
Setting up Verlet run ...
  Unit style    : metal
  Current step  : 50495
  Time step     : 0.001
Per MPI rank memory allocation (min/avg/max) = 11.3 | 11.3 | 11.3 Mbytes
Step Temp Press TotEng PotEng Enthalpy 
   50495    2352.1167   -1763.6787   -52139.402   -58113.993   -52630.434 
   60000    2364.6685    301.47029   -52220.499   -58226.972   -52137.224 
Loop time of 770.192 on 2 procs for 9505 steps with 19652 atoms

Performance: 1.066 ns/day, 22.508 hours/ns, 12.341 timesteps/s
98.3% CPU use with 2 MPI tasks x no OpenMP threads

MPI task timing breakdown:
Section |  min time  |  avg time  |  max time  |%varavg| %total
---------------------------------------------------------------
Pair    | 408.14     | 409.25     | 410.36     |   5.5 | 53.14
Neigh   | 310.54     | 316.14     | 321.74     |  31.5 | 41.05
Comm    | 28.401     | 35.285     | 42.17      | 115.9 |  4.58
Output  | 0.053111   | 0.053129   | 0.053146   |   0.0 |  0.01
Modify  | 7.4095     | 7.5099     | 7.6103     |   3.7 |  0.98
Other   |            | 1.951      |            |       |  0.25

Nlocal:    9826 ave 9831 max 9821 min
Histogram: 1 0 0 0 0 0 0 0 0 1
Nghost:    11450 ave 11455 max 11445 min
Histogram: 1 0 0 0 0 0 0 0 0 1
Neighs:    557748 ave 563250 max 552246 min
Histogram: 1 0 0 0 0 0 0 0 0 1

Total # of neighbors = 1115496
Ave neighs/atom = 56.7625
Neighbor list builds = 9505
Dangerous builds not checked
Setting up Verlet run ...
  Unit style    : metal
  Current step  : 60000
  Time step     : 0.001
Per MPI rank memory allocation (min/avg/max) = 11.31 | 11.31 | 11.31 Mbytes
Step Temp Press TotEng PotEng Enthalpy 
   60000    2364.6685    301.47029   -52220.499   -58226.972   -52137.224 
   60495    2312.4901    132.17101    -52433.37   -58307.306   -52396.966 
Loop time of 41.7193 on 2 procs for 495 steps with 19652 atoms

Performance: 1.025 ns/day, 23.411 hours/ns, 11.865 timesteps/s
99.2% CPU use with 2 MPI tasks x no OpenMP threads

MPI task timing breakdown:
Section |  min time  |  avg time  |  max time  |%varavg| %total
---------------------------------------------------------------
Pair    | 21.577     | 22.183     | 22.789     |  12.9 | 53.17
Neigh   | 16.058     | 16.786     | 17.514     |  17.8 | 40.24
Comm    | 0.87575    | 2.2156     | 3.5554     |  90.0 |  5.31
Output  | 7.4863e-05 | 8.9407e-05 | 0.00010395 |   0.0 |  0.00
Modify  | 0.42339    | 0.42638    | 0.42937    |   0.5 |  1.02
Other   |            | 0.108      |            |       |  0.26

Nlocal:    9826 ave 9832 max 9820 min
Histogram: 1 0 0 0 0 0 0 0 0 1
Nghost:    11454.5 ave 11504 max 11405 min
Histogram: 1 0 0 0 0 0 0 0 0 1
Neighs:    559430 ave 565249 max 553611 min
Histogram: 1 0 0 0 0 0 0 0 0 1

Total # of neighbors = 1118860
Ave neighs/atom = 56.9336
Neighbor list builds = 495
Dangerous builds not checked
Setting up Verlet run ...
  Unit style    : metal
  Current step  : 60495
  Time step     : 0.001
Per MPI rank memory allocation (min/avg/max) = 11.31 | 11.31 | 11.31 Mbytes
Step Temp Press TotEng PotEng Enthalpy 
   60495    2312.4901    132.17101    -52433.37   -58307.306   -52396.966 
   70000    2284.1396    80.094018   -52624.421   -58426.344    -52602.46 
Loop time of 797.245 on 2 procs for 9505 steps with 19652 atoms

Performance: 1.030 ns/day, 23.299 hours/ns, 11.922 timesteps/s
98.6% CPU use with 2 MPI tasks x no OpenMP threads

MPI task timing breakdown:
Section |  min time  |  avg time  |  max time  |%varavg| %total
---------------------------------------------------------------
Pair    | 423.34     | 424.17     | 424.99     |   4.0 | 53.20
Neigh   | 323.91     | 325.1      | 326.3      |   6.6 | 40.78
Comm    | 35.088     | 37.167     | 39.246     |  34.1 |  4.66
Output  | 0.052886   | 0.052904   | 0.052923   |   0.0 |  0.01
Modify  | 8.6015     | 8.6335     | 8.6654     |   1.1 |  1.08
Other   |            | 2.123      |            |       |  0.27

Nlocal:    9826 ave 9827 max 9825 min
Histogram: 1 0 0 0 0 0 0 0 0 1
Nghost:    11499.5 ave 11529 max 11470 min
Histogram: 1 0 0 0 0 0 0 0 0 1
Neighs:    561638 ave 567318 max 555958 min
Histogram: 1 0 0 0 0 0 0 0 0 1

Total # of neighbors = 1123276
Ave neighs/atom = 57.1584
Neighbor list builds = 9505
Dangerous builds not checked
Setting up Verlet run ...
  Unit style    : metal
  Current step  : 70000
  Time step     : 0.001
Per MPI rank memory allocation (min/avg/max) = 11.32 | 11.32 | 11.32 Mbytes
Step Temp Press TotEng PotEng Enthalpy 
   70000    2284.1396    80.094018   -52624.421   -58426.344    -52602.46 
   70495    2254.0609   -539.32294   -52734.793   -58460.313    -52882.63 
Loop time of 37.372 on 2 procs for 495 steps with 19652 atoms

Performance: 1.144 ns/day, 20.972 hours/ns, 13.245 timesteps/s
99.4% CPU use with 2 MPI tasks x no OpenMP threads

MPI task timing breakdown:
Section |  min time  |  avg time  |  max time  |%varavg| %total
---------------------------------------------------------------
Pair    | 19.466     | 19.879     | 20.293     |   9.3 | 53.19
Neigh   | 14.861     | 15.338     | 15.816     |  12.2 | 41.04
Comm    | 1.5984     | 1.6737     | 1.749      |   5.8 |  4.48
Output  | 7.6771e-05 | 9.9421e-05 | 0.00012207 |   0.0 |  0.00
Modify  | 0.36723    | 0.37915    | 0.39108    |   1.9 |  1.01
Other   |            | 0.1012     |            |       |  0.27

Nlocal:    9826 ave 9832 max 9820 min
Histogram: 1 0 0 0 0 0 0 0 0 1
Nghost:    11479.5 ave 11502 max 11457 min
Histogram: 1 0 0 0 0 0 0 0 0 1
Neighs:    561880 ave 567232 max 556529 min
Histogram: 1 0 0 0 0 0 0 0 0 1

Total # of neighbors = 1123761
Ave neighs/atom = 57.183
Neighbor list builds = 495
Dangerous builds not checked
Setting up Verlet run ...
  Unit style    : metal
  Current step  : 70495
  Time step     : 0.001
Per MPI rank memory allocation (min/avg/max) = 11.32 | 11.32 | 11.32 Mbytes
Step Temp Press TotEng PotEng Enthalpy 
   70495    2254.0609   -539.32294   -52734.793   -58460.313    -52882.63 
   80000    2249.5857      331.921   -52870.904   -58585.057    -52780.46 
Loop time of 755.509 on 2 procs for 9505 steps with 19652 atoms

Performance: 1.087 ns/day, 22.079 hours/ns, 12.581 timesteps/s
99.1% CPU use with 2 MPI tasks x no OpenMP threads

MPI task timing breakdown:
Section |  min time  |  avg time  |  max time  |%varavg| %total
---------------------------------------------------------------
Pair    | 396.73     | 397.48     | 398.24     |   3.8 | 52.61
Neigh   | 321.25     | 321.63     | 322        |   2.1 | 42.57
Comm    | 26.216     | 26.598     | 26.98      |   7.4 |  3.52
Output  | 0.059342   | 0.059359   | 0.059376   |   0.0 |  0.01
Modify  | 7.6792     | 7.7099     | 7.7406     |   1.1 |  1.02
Other   |            | 2.033      |            |       |  0.27

Nlocal:    9826 ave 9829 max 9823 min
Histogram: 1 0 0 0 0 0 0 0 0 1
Nghost:    11462.5 ave 11476 max 11449 min
Histogram: 1 0 0 0 0 0 0 0 0 1
Neighs:    565623 ave 570937 max 560309 min
Histogram: 1 0 0 0 0 0 0 0 0 1

Total # of neighbors = 1131246
Ave neighs/atom = 57.5639
Neighbor list builds = 9505
Dangerous builds not checked
Setting up Verlet run ...
  Unit style    : metal
  Current step  : 80000
  Time step     : 0.001
Per MPI rank memory allocation (min/avg/max) = 11.32 | 11.32 | 11.32 Mbytes
Step Temp Press TotEng PotEng Enthalpy 
   80000    2249.5857      331.921   -52870.904   -58585.057    -52780.46 
   80495    2224.2543    165.55766    -52946.37   -58596.179    -52901.24 
Loop time of 37.0586 on 2 procs for 495 steps with 19652 atoms

Performance: 1.154 ns/day, 20.796 hours/ns, 13.357 timesteps/s
99.3% CPU use with 2 MPI tasks x no OpenMP threads

MPI task timing breakdown:
Section |  min time  |  avg time  |  max time  |%varavg| %total
---------------------------------------------------------------
Pair    | 19.14      | 19.387     | 19.633     |   5.6 | 52.31
Neigh   | 15.744     | 16.019     | 16.294     |   6.9 | 43.23
Comm    | 1.1248     | 1.1554     | 1.186      |   2.8 |  3.12
Output  | 6.7949e-05 | 0.00010455 | 0.00014114 |   0.0 |  0.00
Modify  | 0.39017    | 0.39194    | 0.39371    |   0.3 |  1.06
Other   |            | 0.105      |            |       |  0.28

Nlocal:    9826 ave 9838 max 9814 min
Histogram: 1 0 0 0 0 0 0 0 0 1
Nghost:    11508 ave 11521 max 11495 min
Histogram: 1 0 0 0 0 0 0 0 0 1
Neighs:    565275 ave 568889 max 561661 min
Histogram: 1 0 0 0 0 0 0 0 0 1

Total # of neighbors = 1130550
Ave neighs/atom = 57.5285
Neighbor list builds = 495
Dangerous builds not checked
Setting up Verlet run ...
  Unit style    : metal
  Current step  : 80495
  Time step     : 0.001
Per MPI rank memory allocation (min/avg/max) = 11.32 | 11.32 | 11.32 Mbytes
Step Temp Press TotEng PotEng Enthalpy 
   80495    2224.2543    165.55766    -52946.37   -58596.179    -52901.24 
   90000    2189.9273    755.98394    -53173.17   -58735.784    -52968.52 
Loop time of 780.242 on 2 procs for 9505 steps with 19652 atoms

Performance: 1.053 ns/day, 22.802 hours/ns, 12.182 timesteps/s
98.6% CPU use with 2 MPI tasks x no OpenMP threads

MPI task timing breakdown:
Section |  min time  |  avg time  |  max time  |%varavg| %total
---------------------------------------------------------------
Pair    | 414.32     | 415.34     | 416.36     |   5.0 | 53.23
Neigh   | 321.41     | 324.14     | 326.88     |  15.2 | 41.54
Comm    | 29.074     | 30.854     | 32.634     |  32.0 |  3.95
Output  | 0.072918   | 0.07294    | 0.072963   |   0.0 |  0.01
Modify  | 7.6598     | 7.7409     | 7.822      |   2.9 |  0.99
Other   |            | 2.091      |            |       |  0.27

Nlocal:    9826 ave 9838 max 9814 min
Histogram: 1 0 0 0 0 0 0 0 0 1
Nghost:    11449 ave 11461 max 11437 min
Histogram: 1 0 0 0 0 0 0 0 0 1
Neighs:    569140 ave 576567 max 561713 min
Histogram: 1 0 0 0 0 0 0 0 0 1

Total # of neighbors = 1138280
Ave neighs/atom = 57.9218
Neighbor list builds = 9505
Dangerous builds not checked
Setting up Verlet run ...
  Unit style    : metal
  Current step  : 90000
  Time step     : 0.001
Per MPI rank memory allocation (min/avg/max) = 11.33 | 11.33 | 11.33 Mbytes
Step Temp Press TotEng PotEng Enthalpy 
   90000    2189.9273    755.98394    -53173.17   -58735.784    -52968.52 
   90495    2150.5801     204.9107   -53259.285   -58721.955   -53203.731 
Loop time of 39.7676 on 2 procs for 495 steps with 19652 atoms

Performance: 1.075 ns/day, 22.316 hours/ns, 12.447 timesteps/s
99.4% CPU use with 2 MPI tasks x no OpenMP threads

MPI task timing breakdown:
Section |  min time  |  avg time  |  max time  |%varavg| %total
---------------------------------------------------------------
Pair    | 21.226     | 21.374     | 21.522     |   3.2 | 53.75
Neigh   | 15.036     | 15.941     | 16.845     |  22.7 | 40.08
Comm    | 0.87531    | 1.9437     | 3.0122     |  76.6 |  4.89
Output  | 8.2016e-05 | 0.0001061  | 0.00013018 |   0.0 |  0.00
Modify  | 0.38588    | 0.40117    | 0.41647    |   2.4 |  1.01
Other   |            | 0.108      |            |       |  0.27

Nlocal:    9826 ave 9846 max 9806 min
Histogram: 1 0 0 0 0 0 0 0 0 1
Nghost:    11459 ave 11463 max 11455 min
Histogram: 1 0 0 0 0 0 0 0 0 1
Neighs:    568473 ave 576128 max 560818 min
Histogram: 1 0 0 0 0 0 0 0 0 1

Total # of neighbors = 1136946
Ave neighs/atom = 57.854
Neighbor list builds = 495
Dangerous builds not checked
Setting up Verlet run ...
  Unit style    : metal
  Current step  : 90495
  Time step     : 0.001
Per MPI rank memory allocation (min/avg/max) = 11.33 | 11.33 | 11.33 Mbytes
Step Temp Press TotEng PotEng Enthalpy 
   90495    2150.5801     204.9107   -53259.285   -58721.955   -53203.731 
  100000    2155.2879    1129.8669   -53425.108   -58899.736   -53121.121 
Loop time of 802.265 on 2 procs for 9505 steps with 19652 atoms

Performance: 1.024 ns/day, 23.446 hours/ns, 11.848 timesteps/s
97.2% CPU use with 2 MPI tasks x no OpenMP threads

MPI task timing breakdown:
Section |  min time  |  avg time  |  max time  |%varavg| %total
---------------------------------------------------------------
Pair    | 416.13     | 417.26     | 418.38     |   5.5 | 52.01
Neigh   | 318.35     | 318.68     | 319.01     |   1.9 | 39.72
Comm    | 49.12      | 50.579     | 52.037     |  20.5 |  6.30
Output  | 0.062242   | 0.062263   | 0.062283   |   0.0 |  0.01
Modify  | 13.551     | 13.561     | 13.57      |   0.3 |  1.69
Other   |            | 2.122      |            |       |  0.26

Nlocal:    9826 ave 9834 max 9818 min
Histogram: 1 0 0 0 0 0 0 0 0 1
Nghost:    11569 ave 11581 max 11557 min
Histogram: 1 0 0 0 0 0 0 0 0 1
Neighs:    573022 ave 578694 max 567350 min
Histogram: 1 0 0 0 0 0 0 0 0 1

Total # of neighbors = 1146044
Ave neighs/atom = 58.3169
Neighbor list builds = 9505
Dangerous builds not checked
Setting up Verlet run ...
  Unit style    : metal
  Current step  : 100000
  Time step     : 0.001
Per MPI rank memory allocation (min/avg/max) = 11.33 | 11.33 | 11.33 Mbytes
Step Temp Press TotEng PotEng Enthalpy 
  100000    2155.2879    1129.8669   -53425.108   -58899.736   -53121.121 
  100495    2132.2095    28.338906   -53511.357   -58927.364   -53503.732 
Loop time of 37.224 on 2 procs for 495 steps with 19652 atoms

Performance: 1.149 ns/day, 20.889 hours/ns, 13.298 timesteps/s
99.9% CPU use with 2 MPI tasks x no OpenMP threads

MPI task timing breakdown:
Section |  min time  |  avg time  |  max time  |%varavg| %total
---------------------------------------------------------------
Pair    | 19.61      | 19.869     | 20.128     |   5.8 | 53.38
Neigh   | 14.974     | 15.214     | 15.455     |   6.2 | 40.87
Comm    | 1.1582     | 1.6655     | 2.1729     |  39.3 |  4.47
Output  | 8.1062e-05 | 0.00011456 | 0.00014806 |   0.0 |  0.00
Modify  | 0.36589    | 0.36987    | 0.37386    |   0.7 |  0.99
Other   |            | 0.1048     |            |       |  0.28

Nlocal:    9826 ave 9835 max 9817 min
Histogram: 1 0 0 0 0 0 0 0 0 1
Nghost:    11559.5 ave 11593 max 11526 min
Histogram: 1 0 0 0 0 0 0 0 0 1
Neighs:    572863 ave 576419 max 569307 min
Histogram: 1 0 0 0 0 0 0 0 0 1

Total # of neighbors = 1145726
Ave neighs/atom = 58.3007
Neighbor list builds = 495
Dangerous builds not checked
Setting up Verlet run ...
  Unit style    : metal
  Current step  : 100495
  Time step     : 0.001
Per MPI rank memory allocation (min/avg/max) = 11.33 | 11.33 | 11.33 Mbytes
Step Temp Press TotEng PotEng Enthalpy 
  100495    2132.2095    28.338906   -53511.357   -58927.364   -53503.732 
  110000    2117.7151    460.51526   -53522.877   -58902.066    -53398.87 
Loop time of 762.34 on 2 procs for 9505 steps with 19652 atoms

Performance: 1.077 ns/day, 22.279 hours/ns, 12.468 timesteps/s
99.3% CPU use with 2 MPI tasks x no OpenMP threads

MPI task timing breakdown:
Section |  min time  |  avg time  |  max time  |%varavg| %total
---------------------------------------------------------------
Pair    | 401.69     | 406.77     | 411.84     |  25.2 | 53.36
Neigh   | 315.28     | 315.56     | 315.84     |   1.6 | 41.39
Comm    | 24.871     | 30.287     | 35.703     |  98.4 |  3.97
Output  | 0.16204    | 0.16205    | 0.16207    |   0.0 |  0.02
Modify  | 7.4932     | 7.496      | 7.4989     |   0.1 |  0.98
Other   |            | 2.071      |            |       |  0.27

Nlocal:    9826 ave 9829 max 9823 min
Histogram: 1 0 0 0 0 0 0 0 0 1
Nghost:    11523 ave 11536 max 11510 min
Histogram: 1 0 0 0 0 0 0 0 0 1
Neighs:    572220 ave 577866 max 566574 min
Histogram: 1 0 0 0 0 0 0 0 0 1

Total # of neighbors = 1144440
Ave neighs/atom = 58.2353
Neighbor list builds = 9505
Dangerous builds not checked
Setting up Verlet run ...
  Unit style    : metal
  Current step  : 110000
  Time step     : 0.001
Per MPI rank memory allocation (min/avg/max) = 11.34 | 11.34 | 11.34 Mbytes
Step Temp Press TotEng PotEng Enthalpy 
  110000    2117.7151    460.51526   -53522.877   -58902.066    -53398.87 
  110495    2062.5474    1080.7621   -53827.792    -59066.85   -53539.071 
Loop time of 37.1019 on 2 procs for 495 steps with 19652 atoms

Performance: 1.153 ns/day, 20.820 hours/ns, 13.342 timesteps/s
99.2% CPU use with 2 MPI tasks x no OpenMP threads

MPI task timing breakdown:
Section |  min time  |  avg time  |  max time  |%varavg| %total
---------------------------------------------------------------
Pair    | 19.738     | 19.752     | 19.766     |   0.3 | 53.24
Neigh   | 15.445     | 15.469     | 15.493     |   0.6 | 41.69
Comm    | 1.3592     | 1.3975     | 1.4357     |   3.2 |  3.77
Output  | 7.7963e-05 | 0.00010848 | 0.000139   |   0.0 |  0.00
Modify  | 0.37995    | 0.38041    | 0.38087    |   0.1 |  1.03
Other   |            | 0.1023     |            |       |  0.28

Nlocal:    9826 ave 9828 max 9824 min
Histogram: 1 0 0 0 0 0 0 0 0 1
Nghost:    11599 ave 11629 max 11569 min
Histogram: 1 0 0 0 0 0 0 0 0 1
Neighs:    577021 ave 583290 max 570752 min
Histogram: 1 0 0 0 0 0 0 0 0 1

Total # of neighbors = 1154042
Ave neighs/atom = 58.7239
Neighbor list builds = 495
Dangerous builds not checked
Setting up Verlet run ...
  Unit style    : metal
  Current step  : 110495
  Time step     : 0.001
Per MPI rank memory allocation (min/avg/max) = 11.34 | 11.34 | 11.34 Mbytes
Step Temp Press TotEng PotEng Enthalpy 
  110495    2062.5474    1080.7621   -53827.792    -59066.85   -53539.071 
  120000    2058.3511   -14.132396   -53851.527   -59079.926   -53855.308 
Loop time of 789.555 on 2 procs for 9505 steps with 19652 atoms

Performance: 1.040 ns/day, 23.074 hours/ns, 12.038 timesteps/s
98.0% CPU use with 2 MPI tasks x no OpenMP threads

MPI task timing breakdown:
Section |  min time  |  avg time  |  max time  |%varavg| %total
---------------------------------------------------------------
Pair    | 419.39     | 420.15     | 420.9      |   3.7 | 53.21
Neigh   | 311.18     | 315.58     | 319.99     |  24.8 | 39.97
Comm    | 40.36      | 44.035     | 47.709     |  55.4 |  5.58
Output  | 0.070854   | 0.070876   | 0.070898   |   0.0 |  0.01
Modify  | 7.5701     | 7.5869     | 7.6037     |   0.6 |  0.96
Other   |            | 2.131      |            |       |  0.27

Nlocal:    9826 ave 9826 max 9826 min
Histogram: 2 0 0 0 0 0 0 0 0 0
Nghost:    11547.5 ave 11562 max 11533 min
Histogram: 1 0 0 0 0 0 0 0 0 1
Neighs:    576346 ave 582077 max 570614 min
Histogram: 1 0 0 0 0 0 0 0 0 1

Total # of neighbors = 1152691
Ave neighs/atom = 58.6551
Neighbor list builds = 9505
Dangerous builds not checked
Setting up Verlet run ...
  Unit style    : metal
  Current step  : 120000
  Time step     : 0.001
Per MPI rank memory allocation (min/avg/max) = 11.34 | 11.34 | 11.34 Mbytes
Step Temp Press TotEng PotEng Enthalpy 
  120000    2058.3511   -14.132396   -53851.527   -59079.926   -53855.308 
  120495    2009.6032    279.21051   -54106.044   -59210.619   -54031.737 
Loop time of 60.5808 on 2 procs for 495 steps with 19652 atoms

Performance: 0.706 ns/day, 33.996 hours/ns, 8.171 timesteps/s
82.2% CPU use with 2 MPI tasks x no OpenMP threads

MPI task timing breakdown:
Section |  min time  |  avg time  |  max time  |%varavg| %total
---------------------------------------------------------------
Pair    | 22.895     | 22.926     | 22.956     |   0.6 | 37.84
Neigh   | 15.903     | 16.133     | 16.363     |   5.7 | 26.63
Comm    | 20.517     | 20.773     | 21.03      |   5.6 | 34.29
Output  | 6.9857e-05 | 8.6904e-05 | 0.00010395 |   0.0 |  0.00
Modify  | 0.62553    | 0.63386    | 0.64219    |   1.0 |  1.05
Other   |            | 0.1145     |            |       |  0.19

Nlocal:    9826 ave 9843 max 9809 min
Histogram: 1 0 0 0 0 0 0 0 0 1
Nghost:    11572.5 ave 11578 max 11567 min
Histogram: 1 0 0 0 0 0 0 0 0 1
Neighs:    579188 ave 583473 max 574904 min
Histogram: 1 0 0 0 0 0 0 0 0 1

Total # of neighbors = 1158377
Ave neighs/atom = 58.9445
Neighbor list builds = 495
Dangerous builds not checked
Setting up Verlet run ...
  Unit style    : metal
  Current step  : 120495
  Time step     : 0.001
Per MPI rank memory allocation (min/avg/max) = 11.34 | 11.34 | 11.34 Mbytes
Step Temp Press TotEng PotEng Enthalpy 
  120495    2009.6032    279.21051   -54106.044   -59210.619   -54031.737 
  130000     1995.381   -720.75978   -54262.936   -59331.386   -54454.284 
Loop time of 874.652 on 2 procs for 9505 steps with 19652 atoms

Performance: 0.939 ns/day, 25.561 hours/ns, 10.867 timesteps/s
94.0% CPU use with 2 MPI tasks x no OpenMP threads

MPI task timing breakdown:
Section |  min time  |  avg time  |  max time  |%varavg| %total
---------------------------------------------------------------
Pair    | 452.39     | 453.68     | 454.97     |   6.0 | 51.87
Neigh   | 321.08     | 321.81     | 322.55     |   4.1 | 36.79
Comm    | 81.235     | 82.126     | 83.018     |   9.8 |  9.39
Output  | 2.2688     | 2.2688     | 2.2688     |   0.0 |  0.26
Modify  | 11.108     | 12.567     | 14.026     |  41.2 |  1.44
Other   |            | 2.197      |            |       |  0.25

Nlocal:    9826 ave 9837 max 9815 min
Histogram: 1 0 0 0 0 0 0 0 0 1
Nghost:    11624 ave 11660 max 11588 min
Histogram: 1 0 0 0 0 0 0 0 0 1
Neighs:    581023 ave 588139 max 573907 min
Histogram: 1 0 0 0 0 0 0 0 0 1

Total # of neighbors = 1162046
Ave neighs/atom = 59.1312
Neighbor list builds = 9505
Dangerous builds not checked
Setting up Verlet run ...
  Unit style    : metal
  Current step  : 130000
  Time step     : 0.001
Per MPI rank memory allocation (min/avg/max) = 11.34 | 11.34 | 11.34 Mbytes
Step Temp Press TotEng PotEng Enthalpy 
  130000     1995.381   -720.75978   -54262.936   -59331.386   -54454.284 
  130495     1952.797   0.88467081   -54441.731   -59402.013   -54441.497 
Loop time of 38.9283 on 2 procs for 495 steps with 19652 atoms

Performance: 1.099 ns/day, 21.845 hours/ns, 12.716 timesteps/s
99.3% CPU use with 2 MPI tasks x no OpenMP threads

MPI task timing breakdown:
Section |  min time  |  avg time  |  max time  |%varavg| %total
---------------------------------------------------------------
Pair    | 20.987     | 21.054     | 21.121     |   1.5 | 54.08
Neigh   | 15.633     | 15.638     | 15.643     |   0.1 | 40.17
Comm    | 1.6727     | 1.7417     | 1.8106     |   5.2 |  4.47
Output  | 8.7023e-05 | 0.00011551 | 0.000144   |   0.0 |  0.00
Modify  | 0.38297    | 0.3854     | 0.38784    |   0.4 |  0.99
Other   |            | 0.1094     |            |       |  0.28

Nlocal:    9826 ave 9827 max 9825 min
Histogram: 1 0 0 0 0 0 0 0 0 1
Nghost:    11635 ave 11638 max 11632 min
Histogram: 1 0 0 0 0 0 0 0 0 1
Neighs:    583198 ave 589148 max 577248 min
Histogram: 1 0 0 0 0 0 0 0 0 1

Total # of neighbors = 1166396
Ave neighs/atom = 59.3525
Neighbor list builds = 495
Dangerous builds not checked
Setting up Verlet run ...
  Unit style    : metal
  Current step  : 130495
  Time step     : 0.001
Per MPI rank memory allocation (min/avg/max) = 11.34 | 11.34 | 11.34 Mbytes
Step Temp Press TotEng PotEng Enthalpy 
  130495     1952.797   0.88467081   -54441.731   -59402.013   -54441.497 
  140000    1942.8282    1300.2293    -54523.31    -59458.27   -54181.015 
Loop time of 797.944 on 2 procs for 9505 steps with 19652 atoms

Performance: 1.029 ns/day, 23.319 hours/ns, 11.912 timesteps/s
96.4% CPU use with 2 MPI tasks x no OpenMP threads

MPI task timing breakdown:
Section |  min time  |  avg time  |  max time  |%varavg| %total
---------------------------------------------------------------
Pair    | 439.58     | 440.25     | 440.93     |   3.2 | 55.17
Neigh   | 308.12     | 310.34     | 312.55     |  12.6 | 38.89
Comm    | 36.096     | 37.705     | 39.314     |  26.2 |  4.73
Output  | 0.093839   | 0.093853   | 0.093866   |   0.0 |  0.01
Modify  | 7.3227     | 7.4013     | 7.4799     |   2.9 |  0.93
Other   |            | 2.152      |            |       |  0.27

Nlocal:    9826 ave 9854 max 9798 min
Histogram: 1 0 0 0 0 0 0 0 0 1
Nghost:    11633.5 ave 11645 max 11622 min
Histogram: 1 0 0 0 0 0 0 0 0 1
Neighs:    585778 ave 593417 max 578139 min
Histogram: 1 0 0 0 0 0 0 0 0 1

Total # of neighbors = 1171556
Ave neighs/atom = 59.6151
Neighbor list builds = 9505
Dangerous builds not checked
Setting up Verlet run ...
  Unit style    : metal
  Current step  : 140000
  Time step     : 0.001
Per MPI rank memory allocation (min/avg/max) = 11.34 | 11.34 | 11.35 Mbytes
Step Temp Press TotEng PotEng Enthalpy 
  140000    1942.8282    1300.2293    -54523.31    -59458.27   -54181.015 
  140495    1908.5878    435.47439    -54695.36   -59543.347   -54581.007 
Loop time of 41.3542 on 2 procs for 495 steps with 19652 atoms

Performance: 1.034 ns/day, 23.207 hours/ns, 11.970 timesteps/s
95.1% CPU use with 2 MPI tasks x no OpenMP threads

MPI task timing breakdown:
Section |  min time  |  avg time  |  max time  |%varavg| %total
---------------------------------------------------------------
Pair    | 21.924     | 21.937     | 21.95      |   0.3 | 53.05
Neigh   | 15.191     | 15.586     | 15.98      |  10.0 | 37.69
Comm    | 2.6946     | 3.2202     | 3.7457     |  29.3 |  7.79
Output  | 9.5129e-05 | 0.00011706 | 0.000139   |   0.0 |  0.00
Modify  | 0.38377    | 0.50099    | 0.61821    |  16.6 |  1.21
Other   |            | 0.1103     |            |       |  0.27

Nlocal:    9826 ave 9836 max 9816 min
Histogram: 1 0 0 0 0 0 0 0 0 1
Nghost:    11646 ave 11695 max 11597 min
Histogram: 1 0 0 0 0 0 0 0 0 1
Neighs:    587400 ave 593250 max 581549 min
Histogram: 1 0 0 0 0 0 0 0 0 1

Total # of neighbors = 1174799
Ave neighs/atom = 59.7801
Neighbor list builds = 495
Dangerous builds not checked
Setting up Verlet run ...
  Unit style    : metal
  Current step  : 140495
  Time step     : 0.001
Per MPI rank memory allocation (min/avg/max) = 11.34 | 11.34 | 11.35 Mbytes
Step Temp Press TotEng PotEng Enthalpy 
  140495    1908.5878    435.47439    -54695.36   -59543.347   -54581.007 
  150000    1897.1901   -602.81446   -54794.504    -59613.54   -54952.787 
Loop time of 811.818 on 2 procs for 9505 steps with 19652 atoms

Performance: 1.012 ns/day, 23.725 hours/ns, 11.708 timesteps/s
95.6% CPU use with 2 MPI tasks x no OpenMP threads

MPI task timing breakdown:
Section |  min time  |  avg time  |  max time  |%varavg| %total
---------------------------------------------------------------
Pair    | 424.96     | 428.03     | 431.1      |  14.8 | 52.72
Neigh   | 304.77     | 307.92     | 311.06     |  17.9 | 37.93
Comm    | 64.177     | 64.46      | 64.743     |   3.5 |  7.94
Output  | 0.068093   | 0.068099   | 0.068104   |   0.0 |  0.01
Modify  | 8.9408     | 9.2665     | 9.5921     |  10.7 |  1.14
Other   |            | 2.075      |            |       |  0.26

Nlocal:    9826 ave 9843 max 9809 min
Histogram: 1 0 0 0 0 0 0 0 0 1
Nghost:    11674 ave 11701 max 11647 min
Histogram: 1 0 0 0 0 0 0 0 0 1
Neighs:    587479 ave 595900 max 579058 min
Histogram: 1 0 0 0 0 0 0 0 0 1

Total # of neighbors = 1174958
Ave neighs/atom = 59.7882
Neighbor list builds = 9505
Dangerous builds not checked
Setting up Verlet run ...
  Unit style    : metal
  Current step  : 150000
  Time step     : 0.001
Per MPI rank memory allocation (min/avg/max) = 11.34 | 11.34 | 11.35 Mbytes
Step Temp Press TotEng PotEng Enthalpy 
  150000    1897.1901   -602.81446   -54794.504    -59613.54   -54952.787 
  150495    1856.5236    -199.5784   -54977.288   -59693.027   -55029.469 
Loop time of 37.5894 on 2 procs for 495 steps with 19652 atoms

Performance: 1.138 ns/day, 21.094 hours/ns, 13.169 timesteps/s
99.7% CPU use with 2 MPI tasks x no OpenMP threads

MPI task timing breakdown:
Section |  min time  |  avg time  |  max time  |%varavg| %total
---------------------------------------------------------------
Pair    | 19.649     | 20.117     | 20.585     |  10.4 | 53.52
Neigh   | 15.073     | 15.284     | 15.495     |   5.4 | 40.66
Comm    | 1.4573     | 1.708      | 1.9588     |  19.2 |  4.54
Output  | 7.7963e-05 | 0.00010252 | 0.00012708 |   0.0 |  0.00
Modify  | 0.37015    | 0.37775    | 0.38536    |   1.2 |  1.00
Other   |            | 0.1023     |            |       |  0.27

Nlocal:    9826 ave 9829 max 9823 min
Histogram: 1 0 0 0 0 0 0 0 0 1
Nghost:    11698 ave 11723 max 11673 min
Histogram: 1 0 0 0 0 0 0 0 0 1
Neighs:    590002 ave 595822 max 584182 min
Histogram: 1 0 0 0 0 0 0 0 0 1

Total # of neighbors = 1180004
Ave neighs/atom = 60.045
Neighbor list builds = 495
Dangerous builds not checked
Setting up Verlet run ...
  Unit style    : metal
  Current step  : 150495
  Time step     : 0.001
Per MPI rank memory allocation (min/avg/max) = 11.34 | 11.34 | 11.35 Mbytes
Step Temp Press TotEng PotEng Enthalpy 
  150495    1856.5236    -199.5784   -54977.288   -59693.027   -55029.469 
  160000    1873.5455   -195.37414   -54962.171   -59721.147   -55013.234 
Loop time of 759.41 on 2 procs for 9505 steps with 19652 atoms

Performance: 1.081 ns/day, 22.193 hours/ns, 12.516 timesteps/s
98.8% CPU use with 2 MPI tasks x no OpenMP threads

MPI task timing breakdown:
Section |  min time  |  avg time  |  max time  |%varavg| %total
---------------------------------------------------------------
Pair    | 408.49     | 409.24     | 410        |   3.7 | 53.89
Neigh   | 297.09     | 301.72     | 306.35     |  26.6 | 39.73
Comm    | 33.341     | 38.788     | 44.234     |  87.5 |  5.11
Output  | 0.27348    | 0.2735     | 0.27353    |   0.0 |  0.04
Modify  | 7.3501     | 7.4064     | 7.4627     |   2.1 |  0.98
Other   |            | 1.981      |            |       |  0.26

Nlocal:    9826 ave 9828 max 9824 min
Histogram: 1 0 0 0 0 0 0 0 0 1
Nghost:    11675.5 ave 11682 max 11669 min
Histogram: 1 0 0 0 0 0 0 0 0 1
Neighs:    590172 ave 595959 max 584386 min
Histogram: 1 0 0 0 0 0 0 0 0 1

Total # of neighbors = 1180345
Ave neighs/atom = 60.0623
Neighbor list builds = 9505
Dangerous builds not checked
Setting up Verlet run ...
  Unit style    : metal
  Current step  : 160000
  Time step     : 0.001
Per MPI rank memory allocation (min/avg/max) = 11.34 | 11.34 | 11.35 Mbytes
Step Temp Press TotEng PotEng Enthalpy 
  160000    1873.5455   -195.37414   -54962.171   -59721.147   -55013.234 
  160495    1820.4683   -333.41073   -55258.291   -59882.446   -55344.921 
Loop time of 36.9676 on 2 procs for 495 steps with 19652 atoms

Performance: 1.157 ns/day, 20.745 hours/ns, 13.390 timesteps/s
99.8% CPU use with 2 MPI tasks x no OpenMP threads

MPI task timing breakdown:
Section |  min time  |  avg time  |  max time  |%varavg| %total
---------------------------------------------------------------
Pair    | 19.86      | 19.977     | 20.094     |   2.6 | 54.04
Neigh   | 13.85      | 14.782     | 15.713     |  24.2 | 39.99
Comm    | 0.91638    | 1.7443     | 2.5722     |  62.7 |  4.72
Output  | 7.2002e-05 | 9.2506e-05 | 0.00011301 |   0.0 |  0.00
Modify  | 0.34981    | 0.36239    | 0.37497    |   2.1 |  0.98
Other   |            | 0.102      |            |       |  0.28

Nlocal:    9826 ave 9839 max 9813 min
Histogram: 1 0 0 0 0 0 0 0 0 1
Nghost:    11683.5 ave 11699 max 11668 min
Histogram: 1 0 0 0 0 0 0 0 0 1
Neighs:    593756 ave 601120 max 586391 min
Histogram: 1 0 0 0 0 0 0 0 0 1

Total # of neighbors = 1187511
Ave neighs/atom = 60.427
Neighbor list builds = 495
Dangerous builds not checked
Setting up Verlet run ...
  Unit style    : metal
  Current step  : 160495
  Time step     : 0.001
Per MPI rank memory allocation (min/avg/max) = 11.34 | 11.34 | 11.35 Mbytes
Step Temp Press TotEng PotEng Enthalpy 
  160495    1820.4683   -333.41073   -55258.291   -59882.446   -55344.921 
  170000    1786.4486    21.603972   -55341.068    -59878.81   -55335.459 
Loop time of 914.567 on 2 procs for 9505 steps with 19652 atoms

Performance: 0.898 ns/day, 26.728 hours/ns, 10.393 timesteps/s
87.3% CPU use with 2 MPI tasks x no OpenMP threads

MPI task timing breakdown:
Section |  min time  |  avg time  |  max time  |%varavg| %total
---------------------------------------------------------------
Pair    | 475.95     | 477.88     | 479.81     |   8.8 | 52.25
Neigh   | 295.08     | 295.09     | 295.11     |   0.1 | 32.27
Comm    | 125.91     | 128.44     | 130.97     |  22.3 | 14.04
Output  | 0.088063   | 0.088079   | 0.088095   |   0.0 |  0.01
Modify  | 10.461     | 11.101     | 11.74      |  19.2 |  1.21
Other   |            | 1.962      |            |       |  0.21

Nlocal:    9826 ave 9837 max 9815 min
Histogram: 1 0 0 0 0 0 0 0 0 1
Nghost:    11731 ave 11745 max 11717 min
Histogram: 1 0 0 0 0 0 0 0 0 1
Neighs:    594564 ave 601662 max 587466 min
Histogram: 1 0 0 0 0 0 0 0 0 1

Total # of neighbors = 1189128
Ave neighs/atom = 60.5093
Neighbor list builds = 9505
Dangerous builds not checked
Setting up Verlet run ...
  Unit style    : metal
  Current step  : 170000
  Time step     : 0.001
Per MPI rank memory allocation (min/avg/max) = 11.34 | 11.34 | 11.35 Mbytes
Step Temp Press TotEng PotEng Enthalpy 
  170000    1786.4486    21.603972   -55341.068    -59878.81   -55335.459 
  170495    1768.7187    32.267735   -55537.887   -60030.594   -55529.552 
Loop time of 37.561 on 2 procs for 495 steps with 19652 atoms

Performance: 1.139 ns/day, 21.078 hours/ns, 13.179 timesteps/s
99.8% CPU use with 2 MPI tasks x no OpenMP threads

MPI task timing breakdown:
Section |  min time  |  avg time  |  max time  |%varavg| %total
---------------------------------------------------------------
Pair    | 20.227     | 20.268     | 20.309     |   0.9 | 53.96
Neigh   | 15.01      | 15.091     | 15.171     |   2.1 | 40.18
Comm    | 1.6073     | 1.7286     | 1.8498     |   9.2 |  4.60
Output  | 7.6056e-05 | 0.00010657 | 0.00013709 |   0.0 |  0.00
Modify  | 0.36738    | 0.37132    | 0.37525    |   0.6 |  0.99
Other   |            | 0.1026     |            |       |  0.27

Nlocal:    9826 ave 9830 max 9822 min
Histogram: 1 0 0 0 0 0 0 0 0 1
Nghost:    11728 ave 11745 max 11711 min
Histogram: 1 0 0 0 0 0 0 0 0 1
Neighs:    597137 ave 603470 max 590804 min
Histogram: 1 0 0 0 0 0 0 0 0 1

Total # of neighbors = 1194274
Ave neighs/atom = 60.7711
Neighbor list builds = 495
Dangerous builds not checked
Setting up Verlet run ...
  Unit style    : metal
  Current step  : 170495
  Time step     : 0.001
Per MPI rank memory allocation (min/avg/max) = 11.34 | 11.34 | 11.35 Mbytes
Step Temp Press TotEng PotEng Enthalpy 
  170495    1768.7187    32.267735   -55537.887   -60030.594   -55529.552 
  180000    1731.8848    -193.4199   -55666.284   -60065.429   -55716.188 
Loop time of 845.864 on 2 procs for 9505 steps with 19652 atoms

Performance: 0.971 ns/day, 24.720 hours/ns, 11.237 timesteps/s
93.6% CPU use with 2 MPI tasks x no OpenMP threads

MPI task timing breakdown:
Section |  min time  |  avg time  |  max time  |%varavg| %total
---------------------------------------------------------------
Pair    | 443.85     | 446.06     | 448.27     |  10.5 | 52.73
Neigh   | 297.78     | 300.1      | 302.43     |  13.4 | 35.48
Comm    | 83.621     | 88.288     | 92.955     |  49.7 | 10.44
Output  | 0.14814    | 0.14815    | 0.14815    |   0.0 |  0.02
Modify  | 9.2324     | 9.2657     | 9.299      |   1.1 |  1.10
Other   |            | 2          |            |       |  0.24

Nlocal:    9826 ave 9848 max 9804 min
Histogram: 1 0 0 0 0 0 0 0 0 1
Nghost:    11728 ave 11729 max 11727 min
Histogram: 1 0 0 0 0 0 0 0 0 1
Neighs:    598134 ave 601751 max 594518 min
Histogram: 1 0 0 0 0 0 0 0 0 1

Total # of neighbors = 1196269
Ave neighs/atom = 60.8726
Neighbor list builds = 9505
Dangerous builds not checked
Setting up Verlet run ...
  Unit style    : metal
  Current step  : 180000
  Time step     : 0.001
Per MPI rank memory allocation (min/avg/max) = 11.35 | 11.35 | 11.35 Mbytes
Step Temp Press TotEng PotEng Enthalpy 
  180000    1731.8848    -193.4199   -55666.284   -60065.429   -55716.188 
  180495      1712.67    238.82345   -55817.801   -60168.138    -55756.44 
Loop time of 40.663 on 2 procs for 495 steps with 19652 atoms

Performance: 1.052 ns/day, 22.819 hours/ns, 12.173 timesteps/s
95.0% CPU use with 2 MPI tasks x no OpenMP threads

MPI task timing breakdown:
Section |  min time  |  avg time  |  max time  |%varavg| %total
---------------------------------------------------------------
Pair    | 22.533     | 22.784     | 23.036     |   5.3 | 56.03
Neigh   | 13.759     | 14.489     | 15.219     |  19.2 | 35.63
Comm    | 1.9329     | 2.9342     | 3.9355     |  58.5 |  7.22
Output  | 8.4877e-05 | 0.00011289 | 0.00014091 |   0.0 |  0.00
Modify  | 0.34565    | 0.35656    | 0.36746    |   1.8 |  0.88
Other   |            | 0.09911    |            |       |  0.24

Nlocal:    9826 ave 9852 max 9800 min
Histogram: 1 0 0 0 0 0 0 0 0 1
Nghost:    11781 ave 11822 max 11740 min
Histogram: 1 0 0 0 0 0 0 0 0 1
Neighs:    600756 ave 604385 max 597126 min
Histogram: 1 0 0 0 0 0 0 0 0 1

Total # of neighbors = 1201511
Ave neighs/atom = 61.1394
Neighbor list builds = 495
Dangerous builds not checked
Setting up Verlet run ...
  Unit style    : metal
  Current step  : 180495
  Time step     : 0.001
Per MPI rank memory allocation (min/avg/max) = 11.35 | 11.35 | 11.35 Mbytes
Step Temp Press TotEng PotEng Enthalpy 
  180495      1712.67    238.82345   -55817.801   -60168.138    -55756.44 
  190000    1709.8898   -59.579505   -55879.866   -60223.142   -55895.151 
Loop time of 828.912 on 2 procs for 9505 steps with 19652 atoms

Performance: 0.991 ns/day, 24.224 hours/ns, 11.467 timesteps/s
95.0% CPU use with 2 MPI tasks x no OpenMP threads

MPI task timing breakdown:
Section |  min time  |  avg time  |  max time  |%varavg| %total
---------------------------------------------------------------
Pair    | 445.99     | 446.74     | 447.48     |   3.5 | 53.89
Neigh   | 302.77     | 306.19     | 309.6      |  19.5 | 36.94
Comm    | 60.749     | 64.928     | 69.107     |  51.9 |  7.83
Output  | 0.065252   | 0.065256   | 0.065261   |   0.0 |  0.01
Modify  | 8.9828     | 9.0083     | 9.0338     |   0.8 |  1.09
Other   |            | 1.983      |            |       |  0.24

Nlocal:    9826 ave 9854 max 9798 min
Histogram: 1 0 0 0 0 0 0 0 0 1
Nghost:    11770 ave 11802 max 11738 min
Histogram: 1 0 0 0 0 0 0 0 0 1
Neighs:    601604 ave 609258 max 593951 min
Histogram: 1 0 0 0 0 0 0 0 0 1

Total # of neighbors = 1203209
Ave neighs/atom = 61.2258
Neighbor list builds = 9505
Dangerous builds not checked
Setting up Verlet run ...
  Unit style    : metal
  Current step  : 190000
  Time step     : 0.001
Per MPI rank memory allocation (min/avg/max) = 11.35 | 11.35 | 11.35 Mbytes
Step Temp Press TotEng PotEng Enthalpy 
  190000    1709.8898   -59.579505   -55879.866   -60223.142   -55895.151 
  190495    1670.2789   -368.21592   -56114.076   -60356.736   -56208.119 
Loop time of 46.3578 on 2 procs for 495 steps with 19652 atoms

Performance: 0.923 ns/day, 26.014 hours/ns, 10.678 timesteps/s
88.9% CPU use with 2 MPI tasks x no OpenMP threads

MPI task timing breakdown:
Section |  min time  |  avg time  |  max time  |%varavg| %total
---------------------------------------------------------------
Pair    | 23.987     | 24.28      | 24.573     |   5.9 | 52.38
Neigh   | 14.931     | 15.361     | 15.79      |  11.0 | 33.13
Comm    | 4.8765     | 5.6097     | 6.3429     |  31.0 | 12.10
Output  | 6.6996e-05 | 0.3159     | 0.63172    |  56.2 |  0.68
Modify  | 0.37064    | 0.3787     | 0.38676    |   1.3 |  0.82
Other   |            | 0.413      |            |       |  0.89

Nlocal:    9826 ave 9841 max 9811 min
Histogram: 1 0 0 0 0 0 0 0 0 1
Nghost:    11804.5 ave 11805 max 11804 min
Histogram: 1 0 0 0 0 0 0 0 0 1
Neighs:    604509 ave 612001 max 597017 min
Histogram: 1 0 0 0 0 0 0 0 0 1

Total # of neighbors = 1209018
Ave neighs/atom = 61.5214
Neighbor list builds = 495
Dangerous builds not checked
Setting up Verlet run ...
  Unit style    : metal
  Current step  : 190495
  Time step     : 0.001
Per MPI rank memory allocation (min/avg/max) = 11.35 | 11.35 | 11.35 Mbytes
Step Temp Press TotEng PotEng Enthalpy 
  190495    1670.2789   -368.21592   -56114.076   -60356.736   -56208.119 
  200000     1650.779   -542.32348   -56179.587   -60372.716    -56318.02 
Loop time of 868.008 on 2 procs for 9505 steps with 19652 atoms

Performance: 0.946 ns/day, 25.367 hours/ns, 10.950 timesteps/s
91.5% CPU use with 2 MPI tasks x no OpenMP threads

MPI task timing breakdown:
Section |  min time  |  avg time  |  max time  |%varavg| %total
---------------------------------------------------------------
Pair    | 441.96     | 452.53     | 463.1      |  49.7 | 52.13
Neigh   | 299.4      | 300.07     | 300.74     |   3.9 | 34.57
Comm    | 76.607     | 86.483     | 96.359     | 106.2 |  9.96
Output  | 0.098376   | 0.098391   | 0.098407   |   0.0 |  0.01
Modify  | 26.878     | 26.888     | 26.898     |   0.2 |  3.10
Other   |            | 1.94       |            |       |  0.22

Nlocal:    9826 ave 9836 max 9816 min
Histogram: 1 0 0 0 0 0 0 0 0 1
Nghost:    11811 ave 11829 max 11793 min
Histogram: 1 0 0 0 0 0 0 0 0 1
Neighs:    604706 ave 612712 max 596701 min
Histogram: 1 0 0 0 0 0 0 0 0 1

Total # of neighbors = 1209413
Ave neighs/atom = 61.5415
Neighbor list builds = 9505
Dangerous builds not checked
Setting up Verlet run ...
  Unit style    : metal
  Current step  : 200000
  Time step     : 0.001
Per MPI rank memory allocation (min/avg/max) = 11.35 | 11.35 | 11.35 Mbytes
Step Temp Press TotEng PotEng Enthalpy 
  200000     1650.779   -542.32348   -56179.587   -60372.716    -56318.02 
  200495    1607.0774    471.49761    -56423.46   -60505.583   -56303.881 
Loop time of 37.4941 on 2 procs for 495 steps with 19652 atoms

Performance: 1.141 ns/day, 21.040 hours/ns, 13.202 timesteps/s
99.8% CPU use with 2 MPI tasks x no OpenMP threads

MPI task timing breakdown:
Section |  min time  |  avg time  |  max time  |%varavg| %total
---------------------------------------------------------------
Pair    | 20.162     | 20.415     | 20.669     |   5.6 | 54.45
Neigh   | 14.748     | 15.032     | 15.317     |   7.3 | 40.09
Comm    | 1.5261     | 1.5684     | 1.6107     |   3.4 |  4.18
Output  | 6.8903e-05 | 9.346e-05  | 0.00011802 |   0.0 |  0.00
Modify  | 0.35891    | 0.3698     | 0.3807     |   1.8 |  0.99
Other   |            | 0.1082     |            |       |  0.29

Nlocal:    9826 ave 9829 max 9823 min
Histogram: 1 0 0 0 0 0 0 0 0 1
Nghost:    11841.5 ave 11861 max 11822 min
Histogram: 1 0 0 0 0 0 0 0 0 1
Neighs:    608822 ave 614862 max 602781 min
Histogram: 1 0 0 0 0 0 0 0 0 1

Total # of neighbors = 1217643
Ave neighs/atom = 61.9603
Neighbor list builds = 495
Dangerous builds not checked
Setting up Verlet run ...
  Unit style    : metal
  Current step  : 200495
  Time step     : 0.001
Per MPI rank memory allocation (min/avg/max) = 11.35 | 11.35 | 11.35 Mbytes
Step Temp Press TotEng PotEng Enthalpy 
  200495    1607.0774    471.49761    -56423.46   -60505.583   -56303.881 
  210000    1597.8175   -144.56374   -56452.121   -60510.723   -56488.814 
Loop time of 850.565 on 2 procs for 9505 steps with 19652 atoms

Performance: 0.966 ns/day, 24.857 hours/ns, 11.175 timesteps/s
93.8% CPU use with 2 MPI tasks x no OpenMP threads

MPI task timing breakdown:
Section |  min time  |  avg time  |  max time  |%varavg| %total
---------------------------------------------------------------
Pair    | 443.99     | 444.08     | 444.18     |   0.4 | 52.21
Neigh   | 302.68     | 306.46     | 310.25     |  21.6 | 36.03
Comm    | 81.876     | 85.835     | 89.794     |  42.7 | 10.09
Output  | 0.83827    | 0.83828    | 0.83829    |   0.0 |  0.10
Modify  | 11.226     | 11.291     | 11.356     |   1.9 |  1.33
Other   |            | 2.056      |            |       |  0.24

Nlocal:    9826 ave 9835 max 9817 min
Histogram: 1 0 0 0 0 0 0 0 0 1
Nghost:    11902 ave 11934 max 11870 min
Histogram: 1 0 0 0 0 0 0 0 0 1
Neighs:    608384 ave 615848 max 600920 min
Histogram: 1 0 0 0 0 0 0 0 0 1

Total # of neighbors = 1216768
Ave neighs/atom = 61.9157
Neighbor list builds = 9505
Dangerous builds not checked
Setting up Verlet run ...
  Unit style    : metal
  Current step  : 210000
  Time step     : 0.001
Per MPI rank memory allocation (min/avg/max) = 11.35 | 11.35 | 11.35 Mbytes
Step Temp Press TotEng PotEng Enthalpy 
  210000    1597.8175   -144.56374   -56452.121   -60510.723   -56488.814 
  210495    1562.0466   -318.13045   -56692.325   -60660.066   -56772.661 
Loop time of 47.4579 on 2 procs for 495 steps with 19652 atoms

Performance: 0.901 ns/day, 26.632 hours/ns, 10.430 timesteps/s
86.8% CPU use with 2 MPI tasks x no OpenMP threads

MPI task timing breakdown:
Section |  min time  |  avg time  |  max time  |%varavg| %total
---------------------------------------------------------------
Pair    | 27.044     | 27.127     | 27.21      |   1.6 | 57.16
Neigh   | 14.265     | 14.515     | 14.765     |   6.6 | 30.59
Comm    | 4.5098     | 4.9908     | 5.4719     |  21.5 | 10.52
Output  | 7.5102e-05 | 9.656e-05  | 0.00011802 |   0.0 |  0.00
Modify  | 0.41421    | 0.72858    | 1.043      |  36.8 |  1.54
Other   |            | 0.09598    |            |       |  0.20

Nlocal:    9826 ave 9834 max 9818 min
Histogram: 1 0 0 0 0 0 0 0 0 1
Nghost:    11830.5 ave 11866 max 11795 min
Histogram: 1 0 0 0 0 0 0 0 0 1
Neighs:    611633 ave 618034 max 605232 min
Histogram: 1 0 0 0 0 0 0 0 0 1

Total # of neighbors = 1223266
Ave neighs/atom = 62.2464
Neighbor list builds = 495
Dangerous builds not checked
Setting up Verlet run ...
  Unit style    : metal
  Current step  : 210495
  Time step     : 0.001
Per MPI rank memory allocation (min/avg/max) = 11.35 | 11.35 | 11.35 Mbytes
Step Temp Press TotEng PotEng Enthalpy 
  210495    1562.0466   -318.13045   -56692.325   -60660.066   -56772.661 
  220000      1555.64    345.86815    -56767.22   -60718.688    -56680.14 
Loop time of 843.058 on 2 procs for 9505 steps with 19652 atoms

Performance: 0.974 ns/day, 24.638 hours/ns, 11.274 timesteps/s
93.1% CPU use with 2 MPI tasks x no OpenMP threads

MPI task timing breakdown:
Section |  min time  |  avg time  |  max time  |%varavg| %total
---------------------------------------------------------------
Pair    | 440.17     | 441.65     | 443.13     |   7.0 | 52.39
Neigh   | 291.28     | 295.34     | 299.4      |  23.6 | 35.03
Comm    | 83.413     | 89.629     | 95.844     |  65.7 | 10.63
Output  | 0.23371    | 0.23372    | 0.23374    |   0.0 |  0.03
Modify  | 13.546     | 14.214     | 14.881     |  17.7 |  1.69
Other   |            | 1.994      |            |       |  0.24

Nlocal:    9826 ave 9830 max 9822 min
Histogram: 1 0 0 0 0 0 0 0 0 1
Nghost:    11926 ave 11928 max 11924 min
Histogram: 1 0 0 0 0 0 0 0 0 1
Neighs:    613643 ave 621034 max 606252 min
Histogram: 1 0 0 0 0 0 0 0 0 1

Total # of neighbors = 1227286
Ave neighs/atom = 62.4509
Neighbor list builds = 9505
Dangerous builds not checked
Setting up Verlet run ...
  Unit style    : metal
  Current step  : 220000
  Time step     : 0.001
Per MPI rank memory allocation (min/avg/max) = 11.35 | 11.35 | 11.35 Mbytes
Step Temp Press TotEng PotEng Enthalpy 
  220000      1555.64    345.86815    -56767.22   -60718.688    -56680.14 
  220495    1518.9785    594.53375   -56983.879   -60842.223   -56834.904 
Loop time of 69.0232 on 2 procs for 495 steps with 19652 atoms

Performance: 0.620 ns/day, 38.734 hours/ns, 7.172 timesteps/s
75.6% CPU use with 2 MPI tasks x no OpenMP threads

MPI task timing breakdown:
Section |  min time  |  avg time  |  max time  |%varavg| %total
---------------------------------------------------------------
Pair    | 22.668     | 22.762     | 22.856     |   2.0 | 32.98
Neigh   | 15.735     | 15.754     | 15.774     |   0.5 | 22.82
Comm    | 29.906     | 29.983     | 30.06      |   1.4 | 43.44
Output  | 6.4135e-05 | 8.8573e-05 | 0.00011301 |   0.0 |  0.00
Modify  | 0.41188    | 0.41289    | 0.4139     |   0.2 |  0.60
Other   |            | 0.111      |            |       |  0.16

Nlocal:    9826 ave 9832 max 9820 min
Histogram: 1 0 0 0 0 0 0 0 0 1
Nghost:    11921.5 ave 11928 max 11915 min
Histogram: 1 0 0 0 0 0 0 0 0 1
Neighs:    616737 ave 623139 max 610335 min
Histogram: 1 0 0 0 0 0 0 0 0 1

Total # of neighbors = 1233474
Ave neighs/atom = 62.7658
Neighbor list builds = 495
Dangerous builds not checked
Setting up Verlet run ...
  Unit style    : metal
  Current step  : 220495
  Time step     : 0.001
Per MPI rank memory allocation (min/avg/max) = 11.35 | 11.35 | 11.35 Mbytes
Step Temp Press TotEng PotEng Enthalpy 
  220495    1518.9785    594.53375   -56983.879   -60842.223   -56834.904 
  230000    1514.0478    636.80465   -57038.115   -60883.934   -56878.821 
Loop time of 880.92 on 2 procs for 9505 steps with 19652 atoms

Performance: 0.932 ns/day, 25.744 hours/ns, 10.790 timesteps/s
87.2% CPU use with 2 MPI tasks x no OpenMP threads

MPI task timing breakdown:
Section |  min time  |  avg time  |  max time  |%varavg| %total
---------------------------------------------------------------
Pair    | 443.96     | 444.98     | 445.99     |   4.8 | 50.51
Neigh   | 267.51     | 273.5      | 279.5      |  36.3 | 31.05
Comm    | 136.82     | 145.05     | 153.28     |  68.3 | 16.47
Output  | 0.072708   | 0.072714   | 0.07272    |   0.0 |  0.01
Modify  | 14.326     | 15.54      | 16.754     |  30.8 |  1.76
Other   |            | 1.778      |            |       |  0.20

Nlocal:    9826 ave 9860 max 9792 min
Histogram: 1 0 0 0 0 0 0 0 0 1
Nghost:    11933 ave 11966 max 11900 min
Histogram: 1 0 0 0 0 0 0 0 0 1
Neighs:    617830 ave 627755 max 607904 min
Histogram: 1 0 0 0 0 0 0 0 0 1

Total # of neighbors = 1235659
Ave neighs/atom = 62.877
Neighbor list builds = 9505
Dangerous builds not checked
Setting up Verlet run ...
  Unit style    : metal
  Current step  : 230000
  Time step     : 0.001
Per MPI rank memory allocation (min/avg/max) = 11.35 | 11.35 | 11.35 Mbytes
Step Temp Press TotEng PotEng Enthalpy 
  230000    1514.0478    636.80465   -57038.115   -60883.934   -56878.821 
  230495     1465.365    509.81976   -57286.512   -61008.672   -57159.551 
Loop time of 78.1563 on 2 procs for 495 steps with 19652 atoms

Performance: 0.547 ns/day, 43.859 hours/ns, 6.333 timesteps/s
69.1% CPU use with 2 MPI tasks x no OpenMP threads

MPI task timing breakdown:
Section |  min time  |  avg time  |  max time  |%varavg| %total
---------------------------------------------------------------
Pair    | 38.506     | 38.526     | 38.547     |   0.3 | 49.29
Neigh   | 13.405     | 13.763     | 14.12      |   9.6 | 17.61
Comm    | 24.305     | 24.646     | 24.988     |   6.9 | 31.53
Output  | 6.2943e-05 | 8.6427e-05 | 0.00010991 |   0.0 |  0.00
Modify  | 1.1154     | 1.1208     | 1.1261     |   0.5 |  1.43
Other   |            | 0.1003     |            |       |  0.13

Nlocal:    9826 ave 9827 max 9825 min
Histogram: 1 0 0 0 0 0 0 0 0 1
Nghost:    11937.5 ave 11941 max 11934 min
Histogram: 1 0 0 0 0 0 0 0 0 1
Neighs:    620772 ave 627101 max 614443 min
Histogram: 1 0 0 0 0 0 0 0 0 1

Total # of neighbors = 1241544
Ave neighs/atom = 63.1765
Neighbor list builds = 495
Dangerous builds not checked
Setting up Verlet run ...
  Unit style    : metal
  Current step  : 230495
  Time step     : 0.001
Per MPI rank memory allocation (min/avg/max) = 11.35 | 11.35 | 11.35 Mbytes
Step Temp Press TotEng PotEng Enthalpy 
  230495     1465.365    509.81976   -57286.512   -61008.672   -57159.551 
  240000    1457.8746    1134.1216   -57347.131   -61050.266     -57065.4 
Loop time of 1016.55 on 2 procs for 9505 steps with 19652 atoms

Performance: 0.808 ns/day, 29.708 hours/ns, 9.350 timesteps/s
77.9% CPU use with 2 MPI tasks x no OpenMP threads

MPI task timing breakdown:
Section |  min time  |  avg time  |  max time  |%varavg| %total
---------------------------------------------------------------
Pair    | 453.12     | 454.14     | 455.17     |   4.8 | 44.67
Neigh   | 256.62     | 257.14     | 257.67     |   3.3 | 25.30
Comm    | 281.27     | 283.35     | 285.42     |  12.3 | 27.87
Output  | 4.8017     | 4.8018     | 4.8018     |   0.0 |  0.47
Modify  | 14.897     | 15.417     | 15.937     |  13.2 |  1.52
Other   |            | 1.703      |            |       |  0.17

Nlocal:    9826 ave 9843 max 9809 min
Histogram: 1 0 0 0 0 0 0 0 0 1
Nghost:    11927 ave 11948 max 11906 min
Histogram: 1 0 0 0 0 0 0 0 0 1
Neighs:    622192 ave 629526 max 614857 min
Histogram: 1 0 0 0 0 0 0 0 0 1

Total # of neighbors = 1244383
Ave neighs/atom = 63.3209
Neighbor list builds = 9505
Dangerous builds not checked
Setting up Verlet run ...
  Unit style    : metal
  Current step  : 240000
  Time step     : 0.001
Per MPI rank memory allocation (min/avg/max) = 11.35 | 11.35 | 11.35 Mbytes
Step Temp Press TotEng PotEng Enthalpy 
  240000    1457.8746    1134.1216   -57347.131   -61050.266     -57065.4 
  240495    1419.1162    1146.8126   -57560.269   -61164.954   -57276.379 
Loop time of 36.4674 on 2 procs for 495 steps with 19652 atoms

Performance: 1.173 ns/day, 20.464 hours/ns, 13.574 timesteps/s
86.7% CPU use with 2 MPI tasks x no OpenMP threads

MPI task timing breakdown:
Section |  min time  |  avg time  |  max time  |%varavg| %total
---------------------------------------------------------------
Pair    | 16.271     | 16.355     | 16.439     |   2.1 | 44.85
Neigh   | 11.915     | 12.046     | 12.177     |   3.8 | 33.03
Comm    | 6.8648     | 7.0873     | 7.3098     |   8.4 | 19.43
Output  | 5.4121e-05 | 7.7605e-05 | 0.00010109 |   0.0 |  0.00
Modify  | 0.89472    | 0.89723    | 0.89974    |   0.3 |  2.46
Other   |            | 0.08183    |            |       |  0.22

Nlocal:    9826 ave 9837 max 9815 min
Histogram: 1 0 0 0 0 0 0 0 0 1
Nghost:    11989.5 ave 12018 max 11961 min
Histogram: 1 0 0 0 0 0 0 0 0 1
Neighs:    624221 ave 629757 max 618685 min
Histogram: 1 0 0 0 0 0 0 0 0 1

Total # of neighbors = 1248442
Ave neighs/atom = 63.5275
Neighbor list builds = 495
Dangerous builds not checked
Setting up Verlet run ...
  Unit style    : metal
  Current step  : 240495
  Time step     : 0.001
Per MPI rank memory allocation (min/avg/max) = 11.35 | 11.35 | 11.35 Mbytes
Step Temp Press TotEng PotEng Enthalpy 
  240495    1419.1162    1146.8126   -57560.269   -61164.954   -57276.379 
  250000    1403.8756   -5.3391602    -57697.65   -61263.622    -57698.97 
Loop time of 1234.74 on 2 procs for 9505 steps with 19652 atoms

Performance: 0.665 ns/day, 36.084 hours/ns, 7.698 timesteps/s
69.3% CPU use with 2 MPI tasks x no OpenMP threads

MPI task timing breakdown:
Section |  min time  |  avg time  |  max time  |%varavg| %total
---------------------------------------------------------------
Pair    | 518.68     | 521.05     | 523.41     |  10.4 | 42.20
Neigh   | 232.35     | 234.56     | 236.77     |  14.4 | 19.00
Comm    | 425.79     | 429.8      | 433.81     |  19.3 | 34.81
Output  | 0.51105    | 0.51106    | 0.51107    |   0.0 |  0.04
Modify  | 43.092     | 47.258     | 51.425     |  60.6 |  3.83
Other   |            | 1.556      |            |       |  0.13

Nlocal:    9826 ave 9832 max 9820 min
Histogram: 1 0 0 0 0 0 0 0 0 1
Nghost:    11963.5 ave 11990 max 11937 min
Histogram: 1 0 0 0 0 0 0 0 0 1
Neighs:    625945 ave 630278 max 621612 min
Histogram: 1 0 0 0 0 0 0 0 0 1

Total # of neighbors = 1251890
Ave neighs/atom = 63.7029
Neighbor list builds = 9505
Dangerous builds not checked
Setting up Verlet run ...
  Unit style    : metal
  Current step  : 250000
  Time step     : 0.001
Per MPI rank memory allocation (min/avg/max) = 11.35 | 11.35 | 11.35 Mbytes
Step Temp Press TotEng PotEng Enthalpy 
  250000    1403.8756   -5.3391602    -57697.65   -61263.622    -57698.97 
  250495    1359.6883   -491.37745   -57892.052   -61345.785   -58013.148 
Loop time of 56.2765 on 2 procs for 495 steps with 19652 atoms

Performance: 0.760 ns/day, 31.581 hours/ns, 8.796 timesteps/s
74.8% CPU use with 2 MPI tasks x no OpenMP threads

MPI task timing breakdown:
Section |  min time  |  avg time  |  max time  |%varavg| %total
---------------------------------------------------------------
Pair    | 27.439     | 27.637     | 27.835     |   3.8 | 49.11
Neigh   | 12.42      | 12.612     | 12.804     |   5.4 | 22.41
Comm    | 12.86      | 12.871     | 12.883     |   0.3 | 22.87
Output  | 4.9829e-05 | 6.5923e-05 | 8.2016e-05 |   0.0 |  0.00
Modify  | 3.0682     | 3.0731     | 3.0781     |   0.3 |  5.46
Other   |            | 0.08288    |            |       |  0.15

Nlocal:    9826 ave 9835 max 9817 min
Histogram: 1 0 0 0 0 0 0 0 0 1
Nghost:    11996 ave 12001 max 11991 min
Histogram: 1 0 0 0 0 0 0 0 0 1
Neighs:    627338 ave 632154 max 622521 min
Histogram: 1 0 0 0 0 0 0 0 0 1

Total # of neighbors = 1254675
Ave neighs/atom = 63.8446
Neighbor list builds = 495
Dangerous builds not checked
Setting up Verlet run ...
  Unit style    : metal
  Current step  : 250495
  Time step     : 0.001
Per MPI rank memory allocation (min/avg/max) = 11.35 | 11.35 | 11.35 Mbytes
Step Temp Press TotEng PotEng Enthalpy 
  250495    1359.6883   -491.37745   -57892.052   -61345.785   -58013.148 
  260000    1345.1252   -842.46706   -57986.918   -61403.659   -58194.259 
Loop time of 1183.7 on 2 procs for 9505 steps with 19652 atoms

Performance: 0.694 ns/day, 34.593 hours/ns, 8.030 timesteps/s
70.5% CPU use with 2 MPI tasks x no OpenMP threads

MPI task timing breakdown:
Section |  min time  |  avg time  |  max time  |%varavg| %total
---------------------------------------------------------------
Pair    | 487.62     | 488.7      | 489.77     |   4.9 | 41.29
Neigh   | 231.69     | 234.69     | 237.7      |  19.6 | 19.83
Comm    | 417.41     | 419.92     | 422.42     |  12.2 | 35.48
Output  | 0.053377   | 0.053388   | 0.0534     |   0.0 |  0.00
Modify  | 37.222     | 38.808     | 40.393     |  25.4 |  3.28
Other   |            | 1.533      |            |       |  0.13

Nlocal:    9826 ave 9826 max 9826 min
Histogram: 2 0 0 0 0 0 0 0 0 0
Nghost:    11999 ave 12012 max 11986 min
Histogram: 1 0 0 0 0 0 0 0 0 1
Neighs:    628559 ave 634543 max 622575 min
Histogram: 1 0 0 0 0 0 0 0 0 1

Total # of neighbors = 1257118
Ave neighs/atom = 63.969
Neighbor list builds = 9505
Dangerous builds not checked
Setting up Verlet run ...
  Unit style    : metal
  Current step  : 260000
  Time step     : 0.001
Per MPI rank memory allocation (min/avg/max) = 11.35 | 11.35 | 11.35 Mbytes
Step Temp Press TotEng PotEng Enthalpy 
  260000    1345.1252   -842.46706   -57986.918   -61403.659   -58194.259 
  260495    1326.9471   -181.23357   -58172.865   -61543.432   -58217.202 
Loop time of 94.9422 on 2 procs for 495 steps with 19652 atoms

Performance: 0.450 ns/day, 53.278 hours/ns, 5.214 timesteps/s
62.8% CPU use with 2 MPI tasks x no OpenMP threads

MPI task timing breakdown:
Section |  min time  |  avg time  |  max time  |%varavg| %total
---------------------------------------------------------------
Pair    | 21.168     | 21.252     | 21.336     |   1.8 | 22.38
Neigh   | 11.696     | 11.722     | 11.747     |   0.7 | 12.35
Comm    | 55.33      | 58.419     | 61.509     |  40.4 | 61.53
Output  | 5.3883e-05 | 0.032632   | 0.06521    |  18.0 |  0.03
Modify  | 0.25401    | 3.4026     | 6.5512     | 170.7 |  3.58
Other   |            | 0.114      |            |       |  0.12

Nlocal:    9826 ave 9846 max 9806 min
Histogram: 1 0 0 0 0 0 0 0 0 1
Nghost:    12026.5 ave 12043 max 12010 min
Histogram: 1 0 0 0 0 0 0 0 0 1
Neighs:    632252 ave 639268 max 625237 min
Histogram: 1 0 0 0 0 0 0 0 0 1

Total # of neighbors = 1264505
Ave neighs/atom = 64.3449
Neighbor list builds = 495
Dangerous builds not checked
Setting up Verlet run ...
  Unit style    : metal
  Current step  : 260495
  Time step     : 0.001
Per MPI rank memory allocation (min/avg/max) = 11.35 | 11.35 | 11.35 Mbytes
Step Temp Press TotEng PotEng Enthalpy 
  260495    1326.9471   -181.23357   -58172.865   -61543.432   -58217.202 
  270000     1306.704    115.33486   -58278.887   -61598.034   -58250.725 
Loop time of 1301.36 on 2 procs for 9505 steps with 19652 atoms

Performance: 0.631 ns/day, 38.031 hours/ns, 7.304 timesteps/s
66.9% CPU use with 2 MPI tasks x no OpenMP threads

MPI task timing breakdown:
Section |  min time  |  avg time  |  max time  |%varavg| %total
---------------------------------------------------------------
Pair    | 478.81     | 489.3      | 499.79     |  47.4 | 37.60
Neigh   | 231.76     | 232.85     | 233.95     |   7.2 | 17.89
Comm    | 452.46     | 453.58     | 454.69     |   5.2 | 34.85
Output  | 29.66      | 29.66      | 29.66      |   0.0 |  2.28
Modify  | 83.991     | 94.448     | 104.9      | 107.6 |  7.26
Other   |            | 1.521      |            |       |  0.12

Nlocal:    9826 ave 9837 max 9815 min
Histogram: 1 0 0 0 0 0 0 0 0 1
Nghost:    12001.5 ave 12003 max 12000 min
Histogram: 1 0 0 0 0 0 0 0 0 1
Neighs:    633655 ave 640926 max 626384 min
Histogram: 1 0 0 0 0 0 0 0 0 1

Total # of neighbors = 1267310
Ave neighs/atom = 64.4876
Neighbor list builds = 9505
Dangerous builds not checked
Setting up Verlet run ...
  Unit style    : metal
  Current step  : 270000
  Time step     : 0.001
Per MPI rank memory allocation (min/avg/max) = 11.35 | 11.35 | 11.35 Mbytes
Step Temp Press TotEng PotEng Enthalpy 
  270000     1306.704    115.33486   -58278.887   -61598.034   -58250.725 
  270495     1272.333    531.90364   -58475.323   -61707.165   -58345.995 
Loop time of 46.1131 on 2 procs for 495 steps with 19652 atoms

Performance: 0.927 ns/day, 25.877 hours/ns, 10.734 timesteps/s
74.4% CPU use with 2 MPI tasks x no OpenMP threads

MPI task timing breakdown:
Section |  min time  |  avg time  |  max time  |%varavg| %total
---------------------------------------------------------------
Pair    | 15.955     | 15.991     | 16.026     |   0.9 | 34.68
Neigh   | 11.3       | 11.803     | 12.306     |  14.6 | 25.60
Comm    | 12.594     | 13.139     | 13.684     |  15.0 | 28.49
Output  | 5.4121e-05 | 7.6532e-05 | 9.8944e-05 |   0.0 |  0.00
Modify  | 5.0983     | 5.1035     | 5.1087     |   0.2 | 11.07
Other   |            | 0.07703    |            |       |  0.17

Nlocal:    9826 ave 9827 max 9825 min
Histogram: 1 0 0 0 0 0 0 0 0 1
Nghost:    12022.5 ave 12035 max 12010 min
Histogram: 1 0 0 0 0 0 0 0 0 1
Neighs:    636519 ave 642720 max 630318 min
Histogram: 1 0 0 0 0 0 0 0 0 1

Total # of neighbors = 1273038
Ave neighs/atom = 64.7791
Neighbor list builds = 495
Dangerous builds not checked
Setting up Verlet run ...
  Unit style    : metal
  Current step  : 270495
  Time step     : 0.001
Per MPI rank memory allocation (min/avg/max) = 11.35 | 11.35 | 11.35 Mbytes
Step Temp Press TotEng PotEng Enthalpy 
  270495     1272.333    531.90364   -58475.323   -61707.165   -58345.995 
  280000    1250.2469   -945.27262   -58603.271   -61779.012   -58832.964 
Loop time of 1135.21 on 2 procs for 9505 steps with 19652 atoms

Performance: 0.723 ns/day, 33.176 hours/ns, 8.373 timesteps/s
70.5% CPU use with 2 MPI tasks x no OpenMP threads

MPI task timing breakdown:
Section |  min time  |  avg time  |  max time  |%varavg| %total
---------------------------------------------------------------
Pair    | 511.2      | 512.85     | 514.49     |   7.3 | 45.18
Neigh   | 237.79     | 238.42     | 239.05     |   4.1 | 21.00
Comm    | 347.94     | 351.92     | 355.89     |  21.2 | 31.00
Output  | 3.1314     | 3.1314     | 3.1314     |   0.0 |  0.28
Modify  | 25.643     | 27.34      | 29.037     |  32.5 |  2.41
Other   |            | 1.558      |            |       |  0.14

Nlocal:    9826 ave 9829 max 9823 min
Histogram: 1 0 0 0 0 0 0 0 0 1
Nghost:    12053 ave 12059 max 12047 min
Histogram: 1 0 0 0 0 0 0 0 0 1
Neighs:    636998 ave 642709 max 631288 min
Histogram: 1 0 0 0 0 0 0 0 0 1

Total # of neighbors = 1273997
Ave neighs/atom = 64.8279
Neighbor list builds = 9505
Dangerous builds not checked
Setting up Verlet run ...
  Unit style    : metal
  Current step  : 280000
  Time step     : 0.001
Per MPI rank memory allocation (min/avg/max) = 11.35 | 11.35 | 11.35 Mbytes
Step Temp Press TotEng PotEng Enthalpy 
  280000    1250.2469   -945.27262   -58603.271   -61779.012   -58832.964 
  280495    1211.0058   -690.51333   -58825.309   -61901.374   -58992.348 
Loop time of 32.2321 on 2 procs for 495 steps with 19652 atoms

Performance: 1.327 ns/day, 18.088 hours/ns, 15.357 timesteps/s
91.6% CPU use with 2 MPI tasks x no OpenMP threads

MPI task timing breakdown:
Section |  min time  |  avg time  |  max time  |%varavg| %total
---------------------------------------------------------------
Pair    | 14.613     | 14.691     | 14.769     |   2.0 | 45.58
Neigh   | 11.687     | 11.817     | 11.947     |   3.8 | 36.66
Comm    | 5.1748     | 5.3887     | 5.6026     |   9.2 | 16.72
Output  | 5.1975e-05 | 7.7486e-05 | 0.000103   |   0.0 |  0.00
Modify  | 0.25812    | 0.25876    | 0.25939    |   0.1 |  0.80
Other   |            | 0.07691    |            |       |  0.24

Nlocal:    9826 ave 9827 max 9825 min
Histogram: 1 0 0 0 0 0 0 0 0 1
Nghost:    12105 ave 12110 max 12100 min
Histogram: 1 0 0 0 0 0 0 0 0 1
Neighs:    639704 ave 645358 max 634051 min
Histogram: 1 0 0 0 0 0 0 0 0 1

Total # of neighbors = 1279409
Ave neighs/atom = 65.1032
Neighbor list builds = 495
Dangerous builds not checked
Setting up Verlet run ...
  Unit style    : metal
  Current step  : 280495
  Time step     : 0.001
Per MPI rank memory allocation (min/avg/max) = 11.35 | 11.35 | 11.35 Mbytes
Step Temp Press TotEng PotEng Enthalpy 
  280495    1211.0058   -690.51333   -58825.309   -61901.374   -58992.348 
  290000    1202.6211    634.73855   -58881.045   -61935.813   -58728.048 
Loop time of 1052.86 on 2 procs for 9505 steps with 19652 atoms

Performance: 0.780 ns/day, 30.769 hours/ns, 9.028 timesteps/s
73.5% CPU use with 2 MPI tasks x no OpenMP threads

MPI task timing breakdown:
Section |  min time  |  avg time  |  max time  |%varavg| %total
---------------------------------------------------------------
Pair    | 490.7      | 491.29     | 491.89     |   2.7 | 46.66
Neigh   | 233.2      | 233.58     | 233.95     |   2.4 | 22.19
Comm    | 299.81     | 300.85     | 301.89     |   6.0 | 28.57
Output  | 1.2002     | 1.2002     | 1.2003     |   0.0 |  0.11
Modify  | 24.346     | 24.427     | 24.509     |   1.7 |  2.32
Other   |            | 1.508      |            |       |  0.14

Nlocal:    9826 ave 9842 max 9810 min
Histogram: 1 0 0 0 0 0 0 0 0 1
Nghost:    12085 ave 12105 max 12065 min
Histogram: 1 0 0 0 0 0 0 0 0 1
Neighs:    642111 ave 646709 max 637513 min
Histogram: 1 0 0 0 0 0 0 0 0 1

Total # of neighbors = 1284222
Ave neighs/atom = 65.3482
Neighbor list builds = 9505
Dangerous builds not checked
Setting up Verlet run ...
  Unit style    : metal
  Current step  : 290000
  Time step     : 0.001
Per MPI rank memory allocation (min/avg/max) = 11.35 | 11.35 | 11.35 Mbytes
Step Temp Press TotEng PotEng Enthalpy 
  290000    1202.6211    634.73855   -58881.045   -61935.813   -58728.048 
  290495    1171.9997   -305.43948   -59099.377   -62076.363   -59172.744 
Loop time of 61.2148 on 2 procs for 495 steps with 19652 atoms

Performance: 0.699 ns/day, 34.352 hours/ns, 8.086 timesteps/s
67.9% CPU use with 2 MPI tasks x no OpenMP threads

MPI task timing breakdown:
Section |  min time  |  avg time  |  max time  |%varavg| %total
---------------------------------------------------------------
Pair    | 30.788     | 30.908     | 31.028     |   2.2 | 50.49
Neigh   | 11.812     | 12.033     | 12.254     |   6.4 | 19.66
Comm    | 12.362     | 12.506     | 12.649     |   4.1 | 20.43
Output  | 5.8174e-05 | 8.4043e-05 | 0.00010991 |   0.0 |  0.00
Modify  | 5.6443     | 5.6854     | 5.7265     |   1.7 |  9.29
Other   |            | 0.08283    |            |       |  0.14

Nlocal:    9826 ave 9835 max 9817 min
Histogram: 1 0 0 0 0 0 0 0 0 1
Nghost:    12116 ave 12126 max 12106 min
Histogram: 1 0 0 0 0 0 0 0 0 1
Neighs:    644679 ave 652509 max 636849 min
Histogram: 1 0 0 0 0 0 0 0 0 1

Total # of neighbors = 1289358
Ave neighs/atom = 65.6095
Neighbor list builds = 495
Dangerous builds not checked
Setting up Verlet run ...
  Unit style    : metal
  Current step  : 290495
  Time step     : 0.001
Per MPI rank memory allocation (min/avg/max) = 11.35 | 11.35 | 11.35 Mbytes
Step Temp Press TotEng PotEng Enthalpy 
  290495    1171.9997   -305.43948   -59099.377   -62076.363   -59172.744 
  300000    1141.4994   -853.84336   -59217.609   -62117.122   -59422.552 
Loop time of 1014.19 on 2 procs for 9505 steps with 19652 atoms

Performance: 0.810 ns/day, 29.639 hours/ns, 9.372 timesteps/s
73.2% CPU use with 2 MPI tasks x no OpenMP threads

MPI task timing breakdown:
Section |  min time  |  avg time  |  max time  |%varavg| %total
---------------------------------------------------------------
Pair    | 446.2      | 446.81     | 447.42     |   2.9 | 44.06
Neigh   | 227.28     | 228.35     | 229.43     |   7.1 | 22.52
Comm    | 281.11     | 284.61     | 288.1      |  20.7 | 28.06
Output  | 0.7399     | 0.73991    | 0.73992    |   0.0 |  0.07
Modify  | 47.059     | 52.238     | 57.417     |  71.7 |  5.15
Other   |            | 1.441      |            |       |  0.14

Nlocal:    9826 ave 9851 max 9801 min
Histogram: 1 0 0 0 0 0 0 0 0 1
Nghost:    12131 ave 12135 max 12127 min
Histogram: 1 0 0 0 0 0 0 0 0 1
Neighs:    645418 ave 654252 max 636585 min
Histogram: 1 0 0 0 0 0 0 0 0 1

Total # of neighbors = 1290837
Ave neighs/atom = 65.6848
Neighbor list builds = 9505
Dangerous builds not checked
Setting up Verlet run ...
  Unit style    : metal
  Current step  : 300000
  Time step     : 0.001
Per MPI rank memory allocation (min/avg/max) = 11.35 | 11.35 | 11.35 Mbytes
Step Temp Press TotEng PotEng Enthalpy 
[...]
Histogram: 1 0 0 0 0 0 0 0 0 1
Neighs:    719222 ave 719807 max 718636 min
Histogram: 1 0 0 0 0 0 0 0 0 1

Total # of neighbors = 1438443
Ave neighs/atom = 73.1958
Neighbor list builds = 9505
Dangerous builds not checked
Setting up Verlet run ...
  Unit style    : metal
  Current step  : 440000
  Time step     : 0.001
Per MPI rank memory allocation (min/avg/max) = 11.35 | 11.35 | 11.35 Mbytes
Step Temp Press TotEng PotEng Enthalpy 
  440000    450.13367   -603.66245   -64028.605   -65171.986   -64159.069 
  440495    423.26192    33.743468   -64193.679   -65268.803   -64186.414 
Loop time of 121.929 on 2 procs for 495 steps with 19652 atoms

Performance: 0.351 ns/day, 68.422 hours/ns, 4.060 timesteps/s
59.2% CPU use with 2 MPI tasks x no OpenMP threads

MPI task timing breakdown:
Section |  min time  |  avg time  |  max time  |%varavg| %total
---------------------------------------------------------------
Pair    | 29.194     | 29.219     | 29.244     |   0.5 | 23.96
Neigh   | 11.988     | 12.011     | 12.035     |   0.7 |  9.85
Comm    | 56.646     | 60.259     | 63.872     |  46.5 | 49.42
Output  | 5.3883e-05 | 0.16348    | 0.32691    |  40.4 |  0.13
Modify  | 16.476     | 20.039     | 23.602     |  79.6 | 16.43
Other   |            | 0.2366     |            |       |  0.19

Nlocal:    9826 ave 9829 max 9823 min
Histogram: 1 0 0 0 0 0 0 0 0 1
Nghost:    12693.5 ave 12712 max 12675 min
Histogram: 1 0 0 0 0 0 0 0 0 1
Neighs:    721697 ave 721808 max 721586 min
Histogram: 1 0 0 0 0 0 0 0 0 1

Total # of neighbors = 1443394
Ave neighs/atom = 73.4477
Neighbor list builds = 495
Dangerous builds not checked
Setting up Verlet run ...
  Unit style    : metal
  Current step  : 440495
  Time step     : 0.001
Per MPI rank memory allocation (min/avg/max) = 11.35 | 11.35 | 11.35 Mbytes
Step Temp Press TotEng PotEng Enthalpy 
  440495    423.26192    33.743468   -64193.679   -65268.803   -64186.414 
  450000    397.79498   -662.95531   -64382.355   -65392.791   -64524.619 
Loop time of 2042.37 on 2 procs for 9505 steps with 19652 atoms

Performance: 0.402 ns/day, 59.687 hours/ns, 4.654 timesteps/s
57.6% CPU use with 2 MPI tasks x no OpenMP threads

MPI task timing breakdown:
Section |  min time  |  avg time  |  max time  |%varavg| %total
---------------------------------------------------------------
Pair    | 727.21     | 759.03     | 790.85     | 115.5 | 37.16
Neigh   | 229.25     | 229.69     | 230.13     |   2.9 | 11.25
Comm    | 975.01     | 1005.2     | 1035.4     |  95.2 | 49.22
Output  | 0.050497   | 0.050506   | 0.050514   |   0.0 |  0.00
Modify  | 44.952     | 47.005     | 49.057     |  29.9 |  2.30
Other   |            | 1.396      |            |       |  0.07

Nlocal:    9826 ave 9838 max 9814 min
Histogram: 1 0 0 0 0 0 0 0 0 1
Nghost:    12726.5 ave 12750 max 12703 min
Histogram: 1 0 0 0 0 0 0 0 0 1
Neighs:    724000 ave 725015 max 722985 min
Histogram: 1 0 0 0 0 0 0 0 0 1

Total # of neighbors = 1448000
Ave neighs/atom = 73.6821
Neighbor list builds = 9505
Dangerous builds not checked
Setting up Verlet run ...
  Unit style    : metal
  Current step  : 450000
  Time step     : 0.001
Per MPI rank memory allocation (min/avg/max) = 11.35 | 11.35 | 11.35 Mbytes
Step Temp Press TotEng PotEng Enthalpy 
  450000    397.79498   -662.95531   -64382.355   -65392.791   -64524.619 
  450495    370.31827   -105.46111   -64524.409   -65465.051   -64546.969 
Loop time of 79.0367 on 2 procs for 495 steps with 19652 atoms

Performance: 0.541 ns/day, 44.353 hours/ns, 6.263 timesteps/s
62.6% CPU use with 2 MPI tasks x no OpenMP threads

MPI task timing breakdown:
Section |  min time  |  avg time  |  max time  |%varavg| %total
---------------------------------------------------------------
Pair    | 51.362     | 51.515     | 51.667     |   2.1 | 65.18
Neigh   | 12.006     | 12.025     | 12.044     |   0.6 | 15.21
Comm    | 13.079     | 13.253     | 13.426     |   4.8 | 16.77
Output  | 5.5075e-05 | 7.4983e-05 | 9.4891e-05 |   0.0 |  0.00
Modify  | 2.1712     | 2.1719     | 2.1726     |   0.0 |  2.75
Other   |            | 0.07253    |            |       |  0.09

Nlocal:    9826 ave 9826 max 9826 min
Histogram: 2 0 0 0 0 0 0 0 0 0
Nghost:    12750 ave 12774 max 12726 min
Histogram: 1 0 0 0 0 0 0 0 0 1
Neighs:    726094 ave 726699 max 725490 min
Histogram: 1 0 0 0 0 0 0 0 0 1

Total # of neighbors = 1452189
Ave neighs/atom = 73.8952
Neighbor list builds = 495
Dangerous builds not checked
Setting up Verlet run ...
  Unit style    : metal
  Current step  : 450495
  Time step     : 0.001
Per MPI rank memory allocation (min/avg/max) = 11.35 | 11.35 | 11.35 Mbytes
Step Temp Press TotEng PotEng Enthalpy 
  450495    370.31827   -105.46111   -64524.409   -65465.051   -64546.969 
  460000    350.97964    294.61356   -64676.445   -65567.965   -64613.643 
Loop time of 2082.27 on 2 procs for 9505 steps with 19652 atoms

Performance: 0.394 ns/day, 60.853 hours/ns, 4.565 timesteps/s
58.3% CPU use with 2 MPI tasks x no OpenMP threads

MPI task timing breakdown:
Section |  min time  |  avg time  |  max time  |%varavg| %total
---------------------------------------------------------------
Pair    | 737.32     | 737.32     | 737.32     |   0.0 | 35.41
Neigh   | 229.88     | 230.04     | 230.21     |   1.1 | 11.05
Comm    | 1001.7     | 1012.6     | 1023.5     |  34.4 | 48.63
Output  | 0.054131   | 0.054142   | 0.054154   |   0.0 |  0.00
Modify  | 89.707     | 100.82     | 111.93     | 110.7 |  4.84
Other   |            | 1.43       |            |       |  0.07

Nlocal:    9826 ave 9828 max 9824 min
Histogram: 1 0 0 0 0 0 0 0 0 1
Nghost:    12760 ave 12772 max 12748 min
Histogram: 1 0 0 0 0 0 0 0 0 1
Neighs:    728582 ave 728935 max 728228 min
Histogram: 1 0 0 0 0 0 0 0 0 1

Total # of neighbors = 1457163
Ave neighs/atom = 74.1483
Neighbor list builds = 9505
Dangerous builds not checked
Setting up Verlet run ...
  Unit style    : metal
  Current step  : 460000
  Time step     : 0.001
Per MPI rank memory allocation (min/avg/max) = 11.35 | 11.35 | 11.35 Mbytes
Step Temp Press TotEng PotEng Enthalpy 
  460000    350.97964    294.61356   -64676.445   -65567.965   -64613.643 
  460495    324.08588    151.83643   -64831.814   -65655.022   -64799.541 
Loop time of 56.0818 on 2 procs for 495 steps with 19652 atoms

Performance: 0.763 ns/day, 31.471 hours/ns, 8.826 timesteps/s
66.2% CPU use with 2 MPI tasks x no OpenMP threads

MPI task timing breakdown:
Section |  min time  |  avg time  |  max time  |%varavg| %total
---------------------------------------------------------------
Pair    | 35.905     | 35.913     | 35.921     |   0.1 | 64.04
Neigh   | 11.906     | 11.936     | 11.966     |   0.9 | 21.28
Comm    | 6.8909     | 6.8977     | 6.9046     |   0.3 | 12.30
Output  | 5.6028e-05 | 8.595e-05  | 0.00011587 |   0.0 |  0.00
Modify  | 1.2239     | 1.2553     | 1.2867     |   2.8 |  2.24
Other   |            | 0.07944    |            |       |  0.14

Nlocal:    9826 ave 9837 max 9815 min
Histogram: 1 0 0 0 0 0 0 0 0 1
Nghost:    12787.5 ave 12802 max 12773 min
Histogram: 1 0 0 0 0 0 0 0 0 1
Neighs:    730472 ave 731869 max 729074 min
Histogram: 1 0 0 0 0 0 0 0 0 1

Total # of neighbors = 1460943
Ave neighs/atom = 74.3407
Neighbor list builds = 495
Dangerous builds not checked
Setting up Verlet run ...
  Unit style    : metal
  Current step  : 460495
  Time step     : 0.001
Per MPI rank memory allocation (min/avg/max) = 11.35 | 11.35 | 11.35 Mbytes
Step Temp Press TotEng PotEng Enthalpy 
  460495    324.08588    151.83643   -64831.814   -65655.022   -64799.541 
  470000     299.6231    399.30519   -64988.009   -65749.079   -64903.417 
Loop time of 1652.47 on 2 procs for 9505 steps with 19652 atoms

Performance: 0.497 ns/day, 48.292 hours/ns, 5.752 timesteps/s
62.4% CPU use with 2 MPI tasks x no OpenMP threads

MPI task timing breakdown:
Section |  min time  |  avg time  |  max time  |%varavg| %total
---------------------------------------------------------------
Pair    | 645.65     | 645.69     | 645.72     |   0.1 | 39.07
Neigh   | 235.41     | 235.91     | 236.41     |   3.3 | 14.28
Comm    | 645.24     | 662.94     | 680.64     |  68.8 | 40.12
Output  | 2.4107     | 2.4107     | 2.4107     |   0.0 |  0.15
Modify  | 85.717     | 103.96     | 122.2      | 178.9 |  6.29
Other   |            | 1.559      |            |       |  0.09

Nlocal:    9826 ave 9830 max 9822 min
Histogram: 1 0 0 0 0 0 0 0 0 1
Nghost:    12791.5 ave 12818 max 12765 min
Histogram: 1 0 0 0 0 0 0 0 0 1
Neighs:    732604 ave 733325 max 731882 min
Histogram: 1 0 0 0 0 0 0 0 0 1

Total # of neighbors = 1465207
Ave neighs/atom = 74.5577
Neighbor list builds = 9505
Dangerous builds not checked
Setting up Verlet run ...
  Unit style    : metal
  Current step  : 470000
  Time step     : 0.001
Per MPI rank memory allocation (min/avg/max) = 11.35 | 11.35 | 11.35 Mbytes
Step Temp Press TotEng PotEng Enthalpy 
  470000     299.6231    399.30519   -64988.009   -65749.079   -64903.417 
  470495    273.30357    -128.1229   -65129.906   -65824.122   -65157.008 
Loop time of 70.2127 on 2 procs for 495 steps with 19652 atoms

Performance: 0.609 ns/day, 39.401 hours/ns, 7.050 timesteps/s
65.6% CPU use with 2 MPI tasks x no OpenMP threads

MPI task timing breakdown:
Section |  min time  |  avg time  |  max time  |%varavg| %total
---------------------------------------------------------------
Pair    | 19.661     | 19.664     | 19.667     |   0.1 | 28.01
Neigh   | 12.244     | 12.281     | 12.319     |   1.1 | 17.49
Comm    | 32.232     | 32.268     | 32.305     |   0.6 | 45.96
Output  | 5.6982e-05 | 7.844e-05  | 9.9897e-05 |   0.0 |  0.00
Modify  | 5.9154     | 5.916      | 5.9165     |   0.0 |  8.43
Other   |            | 0.08333    |            |       |  0.12

Nlocal:    9826 ave 9840 max 9812 min
Histogram: 1 0 0 0 0 0 0 0 0 1
Nghost:    12777.5 ave 12801 max 12754 min
Histogram: 1 0 0 0 0 0 0 0 0 1
Neighs:    733476 ave 734609 max 732344 min
Histogram: 1 0 0 0 0 0 0 0 0 1

Total # of neighbors = 1466953
Ave neighs/atom = 74.6465
Neighbor list builds = 495
Dangerous builds not checked
Setting up Verlet run ...
  Unit style    : metal
  Current step  : 470495
  Time step     : 0.001
Per MPI rank memory allocation (min/avg/max) = 11.35 | 11.35 | 11.35 Mbytes
Step Temp Press TotEng PotEng Enthalpy 
  470495    273.30357    -128.1229   -65129.906   -65824.122   -65157.008 
  480000     248.6602   -161.49763   -65278.006   -65909.626   -65312.079 
Loop time of 1481.48 on 2 procs for 9505 steps with 19652 atoms

Performance: 0.554 ns/day, 43.295 hours/ns, 6.416 timesteps/s
62.5% CPU use with 2 MPI tasks x no OpenMP threads

MPI task timing breakdown:
Section |  min time  |  avg time  |  max time  |%varavg| %total
---------------------------------------------------------------
Pair    | 598.85     | 598.88     | 598.92     |   0.1 | 40.42
Neigh   | 235.46     | 236.13     | 236.81     |   4.4 | 15.94
Comm    | 511.3      | 511.76     | 512.23     |   2.0 | 34.54
Output  | 15.449     | 15.449     | 15.449     |   0.0 |  1.04
Modify  | 117.38     | 117.64     | 117.9      |   2.4 |  7.94
Other   |            | 1.616      |            |       |  0.11

Nlocal:    9826 ave 9831 max 9821 min
Histogram: 1 0 0 0 0 0 0 0 0 1
Nghost:    12794.5 ave 12810 max 12779 min
Histogram: 1 0 0 0 0 0 0 0 0 1
Neighs:    735478 ave 736373 max 734583 min
Histogram: 1 0 0 0 0 0 0 0 0 1

Total # of neighbors = 1470956
Ave neighs/atom = 74.8502
Neighbor list builds = 9505
Dangerous builds not checked
Setting up Verlet run ...
  Unit style    : metal
  Current step  : 480000
  Time step     : 0.001
Per MPI rank memory allocation (min/avg/max) = 11.35 | 11.35 | 11.35 Mbytes
Step Temp Press TotEng PotEng Enthalpy 
  480000     248.6602   -161.49763   -65278.006   -65909.626   -65312.079 
  480495    224.37839    260.65144   -65408.821   -65978.762   -65353.979 
Loop time of 91.8439 on 2 procs for 495 steps with 19652 atoms

Performance: 0.466 ns/day, 51.540 hours/ns, 5.390 timesteps/s
63.8% CPU use with 2 MPI tasks x no OpenMP threads

MPI task timing breakdown:
Section |  min time  |  avg time  |  max time  |%varavg| %total
---------------------------------------------------------------
Pair    | 17.055     | 17.055     | 17.055     |   0.0 | 18.57
Neigh   | 12.144     | 12.159     | 12.173     |   0.4 | 13.24
Comm    | 37.849     | 37.865     | 37.88      |   0.2 | 41.23
Output  | 5.0068e-05 | 12.182     | 24.364     | 349.0 | 13.26
Modify  | 0.31393    | 0.31413    | 0.31434    |   0.0 |  0.34
Other   |            | 12.27      |            |       | 13.36

Nlocal:    9826 ave 9839 max 9813 min
Histogram: 1 0 0 0 0 0 0 0 0 1
Nghost:    12814.5 ave 12832 max 12797 min
Histogram: 1 0 0 0 0 0 0 0 0 1
Neighs:    737284 ave 738684 max 735884 min
Histogram: 1 0 0 0 0 0 0 0 0 1

Total # of neighbors = 1474568
Ave neighs/atom = 75.034
Neighbor list builds = 495
Dangerous builds not checked
Setting up Verlet run ...
  Unit style    : metal
  Current step  : 480495
  Time step     : 0.001
Per MPI rank memory allocation (min/avg/max) = 11.35 | 11.35 | 11.35 Mbytes
Step Temp Press TotEng PotEng Enthalpy 
  480495    224.37839    260.65144   -65408.821   -65978.762   -65353.979 
  490000    199.32359   -592.39303    -65547.63   -66053.931   -65672.134 
Loop time of 1414.59 on 2 procs for 9505 steps with 19652 atoms

Performance: 0.581 ns/day, 41.340 hours/ns, 6.719 timesteps/s
64.9% CPU use with 2 MPI tasks x no OpenMP threads

MPI task timing breakdown:
Section |  min time  |  avg time  |  max time  |%varavg| %total
---------------------------------------------------------------
Pair    | 668.84     | 690.94     | 713.05     |  84.1 | 48.84
Neigh   | 237.35     | 237.46     | 237.58     |   0.7 | 16.79
Comm    | 419.01     | 441.89     | 464.78     | 108.9 | 31.24
Output  | 0.46003    | 0.46005    | 0.46007    |   0.0 |  0.03
Modify  | 41.264     | 42.134     | 43.003     |  13.4 |  2.98
Other   |            | 1.693      |            |       |  0.12

Nlocal:    9826 ave 9831 max 9821 min
Histogram: 1 0 0 0 0 0 0 0 0 1
Nghost:    12834.5 ave 12849 max 12820 min
Histogram: 1 0 0 0 0 0 0 0 0 1
Neighs:    738322 ave 738571 max 738074 min
Histogram: 1 0 0 0 0 0 0 0 0 1

Total # of neighbors = 1476645
Ave neighs/atom = 75.1397
Neighbor list builds = 9505
Dangerous builds not checked
Setting up Verlet run ...
  Unit style    : metal
  Current step  : 490000
  Time step     : 0.001
Per MPI rank memory allocation (min/avg/max) = 11.35 | 11.35 | 11.35 Mbytes
Step Temp Press TotEng PotEng Enthalpy 
  490000    199.32359   -592.39303    -65547.63   -66053.931   -65672.134 
  490495    174.51874   -440.76692    -65674.57   -66117.863    -65767.01 
Loop time of 82.8972 on 2 procs for 495 steps with 19652 atoms

Performance: 0.516 ns/day, 46.519 hours/ns, 5.971 timesteps/s
57.4% CPU use with 2 MPI tasks x no OpenMP threads

MPI task timing breakdown:
Section |  min time  |  avg time  |  max time  |%varavg| %total
---------------------------------------------------------------
Pair    | 27.974     | 28.023     | 28.073     |   0.9 | 33.80
Neigh   | 12.334     | 12.424     | 12.514     |   2.5 | 14.99
Comm    | 40.296     | 40.401     | 40.506     |   1.6 | 48.74
Output  | 6.1035e-05 | 7.9989e-05 | 9.8944e-05 |   0.0 |  0.00
Modify  | 1.7131     | 1.9595     | 2.2059     |  17.6 |  2.36
Other   |            | 0.08975    |            |       |  0.11

Nlocal:    9826 ave 9837 max 9815 min
Histogram: 1 0 0 0 0 0 0 0 0 1
Nghost:    12849 ave 12877 max 12821 min
Histogram: 1 0 0 0 0 0 0 0 0 1
Neighs:    739632 ave 740213 max 739051 min
Histogram: 1 0 0 0 0 0 0 0 0 1

Total # of neighbors = 1479264
Ave neighs/atom = 75.2729
Neighbor list builds = 495
Dangerous builds not checked
Setting up Verlet run ...
  Unit style    : metal
  Current step  : 490495
  Time step     : 0.001
Per MPI rank memory allocation (min/avg/max) = 11.35 | 11.35 | 11.35 Mbytes
Step Temp Press TotEng PotEng Enthalpy 
  490495    174.51874   -440.76692    -65674.57   -66117.863    -65767.01 
  500000    150.12121   -175.19087    -65814.94   -66196.262   -65851.585 
Loop time of 1488.33 on 2 procs for 9505 steps with 19652 atoms

Performance: 0.552 ns/day, 43.495 hours/ns, 6.386 timesteps/s
63.6% CPU use with 2 MPI tasks x no OpenMP threads

MPI task timing breakdown:
Section |  min time  |  avg time  |  max time  |%varavg| %total
---------------------------------------------------------------
Pair    | 590.69     | 592.3      | 593.91     |   6.6 | 39.80
Neigh   | 237.6      | 237.86     | 238.13     |   1.7 | 15.98
Comm    | 599.51     | 602.11     | 604.72     |  10.6 | 40.46
Output  | 0.91146    | 0.91148    | 0.91149    |   0.0 |  0.06
Modify  | 52.089     | 53.365     | 54.642     |  17.5 |  3.59
Other   |            | 1.775      |            |       |  0.12

Nlocal:    9826 ave 9833 max 9819 min
Histogram: 1 0 0 0 0 0 0 0 0 1
Nghost:    12876.5 ave 12894 max 12859 min
Histogram: 1 0 0 0 0 0 0 0 0 1
Neighs:    741190 ave 742562 max 739819 min
Histogram: 1 0 0 0 0 0 0 0 0 1

Total # of neighbors = 1482381
Ave neighs/atom = 75.4316
Neighbor list builds = 9505
Dangerous builds not checked
Setting up Verlet run ...
  Unit style    : metal
  Current step  : 500000
  Time step     : 0.001
Per MPI rank memory allocation (min/avg/max) = 11.35 | 11.35 | 11.35 Mbytes
Step Temp Press TotEng PotEng Enthalpy 
  500000    150.12121   -175.19087    -65814.94   -66196.262   -65851.585 
  500495    126.71272    188.00831   -65936.275   -66258.136   -65897.045 
Loop time of 73.4741 on 2 procs for 495 steps with 19652 atoms

Performance: 0.582 ns/day, 41.231 hours/ns, 6.737 timesteps/s
64.1% CPU use with 2 MPI tasks x no OpenMP threads

MPI task timing breakdown:
Section |  min time  |  avg time  |  max time  |%varavg| %total
---------------------------------------------------------------
Pair    | 34.958     | 34.96      | 34.961     |   0.0 | 47.58
Neigh   | 12.227     | 12.279     | 12.331     |   1.5 | 16.71
Comm    | 24.87      | 24.925     | 24.98      |   1.1 | 33.92
Output  | 7.1049e-05 | 0.00011098 | 0.00015092 |   0.0 |  0.00
Modify  | 1.2174     | 1.2183     | 1.2191     |   0.1 |  1.66
Other   |            | 0.09193    |            |       |  0.13

Nlocal:    9826 ave 9830 max 9822 min
Histogram: 1 0 0 0 0 0 0 0 0 1
Nghost:    12905 ave 12916 max 12894 min
Histogram: 1 0 0 0 0 0 0 0 0 1
Neighs:    742766 ave 743001 max 742531 min
Histogram: 1 0 0 0 0 0 0 0 0 1

Total # of neighbors = 1485532
Ave neighs/atom = 75.5919
Neighbor list builds = 495
Dangerous builds not checked
Setting up Verlet run ...
  Unit style    : metal
  Current step  : 500495
  Time step     : 0.001
Per MPI rank memory allocation (min/avg/max) = 11.35 | 11.35 | 11.35 Mbytes
Step Temp Press TotEng PotEng Enthalpy 
  500495    126.71272    188.00831   -65936.275   -66258.136   -65897.045 
  510000    100.12775    88.913396   -66081.525   -66335.859    -66063.01 
Loop time of 1962.95 on 2 procs for 9505 steps with 19652 atoms

Performance: 0.418 ns/day, 57.366 hours/ns, 4.842 timesteps/s
58.8% CPU use with 2 MPI tasks x no OpenMP threads

MPI task timing breakdown:
Section |  min time  |  avg time  |  max time  |%varavg| %total
---------------------------------------------------------------
Pair    | 675.84     | 685.01     | 694.19     |  35.1 | 34.90
Neigh   | 237.33     | 237.87     | 238.41     |   3.5 | 12.12
Comm    | 885.84     | 898.92     | 912.01     |  43.6 | 45.79
Output  | 4.3575     | 4.3576     | 4.3576     |   0.0 |  0.22
Modify  | 130.52     | 134.97     | 139.41     |  38.3 |  6.88
Other   |            | 1.817      |            |       |  0.09

Nlocal:    9826 ave 9831 max 9821 min
Histogram: 1 0 0 0 0 0 0 0 0 1
Nghost:    12894 ave 12894 max 12894 min
Histogram: 2 0 0 0 0 0 0 0 0 0
Neighs:    744331 ave 745430 max 743232 min
Histogram: 1 0 0 0 0 0 0 0 0 1

Total # of neighbors = 1488662
Ave neighs/atom = 75.7512
Neighbor list builds = 9505
Dangerous builds not checked
Total wall time: 17:06:03
