LAMMPS (12 Dec 2018)
Lattice spacing in x,y,z = 4 4 4
Created orthogonal box = (0 0 0) to (68 68 68)
  1 by 1 by 1 MPI processor grid
Created 19652 atoms
  Time spent = 0.00397611 secs
Setting atom values ...
  19480 settings made for type/fraction
Neighbor list info ...
  update every 1 steps, delay 0 steps, check no
  max neighbors/atom: 2000, page size: 100000
  master list distance cutoff = 8.5
  ghost atom cutoff = 8.5
  binsize = 4.25, bins = 16 16 16
  1 neighbor lists, perpetual/occasional/extra = 1 0 0
  (1) pair eam/alloy, perpetual
      attributes: half, newton on
      pair build: half/bin/atomonly/newton
      stencil: half/bin/3d/newton
      bin: standard
Setting up Verlet run ...
  Unit style    : metal
  Current step  : 0
  Time step     : 0.001
Per MPI rank memory allocation (min/avg/max) = 18.19 | 18.19 | 18.19 Mbytes
Step Temp Press TotEng PotEng Enthalpy 
       0          300   -64736.735   -76552.874   -77314.901   -89257.654 
    1000    2084.0938     115257.3   -76554.079   -81847.867   -53934.483 
Loop time of 163.39 on 1 procs for 1000 steps with 19652 atoms

Performance: 0.529 ns/day, 45.386 hours/ns, 6.120 timesteps/s
99.4% CPU use with 1 MPI tasks x no OpenMP threads

MPI task timing breakdown:
Section |  min time  |  avg time  |  max time  |%varavg| %total
---------------------------------------------------------------
Pair    | 91.842     | 91.842     | 91.842     |   0.0 | 56.21
Neigh   | 69.668     | 69.668     | 69.668     |   0.0 | 42.64
Comm    | 1.1575     | 1.1575     | 1.1575     |   0.0 |  0.71
Output  | 0.00019503 | 0.00019503 | 0.00019503 |   0.0 |  0.00
Modify  | 0.36955    | 0.36955    | 0.36955    |   0.0 |  0.23
Other   |            | 0.3527     |            |       |  0.22

Nlocal:    19652 ave 19652 max 19652 min
Histogram: 1 0 0 0 0 0 0 0 0 0
Nghost:    18773 ave 18773 max 18773 min
Histogram: 1 0 0 0 0 0 0 0 0 0
Neighs:    1.56933e+06 ave 1.56933e+06 max 1.56933e+06 min
Histogram: 1 0 0 0 0 0 0 0 0 0

Total # of neighbors = 1569327
Ave neighs/atom = 79.8558
Neighbor list builds = 1000
Dangerous builds not checked
Setting up Verlet run ...
  Unit style    : metal
  Current step  : 1000
  Time step     : 0.001
Per MPI rank memory allocation (min/avg/max) = 18.19 | 18.19 | 18.19 Mbytes
Step Temp Press TotEng PotEng Enthalpy 
    1000    2084.0938     115257.3   -76554.079   -81847.867   -53934.483 
    2000    340.05921   -32.465325   -86680.672   -87544.453   -86688.035 
Loop time of 163.294 on 1 procs for 1000 steps with 19652 atoms

Performance: 0.529 ns/day, 45.359 hours/ns, 6.124 timesteps/s
98.3% CPU use with 1 MPI tasks x no OpenMP threads

MPI task timing breakdown:
Section |  min time  |  avg time  |  max time  |%varavg| %total
---------------------------------------------------------------
Pair    | 89.303     | 89.303     | 89.303     |   0.0 | 54.69
Neigh   | 70.748     | 70.748     | 70.748     |   0.0 | 43.33
Comm    | 1.166      | 1.166      | 1.166      |   0.0 |  0.71
Output  | 0.20855    | 0.20855    | 0.20855    |   0.0 |  0.13
Modify  | 1.451      | 1.451      | 1.451      |   0.0 |  0.89
Other   |            | 0.4174     |            |       |  0.26

Nlocal:    19652 ave 19652 max 19652 min
Histogram: 1 0 0 0 0 0 0 0 0 0
Nghost:    17653 ave 17653 max 17653 min
Histogram: 1 0 0 0 0 0 0 0 0 0
Neighs:    1.35923e+06 ave 1.35923e+06 max 1.35923e+06 min
Histogram: 1 0 0 0 0 0 0 0 0 0

Total # of neighbors = 1359230
Ave neighs/atom = 69.165
Neighbor list builds = 1000
Dangerous builds not checked
Setting up Verlet run ...
  Unit style    : metal
  Current step  : 2000
  Time step     : 0.001
Per MPI rank memory allocation (min/avg/max) = 18.19 | 18.19 | 18.19 Mbytes
Step Temp Press TotEng PotEng Enthalpy 
    2000    340.05921   -32.465325   -86680.672   -87544.453   -86688.035 
    4000    758.86892   -123.00967   -84394.251   -86321.847   -84422.675 
    6000    1358.8155    -1244.199   -80456.906   -83908.421   -80748.864 
    8000    1894.9447    624.42052   -77787.126   -82600.458   -77638.146 
   10000    2446.0056   -165.53971    -75384.88   -81597.958   -75425.337 
Loop time of 1255.91 on 1 procs for 8000 steps with 19652 atoms

Performance: 0.550 ns/day, 43.608 hours/ns, 6.370 timesteps/s
98.3% CPU use with 1 MPI tasks x no OpenMP threads

MPI task timing breakdown:
Section |  min time  |  avg time  |  max time  |%varavg| %total
---------------------------------------------------------------
Pair    | 687.05     | 687.05     | 687.05     |   0.0 | 54.71
Neigh   | 544.15     | 544.15     | 544.15     |   0.0 | 43.33
Comm    | 9.3581     | 9.3581     | 9.3581     |   0.0 |  0.75
Output  | 0.34932    | 0.34932    | 0.34932    |   0.0 |  0.03
Modify  | 11.753     | 11.753     | 11.753     |   0.0 |  0.94
Other   |            | 3.254      |            |       |  0.26

Nlocal:    19652 ave 19652 max 19652 min
Histogram: 1 0 0 0 0 0 0 0 0 0
Nghost:    17204 ave 17204 max 17204 min
Histogram: 1 0 0 0 0 0 0 0 0 0
Neighs:    1.26108e+06 ave 1.26108e+06 max 1.26108e+06 min
Histogram: 1 0 0 0 0 0 0 0 0 0

Total # of neighbors = 1261077
Ave neighs/atom = 64.1704
Neighbor list builds = 8000
Dangerous builds not checked
Setting up Verlet run ...
  Unit style    : metal
  Current step  : 10000
  Time step     : 0.001
Per MPI rank memory allocation (min/avg/max) = 18.2 | 18.2 | 18.2 Mbytes
Step Temp Press TotEng PotEng Enthalpy 
   10000    2446.0056   -165.53971    -75384.88   -81597.958   -75425.337 
   12000    2433.9185   -411.43783   -75406.632   -81589.006   -75507.417 
   14000    2469.4227    831.58908   -75316.345   -81588.904   -75113.553 
   16000    2453.6913    209.15122   -75335.078   -81567.677   -75283.936 
   18000    2463.0543    638.96569   -75327.602   -81583.985    -75171.43 
   20000    2449.0525    -679.7836   -75380.668   -81601.485   -75546.965 
   22000     2453.808    94.366168   -75362.582   -81595.478    -75339.54 
   24000    2442.8573    460.75724   -75433.163   -81638.243   -75320.708 
   26000    2463.3158    289.17506   -75314.773   -81571.819   -75244.134 
   28000    2431.8984    -812.7764     -75362.4   -81539.644   -75561.442 
   30000    2449.5525    1223.4981   -75392.785   -81614.871   -75094.978 
   32000    2462.5378   -1606.6276   -75264.809   -81519.879     -75658.4 
   34000    2423.5434     1009.493   -75409.924   -81565.945   -75163.545 
   36000    2447.6659   -838.51919   -75326.008   -81543.302   -75531.219 
   38000    2438.1304    536.24935   -75386.674   -81579.747   -75255.853 
   40000    2440.0262    -135.1394   -75393.084   -81590.973   -75426.057 
Loop time of 5064.59 on 1 procs for 30000 steps with 19652 atoms

Performance: 0.512 ns/day, 46.894 hours/ns, 5.923 timesteps/s
99.4% CPU use with 1 MPI tasks x no OpenMP threads

MPI task timing breakdown:
Section |  min time  |  avg time  |  max time  |%varavg| %total
---------------------------------------------------------------
Pair    | 2846.4     | 2846.4     | 2846.4     |   0.0 | 56.20
Neigh   | 2121.1     | 2121.1     | 2121.1     |   0.0 | 41.88
Comm    | 36.973     | 36.973     | 36.973     |   0.0 |  0.73
Output  | 1.6582     | 1.6582     | 1.6582     |   0.0 |  0.03
Modify  | 45.912     | 45.912     | 45.912     |   0.0 |  0.91
Other   |            | 12.59      |            |       |  0.25

Nlocal:    19652 ave 19652 max 19652 min
Histogram: 1 0 0 0 0 0 0 0 0 0
Nghost:    17159 ave 17159 max 17159 min
Histogram: 1 0 0 0 0 0 0 0 0 0
Neighs:    1.26274e+06 ave 1.26274e+06 max 1.26274e+06 min
Histogram: 1 0 0 0 0 0 0 0 0 0

Total # of neighbors = 1262744
Ave neighs/atom = 64.2552
Neighbor list builds = 30000
Dangerous builds not checked
Setting up Verlet run ...
  Unit style    : metal
  Current step  : 40000
  Time step     : 0.001
Per MPI rank memory allocation (min/avg/max) = 18.2 | 18.2 | 18.2 Mbytes
Step Temp Press TotEng PotEng Enthalpy 
   40000    2440.0262    -135.1394   -75393.084   -81590.973   -75426.057 
   40495    2411.5028    1265.2634   -75551.467   -81676.904   -75242.907 
Loop time of 82.0987 on 1 procs for 495 steps with 19652 atoms

Performance: 0.521 ns/day, 46.071 hours/ns, 6.029 timesteps/s
100.0% CPU use with 1 MPI tasks x no OpenMP threads

MPI task timing breakdown:
Section |  min time  |  avg time  |  max time  |%varavg| %total
---------------------------------------------------------------
Pair    | 46.188     | 46.188     | 46.188     |   0.0 | 56.26
Neigh   | 34.353     | 34.353     | 34.353     |   0.0 | 41.84
Comm    | 0.60235    | 0.60235    | 0.60235    |   0.0 |  0.73
Output  | 0.00016403 | 0.00016403 | 0.00016403 |   0.0 |  0.00
Modify  | 0.7478     | 0.7478     | 0.7478     |   0.0 |  0.91
Other   |            | 0.2075     |            |       |  0.25

Nlocal:    19652 ave 19652 max 19652 min
Histogram: 1 0 0 0 0 0 0 0 0 0
Nghost:    17175 ave 17175 max 17175 min
Histogram: 1 0 0 0 0 0 0 0 0 0
Neighs:    1.26324e+06 ave 1.26324e+06 max 1.26324e+06 min
Histogram: 1 0 0 0 0 0 0 0 0 0

Total # of neighbors = 1263244
Ave neighs/atom = 64.2807
Neighbor list builds = 495
Dangerous builds not checked
Setting up Verlet run ...
  Unit style    : metal
  Current step  : 40495
  Time step     : 0.001
Per MPI rank memory allocation (min/avg/max) = 18.2 | 18.2 | 18.2 Mbytes
Step Temp Press TotEng PotEng Enthalpy 
   40495    2411.5028    1265.2634   -75551.467   -81676.904   -75242.907 
   42000    2400.5716   -1092.2148   -75564.683   -81662.354   -75831.357 
Loop time of 264.114 on 1 procs for 1505 steps with 19652 atoms

Performance: 0.492 ns/day, 48.747 hours/ns, 5.698 timesteps/s
99.0% CPU use with 1 MPI tasks x no OpenMP threads

MPI task timing breakdown:
Section |  min time  |  avg time  |  max time  |%varavg| %total
---------------------------------------------------------------
Pair    | 149.34     | 149.34     | 149.34     |   0.0 | 56.54
Neigh   | 109.52     | 109.52     | 109.52     |   0.0 | 41.47
Comm    | 2.0165     | 2.0165     | 2.0165     |   0.0 |  0.76
Output  | 0.095489   | 0.095489   | 0.095489   |   0.0 |  0.04
Modify  | 2.4794     | 2.4794     | 2.4794     |   0.0 |  0.94
Other   |            | 0.6589     |            |       |  0.25

Nlocal:    19652 ave 19652 max 19652 min
Histogram: 1 0 0 0 0 0 0 0 0 0
Nghost:    17145 ave 17145 max 17145 min
Histogram: 1 0 0 0 0 0 0 0 0 0
Neighs:    1.26219e+06 ave 1.26219e+06 max 1.26219e+06 min
Histogram: 1 0 0 0 0 0 0 0 0 0

Total # of neighbors = 1262187
Ave neighs/atom = 64.2269
Neighbor list builds = 1505
Dangerous builds not checked
Setting up Verlet run ...
  Unit style    : metal
  Current step  : 42000
  Time step     : 0.001
Per MPI rank memory allocation (min/avg/max) = 18.2 | 18.2 | 18.2 Mbytes
Step Temp Press TotEng PotEng Enthalpy 
   42000    2400.5716   -1092.2148   -75564.683   -81662.354   -75831.357 
   42495    2350.2739     372.0257   -75764.685   -81734.595   -75674.144 
Loop time of 76.8001 on 1 procs for 495 steps with 19652 atoms

Performance: 0.557 ns/day, 43.098 hours/ns, 6.445 timesteps/s
98.3% CPU use with 1 MPI tasks x no OpenMP threads

MPI task timing breakdown:
Section |  min time  |  avg time  |  max time  |%varavg| %total
---------------------------------------------------------------
Pair    | 42.421     | 42.421     | 42.421     |   0.0 | 55.24
Neigh   | 32.878     | 32.878     | 32.878     |   0.0 | 42.81
Comm    | 0.56889    | 0.56889    | 0.56889    |   0.0 |  0.74
Output  | 0.00017905 | 0.00017905 | 0.00017905 |   0.0 |  0.00
Modify  | 0.73732    | 0.73732    | 0.73732    |   0.0 |  0.96
Other   |            | 0.1949     |            |       |  0.25

Nlocal:    19652 ave 19652 max 19652 min
Histogram: 1 0 0 0 0 0 0 0 0 0
Nghost:    17148 ave 17148 max 17148 min
Histogram: 1 0 0 0 0 0 0 0 0 0
Neighs:    1.26598e+06 ave 1.26598e+06 max 1.26598e+06 min
Histogram: 1 0 0 0 0 0 0 0 0 0

Total # of neighbors = 1265979
Ave neighs/atom = 64.4199
Neighbor list builds = 495
Dangerous builds not checked
Setting up Verlet run ...
  Unit style    : metal
  Current step  : 42495
  Time step     : 0.001
Per MPI rank memory allocation (min/avg/max) = 18.2 | 18.2 | 18.2 Mbytes
Step Temp Press TotEng PotEng Enthalpy 
   42495    2350.2739     372.0257   -75764.685   -81734.595   -75674.144 
   44000    2350.6327    57.937967   -75782.944   -81753.765   -75768.843 
Loop time of 250.171 on 1 procs for 1505 steps with 19652 atoms

Performance: 0.520 ns/day, 46.174 hours/ns, 6.016 timesteps/s
98.5% CPU use with 1 MPI tasks x no OpenMP threads

MPI task timing breakdown:
Section |  min time  |  avg time  |  max time  |%varavg| %total
---------------------------------------------------------------
Pair    | 139.79     | 139.79     | 139.79     |   0.0 | 55.88
Neigh   | 105.37     | 105.37     | 105.37     |   0.0 | 42.12
Comm    | 1.9242     | 1.9242     | 1.9242     |   0.0 |  0.77
Output  | 0.21657    | 0.21657    | 0.21657    |   0.0 |  0.09
Modify  | 2.2578     | 2.2578     | 2.2578     |   0.0 |  0.90
Other   |            | 0.6116     |            |       |  0.24

Nlocal:    19652 ave 19652 max 19652 min
Histogram: 1 0 0 0 0 0 0 0 0 0
Nghost:    17172 ave 17172 max 17172 min
Histogram: 1 0 0 0 0 0 0 0 0 0
Neighs:    1.26576e+06 ave 1.26576e+06 max 1.26576e+06 min
Histogram: 1 0 0 0 0 0 0 0 0 0

Total # of neighbors = 1265764
Ave neighs/atom = 64.4089
Neighbor list builds = 1505
Dangerous builds not checked
Setting up Verlet run ...
  Unit style    : metal
  Current step  : 44000
  Time step     : 0.001
Per MPI rank memory allocation (min/avg/max) = 18.2 | 18.2 | 18.2 Mbytes
Step Temp Press TotEng PotEng Enthalpy 
   44000    2350.6327    57.937967   -75782.944   -81753.765   -75768.843 
   44495    2311.3499    995.85633   -75977.134   -81848.173   -75735.357 
Loop time of 77.3569 on 1 procs for 495 steps with 19652 atoms

Performance: 0.553 ns/day, 43.410 hours/ns, 6.399 timesteps/s
99.5% CPU use with 1 MPI tasks x no OpenMP threads

MPI task timing breakdown:
Section |  min time  |  avg time  |  max time  |%varavg| %total
---------------------------------------------------------------
Pair    | 43.203     | 43.203     | 43.203     |   0.0 | 55.85
Neigh   | 32.653     | 32.653     | 32.653     |   0.0 | 42.21
Comm    | 0.58325    | 0.58325    | 0.58325    |   0.0 |  0.75
Output  | 0.00017381 | 0.00017381 | 0.00017381 |   0.0 |  0.00
Modify  | 0.7162     | 0.7162     | 0.7162     |   0.0 |  0.93
Other   |            | 0.2013     |            |       |  0.26

Nlocal:    19652 ave 19652 max 19652 min
Histogram: 1 0 0 0 0 0 0 0 0 0
Nghost:    17152 ave 17152 max 17152 min
Histogram: 1 0 0 0 0 0 0 0 0 0
Neighs:    1.26909e+06 ave 1.26909e+06 max 1.26909e+06 min
Histogram: 1 0 0 0 0 0 0 0 0 0

Total # of neighbors = 1269086
Ave neighs/atom = 64.578
Neighbor list builds = 495
Dangerous builds not checked
Setting up Verlet run ...
  Unit style    : metal
  Current step  : 44495
  Time step     : 0.001
Per MPI rank memory allocation (min/avg/max) = 18.2 | 18.2 | 18.2 Mbytes
Step Temp Press TotEng PotEng Enthalpy 
   44495    2311.3499    995.85633   -75977.134   -81848.173   -75735.357 
   46000     2316.862   -1181.6675   -75941.322   -81826.362   -76228.841 
Loop time of 213.999 on 1 procs for 1505 steps with 19652 atoms

Performance: 0.608 ns/day, 39.498 hours/ns, 7.033 timesteps/s
99.2% CPU use with 1 MPI tasks x no OpenMP threads

MPI task timing breakdown:
Section |  min time  |  avg time  |  max time  |%varavg| %total
---------------------------------------------------------------
Pair    | 116.18     | 116.18     | 116.18     |   0.0 | 54.29
Neigh   | 93.583     | 93.583     | 93.583     |   0.0 | 43.73
Comm    | 1.5752     | 1.5752     | 1.5752     |   0.0 |  0.74
Output  | 0.14689    | 0.14689    | 0.14689    |   0.0 |  0.07
Modify  | 1.9882     | 1.9882     | 1.9882     |   0.0 |  0.93
Other   |            | 0.5285     |            |       |  0.25

Nlocal:    19652 ave 19652 max 19652 min
Histogram: 1 0 0 0 0 0 0 0 0 0
Nghost:    17215 ave 17215 max 17215 min
Histogram: 1 0 0 0 0 0 0 0 0 0
Neighs:    1.26656e+06 ave 1.26656e+06 max 1.26656e+06 min
Histogram: 1 0 0 0 0 0 0 0 0 0

Total # of neighbors = 1266555
Ave neighs/atom = 64.4492
Neighbor list builds = 1505
Dangerous builds not checked
Setting up Verlet run ...
  Unit style    : metal
  Current step  : 46000
  Time step     : 0.001
Per MPI rank memory allocation (min/avg/max) = 18.2 | 18.2 | 18.2 Mbytes
Step Temp Press TotEng PotEng Enthalpy 
   46000     2316.862   -1181.6675   -75941.322   -81826.362   -76228.841 
   46495     2268.704    1082.1548   -76218.746   -81981.461   -75957.048 
Loop time of 69.2455 on 1 procs for 495 steps with 19652 atoms

Performance: 0.618 ns/day, 38.858 hours/ns, 7.148 timesteps/s
99.6% CPU use with 1 MPI tasks x no OpenMP threads

MPI task timing breakdown:
Section |  min time  |  avg time  |  max time  |%varavg| %total
---------------------------------------------------------------
Pair    | 37.753     | 37.753     | 37.753     |   0.0 | 54.52
Neigh   | 30.127     | 30.127     | 30.127     |   0.0 | 43.51
Comm    | 0.52129    | 0.52129    | 0.52129    |   0.0 |  0.75
Output  | 0.00016999 | 0.00016999 | 0.00016999 |   0.0 |  0.00
Modify  | 0.66901    | 0.66901    | 0.66901    |   0.0 |  0.97
Other   |            | 0.1753     |            |       |  0.25

Nlocal:    19652 ave 19652 max 19652 min
Histogram: 1 0 0 0 0 0 0 0 0 0
Nghost:    17156 ave 17156 max 17156 min
Histogram: 1 0 0 0 0 0 0 0 0 0
Neighs:    1.27393e+06 ave 1.27393e+06 max 1.27393e+06 min
Histogram: 1 0 0 0 0 0 0 0 0 0

Total # of neighbors = 1273931
Ave neighs/atom = 64.8245
Neighbor list builds = 495
Dangerous builds not checked
Setting up Verlet run ...
  Unit style    : metal
  Current step  : 46495
  Time step     : 0.001
Per MPI rank memory allocation (min/avg/max) = 18.2 | 18.2 | 18.2 Mbytes
Step Temp Press TotEng PotEng Enthalpy 
   46495     2268.704    1082.1548   -76218.746   -81981.461   -75957.048 
   48000    2253.9111   -893.67945   -76199.158   -81924.297   -76415.905 
Loop time of 234.073 on 1 procs for 1505 steps with 19652 atoms

Performance: 0.556 ns/day, 43.203 hours/ns, 6.430 timesteps/s
98.3% CPU use with 1 MPI tasks x no OpenMP threads

MPI task timing breakdown:
Section |  min time  |  avg time  |  max time  |%varavg| %total
---------------------------------------------------------------
Pair    | 129.38     | 129.38     | 129.38     |   0.0 | 55.27
Neigh   | 100.11     | 100.11     | 100.11     |   0.0 | 42.77
Comm    | 1.712      | 1.712      | 1.712      |   0.0 |  0.73
Output  | 0.096756   | 0.096756   | 0.096756   |   0.0 |  0.04
Modify  | 2.192      | 2.192      | 2.192      |   0.0 |  0.94
Other   |            | 0.5829     |            |       |  0.25

Nlocal:    19652 ave 19652 max 19652 min
Histogram: 1 0 0 0 0 0 0 0 0 0
Nghost:    17173 ave 17173 max 17173 min
Histogram: 1 0 0 0 0 0 0 0 0 0
Neighs:    1.2708e+06 ave 1.2708e+06 max 1.2708e+06 min
Histogram: 1 0 0 0 0 0 0 0 0 0

Total # of neighbors = 1270803
Ave neighs/atom = 64.6653
Neighbor list builds = 1505
Dangerous builds not checked
Setting up Verlet run ...
  Unit style    : metal
  Current step  : 48000
  Time step     : 0.001
Per MPI rank memory allocation (min/avg/max) = 18.2 | 18.2 | 18.2 Mbytes
Step Temp Press TotEng PotEng Enthalpy 
   48000    2253.9111   -893.67945   -76199.158   -81924.297   -76415.905 
   48495    2207.4058    208.89852   -76423.878    -82030.89   -76373.411 
Loop time of 67.0416 on 1 procs for 495 steps with 19652 atoms

Performance: 0.638 ns/day, 37.622 hours/ns, 7.383 timesteps/s
99.7% CPU use with 1 MPI tasks x no OpenMP threads

MPI task timing breakdown:
Section |  min time  |  avg time  |  max time  |%varavg| %total
---------------------------------------------------------------
Pair    | 36.588     | 36.588     | 36.588     |   0.0 | 54.58
Neigh   | 29.154     | 29.154     | 29.154     |   0.0 | 43.49
Comm    | 0.49227    | 0.49227    | 0.49227    |   0.0 |  0.73
Output  | 0.00013709 | 0.00013709 | 0.00013709 |   0.0 |  0.00
Modify  | 0.63714    | 0.63714    | 0.63714    |   0.0 |  0.95
Other   |            | 0.1698     |            |       |  0.25

Nlocal:    19652 ave 19652 max 19652 min
Histogram: 1 0 0 0 0 0 0 0 0 0
Nghost:    17166 ave 17166 max 17166 min
Histogram: 1 0 0 0 0 0 0 0 0 0
Neighs:    1.27529e+06 ave 1.27529e+06 max 1.27529e+06 min
Histogram: 1 0 0 0 0 0 0 0 0 0

Total # of neighbors = 1275287
Ave neighs/atom = 64.8935
Neighbor list builds = 495
Dangerous builds not checked
Setting up Verlet run ...
  Unit style    : metal
  Current step  : 48495
  Time step     : 0.001
Per MPI rank memory allocation (min/avg/max) = 18.2 | 18.2 | 18.2 Mbytes
Step Temp Press TotEng PotEng Enthalpy 
   48495    2207.4058    208.89852   -76423.878    -82030.89   -76373.411 
   50000    2177.9625    534.46611   -76522.809   -82055.032   -76393.652 
Loop time of 239.656 on 1 procs for 1505 steps with 19652 atoms

Performance: 0.543 ns/day, 44.233 hours/ns, 6.280 timesteps/s
98.4% CPU use with 1 MPI tasks x no OpenMP threads

MPI task timing breakdown:
Section |  min time  |  avg time  |  max time  |%varavg| %total
---------------------------------------------------------------
Pair    | 132.92     | 132.92     | 132.92     |   0.0 | 55.46
Neigh   | 102.11     | 102.11     | 102.11     |   0.0 | 42.61
Comm    | 1.7248     | 1.7248     | 1.7248     |   0.0 |  0.72
Output  | 0.11572    | 0.11572    | 0.11572    |   0.0 |  0.05
Modify  | 2.2233     | 2.2233     | 2.2233     |   0.0 |  0.93
Other   |            | 0.5658     |            |       |  0.24

Nlocal:    19652 ave 19652 max 19652 min
Histogram: 1 0 0 0 0 0 0 0 0 0
Nghost:    17190 ave 17190 max 17190 min
Histogram: 1 0 0 0 0 0 0 0 0 0
Neighs:    1.27486e+06 ave 1.27486e+06 max 1.27486e+06 min
Histogram: 1 0 0 0 0 0 0 0 0 0

Total # of neighbors = 1274864
Ave neighs/atom = 64.872
Neighbor list builds = 1505
Dangerous builds not checked
Setting up Verlet run ...
  Unit style    : metal
  Current step  : 50000
  Time step     : 0.001
Per MPI rank memory allocation (min/avg/max) = 18.2 | 18.2 | 18.2 Mbytes
Step Temp Press TotEng PotEng Enthalpy 
   50000    2177.9625    534.46611   -76522.809   -82055.032   -76393.652 
   50495    2163.6711    310.11797    -76599.05   -82094.972   -76524.094 
Loop time of 70.9325 on 1 procs for 495 steps with 19652 atoms

Performance: 0.603 ns/day, 39.805 hours/ns, 6.978 timesteps/s
99.2% CPU use with 1 MPI tasks x no OpenMP threads

MPI task timing breakdown:
Section |  min time  |  avg time  |  max time  |%varavg| %total
---------------------------------------------------------------
Pair    | 38.72      | 38.72      | 38.72      |   0.0 | 54.59
Neigh   | 30.827     | 30.827     | 30.827     |   0.0 | 43.46
Comm    | 0.5222     | 0.5222     | 0.5222     |   0.0 |  0.74
Output  | 0.00014997 | 0.00014997 | 0.00014997 |   0.0 |  0.00
Modify  | 0.68415    | 0.68415    | 0.68415    |   0.0 |  0.96
Other   |            | 0.1792     |            |       |  0.25

Nlocal:    19652 ave 19652 max 19652 min
Histogram: 1 0 0 0 0 0 0 0 0 0
Nghost:    17167 ave 17167 max 17167 min
Histogram: 1 0 0 0 0 0 0 0 0 0
Neighs:    1.27535e+06 ave 1.27535e+06 max 1.27535e+06 min
Histogram: 1 0 0 0 0 0 0 0 0 0

Total # of neighbors = 1275349
Ave neighs/atom = 64.8967
Neighbor list builds = 495
Dangerous builds not checked
Setting up Verlet run ...
  Unit style    : metal
  Current step  : 50495
  Time step     : 0.001
Per MPI rank memory allocation (min/avg/max) = 18.2 | 18.2 | 18.2 Mbytes
Step Temp Press TotEng PotEng Enthalpy 
   50495    2163.6711    310.11797    -76599.05   -82094.972   -76524.094 
   52000    2156.1414   -2803.0278   -76652.051   -82128.847   -77332.287 
Loop time of 233.53 on 1 procs for 1505 steps with 19652 atoms

Performance: 0.557 ns/day, 43.103 hours/ns, 6.445 timesteps/s
98.3% CPU use with 1 MPI tasks x no OpenMP threads

MPI task timing breakdown:
Section |  min time  |  avg time  |  max time  |%varavg| %total
---------------------------------------------------------------
Pair    | 128.46     | 128.46     | 128.46     |   0.0 | 55.01
Neigh   | 100.49     | 100.49     | 100.49     |   0.0 | 43.03
Comm    | 1.6672     | 1.6672     | 1.6672     |   0.0 |  0.71
Output  | 0.17663    | 0.17663    | 0.17663    |   0.0 |  0.08
Modify  | 2.1697     | 2.1697     | 2.1697     |   0.0 |  0.93
Other   |            | 0.5706     |            |       |  0.24

Nlocal:    19652 ave 19652 max 19652 min
Histogram: 1 0 0 0 0 0 0 0 0 0
Nghost:    17151 ave 17151 max 17151 min
Histogram: 1 0 0 0 0 0 0 0 0 0
Neighs:    1.26997e+06 ave 1.26997e+06 max 1.26997e+06 min
Histogram: 1 0 0 0 0 0 0 0 0 0

Total # of neighbors = 1269968
Ave neighs/atom = 64.6228
Neighbor list builds = 1505
Dangerous builds not checked
Setting up Verlet run ...
  Unit style    : metal
  Current step  : 52000
  Time step     : 0.001
Per MPI rank memory allocation (min/avg/max) = 18.2 | 18.2 | 18.2 Mbytes
Step Temp Press TotEng PotEng Enthalpy 
   52000    2156.1414   -2803.0278   -76652.051   -82128.847   -77332.287 
   52495    2097.4478     133.5954   -76899.639   -82227.348   -76867.426 
Loop time of 71.5903 on 1 procs for 495 steps with 19652 atoms

Performance: 0.597 ns/day, 40.174 hours/ns, 6.914 timesteps/s
98.7% CPU use with 1 MPI tasks x no OpenMP threads

MPI task timing breakdown:
Section |  min time  |  avg time  |  max time  |%varavg| %total
---------------------------------------------------------------
Pair    | 39.071     | 39.071     | 39.071     |   0.0 | 54.58
Neigh   | 31.131     | 31.131     | 31.131     |   0.0 | 43.48
Comm    | 0.51427    | 0.51427    | 0.51427    |   0.0 |  0.72
Output  | 0.00011706 | 0.00011706 | 0.00011706 |   0.0 |  0.00
Modify  | 0.6843     | 0.6843     | 0.6843     |   0.0 |  0.96
Other   |            | 0.1899     |            |       |  0.27

Nlocal:    19652 ave 19652 max 19652 min
Histogram: 1 0 0 0 0 0 0 0 0 0
Nghost:    17230 ave 17230 max 17230 min
Histogram: 1 0 0 0 0 0 0 0 0 0
Neighs:    1.27738e+06 ave 1.27738e+06 max 1.27738e+06 min
Histogram: 1 0 0 0 0 0 0 0 0 0

Total # of neighbors = 1277385
Ave neighs/atom = 65.0003
Neighbor list builds = 495
Dangerous builds not checked
Setting up Verlet run ...
  Unit style    : metal
  Current step  : 52495
  Time step     : 0.001
Per MPI rank memory allocation (min/avg/max) = 18.2 | 18.2 | 18.2 Mbytes
Step Temp Press TotEng PotEng Enthalpy 
   52495    2097.4478     133.5954   -76899.639   -82227.348   -76867.426 
   54000    2121.1408    605.72956    -76802.92   -82190.811   -76657.003 
Loop time of 262.282 on 1 procs for 1505 steps with 19652 atoms

Performance: 0.496 ns/day, 48.409 hours/ns, 5.738 timesteps/s
98.3% CPU use with 1 MPI tasks x no OpenMP threads

MPI task timing breakdown:
Section |  min time  |  avg time  |  max time  |%varavg| %total
---------------------------------------------------------------
Pair    | 148.32     | 148.32     | 148.32     |   0.0 | 56.55
Neigh   | 108.89     | 108.89     | 108.89     |   0.0 | 41.51
Comm    | 1.9132     | 1.9132     | 1.9132     |   0.0 |  0.73
Output  | 0.10391    | 0.10391    | 0.10391    |   0.0 |  0.04
Modify  | 2.3934     | 2.3934     | 2.3934     |   0.0 |  0.91
Other   |            | 0.6624     |            |       |  0.25

Nlocal:    19652 ave 19652 max 19652 min
Histogram: 1 0 0 0 0 0 0 0 0 0
Nghost:    17166 ave 17166 max 17166 min
Histogram: 1 0 0 0 0 0 0 0 0 0
Neighs:    1.27901e+06 ave 1.27901e+06 max 1.27901e+06 min
Histogram: 1 0 0 0 0 0 0 0 0 0

Total # of neighbors = 1279012
Ave neighs/atom = 65.083
Neighbor list builds = 1505
Dangerous builds not checked
Setting up Verlet run ...
  Unit style    : metal
  Current step  : 54000
  Time step     : 0.001
Per MPI rank memory allocation (min/avg/max) = 18.2 | 18.2 | 18.2 Mbytes
Step Temp Press TotEng PotEng Enthalpy 
   54000    2121.1408    605.72956    -76802.92   -82190.811   -76657.003 
   54495    2066.0304    677.84409   -77063.773   -82311.678   -76900.975 
Loop time of 81.3353 on 1 procs for 495 steps with 19652 atoms

Performance: 0.526 ns/day, 45.643 hours/ns, 6.086 timesteps/s
100.0% CPU use with 1 MPI tasks x no OpenMP threads

MPI task timing breakdown:
Section |  min time  |  avg time  |  max time  |%varavg| %total
---------------------------------------------------------------
Pair    | 45.802     | 45.802     | 45.802     |   0.0 | 56.31
Neigh   | 33.95      | 33.95      | 33.95      |   0.0 | 41.74
Comm    | 0.61113    | 0.61113    | 0.61113    |   0.0 |  0.75
Output  | 0.00018597 | 0.00018597 | 0.00018597 |   0.0 |  0.00
Modify  | 0.76126    | 0.76126    | 0.76126    |   0.0 |  0.94
Other   |            | 0.2111     |            |       |  0.26

Nlocal:    19652 ave 19652 max 19652 min
Histogram: 1 0 0 0 0 0 0 0 0 0
Nghost:    17148 ave 17148 max 17148 min
Histogram: 1 0 0 0 0 0 0 0 0 0
Neighs:    1.28342e+06 ave 1.28342e+06 max 1.28342e+06 min
Histogram: 1 0 0 0 0 0 0 0 0 0

Total # of neighbors = 1283415
Ave neighs/atom = 65.3071
Neighbor list builds = 495
Dangerous builds not checked
Setting up Verlet run ...
  Unit style    : metal
  Current step  : 54495
  Time step     : 0.001
Per MPI rank memory allocation (min/avg/max) = 18.2 | 18.2 | 18.2 Mbytes
Step Temp Press TotEng PotEng Enthalpy 
   54495    2066.0304    677.84409   -77063.773   -82311.678   -76900.975 
   56000    2045.9392   -354.63436   -77152.464   -82349.336   -77237.729 
Loop time of 249.809 on 1 procs for 1505 steps with 19652 atoms

Performance: 0.521 ns/day, 46.107 hours/ns, 6.025 timesteps/s
98.7% CPU use with 1 MPI tasks x no OpenMP threads

MPI task timing breakdown:
Section |  min time  |  avg time  |  max time  |%varavg| %total
---------------------------------------------------------------
Pair    | 139.98     | 139.98     | 139.98     |   0.0 | 56.04
Neigh   | 104.97     | 104.97     | 104.97     |   0.0 | 42.02
Comm    | 1.8456     | 1.8456     | 1.8456     |   0.0 |  0.74
Output  | 0.082215   | 0.082215   | 0.082215   |   0.0 |  0.03
Modify  | 2.2766     | 2.2766     | 2.2766     |   0.0 |  0.91
Other   |            | 0.6533     |            |       |  0.26

Nlocal:    19652 ave 19652 max 19652 min
Histogram: 1 0 0 0 0 0 0 0 0 0
Nghost:    17214 ave 17214 max 17214 min
Histogram: 1 0 0 0 0 0 0 0 0 0
Neighs:    1.28195e+06 ave 1.28195e+06 max 1.28195e+06 min
Histogram: 1 0 0 0 0 0 0 0 0 0

Total # of neighbors = 1281947
Ave neighs/atom = 65.2324
Neighbor list builds = 1505
Dangerous builds not checked
Setting up Verlet run ...
  Unit style    : metal
  Current step  : 56000
  Time step     : 0.001
Per MPI rank memory allocation (min/avg/max) = 18.2 | 18.2 | 18.2 Mbytes
Step Temp Press TotEng PotEng Enthalpy 
   56000    2045.9392   -354.63436   -77152.464   -82349.336   -77237.729 
   56495      2005.59   -843.79232   -77291.076   -82385.457   -77493.718 
Loop time of 82.0718 on 1 procs for 495 steps with 19652 atoms

Performance: 0.521 ns/day, 46.056 hours/ns, 6.031 timesteps/s
99.9% CPU use with 1 MPI tasks x no OpenMP threads

MPI task timing breakdown:
Section |  min time  |  avg time  |  max time  |%varavg| %total
---------------------------------------------------------------
Pair    | 45.797     | 45.797     | 45.797     |   0.0 | 55.80
Neigh   | 34.714     | 34.714     | 34.714     |   0.0 | 42.30
Comm    | 0.59783    | 0.59783    | 0.59783    |   0.0 |  0.73
Output  | 0.00016308 | 0.00016308 | 0.00016308 |   0.0 |  0.00
Modify  | 0.75692    | 0.75692    | 0.75692    |   0.0 |  0.92
Other   |            | 0.2052     |            |       |  0.25

Nlocal:    19652 ave 19652 max 19652 min
Histogram: 1 0 0 0 0 0 0 0 0 0
Nghost:    17225 ave 17225 max 17225 min
Histogram: 1 0 0 0 0 0 0 0 0 0
Neighs:    1.2827e+06 ave 1.2827e+06 max 1.2827e+06 min
Histogram: 1 0 0 0 0 0 0 0 0 0

Total # of neighbors = 1282696
Ave neighs/atom = 65.2705
Neighbor list builds = 495
Dangerous builds not checked
Setting up Verlet run ...
  Unit style    : metal
  Current step  : 56495
  Time step     : 0.001
Per MPI rank memory allocation (min/avg/max) = 18.2 | 18.2 | 18.2 Mbytes
Step Temp Press TotEng PotEng Enthalpy 
   56495      2005.59   -843.79232   -77291.076   -82385.457   -77493.718 
   58000    2001.8879   -668.08619   -77312.973   -82397.951   -77473.416 
Loop time of 258.707 on 1 procs for 1505 steps with 19652 atoms

Performance: 0.503 ns/day, 47.750 hours/ns, 5.817 timesteps/s
98.7% CPU use with 1 MPI tasks x no OpenMP threads

MPI task timing breakdown:
Section |  min time  |  avg time  |  max time  |%varavg| %total
---------------------------------------------------------------
Pair    | 145.14     | 145.14     | 145.14     |   0.0 | 56.10
Neigh   | 108.55     | 108.55     | 108.55     |   0.0 | 41.96
Comm    | 1.9081     | 1.9081     | 1.9081     |   0.0 |  0.74
Output  | 0.079042   | 0.079042   | 0.079042   |   0.0 |  0.03
Modify  | 2.3813     | 2.3813     | 2.3813     |   0.0 |  0.92
Other   |            | 0.6488     |            |       |  0.25

Nlocal:    19652 ave 19652 max 19652 min
Histogram: 1 0 0 0 0 0 0 0 0 0
Nghost:    17233 ave 17233 max 17233 min
Histogram: 1 0 0 0 0 0 0 0 0 0
Neighs:    1.28333e+06 ave 1.28333e+06 max 1.28333e+06 min
Histogram: 1 0 0 0 0 0 0 0 0 0

Total # of neighbors = 1283328
Ave neighs/atom = 65.3027
Neighbor list builds = 1505
Dangerous builds not checked
Setting up Verlet run ...
  Unit style    : metal
  Current step  : 58000
  Time step     : 0.001
Per MPI rank memory allocation (min/avg/max) = 18.2 | 18.2 | 18.2 Mbytes
Step Temp Press TotEng PotEng Enthalpy 
   58000    2001.8879   -668.08619   -77312.973   -82397.951   -77473.416 
   58495    1956.3427    552.44216   -77514.759   -82484.048   -77382.512 
Loop time of 87.8366 on 1 procs for 495 steps with 19652 atoms

Performance: 0.487 ns/day, 49.291 hours/ns, 5.635 timesteps/s
98.4% CPU use with 1 MPI tasks x no OpenMP threads

MPI task timing breakdown:
Section |  min time  |  avg time  |  max time  |%varavg| %total
---------------------------------------------------------------
Pair    | 49.792     | 49.792     | 49.792     |   0.0 | 56.69
Neigh   | 36.307     | 36.307     | 36.307     |   0.0 | 41.34
Comm    | 0.66051    | 0.66051    | 0.66051    |   0.0 |  0.75
Output  | 0.00019193 | 0.00019193 | 0.00019193 |   0.0 |  0.00
Modify  | 0.84262    | 0.84262    | 0.84262    |   0.0 |  0.96
Other   |            | 0.2334     |            |       |  0.27

Nlocal:    19652 ave 19652 max 19652 min
Histogram: 1 0 0 0 0 0 0 0 0 0
Nghost:    17265 ave 17265 max 17265 min
Histogram: 1 0 0 0 0 0 0 0 0 0
Neighs:    1.28715e+06 ave 1.28715e+06 max 1.28715e+06 min
Histogram: 1 0 0 0 0 0 0 0 0 0

Total # of neighbors = 1287153
Ave neighs/atom = 65.4973
Neighbor list builds = 495
Dangerous builds not checked
Setting up Verlet run ...
  Unit style    : metal
  Current step  : 58495
  Time step     : 0.001
Per MPI rank memory allocation (min/avg/max) = 18.2 | 18.2 | 18.2 Mbytes
Step Temp Press TotEng PotEng Enthalpy 
   58495    1956.3427    552.44216   -77514.759   -82484.048   -77382.512 
   60000    1948.5422   -206.20919   -77585.833   -82535.308   -77635.152 
Loop time of 244.41 on 1 procs for 1505 steps with 19652 atoms

Performance: 0.532 ns/day, 45.111 hours/ns, 6.158 timesteps/s
98.4% CPU use with 1 MPI tasks x no OpenMP threads

MPI task timing breakdown:
Section |  min time  |  avg time  |  max time  |%varavg| %total
---------------------------------------------------------------
Pair    | 135.93     | 135.93     | 135.93     |   0.0 | 55.62
Neigh   | 103.53     | 103.53     | 103.53     |   0.0 | 42.36
Comm    | 1.7987     | 1.7987     | 1.7987     |   0.0 |  0.74
Output  | 0.19149    | 0.19149    | 0.19149    |   0.0 |  0.08
Modify  | 2.3436     | 2.3436     | 2.3436     |   0.0 |  0.96
Other   |            | 0.6165     |            |       |  0.25

Nlocal:    19652 ave 19652 max 19652 min
Histogram: 1 0 0 0 0 0 0 0 0 0
Nghost:    17334 ave 17334 max 17334 min
Histogram: 1 0 0 0 0 0 0 0 0 0
Neighs:    1.28857e+06 ave 1.28857e+06 max 1.28857e+06 min
Histogram: 1 0 0 0 0 0 0 0 0 0

Total # of neighbors = 1288566
Ave neighs/atom = 65.5692
Neighbor list builds = 1505
Dangerous builds not checked
Setting up Verlet run ...
  Unit style    : metal
  Current step  : 60000
  Time step     : 0.001
Per MPI rank memory allocation (min/avg/max) = 18.2 | 18.2 | 18.2 Mbytes
Step Temp Press TotEng PotEng Enthalpy 
   60000    1948.5422   -206.20919   -77585.833   -82535.308   -77635.152 
   60495    1909.7532   -94.310477   -77783.937   -82634.884   -77806.474 
Loop time of 76.5332 on 1 procs for 495 steps with 19652 atoms

Performance: 0.559 ns/day, 42.948 hours/ns, 6.468 timesteps/s
96.2% CPU use with 1 MPI tasks x no OpenMP threads

MPI task timing breakdown:
Section |  min time  |  avg time  |  max time  |%varavg| %total
---------------------------------------------------------------
Pair    | 41.648     | 41.648     | 41.648     |   0.0 | 54.42
Neigh   | 33.329     | 33.329     | 33.329     |   0.0 | 43.55
Comm    | 0.57238    | 0.57238    | 0.57238    |   0.0 |  0.75
Output  | 0.00015092 | 0.00015092 | 0.00015092 |   0.0 |  0.00
Modify  | 0.78543    | 0.78543    | 0.78543    |   0.0 |  1.03
Other   |            | 0.199      |            |       |  0.26

Nlocal:    19652 ave 19652 max 19652 min
Histogram: 1 0 0 0 0 0 0 0 0 0
Nghost:    17236 ave 17236 max 17236 min
Histogram: 1 0 0 0 0 0 0 0 0 0
Neighs:    1.28944e+06 ave 1.28944e+06 max 1.28944e+06 min
Histogram: 1 0 0 0 0 0 0 0 0 0

Total # of neighbors = 1289437
Ave neighs/atom = 65.6135
Neighbor list builds = 495
Dangerous builds not checked
Setting up Verlet run ...
  Unit style    : metal
  Current step  : 60495
  Time step     : 0.001
Per MPI rank memory allocation (min/avg/max) = 18.2 | 18.2 | 18.2 Mbytes
Step Temp Press TotEng PotEng Enthalpy 
   60495    1909.7532   -94.310477   -77783.937   -82634.884   -77806.474 
   62000    1906.9055    555.48245   -77776.787     -82620.5   -77644.161 
Loop time of 211.271 on 1 procs for 1505 steps with 19652 atoms

Performance: 0.615 ns/day, 38.994 hours/ns, 7.124 timesteps/s
99.4% CPU use with 1 MPI tasks x no OpenMP threads

MPI task timing breakdown:
Section |  min time  |  avg time  |  max time  |%varavg| %total
---------------------------------------------------------------
Pair    | 114.39     | 114.39     | 114.39     |   0.0 | 54.14
Neigh   | 92.635     | 92.635     | 92.635     |   0.0 | 43.85
Comm    | 1.6194     | 1.6194     | 1.6194     |   0.0 |  0.77
Output  | 0.080338   | 0.080338   | 0.080338   |   0.0 |  0.04
Modify  | 2.0209     | 2.0209     | 2.0209     |   0.0 |  0.96
Other   |            | 0.5285     |            |       |  0.25

Nlocal:    19652 ave 19652 max 19652 min
Histogram: 1 0 0 0 0 0 0 0 0 0
Nghost:    17251 ave 17251 max 17251 min
Histogram: 1 0 0 0 0 0 0 0 0 0
Neighs:    1.29112e+06 ave 1.29112e+06 max 1.29112e+06 min
Histogram: 1 0 0 0 0 0 0 0 0 0

Total # of neighbors = 1291115
Ave neighs/atom = 65.6989
Neighbor list builds = 1505
Dangerous builds not checked
Setting up Verlet run ...
  Unit style    : metal
  Current step  : 62000
  Time step     : 0.001
Per MPI rank memory allocation (min/avg/max) = 18.2 | 18.2 | 18.2 Mbytes
Step Temp Press TotEng PotEng Enthalpy 
   62000    1906.9055    555.48245   -77776.787     -82620.5   -77644.161 
   62495    1866.1009   -393.95464   -77963.493   -82703.559   -78057.483 
Loop time of 67.8575 on 1 procs for 495 steps with 19652 atoms

Performance: 0.630 ns/day, 38.079 hours/ns, 7.295 timesteps/s
99.0% CPU use with 1 MPI tasks x no OpenMP threads

MPI task timing breakdown:
Section |  min time  |  avg time  |  max time  |%varavg| %total
---------------------------------------------------------------
Pair    | 36.656     | 36.656     | 36.656     |   0.0 | 54.02
Neigh   | 29.866     | 29.866     | 29.866     |   0.0 | 44.01
Comm    | 0.49505    | 0.49505    | 0.49505    |   0.0 |  0.73
Output  | 0.00015688 | 0.00015688 | 0.00015688 |   0.0 |  0.00
Modify  | 0.66766    | 0.66766    | 0.66766    |   0.0 |  0.98
Other   |            | 0.1729     |            |       |  0.25

Nlocal:    19652 ave 19652 max 19652 min
Histogram: 1 0 0 0 0 0 0 0 0 0
Nghost:    17246 ave 17246 max 17246 min
Histogram: 1 0 0 0 0 0 0 0 0 0
Neighs:    1.29156e+06 ave 1.29156e+06 max 1.29156e+06 min
Histogram: 1 0 0 0 0 0 0 0 0 0

Total # of neighbors = 1291564
Ave neighs/atom = 65.7218
Neighbor list builds = 495
Dangerous builds not checked
Setting up Verlet run ...
  Unit style    : metal
  Current step  : 62495
  Time step     : 0.001
Per MPI rank memory allocation (min/avg/max) = 18.2 | 18.2 | 18.2 Mbytes
Step Temp Press TotEng PotEng Enthalpy 
   62495    1866.1009   -393.95464   -77963.493   -82703.559   -78057.483 
   64000    1848.8806   -401.58464   -78030.916   -82727.241   -78126.877 
Loop time of 210.863 on 1 procs for 1505 steps with 19652 atoms

Performance: 0.617 ns/day, 38.919 hours/ns, 7.137 timesteps/s
99.1% CPU use with 1 MPI tasks x no OpenMP threads

MPI task timing breakdown:
Section |  min time  |  avg time  |  max time  |%varavg| %total
---------------------------------------------------------------
Pair    | 114.12     | 114.12     | 114.12     |   0.0 | 54.12
Neigh   | 92.539     | 92.539     | 92.539     |   0.0 | 43.89
Comm    | 1.5728     | 1.5728     | 1.5728     |   0.0 |  0.75
Output  | 0.063539   | 0.063539   | 0.063539   |   0.0 |  0.03
Modify  | 2.029      | 2.029      | 2.029      |   0.0 |  0.96
Other   |            | 0.5428     |            |       |  0.26

Nlocal:    19652 ave 19652 max 19652 min
Histogram: 1 0 0 0 0 0 0 0 0 0
Nghost:    17155 ave 17155 max 17155 min
Histogram: 1 0 0 0 0 0 0 0 0 0
Neighs:    1.2897e+06 ave 1.2897e+06 max 1.2897e+06 min
Histogram: 1 0 0 0 0 0 0 0 0 0

Total # of neighbors = 1289703
Ave neighs/atom = 65.6271
Neighbor list builds = 1505
Dangerous builds not checked
Setting up Verlet run ...
  Unit style    : metal
  Current step  : 64000
  Time step     : 0.001
Per MPI rank memory allocation (min/avg/max) = 18.2 | 18.2 | 18.2 Mbytes
Step Temp Press TotEng PotEng Enthalpy 
   64000    1848.8806   -401.58464   -78030.916   -82727.241   -78126.877 
   64495    1806.6815    295.91151   -78224.329   -82813.465   -78153.904 
Loop time of 77.6468 on 1 procs for 495 steps with 19652 atoms

Performance: 0.551 ns/day, 43.573 hours/ns, 6.375 timesteps/s
100.0% CPU use with 1 MPI tasks x no OpenMP threads

MPI task timing breakdown:
Section |  min time  |  avg time  |  max time  |%varavg| %total
---------------------------------------------------------------
Pair    | 43.072     | 43.072     | 43.072     |   0.0 | 55.47
Neigh   | 33.103     | 33.103     | 33.103     |   0.0 | 42.63
Comm    | 0.56159    | 0.56159    | 0.56159    |   0.0 |  0.72
Output  | 0.00018716 | 0.00018716 | 0.00018716 |   0.0 |  0.00
Modify  | 0.71276    | 0.71276    | 0.71276    |   0.0 |  0.92
Other   |            | 0.1975     |            |       |  0.25

Nlocal:    19652 ave 19652 max 19652 min
Histogram: 1 0 0 0 0 0 0 0 0 0
Nghost:    17315 ave 17315 max 17315 min
Histogram: 1 0 0 0 0 0 0 0 0 0
Neighs:    1.29445e+06 ave 1.29445e+06 max 1.29445e+06 min
Histogram: 1 0 0 0 0 0 0 0 0 0

Total # of neighbors = 1294447
Ave neighs/atom = 65.8685
Neighbor list builds = 495
Dangerous builds not checked
Setting up Verlet run ...
  Unit style    : metal
  Current step  : 64495
  Time step     : 0.001
Per MPI rank memory allocation (min/avg/max) = 18.2 | 18.2 | 18.2 Mbytes
Step Temp Press TotEng PotEng Enthalpy 
   64495    1806.6815    295.91151   -78224.329   -82813.465   -78153.904 
   66000    1823.4803   -141.46587   -78235.292   -82867.098   -78268.978 
Loop time of 249.945 on 1 procs for 1505 steps with 19652 atoms

Performance: 0.520 ns/day, 46.132 hours/ns, 6.021 timesteps/s
98.1% CPU use with 1 MPI tasks x no OpenMP threads

MPI task timing breakdown:
Section |  min time  |  avg time  |  max time  |%varavg| %total
---------------------------------------------------------------
Pair    | 139.16     | 139.16     | 139.16     |   0.0 | 55.68
Neigh   | 105.75     | 105.75     | 105.75     |   0.0 | 42.31
Comm    | 1.9196     | 1.9196     | 1.9196     |   0.0 |  0.77
Output  | 0.16913    | 0.16913    | 0.16913    |   0.0 |  0.07
Modify  | 2.2928     | 2.2928     | 2.2928     |   0.0 |  0.92
Other   |            | 0.6548     |            |       |  0.26

Nlocal:    19652 ave 19652 max 19652 min
Histogram: 1 0 0 0 0 0 0 0 0 0
Nghost:    17314 ave 17314 max 17314 min
Histogram: 1 0 0 0 0 0 0 0 0 0
Neighs:    1.29407e+06 ave 1.29407e+06 max 1.29407e+06 min
Histogram: 1 0 0 0 0 0 0 0 0 0

Total # of neighbors = 1294069
Ave neighs/atom = 65.8492
Neighbor list builds = 1505
Dangerous builds not checked
Setting up Verlet run ...
  Unit style    : metal
  Current step  : 66000
  Time step     : 0.001
Per MPI rank memory allocation (min/avg/max) = 18.2 | 18.2 | 18.2 Mbytes
Step Temp Press TotEng PotEng Enthalpy 
   66000    1823.4803   -141.46587   -78235.292   -82867.098   -78268.978 
   66495    1745.0693   -758.99036   -78453.262   -82885.897   -78633.695 
Loop time of 68.7564 on 1 procs for 495 steps with 19652 atoms

Performance: 0.622 ns/day, 38.584 hours/ns, 7.199 timesteps/s
99.3% CPU use with 1 MPI tasks x no OpenMP threads

MPI task timing breakdown:
Section |  min time  |  avg time  |  max time  |%varavg| %total
---------------------------------------------------------------
Pair    | 37.044     | 37.044     | 37.044     |   0.0 | 53.88
Neigh   | 30.352     | 30.352     | 30.352     |   0.0 | 44.14
Comm    | 0.5102     | 0.5102     | 0.5102     |   0.0 |  0.74
Output  | 0.00013304 | 0.00013304 | 0.00013304 |   0.0 |  0.00
Modify  | 0.67246    | 0.67246    | 0.67246    |   0.0 |  0.98
Other   |            | 0.177      |            |       |  0.26

Nlocal:    19652 ave 19652 max 19652 min
Histogram: 1 0 0 0 0 0 0 0 0 0
Nghost:    17357 ave 17357 max 17357 min
Histogram: 1 0 0 0 0 0 0 0 0 0
Neighs:    1.2963e+06 ave 1.2963e+06 max 1.2963e+06 min
Histogram: 1 0 0 0 0 0 0 0 0 0

Total # of neighbors = 1296298
Ave neighs/atom = 65.9627
Neighbor list builds = 495
Dangerous builds not checked
Setting up Verlet run ...
  Unit style    : metal
  Current step  : 66495
  Time step     : 0.001
Per MPI rank memory allocation (min/avg/max) = 18.2 | 18.2 | 18.2 Mbytes
Step Temp Press TotEng PotEng Enthalpy 
   66495    1745.0693   -758.99036   -78453.262   -82885.897   -78633.695 
   68000    1757.2571    612.48275   -78457.609   -82921.202   -78312.365 
Loop time of 230.113 on 1 procs for 1505 steps with 19652 atoms

Performance: 0.565 ns/day, 42.472 hours/ns, 6.540 timesteps/s
96.3% CPU use with 1 MPI tasks x no OpenMP threads

MPI task timing breakdown:
Section |  min time  |  avg time  |  max time  |%varavg| %total
---------------------------------------------------------------
Pair    | 123.23     | 123.23     | 123.23     |   0.0 | 53.55
Neigh   | 96.163     | 96.163     | 96.163     |   0.0 | 41.79
Comm    | 1.7336     | 1.7336     | 1.7336     |   0.0 |  0.75
Output  | 6.3104     | 6.3104     | 6.3104     |   0.0 |  2.74
Modify  | 2.1067     | 2.1067     | 2.1067     |   0.0 |  0.92
Other   |            | 0.5734     |            |       |  0.25

Nlocal:    19652 ave 19652 max 19652 min
Histogram: 1 0 0 0 0 0 0 0 0 0
Nghost:    17330 ave 17330 max 17330 min
Histogram: 1 0 0 0 0 0 0 0 0 0
Neighs:    1.29962e+06 ave 1.29962e+06 max 1.29962e+06 min
Histogram: 1 0 0 0 0 0 0 0 0 0

Total # of neighbors = 1299620
Ave neighs/atom = 66.1317
Neighbor list builds = 1505
Dangerous builds not checked
Setting up Verlet run ...
  Unit style    : metal
  Current step  : 68000
  Time step     : 0.001
Per MPI rank memory allocation (min/avg/max) = 18.2 | 18.2 | 18.2 Mbytes
Step Temp Press TotEng PotEng Enthalpy 
   68000    1757.2571    612.48275   -78457.609   -82921.202   -78312.365 
   68495    1706.2484   -80.729145   -78690.721   -83024.747   -78709.859 
Loop time of 72.1533 on 1 procs for 495 steps with 19652 atoms

Performance: 0.593 ns/day, 40.490 hours/ns, 6.860 timesteps/s
99.5% CPU use with 1 MPI tasks x no OpenMP threads

MPI task timing breakdown:
Section |  min time  |  avg time  |  max time  |%varavg| %total
---------------------------------------------------------------
Pair    | 39.481     | 39.481     | 39.481     |   0.0 | 54.72
Neigh   | 31.249     | 31.249     | 31.249     |   0.0 | 43.31
Comm    | 0.53486    | 0.53486    | 0.53486    |   0.0 |  0.74
Output  | 0.00015497 | 0.00015497 | 0.00015497 |   0.0 |  0.00
Modify  | 0.70311    | 0.70311    | 0.70311    |   0.0 |  0.97
Other   |            | 0.186      |            |       |  0.26

Nlocal:    19652 ave 19652 max 19652 min
Histogram: 1 0 0 0 0 0 0 0 0 0
Nghost:    17343 ave 17343 max 17343 min
Histogram: 1 0 0 0 0 0 0 0 0 0
Neighs:    1.30026e+06 ave 1.30026e+06 max 1.30026e+06 min
Histogram: 1 0 0 0 0 0 0 0 0 0

Total # of neighbors = 1300262
Ave neighs/atom = 66.1644
Neighbor list builds = 495
Dangerous builds not checked
Setting up Verlet run ...
  Unit style    : metal
  Current step  : 68495
  Time step     : 0.001
Per MPI rank memory allocation (min/avg/max) = 18.2 | 18.2 | 18.2 Mbytes
Step Temp Press TotEng PotEng Enthalpy 
   68495    1706.2484   -80.729145   -78690.721   -83024.747   -78709.859 
   70000    1703.0009   -879.06782   -78724.505   -83050.282    -78933.06 
Loop time of 238.685 on 1 procs for 1505 steps with 19652 atoms

Performance: 0.545 ns/day, 44.054 hours/ns, 6.305 timesteps/s
98.6% CPU use with 1 MPI tasks x no OpenMP threads

MPI task timing breakdown:
Section |  min time  |  avg time  |  max time  |%varavg| %total
---------------------------------------------------------------
Pair    | 132.02     | 132.02     | 132.02     |   0.0 | 55.31
Neigh   | 101.8      | 101.8      | 101.8      |   0.0 | 42.65
Comm    | 1.8194     | 1.8194     | 1.8194     |   0.0 |  0.76
Output  | 0.18748    | 0.18748    | 0.18748    |   0.0 |  0.08
Modify  | 2.2314     | 2.2314     | 2.2314     |   0.0 |  0.93
Other   |            | 0.6194     |            |       |  0.26

Nlocal:    19652 ave 19652 max 19652 min
Histogram: 1 0 0 0 0 0 0 0 0 0
Nghost:    17368 ave 17368 max 17368 min
Histogram: 1 0 0 0 0 0 0 0 0 0
Neighs:    1.29935e+06 ave 1.29935e+06 max 1.29935e+06 min
Histogram: 1 0 0 0 0 0 0 0 0 0

Total # of neighbors = 1299348
Ave neighs/atom = 66.1179
Neighbor list builds = 1505
Dangerous builds not checked
Setting up Verlet run ...
  Unit style    : metal
  Current step  : 70000
  Time step     : 0.001
Per MPI rank memory allocation (min/avg/max) = 18.2 | 18.2 | 18.2 Mbytes
Step Temp Press TotEng PotEng Enthalpy 
   70000    1703.0009   -879.06782   -78724.505   -83050.282    -78933.06 
   70495    1653.4103   -1568.0096   -78910.945   -83110.758   -79282.651 
Loop time of 69.8614 on 1 procs for 495 steps with 19652 atoms

Performance: 0.612 ns/day, 39.204 hours/ns, 7.085 timesteps/s
99.6% CPU use with 1 MPI tasks x no OpenMP threads

MPI task timing breakdown:
Section |  min time  |  avg time  |  max time  |%varavg| %total
---------------------------------------------------------------
Pair    | 38.304     | 38.304     | 38.304     |   0.0 | 54.83
Neigh   | 30.136     | 30.136     | 30.136     |   0.0 | 43.14
Comm    | 0.55463    | 0.55463    | 0.55463    |   0.0 |  0.79
Output  | 0.00016618 | 0.00016618 | 0.00016618 |   0.0 |  0.00
Modify  | 0.67564    | 0.67564    | 0.67564    |   0.0 |  0.97
Other   |            | 0.1907     |            |       |  0.27

Nlocal:    19652 ave 19652 max 19652 min
Histogram: 1 0 0 0 0 0 0 0 0 0
Nghost:    17293 ave 17293 max 17293 min
Histogram: 1 0 0 0 0 0 0 0 0 0
Neighs:    1.30052e+06 ave 1.30052e+06 max 1.30052e+06 min
Histogram: 1 0 0 0 0 0 0 0 0 0

Total # of neighbors = 1300519
Ave neighs/atom = 66.1774
Neighbor list builds = 495
Dangerous builds not checked
Setting up Verlet run ...
  Unit style    : metal
  Current step  : 70495
  Time step     : 0.001
Per MPI rank memory allocation (min/avg/max) = 18.2 | 18.2 | 18.2 Mbytes
Step Temp Press TotEng PotEng Enthalpy 
   70495    1653.4103   -1568.0096   -78910.945   -83110.758   -79282.651 
   72000     1665.184   -3.1479806   -78945.399   -83175.118   -78946.144 
Loop time of 227.998 on 1 procs for 1505 steps with 19652 atoms

Performance: 0.570 ns/day, 42.082 hours/ns, 6.601 timesteps/s
99.3% CPU use with 1 MPI tasks x no OpenMP threads

MPI task timing breakdown:
Section |  min time  |  avg time  |  max time  |%varavg| %total
---------------------------------------------------------------
Pair    | 125.42     | 125.42     | 125.42     |   0.0 | 55.01
Neigh   | 97.987     | 97.987     | 97.987     |   0.0 | 42.98
Comm    | 1.7354     | 1.7354     | 1.7354     |   0.0 |  0.76
Output  | 0.080153   | 0.080153   | 0.080153   |   0.0 |  0.04
Modify  | 2.1598     | 2.1598     | 2.1598     |   0.0 |  0.95
Other   |            | 0.6152     |            |       |  0.27

Nlocal:    19652 ave 19652 max 19652 min
Histogram: 1 0 0 0 0 0 0 0 0 0
Nghost:    17341 ave 17341 max 17341 min
Histogram: 1 0 0 0 0 0 0 0 0 0
Neighs:    1.3028e+06 ave 1.3028e+06 max 1.3028e+06 min
Histogram: 1 0 0 0 0 0 0 0 0 0

Total # of neighbors = 1302800
Ave neighs/atom = 66.2935
Neighbor list builds = 1505
Dangerous builds not checked
Setting up Verlet run ...
  Unit style    : metal
  Current step  : 72000
  Time step     : 0.001
Per MPI rank memory allocation (min/avg/max) = 18.2 | 18.2 | 18.2 Mbytes
Step Temp Press TotEng PotEng Enthalpy 
   72000     1665.184   -3.1479806   -78945.399   -83175.118   -78946.144 
   72495    1621.2784    724.59873   -79140.316   -83258.511   -78969.066 
Loop time of 73.0715 on 1 procs for 495 steps with 19652 atoms

Performance: 0.585 ns/day, 41.005 hours/ns, 6.774 timesteps/s
99.0% CPU use with 1 MPI tasks x no OpenMP threads

MPI task timing breakdown:
Section |  min time  |  avg time  |  max time  |%varavg| %total
---------------------------------------------------------------
Pair    | 39.366     | 39.366     | 39.366     |   0.0 | 53.87
Neigh   | 32.199     | 32.199     | 32.199     |   0.0 | 44.06
Comm    | 0.56512    | 0.56512    | 0.56512    |   0.0 |  0.77
Output  | 0.00019217 | 0.00019217 | 0.00019217 |   0.0 |  0.00
Modify  | 0.73269    | 0.73269    | 0.73269    |   0.0 |  1.00
Other   |            | 0.2091     |            |       |  0.29

Nlocal:    19652 ave 19652 max 19652 min
Histogram: 1 0 0 0 0 0 0 0 0 0
Nghost:    17417 ave 17417 max 17417 min
Histogram: 1 0 0 0 0 0 0 0 0 0
Neighs:    1.30439e+06 ave 1.30439e+06 max 1.30439e+06 min
Histogram: 1 0 0 0 0 0 0 0 0 0

Total # of neighbors = 1304388
Ave neighs/atom = 66.3743
Neighbor list builds = 495
Dangerous builds not checked
Setting up Verlet run ...
  Unit style    : metal
  Current step  : 72495
  Time step     : 0.001
Per MPI rank memory allocation (min/avg/max) = 18.2 | 18.2 | 18.2 Mbytes
Step Temp Press TotEng PotEng Enthalpy 
   72495    1621.2784    724.59873   -79140.316   -83258.511   -78969.066 
   74000    1593.5352    608.06466   -79238.144   -83285.868   -79094.581 
Loop time of 233.909 on 1 procs for 1505 steps with 19652 atoms

Performance: 0.556 ns/day, 43.173 hours/ns, 6.434 timesteps/s
97.8% CPU use with 1 MPI tasks x no OpenMP threads

MPI task timing breakdown:
Section |  min time  |  avg time  |  max time  |%varavg| %total
---------------------------------------------------------------
Pair    | 129.4      | 129.4      | 129.4      |   0.0 | 55.32
Neigh   | 99.774     | 99.774     | 99.774     |   0.0 | 42.66
Comm    | 1.7781     | 1.7781     | 1.7781     |   0.0 |  0.76
Output  | 0.11458    | 0.11458    | 0.11458    |   0.0 |  0.05
Modify  | 2.2018     | 2.2018     | 2.2018     |   0.0 |  0.94
Other   |            | 0.6398     |            |       |  0.27

Nlocal:    19652 ave 19652 max 19652 min
Histogram: 1 0 0 0 0 0 0 0 0 0
Nghost:    17300 ave 17300 max 17300 min
Histogram: 1 0 0 0 0 0 0 0 0 0
Neighs:    1.30516e+06 ave 1.30516e+06 max 1.30516e+06 min
Histogram: 1 0 0 0 0 0 0 0 0 0

Total # of neighbors = 1305155
Ave neighs/atom = 66.4133
Neighbor list builds = 1505
Dangerous builds not checked
Setting up Verlet run ...
  Unit style    : metal
  Current step  : 74000
  Time step     : 0.001
Per MPI rank memory allocation (min/avg/max) = 18.2 | 18.2 | 18.2 Mbytes
Step Temp Press TotEng PotEng Enthalpy 
   74000    1593.5352    608.06466   -79238.144   -83285.868   -79094.581 
   74495    1567.7853   -226.31044   -79422.593   -83404.911   -79475.999 
Loop time of 75.0277 on 1 procs for 495 steps with 19652 atoms

Performance: 0.570 ns/day, 42.103 hours/ns, 6.598 timesteps/s
98.9% CPU use with 1 MPI tasks x no OpenMP threads

MPI task timing breakdown:
Section |  min time  |  avg time  |  max time  |%varavg| %total
---------------------------------------------------------------
Pair    | 41.71      | 41.71      | 41.71      |   0.0 | 55.59
Neigh   | 31.776     | 31.776     | 31.776     |   0.0 | 42.35
Comm    | 0.58399    | 0.58399    | 0.58399    |   0.0 |  0.78
Output  | 0.00017905 | 0.00017905 | 0.00017905 |   0.0 |  0.00
Modify  | 0.75228    | 0.75228    | 0.75228    |   0.0 |  1.00
Other   |            | 0.2045     |            |       |  0.27

Nlocal:    19652 ave 19652 max 19652 min
Histogram: 1 0 0 0 0 0 0 0 0 0
Nghost:    17308 ave 17308 max 17308 min
Histogram: 1 0 0 0 0 0 0 0 0 0
Neighs:    1.30641e+06 ave 1.30641e+06 max 1.30641e+06 min
Histogram: 1 0 0 0 0 0 0 0 0 0

Total # of neighbors = 1306406
Ave neighs/atom = 66.477
Neighbor list builds = 495
Dangerous builds not checked
Setting up Verlet run ...
  Unit style    : metal
  Current step  : 74495
  Time step     : 0.001
Per MPI rank memory allocation (min/avg/max) = 18.2 | 18.2 | 18.2 Mbytes
Step Temp Press TotEng PotEng Enthalpy 
   74495    1567.7853   -226.31044   -79422.593   -83404.911   -79475.999 
   76000    1553.7744   -112.00023   -79465.893   -83412.621   -79492.337 
Loop time of 224.469 on 1 procs for 1505 steps with 19652 atoms

Performance: 0.579 ns/day, 41.430 hours/ns, 6.705 timesteps/s
98.1% CPU use with 1 MPI tasks x no OpenMP threads

MPI task timing breakdown:
Section |  min time  |  avg time  |  max time  |%varavg| %total
---------------------------------------------------------------
Pair    | 123.16     | 123.16     | 123.16     |   0.0 | 54.87
Neigh   | 96.755     | 96.755     | 96.755     |   0.0 | 43.10
Comm    | 1.6899     | 1.6899     | 1.6899     |   0.0 |  0.75
Output  | 0.058249   | 0.058249   | 0.058249   |   0.0 |  0.03
Modify  | 2.1972     | 2.1972     | 2.1972     |   0.0 |  0.98
Other   |            | 0.6056     |            |       |  0.27

Nlocal:    19652 ave 19652 max 19652 min
Histogram: 1 0 0 0 0 0 0 0 0 0
Nghost:    17342 ave 17342 max 17342 min
Histogram: 1 0 0 0 0 0 0 0 0 0
Neighs:    1.30521e+06 ave 1.30521e+06 max 1.30521e+06 min
Histogram: 1 0 0 0 0 0 0 0 0 0

Total # of neighbors = 1305206
Ave neighs/atom = 66.4159
Neighbor list builds = 1505
Dangerous builds not checked
Setting up Verlet run ...
  Unit style    : metal
  Current step  : 76000
  Time step     : 0.001
Per MPI rank memory allocation (min/avg/max) = 18.2 | 18.2 | 18.2 Mbytes
Step Temp Press TotEng PotEng Enthalpy 
   76000    1553.7744   -112.00023   -79465.893   -83412.621   -79492.337 
   76495    1510.2658   -320.43884   -79682.959   -83519.172   -79758.482 
Loop time of 77.163 on 1 procs for 495 steps with 19652 atoms

Performance: 0.554 ns/day, 43.301 hours/ns, 6.415 timesteps/s
99.1% CPU use with 1 MPI tasks x no OpenMP threads

MPI task timing breakdown:
Section |  min time  |  avg time  |  max time  |%varavg| %total
---------------------------------------------------------------
Pair    | 42.159     | 42.159     | 42.159     |   0.0 | 54.64
Neigh   | 33.425     | 33.425     | 33.425     |   0.0 | 43.32
Comm    | 0.60737    | 0.60737    | 0.60737    |   0.0 |  0.79
Output  | 0.00014305 | 0.00014305 | 0.00014305 |   0.0 |  0.00
Modify  | 0.75755    | 0.75755    | 0.75755    |   0.0 |  0.98
Other   |            | 0.214      |            |       |  0.28

Nlocal:    19652 ave 19652 max 19652 min
Histogram: 1 0 0 0 0 0 0 0 0 0
Nghost:    17325 ave 17325 max 17325 min
Histogram: 1 0 0 0 0 0 0 0 0 0
Neighs:    1.30773e+06 ave 1.30773e+06 max 1.30773e+06 min
Histogram: 1 0 0 0 0 0 0 0 0 0

Total # of neighbors = 1307733
Ave neighs/atom = 66.5445
Neighbor list builds = 495
Dangerous builds not checked
Setting up Verlet run ...
  Unit style    : metal
  Current step  : 76495
  Time step     : 0.001
Per MPI rank memory allocation (min/avg/max) = 18.2 | 18.2 | 18.2 Mbytes
Step Temp Press TotEng PotEng Enthalpy 
   76495    1510.2658   -320.43884   -79682.959   -83519.172   -79758.482 
   78000    1500.2779    308.10282   -79715.388    -83526.23   -79642.831 
Loop time of 224.157 on 1 procs for 1505 steps with 19652 atoms

Performance: 0.580 ns/day, 41.373 hours/ns, 6.714 timesteps/s
99.5% CPU use with 1 MPI tasks x no OpenMP threads

MPI task timing breakdown:
Section |  min time  |  avg time  |  max time  |%varavg| %total
---------------------------------------------------------------
Pair    | 120.34     | 120.34     | 120.34     |   0.0 | 53.68
Neigh   | 99.302     | 99.302     | 99.302     |   0.0 | 44.30
Comm    | 1.7432     | 1.7432     | 1.7432     |   0.0 |  0.78
Output  | 0.067502   | 0.067502   | 0.067502   |   0.0 |  0.03
Modify  | 2.1137     | 2.1137     | 2.1137     |   0.0 |  0.94
Other   |            | 0.5954     |            |       |  0.27

Nlocal:    19652 ave 19652 max 19652 min
Histogram: 1 0 0 0 0 0 0 0 0 0
Nghost:    17417 ave 17417 max 17417 min
Histogram: 1 0 0 0 0 0 0 0 0 0
Neighs:    1.3097e+06 ave 1.3097e+06 max 1.3097e+06 min
Histogram: 1 0 0 0 0 0 0 0 0 0

Total # of neighbors = 1309698
Ave neighs/atom = 66.6445
Neighbor list builds = 1505
Dangerous builds not checked
Setting up Verlet run ...
  Unit style    : metal
  Current step  : 78000
  Time step     : 0.001
Per MPI rank memory allocation (min/avg/max) = 18.2 | 18.2 | 18.2 Mbytes
Step Temp Press TotEng PotEng Enthalpy 
   78000    1500.2779    308.10282   -79715.388    -83526.23   -79642.831 
   78495    1467.2564    1062.8382   -79896.459   -83623.424   -79647.088 
Loop time of 74.6801 on 1 procs for 495 steps with 19652 atoms

Performance: 0.573 ns/day, 41.908 hours/ns, 6.628 timesteps/s
97.8% CPU use with 1 MPI tasks x no OpenMP threads

MPI task timing breakdown:
Section |  min time  |  avg time  |  max time  |%varavg| %total
---------------------------------------------------------------
Pair    | 40.384     | 40.384     | 40.384     |   0.0 | 54.08
Neigh   | 32.816     | 32.816     | 32.816     |   0.0 | 43.94
Comm    | 0.57587    | 0.57587    | 0.57587    |   0.0 |  0.77
Output  | 0.00019503 | 0.00019503 | 0.00019503 |   0.0 |  0.00
Modify  | 0.70475    | 0.70475    | 0.70475    |   0.0 |  0.94
Other   |            | 0.1992     |            |       |  0.27

Nlocal:    19652 ave 19652 max 19652 min
Histogram: 1 0 0 0 0 0 0 0 0 0
Nghost:    17422 ave 17422 max 17422 min
Histogram: 1 0 0 0 0 0 0 0 0 0
Neighs:    1.314e+06 ave 1.314e+06 max 1.314e+06 min
Histogram: 1 0 0 0 0 0 0 0 0 0

Total # of neighbors = 1313998
Ave neighs/atom = 66.8633
Neighbor list builds = 495
Dangerous builds not checked
Setting up Verlet run ...
  Unit style    : metal
  Current step  : 78495
  Time step     : 0.001
Per MPI rank memory allocation (min/avg/max) = 18.2 | 18.2 | 18.2 Mbytes
Step Temp Press TotEng PotEng Enthalpy 
   78495    1467.2564    1062.8382   -79896.459   -83623.424   -79647.088 
   80000    1445.6943    937.73112   -79974.149   -83646.344   -79754.343 
Loop time of 225.086 on 1 procs for 1505 steps with 19652 atoms

Performance: 0.578 ns/day, 41.544 hours/ns, 6.686 timesteps/s
99.5% CPU use with 1 MPI tasks x no OpenMP threads

MPI task timing breakdown:
Section |  min time  |  avg time  |  max time  |%varavg| %total
---------------------------------------------------------------
Pair    | 119.59     | 119.59     | 119.59     |   0.0 | 53.13
Neigh   | 101.1      | 101.1      | 101.1      |   0.0 | 44.92
Comm    | 1.6455     | 1.6455     | 1.6455     |   0.0 |  0.73
Output  | 0.13583    | 0.13583    | 0.13583    |   0.0 |  0.06
Modify  | 2.0256     | 2.0256     | 2.0256     |   0.0 |  0.90
Other   |            | 0.5842     |            |       |  0.26

Nlocal:    19652 ave 19652 max 19652 min
Histogram: 1 0 0 0 0 0 0 0 0 0
Nghost:    17461 ave 17461 max 17461 min
Histogram: 1 0 0 0 0 0 0 0 0 0
Neighs:    1.31518e+06 ave 1.31518e+06 max 1.31518e+06 min
Histogram: 1 0 0 0 0 0 0 0 0 0

Total # of neighbors = 1315179
Ave neighs/atom = 66.9234
Neighbor list builds = 1505
Dangerous builds not checked
Setting up Verlet run ...
  Unit style    : metal
  Current step  : 80000
  Time step     : 0.001
Per MPI rank memory allocation (min/avg/max) = 18.2 | 18.2 | 18.2 Mbytes
Step Temp Press TotEng PotEng Enthalpy 
   80000    1445.6943    937.73112   -79974.149   -83646.344   -79754.343 
   80495    1409.6333    103.60864   -80154.413    -83735.01   -80130.095 
Loop time of 70.8542 on 1 procs for 495 steps with 19652 atoms

Performance: 0.604 ns/day, 39.761 hours/ns, 6.986 timesteps/s
99.8% CPU use with 1 MPI tasks x no OpenMP threads

MPI task timing breakdown:
Section |  min time  |  avg time  |  max time  |%varavg| %total
---------------------------------------------------------------
Pair    | 37.325     | 37.325     | 37.325     |   0.0 | 52.68
Neigh   | 32.164     | 32.164     | 32.164     |   0.0 | 45.39
Comm    | 0.51942    | 0.51942    | 0.51942    |   0.0 |  0.73
Output  | 0.00014496 | 0.00014496 | 0.00014496 |   0.0 |  0.00
Modify  | 0.65863    | 0.65863    | 0.65863    |   0.0 |  0.93
Other   |            | 0.187      |            |       |  0.26

Nlocal:    19652 ave 19652 max 19652 min
Histogram: 1 0 0 0 0 0 0 0 0 0
Nghost:    17450 ave 17450 max 17450 min
Histogram: 1 0 0 0 0 0 0 0 0 0
Neighs:    1.3137e+06 ave 1.3137e+06 max 1.3137e+06 min
Histogram: 1 0 0 0 0 0 0 0 0 0

Total # of neighbors = 1313703
Ave neighs/atom = 66.8483
Neighbor list builds = 495
Dangerous builds not checked
Setting up Verlet run ...
  Unit style    : metal
  Current step  : 80495
  Time step     : 0.001
Per MPI rank memory allocation (min/avg/max) = 18.2 | 18.2 | 18.2 Mbytes
Step Temp Press TotEng PotEng Enthalpy 
   80495    1409.6333    103.60864   -80154.413    -83735.01   -80130.095 
   82000    1412.5687   -333.14897   -80176.622   -83764.675   -80254.838 
Loop time of 205.109 on 1 procs for 1505 steps with 19652 atoms

Performance: 0.634 ns/day, 37.857 hours/ns, 7.338 timesteps/s
99.5% CPU use with 1 MPI tasks x no OpenMP threads

MPI task timing breakdown:
Section |  min time  |  avg time  |  max time  |%varavg| %total
---------------------------------------------------------------
Pair    | 107.86     | 107.86     | 107.86     |   0.0 | 52.59
Neigh   | 92.945     | 92.945     | 92.945     |   0.0 | 45.31
Comm    | 1.4758     | 1.4758     | 1.4758     |   0.0 |  0.72
Output  | 0.44834    | 0.44834    | 0.44834    |   0.0 |  0.22
Modify  | 1.8505     | 1.8505     | 1.8505     |   0.0 |  0.90
Other   |            | 0.5304     |            |       |  0.26

Nlocal:    19652 ave 19652 max 19652 min
Histogram: 1 0 0 0 0 0 0 0 0 0
Nghost:    17382 ave 17382 max 17382 min
Histogram: 1 0 0 0 0 0 0 0 0 0
Neighs:    1.31339e+06 ave 1.31339e+06 max 1.31339e+06 min
Histogram: 1 0 0 0 0 0 0 0 0 0

Total # of neighbors = 1313394
Ave neighs/atom = 66.8326
Neighbor list builds = 1505
Dangerous builds not checked
Setting up Verlet run ...
  Unit style    : metal
  Current step  : 82000
  Time step     : 0.001
Per MPI rank memory allocation (min/avg/max) = 18.2 | 18.2 | 18.2 Mbytes
Step Temp Press TotEng PotEng Enthalpy 
   82000    1412.5687   -333.14897   -80176.622   -83764.675   -80254.838 
   82495    1359.0391   -12.935064   -80411.196   -83863.279   -80414.228 
Loop time of 64.3528 on 1 procs for 495 steps with 19652 atoms

Performance: 0.665 ns/day, 36.113 hours/ns, 7.692 timesteps/s
99.6% CPU use with 1 MPI tasks x no OpenMP threads

MPI task timing breakdown:
Section |  min time  |  avg time  |  max time  |%varavg| %total
---------------------------------------------------------------
Pair    | 32.979     | 32.979     | 32.979     |   0.0 | 51.25
Neigh   | 30.137     | 30.137     | 30.137     |   0.0 | 46.83
Comm    | 0.4604     | 0.4604     | 0.4604     |   0.0 |  0.72
Output  | 0.00013304 | 0.00013304 | 0.00013304 |   0.0 |  0.00
Modify  | 0.61235    | 0.61235    | 0.61235    |   0.0 |  0.95
Other   |            | 0.1638     |            |       |  0.25

Nlocal:    19652 ave 19652 max 19652 min
Histogram: 1 0 0 0 0 0 0 0 0 0
Nghost:    17379 ave 17379 max 17379 min
Histogram: 1 0 0 0 0 0 0 0 0 0
Neighs:    1.31575e+06 ave 1.31575e+06 max 1.31575e+06 min
Histogram: 1 0 0 0 0 0 0 0 0 0

Total # of neighbors = 1315749
Ave neighs/atom = 66.9524
Neighbor list builds = 495
Dangerous builds not checked
Setting up Verlet run ...
  Unit style    : metal
  Current step  : 82495
  Time step     : 0.001
Per MPI rank memory allocation (min/avg/max) = 18.2 | 18.2 | 18.2 Mbytes
Step Temp Press TotEng PotEng Enthalpy 
   82495    1359.0391   -12.935064   -80411.196   -83863.279   -80414.228 
   84000    1350.0611    967.18066   -80510.908   -83940.186   -80284.786 
Loop time of 193.615 on 1 procs for 1505 steps with 19652 atoms

Performance: 0.672 ns/day, 35.736 hours/ns, 7.773 timesteps/s
99.3% CPU use with 1 MPI tasks x no OpenMP threads

MPI task timing breakdown:
Section |  min time  |  avg time  |  max time  |%varavg| %total
---------------------------------------------------------------
Pair    | 98.995     | 98.995     | 98.995     |   0.0 | 51.13
Neigh   | 90.745     | 90.745     | 90.745     |   0.0 | 46.87
Comm    | 1.3937     | 1.3937     | 1.3937     |   0.0 |  0.72
Output  | 0.16755    | 0.16755    | 0.16755    |   0.0 |  0.09
Modify  | 1.8265     | 1.8265     | 1.8265     |   0.0 |  0.94
Other   |            | 0.488      |            |       |  0.25

Nlocal:    19652 ave 19652 max 19652 min
Histogram: 1 0 0 0 0 0 0 0 0 0
Nghost:    17391 ave 17391 max 17391 min
Histogram: 1 0 0 0 0 0 0 0 0 0
Neighs:    1.31869e+06 ave 1.31869e+06 max 1.31869e+06 min
Histogram: 1 0 0 0 0 0 0 0 0 0

Total # of neighbors = 1318693
Ave neighs/atom = 67.1022
Neighbor list builds = 1505
Dangerous builds not checked
Setting up Verlet run ...
  Unit style    : metal
  Current step  : 84000
  Time step     : 0.001
Per MPI rank memory allocation (min/avg/max) = 18.2 | 18.2 | 18.2 Mbytes
Step Temp Press TotEng PotEng Enthalpy 
   84000    1350.0611    967.18066   -80510.908   -83940.186   -80284.786 
   84495    1313.8015    706.93221   -80696.395    -84033.57   -80531.392 
Loop time of 69.9311 on 1 procs for 495 steps with 19652 atoms

Performance: 0.612 ns/day, 39.243 hours/ns, 7.078 timesteps/s
99.7% CPU use with 1 MPI tasks x no OpenMP threads

MPI task timing breakdown:
Section |  min time  |  avg time  |  max time  |%varavg| %total
---------------------------------------------------------------
Pair    | 36.251     | 36.251     | 36.251     |   0.0 | 51.84
Neigh   | 32.32      | 32.32      | 32.32      |   0.0 | 46.22
Comm    | 0.50993    | 0.50993    | 0.50993    |   0.0 |  0.73
Output  | 0.00015521 | 0.00015521 | 0.00015521 |   0.0 |  0.00
Modify  | 0.67152    | 0.67152    | 0.67152    |   0.0 |  0.96
Other   |            | 0.1783     |            |       |  0.25

Nlocal:    19652 ave 19652 max 19652 min
Histogram: 1 0 0 0 0 0 0 0 0 0
Nghost:    17479 ave 17479 max 17479 min
Histogram: 1 0 0 0 0 0 0 0 0 0
Neighs:    1.32107e+06 ave 1.32107e+06 max 1.32107e+06 min
Histogram: 1 0 0 0 0 0 0 0 0 0

Total # of neighbors = 1321073
Ave neighs/atom = 67.2233
Neighbor list builds = 495
Dangerous builds not checked
Setting up Verlet run ...
  Unit style    : metal
  Current step  : 84495
  Time step     : 0.001
Per MPI rank memory allocation (min/avg/max) = 18.2 | 18.2 | 18.2 Mbytes
Step Temp Press TotEng PotEng Enthalpy 
   84495    1313.8015    706.93221   -80696.395    -84033.57   -80531.392 
   86000    1303.2081    71.779702   -80732.128   -84042.395   -80715.354 
Loop time of 203.577 on 1 procs for 1505 steps with 19652 atoms

Performance: 0.639 ns/day, 37.574 hours/ns, 7.393 timesteps/s
99.5% CPU use with 1 MPI tasks x no OpenMP threads

MPI task timing breakdown:
Section |  min time  |  avg time  |  max time  |%varavg| %total
---------------------------------------------------------------
Pair    | 104.51     | 104.51     | 104.51     |   0.0 | 51.34
Neigh   | 95.073     | 95.073     | 95.073     |   0.0 | 46.70
Comm    | 1.4779     | 1.4779     | 1.4779     |   0.0 |  0.73
Output  | 0.081928   | 0.081928   | 0.081928   |   0.0 |  0.04
Modify  | 1.9206     | 1.9206     | 1.9206     |   0.0 |  0.94
Other   |            | 0.5124     |            |       |  0.25

Nlocal:    19652 ave 19652 max 19652 min
Histogram: 1 0 0 0 0 0 0 0 0 0
Nghost:    17479 ave 17479 max 17479 min
Histogram: 1 0 0 0 0 0 0 0 0 0
Neighs:    1.31948e+06 ave 1.31948e+06 max 1.31948e+06 min
Histogram: 1 0 0 0 0 0 0 0 0 0

Total # of neighbors = 1319485
Ave neighs/atom = 67.1425
Neighbor list builds = 1505
Dangerous builds not checked
Setting up Verlet run ...
  Unit style    : metal
  Current step  : 86000
  Time step     : 0.001
Per MPI rank memory allocation (min/avg/max) = 18.2 | 18.2 | 18.2 Mbytes
Step Temp Press TotEng PotEng Enthalpy 
   86000    1303.2081    71.779702   -80732.128   -84042.395   -80715.354 
   86495    1267.9639    997.59579   -80933.414   -84154.157   -80700.774 
Loop time of 61.0458 on 1 procs for 495 steps with 19652 atoms

Performance: 0.701 ns/day, 34.257 hours/ns, 8.109 timesteps/s
100.0% CPU use with 1 MPI tasks x no OpenMP threads

MPI task timing breakdown:
Section |  min time  |  avg time  |  max time  |%varavg| %total
---------------------------------------------------------------
Pair    | 31.222     | 31.222     | 31.222     |   0.0 | 51.15
Neigh   | 28.639     | 28.639     | 28.639     |   0.0 | 46.91
Comm    | 0.43935    | 0.43935    | 0.43935    |   0.0 |  0.72
Output  | 0.00015497 | 0.00015497 | 0.00015497 |   0.0 |  0.00
Modify  | 0.58568    | 0.58568    | 0.58568    |   0.0 |  0.96
Other   |            | 0.1593     |            |       |  0.26

Nlocal:    19652 ave 19652 max 19652 min
Histogram: 1 0 0 0 0 0 0 0 0 0
Nghost:    17456 ave 17456 max 17456 min
Histogram: 1 0 0 0 0 0 0 0 0 0
Neighs:    1.3222e+06 ave 1.3222e+06 max 1.3222e+06 min
Histogram: 1 0 0 0 0 0 0 0 0 0

Total # of neighbors = 1322199
Ave neighs/atom = 67.2806
Neighbor list builds = 495
Dangerous builds not checked
Setting up Verlet run ...
  Unit style    : metal
  Current step  : 86495
  Time step     : 0.001
Per MPI rank memory allocation (min/avg/max) = 18.2 | 18.2 | 18.2 Mbytes
Step Temp Press TotEng PotEng Enthalpy 
   86495    1267.9639    997.59579   -80933.414   -84154.157   -80700.774 
   88000    1249.5415    111.48757   -81007.191   -84181.141   -80981.154 
Loop time of 200.763 on 1 procs for 1505 steps with 19652 atoms

Performance: 0.648 ns/day, 37.055 hours/ns, 7.496 timesteps/s
99.3% CPU use with 1 MPI tasks x no OpenMP threads

MPI task timing breakdown:
Section |  min time  |  avg time  |  max time  |%varavg| %total
---------------------------------------------------------------
Pair    | 103.1      | 103.1      | 103.1      |   0.0 | 51.35
Neigh   | 93.746     | 93.746     | 93.746     |   0.0 | 46.69
Comm    | 1.4233     | 1.4233     | 1.4233     |   0.0 |  0.71
Output  | 0.062296   | 0.062296   | 0.062296   |   0.0 |  0.03
Modify  | 1.9259     | 1.9259     | 1.9259     |   0.0 |  0.96
Other   |            | 0.5095     |            |       |  0.25

Nlocal:    19652 ave 19652 max 19652 min
Histogram: 1 0 0 0 0 0 0 0 0 0
Nghost:    17407 ave 17407 max 17407 min
Histogram: 1 0 0 0 0 0 0 0 0 0
Neighs:    1.32029e+06 ave 1.32029e+06 max 1.32029e+06 min
Histogram: 1 0 0 0 0 0 0 0 0 0

Total # of neighbors = 1320292
Ave neighs/atom = 67.1836
Neighbor list builds = 1505
Dangerous builds not checked
Setting up Verlet run ...
  Unit style    : metal
  Current step  : 88000
  Time step     : 0.001
Per MPI rank memory allocation (min/avg/max) = 18.2 | 18.2 | 18.2 Mbytes
Step Temp Press TotEng PotEng Enthalpy 
   88000    1249.5415    111.48757   -81007.191   -84181.141   -80981.154 
   88495    1216.8308   -95.240976   -81216.532   -84307.393   -81238.743 
Loop time of 63.4338 on 1 procs for 495 steps with 19652 atoms

Performance: 0.674 ns/day, 35.597 hours/ns, 7.803 timesteps/s
98.7% CPU use with 1 MPI tasks x no OpenMP threads

MPI task timing breakdown:
Section |  min time  |  avg time  |  max time  |%varavg| %total
---------------------------------------------------------------
Pair    | 32.775     | 32.775     | 32.775     |   0.0 | 51.67
Neigh   | 29.403     | 29.403     | 29.403     |   0.0 | 46.35
Comm    | 0.4586     | 0.4586     | 0.4586     |   0.0 |  0.72
Output  | 0.00013304 | 0.00013304 | 0.00013304 |   0.0 |  0.00
Modify  | 0.62712    | 0.62712    | 0.62712    |   0.0 |  0.99
Other   |            | 0.1695     |            |       |  0.27

Nlocal:    19652 ave 19652 max 19652 min
Histogram: 1 0 0 0 0 0 0 0 0 0
Nghost:    17474 ave 17474 max 17474 min
Histogram: 1 0 0 0 0 0 0 0 0 0
Neighs:    1.32217e+06 ave 1.32217e+06 max 1.32217e+06 min
Histogram: 1 0 0 0 0 0 0 0 0 0

Total # of neighbors = 1322166
Ave neighs/atom = 67.279
Neighbor list builds = 495
Dangerous builds not checked
Setting up Verlet run ...
  Unit style    : metal
  Current step  : 88495
  Time step     : 0.001
Per MPI rank memory allocation (min/avg/max) = 18.2 | 18.2 | 18.2 Mbytes
Step Temp Press TotEng PotEng Enthalpy 
   88495    1216.8308   -95.240976   -81216.532   -84307.393   -81238.743 
   90000    1202.6172   -86.933504   -81297.074   -84351.831    -81317.35 
Loop time of 202.585 on 1 procs for 1505 steps with 19652 atoms

Performance: 0.642 ns/day, 37.391 hours/ns, 7.429 timesteps/s
99.7% CPU use with 1 MPI tasks x no OpenMP threads

MPI task timing breakdown:
Section |  min time  |  avg time  |  max time  |%varavg| %total
---------------------------------------------------------------
Pair    | 104.38     | 104.38     | 104.38     |   0.0 | 51.52
Neigh   | 94.267     | 94.267     | 94.267     |   0.0 | 46.53
Comm    | 1.438      | 1.438      | 1.438      |   0.0 |  0.71
Output  | 0.057323   | 0.057323   | 0.057323   |   0.0 |  0.03
Modify  | 1.9269     | 1.9269     | 1.9269     |   0.0 |  0.95
Other   |            | 0.5138     |            |       |  0.25

Nlocal:    19652 ave 19652 max 19652 min
Histogram: 1 0 0 0 0 0 0 0 0 0
Nghost:    17456 ave 17456 max 17456 min
Histogram: 1 0 0 0 0 0 0 0 0 0
Neighs:    1.32205e+06 ave 1.32205e+06 max 1.32205e+06 min
Histogram: 1 0 0 0 0 0 0 0 0 0

Total # of neighbors = 1322048
Ave neighs/atom = 67.2729
Neighbor list builds = 1505
Dangerous builds not checked
Setting up Verlet run ...
  Unit style    : metal
  Current step  : 90000
  Time step     : 0.001
Per MPI rank memory allocation (min/avg/max) = 18.2 | 18.2 | 18.2 Mbytes
Step Temp Press TotEng PotEng Enthalpy 
   90000    1202.6172   -86.933504   -81297.074   -84351.831    -81317.35 
   90495    1169.8549   -730.20099   -81502.899   -84474.437   -81673.168 
Loop time of 62.5935 on 1 procs for 495 steps with 19652 atoms

Performance: 0.683 ns/day, 35.125 hours/ns, 7.908 timesteps/s
99.1% CPU use with 1 MPI tasks x no OpenMP threads

MPI task timing breakdown:
Section |  min time  |  avg time  |  max time  |%varavg| %total
---------------------------------------------------------------
Pair    | 31.846     | 31.846     | 31.846     |   0.0 | 50.88
Neigh   | 29.542     | 29.542     | 29.542     |   0.0 | 47.20
Comm    | 0.44088    | 0.44088    | 0.44088    |   0.0 |  0.70
Output  | 0.00012994 | 0.00012994 | 0.00012994 |   0.0 |  0.00
Modify  | 0.59851    | 0.59851    | 0.59851    |   0.0 |  0.96
Other   |            | 0.1659     |            |       |  0.27

Nlocal:    19652 ave 19652 max 19652 min
Histogram: 1 0 0 0 0 0 0 0 0 0
Nghost:    17462 ave 17462 max 17462 min
Histogram: 1 0 0 0 0 0 0 0 0 0
Neighs:    1.32243e+06 ave 1.32243e+06 max 1.32243e+06 min
[...]
Dangerous builds not checked
Setting up Verlet run ...
  Unit style    : metal
  Current step  : 120000
  Time step     : 0.001
Per MPI rank memory allocation (min/avg/max) = 18.2 | 18.2 | 18.2 Mbytes
Step Temp Press TotEng PotEng Enthalpy 
  120000    448.98492   -455.07474   -86650.313   -87790.776    -86754.78 
  120495    424.08284    159.83285   -86819.962   -87897.171   -86783.302 
Loop time of 75.7976 on 1 procs for 495 steps with 19652 atoms

Performance: 0.564 ns/day, 42.535 hours/ns, 6.531 timesteps/s
99.4% CPU use with 1 MPI tasks x no OpenMP threads

MPI task timing breakdown:
Section |  min time  |  avg time  |  max time  |%varavg| %total
---------------------------------------------------------------
Pair    | 40.616     | 40.616     | 40.616     |   0.0 | 53.59
Neigh   | 33.605     | 33.605     | 33.605     |   0.0 | 44.33
Comm    | 0.59231    | 0.59231    | 0.59231    |   0.0 |  0.78
Output  | 0.00014997 | 0.00014997 | 0.00014997 |   0.0 |  0.00
Modify  | 0.7734     | 0.7734     | 0.7734     |   0.0 |  1.02
Other   |            | 0.2107     |            |       |  0.28

Nlocal:    19652 ave 19652 max 19652 min
Histogram: 1 0 0 0 0 0 0 0 0 0
Nghost:    17658 ave 17658 max 17658 min
Histogram: 1 0 0 0 0 0 0 0 0 0
Neighs:    1.34502e+06 ave 1.34502e+06 max 1.34502e+06 min
Histogram: 1 0 0 0 0 0 0 0 0 0

Total # of neighbors = 1345022
Ave neighs/atom = 68.442
Neighbor list builds = 495
Dangerous builds not checked
Setting up Verlet run ...
  Unit style    : metal
  Current step  : 120495
  Time step     : 0.001
Per MPI rank memory allocation (min/avg/max) = 18.2 | 18.2 | 18.2 Mbytes
Step Temp Press TotEng PotEng Enthalpy 
  120495    424.08284    159.83285   -86819.962   -87897.171   -86783.302 
  122000    402.12789    265.24786   -87006.784   -88028.225   -86945.991 
Loop time of 218.506 on 1 procs for 1505 steps with 19652 atoms

Performance: 0.595 ns/day, 40.330 hours/ns, 6.888 timesteps/s
97.7% CPU use with 1 MPI tasks x no OpenMP threads

MPI task timing breakdown:
Section |  min time  |  avg time  |  max time  |%varavg| %total
---------------------------------------------------------------
Pair    | 114.61     | 114.61     | 114.61     |   0.0 | 52.45
Neigh   | 99.287     | 99.287     | 99.287     |   0.0 | 45.44
Comm    | 1.6415     | 1.6415     | 1.6415     |   0.0 |  0.75
Output  | 0.17857    | 0.17857    | 0.17857    |   0.0 |  0.08
Modify  | 2.1694     | 2.1694     | 2.1694     |   0.0 |  0.99
Other   |            | 0.6186     |            |       |  0.28

Nlocal:    19652 ave 19652 max 19652 min
Histogram: 1 0 0 0 0 0 0 0 0 0
Nghost:    17597 ave 17597 max 17597 min
Histogram: 1 0 0 0 0 0 0 0 0 0
Neighs:    1.34592e+06 ave 1.34592e+06 max 1.34592e+06 min
Histogram: 1 0 0 0 0 0 0 0 0 0

Total # of neighbors = 1345918
Ave neighs/atom = 68.4876
Neighbor list builds = 1505
Dangerous builds not checked
Setting up Verlet run ...
  Unit style    : metal
  Current step  : 122000
  Time step     : 0.001
Per MPI rank memory allocation (min/avg/max) = 18.2 | 18.2 | 18.2 Mbytes
Step Temp Press TotEng PotEng Enthalpy 
  122000    402.12789    265.24786   -87006.784   -88028.225   -86945.991 
  122495    374.35915   -475.77974    -87174.96   -88125.866   -87283.959 
Loop time of 66.6172 on 1 procs for 495 steps with 19652 atoms

Performance: 0.642 ns/day, 37.383 hours/ns, 7.431 timesteps/s
99.3% CPU use with 1 MPI tasks x no OpenMP threads

MPI task timing breakdown:
Section |  min time  |  avg time  |  max time  |%varavg| %total
---------------------------------------------------------------
Pair    | 34.889     | 34.889     | 34.889     |   0.0 | 52.37
Neigh   | 30.356     | 30.356     | 30.356     |   0.0 | 45.57
Comm    | 0.51704    | 0.51704    | 0.51704    |   0.0 |  0.78
Output  | 0.00015306 | 0.00015306 | 0.00015306 |   0.0 |  0.00
Modify  | 0.65653    | 0.65653    | 0.65653    |   0.0 |  0.99
Other   |            | 0.1978     |            |       |  0.30

Nlocal:    19652 ave 19652 max 19652 min
Histogram: 1 0 0 0 0 0 0 0 0 0
Nghost:    17593 ave 17593 max 17593 min
Histogram: 1 0 0 0 0 0 0 0 0 0
Neighs:    1.34658e+06 ave 1.34658e+06 max 1.34658e+06 min
Histogram: 1 0 0 0 0 0 0 0 0 0

Total # of neighbors = 1346581
Ave neighs/atom = 68.5213
Neighbor list builds = 495
Dangerous builds not checked
Setting up Verlet run ...
  Unit style    : metal
  Current step  : 122495
  Time step     : 0.001
Per MPI rank memory allocation (min/avg/max) = 18.2 | 18.2 | 18.2 Mbytes
Step Temp Press TotEng PotEng Enthalpy 
  122495    374.35915   -475.77974    -87174.96   -88125.866   -87283.959 
  124000    350.15087   -577.77043    -87338.67   -88228.085   -87470.912 
Loop time of 208.386 on 1 procs for 1505 steps with 19652 atoms

Performance: 0.624 ns/day, 38.462 hours/ns, 7.222 timesteps/s
99.6% CPU use with 1 MPI tasks x no OpenMP threads

MPI task timing breakdown:
Section |  min time  |  avg time  |  max time  |%varavg| %total
---------------------------------------------------------------
Pair    | 108.91     | 108.91     | 108.91     |   0.0 | 52.26
Neigh   | 95.135     | 95.135     | 95.135     |   0.0 | 45.65
Comm    | 1.5764     | 1.5764     | 1.5764     |   0.0 |  0.76
Output  | 0.08824    | 0.08824    | 0.08824    |   0.0 |  0.04
Modify  | 2.0823     | 2.0823     | 2.0823     |   0.0 |  1.00
Other   |            | 0.5997     |            |       |  0.29

Nlocal:    19652 ave 19652 max 19652 min
Histogram: 1 0 0 0 0 0 0 0 0 0
Nghost:    17632 ave 17632 max 17632 min
Histogram: 1 0 0 0 0 0 0 0 0 0
Neighs:    1.34735e+06 ave 1.34735e+06 max 1.34735e+06 min
Histogram: 1 0 0 0 0 0 0 0 0 0

Total # of neighbors = 1347347
Ave neighs/atom = 68.5603
Neighbor list builds = 1505
Dangerous builds not checked
Setting up Verlet run ...
  Unit style    : metal
  Current step  : 124000
  Time step     : 0.001
Per MPI rank memory allocation (min/avg/max) = 18.2 | 18.2 | 18.2 Mbytes
Step Temp Press TotEng PotEng Enthalpy 
  124000    350.15087   -577.77043    -87338.67   -88228.085   -87470.912 
  124495     323.9586    528.60334   -87500.913   -88323.798   -87380.164 
Loop time of 73.212 on 1 procs for 495 steps with 19652 atoms

Performance: 0.584 ns/day, 41.084 hours/ns, 6.761 timesteps/s
98.7% CPU use with 1 MPI tasks x no OpenMP threads

MPI task timing breakdown:
Section |  min time  |  avg time  |  max time  |%varavg| %total
---------------------------------------------------------------
Pair    | 38.817     | 38.817     | 38.817     |   0.0 | 53.02
Neigh   | 32.889     | 32.889     | 32.889     |   0.0 | 44.92
Comm    | 0.56627    | 0.56627    | 0.56627    |   0.0 |  0.77
Output  | 0.00019312 | 0.00019312 | 0.00019312 |   0.0 |  0.00
Modify  | 0.73519    | 0.73519    | 0.73519    |   0.0 |  1.00
Other   |            | 0.2043     |            |       |  0.28

Nlocal:    19652 ave 19652 max 19652 min
Histogram: 1 0 0 0 0 0 0 0 0 0
Nghost:    17608 ave 17608 max 17608 min
Histogram: 1 0 0 0 0 0 0 0 0 0
Neighs:    1.35032e+06 ave 1.35032e+06 max 1.35032e+06 min
Histogram: 1 0 0 0 0 0 0 0 0 0

Total # of neighbors = 1350315
Ave neighs/atom = 68.7113
Neighbor list builds = 495
Dangerous builds not checked
Setting up Verlet run ...
  Unit style    : metal
  Current step  : 124495
  Time step     : 0.001
Per MPI rank memory allocation (min/avg/max) = 18.2 | 18.2 | 18.2 Mbytes
Step Temp Press TotEng PotEng Enthalpy 
  124495     323.9586    528.60334   -87500.913   -88323.798   -87380.164 
  126000    301.36339    239.29851   -87669.182   -88434.673   -87614.551 
Loop time of 202.657 on 1 procs for 1505 steps with 19652 atoms

Performance: 0.642 ns/day, 37.404 hours/ns, 7.426 timesteps/s
98.9% CPU use with 1 MPI tasks x no OpenMP threads

MPI task timing breakdown:
Section |  min time  |  avg time  |  max time  |%varavg| %total
---------------------------------------------------------------
Pair    | 105.43     | 105.43     | 105.43     |   0.0 | 52.02
Neigh   | 92.979     | 92.979     | 92.979     |   0.0 | 45.88
Comm    | 1.5167     | 1.5167     | 1.5167     |   0.0 |  0.75
Output  | 0.15505    | 0.15505    | 0.15505    |   0.0 |  0.08
Modify  | 2.0167     | 2.0167     | 2.0167     |   0.0 |  1.00
Other   |            | 0.5616     |            |       |  0.28

Nlocal:    19652 ave 19652 max 19652 min
Histogram: 1 0 0 0 0 0 0 0 0 0
Nghost:    17630 ave 17630 max 17630 min
Histogram: 1 0 0 0 0 0 0 0 0 0
Neighs:    1.35096e+06 ave 1.35096e+06 max 1.35096e+06 min
Histogram: 1 0 0 0 0 0 0 0 0 0

Total # of neighbors = 1350956
Ave neighs/atom = 68.7439
Neighbor list builds = 1505
Dangerous builds not checked
Setting up Verlet run ...
  Unit style    : metal
  Current step  : 126000
  Time step     : 0.001
Per MPI rank memory allocation (min/avg/max) = 18.2 | 18.2 | 18.2 Mbytes
Step Temp Press TotEng PotEng Enthalpy 
  126000    301.36339    239.29851   -87669.182   -88434.673   -87614.551 
  126495    275.34283    136.64143   -87810.929   -88510.325   -87779.748 
Loop time of 55.8145 on 1 procs for 495 steps with 19652 atoms

Performance: 0.766 ns/day, 31.321 hours/ns, 8.869 timesteps/s
100.0% CPU use with 1 MPI tasks x no OpenMP threads

MPI task timing breakdown:
Section |  min time  |  avg time  |  max time  |%varavg| %total
---------------------------------------------------------------
Pair    | 28.591     | 28.591     | 28.591     |   0.0 | 51.22
Neigh   | 26.136     | 26.136     | 26.136     |   0.0 | 46.83
Comm    | 0.4009     | 0.4009     | 0.4009     |   0.0 |  0.72
Output  | 0.00011992 | 0.00011992 | 0.00011992 |   0.0 |  0.00
Modify  | 0.53898    | 0.53898    | 0.53898    |   0.0 |  0.97
Other   |            | 0.148      |            |       |  0.27

Nlocal:    19652 ave 19652 max 19652 min
Histogram: 1 0 0 0 0 0 0 0 0 0
Nghost:    17622 ave 17622 max 17622 min
Histogram: 1 0 0 0 0 0 0 0 0 0
Neighs:    1.35162e+06 ave 1.35162e+06 max 1.35162e+06 min
Histogram: 1 0 0 0 0 0 0 0 0 0

Total # of neighbors = 1351622
Ave neighs/atom = 68.7778
Neighbor list builds = 495
Dangerous builds not checked
Setting up Verlet run ...
  Unit style    : metal
  Current step  : 126495
  Time step     : 0.001
Per MPI rank memory allocation (min/avg/max) = 18.2 | 18.2 | 18.2 Mbytes
Step Temp Press TotEng PotEng Enthalpy 
  126495    275.34283    136.64143   -87810.929   -88510.325   -87779.748 
  128000    250.63495    336.67712   -87962.282   -88598.917   -87885.495 
Loop time of 200.798 on 1 procs for 1505 steps with 19652 atoms

Performance: 0.648 ns/day, 37.061 hours/ns, 7.495 timesteps/s
99.1% CPU use with 1 MPI tasks x no OpenMP threads

MPI task timing breakdown:
Section |  min time  |  avg time  |  max time  |%varavg| %total
---------------------------------------------------------------
Pair    | 104.47     | 104.47     | 104.47     |   0.0 | 52.03
Neigh   | 92.093     | 92.093     | 92.093     |   0.0 | 45.86
Comm    | 1.4816     | 1.4816     | 1.4816     |   0.0 |  0.74
Output  | 0.19091    | 0.19091    | 0.19091    |   0.0 |  0.10
Modify  | 2.0081     | 2.0081     | 2.0081     |   0.0 |  1.00
Other   |            | 0.5533     |            |       |  0.28

Nlocal:    19652 ave 19652 max 19652 min
Histogram: 1 0 0 0 0 0 0 0 0 0
Nghost:    17616 ave 17616 max 17616 min
Histogram: 1 0 0 0 0 0 0 0 0 0
Neighs:    1.35193e+06 ave 1.35193e+06 max 1.35193e+06 min
Histogram: 1 0 0 0 0 0 0 0 0 0

Total # of neighbors = 1351926
Ave neighs/atom = 68.7933
Neighbor list builds = 1505
Dangerous builds not checked
Setting up Verlet run ...
  Unit style    : metal
  Current step  : 128000
  Time step     : 0.001
Per MPI rank memory allocation (min/avg/max) = 18.2 | 18.2 | 18.2 Mbytes
Step Temp Press TotEng PotEng Enthalpy 
  128000    250.63495    336.67712   -87962.282   -88598.917   -87885.495 
  128495    224.88994    133.76646   -88102.044   -88673.285   -88071.555 
Loop time of 70.3128 on 1 procs for 495 steps with 19652 atoms

Performance: 0.608 ns/day, 39.457 hours/ns, 7.040 timesteps/s
99.8% CPU use with 1 MPI tasks x no OpenMP threads

MPI task timing breakdown:
Section |  min time  |  avg time  |  max time  |%varavg| %total
---------------------------------------------------------------
Pair    | 36.987     | 36.987     | 36.987     |   0.0 | 52.60
Neigh   | 31.877     | 31.877     | 31.877     |   0.0 | 45.34
Comm    | 0.54753    | 0.54753    | 0.54753    |   0.0 |  0.78
Output  | 0.0001781  | 0.0001781  | 0.0001781  |   0.0 |  0.00
Modify  | 0.70034    | 0.70034    | 0.70034    |   0.0 |  1.00
Other   |            | 0.2013     |            |       |  0.29

Nlocal:    19652 ave 19652 max 19652 min
Histogram: 1 0 0 0 0 0 0 0 0 0
Nghost:    17628 ave 17628 max 17628 min
Histogram: 1 0 0 0 0 0 0 0 0 0
Neighs:    1.35288e+06 ave 1.35288e+06 max 1.35288e+06 min
Histogram: 1 0 0 0 0 0 0 0 0 0

Total # of neighbors = 1352877
Ave neighs/atom = 68.8417
Neighbor list builds = 495
Dangerous builds not checked
Setting up Verlet run ...
  Unit style    : metal
  Current step  : 128495
  Time step     : 0.001
Per MPI rank memory allocation (min/avg/max) = 18.2 | 18.2 | 18.2 Mbytes
Step Temp Press TotEng PotEng Enthalpy 
  128495    224.88994    133.76646   -88102.044   -88673.285   -88071.555 
  130000    200.17132    166.17191   -88247.602   -88756.055   -88209.745 
Loop time of 210.57 on 1 procs for 1505 steps with 19652 atoms

Performance: 0.618 ns/day, 38.865 hours/ns, 7.147 timesteps/s
99.1% CPU use with 1 MPI tasks x no OpenMP threads

MPI task timing breakdown:
Section |  min time  |  avg time  |  max time  |%varavg| %total
---------------------------------------------------------------
Pair    | 109.9      | 109.9      | 109.9      |   0.0 | 52.19
Neigh   | 96.197     | 96.197     | 96.197     |   0.0 | 45.68
Comm    | 1.607      | 1.607      | 1.607      |   0.0 |  0.76
Output  | 0.1364     | 0.1364     | 0.1364     |   0.0 |  0.06
Modify  | 2.1078     | 2.1078     | 2.1078     |   0.0 |  1.00
Other   |            | 0.6175     |            |       |  0.29

Nlocal:    19652 ave 19652 max 19652 min
Histogram: 1 0 0 0 0 0 0 0 0 0
Nghost:    17626 ave 17626 max 17626 min
Histogram: 1 0 0 0 0 0 0 0 0 0
Neighs:    1.35314e+06 ave 1.35314e+06 max 1.35314e+06 min
Histogram: 1 0 0 0 0 0 0 0 0 0

Total # of neighbors = 1353139
Ave neighs/atom = 68.855
Neighbor list builds = 1505
Dangerous builds not checked
Setting up Verlet run ...
  Unit style    : metal
  Current step  : 130000
  Time step     : 0.001
Per MPI rank memory allocation (min/avg/max) = 18.2 | 18.2 | 18.2 Mbytes
Step Temp Press TotEng PotEng Enthalpy 
  130000    200.17132    166.17191   -88247.602   -88756.055   -88209.745 
  130495    176.53369   -185.93845   -88378.885   -88827.297   -88421.233 
Loop time of 70.131 on 1 procs for 495 steps with 19652 atoms

Performance: 0.610 ns/day, 39.355 hours/ns, 7.058 timesteps/s
99.8% CPU use with 1 MPI tasks x no OpenMP threads

MPI task timing breakdown:
Section |  min time  |  avg time  |  max time  |%varavg| %total
---------------------------------------------------------------
Pair    | 37.225     | 37.225     | 37.225     |   0.0 | 53.08
Neigh   | 31.433     | 31.433     | 31.433     |   0.0 | 44.82
Comm    | 0.55453    | 0.55453    | 0.55453    |   0.0 |  0.79
Output  | 0.00015521 | 0.00015521 | 0.00015521 |   0.0 |  0.00
Modify  | 0.72002    | 0.72002    | 0.72002    |   0.0 |  1.03
Other   |            | 0.1986     |            |       |  0.28

Nlocal:    19652 ave 19652 max 19652 min
Histogram: 1 0 0 0 0 0 0 0 0 0
Nghost:    17616 ave 17616 max 17616 min
Histogram: 1 0 0 0 0 0 0 0 0 0
Neighs:    1.35412e+06 ave 1.35412e+06 max 1.35412e+06 min
Histogram: 1 0 0 0 0 0 0 0 0 0

Total # of neighbors = 1354117
Ave neighs/atom = 68.9048
Neighbor list builds = 495
Dangerous builds not checked
Setting up Verlet run ...
  Unit style    : metal
  Current step  : 130495
  Time step     : 0.001
Per MPI rank memory allocation (min/avg/max) = 18.2 | 18.2 | 18.2 Mbytes
Step Temp Press TotEng PotEng Enthalpy 
  130495    176.53369   -185.93845   -88378.885   -88827.297   -88421.233 
  132000    149.16871   -31.080193   -88526.881   -88905.783   -88533.954 
Loop time of 212.863 on 1 procs for 1505 steps with 19652 atoms

Performance: 0.611 ns/day, 39.288 hours/ns, 7.070 timesteps/s
99.4% CPU use with 1 MPI tasks x no OpenMP threads

MPI task timing breakdown:
Section |  min time  |  avg time  |  max time  |%varavg| %total
---------------------------------------------------------------
Pair    | 111.62     | 111.62     | 111.62     |   0.0 | 52.44
Neigh   | 96.507     | 96.507     | 96.507     |   0.0 | 45.34
Comm    | 1.6294     | 1.6294     | 1.6294     |   0.0 |  0.77
Output  | 0.35311    | 0.35311    | 0.35311    |   0.0 |  0.17
Modify  | 2.1559     | 2.1559     | 2.1559     |   0.0 |  1.01
Other   |            | 0.5953     |            |       |  0.28

Nlocal:    19652 ave 19652 max 19652 min
Histogram: 1 0 0 0 0 0 0 0 0 0
Nghost:    17635 ave 17635 max 17635 min
Histogram: 1 0 0 0 0 0 0 0 0 0
Neighs:    1.35462e+06 ave 1.35462e+06 max 1.35462e+06 min
Histogram: 1 0 0 0 0 0 0 0 0 0

Total # of neighbors = 1354622
Ave neighs/atom = 68.9305
Neighbor list builds = 1505
Dangerous builds not checked
Setting up Verlet run ...
  Unit style    : metal
  Current step  : 132000
  Time step     : 0.001
Per MPI rank memory allocation (min/avg/max) = 18.2 | 18.2 | 18.2 Mbytes
Step Temp Press TotEng PotEng Enthalpy 
  132000    149.16871   -31.080193   -88526.881   -88905.783   -88533.954 
  132495    127.40233    465.00326   -88644.945   -88968.558   -88539.293 
Loop time of 57.8059 on 1 procs for 495 steps with 19652 atoms

Performance: 0.740 ns/day, 32.439 hours/ns, 8.563 timesteps/s
99.7% CPU use with 1 MPI tasks x no OpenMP threads

MPI task timing breakdown:
Section |  min time  |  avg time  |  max time  |%varavg| %total
---------------------------------------------------------------
Pair    | 29.751     | 29.751     | 29.751     |   0.0 | 51.47
Neigh   | 26.912     | 26.912     | 26.912     |   0.0 | 46.56
Comm    | 0.4202     | 0.4202     | 0.4202     |   0.0 |  0.73
Output  | 0.00013614 | 0.00013614 | 0.00013614 |   0.0 |  0.00
Modify  | 0.56562    | 0.56562    | 0.56562    |   0.0 |  0.98
Other   |            | 0.1571     |            |       |  0.27

Nlocal:    19652 ave 19652 max 19652 min
Histogram: 1 0 0 0 0 0 0 0 0 0
Nghost:    17644 ave 17644 max 17644 min
Histogram: 1 0 0 0 0 0 0 0 0 0
Neighs:    1.35674e+06 ave 1.35674e+06 max 1.35674e+06 min
Histogram: 1 0 0 0 0 0 0 0 0 0

Total # of neighbors = 1356736
Ave neighs/atom = 69.0381
Neighbor list builds = 495
Dangerous builds not checked
Setting up Verlet run ...
  Unit style    : metal
  Current step  : 132495
  Time step     : 0.001
Per MPI rank memory allocation (min/avg/max) = 18.2 | 18.2 | 18.2 Mbytes
Step Temp Press TotEng PotEng Enthalpy 
  132495    127.40233    465.00326   -88644.945   -88968.558   -88539.293 
  134000    99.317223   -288.60829   -88795.414   -89047.689   -88861.019 
Loop time of 188.031 on 1 procs for 1505 steps with 19652 atoms

Performance: 0.692 ns/day, 34.705 hours/ns, 8.004 timesteps/s
99.5% CPU use with 1 MPI tasks x no OpenMP threads

MPI task timing breakdown:
Section |  min time  |  avg time  |  max time  |%varavg| %total
---------------------------------------------------------------
Pair    | 97.053     | 97.053     | 97.053     |   0.0 | 51.62
Neigh   | 87.148     | 87.148     | 87.148     |   0.0 | 46.35
Comm    | 1.3612     | 1.3612     | 1.3612     |   0.0 |  0.72
Output  | 0.10374    | 0.10374    | 0.10374    |   0.0 |  0.06
Modify  | 1.8621     | 1.8621     | 1.8621     |   0.0 |  0.99
Other   |            | 0.5023     |            |       |  0.27

Nlocal:    19652 ave 19652 max 19652 min
Histogram: 1 0 0 0 0 0 0 0 0 0
Nghost:    17640 ave 17640 max 17640 min
Histogram: 1 0 0 0 0 0 0 0 0 0
Neighs:    1.35633e+06 ave 1.35633e+06 max 1.35633e+06 min
Histogram: 1 0 0 0 0 0 0 0 0 0

Total # of neighbors = 1356326
Ave neighs/atom = 69.0172
Neighbor list builds = 1505
Dangerous builds not checked
Total wall time: 5:41:11
