LAMMPS (12 Dec 2018)
Lattice spacing in x,y,z = 4 4 4
Created orthogonal box = (0 0 0) to (68 68 68)
  1 by 1 by 1 MPI processor grid
Created 19652 atoms
  Time spent = 0.00408602 secs
Setting atom values ...
  0 settings made for type/fraction
Neighbor list info ...
  update every 1 steps, delay 0 steps, check no
  max neighbors/atom: 2000, page size: 100000
  master list distance cutoff = 8.5
  ghost atom cutoff = 8.5
  binsize = 4.25, bins = 16 16 16
  1 neighbor lists, perpetual/occasional/extra = 1 0 0
  (1) pair eam/alloy, perpetual
      attributes: half, newton on
      pair build: half/bin/atomonly/newton
      stencil: half/bin/3d/newton
      bin: standard
Setting up Verlet run ...
  Unit style    : metal
  Current step  : 0
  Time step     : 0.001
Per MPI rank memory allocation (min/avg/max) = 18.19 | 18.19 | 18.19 Mbytes
Step Temp Press TotEng PotEng Enthalpy 
       0          300   -103068.88   -75432.214   -76194.241   -95659.795 
    1000    149.30433   -92732.497   -75432.163    -75811.41   -93631.197 
Loop time of 153.514 on 1 procs for 1000 steps with 19652 atoms

Performance: 0.563 ns/day, 42.643 hours/ns, 6.514 timesteps/s
99.0% CPU use with 1 MPI tasks x no OpenMP threads

MPI task timing breakdown:
Section |  min time  |  avg time  |  max time  |%varavg| %total
---------------------------------------------------------------
Pair    | 87.805     | 87.805     | 87.805     |   0.0 | 57.20
Neigh   | 63.735     | 63.735     | 63.735     |   0.0 | 41.52
Comm    | 1.1888     | 1.1888     | 1.1888     |   0.0 |  0.77
Output  | 0.000175   | 0.000175   | 0.000175   |   0.0 |  0.00
Modify  | 0.41685    | 0.41685    | 0.41685    |   0.0 |  0.27
Other   |            | 0.3683     |            |       |  0.24

Nlocal:    19652 ave 19652 max 19652 min
Histogram: 1 0 0 0 0 0 0 0 0 0
Nghost:    20102 ave 20102 max 20102 min
Histogram: 1 0 0 0 0 0 0 0 0 0
Neighs:    1.57487e+06 ave 1.57487e+06 max 1.57487e+06 min
Histogram: 1 0 0 0 0 0 0 0 0 0

Total # of neighbors = 1574874
Ave neighs/atom = 80.1381
Neighbor list builds = 1000
Dangerous builds not checked
Setting up Verlet run ...
  Unit style    : metal
  Current step  : 1000
  Time step     : 0.001
Per MPI rank memory allocation (min/avg/max) = 18.19 | 18.19 | 18.19 Mbytes
Step Temp Press TotEng PotEng Enthalpy 
    1000    149.30433   -92732.497   -75432.163    -75811.41   -93631.197 
    2000    308.02307    28.446795   -75320.268   -76102.674   -75314.988 
Loop time of 165.87 on 1 procs for 1000 steps with 19652 atoms

Performance: 0.521 ns/day, 46.075 hours/ns, 6.029 timesteps/s
99.4% CPU use with 1 MPI tasks x no OpenMP threads

MPI task timing breakdown:
Section |  min time  |  avg time  |  max time  |%varavg| %total
---------------------------------------------------------------
Pair    | 89.606     | 89.606     | 89.606     |   0.0 | 54.02
Neigh   | 73.398     | 73.398     | 73.398     |   0.0 | 44.25
Comm    | 1.0775     | 1.0775     | 1.0775     |   0.0 |  0.65
Output  | 0.077483   | 0.077483   | 0.077483   |   0.0 |  0.05
Modify  | 1.3467     | 1.3467     | 1.3467     |   0.0 |  0.81
Other   |            | 0.3646     |            |       |  0.22

Nlocal:    19652 ave 19652 max 19652 min
Histogram: 1 0 0 0 0 0 0 0 0 0
Nghost:    20102 ave 20102 max 20102 min
Histogram: 1 0 0 0 0 0 0 0 0 0
Neighs:    1.70948e+06 ave 1.70948e+06 max 1.70948e+06 min
Histogram: 1 0 0 0 0 0 0 0 0 0

Total # of neighbors = 1709481
Ave neighs/atom = 86.9876
Neighbor list builds = 1000
Dangerous builds not checked
Setting up Verlet run ...
  Unit style    : metal
  Current step  : 2000
  Time step     : 0.001
Per MPI rank memory allocation (min/avg/max) = 18.19 | 18.19 | 18.19 Mbytes
Step Temp Press TotEng PotEng Enthalpy 
    2000    308.02307    28.446795   -75320.268   -76102.674   -75314.988 
    4000    804.57514   -876.49757   -72650.627   -74694.322   -72816.708 
    6000    1359.5538   -388.03553   -69226.824   -72680.214   -69302.809 
    8000       1876.8   -1050.3067   -65136.471   -69903.714   -65352.762 
   10000    2450.1252   -930.66811   -59288.592   -65512.133   -59498.545 
Loop time of 1318.33 on 1 procs for 8000 steps with 19652 atoms

Performance: 0.524 ns/day, 45.775 hours/ns, 6.068 timesteps/s
99.0% CPU use with 1 MPI tasks x no OpenMP threads

MPI task timing breakdown:
Section |  min time  |  avg time  |  max time  |%varavg| %total
---------------------------------------------------------------
Pair    | 724.04     | 724.04     | 724.04     |   0.0 | 54.92
Neigh   | 568.77     | 568.77     | 568.77     |   0.0 | 43.14
Comm    | 9.3048     | 9.3048     | 9.3048     |   0.0 |  0.71
Output  | 1.5246     | 1.5246     | 1.5246     |   0.0 |  0.12
Modify  | 11.489     | 11.489     | 11.489     |   0.0 |  0.87
Other   |            | 3.205      |            |       |  0.24

Nlocal:    19652 ave 19652 max 19652 min
Histogram: 1 0 0 0 0 0 0 0 0 0
Nghost:    17654 ave 17654 max 17654 min
Histogram: 1 0 0 0 0 0 0 0 0 0
Neighs:    1.3688e+06 ave 1.3688e+06 max 1.3688e+06 min
Histogram: 1 0 0 0 0 0 0 0 0 0

Total # of neighbors = 1368801
Ave neighs/atom = 69.652
Neighbor list builds = 8000
Dangerous builds not checked
Setting up Verlet run ...
  Unit style    : metal
  Current step  : 10000
  Time step     : 0.001
Per MPI rank memory allocation (min/avg/max) = 18.19 | 18.19 | 18.19 Mbytes
Step Temp Press TotEng PotEng Enthalpy 
   10000    2450.1252   -930.66811   -59288.592   -65512.133   -59498.545 
   12000    2440.6828   -275.27253    -59137.43   -65336.987   -59199.727 
   14000    2453.9714    448.97859   -59124.315   -65357.626   -59022.828 
   16000    2438.4589   -1402.8046    -59180.25   -65374.158   -59497.686 
   18000    2445.9068    823.08541   -59128.109   -65340.935   -58942.066 
   20000       2473.7   -505.53603   -58971.269   -65254.693   -59085.909 
   22000    2460.4279   -230.37993     -59100.2   -65349.911   -59152.312 
   24000    2455.2509    629.99391   -59120.432   -65356.993    -58978.03 
   26000    2458.1629   -263.50111   -59189.041   -65432.999   -59248.535 
   28000    2454.9369     660.1629   -59151.016   -65386.779   -59001.911 
   30000    2474.1546    1309.9694   -59109.033   -65393.611    -58813.33 
   32000    2437.5546     1680.266   -59223.415   -65415.025   -58844.761 
   34000    2470.1496     691.5097   -59147.775    -65422.18   -58991.771 
   36000    2448.1903   -1155.3569   -59176.696   -65395.323   -59438.003 
   38000    2460.9977   -820.25762   -59058.492    -65309.65   -59244.368 
   40000    2465.6851    522.28127   -59104.551   -65367.616   -58986.529 
Loop time of 4207.1 on 1 procs for 30000 steps with 19652 atoms

Performance: 0.616 ns/day, 38.955 hours/ns, 7.131 timesteps/s
99.2% CPU use with 1 MPI tasks x no OpenMP threads

MPI task timing breakdown:
Section |  min time  |  avg time  |  max time  |%varavg| %total
---------------------------------------------------------------
Pair    | 2223       | 2223       | 2223       |   0.0 | 52.84
Neigh   | 1901.6     | 1901.6     | 1901.6     |   0.0 | 45.20
Comm    | 29.728     | 29.728     | 29.728     |   0.0 |  0.71
Output  | 4.0442     | 4.0442     | 4.0442     |   0.0 |  0.10
Modify  | 38.249     | 38.249     | 38.249     |   0.0 |  0.91
Other   |            | 10.44      |            |       |  0.25

Nlocal:    19652 ave 19652 max 19652 min
Histogram: 1 0 0 0 0 0 0 0 0 0
Nghost:    17722 ave 17722 max 17722 min
Histogram: 1 0 0 0 0 0 0 0 0 0
Neighs:    1.36656e+06 ave 1.36656e+06 max 1.36656e+06 min
Histogram: 1 0 0 0 0 0 0 0 0 0

Total # of neighbors = 1366565
Ave neighs/atom = 69.5382
Neighbor list builds = 30000
Dangerous builds not checked
Setting up Verlet run ...
  Unit style    : metal
  Current step  : 40000
  Time step     : 0.001
Per MPI rank memory allocation (min/avg/max) = 18.19 | 18.19 | 18.19 Mbytes
Step Temp Press TotEng PotEng Enthalpy 
   40000    2465.6851    522.28127   -59104.551   -65367.616   -58986.529 
   40495    2410.4143    613.92094   -59418.053   -65540.725    -59279.91 
Loop time of 63.4589 on 1 procs for 495 steps with 19652 atoms

Performance: 0.674 ns/day, 35.611 hours/ns, 7.800 timesteps/s
99.9% CPU use with 1 MPI tasks x no OpenMP threads

MPI task timing breakdown:
Section |  min time  |  avg time  |  max time  |%varavg| %total
---------------------------------------------------------------
Pair    | 33.283     | 33.283     | 33.283     |   0.0 | 52.45
Neigh   | 28.971     | 28.971     | 28.971     |   0.0 | 45.65
Comm    | 0.45543    | 0.45543    | 0.45543    |   0.0 |  0.72
Output  | 0.00014615 | 0.00014615 | 0.00014615 |   0.0 |  0.00
Modify  | 0.58585    | 0.58585    | 0.58585    |   0.0 |  0.92
Other   |            | 0.1645     |            |       |  0.26

Nlocal:    19652 ave 19652 max 19652 min
Histogram: 1 0 0 0 0 0 0 0 0 0
Nghost:    17701 ave 17701 max 17701 min
Histogram: 1 0 0 0 0 0 0 0 0 0
Neighs:    1.37263e+06 ave 1.37263e+06 max 1.37263e+06 min
Histogram: 1 0 0 0 0 0 0 0 0 0

Total # of neighbors = 1372631
Ave neighs/atom = 69.8469
Neighbor list builds = 495
Dangerous builds not checked
Setting up Verlet run ...
  Unit style    : metal
  Current step  : 40495
  Time step     : 0.001
Per MPI rank memory allocation (min/avg/max) = 18.19 | 18.19 | 18.19 Mbytes
Step Temp Press TotEng PotEng Enthalpy 
   40495    2410.4143    613.92094   -59418.053   -65540.725    -59279.91 
   42000    2371.0257   -626.20734   -59494.074   -65516.695   -59635.178 
Loop time of 220.046 on 1 procs for 1505 steps with 19652 atoms

Performance: 0.591 ns/day, 40.614 hours/ns, 6.839 timesteps/s
99.8% CPU use with 1 MPI tasks x no OpenMP threads

MPI task timing breakdown:
Section |  min time  |  avg time  |  max time  |%varavg| %total
---------------------------------------------------------------
Pair    | 117.85     | 117.85     | 117.85     |   0.0 | 53.56
Neigh   | 97.82      | 97.82      | 97.82      |   0.0 | 44.45
Comm    | 1.6121     | 1.6121     | 1.6121     |   0.0 |  0.73
Output  | 0.14498    | 0.14498    | 0.14498    |   0.0 |  0.07
Modify  | 2.0421     | 2.0421     | 2.0421     |   0.0 |  0.93
Other   |            | 0.5758     |            |       |  0.26

Nlocal:    19652 ave 19652 max 19652 min
Histogram: 1 0 0 0 0 0 0 0 0 0
Nghost:    17670 ave 17670 max 17670 min
Histogram: 1 0 0 0 0 0 0 0 0 0
Neighs:    1.3702e+06 ave 1.3702e+06 max 1.3702e+06 min
Histogram: 1 0 0 0 0 0 0 0 0 0

Total # of neighbors = 1370198
Ave neighs/atom = 69.7231
Neighbor list builds = 1505
Dangerous builds not checked
Setting up Verlet run ...
  Unit style    : metal
  Current step  : 42000
  Time step     : 0.001
Per MPI rank memory allocation (min/avg/max) = 18.19 | 18.19 | 18.19 Mbytes
Step Temp Press TotEng PotEng Enthalpy 
   42000    2371.0257   -626.20734   -59494.074   -65516.695   -59635.178 
   42495    2359.6879   -1398.9097   -59635.015   -65628.837   -59949.617 
Loop time of 72.8952 on 1 procs for 495 steps with 19652 atoms

Performance: 0.587 ns/day, 40.906 hours/ns, 6.791 timesteps/s
99.7% CPU use with 1 MPI tasks x no OpenMP threads

MPI task timing breakdown:
Section |  min time  |  avg time  |  max time  |%varavg| %total
---------------------------------------------------------------
Pair    | 39.183     | 39.183     | 39.183     |   0.0 | 53.75
Neigh   | 32.302     | 32.302     | 32.302     |   0.0 | 44.31
Comm    | 0.52826    | 0.52826    | 0.52826    |   0.0 |  0.72
Output  | 0.00015807 | 0.00015807 | 0.00015807 |   0.0 |  0.00
Modify  | 0.68531    | 0.68531    | 0.68531    |   0.0 |  0.94
Other   |            | 0.1964     |            |       |  0.27

Nlocal:    19652 ave 19652 max 19652 min
Histogram: 1 0 0 0 0 0 0 0 0 0
Nghost:    17775 ave 17775 max 17775 min
Histogram: 1 0 0 0 0 0 0 0 0 0
Neighs:    1.37275e+06 ave 1.37275e+06 max 1.37275e+06 min
Histogram: 1 0 0 0 0 0 0 0 0 0

Total # of neighbors = 1372749
Ave neighs/atom = 69.8529
Neighbor list builds = 495
Dangerous builds not checked
Setting up Verlet run ...
  Unit style    : metal
  Current step  : 42495
  Time step     : 0.001
Per MPI rank memory allocation (min/avg/max) = 18.19 | 18.19 | 18.19 Mbytes
Step Temp Press TotEng PotEng Enthalpy 
   42495    2359.6879   -1398.9097   -59635.015   -65628.837   -59949.617 
   44000    2342.4508   -268.59341   -59716.688   -65666.727   -59776.996 
Loop time of 199.678 on 1 procs for 1505 steps with 19652 atoms

Performance: 0.651 ns/day, 36.854 hours/ns, 7.537 timesteps/s
99.0% CPU use with 1 MPI tasks x no OpenMP threads

MPI task timing breakdown:
Section |  min time  |  avg time  |  max time  |%varavg| %total
---------------------------------------------------------------
Pair    | 104.79     | 104.79     | 104.79     |   0.0 | 52.48
Neigh   | 89.571     | 89.571     | 89.571     |   0.0 | 44.86
Comm    | 1.4389     | 1.4389     | 1.4389     |   0.0 |  0.72
Output  | 1.5542     | 1.5542     | 1.5542     |   0.0 |  0.78
Modify  | 1.802      | 1.802      | 1.802      |   0.0 |  0.90
Other   |            | 0.5224     |            |       |  0.26

Nlocal:    19652 ave 19652 max 19652 min
Histogram: 1 0 0 0 0 0 0 0 0 0
Nghost:    17705 ave 17705 max 17705 min
Histogram: 1 0 0 0 0 0 0 0 0 0
Neighs:    1.37497e+06 ave 1.37497e+06 max 1.37497e+06 min
Histogram: 1 0 0 0 0 0 0 0 0 0

Total # of neighbors = 1374967
Ave neighs/atom = 69.9658
Neighbor list builds = 1505
Dangerous builds not checked
Setting up Verlet run ...
  Unit style    : metal
  Current step  : 44000
  Time step     : 0.001
Per MPI rank memory allocation (min/avg/max) = 18.19 | 18.19 | 18.19 Mbytes
Step Temp Press TotEng PotEng Enthalpy 
   44000    2342.4508   -268.59341   -59716.688   -65666.727   -59776.996 
   44495    2301.0359   -356.29018    -60021.62   -65866.461   -60101.236 
Loop time of 58.8618 on 1 procs for 495 steps with 19652 atoms

Performance: 0.727 ns/day, 33.031 hours/ns, 8.410 timesteps/s
99.8% CPU use with 1 MPI tasks x no OpenMP threads

MPI task timing breakdown:
Section |  min time  |  avg time  |  max time  |%varavg| %total
---------------------------------------------------------------
Pair    | 30.669     | 30.669     | 30.669     |   0.0 | 52.10
Neigh   | 27.069     | 27.069     | 27.069     |   0.0 | 45.99
Comm    | 0.42185    | 0.42185    | 0.42185    |   0.0 |  0.72
Output  | 0.00017118 | 0.00017118 | 0.00017118 |   0.0 |  0.00
Modify  | 0.54304    | 0.54304    | 0.54304    |   0.0 |  0.92
Other   |            | 0.1592     |            |       |  0.27

Nlocal:    19652 ave 19652 max 19652 min
Histogram: 1 0 0 0 0 0 0 0 0 0
Nghost:    17788 ave 17788 max 17788 min
Histogram: 1 0 0 0 0 0 0 0 0 0
Neighs:    1.38129e+06 ave 1.38129e+06 max 1.38129e+06 min
Histogram: 1 0 0 0 0 0 0 0 0 0

Total # of neighbors = 1381286
Ave neighs/atom = 70.2873
Neighbor list builds = 495
Dangerous builds not checked
Setting up Verlet run ...
  Unit style    : metal
  Current step  : 44495
  Time step     : 0.001
Per MPI rank memory allocation (min/avg/max) = 18.19 | 18.19 | 18.19 Mbytes
Step Temp Press TotEng PotEng Enthalpy 
   44495    2301.0359   -356.29018    -60021.62   -65866.461   -60101.236 
   46000    2317.0207   -735.68309   -60091.211   -65976.654   -60255.344 
Loop time of 203.615 on 1 procs for 1505 steps with 19652 atoms

Performance: 0.639 ns/day, 37.581 hours/ns, 7.391 timesteps/s
99.6% CPU use with 1 MPI tasks x no OpenMP threads

MPI task timing breakdown:
Section |  min time  |  avg time  |  max time  |%varavg| %total
---------------------------------------------------------------
Pair    | 108.01     | 108.01     | 108.01     |   0.0 | 53.05
Neigh   | 91.602     | 91.602     | 91.602     |   0.0 | 44.99
Comm    | 1.4517     | 1.4517     | 1.4517     |   0.0 |  0.71
Output  | 0.17867    | 0.17867    | 0.17867    |   0.0 |  0.09
Modify  | 1.837      | 1.837      | 1.837      |   0.0 |  0.90
Other   |            | 0.5341     |            |       |  0.26

Nlocal:    19652 ave 19652 max 19652 min
Histogram: 1 0 0 0 0 0 0 0 0 0
Nghost:    17714 ave 17714 max 17714 min
Histogram: 1 0 0 0 0 0 0 0 0 0
Neighs:    1.38447e+06 ave 1.38447e+06 max 1.38447e+06 min
Histogram: 1 0 0 0 0 0 0 0 0 0

Total # of neighbors = 1384470
Ave neighs/atom = 70.4493
Neighbor list builds = 1505
Dangerous builds not checked
Setting up Verlet run ...
  Unit style    : metal
  Current step  : 46000
  Time step     : 0.001
Per MPI rank memory allocation (min/avg/max) = 18.19 | 18.19 | 18.19 Mbytes
Step Temp Press TotEng PotEng Enthalpy 
   46000    2317.0207   -735.68309   -60091.211   -65976.654   -60255.344 
   46495     2256.862    1293.1054   -60389.331   -66121.966   -60102.517 
Loop time of 67.2153 on 1 procs for 495 steps with 19652 atoms

Performance: 0.636 ns/day, 37.719 hours/ns, 7.364 timesteps/s
99.7% CPU use with 1 MPI tasks x no OpenMP threads

MPI task timing breakdown:
Section |  min time  |  avg time  |  max time  |%varavg| %total
---------------------------------------------------------------
Pair    | 35.559     | 35.559     | 35.559     |   0.0 | 52.90
Neigh   | 30.373     | 30.373     | 30.373     |   0.0 | 45.19
Comm    | 0.48059    | 0.48059    | 0.48059    |   0.0 |  0.72
Output  | 0.00017619 | 0.00017619 | 0.00017619 |   0.0 |  0.00
Modify  | 0.62065    | 0.62065    | 0.62065    |   0.0 |  0.92
Other   |            | 0.182      |            |       |  0.27

Nlocal:    19652 ave 19652 max 19652 min
Histogram: 1 0 0 0 0 0 0 0 0 0
Nghost:    17797 ave 17797 max 17797 min
Histogram: 1 0 0 0 0 0 0 0 0 0
Neighs:    1.39226e+06 ave 1.39226e+06 max 1.39226e+06 min
Histogram: 1 0 0 0 0 0 0 0 0 0

Total # of neighbors = 1392262
Ave neighs/atom = 70.8458
Neighbor list builds = 495
Dangerous builds not checked
Setting up Verlet run ...
  Unit style    : metal
  Current step  : 46495
  Time step     : 0.001
Per MPI rank memory allocation (min/avg/max) = 18.19 | 18.19 | 18.19 Mbytes
Step Temp Press TotEng PotEng Enthalpy 
   46495     2256.862    1293.1054   -60389.331   -66121.966   -60102.517 
   48000    2238.4687    166.34916    -60480.81   -66166.724   -60443.916 
Loop time of 207.041 on 1 procs for 1505 steps with 19652 atoms

Performance: 0.628 ns/day, 38.214 hours/ns, 7.269 timesteps/s
99.7% CPU use with 1 MPI tasks x no OpenMP threads

MPI task timing breakdown:
Section |  min time  |  avg time  |  max time  |%varavg| %total
---------------------------------------------------------------
Pair    | 109.52     | 109.52     | 109.52     |   0.0 | 52.90
Neigh   | 93.206     | 93.206     | 93.206     |   0.0 | 45.02
Comm    | 1.4656     | 1.4656     | 1.4656     |   0.0 |  0.71
Output  | 0.39853    | 0.39853    | 0.39853    |   0.0 |  0.19
Modify  | 1.8925     | 1.8925     | 1.8925     |   0.0 |  0.91
Other   |            | 0.5562     |            |       |  0.27

Nlocal:    19652 ave 19652 max 19652 min
Histogram: 1 0 0 0 0 0 0 0 0 0
Nghost:    17784 ave 17784 max 17784 min
Histogram: 1 0 0 0 0 0 0 0 0 0
Neighs:    1.39278e+06 ave 1.39278e+06 max 1.39278e+06 min
Histogram: 1 0 0 0 0 0 0 0 0 0

Total # of neighbors = 1392782
Ave neighs/atom = 70.8723
Neighbor list builds = 1505
Dangerous builds not checked
Setting up Verlet run ...
  Unit style    : metal
  Current step  : 48000
  Time step     : 0.001
Per MPI rank memory allocation (min/avg/max) = 18.19 | 18.19 | 18.19 Mbytes
Step Temp Press TotEng PotEng Enthalpy 
   48000    2238.4687    166.34916    -60480.81   -66166.724   -60443.916 
   48495    2203.1929    595.78745   -60712.009    -66308.32    -60580.29 
Loop time of 60.4255 on 1 procs for 495 steps with 19652 atoms

Performance: 0.708 ns/day, 33.909 hours/ns, 8.192 timesteps/s
99.9% CPU use with 1 MPI tasks x no OpenMP threads

MPI task timing breakdown:
Section |  min time  |  avg time  |  max time  |%varavg| %total
---------------------------------------------------------------
Pair    | 31.604     | 31.604     | 31.604     |   0.0 | 52.30
Neigh   | 27.674     | 27.674     | 27.674     |   0.0 | 45.80
Comm    | 0.43202    | 0.43202    | 0.43202    |   0.0 |  0.71
Output  | 0.00012612 | 0.00012612 | 0.00012612 |   0.0 |  0.00
Modify  | 0.55236    | 0.55236    | 0.55236    |   0.0 |  0.91
Other   |            | 0.1622     |            |       |  0.27

Nlocal:    19652 ave 19652 max 19652 min
Histogram: 1 0 0 0 0 0 0 0 0 0
Nghost:    17910 ave 17910 max 17910 min
Histogram: 1 0 0 0 0 0 0 0 0 0
Neighs:    1.39756e+06 ave 1.39756e+06 max 1.39756e+06 min
Histogram: 1 0 0 0 0 0 0 0 0 0

Total # of neighbors = 1397563
Ave neighs/atom = 71.1156
Neighbor list builds = 495
Dangerous builds not checked
Setting up Verlet run ...
  Unit style    : metal
  Current step  : 48495
  Time step     : 0.001
Per MPI rank memory allocation (min/avg/max) = 18.19 | 18.19 | 18.19 Mbytes
Step Temp Press TotEng PotEng Enthalpy 
   48495    2203.1929    595.78745   -60712.009    -66308.32    -60580.29 
   50000    2189.2706   -64.500541   -60910.573    -66471.52    -60924.79 
Loop time of 195.716 on 1 procs for 1505 steps with 19652 atoms

Performance: 0.664 ns/day, 36.123 hours/ns, 7.690 timesteps/s
98.8% CPU use with 1 MPI tasks x no OpenMP threads

MPI task timing breakdown:
Section |  min time  |  avg time  |  max time  |%varavg| %total
---------------------------------------------------------------
Pair    | 101.8      | 101.8      | 101.8      |   0.0 | 52.01
Neigh   | 88.204     | 88.204     | 88.204     |   0.0 | 45.07
Comm    | 1.3773     | 1.3773     | 1.3773     |   0.0 |  0.70
Output  | 2.0717     | 2.0717     | 2.0717     |   0.0 |  1.06
Modify  | 1.7632     | 1.7632     | 1.7632     |   0.0 |  0.90
Other   |            | 0.5046     |            |       |  0.26

Nlocal:    19652 ave 19652 max 19652 min
Histogram: 1 0 0 0 0 0 0 0 0 0
Nghost:    17911 ave 17911 max 17911 min
Histogram: 1 0 0 0 0 0 0 0 0 0
Neighs:    1.4015e+06 ave 1.4015e+06 max 1.4015e+06 min
Histogram: 1 0 0 0 0 0 0 0 0 0

Total # of neighbors = 1401503
Ave neighs/atom = 71.316
Neighbor list builds = 1505
Dangerous builds not checked
Setting up Verlet run ...
  Unit style    : metal
  Current step  : 50000
  Time step     : 0.001
Per MPI rank memory allocation (min/avg/max) = 18.19 | 18.19 | 18.19 Mbytes
Step Temp Press TotEng PotEng Enthalpy 
   50000    2189.2706   -64.500541   -60910.573    -66471.52    -60924.79 
   50495    2144.5166    812.05857   -61030.666   -66477.934    -60851.93 
Loop time of 62.1441 on 1 procs for 495 steps with 19652 atoms

Performance: 0.688 ns/day, 34.873 hours/ns, 7.965 timesteps/s
99.2% CPU use with 1 MPI tasks x no OpenMP threads

MPI task timing breakdown:
Section |  min time  |  avg time  |  max time  |%varavg| %total
---------------------------------------------------------------
Pair    | 32.632     | 32.632     | 32.632     |   0.0 | 52.51
Neigh   | 28.359     | 28.359     | 28.359     |   0.0 | 45.63
Comm    | 0.42794    | 0.42794    | 0.42794    |   0.0 |  0.69
Output  | 0.00012398 | 0.00012398 | 0.00012398 |   0.0 |  0.00
Modify  | 0.57443    | 0.57443    | 0.57443    |   0.0 |  0.92
Other   |            | 0.1504     |            |       |  0.24

Nlocal:    19652 ave 19652 max 19652 min
Histogram: 1 0 0 0 0 0 0 0 0 0
Nghost:    17927 ave 17927 max 17927 min
Histogram: 1 0 0 0 0 0 0 0 0 0
Neighs:    1.40316e+06 ave 1.40316e+06 max 1.40316e+06 min
Histogram: 1 0 0 0 0 0 0 0 0 0

Total # of neighbors = 1403155
Ave neighs/atom = 71.4001
Neighbor list builds = 495
Dangerous builds not checked
Setting up Verlet run ...
  Unit style    : metal
  Current step  : 50495
  Time step     : 0.001
Per MPI rank memory allocation (min/avg/max) = 18.19 | 18.19 | 18.19 Mbytes
Step Temp Press TotEng PotEng Enthalpy 
   50495    2144.5166    812.05857   -61030.666   -66477.934    -60851.93 
   52000    2148.4106    101.01677   -61139.088   -66596.247   -61116.892 
Loop time of 198.219 on 1 procs for 1505 steps with 19652 atoms

Performance: 0.656 ns/day, 36.585 hours/ns, 7.593 timesteps/s
99.2% CPU use with 1 MPI tasks x no OpenMP threads

MPI task timing breakdown:
Section |  min time  |  avg time  |  max time  |%varavg| %total
---------------------------------------------------------------
Pair    | 104.21     | 104.21     | 104.21     |   0.0 | 52.57
Neigh   | 90.226     | 90.226     | 90.226     |   0.0 | 45.52
Comm    | 1.3909     | 1.3909     | 1.3909     |   0.0 |  0.70
Output  | 0.081428   | 0.081428   | 0.081428   |   0.0 |  0.04
Modify  | 1.8248     | 1.8248     | 1.8248     |   0.0 |  0.92
Other   |            | 0.4837     |            |       |  0.24

Nlocal:    19652 ave 19652 max 19652 min
Histogram: 1 0 0 0 0 0 0 0 0 0
Nghost:    17900 ave 17900 max 17900 min
Histogram: 1 0 0 0 0 0 0 0 0 0
Neighs:    1.40605e+06 ave 1.40605e+06 max 1.40605e+06 min
Histogram: 1 0 0 0 0 0 0 0 0 0

Total # of neighbors = 1406046
Ave neighs/atom = 71.5472
Neighbor list builds = 1505
Dangerous builds not checked
Setting up Verlet run ...
  Unit style    : metal
  Current step  : 52000
  Time step     : 0.001
Per MPI rank memory allocation (min/avg/max) = 18.19 | 18.19 | 18.19 Mbytes
Step Temp Press TotEng PotEng Enthalpy 
   52000    2148.4106    101.01677   -61139.088   -66596.247   -61116.892 
   52495    2116.1629    38.341473    -61362.97   -66738.217    -61354.57 
Loop time of 57.0218 on 1 procs for 495 steps with 19652 atoms

Performance: 0.750 ns/day, 31.999 hours/ns, 8.681 timesteps/s
99.8% CPU use with 1 MPI tasks x no OpenMP threads

MPI task timing breakdown:
Section |  min time  |  avg time  |  max time  |%varavg| %total
---------------------------------------------------------------
Pair    | 29.747     | 29.747     | 29.747     |   0.0 | 52.17
Neigh   | 26.227     | 26.227     | 26.227     |   0.0 | 45.99
Comm    | 0.39343    | 0.39343    | 0.39343    |   0.0 |  0.69
Output  | 0.00012612 | 0.00012612 | 0.00012612 |   0.0 |  0.00
Modify  | 0.5151     | 0.5151     | 0.5151     |   0.0 |  0.90
Other   |            | 0.1391     |            |       |  0.24

Nlocal:    19652 ave 19652 max 19652 min
Histogram: 1 0 0 0 0 0 0 0 0 0
Nghost:    17864 ave 17864 max 17864 min
Histogram: 1 0 0 0 0 0 0 0 0 0
Neighs:    1.40928e+06 ave 1.40928e+06 max 1.40928e+06 min
Histogram: 1 0 0 0 0 0 0 0 0 0

Total # of neighbors = 1409275
Ave neighs/atom = 71.7115
Neighbor list builds = 495
Dangerous builds not checked
Setting up Verlet run ...
  Unit style    : metal
  Current step  : 52495
  Time step     : 0.001
Per MPI rank memory allocation (min/avg/max) = 18.19 | 18.19 | 18.19 Mbytes
Step Temp Press TotEng PotEng Enthalpy 
   52495    2116.1629    38.341473    -61362.97   -66738.217    -61354.57 
   54000    2088.0045   -1549.9141   -61442.273   -66745.995   -61782.204 
Loop time of 197.518 on 1 procs for 1505 steps with 19652 atoms

Performance: 0.658 ns/day, 36.456 hours/ns, 7.620 timesteps/s
94.8% CPU use with 1 MPI tasks x no OpenMP threads

MPI task timing breakdown:
Section |  min time  |  avg time  |  max time  |%varavg| %total
---------------------------------------------------------------
Pair    | 98.334     | 98.334     | 98.334     |   0.0 | 49.78
Neigh   | 85.778     | 85.778     | 85.778     |   0.0 | 43.43
Comm    | 1.3519     | 1.3519     | 1.3519     |   0.0 |  0.68
Output  | 9.8922     | 9.8922     | 9.8922     |   0.0 |  5.01
Modify  | 1.7104     | 1.7104     | 1.7104     |   0.0 |  0.87
Other   |            | 0.4517     |            |       |  0.23

Nlocal:    19652 ave 19652 max 19652 min
Histogram: 1 0 0 0 0 0 0 0 0 0
Nghost:    17910 ave 17910 max 17910 min
Histogram: 1 0 0 0 0 0 0 0 0 0
Neighs:    1.40826e+06 ave 1.40826e+06 max 1.40826e+06 min
Histogram: 1 0 0 0 0 0 0 0 0 0

Total # of neighbors = 1408255
Ave neighs/atom = 71.6596
Neighbor list builds = 1505
Dangerous builds not checked
Setting up Verlet run ...
  Unit style    : metal
  Current step  : 54000
  Time step     : 0.001
Per MPI rank memory allocation (min/avg/max) = 18.19 | 18.19 | 18.19 Mbytes
Step Temp Press TotEng PotEng Enthalpy 
   54000    2088.0045   -1549.9141   -61442.273   -66745.995   -61782.204 
   54495    2067.9991    -98.72566   -61689.597   -66942.503   -61711.142 
Loop time of 66.2367 on 1 procs for 495 steps with 19652 atoms

Performance: 0.646 ns/day, 37.170 hours/ns, 7.473 timesteps/s
99.5% CPU use with 1 MPI tasks x no OpenMP threads

MPI task timing breakdown:
Section |  min time  |  avg time  |  max time  |%varavg| %total
---------------------------------------------------------------
Pair    | 34.993     | 34.993     | 34.993     |   0.0 | 52.83
Neigh   | 29.949     | 29.949     | 29.949     |   0.0 | 45.22
Comm    | 0.49514    | 0.49514    | 0.49514    |   0.0 |  0.75
Output  | 0.00013399 | 0.00013399 | 0.00013399 |   0.0 |  0.00
Modify  | 0.63852    | 0.63852    | 0.63852    |   0.0 |  0.96
Other   |            | 0.161      |            |       |  0.24

Nlocal:    19652 ave 19652 max 19652 min
Histogram: 1 0 0 0 0 0 0 0 0 0
Nghost:    17947 ave 17947 max 17947 min
Histogram: 1 0 0 0 0 0 0 0 0 0
Neighs:    1.41497e+06 ave 1.41497e+06 max 1.41497e+06 min
Histogram: 1 0 0 0 0 0 0 0 0 0

Total # of neighbors = 1414967
Ave neighs/atom = 72.0012
Neighbor list builds = 495
Dangerous builds not checked
Setting up Verlet run ...
  Unit style    : metal
  Current step  : 54495
  Time step     : 0.001
Per MPI rank memory allocation (min/avg/max) = 18.19 | 18.19 | 18.19 Mbytes
Step Temp Press TotEng PotEng Enthalpy 
   54495    2067.9991    -98.72566   -61689.597   -66942.503   -61711.142 
   56000    2088.0851    1149.9586   -61675.327   -66979.254   -61424.885 
Loop time of 197.803 on 1 procs for 1505 steps with 19652 atoms

Performance: 0.657 ns/day, 36.509 hours/ns, 7.609 timesteps/s
99.2% CPU use with 1 MPI tasks x no OpenMP threads

MPI task timing breakdown:
Section |  min time  |  avg time  |  max time  |%varavg| %total
---------------------------------------------------------------
Pair    | 104.14     | 104.14     | 104.14     |   0.0 | 52.65
Neigh   | 89.719     | 89.719     | 89.719     |   0.0 | 45.36
Comm    | 1.4552     | 1.4552     | 1.4552     |   0.0 |  0.74
Output  | 0.15023    | 0.15023    | 0.15023    |   0.0 |  0.08
Modify  | 1.8577     | 1.8577     | 1.8577     |   0.0 |  0.94
Other   |            | 0.4848     |            |       |  0.25

Nlocal:    19652 ave 19652 max 19652 min
Histogram: 1 0 0 0 0 0 0 0 0 0
Nghost:    17948 ave 17948 max 17948 min
Histogram: 1 0 0 0 0 0 0 0 0 0
Neighs:    1.41854e+06 ave 1.41854e+06 max 1.41854e+06 min
Histogram: 1 0 0 0 0 0 0 0 0 0

Total # of neighbors = 1418538
Ave neighs/atom = 72.1829
Neighbor list builds = 1505
Dangerous builds not checked
Setting up Verlet run ...
  Unit style    : metal
  Current step  : 56000
  Time step     : 0.001
Per MPI rank memory allocation (min/avg/max) = 18.19 | 18.19 | 18.19 Mbytes
Step Temp Press TotEng PotEng Enthalpy 
   56000    2088.0851    1149.9586   -61675.327   -66979.254   -61424.885 
   56495    2015.9623    947.21651   -61997.011   -67117.739    -61791.33 
Loop time of 58.0085 on 1 procs for 495 steps with 19652 atoms

Performance: 0.737 ns/day, 32.552 hours/ns, 8.533 timesteps/s
99.6% CPU use with 1 MPI tasks x no OpenMP threads

MPI task timing breakdown:
Section |  min time  |  avg time  |  max time  |%varavg| %total
---------------------------------------------------------------
Pair    | 30.182     | 30.182     | 30.182     |   0.0 | 52.03
Neigh   | 26.716     | 26.716     | 26.716     |   0.0 | 46.05
Comm    | 0.42706    | 0.42706    | 0.42706    |   0.0 |  0.74
Output  | 0.00011396 | 0.00011396 | 0.00011396 |   0.0 |  0.00
Modify  | 0.54248    | 0.54248    | 0.54248    |   0.0 |  0.94
Other   |            | 0.1407     |            |       |  0.24

Nlocal:    19652 ave 19652 max 19652 min
Histogram: 1 0 0 0 0 0 0 0 0 0
Nghost:    17990 ave 17990 max 17990 min
Histogram: 1 0 0 0 0 0 0 0 0 0
Neighs:    1.42244e+06 ave 1.42244e+06 max 1.42244e+06 min
Histogram: 1 0 0 0 0 0 0 0 0 0

Total # of neighbors = 1422442
Ave neighs/atom = 72.3815
Neighbor list builds = 495
Dangerous builds not checked
Setting up Verlet run ...
  Unit style    : metal
  Current step  : 56495
  Time step     : 0.001
Per MPI rank memory allocation (min/avg/max) = 18.19 | 18.19 | 18.19 Mbytes
Step Temp Press TotEng PotEng Enthalpy 
   56495    2015.9623    947.21651   -61997.011   -67117.739    -61791.33 
   58000    2011.6024    1193.3258   -62097.602   -67207.256   -61839.083 
Loop time of 173.007 on 1 procs for 1505 steps with 19652 atoms

Performance: 0.752 ns/day, 31.932 hours/ns, 8.699 timesteps/s
99.8% CPU use with 1 MPI tasks x no OpenMP threads

MPI task timing breakdown:
Section |  min time  |  avg time  |  max time  |%varavg| %total
---------------------------------------------------------------
Pair    | 89.677     | 89.677     | 89.677     |   0.0 | 51.83
Neigh   | 79.924     | 79.924     | 79.924     |   0.0 | 46.20
Comm    | 1.2774     | 1.2774     | 1.2774     |   0.0 |  0.74
Output  | 0.12378    | 0.12378    | 0.12378    |   0.0 |  0.07
Modify  | 1.587      | 1.587      | 1.587      |   0.0 |  0.92
Other   |            | 0.4179     |            |       |  0.24

Nlocal:    19652 ave 19652 max 19652 min
Histogram: 1 0 0 0 0 0 0 0 0 0
Nghost:    17996 ave 17996 max 17996 min
Histogram: 1 0 0 0 0 0 0 0 0 0
Neighs:    1.42566e+06 ave 1.42566e+06 max 1.42566e+06 min
Histogram: 1 0 0 0 0 0 0 0 0 0

Total # of neighbors = 1425663
Ave neighs/atom = 72.5454
Neighbor list builds = 1505
Dangerous builds not checked
Setting up Verlet run ...
  Unit style    : metal
  Current step  : 58000
  Time step     : 0.001
Per MPI rank memory allocation (min/avg/max) = 18.19 | 18.19 | 18.19 Mbytes
Step Temp Press TotEng PotEng Enthalpy 
   58000    2011.6024    1193.3258   -62097.602   -67207.256   -61839.083 
   58495    1956.6683    865.46708   -62370.676   -67340.792   -62183.703 
Loop time of 59.3479 on 1 procs for 495 steps with 19652 atoms

Performance: 0.721 ns/day, 33.304 hours/ns, 8.341 timesteps/s
100.0% CPU use with 1 MPI tasks x no OpenMP threads

MPI task timing breakdown:
Section |  min time  |  avg time  |  max time  |%varavg| %total
---------------------------------------------------------------
Pair    | 30.941     | 30.941     | 30.941     |   0.0 | 52.14
Neigh   | 27.29      | 27.29      | 27.29      |   0.0 | 45.98
Comm    | 0.42559    | 0.42559    | 0.42559    |   0.0 |  0.72
Output  | 0.00012183 | 0.00012183 | 0.00012183 |   0.0 |  0.00
Modify  | 0.54854    | 0.54854    | 0.54854    |   0.0 |  0.92
Other   |            | 0.1425     |            |       |  0.24

Nlocal:    19652 ave 19652 max 19652 min
Histogram: 1 0 0 0 0 0 0 0 0 0
Nghost:    17981 ave 17981 max 17981 min
Histogram: 1 0 0 0 0 0 0 0 0 0
Neighs:    1.42975e+06 ave 1.42975e+06 max 1.42975e+06 min
Histogram: 1 0 0 0 0 0 0 0 0 0

Total # of neighbors = 1429751
Ave neighs/atom = 72.7535
Neighbor list builds = 495
Dangerous builds not checked
Setting up Verlet run ...
  Unit style    : metal
  Current step  : 58495
  Time step     : 0.001
Per MPI rank memory allocation (min/avg/max) = 18.19 | 18.19 | 18.19 Mbytes
Step Temp Press TotEng PotEng Enthalpy 
   58495    1956.6683    865.46708   -62370.676   -67340.792   -62183.703 
   60000    1947.1739   -2390.4405   -62446.148   -67392.147   -62963.675 
Loop time of 187.65 on 1 procs for 1505 steps with 19652 atoms

Performance: 0.693 ns/day, 34.635 hours/ns, 8.020 timesteps/s
98.3% CPU use with 1 MPI tasks x no OpenMP threads

MPI task timing breakdown:
Section |  min time  |  avg time  |  max time  |%varavg| %total
---------------------------------------------------------------
Pair    | 96.8       | 96.8       | 96.8       |   0.0 | 51.59
Neigh   | 84.887     | 84.887     | 84.887     |   0.0 | 45.24
Comm    | 1.3195     | 1.3195     | 1.3195     |   0.0 |  0.70
Output  | 2.4784     | 2.4784     | 2.4784     |   0.0 |  1.32
Modify  | 1.6944     | 1.6944     | 1.6944     |   0.0 |  0.90
Other   |            | 0.4718     |            |       |  0.25

Nlocal:    19652 ave 19652 max 19652 min
Histogram: 1 0 0 0 0 0 0 0 0 0
Nghost:    17930 ave 17930 max 17930 min
Histogram: 1 0 0 0 0 0 0 0 0 0
Neighs:    1.42732e+06 ave 1.42732e+06 max 1.42732e+06 min
Histogram: 1 0 0 0 0 0 0 0 0 0

Total # of neighbors = 1427325
Ave neighs/atom = 72.63
Neighbor list builds = 1505
Dangerous builds not checked
Setting up Verlet run ...
  Unit style    : metal
  Current step  : 60000
  Time step     : 0.001
Per MPI rank memory allocation (min/avg/max) = 18.19 | 18.19 | 18.19 Mbytes
Step Temp Press TotEng PotEng Enthalpy 
   60000    1947.1739   -2390.4405   -62446.148   -67392.147   -62963.675 
   60495    1903.2314    -921.4205   -62714.628   -67549.009   -62913.159 
Loop time of 57.7738 on 1 procs for 495 steps with 19652 atoms

Performance: 0.740 ns/day, 32.421 hours/ns, 8.568 timesteps/s
99.5% CPU use with 1 MPI tasks x no OpenMP threads

MPI task timing breakdown:
Section |  min time  |  avg time  |  max time  |%varavg| %total
---------------------------------------------------------------
Pair    | 30.137     | 30.137     | 30.137     |   0.0 | 52.16
Neigh   | 26.553     | 26.553     | 26.553     |   0.0 | 45.96
Comm    | 0.40105    | 0.40105    | 0.40105    |   0.0 |  0.69
Output  | 0.00012684 | 0.00012684 | 0.00012684 |   0.0 |  0.00
Modify  | 0.52606    | 0.52606    | 0.52606    |   0.0 |  0.91
Other   |            | 0.156      |            |       |  0.27

Nlocal:    19652 ave 19652 max 19652 min
Histogram: 1 0 0 0 0 0 0 0 0 0
Nghost:    17987 ave 17987 max 17987 min
Histogram: 1 0 0 0 0 0 0 0 0 0
Neighs:    1.43343e+06 ave 1.43343e+06 max 1.43343e+06 min
Histogram: 1 0 0 0 0 0 0 0 0 0

Total # of neighbors = 1433433
Ave neighs/atom = 72.9408
Neighbor list builds = 495
Dangerous builds not checked
Setting up Verlet run ...
  Unit style    : metal
  Current step  : 60495
  Time step     : 0.001
Per MPI rank memory allocation (min/avg/max) = 18.19 | 18.19 | 18.19 Mbytes
Step Temp Press TotEng PotEng Enthalpy 
   60495    1903.2314    -921.4205   -62714.628   -67549.009   -62913.159 
   62000    1898.3164   -523.74924   -62741.754   -67563.651   -62854.492 
Loop time of 178.257 on 1 procs for 1505 steps with 19652 atoms

Performance: 0.729 ns/day, 32.901 hours/ns, 8.443 timesteps/s
99.5% CPU use with 1 MPI tasks x no OpenMP threads

MPI task timing breakdown:
Section |  min time  |  avg time  |  max time  |%varavg| %total
---------------------------------------------------------------
Pair    | 92.673     | 92.673     | 92.673     |   0.0 | 51.99
Neigh   | 81.679     | 81.679     | 81.679     |   0.0 | 45.82
Comm    | 1.2401     | 1.2401     | 1.2401     |   0.0 |  0.70
Output  | 0.57735    | 0.57735    | 0.57735    |   0.0 |  0.32
Modify  | 1.6048     | 1.6048     | 1.6048     |   0.0 |  0.90
Other   |            | 0.4829     |            |       |  0.27

Nlocal:    19652 ave 19652 max 19652 min
Histogram: 1 0 0 0 0 0 0 0 0 0
Nghost:    18017 ave 18017 max 18017 min
Histogram: 1 0 0 0 0 0 0 0 0 0
Neighs:    1.43528e+06 ave 1.43528e+06 max 1.43528e+06 min
Histogram: 1 0 0 0 0 0 0 0 0 0

Total # of neighbors = 1435283
Ave neighs/atom = 73.035
Neighbor list builds = 1505
Dangerous builds not checked
Setting up Verlet run ...
  Unit style    : metal
  Current step  : 62000
  Time step     : 0.001
Per MPI rank memory allocation (min/avg/max) = 18.19 | 18.19 | 18.19 Mbytes
Step Temp Press TotEng PotEng Enthalpy 
   62000    1898.3164   -523.74924   -62741.754   -67563.651   -62854.492 
   62495    1874.0356   -654.79367   -63016.797   -67777.018   -63157.244 
Loop time of 59.976 on 1 procs for 495 steps with 19652 atoms

Performance: 0.713 ns/day, 33.657 hours/ns, 8.253 timesteps/s
99.8% CPU use with 1 MPI tasks x no OpenMP threads

MPI task timing breakdown:
Section |  min time  |  avg time  |  max time  |%varavg| %total
---------------------------------------------------------------
Pair    | 31.612     | 31.612     | 31.612     |   0.0 | 52.71
Neigh   | 27.26      | 27.26      | 27.26      |   0.0 | 45.45
Comm    | 0.40971    | 0.40971    | 0.40971    |   0.0 |  0.68
Output  | 0.00011992 | 0.00011992 | 0.00011992 |   0.0 |  0.00
Modify  | 0.53494    | 0.53494    | 0.53494    |   0.0 |  0.89
Other   |            | 0.1597     |            |       |  0.27

Nlocal:    19652 ave 19652 max 19652 min
Histogram: 1 0 0 0 0 0 0 0 0 0
Nghost:    18037 ave 18037 max 18037 min
Histogram: 1 0 0 0 0 0 0 0 0 0
Neighs:    1.43958e+06 ave 1.43958e+06 max 1.43958e+06 min
Histogram: 1 0 0 0 0 0 0 0 0 0

Total # of neighbors = 1439583
Ave neighs/atom = 73.2538
Neighbor list builds = 495
Dangerous builds not checked
Setting up Verlet run ...
  Unit style    : metal
  Current step  : 62495
  Time step     : 0.001
Per MPI rank memory allocation (min/avg/max) = 18.19 | 18.19 | 18.19 Mbytes
Step Temp Press TotEng PotEng Enthalpy 
   62495    1874.0356   -654.79367   -63016.797   -67777.018   -63157.244 
   64000    1866.6004    12.873453   -63118.817   -67860.153   -63116.062 
Loop time of 188.602 on 1 procs for 1505 steps with 19652 atoms

Performance: 0.689 ns/day, 34.810 hours/ns, 7.980 timesteps/s
99.9% CPU use with 1 MPI tasks x no OpenMP threads

MPI task timing breakdown:
Section |  min time  |  avg time  |  max time  |%varavg| %total
---------------------------------------------------------------
Pair    | 99.445     | 99.445     | 99.445     |   0.0 | 52.73
Neigh   | 85.548     | 85.548     | 85.548     |   0.0 | 45.36
Comm    | 1.2984     | 1.2984     | 1.2984     |   0.0 |  0.69
Output  | 0.10497    | 0.10497    | 0.10497    |   0.0 |  0.06
Modify  | 1.705      | 1.705      | 1.705      |   0.0 |  0.90
Other   |            | 0.5012     |            |       |  0.27

Nlocal:    19652 ave 19652 max 19652 min
Histogram: 1 0 0 0 0 0 0 0 0 0
Nghost:    18044 ave 18044 max 18044 min
Histogram: 1 0 0 0 0 0 0 0 0 0
Neighs:    1.44266e+06 ave 1.44266e+06 max 1.44266e+06 min
Histogram: 1 0 0 0 0 0 0 0 0 0

Total # of neighbors = 1442662
Ave neighs/atom = 73.4104
Neighbor list builds = 1505
Dangerous builds not checked
Setting up Verlet run ...
  Unit style    : metal
  Current step  : 64000
  Time step     : 0.001
Per MPI rank memory allocation (min/avg/max) = 18.19 | 18.19 | 18.19 Mbytes
Step Temp Press TotEng PotEng Enthalpy 
   64000    1866.6004    12.873453   -63118.817   -67860.153   -63116.062 
   64495    1811.3756    1195.7571    -63323.73   -67924.789    -63068.57 
Loop time of 55.4705 on 1 procs for 495 steps with 19652 atoms

Performance: 0.771 ns/day, 31.128 hours/ns, 8.924 timesteps/s
100.0% CPU use with 1 MPI tasks x no OpenMP threads

MPI task timing breakdown:
Section |  min time  |  avg time  |  max time  |%varavg| %total
---------------------------------------------------------------
Pair    | 28.846     | 28.846     | 28.846     |   0.0 | 52.00
Neigh   | 25.594     | 25.594     | 25.594     |   0.0 | 46.14
Comm    | 0.38299    | 0.38299    | 0.38299    |   0.0 |  0.69
Output  | 0.00014687 | 0.00014687 | 0.00014687 |   0.0 |  0.00
Modify  | 0.4999     | 0.4999     | 0.4999     |   0.0 |  0.90
Other   |            | 0.1482     |            |       |  0.27

Nlocal:    19652 ave 19652 max 19652 min
Histogram: 1 0 0 0 0 0 0 0 0 0
Nghost:    18088 ave 18088 max 18088 min
Histogram: 1 0 0 0 0 0 0 0 0 0
Neighs:    1.44766e+06 ave 1.44766e+06 max 1.44766e+06 min
Histogram: 1 0 0 0 0 0 0 0 0 0

Total # of neighbors = 1447658
Ave neighs/atom = 73.6647
Neighbor list builds = 495
Dangerous builds not checked
Setting up Verlet run ...
  Unit style    : metal
  Current step  : 64495
  Time step     : 0.001
Per MPI rank memory allocation (min/avg/max) = 18.19 | 18.19 | 18.19 Mbytes
Step Temp Press TotEng PotEng Enthalpy 
   64495    1811.3756    1195.7571    -63323.73   -67924.789    -63068.57 
   66000    1794.2956     1674.606   -63462.113   -68019.787   -63105.538 
Loop time of 176.962 on 1 procs for 1505 steps with 19652 atoms

Performance: 0.735 ns/day, 32.662 hours/ns, 8.505 timesteps/s
100.0% CPU use with 1 MPI tasks x no OpenMP threads

MPI task timing breakdown:
Section |  min time  |  avg time  |  max time  |%varavg| %total
---------------------------------------------------------------
Pair    | 92.402     | 92.402     | 92.402     |   0.0 | 52.22
Neigh   | 81.224     | 81.224     | 81.224     |   0.0 | 45.90
Comm    | 1.2248     | 1.2248     | 1.2248     |   0.0 |  0.69
Output  | 0.058487   | 0.058487   | 0.058487   |   0.0 |  0.03
Modify  | 1.5811     | 1.5811     | 1.5811     |   0.0 |  0.89
Other   |            | 0.4714     |            |       |  0.27

Nlocal:    19652 ave 19652 max 19652 min
Histogram: 1 0 0 0 0 0 0 0 0 0
Nghost:    18120 ave 18120 max 18120 min
Histogram: 1 0 0 0 0 0 0 0 0 0
Neighs:    1.45041e+06 ave 1.45041e+06 max 1.45041e+06 min
Histogram: 1 0 0 0 0 0 0 0 0 0

Total # of neighbors = 1450414
Ave neighs/atom = 73.8049
Neighbor list builds = 1505
Dangerous builds not checked
Setting up Verlet run ...
  Unit style    : metal
  Current step  : 66000
  Time step     : 0.001
Per MPI rank memory allocation (min/avg/max) = 18.19 | 18.19 | 18.19 Mbytes
Step Temp Press TotEng PotEng Enthalpy 
   66000    1794.2956     1674.606   -63462.113   -68019.787   -63105.538 
   66495    1757.9372    523.44622   -63658.305   -68123.626       -63547 
Loop time of 57.9425 on 1 procs for 495 steps with 19652 atoms

Performance: 0.738 ns/day, 32.515 hours/ns, 8.543 timesteps/s
100.0% CPU use with 1 MPI tasks x no OpenMP threads

MPI task timing breakdown:
Section |  min time  |  avg time  |  max time  |%varavg| %total
---------------------------------------------------------------
Pair    | 30.305     | 30.305     | 30.305     |   0.0 | 52.30
Neigh   | 26.564     | 26.564     | 26.564     |   0.0 | 45.84
Comm    | 0.3946     | 0.3946     | 0.3946     |   0.0 |  0.68
Output  | 0.0001452  | 0.0001452  | 0.0001452  |   0.0 |  0.00
Modify  | 0.52324    | 0.52324    | 0.52324    |   0.0 |  0.90
Other   |            | 0.1563     |            |       |  0.27

Nlocal:    19652 ave 19652 max 19652 min
Histogram: 1 0 0 0 0 0 0 0 0 0
Nghost:    18159 ave 18159 max 18159 min
Histogram: 1 0 0 0 0 0 0 0 0 0
Neighs:    1.45225e+06 ave 1.45225e+06 max 1.45225e+06 min
Histogram: 1 0 0 0 0 0 0 0 0 0

Total # of neighbors = 1452252
Ave neighs/atom = 73.8984
Neighbor list builds = 495
Dangerous builds not checked
Setting up Verlet run ...
  Unit style    : metal
  Current step  : 66495
  Time step     : 0.001
Per MPI rank memory allocation (min/avg/max) = 18.19 | 18.19 | 18.19 Mbytes
Step Temp Press TotEng PotEng Enthalpy 
   66495    1757.9372    523.44622   -63658.305   -68123.626       -63547 
   68000    1754.2714    318.36289   -63814.429   -68270.438   -63746.916 
Loop time of 177.381 on 1 procs for 1505 steps with 19652 atoms

Performance: 0.733 ns/day, 32.739 hours/ns, 8.485 timesteps/s
100.0% CPU use with 1 MPI tasks x no OpenMP threads

MPI task timing breakdown:
Section |  min time  |  avg time  |  max time  |%varavg| %total
---------------------------------------------------------------
Pair    | 93.057     | 93.057     | 93.057     |   0.0 | 52.46
Neigh   | 80.964     | 80.964     | 80.964     |   0.0 | 45.64
Comm    | 1.2208     | 1.2208     | 1.2208     |   0.0 |  0.69
Output  | 0.082374   | 0.082374   | 0.082374   |   0.0 |  0.05
Modify  | 1.5827     | 1.5827     | 1.5827     |   0.0 |  0.89
Other   |            | 0.4738     |            |       |  0.27

Nlocal:    19652 ave 19652 max 19652 min
Histogram: 1 0 0 0 0 0 0 0 0 0
Nghost:    18095 ave 18095 max 18095 min
Histogram: 1 0 0 0 0 0 0 0 0 0
Neighs:    1.45601e+06 ave 1.45601e+06 max 1.45601e+06 min
Histogram: 1 0 0 0 0 0 0 0 0 0

Total # of neighbors = 1456008
Ave neighs/atom = 74.0896
Neighbor list builds = 1505
Dangerous builds not checked
Setting up Verlet run ...
  Unit style    : metal
  Current step  : 68000
  Time step     : 0.001
Per MPI rank memory allocation (min/avg/max) = 18.19 | 18.19 | 18.19 Mbytes
Step Temp Press TotEng PotEng Enthalpy 
   68000    1754.2714    318.36289   -63814.429   -68270.438   -63746.916 
   68495    1725.0006   -174.87909   -64032.449   -68414.108   -64069.451 
Loop time of 56.4219 on 1 procs for 495 steps with 19652 atoms

Performance: 0.758 ns/day, 31.662 hours/ns, 8.773 timesteps/s
100.0% CPU use with 1 MPI tasks x no OpenMP threads

MPI task timing breakdown:
Section |  min time  |  avg time  |  max time  |%varavg| %total
---------------------------------------------------------------
Pair    | 29.435     | 29.435     | 29.435     |   0.0 | 52.17
Neigh   | 25.939     | 25.939     | 25.939     |   0.0 | 45.97
Comm    | 0.38713    | 0.38713    | 0.38713    |   0.0 |  0.69
Output  | 0.00012994 | 0.00012994 | 0.00012994 |   0.0 |  0.00
Modify  | 0.50842    | 0.50842    | 0.50842    |   0.0 |  0.90
Other   |            | 0.1518     |            |       |  0.27

Nlocal:    19652 ave 19652 max 19652 min
Histogram: 1 0 0 0 0 0 0 0 0 0
Nghost:    18162 ave 18162 max 18162 min
Histogram: 1 0 0 0 0 0 0 0 0 0
Neighs:    1.45934e+06 ave 1.45934e+06 max 1.45934e+06 min
Histogram: 1 0 0 0 0 0 0 0 0 0

Total # of neighbors = 1459339
Ave neighs/atom = 74.2591
Neighbor list builds = 495
Dangerous builds not checked
Setting up Verlet run ...
  Unit style    : metal
  Current step  : 68495
  Time step     : 0.001
Per MPI rank memory allocation (min/avg/max) = 18.19 | 18.19 | 18.19 Mbytes
Step Temp Press TotEng PotEng Enthalpy 
   68495    1725.0006   -174.87909   -64032.449   -68414.108   -64069.451 
   70000    1710.6984   -399.49133   -64102.791   -68448.121   -64187.271 
Loop time of 177.031 on 1 procs for 1505 steps with 19652 atoms

Performance: 0.735 ns/day, 32.675 hours/ns, 8.501 timesteps/s
99.1% CPU use with 1 MPI tasks x no OpenMP threads

MPI task timing breakdown:
Section |  min time  |  avg time  |  max time  |%varavg| %total
---------------------------------------------------------------
Pair    | 91.903     | 91.903     | 91.903     |   0.0 | 51.91
Neigh   | 80.458     | 80.458     | 80.458     |   0.0 | 45.45
Comm    | 1.2052     | 1.2052     | 1.2052     |   0.0 |  0.68
Output  | 1.4232     | 1.4232     | 1.4232     |   0.0 |  0.80
Modify  | 1.5708     | 1.5708     | 1.5708     |   0.0 |  0.89
Other   |            | 0.4711     |            |       |  0.27

Nlocal:    19652 ave 19652 max 19652 min
Histogram: 1 0 0 0 0 0 0 0 0 0
Nghost:    18180 ave 18180 max 18180 min
Histogram: 1 0 0 0 0 0 0 0 0 0
Neighs:    1.46016e+06 ave 1.46016e+06 max 1.46016e+06 min
Histogram: 1 0 0 0 0 0 0 0 0 0

Total # of neighbors = 1460155
Ave neighs/atom = 74.3006
Neighbor list builds = 1505
Dangerous builds not checked
Setting up Verlet run ...
  Unit style    : metal
  Current step  : 70000
  Time step     : 0.001
Per MPI rank memory allocation (min/avg/max) = 18.19 | 18.19 | 18.19 Mbytes
Step Temp Press TotEng PotEng Enthalpy 
   70000    1710.6984   -399.49133   -64102.791   -68448.121   -64187.271 
   70495    1667.7309    917.36255   -64349.217   -68585.405   -64155.973 
Loop time of 60.0092 on 1 procs for 495 steps with 19652 atoms

Performance: 0.713 ns/day, 33.675 hours/ns, 8.249 timesteps/s
100.0% CPU use with 1 MPI tasks x no OpenMP threads

MPI task timing breakdown:
Section |  min time  |  avg time  |  max time  |%varavg| %total
---------------------------------------------------------------
Pair    | 31.593     | 31.593     | 31.593     |   0.0 | 52.65
Neigh   | 27.293     | 27.293     | 27.293     |   0.0 | 45.48
Comm    | 0.41338    | 0.41338    | 0.41338    |   0.0 |  0.69
Output  | 0.00016499 | 0.00016499 | 0.00016499 |   0.0 |  0.00
Modify  | 0.54685    | 0.54685    | 0.54685    |   0.0 |  0.91
Other   |            | 0.1626     |            |       |  0.27

Nlocal:    19652 ave 19652 max 19652 min
Histogram: 1 0 0 0 0 0 0 0 0 0
Nghost:    18224 ave 18224 max 18224 min
Histogram: 1 0 0 0 0 0 0 0 0 0
Neighs:    1.46539e+06 ave 1.46539e+06 max 1.46539e+06 min
Histogram: 1 0 0 0 0 0 0 0 0 0

Total # of neighbors = 1465394
Ave neighs/atom = 74.5672
Neighbor list builds = 495
Dangerous builds not checked
Setting up Verlet run ...
  Unit style    : metal
  Current step  : 70495
  Time step     : 0.001
Per MPI rank memory allocation (min/avg/max) = 18.19 | 18.19 | 18.19 Mbytes
Step Temp Press TotEng PotEng Enthalpy 
   70495    1667.7309    917.36255   -64349.217   -68585.405   -64155.973 
   72000    1666.9221    2618.1771   -64506.981   -68741.115   -63957.917 
Loop time of 181.696 on 1 procs for 1505 steps with 19652 atoms

Performance: 0.716 ns/day, 33.536 hours/ns, 8.283 timesteps/s
99.3% CPU use with 1 MPI tasks x no OpenMP threads

MPI task timing breakdown:
Section |  min time  |  avg time  |  max time  |%varavg| %total
---------------------------------------------------------------
Pair    | 94.764     | 94.764     | 94.764     |   0.0 | 52.16
Neigh   | 82.38      | 82.38      | 82.38      |   0.0 | 45.34
Comm    | 1.2311     | 1.2311     | 1.2311     |   0.0 |  0.68
Output  | 1.2106     | 1.2106     | 1.2106     |   0.0 |  0.67
Modify  | 1.627      | 1.627      | 1.627      |   0.0 |  0.90
Other   |            | 0.4838     |            |       |  0.27

Nlocal:    19652 ave 19652 max 19652 min
Histogram: 1 0 0 0 0 0 0 0 0 0
Nghost:    18181 ave 18181 max 18181 min
Histogram: 1 0 0 0 0 0 0 0 0 0
Neighs:    1.47186e+06 ave 1.47186e+06 max 1.47186e+06 min
Histogram: 1 0 0 0 0 0 0 0 0 0

Total # of neighbors = 1471859
Ave neighs/atom = 74.8961
Neighbor list builds = 1505
Dangerous builds not checked
Setting up Verlet run ...
  Unit style    : metal
  Current step  : 72000
  Time step     : 0.001
Per MPI rank memory allocation (min/avg/max) = 18.19 | 18.19 | 18.19 Mbytes
Step Temp Press TotEng PotEng Enthalpy 
   72000    1666.9221    2618.1771   -64506.981   -68741.115   -63957.917 
   72495    1624.6712    737.30237    -64676.81   -68803.623   -64522.079 
Loop time of 60.7671 on 1 procs for 495 steps with 19652 atoms

Performance: 0.704 ns/day, 34.101 hours/ns, 8.146 timesteps/s
100.0% CPU use with 1 MPI tasks x no OpenMP threads

MPI task timing breakdown:
Section |  min time  |  avg time  |  max time  |%varavg| %total
---------------------------------------------------------------
Pair    | 31.98      | 31.98      | 31.98      |   0.0 | 52.63
Neigh   | 27.647     | 27.647     | 27.647     |   0.0 | 45.50
Comm    | 0.41852    | 0.41852    | 0.41852    |   0.0 |  0.69
Output  | 0.00012207 | 0.00012207 | 0.00012207 |   0.0 |  0.00
Modify  | 0.55871    | 0.55871    | 0.55871    |   0.0 |  0.92
Other   |            | 0.1633     |            |       |  0.27

Nlocal:    19652 ave 19652 max 19652 min
Histogram: 1 0 0 0 0 0 0 0 0 0
Nghost:    18276 ave 18276 max 18276 min
Histogram: 1 0 0 0 0 0 0 0 0 0
Neighs:    1.47072e+06 ave 1.47072e+06 max 1.47072e+06 min
Histogram: 1 0 0 0 0 0 0 0 0 0

Total # of neighbors = 1470723
Ave neighs/atom = 74.8383
Neighbor list builds = 495
Dangerous builds not checked
Setting up Verlet run ...
  Unit style    : metal
  Current step  : 72495
  Time step     : 0.001
Per MPI rank memory allocation (min/avg/max) = 18.19 | 18.19 | 18.19 Mbytes
Step Temp Press TotEng PotEng Enthalpy 
   72495    1624.6712    737.30237    -64676.81   -68803.623   -64522.079 
   74000    1598.1468    931.45133   -64847.152   -68906.591   -64652.166 
Loop time of 176.134 on 1 procs for 1505 steps with 19652 atoms

Performance: 0.738 ns/day, 32.509 hours/ns, 8.545 timesteps/s
98.9% CPU use with 1 MPI tasks x no OpenMP threads

MPI task timing breakdown:
Section |  min time  |  avg time  |  max time  |%varavg| %total
---------------------------------------------------------------
Pair    | 91.188     | 91.188     | 91.188     |   0.0 | 51.77
Neigh   | 79.698     | 79.698     | 79.698     |   0.0 | 45.25
Comm    | 1.2015     | 1.2015     | 1.2015     |   0.0 |  0.68
Output  | 2.0263     | 2.0263     | 2.0263     |   0.0 |  1.15
Modify  | 1.5545     | 1.5545     | 1.5545     |   0.0 |  0.88
Other   |            | 0.4649     |            |       |  0.26

Nlocal:    19652 ave 19652 max 19652 min
Histogram: 1 0 0 0 0 0 0 0 0 0
Nghost:    18269 ave 18269 max 18269 min
Histogram: 1 0 0 0 0 0 0 0 0 0
Neighs:    1.47435e+06 ave 1.47435e+06 max 1.47435e+06 min
Histogram: 1 0 0 0 0 0 0 0 0 0

Total # of neighbors = 1474350
Ave neighs/atom = 75.0229
Neighbor list builds = 1505
Dangerous builds not checked
Setting up Verlet run ...
  Unit style    : metal
  Current step  : 74000
  Time step     : 0.001
Per MPI rank memory allocation (min/avg/max) = 18.19 | 18.19 | 18.19 Mbytes
Step Temp Press TotEng PotEng Enthalpy 
   74000    1598.1468    931.45133   -64847.152   -68906.591   -64652.166 
   74495    1559.0892    -455.5711   -65097.468   -69057.697   -65192.655 
Loop time of 57.1747 on 1 procs for 495 steps with 19652 atoms

Performance: 0.748 ns/day, 32.085 hours/ns, 8.658 timesteps/s
100.0% CPU use with 1 MPI tasks x no OpenMP threads

MPI task timing breakdown:
Section |  min time  |  avg time  |  max time  |%varavg| %total
---------------------------------------------------------------
Pair    | 29.996     | 29.996     | 29.996     |   0.0 | 52.46
Neigh   | 26.109     | 26.109     | 26.109     |   0.0 | 45.66
Comm    | 0.39731    | 0.39731    | 0.39731    |   0.0 |  0.69
Output  | 0.0001421  | 0.0001421  | 0.0001421  |   0.0 |  0.00
Modify  | 0.51715    | 0.51715    | 0.51715    |   0.0 |  0.90
Other   |            | 0.155      |            |       |  0.27

Nlocal:    19652 ave 19652 max 19652 min
Histogram: 1 0 0 0 0 0 0 0 0 0
Nghost:    18278 ave 18278 max 18278 min
Histogram: 1 0 0 0 0 0 0 0 0 0
Neighs:    1.47713e+06 ave 1.47713e+06 max 1.47713e+06 min
Histogram: 1 0 0 0 0 0 0 0 0 0

Total # of neighbors = 1477128
Ave neighs/atom = 75.1643
Neighbor list builds = 495
Dangerous builds not checked
Setting up Verlet run ...
  Unit style    : metal
  Current step  : 74495
  Time step     : 0.001
Per MPI rank memory allocation (min/avg/max) = 18.19 | 18.19 | 18.19 Mbytes
Step Temp Press TotEng PotEng Enthalpy 
   74495    1559.0892    -455.5711   -65097.468   -69057.697   -65192.655 
   76000    1535.4618   -2258.0169   -65248.396   -69148.608    -65720.05 
Loop time of 175.393 on 1 procs for 1505 steps with 19652 atoms

Performance: 0.741 ns/day, 32.372 hours/ns, 8.581 timesteps/s
99.9% CPU use with 1 MPI tasks x no OpenMP threads

MPI task timing breakdown:
Section |  min time  |  avg time  |  max time  |%varavg| %total
---------------------------------------------------------------
Pair    | 92.146     | 92.146     | 92.146     |   0.0 | 52.54
Neigh   | 79.946     | 79.946     | 79.946     |   0.0 | 45.58
Comm    | 1.2163     | 1.2163     | 1.2163     |   0.0 |  0.69
Output  | 0.060467   | 0.060467   | 0.060467   |   0.0 |  0.03
Modify  | 1.5725     | 1.5725     | 1.5725     |   0.0 |  0.90
Other   |            | 0.4522     |            |       |  0.26

Nlocal:    19652 ave 19652 max 19652 min
Histogram: 1 0 0 0 0 0 0 0 0 0
Nghost:    18292 ave 18292 max 18292 min
Histogram: 1 0 0 0 0 0 0 0 0 0
Neighs:    1.47774e+06 ave 1.47774e+06 max 1.47774e+06 min
Histogram: 1 0 0 0 0 0 0 0 0 0

Total # of neighbors = 1477742
Ave neighs/atom = 75.1955
Neighbor list builds = 1505
Dangerous builds not checked
Setting up Verlet run ...
  Unit style    : metal
  Current step  : 76000
  Time step     : 0.001
Per MPI rank memory allocation (min/avg/max) = 18.19 | 18.19 | 18.19 Mbytes
Step Temp Press TotEng PotEng Enthalpy 
   76000    1535.4618   -2258.0169   -65248.396   -69148.608    -65720.05 
   76495    1518.5312    891.82963   -65375.134   -69232.341   -65189.604 
Loop time of 55.2446 on 1 procs for 495 steps with 19652 atoms

Performance: 0.774 ns/day, 31.001 hours/ns, 8.960 timesteps/s
100.0% CPU use with 1 MPI tasks x no OpenMP threads

MPI task timing breakdown:
Section |  min time  |  avg time  |  max time  |%varavg| %total
---------------------------------------------------------------
Pair    | 28.935     | 28.935     | 28.935     |   0.0 | 52.38
Neigh   | 25.288     | 25.288     | 25.288     |   0.0 | 45.77
Comm    | 0.38123    | 0.38123    | 0.38123    |   0.0 |  0.69
Output  | 0.000139   | 0.000139   | 0.000139   |   0.0 |  0.00
Modify  | 0.49033    | 0.49033    | 0.49033    |   0.0 |  0.89
Other   |            | 0.1499     |            |       |  0.27

Nlocal:    19652 ave 19652 max 19652 min
Histogram: 1 0 0 0 0 0 0 0 0 0
Nghost:    18292 ave 18292 max 18292 min
Histogram: 1 0 0 0 0 0 0 0 0 0
Neighs:    1.4834e+06 ave 1.4834e+06 max 1.4834e+06 min
Histogram: 1 0 0 0 0 0 0 0 0 0

Total # of neighbors = 1483401
Ave neighs/atom = 75.4835
Neighbor list builds = 495
Dangerous builds not checked
Setting up Verlet run ...
  Unit style    : metal
  Current step  : 76495
  Time step     : 0.001
Per MPI rank memory allocation (min/avg/max) = 18.19 | 18.19 | 18.19 Mbytes
Step Temp Press TotEng PotEng Enthalpy 
   76495    1518.5312    891.82963   -65375.134   -69232.341   -65189.604 
   78000    1505.2488    479.89506   -65551.187   -69374.657   -65451.596 
Loop time of 176.751 on 1 procs for 1505 steps with 19652 atoms

Performance: 0.736 ns/day, 32.623 hours/ns, 8.515 timesteps/s
99.9% CPU use with 1 MPI tasks x no OpenMP threads

MPI task timing breakdown:
Section |  min time  |  avg time  |  max time  |%varavg| %total
---------------------------------------------------------------
Pair    | 92.85      | 92.85      | 92.85      |   0.0 | 52.53
Neigh   | 80.499     | 80.499     | 80.499     |   0.0 | 45.54
Comm    | 1.2135     | 1.2135     | 1.2135     |   0.0 |  0.69
Output  | 0.13782    | 0.13782    | 0.13782    |   0.0 |  0.08
Modify  | 1.5768     | 1.5768     | 1.5768     |   0.0 |  0.89
Other   |            | 0.4733     |            |       |  0.27

Nlocal:    19652 ave 19652 max 19652 min
Histogram: 1 0 0 0 0 0 0 0 0 0
Nghost:    18273 ave 18273 max 18273 min
Histogram: 1 0 0 0 0 0 0 0 0 0
Neighs:    1.48731e+06 ave 1.48731e+06 max 1.48731e+06 min
Histogram: 1 0 0 0 0 0 0 0 0 0

Total # of neighbors = 1487313
Ave neighs/atom = 75.6825
Neighbor list builds = 1505
Dangerous builds not checked
Setting up Verlet run ...
  Unit style    : metal
  Current step  : 78000
  Time step     : 0.001
Per MPI rank memory allocation (min/avg/max) = 18.19 | 18.19 | 18.19 Mbytes
Step Temp Press TotEng PotEng Enthalpy 
   78000    1505.2488    479.89506   -65551.187   -69374.657   -65451.596 
   78495    1459.9303   -502.47185   -65763.728   -69472.084    -65867.91 
Loop time of 53.6123 on 1 procs for 495 steps with 19652 atoms

Performance: 0.798 ns/day, 30.085 hours/ns, 9.233 timesteps/s
100.0% CPU use with 1 MPI tasks x no OpenMP threads

MPI task timing breakdown:
Section |  min time  |  avg time  |  max time  |%varavg| %total
---------------------------------------------------------------
Pair    | 28.021     | 28.021     | 28.021     |   0.0 | 52.27
Neigh   | 24.609     | 24.609     | 24.609     |   0.0 | 45.90
Comm    | 0.36112    | 0.36112    | 0.36112    |   0.0 |  0.67
Output  | 0.00014806 | 0.00014806 | 0.00014806 |   0.0 |  0.00
Modify  | 0.47516    | 0.47516    | 0.47516    |   0.0 |  0.89
Other   |            | 0.1457     |            |       |  0.27

Nlocal:    19652 ave 19652 max 19652 min
Histogram: 1 0 0 0 0 0 0 0 0 0
Nghost:    18324 ave 18324 max 18324 min
Histogram: 1 0 0 0 0 0 0 0 0 0
Neighs:    1.48778e+06 ave 1.48778e+06 max 1.48778e+06 min
Histogram: 1 0 0 0 0 0 0 0 0 0

Total # of neighbors = 1487781
Ave neighs/atom = 75.7063
Neighbor list builds = 495
Dangerous builds not checked
Setting up Verlet run ...
  Unit style    : metal
  Current step  : 78495
  Time step     : 0.001
Per MPI rank memory allocation (min/avg/max) = 18.19 | 18.19 | 18.19 Mbytes
Step Temp Press TotEng PotEng Enthalpy 
   78495    1459.9303   -502.47185   -65763.728   -69472.084    -65867.91 
   80000    1442.0262   -43.444494   -65872.535   -69535.413   -65881.528 
Loop time of 169.991 on 1 procs for 1505 steps with 19652 atoms

Performance: 0.765 ns/day, 31.375 hours/ns, 8.853 timesteps/s
99.9% CPU use with 1 MPI tasks x no OpenMP threads

MPI task timing breakdown:
Section |  min time  |  avg time  |  max time  |%varavg| %total
---------------------------------------------------------------
Pair    | 89.13      | 89.13      | 89.13      |   0.0 | 52.43
Neigh   | 77.609     | 77.609     | 77.609     |   0.0 | 45.65
Comm    | 1.1522     | 1.1522     | 1.1522     |   0.0 |  0.68
Output  | 0.12605    | 0.12605    | 0.12605    |   0.0 |  0.07
Modify  | 1.5098     | 1.5098     | 1.5098     |   0.0 |  0.89
Other   |            | 0.464      |            |       |  0.27

Nlocal:    19652 ave 19652 max 19652 min
Histogram: 1 0 0 0 0 0 0 0 0 0
Nghost:    18308 ave 18308 max 18308 min
Histogram: 1 0 0 0 0 0 0 0 0 0
Neighs:    1.49069e+06 ave 1.49069e+06 max 1.49069e+06 min
Histogram: 1 0 0 0 0 0 0 0 0 0

Total # of neighbors = 1490686
Ave neighs/atom = 75.8542
Neighbor list builds = 1505
Dangerous builds not checked
Setting up Verlet run ...
  Unit style    : metal
  Current step  : 80000
  Time step     : 0.001
Per MPI rank memory allocation (min/avg/max) = 18.19 | 18.19 | 18.19 Mbytes
Step Temp Press TotEng PotEng Enthalpy 
   80000    1442.0262   -43.444494   -65872.535   -69535.413   -65881.528 
   80495    1412.3198    450.43107   -66098.704   -69686.125    -66005.78 
Loop time of 54.4416 on 1 procs for 495 steps with 19652 atoms

Performance: 0.786 ns/day, 30.551 hours/ns, 9.092 timesteps/s
100.0% CPU use with 1 MPI tasks x no OpenMP threads

MPI task timing breakdown:
Section |  min time  |  avg time  |  max time  |%varavg| %total
---------------------------------------------------------------
Pair    | 28.515     | 28.515     | 28.515     |   0.0 | 52.38
Neigh   | 24.931     | 24.931     | 24.931     |   0.0 | 45.79
Comm    | 0.36323    | 0.36323    | 0.36323    |   0.0 |  0.67
Output  | 0.00012302 | 0.00012302 | 0.00012302 |   0.0 |  0.00
Modify  | 0.48196    | 0.48196    | 0.48196    |   0.0 |  0.89
Other   |            | 0.1501     |            |       |  0.28

Nlocal:    19652 ave 19652 max 19652 min
Histogram: 1 0 0 0 0 0 0 0 0 0
Nghost:    18330 ave 18330 max 18330 min
Histogram: 1 0 0 0 0 0 0 0 0 0
Neighs:    1.49559e+06 ave 1.49559e+06 max 1.49559e+06 min
Histogram: 1 0 0 0 0 0 0 0 0 0

Total # of neighbors = 1495588
Ave neighs/atom = 76.1036
Neighbor list builds = 495
Dangerous builds not checked
Setting up Verlet run ...
  Unit style    : metal
  Current step  : 80495
  Time step     : 0.001
Per MPI rank memory allocation (min/avg/max) = 18.19 | 18.19 | 18.19 Mbytes
Step Temp Press TotEng PotEng Enthalpy 
   80495    1412.3198    450.43107   -66098.704   -69686.125    -66005.78 
   82000    1393.8958   -1984.7011   -66270.703   -69811.325   -66680.058 
Loop time of 168.152 on 1 procs for 1505 steps with 19652 atoms

Performance: 0.773 ns/day, 31.036 hours/ns, 8.950 timesteps/s
99.4% CPU use with 1 MPI tasks x no OpenMP threads

MPI task timing breakdown:
Section |  min time  |  avg time  |  max time  |%varavg| %total
---------------------------------------------------------------
Pair    | 87.586     | 87.586     | 87.586     |   0.0 | 52.09
Neigh   | 76.407     | 76.407     | 76.407     |   0.0 | 45.44
Comm    | 1.1225     | 1.1225     | 1.1225     |   0.0 |  0.67
Output  | 1.1059     | 1.1059     | 1.1059     |   0.0 |  0.66
Modify  | 1.4744     | 1.4744     | 1.4744     |   0.0 |  0.88
Other   |            | 0.4568     |            |       |  0.27

Nlocal:    19652 ave 19652 max 19652 min
Histogram: 1 0 0 0 0 0 0 0 0 0
Nghost:    18341 ave 18341 max 18341 min
Histogram: 1 0 0 0 0 0 0 0 0 0
Neighs:    1.49618e+06 ave 1.49618e+06 max 1.49618e+06 min
Histogram: 1 0 0 0 0 0 0 0 0 0

Total # of neighbors = 1496182
Ave neighs/atom = 76.1338
Neighbor list builds = 1505
Dangerous builds not checked
Setting up Verlet run ...
  Unit style    : metal
  Current step  : 82000
  Time step     : 0.001
Per MPI rank memory allocation (min/avg/max) = 18.19 | 18.19 | 18.19 Mbytes
Step Temp Press TotEng PotEng Enthalpy 
   82000    1393.8958   -1984.7011   -66270.703   -69811.325   -66680.058 
   82495    1370.4382    733.02576   -66409.033   -69890.071   -66258.371 
Loop time of 58.5068 on 1 procs for 495 steps with 19652 atoms

Performance: 0.731 ns/day, 32.832 hours/ns, 8.461 timesteps/s
99.9% CPU use with 1 MPI tasks x no OpenMP threads

MPI task timing breakdown:
Section |  min time  |  avg time  |  max time  |%varavg| %total
---------------------------------------------------------------
Pair    | 30.86      | 30.86      | 30.86      |   0.0 | 52.75
Neigh   | 26.561     | 26.561     | 26.561     |   0.0 | 45.40
Comm    | 0.40977    | 0.40977    | 0.40977    |   0.0 |  0.70
Output  | 0.00011706 | 0.00011706 | 0.00011706 |   0.0 |  0.00
Modify  | 0.52838    | 0.52838    | 0.52838    |   0.0 |  0.90
Other   |            | 0.1476     |            |       |  0.25

Nlocal:    19652 ave 19652 max 19652 min
Histogram: 1 0 0 0 0 0 0 0 0 0
Nghost:    18380 ave 18380 max 18380 min
Histogram: 1 0 0 0 0 0 0 0 0 0
Neighs:    1.5007e+06 ave 1.5007e+06 max 1.5007e+06 min
Histogram: 1 0 0 0 0 0 0 0 0 0

Total # of neighbors = 1500701
Ave neighs/atom = 76.3638
Neighbor list builds = 495
Dangerous builds not checked
Setting up Verlet run ...
  Unit style    : metal
  Current step  : 82495
  Time step     : 0.001
Per MPI rank memory allocation (min/avg/max) = 18.19 | 18.19 | 18.19 Mbytes
Step Temp Press TotEng PotEng Enthalpy 
   82495    1370.4382    733.02576   -66409.033   -69890.071   -66258.371 
   84000    1345.4772    490.51633   -66599.264   -70016.899   -66498.662 
Loop time of 169.252 on 1 procs for 1505 steps with 19652 atoms

Performance: 0.768 ns/day, 31.239 hours/ns, 8.892 timesteps/s
99.9% CPU use with 1 MPI tasks x no OpenMP threads

MPI task timing breakdown:
Section |  min time  |  avg time  |  max time  |%varavg| %total
---------------------------------------------------------------
Pair    | 88.887     | 88.887     | 88.887     |   0.0 | 52.52
Neigh   | 76.977     | 76.977     | 76.977     |   0.0 | 45.48
Comm    | 1.2096     | 1.2096     | 1.2096     |   0.0 |  0.71
Output  | 0.25721    | 0.25721    | 0.25721    |   0.0 |  0.15
Modify  | 1.517      | 1.517      | 1.517      |   0.0 |  0.90
Other   |            | 0.4047     |            |       |  0.24

Nlocal:    19652 ave 19652 max 19652 min
Histogram: 1 0 0 0 0 0 0 0 0 0
Nghost:    18411 ave 18411 max 18411 min
Histogram: 1 0 0 0 0 0 0 0 0 0
Neighs:    1.50378e+06 ave 1.50378e+06 max 1.50378e+06 min
Histogram: 1 0 0 0 0 0 0 0 0 0

Total # of neighbors = 1503779
Ave neighs/atom = 76.5204
Neighbor list builds = 1505
Dangerous builds not checked
Setting up Verlet run ...
  Unit style    : metal
  Current step  : 84000
  Time step     : 0.001
Per MPI rank memory allocation (min/avg/max) = 18.19 | 18.19 | 18.19 Mbytes
Step Temp Press TotEng PotEng Enthalpy 
   84000    1345.4772    490.51633   -66599.264   -70016.899   -66498.662 
   84495     1311.495   -361.31961   -66784.281   -70115.598   -66858.268 
Loop time of 58.0183 on 1 procs for 495 steps with 19652 atoms

Performance: 0.737 ns/day, 32.558 hours/ns, 8.532 timesteps/s
99.8% CPU use with 1 MPI tasks x no OpenMP threads

MPI task timing breakdown:
Section |  min time  |  avg time  |  max time  |%varavg| %total
---------------------------------------------------------------
Pair    | 30.549     | 30.549     | 30.549     |   0.0 | 52.65
Neigh   | 26.389     | 26.389     | 26.389     |   0.0 | 45.48
Comm    | 0.41361    | 0.41361    | 0.41361    |   0.0 |  0.71
Output  | 0.00012207 | 0.00012207 | 0.00012207 |   0.0 |  0.00
Modify  | 0.52658    | 0.52658    | 0.52658    |   0.0 |  0.91
Other   |            | 0.1401     |            |       |  0.24

Nlocal:    19652 ave 19652 max 19652 min
Histogram: 1 0 0 0 0 0 0 0 0 0
Nghost:    18354 ave 18354 max 18354 min
Histogram: 1 0 0 0 0 0 0 0 0 0
Neighs:    1.50667e+06 ave 1.50667e+06 max 1.50667e+06 min
Histogram: 1 0 0 0 0 0 0 0 0 0

Total # of neighbors = 1506671
Ave neighs/atom = 76.6676
Neighbor list builds = 495
Dangerous builds not checked
Setting up Verlet run ...
  Unit style    : metal
  Current step  : 84495
  Time step     : 0.001
Per MPI rank memory allocation (min/avg/max) = 18.19 | 18.19 | 18.19 Mbytes
Step Temp Press TotEng PotEng Enthalpy 
   84495     1311.495   -361.31961   -66784.281   -70115.598   -66858.268 
   86000     1285.334    676.21369    -66970.29   -70235.155   -66832.153 
Loop time of 175.705 on 1 procs for 1505 steps with 19652 atoms

Performance: 0.740 ns/day, 32.430 hours/ns, 8.565 timesteps/s
99.3% CPU use with 1 MPI tasks x no OpenMP threads

MPI task timing breakdown:
Section |  min time  |  avg time  |  max time  |%varavg| %total
---------------------------------------------------------------
Pair    | 91.917     | 91.917     | 91.917     |   0.0 | 52.31
Neigh   | 79.368     | 79.368     | 79.368     |   0.0 | 45.17
Comm    | 1.2267     | 1.2267     | 1.2267     |   0.0 |  0.70
Output  | 1.1881     | 1.1881     | 1.1881     |   0.0 |  0.68
Modify  | 1.5687     | 1.5687     | 1.5687     |   0.0 |  0.89
Other   |            | 0.4373     |            |       |  0.25

Nlocal:    19652 ave 19652 max 19652 min
Histogram: 1 0 0 0 0 0 0 0 0 0
Nghost:    18428 ave 18428 max 18428 min
Histogram: 1 0 0 0 0 0 0 0 0 0
Neighs:    1.50924e+06 ave 1.50924e+06 max 1.50924e+06 min
Histogram: 1 0 0 0 0 0 0 0 0 0

Total # of neighbors = 1509238
Ave neighs/atom = 76.7982
Neighbor list builds = 1505
Dangerous builds not checked
Setting up Verlet run ...
  Unit style    : metal
  Current step  : 86000
  Time step     : 0.001
Per MPI rank memory allocation (min/avg/max) = 18.19 | 18.19 | 18.19 Mbytes
Step Temp Press TotEng PotEng Enthalpy 
   86000     1285.334    676.21369    -66970.29   -70235.155   -66832.153 
   86495    1267.6224    -274.7361   -67161.163   -70381.039   -67217.157 
Loop time of 55.8429 on 1 procs for 495 steps with 19652 atoms

Performance: 0.766 ns/day, 31.337 hours/ns, 8.864 timesteps/s
100.0% CPU use with 1 MPI tasks x no OpenMP threads

MPI task timing breakdown:
Section |  min time  |  avg time  |  max time  |%varavg| %total
---------------------------------------------------------------
Pair    | 29.428     | 29.428     | 29.428     |   0.0 | 52.70
Neigh   | 25.39      | 25.39      | 25.39      |   0.0 | 45.47
Comm    | 0.37642    | 0.37642    | 0.37642    |   0.0 |  0.67
Output  | 0.00012708 | 0.00012708 | 0.00012708 |   0.0 |  0.00
Modify  | 0.49598    | 0.49598    | 0.49598    |   0.0 |  0.89
Other   |            | 0.1525     |            |       |  0.27

Nlocal:    19652 ave 19652 max 19652 min
Histogram: 1 0 0 0 0 0 0 0 0 0
Nghost:    18419 ave 18419 max 18419 min
Histogram: 1 0 0 0 0 0 0 0 0 0
Neighs:    1.51265e+06 ave 1.51265e+06 max 1.51265e+06 min
Histogram: 1 0 0 0 0 0 0 0 0 0

Total # of neighbors = 1512648
Ave neighs/atom = 76.9717
Neighbor list builds = 495
Dangerous builds not checked
Setting up Verlet run ...
  Unit style    : metal
  Current step  : 86495
  Time step     : 0.001
Per MPI rank memory allocation (min/avg/max) = 18.19 | 18.19 | 18.19 Mbytes
Step Temp Press TotEng PotEng Enthalpy 
   86495    1267.6224    -274.7361   -67161.163   -70381.039   -67217.157 
   88000     1251.652    2298.5823   -67286.453   -70465.763   -66819.499 
Loop time of 173.227 on 1 procs for 1505 steps with 19652 atoms

Performance: 0.751 ns/day, 31.973 hours/ns, 8.688 timesteps/s
99.9% CPU use with 1 MPI tasks x no OpenMP threads

MPI task timing breakdown:
Section |  min time  |  avg time  |  max time  |%varavg| %total
---------------------------------------------------------------
Pair    | 91.337     | 91.337     | 91.337     |   0.0 | 52.73
Neigh   | 78.632     | 78.632     | 78.632     |   0.0 | 45.39
Comm    | 1.1892     | 1.1892     | 1.1892     |   0.0 |  0.69
Output  | 0.067791   | 0.067791   | 0.067791   |   0.0 |  0.04
Modify  | 1.5536     | 1.5536     | 1.5536     |   0.0 |  0.90
Other   |            | 0.4469     |            |       |  0.26

Nlocal:    19652 ave 19652 max 19652 min
Histogram: 1 0 0 0 0 0 0 0 0 0
Nghost:    18495 ave 18495 max 18495 min
Histogram: 1 0 0 0 0 0 0 0 0 0
Neighs:    1.51655e+06 ave 1.51655e+06 max 1.51655e+06 min
Histogram: 1 0 0 0 0 0 0 0 0 0

Total # of neighbors = 1516550
Ave neighs/atom = 77.1703
Neighbor list builds = 1505
Dangerous builds not checked
Setting up Verlet run ...
  Unit style    : metal
  Current step  : 88000
  Time step     : 0.001
Per MPI rank memory allocation (min/avg/max) = 18.19 | 18.19 | 18.19 Mbytes
Step Temp Press TotEng PotEng Enthalpy 
   88000     1251.652    2298.5823   -67286.453   -70465.763   -66819.499 
   88495    1215.6981   -644.07016   -67486.311   -70574.295    -67617.15 
Loop time of 59.2409 on 1 procs for 495 steps with 19652 atoms

Performance: 0.722 ns/day, 33.244 hours/ns, 8.356 timesteps/s
99.7% CPU use with 1 MPI tasks x no OpenMP threads

MPI task timing breakdown:
Section |  min time  |  avg time  |  max time  |%varavg| %total
---------------------------------------------------------------
Pair    | 31.388     | 31.388     | 31.388     |   0.0 | 52.98
Neigh   | 26.754     | 26.754     | 26.754     |   0.0 | 45.16
Comm    | 0.41465    | 0.41465    | 0.41465    |   0.0 |  0.70
Output  | 0.00014901 | 0.00014901 | 0.00014901 |   0.0 |  0.00
Modify  | 0.53275    | 0.53275    | 0.53275    |   0.0 |  0.90
Other   |            | 0.1517     |            |       |  0.26

Nlocal:    19652 ave 19652 max 19652 min
Histogram: 1 0 0 0 0 0 0 0 0 0
Nghost:    18467 ave 18467 max 18467 min
Histogram: 1 0 0 0 0 0 0 0 0 0
Neighs:    1.51734e+06 ave 1.51734e+06 max 1.51734e+06 min
Histogram: 1 0 0 0 0 0 0 0 0 0

Total # of neighbors = 1517342
Ave neighs/atom = 77.2106
Neighbor list builds = 495
Dangerous builds not checked
Setting up Verlet run ...
  Unit style    : metal
  Current step  : 88495
  Time step     : 0.001
Per MPI rank memory allocation (min/avg/max) = 18.19 | 18.19 | 18.19 Mbytes
Step Temp Press TotEng PotEng Enthalpy 
   88495    1215.6981   -644.07016   -67486.311   -70574.295    -67617.15 
   90000    1197.1443   -176.04124   -67636.475   -70677.331   -67672.172 
Loop time of 170.724 on 1 procs for 1505 steps with 19652 atoms

Performance: 0.762 ns/day, 31.510 hours/ns, 8.815 timesteps/s
99.9% CPU use with 1 MPI tasks x no OpenMP threads

MPI task timing breakdown:
Section |  min time  |  avg time  |  max time  |%varavg| %total
---------------------------------------------------------------
Pair    | 89.925     | 89.925     | 89.925     |   0.0 | 52.67
Neigh   | 77.501     | 77.501     | 77.501     |   0.0 | 45.40
Comm    | 1.164      | 1.164      | 1.164      |   0.0 |  0.68
Output  | 0.16612    | 0.16612    | 0.16612    |   0.0 |  0.10
Modify  | 1.5017     | 1.5017     | 1.5017     |   0.0 |  0.88
Other   |            | 0.4666     |            |       |  0.27

Nlocal:    19652 ave 19652 max 19652 min
Histogram: 1 0 0 0 0 0 0 0 0 0
Nghost:    18498 ave 18498 max 18498 min
Histogram: 1 0 0 0 0 0 0 0 0 0
Neighs:    1.51985e+06 ave 1.51985e+06 max 1.51985e+06 min
Histogram: 1 0 0 0 0 0 0 0 0 0

Total # of neighbors = 1519848
Ave neighs/atom = 77.3381
Neighbor list builds = 1505
Dangerous builds not checked
Setting up Verlet run ...
  Unit style    : metal
  Current step  : 90000
  Time step     : 0.001
Per MPI rank memory allocation (min/avg/max) = 18.19 | 18.19 | 18.19 Mbytes
Step Temp Press TotEng PotEng Enthalpy 
   90000    1197.1443   -176.04124   -67636.475   -70677.331   -67672.172 
   90495    1172.6427    305.10257   -67853.184   -70831.803    -67791.52 
Loop time of 56.5062 on 1 procs for 495 steps with 19652 atoms

Performance: 0.757 ns/day, 31.709 hours/ns, 8.760 timesteps/s
100.0% CPU use with 1 MPI tasks x no OpenMP threads

MPI task timing breakdown:
Section |  min time  |  avg time  |  max time  |%varavg| %total
---------------------------------------------------------------
Pair    | 29.882     | 29.882     | 29.882     |   0.0 | 52.88
Neigh   | 25.584     | 25.584     | 25.584     |   0.0 | 45.28
Comm    | 0.38646    | 0.38646    | 0.38646    |   0.0 |  0.68
Output  | 0.00012708 | 0.00012708 | 0.00012708 |   0.0 |  0.00
Modify  | 0.49992    | 0.49992    | 0.49992    |   0.0 |  0.88
Other   |            | 0.1542     |            |       |  0.27

[...]
Setting up Verlet run ...
  Unit style    : metal
  Current step  : 120000
  Time step     : 0.001
Per MPI rank memory allocation (min/avg/max) = 18.19 | 18.19 | 18.19 Mbytes
Step Temp Press TotEng PotEng Enthalpy 
  120000    448.08929   -1843.4626   -72649.063   -73787.251   -73004.434 
  120495    422.87288    831.89775   -72817.538   -73891.674   -72657.686 
Loop time of 57.1117 on 1 procs for 495 steps with 19652 atoms

Performance: 0.749 ns/day, 32.049 hours/ns, 8.667 timesteps/s
99.7% CPU use with 1 MPI tasks x no OpenMP threads

MPI task timing breakdown:
Section |  min time  |  avg time  |  max time  |%varavg| %total
---------------------------------------------------------------
Pair    | 29.374     | 29.374     | 29.374     |   0.0 | 51.43
Neigh   | 26.739     | 26.739     | 26.739     |   0.0 | 46.82
Comm    | 0.37741    | 0.37741    | 0.37741    |   0.0 |  0.66
Output  | 0.00010395 | 0.00010395 | 0.00010395 |   0.0 |  0.00
Modify  | 0.48944    | 0.48944    | 0.48944    |   0.0 |  0.86
Other   |            | 0.1315     |            |       |  0.23

Nlocal:    19652 ave 19652 max 19652 min
Histogram: 1 0 0 0 0 0 0 0 0 0
Nghost:    18853 ave 18853 max 18853 min
Histogram: 1 0 0 0 0 0 0 0 0 0
Neighs:    1.59034e+06 ave 1.59034e+06 max 1.59034e+06 min
Histogram: 1 0 0 0 0 0 0 0 0 0

Total # of neighbors = 1590338
Ave neighs/atom = 80.925
Neighbor list builds = 495
Dangerous builds not checked
Setting up Verlet run ...
  Unit style    : metal
  Current step  : 120495
  Time step     : 0.001
Per MPI rank memory allocation (min/avg/max) = 18.19 | 18.19 | 18.19 Mbytes
Step Temp Press TotEng PotEng Enthalpy 
  120495    422.87288    831.89775   -72817.538   -73891.674   -72657.686 
  122000    398.16478    216.03634   -72946.756   -73958.131   -72905.271 
Loop time of 176.679 on 1 procs for 1505 steps with 19652 atoms

Performance: 0.736 ns/day, 32.610 hours/ns, 8.518 timesteps/s
99.9% CPU use with 1 MPI tasks x no OpenMP threads

MPI task timing breakdown:
Section |  min time  |  avg time  |  max time  |%varavg| %total
---------------------------------------------------------------
Pair    | 90.903     | 90.903     | 90.903     |   0.0 | 51.45
Neigh   | 82.401     | 82.401     | 82.401     |   0.0 | 46.64
Comm    | 1.1675     | 1.1675     | 1.1675     |   0.0 |  0.66
Output  | 0.27161    | 0.27161    | 0.27161    |   0.0 |  0.15
Modify  | 1.4971     | 1.4971     | 1.4971     |   0.0 |  0.85
Other   |            | 0.4385     |            |       |  0.25

Nlocal:    19652 ave 19652 max 19652 min
Histogram: 1 0 0 0 0 0 0 0 0 0
Nghost:    18872 ave 18872 max 18872 min
Histogram: 1 0 0 0 0 0 0 0 0 0
Neighs:    1.59101e+06 ave 1.59101e+06 max 1.59101e+06 min
Histogram: 1 0 0 0 0 0 0 0 0 0

Total # of neighbors = 1591006
Ave neighs/atom = 80.959
Neighbor list builds = 1505
Dangerous builds not checked
Setting up Verlet run ...
  Unit style    : metal
  Current step  : 122000
  Time step     : 0.001
Per MPI rank memory allocation (min/avg/max) = 18.19 | 18.19 | 18.19 Mbytes
Step Temp Press TotEng PotEng Enthalpy 
  122000    398.16478    216.03634   -72946.756   -73958.131   -72905.271 
  122495    372.08391   -1050.9094   -73098.382   -74043.509   -73300.089 
Loop time of 58.8584 on 1 procs for 495 steps with 19652 atoms

Performance: 0.727 ns/day, 33.029 hours/ns, 8.410 timesteps/s
99.9% CPU use with 1 MPI tasks x no OpenMP threads

MPI task timing breakdown:
Section |  min time  |  avg time  |  max time  |%varavg| %total
---------------------------------------------------------------
Pair    | 30.365     | 30.365     | 30.365     |   0.0 | 51.59
Neigh   | 27.456     | 27.456     | 27.456     |   0.0 | 46.65
Comm    | 0.38953    | 0.38953    | 0.38953    |   0.0 |  0.66
Output  | 0.00010705 | 0.00010705 | 0.00010705 |   0.0 |  0.00
Modify  | 0.5075     | 0.5075     | 0.5075     |   0.0 |  0.86
Other   |            | 0.141      |            |       |  0.24

Nlocal:    19652 ave 19652 max 19652 min
Histogram: 1 0 0 0 0 0 0 0 0 0
Nghost:    18840 ave 18840 max 18840 min
Histogram: 1 0 0 0 0 0 0 0 0 0
Neighs:    1.59176e+06 ave 1.59176e+06 max 1.59176e+06 min
Histogram: 1 0 0 0 0 0 0 0 0 0

Total # of neighbors = 1591759
Ave neighs/atom = 80.9973
Neighbor list builds = 495
Dangerous builds not checked
Setting up Verlet run ...
  Unit style    : metal
  Current step  : 122495
  Time step     : 0.001
Per MPI rank memory allocation (min/avg/max) = 18.19 | 18.19 | 18.19 Mbytes
Step Temp Press TotEng PotEng Enthalpy 
  122495    372.08391   -1050.9094   -73098.382   -74043.509   -73300.089 
  124000    347.89454   -634.95867   -73225.609   -74109.293   -73347.318 
Loop time of 174.224 on 1 procs for 1505 steps with 19652 atoms

Performance: 0.746 ns/day, 32.157 hours/ns, 8.638 timesteps/s
99.5% CPU use with 1 MPI tasks x no OpenMP threads

MPI task timing breakdown:
Section |  min time  |  avg time  |  max time  |%varavg| %total
---------------------------------------------------------------
Pair    | 89.22      | 89.22      | 89.22      |   0.0 | 51.21
Neigh   | 81.2       | 81.2       | 81.2       |   0.0 | 46.61
Comm    | 1.1438     | 1.1438     | 1.1438     |   0.0 |  0.66
Output  | 0.77776    | 0.77776    | 0.77776    |   0.0 |  0.45
Modify  | 1.4826     | 1.4826     | 1.4826     |   0.0 |  0.85
Other   |            | 0.4004     |            |       |  0.23

Nlocal:    19652 ave 19652 max 19652 min
Histogram: 1 0 0 0 0 0 0 0 0 0
Nghost:    18918 ave 18918 max 18918 min
Histogram: 1 0 0 0 0 0 0 0 0 0
Neighs:    1.59364e+06 ave 1.59364e+06 max 1.59364e+06 min
Histogram: 1 0 0 0 0 0 0 0 0 0

Total # of neighbors = 1593637
Ave neighs/atom = 81.0929
Neighbor list builds = 1505
Dangerous builds not checked
Setting up Verlet run ...
  Unit style    : metal
  Current step  : 124000
  Time step     : 0.001
Per MPI rank memory allocation (min/avg/max) = 18.19 | 18.19 | 18.19 Mbytes
Step Temp Press TotEng PotEng Enthalpy 
  124000    347.89454   -634.95867   -73225.609   -74109.293   -73347.318 
  124495    321.25166   -736.67635   -73369.836   -74185.845   -73510.893 
Loop time of 57.189 on 1 procs for 495 steps with 19652 atoms

Performance: 0.748 ns/day, 32.093 hours/ns, 8.656 timesteps/s
100.0% CPU use with 1 MPI tasks x no OpenMP threads

MPI task timing breakdown:
Section |  min time  |  avg time  |  max time  |%varavg| %total
---------------------------------------------------------------
Pair    | 29.451     | 29.451     | 29.451     |   0.0 | 51.50
Neigh   | 26.724     | 26.724     | 26.724     |   0.0 | 46.73
Comm    | 0.38513    | 0.38513    | 0.38513    |   0.0 |  0.67
Output  | 0.00011992 | 0.00011992 | 0.00011992 |   0.0 |  0.00
Modify  | 0.49383    | 0.49383    | 0.49383    |   0.0 |  0.86
Other   |            | 0.1352     |            |       |  0.24

Nlocal:    19652 ave 19652 max 19652 min
Histogram: 1 0 0 0 0 0 0 0 0 0
Nghost:    18902 ave 18902 max 18902 min
Histogram: 1 0 0 0 0 0 0 0 0 0
Neighs:    1.59471e+06 ave 1.59471e+06 max 1.59471e+06 min
Histogram: 1 0 0 0 0 0 0 0 0 0

Total # of neighbors = 1594706
Ave neighs/atom = 81.1473
Neighbor list builds = 495
Dangerous builds not checked
Setting up Verlet run ...
  Unit style    : metal
  Current step  : 124495
  Time step     : 0.001
Per MPI rank memory allocation (min/avg/max) = 18.19 | 18.19 | 18.19 Mbytes
Step Temp Press TotEng PotEng Enthalpy 
  124495    321.25166   -736.67635   -73369.836   -74185.845   -73510.893 
  126000    302.17571   -743.46926   -73492.111   -74259.665   -73634.315 
Loop time of 176.558 on 1 procs for 1505 steps with 19652 atoms

Performance: 0.736 ns/day, 32.587 hours/ns, 8.524 timesteps/s
99.5% CPU use with 1 MPI tasks x no OpenMP threads

MPI task timing breakdown:
Section |  min time  |  avg time  |  max time  |%varavg| %total
---------------------------------------------------------------
Pair    | 90.574     | 90.574     | 90.574     |   0.0 | 51.30
Neigh   | 81.991     | 81.991     | 81.991     |   0.0 | 46.44
Comm    | 1.1518     | 1.1518     | 1.1518     |   0.0 |  0.65
Output  | 0.90958    | 0.90958    | 0.90958    |   0.0 |  0.52
Modify  | 1.4809     | 1.4809     | 1.4809     |   0.0 |  0.84
Other   |            | 0.4508     |            |       |  0.26

Nlocal:    19652 ave 19652 max 19652 min
Histogram: 1 0 0 0 0 0 0 0 0 0
Nghost:    18910 ave 18910 max 18910 min
Histogram: 1 0 0 0 0 0 0 0 0 0
Neighs:    1.59611e+06 ave 1.59611e+06 max 1.59611e+06 min
Histogram: 1 0 0 0 0 0 0 0 0 0

Total # of neighbors = 1596108
Ave neighs/atom = 81.2186
Neighbor list builds = 1505
Dangerous builds not checked
Setting up Verlet run ...
  Unit style    : metal
  Current step  : 126000
  Time step     : 0.001
Per MPI rank memory allocation (min/avg/max) = 18.19 | 18.19 | 18.19 Mbytes
Step Temp Press TotEng PotEng Enthalpy 
  126000    302.17571   -743.46926   -73492.111   -74259.665   -73634.315 
  126495    272.41407    420.74449   -73636.002   -74327.959   -73555.668 
Loop time of 57.769 on 1 procs for 495 steps with 19652 atoms

Performance: 0.740 ns/day, 32.418 hours/ns, 8.569 timesteps/s
100.0% CPU use with 1 MPI tasks x no OpenMP threads

MPI task timing breakdown:
Section |  min time  |  avg time  |  max time  |%varavg| %total
---------------------------------------------------------------
Pair    | 29.812     | 29.812     | 29.812     |   0.0 | 51.61
Neigh   | 26.947     | 26.947     | 26.947     |   0.0 | 46.65
Comm    | 0.37267    | 0.37267    | 0.37267    |   0.0 |  0.65
Output  | 0.00010705 | 0.00010705 | 0.00010705 |   0.0 |  0.00
Modify  | 0.48575    | 0.48575    | 0.48575    |   0.0 |  0.84
Other   |            | 0.1507     |            |       |  0.26

Nlocal:    19652 ave 19652 max 19652 min
Histogram: 1 0 0 0 0 0 0 0 0 0
Nghost:    18889 ave 18889 max 18889 min
Histogram: 1 0 0 0 0 0 0 0 0 0
Neighs:    1.59844e+06 ave 1.59844e+06 max 1.59844e+06 min
Histogram: 1 0 0 0 0 0 0 0 0 0

Total # of neighbors = 1598441
Ave neighs/atom = 81.3373
Neighbor list builds = 495
Dangerous builds not checked
Setting up Verlet run ...
  Unit style    : metal
  Current step  : 126495
  Time step     : 0.001
Per MPI rank memory allocation (min/avg/max) = 18.19 | 18.19 | 18.19 Mbytes
Step Temp Press TotEng PotEng Enthalpy 
  126495    272.41407    420.74449   -73636.002   -74327.959   -73555.668 
  128000    250.11571    754.73604   -73763.179   -74398.496   -73619.263 
Loop time of 177.489 on 1 procs for 1505 steps with 19652 atoms

Performance: 0.733 ns/day, 32.759 hours/ns, 8.479 timesteps/s
99.9% CPU use with 1 MPI tasks x no OpenMP threads

MPI task timing breakdown:
Section |  min time  |  avg time  |  max time  |%varavg| %total
---------------------------------------------------------------
Pair    | 91.561     | 91.561     | 91.561     |   0.0 | 51.59
Neigh   | 82.655     | 82.655     | 82.655     |   0.0 | 46.57
Comm    | 1.1388     | 1.1388     | 1.1388     |   0.0 |  0.64
Output  | 0.1732     | 0.1732     | 0.1732     |   0.0 |  0.10
Modify  | 1.5        | 1.5        | 1.5        |   0.0 |  0.85
Other   |            | 0.4617     |            |       |  0.26

Nlocal:    19652 ave 19652 max 19652 min
Histogram: 1 0 0 0 0 0 0 0 0 0
Nghost:    18918 ave 18918 max 18918 min
Histogram: 1 0 0 0 0 0 0 0 0 0
Neighs:    1.5999e+06 ave 1.5999e+06 max 1.5999e+06 min
Histogram: 1 0 0 0 0 0 0 0 0 0

Total # of neighbors = 1599897
Ave neighs/atom = 81.4114
Neighbor list builds = 1505
Dangerous builds not checked
Setting up Verlet run ...
  Unit style    : metal
  Current step  : 128000
  Time step     : 0.001
Per MPI rank memory allocation (min/avg/max) = 18.19 | 18.19 | 18.19 Mbytes
Step Temp Press TotEng PotEng Enthalpy 
  128000    250.11571    754.73604   -73763.179   -74398.496   -73619.263 
  128495    223.57421   -722.47843    -73897.92   -74465.819    -74035.68 
Loop time of 57.8005 on 1 procs for 495 steps with 19652 atoms

Performance: 0.740 ns/day, 32.436 hours/ns, 8.564 timesteps/s
99.9% CPU use with 1 MPI tasks x no OpenMP threads

MPI task timing breakdown:
Section |  min time  |  avg time  |  max time  |%varavg| %total
---------------------------------------------------------------
Pair    | 29.803     | 29.803     | 29.803     |   0.0 | 51.56
Neigh   | 26.985     | 26.985     | 26.985     |   0.0 | 46.69
Comm    | 0.37085    | 0.37085    | 0.37085    |   0.0 |  0.64
Output  | 0.00012898 | 0.00012898 | 0.00012898 |   0.0 |  0.00
Modify  | 0.48952    | 0.48952    | 0.48952    |   0.0 |  0.85
Other   |            | 0.1515     |            |       |  0.26

Nlocal:    19652 ave 19652 max 19652 min
Histogram: 1 0 0 0 0 0 0 0 0 0
Nghost:    18907 ave 18907 max 18907 min
Histogram: 1 0 0 0 0 0 0 0 0 0
Neighs:    1.59981e+06 ave 1.59981e+06 max 1.59981e+06 min
Histogram: 1 0 0 0 0 0 0 0 0 0

Total # of neighbors = 1599812
Ave neighs/atom = 81.4071
Neighbor list builds = 495
Dangerous builds not checked
Setting up Verlet run ...
  Unit style    : metal
  Current step  : 128495
  Time step     : 0.001
Per MPI rank memory allocation (min/avg/max) = 18.19 | 18.19 | 18.19 Mbytes
Step Temp Press TotEng PotEng Enthalpy 
  128495    223.57421   -722.47843    -73897.92   -74465.819    -74035.68 
  130000     200.5502   -500.28647   -74026.135   -74535.551   -74121.418 
Loop time of 178.08 on 1 procs for 1505 steps with 19652 atoms

Performance: 0.730 ns/day, 32.868 hours/ns, 8.451 timesteps/s
99.3% CPU use with 1 MPI tasks x no OpenMP threads

MPI task timing breakdown:
Section |  min time  |  avg time  |  max time  |%varavg| %total
---------------------------------------------------------------
Pair    | 91.377     | 91.377     | 91.377     |   0.0 | 51.31
Neigh   | 82.282     | 82.282     | 82.282     |   0.0 | 46.21
Comm    | 1.1569     | 1.1569     | 1.1569     |   0.0 |  0.65
Output  | 1.3138     | 1.3138     | 1.3138     |   0.0 |  0.74
Modify  | 1.4933     | 1.4933     | 1.4933     |   0.0 |  0.84
Other   |            | 0.4572     |            |       |  0.26

Nlocal:    19652 ave 19652 max 19652 min
Histogram: 1 0 0 0 0 0 0 0 0 0
Nghost:    18951 ave 18951 max 18951 min
Histogram: 1 0 0 0 0 0 0 0 0 0
Neighs:    1.60152e+06 ave 1.60152e+06 max 1.60152e+06 min
Histogram: 1 0 0 0 0 0 0 0 0 0

Total # of neighbors = 1601522
Ave neighs/atom = 81.4941
Neighbor list builds = 1505
Dangerous builds not checked
Setting up Verlet run ...
  Unit style    : metal
  Current step  : 130000
  Time step     : 0.001
Per MPI rank memory allocation (min/avg/max) = 18.19 | 18.19 | 18.19 Mbytes
Step Temp Press TotEng PotEng Enthalpy 
  130000     200.5502   -500.28647   -74026.135   -74535.551   -74121.418 
  130495    175.21659   -598.43557   -74156.568   -74601.634   -74270.438 
Loop time of 59.6539 on 1 procs for 495 steps with 19652 atoms

Performance: 0.717 ns/day, 33.476 hours/ns, 8.298 timesteps/s
99.9% CPU use with 1 MPI tasks x no OpenMP threads

MPI task timing breakdown:
Section |  min time  |  avg time  |  max time  |%varavg| %total
---------------------------------------------------------------
Pair    | 30.901     | 30.901     | 30.901     |   0.0 | 51.80
Neigh   | 27.7       | 27.7       | 27.7       |   0.0 | 46.43
Comm    | 0.38955    | 0.38955    | 0.38955    |   0.0 |  0.65
Output  | 0.00014019 | 0.00014019 | 0.00014019 |   0.0 |  0.00
Modify  | 0.50752    | 0.50752    | 0.50752    |   0.0 |  0.85
Other   |            | 0.1556     |            |       |  0.26

Nlocal:    19652 ave 19652 max 19652 min
Histogram: 1 0 0 0 0 0 0 0 0 0
Nghost:    18929 ave 18929 max 18929 min
Histogram: 1 0 0 0 0 0 0 0 0 0
Neighs:    1.60278e+06 ave 1.60278e+06 max 1.60278e+06 min
Histogram: 1 0 0 0 0 0 0 0 0 0

Total # of neighbors = 1602776
Ave neighs/atom = 81.5579
Neighbor list builds = 495
Dangerous builds not checked
Setting up Verlet run ...
  Unit style    : metal
  Current step  : 130495
  Time step     : 0.001
Per MPI rank memory allocation (min/avg/max) = 18.19 | 18.19 | 18.19 Mbytes
Step Temp Press TotEng PotEng Enthalpy 
  130495    175.21659   -598.43557   -74156.568   -74601.634   -74270.438 
  132000    149.03091   -352.65724   -74293.935   -74672.487   -74360.967 
Loop time of 188.947 on 1 procs for 1505 steps with 19652 atoms

Performance: 0.688 ns/day, 34.874 hours/ns, 7.965 timesteps/s
96.0% CPU use with 1 MPI tasks x no OpenMP threads

MPI task timing breakdown:
Section |  min time  |  avg time  |  max time  |%varavg| %total
---------------------------------------------------------------
Pair    | 94.194     | 94.194     | 94.194     |   0.0 | 49.85
Neigh   | 84.203     | 84.203     | 84.203     |   0.0 | 44.56
Comm    | 1.2143     | 1.2143     | 1.2143     |   0.0 |  0.64
Output  | 7.3151     | 7.3151     | 7.3151     |   0.0 |  3.87
Modify  | 1.5512     | 1.5512     | 1.5512     |   0.0 |  0.82
Other   |            | 0.4685     |            |       |  0.25

Nlocal:    19652 ave 19652 max 19652 min
Histogram: 1 0 0 0 0 0 0 0 0 0
Nghost:    18951 ave 18951 max 18951 min
Histogram: 1 0 0 0 0 0 0 0 0 0
Neighs:    1.6039e+06 ave 1.6039e+06 max 1.6039e+06 min
Histogram: 1 0 0 0 0 0 0 0 0 0

Total # of neighbors = 1603900
Ave neighs/atom = 81.6151
Neighbor list builds = 1505
Dangerous builds not checked
Setting up Verlet run ...
  Unit style    : metal
  Current step  : 132000
  Time step     : 0.001
Per MPI rank memory allocation (min/avg/max) = 18.19 | 18.19 | 18.19 Mbytes
Step Temp Press TotEng PotEng Enthalpy 
  132000    149.03091   -352.65724   -74293.935   -74672.487   -74360.967 
  132495    126.55521    622.03127   -74410.219   -74731.681   -74292.173 
Loop time of 67.1882 on 1 procs for 495 steps with 19652 atoms

Performance: 0.637 ns/day, 37.704 hours/ns, 7.367 timesteps/s
98.1% CPU use with 1 MPI tasks x no OpenMP threads

MPI task timing breakdown:
Section |  min time  |  avg time  |  max time  |%varavg| %total
---------------------------------------------------------------
Pair    | 35.135     | 35.135     | 35.135     |   0.0 | 52.29
Neigh   | 30.826     | 30.826     | 30.826     |   0.0 | 45.88
Comm    | 0.45159    | 0.45159    | 0.45159    |   0.0 |  0.67
Output  | 0.00015402 | 0.00015402 | 0.00015402 |   0.0 |  0.00
Modify  | 0.60153    | 0.60153    | 0.60153    |   0.0 |  0.90
Other   |            | 0.1743     |            |       |  0.26

Nlocal:    19652 ave 19652 max 19652 min
Histogram: 1 0 0 0 0 0 0 0 0 0
Nghost:    18987 ave 18987 max 18987 min
Histogram: 1 0 0 0 0 0 0 0 0 0
Neighs:    1.60585e+06 ave 1.60585e+06 max 1.60585e+06 min
Histogram: 1 0 0 0 0 0 0 0 0 0

Total # of neighbors = 1605852
Ave neighs/atom = 81.7144
Neighbor list builds = 495
Dangerous builds not checked
Setting up Verlet run ...
  Unit style    : metal
  Current step  : 132495
  Time step     : 0.001
Per MPI rank memory allocation (min/avg/max) = 18.19 | 18.19 | 18.19 Mbytes
Step Temp Press TotEng PotEng Enthalpy 
  132495    126.55521    622.03127   -74410.219   -74731.681   -74292.173 
  134000    99.760308   -237.27867   -74554.478   -74807.878   -74599.487 
Loop time of 230.005 on 1 procs for 1505 steps with 19652 atoms

Performance: 0.565 ns/day, 42.452 hours/ns, 6.543 timesteps/s
99.4% CPU use with 1 MPI tasks x no OpenMP threads

MPI task timing breakdown:
Section |  min time  |  avg time  |  max time  |%varavg| %total
---------------------------------------------------------------
Pair    | 121.13     | 121.13     | 121.13     |   0.0 | 52.67
Neigh   | 104.28     | 104.28     | 104.28     |   0.0 | 45.34
Comm    | 1.6042     | 1.6042     | 1.6042     |   0.0 |  0.70
Output  | 0.26764    | 0.26764    | 0.26764    |   0.0 |  0.12
Modify  | 2.0716     | 2.0716     | 2.0716     |   0.0 |  0.90
Other   |            | 0.6472     |            |       |  0.28

Nlocal:    19652 ave 19652 max 19652 min
Histogram: 1 0 0 0 0 0 0 0 0 0
Nghost:    18961 ave 18961 max 18961 min
Histogram: 1 0 0 0 0 0 0 0 0 0
Neighs:    1.60654e+06 ave 1.60654e+06 max 1.60654e+06 min
Histogram: 1 0 0 0 0 0 0 0 0 0

Total # of neighbors = 1606540
Ave neighs/atom = 81.7494
Neighbor list builds = 1505
Dangerous builds not checked
Total wall time: 4:45:55
