LAMMPS (12 Dec 2018)
Lattice spacing in x,y,z = 4 4 4
Created orthogonal box = (0 0 0) to (68 68 68)
  1 by 1 by 1 MPI processor grid
Created 19652 atoms
  Time spent = 0.00289392 secs
Setting atom values ...
  417 settings made for type/fraction
Neighbor list info ...
  update every 1 steps, delay 0 steps, check no
  max neighbors/atom: 2000, page size: 100000
  master list distance cutoff = 8.5
  ghost atom cutoff = 8.5
  binsize = 4.25, bins = 16 16 16
  1 neighbor lists, perpetual/occasional/extra = 1 0 0
  (1) pair eam/alloy, perpetual
      attributes: half, newton on
      pair build: half/bin/atomonly/newton
      stencil: half/bin/3d/newton
      bin: standard
Setting up Verlet run ...
  Unit style    : metal
  Current step  : 0
  Time step     : 0.001
Per MPI rank memory allocation (min/avg/max) = 18.19 | 18.19 | 18.19 Mbytes
Step Temp Press TotEng PotEng Enthalpy Volume 
       0          300    10137.093    -65118.43   -65880.458   -63128.995       314432 
     667    152.88887    18250.415   -65118.283   -65506.635   -61536.584       314432 
    1000    153.02544    18471.336   -65118.284   -65506.983   -61493.229       314432 
Loop time of 154.924 on 1 procs for 1000 steps with 19652 atoms

Performance: 0.558 ns/day, 43.034 hours/ns, 6.455 timesteps/s
99.5% CPU use with 1 MPI tasks x no OpenMP threads

MPI task timing breakdown:
Section |  min time  |  avg time  |  max time  |%varavg| %total
---------------------------------------------------------------
Pair    | 88.086     | 88.086     | 88.086     |   0.0 | 56.86
Neigh   | 64.259     | 64.259     | 64.259     |   0.0 | 41.48
Comm    | 1.1454     | 1.1454     | 1.1454     |   0.0 |  0.74
Output  | 0.64405    | 0.64405    | 0.64405    |   0.0 |  0.42
Modify  | 0.41022    | 0.41022    | 0.41022    |   0.0 |  0.26
Other   |            | 0.3792     |            |       |  0.24

Nlocal:    19652 ave 19652 max 19652 min
Histogram: 1 0 0 0 0 0 0 0 0 0
Nghost:    20102 ave 20102 max 20102 min
Histogram: 1 0 0 0 0 0 0 0 0 0
Neighs:    1.56584e+06 ave 1.56584e+06 max 1.56584e+06 min
Histogram: 1 0 0 0 0 0 0 0 0 0

Total # of neighbors = 1565841
Ave neighs/atom = 79.6785
Neighbor list builds = 1000
Dangerous builds not checked
Setting up Verlet run ...
  Unit style    : metal
  Current step  : 1000
  Time step     : 0.001
Per MPI rank memory allocation (min/avg/max) = 18.19 | 18.19 | 18.19 Mbytes
Step Temp Press TotEng PotEng Enthalpy Volume 
    1000    153.02544    18471.336   -65118.284   -65506.983   -61493.229       314432 
    1334    189.52317   -686.97246   -64945.564    -65426.97   -65084.456    323926.97 
    2000    301.86389   -207.87273   -64366.258   -65133.019   -64408.625    326545.25 
Loop time of 151.341 on 1 procs for 1000 steps with 19652 atoms

Performance: 0.571 ns/day, 42.039 hours/ns, 6.608 timesteps/s
99.8% CPU use with 1 MPI tasks x no OpenMP threads

MPI task timing breakdown:
Section |  min time  |  avg time  |  max time  |%varavg| %total
---------------------------------------------------------------
Pair    | 84.837     | 84.837     | 84.837     |   0.0 | 56.06
Neigh   | 63.593     | 63.593     | 63.593     |   0.0 | 42.02
Comm    | 1.0683     | 1.0683     | 1.0683     |   0.0 |  0.71
Output  | 0.051018   | 0.051018   | 0.051018   |   0.0 |  0.03
Modify  | 1.41       | 1.41       | 1.41       |   0.0 |  0.93
Other   |            | 0.3821     |            |       |  0.25

Nlocal:    19652 ave 19652 max 19652 min
Histogram: 1 0 0 0 0 0 0 0 0 0
Nghost:    20034 ave 20034 max 20034 min
Histogram: 1 0 0 0 0 0 0 0 0 0
Neighs:    1.47825e+06 ave 1.47825e+06 max 1.47825e+06 min
Histogram: 1 0 0 0 0 0 0 0 0 0

Total # of neighbors = 1478249
Ave neighs/atom = 75.2213
Neighbor list builds = 1000
Dangerous builds not checked
Setting up Verlet run ...
  Unit style    : metal
  Current step  : 2000
  Time step     : 0.001
Per MPI rank memory allocation (min/avg/max) = 18.2 | 18.2 | 18.2 Mbytes
Step Temp Press TotEng PotEng Enthalpy Volume 
    2000    301.86389   -207.87273   -64366.258   -65133.019   -64408.625    326545.25 
    2001    301.72745   -201.89331   -64366.258   -65132.673   -64407.406    326545.21 
    2668    385.21727    -217.9691   -63909.466   -64887.953   -63954.236    329083.74 
    3335    570.02512   -629.93584   -62882.644   -64330.559   -63014.269    334776.68 
    4002    772.83889     -322.481   -61536.484   -63499.566    -61605.68    343785.44 
    4669    962.00698    233.06541   -60023.616   -62467.202   -59971.684    357004.22 
    5336    1104.5643    565.60734   -58164.045   -60969.739   -58030.352    378708.54 
    6003    1365.0123   -1.4769951   -56258.642   -59725.897   -56259.009    398092.56 
    6670    1554.4652    336.56591   -55161.602   -59110.085   -55076.128    406886.96 
    7337    1731.5667    32.105332   -54169.246   -58567.583   -54160.919    415569.36 
    8004    1901.1938   -826.00737    -53212.39   -58041.596   -53431.207    424430.66 
    8671     2099.459   -1120.0418   -52206.912   -57539.729   -52509.033     432172.2 
    9338    2288.5004   -208.57408   -51280.322   -57093.322   -51337.479    439057.36 
   10000    2448.0547    41.481121    -50358.11   -56576.392   -50346.529    447340.04 
Loop time of 1179.63 on 1 procs for 8000 steps with 19652 atoms

Performance: 0.586 ns/day, 40.959 hours/ns, 6.782 timesteps/s
97.4% CPU use with 1 MPI tasks x no OpenMP threads

MPI task timing breakdown:
Section |  min time  |  avg time  |  max time  |%varavg| %total
---------------------------------------------------------------
Pair    | 629.04     | 629.04     | 629.04     |   0.0 | 53.33
Neigh   | 526.56     | 526.56     | 526.56     |   0.0 | 44.64
Comm    | 8.5902     | 8.5902     | 8.5902     |   0.0 |  0.73
Output  | 0.77372    | 0.77372    | 0.77372    |   0.0 |  0.07
Modify  | 11.535     | 11.535     | 11.535     |   0.0 |  0.98
Other   |            | 3.129      |            |       |  0.27

Nlocal:    19652 ave 19652 max 19652 min
Histogram: 1 0 0 0 0 0 0 0 0 0
Nghost:    16236 ave 16236 max 16236 min
Histogram: 1 0 0 0 0 0 0 0 0 0
Neighs:    1.10285e+06 ave 1.10285e+06 max 1.10285e+06 min
Histogram: 1 0 0 0 0 0 0 0 0 0

Total # of neighbors = 1102854
Ave neighs/atom = 56.1192
Neighbor list builds = 8000
Dangerous builds not checked
Setting up Verlet run ...
  Unit style    : metal
  Current step  : 10000
  Time step     : 0.001
Per MPI rank memory allocation (min/avg/max) = 18.2 | 18.2 | 18.2 Mbytes
Step Temp Press TotEng PotEng Enthalpy Volume 
   10000    2448.0547    41.481121    -50358.11   -56576.392   -50346.529    447340.04 
   10005    2443.5269    222.55137    -50358.09    -56564.87   -50295.951    447340.16 
   10672    2456.3217    514.22518   -50331.273   -56570.554   -50187.859    446835.69 
   11339    2439.5408    707.49799    -50402.74   -56599.396   -50205.598     446439.6 
   12006    2456.0252   -978.46147   -50302.399   -56540.927   -50576.601    448989.23 
   12673    2422.0986    666.66472   -50497.791   -56650.142   -50312.247    445911.22 
   13340    2452.4882    466.28446    -50327.19   -56556.734   -50196.959    447479.39 
   14007    2462.1613   -163.71004   -50312.454   -56566.568   -50358.204    447736.76 
   14674    2453.2117    26.245311   -50408.477   -56639.858   -50401.165    446345.52 
   15341    2448.8825   -477.64339   -50426.496   -56646.881   -50559.628    446566.97 
   16008    2454.9412   -1189.6237   -50238.299   -56474.073   -50572.759    450447.77 
   16675    2438.0365    161.56389   -50405.088   -56597.923   -50360.024    446890.35 
   17342    2446.1336   -85.147648   -50420.986   -56634.388   -50444.719    446559.39 
   18009    2449.3333    297.27372   -50300.343   -56521.873   -50217.165    448291.51 
   18676    2444.5962   -601.47361   -50387.859   -56597.356   -50555.912    447650.83 
   19343    2448.9908    313.91727   -50382.154   -56602.814   -50294.616    446780.42 
   20010    2452.3246    985.76999   -50313.972     -56543.1   -50038.827    447193.81 
   20677    2439.4404   -1031.3849   -50416.805   -56613.206   -50704.846     447449.4 
   21344    2442.7272   -598.62958   -50383.374   -56588.124   -50550.755    447980.44 
   22011    2470.3389    457.20169   -50270.685   -56545.571   -50142.983    447506.32 
   22678    2445.1346    974.36606   -50416.444   -56627.309   -50145.488    445540.96 
   23345    2438.7004    436.67836   -50334.635   -56529.156   -50212.611    447705.81 
   24012     2454.113    -483.8871   -50317.745   -56551.416    -50453.14    448299.94 
   24679    2440.5537    221.58978   -50439.026   -56638.255   -50377.331    446076.31 
   25346    2463.2396    -162.7486   -50282.909   -56539.762   -50328.424    448074.04 
   26013    2456.8522   -762.75724   -50312.091   -56552.719     -50525.3    447847.11 
   26680    2425.8877   -217.37316     -50443.2   -56605.176    -50503.89    447321.71 
   27347    2436.5179    547.75547   -50394.969   -56583.946   -50242.128    447057.82 
   28014    2469.7877   -999.03942   -50275.607   -56549.093   -50555.447    448784.49 
   28681    2450.0417    -415.5285   -50404.822   -56628.151   -50520.779    447100.61 
   29348    2472.3669    907.23964   -50373.266   -56653.303   -50120.906    445665.75 
   30015    2462.0917    169.87386   -50252.553   -56506.491   -50204.996    448539.12 
   30682    2451.2288   -213.94583   -50420.685   -56647.029     -50480.3    446442.49 
   31349    2444.3592    1239.8531   -50382.423   -56591.318   -50037.269    446017.71 
   32016    2466.2657   -1078.9797   -50266.234   -56530.774   -50568.832    449327.54 
   32683    2425.3743   -517.06302   -50451.045   -56611.717   -50595.361    447177.36 
   33350    2440.1846    1551.6195   -50429.353   -56627.644   -49998.153    445250.39 
   34017     2463.512   -128.50893   -50362.568   -56620.113   -50398.424    447034.87 
   34684    2449.5387   -613.35773    -50284.24   -56506.291   -50456.212    449215.32 
   35351    2444.6451   -373.47144   -50353.102   -56562.723   -50457.486    447802.17 
   36018    2450.5258     927.7117   -50417.097   -56641.656    -50159.19    445411.16 
   36685    2460.2649   -403.00361   -50262.756   -56512.053    -50375.65    448819.46 
   37352    2430.4439   -1187.7019   -50407.604   -56581.153   -50739.799     448122.1 
   38019    2441.7221    539.11996   -50429.739   -56631.936   -50279.639    446074.06 
   38686    2449.4505   -33.767959   -50334.983    -56556.81    -50344.42    447787.26 
   39353    2453.6098   -1265.3343   -50305.435   -56537.828   -50660.048    449013.89 
   40000     2466.056    11.521115   -50353.492   -56617.499   -50350.279    446782.23 
Loop time of 4005.07 on 1 procs for 30000 steps with 19652 atoms

Performance: 0.647 ns/day, 37.084 hours/ns, 7.491 timesteps/s
98.9% CPU use with 1 MPI tasks x no OpenMP threads

MPI task timing breakdown:
Section |  min time  |  avg time  |  max time  |%varavg| %total
---------------------------------------------------------------
Pair    | 2061.8     | 2061.8     | 2061.8     |   0.0 | 51.48
Neigh   | 1856.3     | 1856.3     | 1856.3     |   0.0 | 46.35
Comm    | 31.068     | 31.068     | 31.068     |   0.0 |  0.78
Output  | 2.9145     | 2.9145     | 2.9145     |   0.0 |  0.07
Modify  | 42.075     | 42.075     | 42.075     |   0.0 |  1.05
Other   |            | 10.94      |            |       |  0.27

Nlocal:    19652 ave 19652 max 19652 min
Histogram: 1 0 0 0 0 0 0 0 0 0
Nghost:    16325 ave 16325 max 16325 min
Histogram: 1 0 0 0 0 0 0 0 0 0
Neighs:    1.10393e+06 ave 1.10393e+06 max 1.10393e+06 min
Histogram: 1 0 0 0 0 0 0 0 0 0

Total # of neighbors = 1103928
Ave neighs/atom = 56.1738
Neighbor list builds = 30000
Dangerous builds not checked
Setting up Verlet run ...
  Unit style    : metal
  Current step  : 40000
  Time step     : 0.001
Per MPI rank memory allocation (min/avg/max) = 18.21 | 18.21 | 18.21 Mbytes
Step Temp Press TotEng PotEng Enthalpy Volume 
   40000     2466.056    11.521115   -50353.492   -56617.499   -50350.279    446782.23 
   40020    2458.8367    157.51024   -50355.155   -56600.824   -50311.232    446782.13 
   40495    2398.1964   -451.48376   -50659.651   -56751.288    -50785.08    445110.43 
Loop time of 67.4021 on 1 procs for 495 steps with 19652 atoms

Performance: 0.635 ns/day, 37.824 hours/ns, 7.344 timesteps/s
99.9% CPU use with 1 MPI tasks x no OpenMP threads

MPI task timing breakdown:
Section |  min time  |  avg time  |  max time  |%varavg| %total
---------------------------------------------------------------
Pair    | 34.282     | 34.282     | 34.282     |   0.0 | 50.86
Neigh   | 31.653     | 31.653     | 31.653     |   0.0 | 46.96
Comm    | 0.50973    | 0.50973    | 0.50973    |   0.0 |  0.76
Output  | 0.050061   | 0.050061   | 0.050061   |   0.0 |  0.07
Modify  | 0.7219     | 0.7219     | 0.7219     |   0.0 |  1.07
Other   |            | 0.1856     |            |       |  0.28

Nlocal:    19652 ave 19652 max 19652 min
Histogram: 1 0 0 0 0 0 0 0 0 0
Nghost:    16278 ave 16278 max 16278 min
Histogram: 1 0 0 0 0 0 0 0 0 0
Neighs:    1.10918e+06 ave 1.10918e+06 max 1.10918e+06 min
Histogram: 1 0 0 0 0 0 0 0 0 0

Total # of neighbors = 1109179
Ave neighs/atom = 56.441
Neighbor list builds = 495
Dangerous builds not checked
Setting up Verlet run ...
  Unit style    : metal
  Current step  : 40495
  Time step     : 0.001
Per MPI rank memory allocation (min/avg/max) = 18.21 | 18.21 | 18.21 Mbytes
Step Temp Press TotEng PotEng Enthalpy Volume 
   40495    2398.1964   -451.48376   -50659.651   -56751.288    -50785.08    445110.43 
   40667    2409.1036    99.324913   -50607.504   -56726.847   -50579.939    444640.04 
Loop time of 22.9354 on 1 procs for 172 steps with 19652 atoms

Performance: 0.648 ns/day, 37.040 hours/ns, 7.499 timesteps/s
100.0% CPU use with 1 MPI tasks x no OpenMP threads

MPI task timing breakdown:
Section |  min time  |  avg time  |  max time  |%varavg| %total
---------------------------------------------------------------
Pair    | 11.755     | 11.755     | 11.755     |   0.0 | 51.25
Neigh   | 10.687     | 10.687     | 10.687     |   0.0 | 46.60
Comm    | 0.17315    | 0.17315    | 0.17315    |   0.0 |  0.75
Output  | 0.00030303 | 0.00030303 | 0.00030303 |   0.0 |  0.00
Modify  | 0.25519    | 0.25519    | 0.25519    |   0.0 |  1.11
Other   |            | 0.0651     |            |       |  0.28

Nlocal:    19652 ave 19652 max 19652 min
Histogram: 1 0 0 0 0 0 0 0 0 0
Nghost:    16321 ave 16321 max 16321 min
Histogram: 1 0 0 0 0 0 0 0 0 0
Neighs:    1.11001e+06 ave 1.11001e+06 max 1.11001e+06 min
Histogram: 1 0 0 0 0 0 0 0 0 0

Total # of neighbors = 1110008
Ave neighs/atom = 56.4832
Neighbor list builds = 172
Dangerous builds not checked
Setting up Verlet run ...
  Unit style    : metal
  Current step  : 40667
  Time step     : 0.001
Per MPI rank memory allocation (min/avg/max) = 18.21 | 18.21 | 18.21 Mbytes
Step Temp Press TotEng PotEng Enthalpy Volume 
   40667    2409.1036    99.324913   -50607.504   -56726.847   -50579.939    444640.04 
   40687    2407.4637    254.75685   -50608.263    -56723.44   -50537.562    444643.24 
   41162    2369.6236    413.12058   -50802.189   -56821.249   -50687.925    443141.77 
Loop time of 66.4482 on 1 procs for 495 steps with 19652 atoms

Performance: 0.644 ns/day, 37.289 hours/ns, 7.449 timesteps/s
99.9% CPU use with 1 MPI tasks x no OpenMP threads

MPI task timing breakdown:
Section |  min time  |  avg time  |  max time  |%varavg| %total
---------------------------------------------------------------
Pair    | 33.834     | 33.834     | 33.834     |   0.0 | 50.92
Neigh   | 31.112     | 31.112     | 31.112     |   0.0 | 46.82
Comm    | 0.50493    | 0.50493    | 0.50493    |   0.0 |  0.76
Output  | 0.082603   | 0.082603   | 0.082603   |   0.0 |  0.12
Modify  | 0.72786    | 0.72786    | 0.72786    |   0.0 |  1.10
Other   |            | 0.1874     |            |       |  0.28

Nlocal:    19652 ave 19652 max 19652 min
Histogram: 1 0 0 0 0 0 0 0 0 0
Nghost:    16346 ave 16346 max 16346 min
Histogram: 1 0 0 0 0 0 0 0 0 0
Neighs:    1.11389e+06 ave 1.11389e+06 max 1.11389e+06 min
Histogram: 1 0 0 0 0 0 0 0 0 0

Total # of neighbors = 1113890
Ave neighs/atom = 56.6807
Neighbor list builds = 495
Dangerous builds not checked
Setting up Verlet run ...
  Unit style    : metal
  Current step  : 41162
  Time step     : 0.001
Per MPI rank memory allocation (min/avg/max) = 18.21 | 18.21 | 18.21 Mbytes
Step Temp Press TotEng PotEng Enthalpy Volume 
   41162    2369.6236    413.12058   -50802.189   -56821.249   -50687.925    443141.77 
   41334    2333.2474   -276.11987   -50893.215   -56819.876   -50969.616     443315.9 
Loop time of 22.6477 on 1 procs for 172 steps with 19652 atoms

Performance: 0.656 ns/day, 36.576 hours/ns, 7.595 timesteps/s
100.0% CPU use with 1 MPI tasks x no OpenMP threads

MPI task timing breakdown:
Section |  min time  |  avg time  |  max time  |%varavg| %total
---------------------------------------------------------------
Pair    | 11.576     | 11.576     | 11.576     |   0.0 | 51.11
Neigh   | 10.581     | 10.581     | 10.581     |   0.0 | 46.72
Comm    | 0.17268    | 0.17268    | 0.17268    |   0.0 |  0.76
Output  | 0.00017595 | 0.00017595 | 0.00017595 |   0.0 |  0.00
Modify  | 0.25212    | 0.25212    | 0.25212    |   0.0 |  1.11
Other   |            | 0.06529    |            |       |  0.29

Nlocal:    19652 ave 19652 max 19652 min
Histogram: 1 0 0 0 0 0 0 0 0 0
Nghost:    16266 ave 16266 max 16266 min
Histogram: 1 0 0 0 0 0 0 0 0 0
Neighs:    1.11308e+06 ave 1.11308e+06 max 1.11308e+06 min
Histogram: 1 0 0 0 0 0 0 0 0 0

Total # of neighbors = 1113085
Ave neighs/atom = 56.6398
Neighbor list builds = 172
Dangerous builds not checked
Setting up Verlet run ...
  Unit style    : metal
  Current step  : 41334
  Time step     : 0.001
Per MPI rank memory allocation (min/avg/max) = 18.21 | 18.21 | 18.21 Mbytes
Step Temp Press TotEng PotEng Enthalpy Volume 
   41334    2333.2474   -276.11987   -50893.215   -56819.876   -50969.616     443315.9 
   41354    2347.8773   -669.74887   -50891.728   -56855.551   -51077.042    443309.17 
   41829    2308.8753    248.40556   -51070.889   -56935.642   -51002.467     441311.8 
Loop time of 66.9017 on 1 procs for 495 steps with 19652 atoms

Performance: 0.639 ns/day, 37.543 hours/ns, 7.399 timesteps/s
99.9% CPU use with 1 MPI tasks x no OpenMP threads

MPI task timing breakdown:
Section |  min time  |  avg time  |  max time  |%varavg| %total
---------------------------------------------------------------
Pair    | 34.119     | 34.119     | 34.119     |   0.0 | 51.00
Neigh   | 31.308     | 31.308     | 31.308     |   0.0 | 46.80
Comm    | 0.50672    | 0.50672    | 0.50672    |   0.0 |  0.76
Output  | 0.066469   | 0.066469   | 0.066469   |   0.0 |  0.10
Modify  | 0.71614    | 0.71614    | 0.71614    |   0.0 |  1.07
Other   |            | 0.1856     |            |       |  0.28

Nlocal:    19652 ave 19652 max 19652 min
Histogram: 1 0 0 0 0 0 0 0 0 0
Nghost:    16351 ave 16351 max 16351 min
Histogram: 1 0 0 0 0 0 0 0 0 0
Neighs:    1.11837e+06 ave 1.11837e+06 max 1.11837e+06 min
Histogram: 1 0 0 0 0 0 0 0 0 0

Total # of neighbors = 1118367
Ave neighs/atom = 56.9086
Neighbor list builds = 495
Dangerous builds not checked
Setting up Verlet run ...
  Unit style    : metal
  Current step  : 41829
  Time step     : 0.001
Per MPI rank memory allocation (min/avg/max) = 18.21 | 18.21 | 18.21 Mbytes
Step Temp Press TotEng PotEng Enthalpy Volume 
   41829    2308.8753    248.40556   -51070.889   -56935.642   -51002.467     441311.8 
   42001     2291.494    22.747572   -51089.831   -56910.434   -51083.558    441831.34 
Loop time of 22.5798 on 1 procs for 172 steps with 19652 atoms

Performance: 0.658 ns/day, 36.466 hours/ns, 7.617 timesteps/s
100.0% CPU use with 1 MPI tasks x no OpenMP threads

MPI task timing breakdown:
Section |  min time  |  avg time  |  max time  |%varavg| %total
---------------------------------------------------------------
Pair    | 11.543     | 11.543     | 11.543     |   0.0 | 51.12
Neigh   | 10.545     | 10.545     | 10.545     |   0.0 | 46.70
Comm    | 0.17344    | 0.17344    | 0.17344    |   0.0 |  0.77
Output  | 0.00025201 | 0.00025201 | 0.00025201 |   0.0 |  0.00
Modify  | 0.25277    | 0.25277    | 0.25277    |   0.0 |  1.12
Other   |            | 0.06585    |            |       |  0.29

Nlocal:    19652 ave 19652 max 19652 min
Histogram: 1 0 0 0 0 0 0 0 0 0
Nghost:    16404 ave 16404 max 16404 min
Histogram: 1 0 0 0 0 0 0 0 0 0
Neighs:    1.11695e+06 ave 1.11695e+06 max 1.11695e+06 min
Histogram: 1 0 0 0 0 0 0 0 0 0

Total # of neighbors = 1116949
Ave neighs/atom = 56.8364
Neighbor list builds = 172
Dangerous builds not checked
Setting up Verlet run ...
  Unit style    : metal
  Current step  : 42001
  Time step     : 0.001
Per MPI rank memory allocation (min/avg/max) = 18.21 | 18.21 | 18.21 Mbytes
Step Temp Press TotEng PotEng Enthalpy Volume 
   42001     2291.494    22.747572   -51089.831   -56910.434   -51083.558    441831.34 
   42021     2293.748    118.65504   -51089.206   -56915.535   -51056.484    441831.69 
   42496    2260.5041    1011.6856     -51333.4   -57075.286   -51056.671    438246.99 
Loop time of 67.5972 on 1 procs for 495 steps with 19652 atoms

Performance: 0.633 ns/day, 37.933 hours/ns, 7.323 timesteps/s
99.9% CPU use with 1 MPI tasks x no OpenMP threads

MPI task timing breakdown:
Section |  min time  |  avg time  |  max time  |%varavg| %total
---------------------------------------------------------------
Pair    | 34.522     | 34.522     | 34.522     |   0.0 | 51.07
Neigh   | 31.591     | 31.591     | 31.591     |   0.0 | 46.73
Comm    | 0.51003    | 0.51003    | 0.51003    |   0.0 |  0.75
Output  | 0.066431   | 0.066431   | 0.066431   |   0.0 |  0.10
Modify  | 0.7208     | 0.7208     | 0.7208     |   0.0 |  1.07
Other   |            | 0.1862     |            |       |  0.28

Nlocal:    19652 ave 19652 max 19652 min
Histogram: 1 0 0 0 0 0 0 0 0 0
Nghost:    16347 ave 16347 max 16347 min
Histogram: 1 0 0 0 0 0 0 0 0 0
Neighs:    1.12671e+06 ave 1.12671e+06 max 1.12671e+06 min
Histogram: 1 0 0 0 0 0 0 0 0 0

Total # of neighbors = 1126714
Ave neighs/atom = 57.3333
Neighbor list builds = 495
Dangerous builds not checked
Setting up Verlet run ...
  Unit style    : metal
  Current step  : 42496
  Time step     : 0.001
Per MPI rank memory allocation (min/avg/max) = 18.21 | 18.21 | 18.21 Mbytes
Step Temp Press TotEng PotEng Enthalpy Volume 
   42496    2260.5041    1011.6856     -51333.4   -57075.286   -51056.671    438246.99 
   42668    2237.9914   -697.27317   -51419.407   -57104.109   -51610.577     439265.3 
Loop time of 21.6835 on 1 procs for 172 steps with 19652 atoms

Performance: 0.685 ns/day, 35.019 hours/ns, 7.932 timesteps/s
99.9% CPU use with 1 MPI tasks x no OpenMP threads

MPI task timing breakdown:
Section |  min time  |  avg time  |  max time  |%varavg| %total
---------------------------------------------------------------
Pair    | 11.078     | 11.078     | 11.078     |   0.0 | 51.09
Neigh   | 10.155     | 10.155     | 10.155     |   0.0 | 46.83
Comm    | 0.15993    | 0.15993    | 0.15993    |   0.0 |  0.74
Output  | 0.00016904 | 0.00016904 | 0.00016904 |   0.0 |  0.00
Modify  | 0.23121    | 0.23121    | 0.23121    |   0.0 |  1.07
Other   |            | 0.05985    |            |       |  0.28

Nlocal:    19652 ave 19652 max 19652 min
Histogram: 1 0 0 0 0 0 0 0 0 0
Nghost:    16396 ave 16396 max 16396 min
Histogram: 1 0 0 0 0 0 0 0 0 0
Neighs:    1.12399e+06 ave 1.12399e+06 max 1.12399e+06 min
Histogram: 1 0 0 0 0 0 0 0 0 0

Total # of neighbors = 1123993
Ave neighs/atom = 57.1948
Neighbor list builds = 172
Dangerous builds not checked
Setting up Verlet run ...
  Unit style    : metal
  Current step  : 42668
  Time step     : 0.001
Per MPI rank memory allocation (min/avg/max) = 18.21 | 18.21 | 18.21 Mbytes
Step Temp Press TotEng PotEng Enthalpy Volume 
   42668    2237.9914   -697.27317   -51419.407   -57104.109   -51610.577     439265.3 
   42688    2241.3074   -1059.3945   -51418.434   -57111.559   -51708.876     439249.7 
   43163    2201.4915   -334.48497   -51593.398   -57185.387    -51684.72    437431.84 
Loop time of 65.7448 on 1 procs for 495 steps with 19652 atoms

Performance: 0.651 ns/day, 36.894 hours/ns, 7.529 timesteps/s
99.8% CPU use with 1 MPI tasks x no OpenMP threads

MPI task timing breakdown:
Section |  min time  |  avg time  |  max time  |%varavg| %total
---------------------------------------------------------------
Pair    | 33.741     | 33.741     | 33.741     |   0.0 | 51.32
Neigh   | 30.546     | 30.546     | 30.546     |   0.0 | 46.46
Comm    | 0.49621    | 0.49621    | 0.49621    |   0.0 |  0.75
Output  | 0.064012   | 0.064012   | 0.064012   |   0.0 |  0.10
Modify  | 0.7134     | 0.7134     | 0.7134     |   0.0 |  1.09
Other   |            | 0.1847     |            |       |  0.28

Nlocal:    19652 ave 19652 max 19652 min
Histogram: 1 0 0 0 0 0 0 0 0 0
Nghost:    16418 ave 16418 max 16418 min
Histogram: 1 0 0 0 0 0 0 0 0 0
Neighs:    1.12866e+06 ave 1.12866e+06 max 1.12866e+06 min
Histogram: 1 0 0 0 0 0 0 0 0 0

Total # of neighbors = 1128655
Ave neighs/atom = 57.4321
Neighbor list builds = 495
Dangerous builds not checked
Setting up Verlet run ...
  Unit style    : metal
  Current step  : 43163
  Time step     : 0.001
Per MPI rank memory allocation (min/avg/max) = 18.21 | 18.21 | 18.21 Mbytes
Step Temp Press TotEng PotEng Enthalpy Volume 
   43163    2201.4915   -334.48497   -51593.398   -57185.387    -51684.72    437431.84 
   43335    2186.8426    50.319083   -51645.277   -57200.056   -51631.556    436882.39 
Loop time of 22.3289 on 1 procs for 172 steps with 19652 atoms

Performance: 0.666 ns/day, 36.061 hours/ns, 7.703 timesteps/s
99.6% CPU use with 1 MPI tasks x no OpenMP threads

MPI task timing breakdown:
Section |  min time  |  avg time  |  max time  |%varavg| %total
---------------------------------------------------------------
Pair    | 11.477     | 11.477     | 11.477     |   0.0 | 51.40
Neigh   | 10.387     | 10.387     | 10.387     |   0.0 | 46.52
Comm    | 0.16634    | 0.16634    | 0.16634    |   0.0 |  0.74
Output  | 0.00016212 | 0.00016212 | 0.00016212 |   0.0 |  0.00
Modify  | 0.23646    | 0.23646    | 0.23646    |   0.0 |  1.06
Other   |            | 0.06223    |            |       |  0.28

Nlocal:    19652 ave 19652 max 19652 min
Histogram: 1 0 0 0 0 0 0 0 0 0
Nghost:    16409 ave 16409 max 16409 min
Histogram: 1 0 0 0 0 0 0 0 0 0
Neighs:    1.13038e+06 ave 1.13038e+06 max 1.13038e+06 min
Histogram: 1 0 0 0 0 0 0 0 0 0

Total # of neighbors = 1130380
Ave neighs/atom = 57.5198
Neighbor list builds = 172
Dangerous builds not checked
Setting up Verlet run ...
  Unit style    : metal
  Current step  : 43335
  Time step     : 0.001
Per MPI rank memory allocation (min/avg/max) = 18.21 | 18.21 | 18.21 Mbytes
Step Temp Press TotEng PotEng Enthalpy Volume 
   43335    2186.8426    50.319083   -51645.277   -57200.056   -51631.556    436882.39 
   43355    2190.9864    130.49655   -51644.112   -57209.417   -51608.528    436884.72 
   43830    2160.2079    227.59244   -51834.004   -57321.129    -51772.23    434869.94 
Loop time of 66.5132 on 1 procs for 495 steps with 19652 atoms

Performance: 0.643 ns/day, 37.325 hours/ns, 7.442 timesteps/s
99.7% CPU use with 1 MPI tasks x no OpenMP threads

MPI task timing breakdown:
Section |  min time  |  avg time  |  max time  |%varavg| %total
---------------------------------------------------------------
Pair    | 34.078     | 34.078     | 34.078     |   0.0 | 51.24
Neigh   | 30.97      | 30.97      | 30.97      |   0.0 | 46.56
Comm    | 0.50293    | 0.50293    | 0.50293    |   0.0 |  0.76
Output  | 0.065583   | 0.065583   | 0.065583   |   0.0 |  0.10
Modify  | 0.71217    | 0.71217    | 0.71217    |   0.0 |  1.07
Other   |            | 0.1837     |            |       |  0.28

Nlocal:    19652 ave 19652 max 19652 min
Histogram: 1 0 0 0 0 0 0 0 0 0
Nghost:    16470 ave 16470 max 16470 min
Histogram: 1 0 0 0 0 0 0 0 0 0
Neighs:    1.1354e+06 ave 1.1354e+06 max 1.1354e+06 min
Histogram: 1 0 0 0 0 0 0 0 0 0

Total # of neighbors = 1135401
Ave neighs/atom = 57.7753
Neighbor list builds = 495
Dangerous builds not checked
Setting up Verlet run ...
  Unit style    : metal
  Current step  : 43830
  Time step     : 0.001
Per MPI rank memory allocation (min/avg/max) = 18.21 | 18.21 | 18.21 Mbytes
Step Temp Press TotEng PotEng Enthalpy Volume 
   43830    2160.2079    227.59244   -51834.004   -57321.129    -51772.23    434869.94 
   44002    2132.1874    67.684567    -51916.31    -57332.26   -51897.942    434773.88 
Loop time of 22.9388 on 1 procs for 172 steps with 19652 atoms

Performance: 0.648 ns/day, 37.046 hours/ns, 7.498 timesteps/s
99.8% CPU use with 1 MPI tasks x no OpenMP threads

MPI task timing breakdown:
Section |  min time  |  avg time  |  max time  |%varavg| %total
---------------------------------------------------------------
Pair    | 11.853     | 11.853     | 11.853     |   0.0 | 51.67
Neigh   | 10.596     | 10.596     | 10.596     |   0.0 | 46.19
Comm    | 0.17335    | 0.17335    | 0.17335    |   0.0 |  0.76
Output  | 0.00018311 | 0.00018311 | 0.00018311 |   0.0 |  0.00
Modify  | 0.25147    | 0.25147    | 0.25147    |   0.0 |  1.10
Other   |            | 0.06485    |            |       |  0.28

Nlocal:    19652 ave 19652 max 19652 min
Histogram: 1 0 0 0 0 0 0 0 0 0
Nghost:    16414 ave 16414 max 16414 min
Histogram: 1 0 0 0 0 0 0 0 0 0
Neighs:    1.13588e+06 ave 1.13588e+06 max 1.13588e+06 min
Histogram: 1 0 0 0 0 0 0 0 0 0

Total # of neighbors = 1135885
Ave neighs/atom = 57.8
Neighbor list builds = 172
Dangerous builds not checked
Setting up Verlet run ...
  Unit style    : metal
  Current step  : 44002
  Time step     : 0.001
Per MPI rank memory allocation (min/avg/max) = 18.21 | 18.21 | 18.21 Mbytes
Step Temp Press TotEng PotEng Enthalpy Volume 
   44002    2132.1874    67.684567    -51916.31    -57332.26   -51897.942    434773.88 
   44022    2131.5188    69.750706   -51914.732   -57328.984   -51895.804    434774.69 
   44497    2111.9333    178.49724   -52100.099   -57464.602   -52051.928    432378.45 
Loop time of 67.232 on 1 procs for 495 steps with 19652 atoms

Performance: 0.636 ns/day, 37.728 hours/ns, 7.363 timesteps/s
99.9% CPU use with 1 MPI tasks x no OpenMP threads

MPI task timing breakdown:
Section |  min time  |  avg time  |  max time  |%varavg| %total
---------------------------------------------------------------
Pair    | 34.481     | 34.481     | 34.481     |   0.0 | 51.29
Neigh   | 31.277     | 31.277     | 31.277     |   0.0 | 46.52
Comm    | 0.50713    | 0.50713    | 0.50713    |   0.0 |  0.75
Output  | 0.063958   | 0.063958   | 0.063958   |   0.0 |  0.10
Modify  | 0.71885    | 0.71885    | 0.71885    |   0.0 |  1.07
Other   |            | 0.1849     |            |       |  0.28

Nlocal:    19652 ave 19652 max 19652 min
Histogram: 1 0 0 0 0 0 0 0 0 0
Nghost:    16431 ave 16431 max 16431 min
Histogram: 1 0 0 0 0 0 0 0 0 0
Neighs:    1.1424e+06 ave 1.1424e+06 max 1.1424e+06 min
Histogram: 1 0 0 0 0 0 0 0 0 0

Total # of neighbors = 1142395
Ave neighs/atom = 58.1312
Neighbor list builds = 495
Dangerous builds not checked
Setting up Verlet run ...
  Unit style    : metal
  Current step  : 44497
  Time step     : 0.001
Per MPI rank memory allocation (min/avg/max) = 18.21 | 18.21 | 18.21 Mbytes
Step Temp Press TotEng PotEng Enthalpy Volume 
   44497    2111.9333    178.49724   -52100.099   -57464.602   -52051.928    432378.45 
   44669    2089.8565   -111.11297   -52176.029   -57484.455   -52206.036    432684.16 
Loop time of 22.3718 on 1 procs for 172 steps with 19652 atoms

Performance: 0.664 ns/day, 36.130 hours/ns, 7.688 timesteps/s
100.0% CPU use with 1 MPI tasks x no OpenMP threads

MPI task timing breakdown:
Section |  min time  |  avg time  |  max time  |%varavg| %total
---------------------------------------------------------------
Pair    | 11.444     | 11.444     | 11.444     |   0.0 | 51.16
Neigh   | 10.444     | 10.444     | 10.444     |   0.0 | 46.68
Comm    | 0.16973    | 0.16973    | 0.16973    |   0.0 |  0.76
Output  | 0.00019002 | 0.00019002 | 0.00019002 |   0.0 |  0.00
Modify  | 0.24935    | 0.24935    | 0.24935    |   0.0 |  1.11
Other   |            | 0.06412    |            |       |  0.29

Nlocal:    19652 ave 19652 max 19652 min
Histogram: 1 0 0 0 0 0 0 0 0 0
Nghost:    16523 ave 16523 max 16523 min
Histogram: 1 0 0 0 0 0 0 0 0 0
Neighs:    1.14148e+06 ave 1.14148e+06 max 1.14148e+06 min
Histogram: 1 0 0 0 0 0 0 0 0 0

Total # of neighbors = 1141476
Ave neighs/atom = 58.0845
Neighbor list builds = 172
Dangerous builds not checked
Setting up Verlet run ...
  Unit style    : metal
  Current step  : 44669
  Time step     : 0.001
Per MPI rank memory allocation (min/avg/max) = 18.21 | 18.21 | 18.21 Mbytes
Step Temp Press TotEng PotEng Enthalpy Volume 
   44669    2089.8565   -111.11297   -52176.029   -57484.455   -52206.036    432684.16 
   44689    2091.6704   -259.75438   -52175.062   -57488.095    -52245.21     432680.8 
   45164    2069.6278    265.59631   -52354.269   -57611.312   -52282.915    430437.52 
Loop time of 66.6066 on 1 procs for 495 steps with 19652 atoms

Performance: 0.642 ns/day, 37.377 hours/ns, 7.432 timesteps/s
99.9% CPU use with 1 MPI tasks x no OpenMP threads

MPI task timing breakdown:
Section |  min time  |  avg time  |  max time  |%varavg| %total
---------------------------------------------------------------
Pair    | 34.369     | 34.369     | 34.369     |   0.0 | 51.60
Neigh   | 30.765     | 30.765     | 30.765     |   0.0 | 46.19
Comm    | 0.50015    | 0.50015    | 0.50015    |   0.0 |  0.75
Output  | 0.066078   | 0.066078   | 0.066078   |   0.0 |  0.10
Modify  | 0.71962    | 0.71962    | 0.71962    |   0.0 |  1.08
Other   |            | 0.1863     |            |       |  0.28

Nlocal:    19652 ave 19652 max 19652 min
Histogram: 1 0 0 0 0 0 0 0 0 0
Nghost:    16512 ave 16512 max 16512 min
Histogram: 1 0 0 0 0 0 0 0 0 0
Neighs:    1.14746e+06 ave 1.14746e+06 max 1.14746e+06 min
Histogram: 1 0 0 0 0 0 0 0 0 0

Total # of neighbors = 1147459
Ave neighs/atom = 58.3889
Neighbor list builds = 495
Dangerous builds not checked
Setting up Verlet run ...
  Unit style    : metal
  Current step  : 45164
  Time step     : 0.001
Per MPI rank memory allocation (min/avg/max) = 18.21 | 18.21 | 18.21 Mbytes
Step Temp Press TotEng PotEng Enthalpy Volume 
   45164    2069.6278    265.59631   -52354.269   -57611.312   -52282.915    430437.52 
   45336     2039.328   -162.06805   -52435.177   -57615.256   -52478.743    430688.12 
Loop time of 22.9663 on 1 procs for 172 steps with 19652 atoms

Performance: 0.647 ns/day, 37.090 hours/ns, 7.489 timesteps/s
99.9% CPU use with 1 MPI tasks x no OpenMP threads

MPI task timing breakdown:
Section |  min time  |  avg time  |  max time  |%varavg| %total
---------------------------------------------------------------
Pair    | 11.891     | 11.891     | 11.891     |   0.0 | 51.78
Neigh   | 10.579     | 10.579     | 10.579     |   0.0 | 46.06
Comm    | 0.17333    | 0.17333    | 0.17333    |   0.0 |  0.75
Output  | 0.00018692 | 0.00018692 | 0.00018692 |   0.0 |  0.00
Modify  | 0.25738    | 0.25738    | 0.25738    |   0.0 |  1.12
Other   |            | 0.06522    |            |       |  0.28

Nlocal:    19652 ave 19652 max 19652 min
Histogram: 1 0 0 0 0 0 0 0 0 0
Nghost:    16480 ave 16480 max 16480 min
Histogram: 1 0 0 0 0 0 0 0 0 0
Neighs:    1.1467e+06 ave 1.1467e+06 max 1.1467e+06 min
Histogram: 1 0 0 0 0 0 0 0 0 0

Total # of neighbors = 1146700
Ave neighs/atom = 58.3503
Neighbor list builds = 172
Dangerous builds not checked
Setting up Verlet run ...
  Unit style    : metal
  Current step  : 45336
  Time step     : 0.001
Per MPI rank memory allocation (min/avg/max) = 18.21 | 18.21 | 18.21 Mbytes
Step Temp Press TotEng PotEng Enthalpy Volume 
   45336     2039.328   -162.06805   -52435.177   -57615.256   -52478.743    430688.12 
   45356    2038.8937   -118.16336   -52433.872   -57612.848   -52465.636    430686.42 
   45831    2008.6499    324.72081   -52629.218   -57731.372   -52542.395    428384.31 
Loop time of 66.111 on 1 procs for 495 steps with 19652 atoms

Performance: 0.647 ns/day, 37.099 hours/ns, 7.487 timesteps/s
100.0% CPU use with 1 MPI tasks x no OpenMP threads

MPI task timing breakdown:
Section |  min time  |  avg time  |  max time  |%varavg| %total
---------------------------------------------------------------
Pair    | 34.146     | 34.146     | 34.146     |   0.0 | 51.65
Neigh   | 30.533     | 30.533     | 30.533     |   0.0 | 46.18
Comm    | 0.49264    | 0.49264    | 0.49264    |   0.0 |  0.75
Output  | 0.057639   | 0.057639   | 0.057639   |   0.0 |  0.09
Modify  | 0.70176    | 0.70176    | 0.70176    |   0.0 |  1.06
Other   |            | 0.1798     |            |       |  0.27

Nlocal:    19652 ave 19652 max 19652 min
Histogram: 1 0 0 0 0 0 0 0 0 0
Nghost:    16568 ave 16568 max 16568 min
Histogram: 1 0 0 0 0 0 0 0 0 0
Neighs:    1.15331e+06 ave 1.15331e+06 max 1.15331e+06 min
Histogram: 1 0 0 0 0 0 0 0 0 0

Total # of neighbors = 1153310
Ave neighs/atom = 58.6866
Neighbor list builds = 495
Dangerous builds not checked
Setting up Verlet run ...
  Unit style    : metal
  Current step  : 45831
  Time step     : 0.001
Per MPI rank memory allocation (min/avg/max) = 18.21 | 18.21 | 18.21 Mbytes
Step Temp Press TotEng PotEng Enthalpy Volume 
   45831    2008.6499    324.72081   -52629.218   -57731.372   -52542.395    428384.31 
   46003     1986.586    139.92901   -52715.862   -57761.971   -52678.475    428074.22 
Loop time of 22.0051 on 1 procs for 172 steps with 19652 atoms

Performance: 0.675 ns/day, 35.538 hours/ns, 7.816 timesteps/s
100.0% CPU use with 1 MPI tasks x no OpenMP threads

MPI task timing breakdown:
Section |  min time  |  avg time  |  max time  |%varavg| %total
---------------------------------------------------------------
Pair    | 11.378     | 11.378     | 11.378     |   0.0 | 51.71
Neigh   | 10.155     | 10.155     | 10.155     |   0.0 | 46.15
Comm    | 0.16727    | 0.16727    | 0.16727    |   0.0 |  0.76
Output  | 0.00020885 | 0.00020885 | 0.00020885 |   0.0 |  0.00
Modify  | 0.24266    | 0.24266    | 0.24266    |   0.0 |  1.10
Other   |            | 0.06244    |            |       |  0.28

Nlocal:    19652 ave 19652 max 19652 min
Histogram: 1 0 0 0 0 0 0 0 0 0
Nghost:    16551 ave 16551 max 16551 min
Histogram: 1 0 0 0 0 0 0 0 0 0
Neighs:    1.15352e+06 ave 1.15352e+06 max 1.15352e+06 min
Histogram: 1 0 0 0 0 0 0 0 0 0

Total # of neighbors = 1153518
Ave neighs/atom = 58.6972
Neighbor list builds = 172
Dangerous builds not checked
Setting up Verlet run ...
  Unit style    : metal
  Current step  : 46003
  Time step     : 0.001
Per MPI rank memory allocation (min/avg/max) = 18.21 | 18.21 | 18.21 Mbytes
Step Temp Press TotEng PotEng Enthalpy Volume 
   46003     1986.586    139.92901   -52715.862   -57761.971   -52678.475    428074.22 
   46023    1988.0978   -2.7864052   -52714.775   -57764.724   -52715.519     428075.7 
   46498    1946.9099    264.58429   -52900.415   -57845.744   -52830.011    426331.68 
Loop time of 65.8799 on 1 procs for 495 steps with 19652 atoms

Performance: 0.649 ns/day, 36.970 hours/ns, 7.514 timesteps/s
100.0% CPU use with 1 MPI tasks x no OpenMP threads

MPI task timing breakdown:
Section |  min time  |  avg time  |  max time  |%varavg| %total
---------------------------------------------------------------
Pair    | 33.838     | 33.838     | 33.838     |   0.0 | 51.36
Neigh   | 30.594     | 30.594     | 30.594     |   0.0 | 46.44
Comm    | 0.49484    | 0.49484    | 0.49484    |   0.0 |  0.75
Output  | 0.064242   | 0.064242   | 0.064242   |   0.0 |  0.10
Modify  | 0.70756    | 0.70756    | 0.70756    |   0.0 |  1.07
Other   |            | 0.1813     |            |       |  0.28

Nlocal:    19652 ave 19652 max 19652 min
Histogram: 1 0 0 0 0 0 0 0 0 0
Nghost:    16504 ave 16504 max 16504 min
Histogram: 1 0 0 0 0 0 0 0 0 0
Neighs:    1.1587e+06 ave 1.1587e+06 max 1.1587e+06 min
Histogram: 1 0 0 0 0 0 0 0 0 0

Total # of neighbors = 1158704
Ave neighs/atom = 58.9611
Neighbor list builds = 495
Dangerous builds not checked
Setting up Verlet run ...
  Unit style    : metal
  Current step  : 46498
  Time step     : 0.001
Per MPI rank memory allocation (min/avg/max) = 18.21 | 18.21 | 18.21 Mbytes
Step Temp Press TotEng PotEng Enthalpy Volume 
   46498    1946.9099    264.58429   -52900.415   -57845.744   -52830.011    426331.68 
   46670    1941.6523   -195.35401   -52958.991   -57890.965   -53010.959    426211.69 
Loop time of 22.394 on 1 procs for 172 steps with 19652 atoms

Performance: 0.664 ns/day, 36.166 hours/ns, 7.681 timesteps/s
99.9% CPU use with 1 MPI tasks x no OpenMP threads

MPI task timing breakdown:
Section |  min time  |  avg time  |  max time  |%varavg| %total
---------------------------------------------------------------
Pair    | 11.563     | 11.563     | 11.563     |   0.0 | 51.63
Neigh   | 10.36      | 10.36      | 10.36      |   0.0 | 46.26
Comm    | 0.166      | 0.166      | 0.166      |   0.0 |  0.74
Output  | 0.00019789 | 0.00019789 | 0.00019789 |   0.0 |  0.00
Modify  | 0.24158    | 0.24158    | 0.24158    |   0.0 |  1.08
Other   |            | 0.06271    |            |       |  0.28

Nlocal:    19652 ave 19652 max 19652 min
Histogram: 1 0 0 0 0 0 0 0 0 0
Nghost:    16548 ave 16548 max 16548 min
Histogram: 1 0 0 0 0 0 0 0 0 0
Neighs:    1.15898e+06 ave 1.15898e+06 max 1.15898e+06 min
Histogram: 1 0 0 0 0 0 0 0 0 0

Total # of neighbors = 1158982
Ave neighs/atom = 58.9753
Neighbor list builds = 172
Dangerous builds not checked
Setting up Verlet run ...
  Unit style    : metal
  Current step  : 46670
  Time step     : 0.001
Per MPI rank memory allocation (min/avg/max) = 18.21 | 18.21 | 18.21 Mbytes
Step Temp Press TotEng PotEng Enthalpy Volume 
   46670    1941.6523   -195.35401   -52958.991   -57890.965   -53010.959    426211.69 
   46690    1949.4744   -378.59872   -52958.805   -57910.648   -53059.518    426205.22 
   47165    1898.5318    653.70125   -53167.878   -57990.321   -52994.889    423982.59 
Loop time of 65.3584 on 1 procs for 495 steps with 19652 atoms

Performance: 0.654 ns/day, 36.677 hours/ns, 7.574 timesteps/s
99.9% CPU use with 1 MPI tasks x no OpenMP threads

MPI task timing breakdown:
Section |  min time  |  avg time  |  max time  |%varavg| %total
---------------------------------------------------------------
Pair    | 33.803     | 33.803     | 33.803     |   0.0 | 51.72
Neigh   | 30.129     | 30.129     | 30.129     |   0.0 | 46.10
Comm    | 0.4828     | 0.4828     | 0.4828     |   0.0 |  0.74
Output  | 0.06602    | 0.06602    | 0.06602    |   0.0 |  0.10
Modify  | 0.69822    | 0.69822    | 0.69822    |   0.0 |  1.07
Other   |            | 0.1797     |            |       |  0.27

Nlocal:    19652 ave 19652 max 19652 min
Histogram: 1 0 0 0 0 0 0 0 0 0
Nghost:    16618 ave 16618 max 16618 min
Histogram: 1 0 0 0 0 0 0 0 0 0
Neighs:    1.16527e+06 ave 1.16527e+06 max 1.16527e+06 min
Histogram: 1 0 0 0 0 0 0 0 0 0

Total # of neighbors = 1165272
Ave neighs/atom = 59.2953
Neighbor list builds = 495
Dangerous builds not checked
Setting up Verlet run ...
  Unit style    : metal
  Current step  : 47165
  Time step     : 0.001
Per MPI rank memory allocation (min/avg/max) = 18.21 | 18.21 | 18.21 Mbytes
Step Temp Press TotEng PotEng Enthalpy Volume 
   47165    1898.5318    653.70125   -53167.878   -57990.321   -52994.889    423982.59 
   47337     1884.139   -214.78109   -53227.907   -58013.792   -53284.745    423982.09 
Loop time of 22.94 on 1 procs for 172 steps with 19652 atoms

Performance: 0.648 ns/day, 37.048 hours/ns, 7.498 timesteps/s
99.9% CPU use with 1 MPI tasks x no OpenMP threads

MPI task timing breakdown:
Section |  min time  |  avg time  |  max time  |%varavg| %total
---------------------------------------------------------------
Pair    | 11.894     | 11.894     | 11.894     |   0.0 | 51.85
Neigh   | 10.558     | 10.558     | 10.558     |   0.0 | 46.02
Comm    | 0.17139    | 0.17139    | 0.17139    |   0.0 |  0.75
Output  | 0.00018787 | 0.00018787 | 0.00018787 |   0.0 |  0.00
Modify  | 0.25161    | 0.25161    | 0.25161    |   0.0 |  1.10
Other   |            | 0.06475    |            |       |  0.28

Nlocal:    19652 ave 19652 max 19652 min
Histogram: 1 0 0 0 0 0 0 0 0 0
Nghost:    16545 ave 16545 max 16545 min
Histogram: 1 0 0 0 0 0 0 0 0 0
Neighs:    1.16526e+06 ave 1.16526e+06 max 1.16526e+06 min
Histogram: 1 0 0 0 0 0 0 0 0 0

Total # of neighbors = 1165260
Ave neighs/atom = 59.2947
Neighbor list builds = 172
Dangerous builds not checked
Setting up Verlet run ...
  Unit style    : metal
  Current step  : 47337
  Time step     : 0.001
Per MPI rank memory allocation (min/avg/max) = 18.21 | 18.21 | 18.21 Mbytes
Step Temp Press TotEng PotEng Enthalpy Volume 
   47337     1884.139   -214.78109   -53227.907   -58013.792   -53284.745    423982.09 
   47357    1892.1647   -139.34351   -53226.717   -58032.987   -53263.591    423978.25 
   47832    1854.5888    920.33028   -53429.108   -58139.932   -53187.052    421387.53 
Loop time of 66.7202 on 1 procs for 495 steps with 19652 atoms

Performance: 0.641 ns/day, 37.441 hours/ns, 7.419 timesteps/s
99.9% CPU use with 1 MPI tasks x no OpenMP threads

MPI task timing breakdown:
Section |  min time  |  avg time  |  max time  |%varavg| %total
---------------------------------------------------------------
Pair    | 34.633     | 34.633     | 34.633     |   0.0 | 51.91
Neigh   | 30.639     | 30.639     | 30.639     |   0.0 | 45.92
Comm    | 0.49495    | 0.49495    | 0.49495    |   0.0 |  0.74
Output  | 0.065359   | 0.065359   | 0.065359   |   0.0 |  0.10
Modify  | 0.70583    | 0.70583    | 0.70583    |   0.0 |  1.06
Other   |            | 0.182      |            |       |  0.27

Nlocal:    19652 ave 19652 max 19652 min
Histogram: 1 0 0 0 0 0 0 0 0 0
Nghost:    16677 ave 16677 max 16677 min
Histogram: 1 0 0 0 0 0 0 0 0 0
Neighs:    1.172e+06 ave 1.172e+06 max 1.172e+06 min
Histogram: 1 0 0 0 0 0 0 0 0 0

Total # of neighbors = 1171998
Ave neighs/atom = 59.6376
Neighbor list builds = 495
Dangerous builds not checked
Setting up Verlet run ...
  Unit style    : metal
  Current step  : 47832
  Time step     : 0.001
Per MPI rank memory allocation (min/avg/max) = 18.21 | 18.21 | 18.21 Mbytes
Step Temp Press TotEng PotEng Enthalpy Volume 
   47832    1854.5888    920.33028   -53429.108   -58139.932   -53187.052    421387.53 
   48004    1844.3287   -456.22636   -53504.737     -58189.5   -53624.862     421855.4 
Loop time of 23.0255 on 1 procs for 172 steps with 19652 atoms

Performance: 0.645 ns/day, 37.186 hours/ns, 7.470 timesteps/s
99.9% CPU use with 1 MPI tasks x no OpenMP threads

MPI task timing breakdown:
Section |  min time  |  avg time  |  max time  |%varavg| %total
---------------------------------------------------------------
Pair    | 12.01      | 12.01      | 12.01      |   0.0 | 52.16
Neigh   | 10.508     | 10.508     | 10.508     |   0.0 | 45.64
Comm    | 0.18025    | 0.18025    | 0.18025    |   0.0 |  0.78
Output  | 0.00016904 | 0.00016904 | 0.00016904 |   0.0 |  0.00
Modify  | 0.26264    | 0.26264    | 0.26264    |   0.0 |  1.14
Other   |            | 0.06521    |            |       |  0.28

Nlocal:    19652 ave 19652 max 19652 min
Histogram: 1 0 0 0 0 0 0 0 0 0
Nghost:    16654 ave 16654 max 16654 min
Histogram: 1 0 0 0 0 0 0 0 0 0
Neighs:    1.17155e+06 ave 1.17155e+06 max 1.17155e+06 min
Histogram: 1 0 0 0 0 0 0 0 0 0

Total # of neighbors = 1171552
Ave neighs/atom = 59.6149
Neighbor list builds = 172
Dangerous builds not checked
Setting up Verlet run ...
  Unit style    : metal
  Current step  : 48004
  Time step     : 0.001
Per MPI rank memory allocation (min/avg/max) = 18.21 | 18.21 | 18.21 Mbytes
Step Temp Press TotEng PotEng Enthalpy Volume 
   48004    1844.3287   -456.22636   -53504.737     -58189.5   -53624.862     421855.4 
   48024    1849.5827   -654.25085   -53504.505   -58202.614   -53676.766    421844.13 
   48499     1810.071   -180.49423   -53675.545    -58273.29   -53722.877    420149.84 
Loop time of 66.837 on 1 procs for 495 steps with 19652 atoms

Performance: 0.640 ns/day, 37.507 hours/ns, 7.406 timesteps/s
99.9% CPU use with 1 MPI tasks x no OpenMP threads

MPI task timing breakdown:
Section |  min time  |  avg time  |  max time  |%varavg| %total
---------------------------------------------------------------
Pair    | 34.554     | 34.554     | 34.554     |   0.0 | 51.70
Neigh   | 30.849     | 30.849     | 30.849     |   0.0 | 46.16
Comm    | 0.49458    | 0.49458    | 0.49458    |   0.0 |  0.74
Output  | 0.055548   | 0.055548   | 0.055548   |   0.0 |  0.08
Modify  | 0.70138    | 0.70138    | 0.70138    |   0.0 |  1.05
Other   |            | 0.1825     |            |       |  0.27

Nlocal:    19652 ave 19652 max 19652 min
Histogram: 1 0 0 0 0 0 0 0 0 0
Nghost:    16656 ave 16656 max 16656 min
Histogram: 1 0 0 0 0 0 0 0 0 0
Neighs:    1.17628e+06 ave 1.17628e+06 max 1.17628e+06 min
Histogram: 1 0 0 0 0 0 0 0 0 0

Total # of neighbors = 1176276
Ave neighs/atom = 59.8553
Neighbor list builds = 495
Dangerous builds not checked
Setting up Verlet run ...
  Unit style    : metal
  Current step  : 48499
  Time step     : 0.001
Per MPI rank memory allocation (min/avg/max) = 18.21 | 18.21 | 18.21 Mbytes
Step Temp Press TotEng PotEng Enthalpy Volume 
   48499     1810.071   -180.49423   -53675.545    -58273.29   -53722.877    420149.84 
   48671     1794.267   -253.68174     -53750.6   -58308.202   -53817.065    419772.91 
Loop time of 22.4327 on 1 procs for 172 steps with 19652 atoms

Performance: 0.662 ns/day, 36.228 hours/ns, 7.667 timesteps/s
99.9% CPU use with 1 MPI tasks x no OpenMP threads

MPI task timing breakdown:
Section |  min time  |  avg time  |  max time  |%varavg| %total
---------------------------------------------------------------
Pair    | 11.656     | 11.656     | 11.656     |   0.0 | 51.96
Neigh   | 10.301     | 10.301     | 10.301     |   0.0 | 45.92
Comm    | 0.16748    | 0.16748    | 0.16748    |   0.0 |  0.75
Output  | 0.00019884 | 0.00019884 | 0.00019884 |   0.0 |  0.00
Modify  | 0.24439    | 0.24439    | 0.24439    |   0.0 |  1.09
Other   |            | 0.06289    |            |       |  0.28

Nlocal:    19652 ave 19652 max 19652 min
Histogram: 1 0 0 0 0 0 0 0 0 0
Nghost:    16669 ave 16669 max 16669 min
Histogram: 1 0 0 0 0 0 0 0 0 0
Neighs:    1.17728e+06 ave 1.17728e+06 max 1.17728e+06 min
Histogram: 1 0 0 0 0 0 0 0 0 0

Total # of neighbors = 1177275
Ave neighs/atom = 59.9061
Neighbor list builds = 172
Dangerous builds not checked
Setting up Verlet run ...
  Unit style    : metal
  Current step  : 48671
  Time step     : 0.001
Per MPI rank memory allocation (min/avg/max) = 18.21 | 18.21 | 18.21 Mbytes
Step Temp Press TotEng PotEng Enthalpy Volume 
   48671     1794.267   -253.68174     -53750.6   -58308.202   -53817.065    419772.91 
   48691    1794.1531   -412.45039   -53750.183   -58307.496   -53858.244    419765.41 
   49166    1750.9595    643.50272   -53977.648   -58425.245   -53810.166    416992.62 
Loop time of 65.8946 on 1 procs for 495 steps with 19652 atoms

Performance: 0.649 ns/day, 36.978 hours/ns, 7.512 timesteps/s
99.9% CPU use with 1 MPI tasks x no OpenMP threads

MPI task timing breakdown:
Section |  min time  |  avg time  |  max time  |%varavg| %total
---------------------------------------------------------------
Pair    | 34.294     | 34.294     | 34.294     |   0.0 | 52.04
Neigh   | 30.18      | 30.18      | 30.18      |   0.0 | 45.80
Comm    | 0.48749    | 0.48749    | 0.48749    |   0.0 |  0.74
Output  | 0.051425   | 0.051425   | 0.051425   |   0.0 |  0.08
Modify  | 0.69919    | 0.69919    | 0.69919    |   0.0 |  1.06
Other   |            | 0.1819     |            |       |  0.28

Nlocal:    19652 ave 19652 max 19652 min
Histogram: 1 0 0 0 0 0 0 0 0 0
Nghost:    16707 ave 16707 max 16707 min
Histogram: 1 0 0 0 0 0 0 0 0 0
Neighs:    1.1856e+06 ave 1.1856e+06 max 1.1856e+06 min
Histogram: 1 0 0 0 0 0 0 0 0 0

Total # of neighbors = 1185599
Ave neighs/atom = 60.3297
Neighbor list builds = 495
Dangerous builds not checked
Setting up Verlet run ...
  Unit style    : metal
  Current step  : 49166
  Time step     : 0.001
Per MPI rank memory allocation (min/avg/max) = 18.21 | 18.21 | 18.21 Mbytes
Step Temp Press TotEng PotEng Enthalpy Volume 
   49166    1750.9595    643.50272   -53977.648   -58425.245   -53810.166    416992.62 
   49338    1732.0248   -107.98876   -54050.029    -58449.53   -54078.156    417305.46 
Loop time of 22.8041 on 1 procs for 172 steps with 19652 atoms

Performance: 0.652 ns/day, 36.828 hours/ns, 7.542 timesteps/s
99.8% CPU use with 1 MPI tasks x no OpenMP threads

MPI task timing breakdown:
Section |  min time  |  avg time  |  max time  |%varavg| %total
---------------------------------------------------------------
Pair    | 11.959     | 11.959     | 11.959     |   0.0 | 52.44
Neigh   | 10.365     | 10.365     | 10.365     |   0.0 | 45.45
Comm    | 0.16961    | 0.16961    | 0.16961    |   0.0 |  0.74
Output  | 0.00017095 | 0.00017095 | 0.00017095 |   0.0 |  0.00
Modify  | 0.24718    | 0.24718    | 0.24718    |   0.0 |  1.08
Other   |            | 0.06361    |            |       |  0.28

Nlocal:    19652 ave 19652 max 19652 min
Histogram: 1 0 0 0 0 0 0 0 0 0
Nghost:    16697 ave 16697 max 16697 min
Histogram: 1 0 0 0 0 0 0 0 0 0
Neighs:    1.18495e+06 ave 1.18495e+06 max 1.18495e+06 min
Histogram: 1 0 0 0 0 0 0 0 0 0

Total # of neighbors = 1184946
Ave neighs/atom = 60.2965
Neighbor list builds = 172
Dangerous builds not checked
Setting up Verlet run ...
  Unit style    : metal
  Current step  : 49338
  Time step     : 0.001
Per MPI rank memory allocation (min/avg/max) = 18.21 | 18.21 | 18.21 Mbytes
Step Temp Press TotEng PotEng Enthalpy Volume 
   49338    1732.0248   -107.98876   -54050.029    -58449.53   -54078.156    417305.46 
   49358    1740.7605    -409.6579   -54048.491   -58470.181    -54155.19    417301.33 
   49833    1708.2244   -54.439073    -54205.26   -58544.306   -54219.397     416067.4 
Loop time of 67.2019 on 1 procs for 495 steps with 19652 atoms

Performance: 0.636 ns/day, 37.711 hours/ns, 7.366 timesteps/s
99.9% CPU use with 1 MPI tasks x no OpenMP threads

MPI task timing breakdown:
Section |  min time  |  avg time  |  max time  |%varavg| %total
---------------------------------------------------------------
Pair    | 34.999     | 34.999     | 34.999     |   0.0 | 52.08
Neigh   | 30.757     | 30.757     | 30.757     |   0.0 | 45.77
Comm    | 0.49568    | 0.49568    | 0.49568    |   0.0 |  0.74
Output  | 0.063442   | 0.063442   | 0.063442   |   0.0 |  0.09
Modify  | 0.70508    | 0.70508    | 0.70508    |   0.0 |  1.05
Other   |            | 0.182      |            |       |  0.27

Nlocal:    19652 ave 19652 max 19652 min
Histogram: 1 0 0 0 0 0 0 0 0 0
Nghost:    16783 ave 16783 max 16783 min
Histogram: 1 0 0 0 0 0 0 0 0 0
Neighs:    1.18764e+06 ave 1.18764e+06 max 1.18764e+06 min
Histogram: 1 0 0 0 0 0 0 0 0 0

Total # of neighbors = 1187641
Ave neighs/atom = 60.4336
Neighbor list builds = 495
Dangerous builds not checked
Setting up Verlet run ...
  Unit style    : metal
  Current step  : 49833
  Time step     : 0.001
Per MPI rank memory allocation (min/avg/max) = 18.21 | 18.21 | 18.21 Mbytes
Step Temp Press TotEng PotEng Enthalpy Volume 
   49833    1708.2244   -54.439073    -54205.26   -58544.306   -54219.397     416067.4 
   50005    1693.3092   -266.32595   -54275.091   -58576.251   -54344.158    415494.04 
Loop time of 22.2271 on 1 procs for 172 steps with 19652 atoms

Performance: 0.669 ns/day, 35.896 hours/ns, 7.738 timesteps/s
100.0% CPU use with 1 MPI tasks x no OpenMP threads

MPI task timing breakdown:
Section |  min time  |  avg time  |  max time  |%varavg| %total
---------------------------------------------------------------
Pair    | 11.48      | 11.48      | 11.48      |   0.0 | 51.65
Neigh   | 10.277     | 10.277     | 10.277     |   0.0 | 46.24
Comm    | 0.16628    | 0.16628    | 0.16628    |   0.0 |  0.75
Output  | 0.0001781  | 0.0001781  | 0.0001781  |   0.0 |  0.00
Modify  | 0.24141    | 0.24141    | 0.24141    |   0.0 |  1.09
Other   |            | 0.06178    |            |       |  0.28

Nlocal:    19652 ave 19652 max 19652 min
Histogram: 1 0 0 0 0 0 0 0 0 0
Nghost:    16744 ave 16744 max 16744 min
Histogram: 1 0 0 0 0 0 0 0 0 0
Neighs:    1.19006e+06 ave 1.19006e+06 max 1.19006e+06 min
Histogram: 1 0 0 0 0 0 0 0 0 0

Total # of neighbors = 1190055
Ave neighs/atom = 60.5564
Neighbor list builds = 172
Dangerous builds not checked
Setting up Verlet run ...
  Unit style    : metal
  Current step  : 50005
  Time step     : 0.001
Per MPI rank memory allocation (min/avg/max) = 18.21 | 18.21 | 18.21 Mbytes
Step Temp Press TotEng PotEng Enthalpy Volume 
   50005    1693.3092   -266.32595   -54275.091   -58576.251   -54344.158    415494.04 
   50025     1693.082   -115.51399    -54274.55   -58575.133   -54304.506     415489.1 
   50500    1652.3444   -177.29113   -54483.229   -58680.334   -54529.007    413700.38 
Loop time of 66.1368 on 1 procs for 495 steps with 19652 atoms

Performance: 0.647 ns/day, 37.114 hours/ns, 7.484 timesteps/s
100.0% CPU use with 1 MPI tasks x no OpenMP threads

MPI task timing breakdown:
Section |  min time  |  avg time  |  max time  |%varavg| %total
---------------------------------------------------------------
Pair    | 34.286     | 34.286     | 34.286     |   0.0 | 51.84
Neigh   | 30.433     | 30.433     | 30.433     |   0.0 | 46.02
Comm    | 0.48575    | 0.48575    | 0.48575    |   0.0 |  0.73
Output  | 0.066702   | 0.066702   | 0.066702   |   0.0 |  0.10
Modify  | 0.68802    | 0.68802    | 0.68802    |   0.0 |  1.04
Other   |            | 0.1778     |            |       |  0.27

Nlocal:    19652 ave 19652 max 19652 min
Histogram: 1 0 0 0 0 0 0 0 0 0
Nghost:    16736 ave 16736 max 16736 min
Histogram: 1 0 0 0 0 0 0 0 0 0
Neighs:    1.19541e+06 ave 1.19541e+06 max 1.19541e+06 min
Histogram: 1 0 0 0 0 0 0 0 0 0

Total # of neighbors = 1195410
Ave neighs/atom = 60.8289
Neighbor list builds = 495
Dangerous builds not checked
Setting up Verlet run ...
  Unit style    : metal
  Current step  : 50500
  Time step     : 0.001
Per MPI rank memory allocation (min/avg/max) = 18.21 | 18.21 | 18.21 Mbytes
Step Temp Press TotEng PotEng Enthalpy Volume 
   50500    1652.3444   -177.29113   -54483.229   -58680.334   -54529.007    413700.38 
   50672    1641.8455    17.802119   -54553.248   -58723.685   -54548.659    413022.38 
Loop time of 23.3374 on 1 procs for 172 steps with 19652 atoms

Performance: 0.637 ns/day, 37.690 hours/ns, 7.370 timesteps/s
100.0% CPU use with 1 MPI tasks x no OpenMP threads

MPI task timing breakdown:
Section |  min time  |  avg time  |  max time  |%varavg| %total
---------------------------------------------------------------
Pair    | 12.237     | 12.237     | 12.237     |   0.0 | 52.44
Neigh   | 10.614     | 10.614     | 10.614     |   0.0 | 45.48
Comm    | 0.17091    | 0.17091    | 0.17091    |   0.0 |  0.73
Output  | 0.00019813 | 0.00019813 | 0.00019813 |   0.0 |  0.00
Modify  | 0.25071    | 0.25071    | 0.25071    |   0.0 |  1.07
Other   |            | 0.06459    |            |       |  0.28

Nlocal:    19652 ave 19652 max 19652 min
Histogram: 1 0 0 0 0 0 0 0 0 0
Nghost:    16775 ave 16775 max 16775 min
Histogram: 1 0 0 0 0 0 0 0 0 0
Neighs:    1.19731e+06 ave 1.19731e+06 max 1.19731e+06 min
Histogram: 1 0 0 0 0 0 0 0 0 0

Total # of neighbors = 1197307
Ave neighs/atom = 60.9255
Neighbor list builds = 172
Dangerous builds not checked
Setting up Verlet run ...
  Unit style    : metal
  Current step  : 50672
  Time step     : 0.001
Per MPI rank memory allocation (min/avg/max) = 18.21 | 18.21 | 18.21 Mbytes
Step Temp Press TotEng PotEng Enthalpy Volume 
   50672    1641.8455    17.802119   -54553.248   -58723.685   -54548.659    413022.38 
   50692    1644.7325   -152.48949   -54552.729   -58730.499   -54592.038    413020.99 
   51167    1608.3581    546.67321   -54780.972   -58866.349   -54640.923    410454.58 
Loop time of 64.946 on 1 procs for 495 steps with 19652 atoms

Performance: 0.659 ns/day, 36.446 hours/ns, 7.622 timesteps/s
100.0% CPU use with 1 MPI tasks x no OpenMP threads

MPI task timing breakdown:
Section |  min time  |  avg time  |  max time  |%varavg| %total
---------------------------------------------------------------
Pair    | 33.934     | 33.934     | 33.934     |   0.0 | 52.25
Neigh   | 29.619     | 29.619     | 29.619     |   0.0 | 45.60
Comm    | 0.48106    | 0.48106    | 0.48106    |   0.0 |  0.74
Output  | 0.050778   | 0.050778   | 0.050778   |   0.0 |  0.08
Modify  | 0.68343    | 0.68343    | 0.68343    |   0.0 |  1.05
Other   |            | 0.1785     |            |       |  0.27

Nlocal:    19652 ave 19652 max 19652 min
Histogram: 1 0 0 0 0 0 0 0 0 0
Nghost:    16778 ave 16778 max 16778 min
Histogram: 1 0 0 0 0 0 0 0 0 0
Neighs:    1.20513e+06 ave 1.20513e+06 max 1.20513e+06 min
Histogram: 1 0 0 0 0 0 0 0 0 0

Total # of neighbors = 1205131
Ave neighs/atom = 61.3236
Neighbor list builds = 495
Dangerous builds not checked
Setting up Verlet run ...
  Unit style    : metal
  Current step  : 51167
  Time step     : 0.001
Per MPI rank memory allocation (min/avg/max) = 18.21 | 18.21 | 18.21 Mbytes
Step Temp Press TotEng PotEng Enthalpy Volume 
   51167    1608.3581    546.67321   -54780.972   -58866.349   -54640.923    410454.58 
   51339    1598.2705   -373.29157   -54850.146   -58909.898   -54945.804    410569.34 
Loop time of 23.6044 on 1 procs for 172 steps with 19652 atoms

Performance: 0.630 ns/day, 38.121 hours/ns, 7.287 timesteps/s
99.8% CPU use with 1 MPI tasks x no OpenMP threads

MPI task timing breakdown:
Section |  min time  |  avg time  |  max time  |%varavg| %total
---------------------------------------------------------------
Pair    | 12.4       | 12.4       | 12.4       |   0.0 | 52.53
Neigh   | 10.708     | 10.708     | 10.708     |   0.0 | 45.36
Comm    | 0.17479    | 0.17479    | 0.17479    |   0.0 |  0.74
Output  | 0.00020003 | 0.00020003 | 0.00020003 |   0.0 |  0.00
Modify  | 0.2561     | 0.2561     | 0.2561     |   0.0 |  1.08
Other   |            | 0.06554    |            |       |  0.28

Nlocal:    19652 ave 19652 max 19652 min
Histogram: 1 0 0 0 0 0 0 0 0 0
Nghost:    16786 ave 16786 max 16786 min
Histogram: 1 0 0 0 0 0 0 0 0 0
Neighs:    1.20493e+06 ave 1.20493e+06 max 1.20493e+06 min
Histogram: 1 0 0 0 0 0 0 0 0 0

Total # of neighbors = 1204929
Ave neighs/atom = 61.3133
Neighbor list builds = 172
Dangerous builds not checked
Setting up Verlet run ...
  Unit style    : metal
  Current step  : 51339
  Time step     : 0.001
Per MPI rank memory allocation (min/avg/max) = 18.21 | 18.21 | 18.21 Mbytes
Step Temp Press TotEng PotEng Enthalpy Volume 
   51339    1598.2705   -373.29157   -54850.146   -58909.898   -54945.804    410569.34 
   51359     1598.012   -461.04374   -54850.067   -58909.163    -54968.21    410559.78 
   51834    1552.5211    130.33793   -55070.001   -59013.546   -55036.775    408426.27 
Loop time of 67.0442 on 1 procs for 495 steps with 19652 atoms

Performance: 0.638 ns/day, 37.623 hours/ns, 7.383 timesteps/s
100.0% CPU use with 1 MPI tasks x no OpenMP threads

MPI task timing breakdown:
Section |  min time  |  avg time  |  max time  |%varavg| %total
---------------------------------------------------------------
Pair    | 35.053     | 35.053     | 35.053     |   0.0 | 52.28
Neigh   | 30.552     | 30.552     | 30.552     |   0.0 | 45.57
Comm    | 0.49453    | 0.49453    | 0.49453    |   0.0 |  0.74
Output  | 0.065291   | 0.065291   | 0.065291   |   0.0 |  0.10
Modify  | 0.69856    | 0.69856    | 0.69856    |   0.0 |  1.04
Other   |            | 0.1809     |            |       |  0.27

Nlocal:    19652 ave 19652 max 19652 min
Histogram: 1 0 0 0 0 0 0 0 0 0
Nghost:    16917 ave 16917 max 16917 min
Histogram: 1 0 0 0 0 0 0 0 0 0
Neighs:    1.21104e+06 ave 1.21104e+06 max 1.21104e+06 min
Histogram: 1 0 0 0 0 0 0 0 0 0

Total # of neighbors = 1211044
Ave neighs/atom = 61.6245
Neighbor list builds = 495
Dangerous builds not checked
Setting up Verlet run ...
  Unit style    : metal
  Current step  : 51834
  Time step     : 0.001
Per MPI rank memory allocation (min/avg/max) = 18.21 | 18.21 | 18.21 Mbytes
Step Temp Press TotEng PotEng Enthalpy Volume 
   51834    1552.5211    130.33793   -55070.001   -59013.546   -55036.775    408426.27 
   52006    1554.7962   -321.04986   -55127.039   -59076.363   -55208.804    408042.48 
Loop time of 23.3024 on 1 procs for 172 steps with 19652 atoms

Performance: 0.638 ns/day, 37.633 hours/ns, 7.381 timesteps/s
100.0% CPU use with 1 MPI tasks x no OpenMP threads

MPI task timing breakdown:
Section |  min time  |  avg time  |  max time  |%varavg| %total
---------------------------------------------------------------
Pair    | 12.247     | 12.247     | 12.247     |   0.0 | 52.56
Neigh   | 10.564     | 10.564     | 10.564     |   0.0 | 45.33
Comm    | 0.17417    | 0.17417    | 0.17417    |   0.0 |  0.75
Output  | 0.00019288 | 0.00019288 | 0.00019288 |   0.0 |  0.00
Modify  | 0.25176    | 0.25176    | 0.25176    |   0.0 |  1.08
Other   |            | 0.06526    |            |       |  0.28

Nlocal:    19652 ave 19652 max 19652 min
Histogram: 1 0 0 0 0 0 0 0 0 0
Nghost:    16894 ave 16894 max 16894 min
Histogram: 1 0 0 0 0 0 0 0 0 0
Neighs:    1.2127e+06 ave 1.2127e+06 max 1.2127e+06 min
Histogram: 1 0 0 0 0 0 0 0 0 0

Total # of neighbors = 1212704
Ave neighs/atom = 61.7089
Neighbor list builds = 172
Dangerous builds not checked
Setting up Verlet run ...
  Unit style    : metal
  Current step  : 52006
  Time step     : 0.001
Per MPI rank memory allocation (min/avg/max) = 18.21 | 18.21 | 18.21 Mbytes
Step Temp Press TotEng PotEng Enthalpy Volume 
   52006    1554.7962   -321.04986   -55127.039   -59076.363   -55208.804    408042.48 
   52026    1551.7065   -394.43566   -55127.454    -59068.93   -55227.907    408034.58 
   52501    1503.7711    314.37063   -55321.242   -59140.957   -55241.506    406372.79 
Loop time of 67.5543 on 1 procs for 495 steps with 19652 atoms

Performance: 0.633 ns/day, 37.909 hours/ns, 7.327 timesteps/s
100.0% CPU use with 1 MPI tasks x no OpenMP threads

MPI task timing breakdown:
Section |  min time  |  avg time  |  max time  |%varavg| %total
---------------------------------------------------------------
Pair    | 35.652     | 35.652     | 35.652     |   0.0 | 52.78
Neigh   | 30.462     | 30.462     | 30.462     |   0.0 | 45.09
Comm    | 0.49217    | 0.49217    | 0.49217    |   0.0 |  0.73
Output  | 0.066303   | 0.066303   | 0.066303   |   0.0 |  0.10
Modify  | 0.70119    | 0.70119    | 0.70119    |   0.0 |  1.04
Other   |            | 0.1812     |            |       |  0.27

Nlocal:    19652 ave 19652 max 19652 min
Histogram: 1 0 0 0 0 0 0 0 0 0
Nghost:    16950 ave 16950 max 16950 min
Histogram: 1 0 0 0 0 0 0 0 0 0
Neighs:    1.21685e+06 ave 1.21685e+06 max 1.21685e+06 min
Histogram: 1 0 0 0 0 0 0 0 0 0

Total # of neighbors = 1216846
Ave neighs/atom = 61.9197
Neighbor list builds = 495
Dangerous builds not checked
Setting up Verlet run ...
  Unit style    : metal
  Current step  : 52501
  Time step     : 0.001
Per MPI rank memory allocation (min/avg/max) = 18.21 | 18.21 | 18.21 Mbytes
Step Temp Press TotEng PotEng Enthalpy Volume 
   52501    1503.7711    314.37063   -55321.242   -59140.957   -55241.506    406372.79 
   52673    1499.7962   -802.92747   -55382.478   -59192.097   -55586.171    406451.95 
Loop time of 23.2644 on 1 procs for 172 steps with 19652 atoms

Performance: 0.639 ns/day, 37.572 hours/ns, 7.393 timesteps/s
100.0% CPU use with 1 MPI tasks x no OpenMP threads

MPI task timing breakdown:
Section |  min time  |  avg time  |  max time  |%varavg| %total
---------------------------------------------------------------
Pair    | 12.245     | 12.245     | 12.245     |   0.0 | 52.64
Neigh   | 10.535     | 10.535     | 10.535     |   0.0 | 45.28
Comm    | 0.17108    | 0.17108    | 0.17108    |   0.0 |  0.74
Output  | 0.00016999 | 0.00016999 | 0.00016999 |   0.0 |  0.00
Modify  | 0.24816    | 0.24816    | 0.24816    |   0.0 |  1.07
Other   |            | 0.06431    |            |       |  0.28

Nlocal:    19652 ave 19652 max 19652 min
Histogram: 1 0 0 0 0 0 0 0 0 0
Nghost:    16900 ave 16900 max 16900 min
Histogram: 1 0 0 0 0 0 0 0 0 0
Neighs:    1.21789e+06 ave 1.21789e+06 max 1.21789e+06 min
Histogram: 1 0 0 0 0 0 0 0 0 0

Total # of neighbors = 1217888
Ave neighs/atom = 61.9727
Neighbor list builds = 172
Dangerous builds not checked
Setting up Verlet run ...
  Unit style    : metal
  Current step  : 52673
  Time step     : 0.001
Per MPI rank memory allocation (min/avg/max) = 18.21 | 18.21 | 18.21 Mbytes
Step Temp Press TotEng PotEng Enthalpy Volume 
   52673    1499.7962   -802.92747   -55382.478   -59192.097   -55586.171    406451.95 
   52693    1499.1478    -703.1299   -55382.656   -59190.628   -55561.023    406431.59 
   53168    1470.7988   -345.71179   -55612.913   -59348.876    -55700.06    403876.47 
Loop time of 67.2413 on 1 procs for 495 steps with 19652 atoms

Performance: 0.636 ns/day, 37.734 hours/ns, 7.362 timesteps/s
99.9% CPU use with 1 MPI tasks x no OpenMP threads

MPI task timing breakdown:
Section |  min time  |  avg time  |  max time  |%varavg| %total
---------------------------------------------------------------
Pair    | 35.25      | 35.25      | 35.25      |   0.0 | 52.42
Neigh   | 30.546     | 30.546     | 30.546     |   0.0 | 45.43
Comm    | 0.49382    | 0.49382    | 0.49382    |   0.0 |  0.73
Output  | 0.057364   | 0.057364   | 0.057364   |   0.0 |  0.09
Modify  | 0.71084    | 0.71084    | 0.71084    |   0.0 |  1.06
Other   |            | 0.1837     |            |       |  0.27

Nlocal:    19652 ave 19652 max 19652 min
Histogram: 1 0 0 0 0 0 0 0 0 0
Nghost:    16837 ave 16837 max 16837 min
Histogram: 1 0 0 0 0 0 0 0 0 0
Neighs:    1.22474e+06 ave 1.22474e+06 max 1.22474e+06 min
Histogram: 1 0 0 0 0 0 0 0 0 0

Total # of neighbors = 1224741
Ave neighs/atom = 62.3214
Neighbor list builds = 495
Dangerous builds not checked
Setting up Verlet run ...
  Unit style    : metal
  Current step  : 53168
  Time step     : 0.001
Per MPI rank memory allocation (min/avg/max) = 18.21 | 18.21 | 18.21 Mbytes
Step Temp Press TotEng PotEng Enthalpy Volume 
   53168    1470.7988   -345.71179   -55612.913   -59348.876    -55700.06    403876.47 
   53340    1445.4542    62.703726   -55676.772   -59348.358   -55660.975     403654.9 
Loop time of 23.5893 on 1 procs for 172 steps with 19652 atoms

Performance: 0.630 ns/day, 38.096 hours/ns, 7.291 timesteps/s
100.0% CPU use with 1 MPI tasks x no OpenMP threads

MPI task timing breakdown:
Section |  min time  |  avg time  |  max time  |%varavg| %total
---------------------------------------------------------------
Pair    | 12.501     | 12.501     | 12.501     |   0.0 | 53.00
Neigh   | 10.594     | 10.594     | 10.594     |   0.0 | 44.91
Comm    | 0.17304    | 0.17304    | 0.17304    |   0.0 |  0.73
Output  | 0.00020504 | 0.00020504 | 0.00020504 |   0.0 |  0.00
Modify  | 0.25514    | 0.25514    | 0.25514    |   0.0 |  1.08
Other   |            | 0.06556    |            |       |  0.28

Nlocal:    19652 ave 19652 max 19652 min
Histogram: 1 0 0 0 0 0 0 0 0 0
Nghost:    16927 ave 16927 max 16927 min
Histogram: 1 0 0 0 0 0 0 0 0 0
Neighs:    1.2256e+06 ave 1.2256e+06 max 1.2256e+06 min
Histogram: 1 0 0 0 0 0 0 0 0 0

Total # of neighbors = 1225602
Ave neighs/atom = 62.3653
Neighbor list builds = 172
Dangerous builds not checked
Setting up Verlet run ...
  Unit style    : metal
  Current step  : 53340
  Time step     : 0.001
Per MPI rank memory allocation (min/avg/max) = 18.21 | 18.21 | 18.21 Mbytes
Step Temp Press TotEng PotEng Enthalpy Volume 
   53340    1445.4542    62.703726   -55676.772   -59348.358   -55660.975     403654.9 
   53360    1448.5844   -46.724973    -55676.45   -59355.986   -55688.222    403656.18 
   53835    1417.1014   -75.701207   -55885.553   -59485.119   -55904.529    401623.62 
Loop time of 68.11 on 1 procs for 495 steps with 19652 atoms

Performance: 0.628 ns/day, 38.221 hours/ns, 7.268 timesteps/s
99.9% CPU use with 1 MPI tasks x no OpenMP threads

MPI task timing breakdown:
Section |  min time  |  avg time  |  max time  |%varavg| %total
---------------------------------------------------------------
Pair    | 35.78      | 35.78      | 35.78      |   0.0 | 52.53
Neigh   | 30.861     | 30.861     | 30.861     |   0.0 | 45.31
Comm    | 0.50188    | 0.50188    | 0.50188    |   0.0 |  0.74
Output  | 0.064906   | 0.064906   | 0.064906   |   0.0 |  0.10
Modify  | 0.71619    | 0.71619    | 0.71619    |   0.0 |  1.05
Other   |            | 0.1858     |            |       |  0.27

Nlocal:    19652 ave 19652 max 19652 min
Histogram: 1 0 0 0 0 0 0 0 0 0
Nghost:    16996 ave 16996 max 16996 min
Histogram: 1 0 0 0 0 0 0 0 0 0
Neighs:    1.23226e+06 ave 1.23226e+06 max 1.23226e+06 min
Histogram: 1 0 0 0 0 0 0 0 0 0

Total # of neighbors = 1232264
Ave neighs/atom = 62.7043
Neighbor list builds = 495
Dangerous builds not checked
Setting up Verlet run ...
  Unit style    : metal
  Current step  : 53835
  Time step     : 0.001
Per MPI rank memory allocation (min/avg/max) = 18.21 | 18.21 | 18.21 Mbytes
Step Temp Press TotEng PotEng Enthalpy Volume 
   53835    1417.1014   -75.701207   -55885.553   -59485.119   -55904.529    401623.62 
   54007    1404.1675   -532.79829   -55949.904   -59516.617    -56083.49       401708 
Loop time of 22.9919 on 1 procs for 172 steps with 19652 atoms

Performance: 0.646 ns/day, 37.132 hours/ns, 7.481 timesteps/s
100.0% CPU use with 1 MPI tasks x no OpenMP threads

MPI task timing breakdown:
Section |  min time  |  avg time  |  max time  |%varavg| %total
---------------------------------------------------------------
Pair    | 12.081     | 12.081     | 12.081     |   0.0 | 52.54
Neigh   | 10.431     | 10.431     | 10.431     |   0.0 | 45.37
Comm    | 0.17026    | 0.17026    | 0.17026    |   0.0 |  0.74
Output  | 0.00020599 | 0.00020599 | 0.00020599 |   0.0 |  0.00
Modify  | 0.24572    | 0.24572    | 0.24572    |   0.0 |  1.07
Other   |            | 0.06374    |            |       |  0.28

Nlocal:    19652 ave 19652 max 19652 min
Histogram: 1 0 0 0 0 0 0 0 0 0
Nghost:    16944 ave 16944 max 16944 min
Histogram: 1 0 0 0 0 0 0 0 0 0
Neighs:    1.23205e+06 ave 1.23205e+06 max 1.23205e+06 min
Histogram: 1 0 0 0 0 0 0 0 0 0

Total # of neighbors = 1232049
Ave neighs/atom = 62.6933
Neighbor list builds = 172
Dangerous builds not checked
Setting up Verlet run ...
  Unit style    : metal
  Current step  : 54007
  Time step     : 0.001
Per MPI rank memory allocation (min/avg/max) = 18.21 | 18.21 | 18.21 Mbytes
Step Temp Press TotEng PotEng Enthalpy Volume 
   54007    1404.1675   -532.79829   -55949.904   -59516.617    -56083.49       401708 
   54027     1394.651   -129.95676   -55949.854   -59492.395   -55982.437    401699.55 
   54502    1365.6054    412.31629   -56169.295   -59638.057    -56066.58     399131.5 
Loop time of 68.6446 on 1 procs for 495 steps with 19652 atoms

Performance: 0.623 ns/day, 38.521 hours/ns, 7.211 timesteps/s
99.9% CPU use with 1 MPI tasks x no OpenMP threads

MPI task timing breakdown:
Section |  min time  |  avg time  |  max time  |%varavg| %total
---------------------------------------------------------------
Pair    | 36.176     | 36.176     | 36.176     |   0.0 | 52.70
Neigh   | 30.978     | 30.978     | 30.978     |   0.0 | 45.13
Comm    | 0.50001    | 0.50001    | 0.50001    |   0.0 |  0.73
Output  | 0.091561   | 0.091561   | 0.091561   |   0.0 |  0.13
Modify  | 0.71356    | 0.71356    | 0.71356    |   0.0 |  1.04
Other   |            | 0.1852     |            |       |  0.27

Nlocal:    19652 ave 19652 max 19652 min
Histogram: 1 0 0 0 0 0 0 0 0 0
Nghost:    16971 ave 16971 max 16971 min
Histogram: 1 0 0 0 0 0 0 0 0 0
Neighs:    1.2403e+06 ave 1.2403e+06 max 1.2403e+06 min
Histogram: 1 0 0 0 0 0 0 0 0 0

Total # of neighbors = 1240297
Ave neighs/atom = 63.113
Neighbor list builds = 495
Dangerous builds not checked
Setting up Verlet run ...
  Unit style    : metal
  Current step  : 54502
  Time step     : 0.001
Per MPI rank memory allocation (min/avg/max) = 18.21 | 18.21 | 18.21 Mbytes
Step Temp Press TotEng PotEng Enthalpy Volume 
   54502    1365.6054    412.31629   -56169.295   -59638.057    -56066.58     399131.5 
   54674     1342.316     37.03715   -56231.337   -59640.942   -56222.103    399426.83 
Loop time of 23.5588 on 1 procs for 172 steps with 19652 atoms

Performance: 0.631 ns/day, 38.047 hours/ns, 7.301 timesteps/s
100.0% CPU use with 1 MPI tasks x no OpenMP threads

MPI task timing breakdown:
Section |  min time  |  avg time  |  max time  |%varavg| %total
---------------------------------------------------------------
Pair    | 12.54      | 12.54      | 12.54      |   0.0 | 53.23
Neigh   | 10.528     | 10.528     | 10.528     |   0.0 | 44.69
Comm    | 0.17308    | 0.17308    | 0.17308    |   0.0 |  0.73
Output  | 0.00018501 | 0.00018501 | 0.00018501 |   0.0 |  0.00
Modify  | 0.25271    | 0.25271    | 0.25271    |   0.0 |  1.07
Other   |            | 0.06498    |            |       |  0.28

Nlocal:    19652 ave 19652 max 19652 min
Histogram: 1 0 0 0 0 0 0 0 0 0
Nghost:    16995 ave 16995 max 16995 min
Histogram: 1 0 0 0 0 0 0 0 0 0
Neighs:    1.23904e+06 ave 1.23904e+06 max 1.23904e+06 min
Histogram: 1 0 0 0 0 0 0 0 0 0

Total # of neighbors = 1239037
Ave neighs/atom = 63.0489
Neighbor list builds = 172
Dangerous builds not checked
Setting up Verlet run ...
  Unit style    : metal
  Current step  : 54674
  Time step     : 0.001
Per MPI rank memory allocation (min/avg/max) = 18.21 | 18.21 | 18.21 Mbytes
Step Temp Press TotEng PotEng Enthalpy Volume 
   54674     1342.316     37.03715   -56231.337   -59640.942   -56222.103    399426.83 
   54694    1343.3288   -215.10631   -56230.356   -59642.533   -56283.982    399427.85 
   55169    1314.4269   -429.27932   -56463.982   -59802.747   -56570.425    397271.72 
Loop time of 67.7495 on 1 procs for 495 steps with 19652 atoms

Performance: 0.631 ns/day, 38.019 hours/ns, 7.306 timesteps/s
100.0% CPU use with 1 MPI tasks x no OpenMP threads

MPI task timing breakdown:
Section |  min time  |  avg time  |  max time  |%varavg| %total
---------------------------------------------------------------
Pair    | 35.772     | 35.772     | 35.772     |   0.0 | 52.80
Neigh   | 30.5       | 30.5       | 30.5       |   0.0 | 45.02
Comm    | 0.49891    | 0.49891    | 0.49891    |   0.0 |  0.74
Output  | 0.070203   | 0.070203   | 0.070203   |   0.0 |  0.10
Modify  | 0.72292    | 0.72292    | 0.72292    |   0.0 |  1.07
Other   |            | 0.1857     |            |       |  0.27

Nlocal:    19652 ave 19652 max 19652 min
Histogram: 1 0 0 0 0 0 0 0 0 0
Nghost:    17044 ave 17044 max 17044 min
Histogram: 1 0 0 0 0 0 0 0 0 0
Neighs:    1.24641e+06 ave 1.24641e+06 max 1.24641e+06 min
Histogram: 1 0 0 0 0 0 0 0 0 0

Total # of neighbors = 1246408
Ave neighs/atom = 63.424
Neighbor list builds = 495
Dangerous builds not checked
Setting up Verlet run ...
  Unit style    : metal
  Current step  : 55169
  Time step     : 0.001
Per MPI rank memory allocation (min/avg/max) = 18.21 | 18.21 | 18.21 Mbytes
Step Temp Press TotEng PotEng Enthalpy Volume 
   55169    1314.4269   -429.27932   -56463.982   -59802.747   -56570.425    397271.72 
   55341    1307.6518    191.85245   -56530.064   -59851.618   -56482.618    396225.32 
Loop time of 22.8572 on 1 procs for 172 steps with 19652 atoms

Performance: 0.650 ns/day, 36.914 hours/ns, 7.525 timesteps/s
100.0% CPU use with 1 MPI tasks x no OpenMP threads

MPI task timing breakdown:
Section |  min time  |  avg time  |  max time  |%varavg| %total
---------------------------------------------------------------
[...]
Modify  | 0.72678    | 0.72678    | 0.72678    |   0.0 |  0.98
Other   |            | 0.1898     |            |       |  0.25

Nlocal:    19652 ave 19652 max 19652 min
Histogram: 1 0 0 0 0 0 0 0 0 0
Nghost:    17961 ave 17961 max 17961 min
Histogram: 1 0 0 0 0 0 0 0 0 0
Neighs:    1.42684e+06 ave 1.42684e+06 max 1.42684e+06 min
Histogram: 1 0 0 0 0 0 0 0 0 0

Total # of neighbors = 1426840
Ave neighs/atom = 72.6053
Neighbor list builds = 495
Dangerous builds not checked
Setting up Verlet run ...
  Unit style    : metal
  Current step  : 67175
  Time step     : 0.001
Per MPI rank memory allocation (min/avg/max) = 18.21 | 18.21 | 18.21 Mbytes
Step Temp Press TotEng PotEng Enthalpy Volume 
   67175    430.35675    472.85545   -62197.112   -63290.257    -62094.35    348187.33 
   67347    421.89465   -152.41899   -62264.031   -63335.681   -62297.122    347842.63 
Loop time of 25.8806 on 1 procs for 172 steps with 19652 atoms

Performance: 0.574 ns/day, 41.797 hours/ns, 6.646 timesteps/s
100.0% CPU use with 1 MPI tasks x no OpenMP threads

MPI task timing breakdown:
Section |  min time  |  avg time  |  max time  |%varavg| %total
---------------------------------------------------------------
Pair    | 13.855     | 13.855     | 13.855     |   0.0 | 53.53
Neigh   | 11.531     | 11.531     | 11.531     |   0.0 | 44.55
Comm    | 0.17532    | 0.17532    | 0.17532    |   0.0 |  0.68
Output  | 0.00029802 | 0.00029802 | 0.00029802 |   0.0 |  0.00
Modify  | 0.25255    | 0.25255    | 0.25255    |   0.0 |  0.98
Other   |            | 0.06636    |            |       |  0.26

Nlocal:    19652 ave 19652 max 19652 min
Histogram: 1 0 0 0 0 0 0 0 0 0
Nghost:    17989 ave 17989 max 17989 min
Histogram: 1 0 0 0 0 0 0 0 0 0
Neighs:    1.42872e+06 ave 1.42872e+06 max 1.42872e+06 min
Histogram: 1 0 0 0 0 0 0 0 0 0

Total # of neighbors = 1428716
Ave neighs/atom = 72.7008
Neighbor list builds = 172
Dangerous builds not checked
Setting up Verlet run ...
  Unit style    : metal
  Current step  : 67347
  Time step     : 0.001
Per MPI rank memory allocation (min/avg/max) = 18.21 | 18.21 | 18.21 Mbytes
Step Temp Press TotEng PotEng Enthalpy Volume 
   67347    421.89465   -152.41899   -62264.031   -63335.681   -62297.122    347842.63 
   67367    421.02398   -164.18959    -62266.53   -63335.969   -62302.175    347829.79 
   67842    377.26174    227.50687   -62527.536   -63485.815   -62478.447    345701.11 
Loop time of 74.9902 on 1 procs for 495 steps with 19652 atoms

Performance: 0.570 ns/day, 42.082 hours/ns, 6.601 timesteps/s
99.9% CPU use with 1 MPI tasks x no OpenMP threads

MPI task timing breakdown:
Section |  min time  |  avg time  |  max time  |%varavg| %total
---------------------------------------------------------------
Pair    | 39.931     | 39.931     | 39.931     |   0.0 | 53.25
Neigh   | 33.575     | 33.575     | 33.575     |   0.0 | 44.77
Comm    | 0.50538    | 0.50538    | 0.50538    |   0.0 |  0.67
Output  | 0.057476   | 0.057476   | 0.057476   |   0.0 |  0.08
Modify  | 0.73072    | 0.73072    | 0.73072    |   0.0 |  0.97
Other   |            | 0.1904     |            |       |  0.25

Nlocal:    19652 ave 19652 max 19652 min
Histogram: 1 0 0 0 0 0 0 0 0 0
Nghost:    17970 ave 17970 max 17970 min
Histogram: 1 0 0 0 0 0 0 0 0 0
Neighs:    1.43656e+06 ave 1.43656e+06 max 1.43656e+06 min
Histogram: 1 0 0 0 0 0 0 0 0 0

Total # of neighbors = 1436564
Ave neighs/atom = 73.1001
Neighbor list builds = 495
Dangerous builds not checked
Setting up Verlet run ...
  Unit style    : metal
  Current step  : 67842
  Time step     : 0.001
Per MPI rank memory allocation (min/avg/max) = 18.21 | 18.21 | 18.21 Mbytes
Step Temp Press TotEng PotEng Enthalpy Volume 
   67842    377.26174    227.50687   -62527.536   -63485.815   -62478.447    345701.11 
   68014     370.1243    150.31733   -62593.372   -63533.522   -62560.983    345227.88 
Loop time of 25.8898 on 1 procs for 172 steps with 19652 atoms

Performance: 0.574 ns/day, 41.812 hours/ns, 6.644 timesteps/s
99.9% CPU use with 1 MPI tasks x no OpenMP threads

MPI task timing breakdown:
Section |  min time  |  avg time  |  max time  |%varavg| %total
---------------------------------------------------------------
Pair    | 13.836     | 13.836     | 13.836     |   0.0 | 53.44
Neigh   | 11.551     | 11.551     | 11.551     |   0.0 | 44.61
Comm    | 0.1775     | 0.1775     | 0.1775     |   0.0 |  0.69
Output  | 0.00018883 | 0.00018883 | 0.00018883 |   0.0 |  0.00
Modify  | 0.2589     | 0.2589     | 0.2589     |   0.0 |  1.00
Other   |            | 0.06652    |            |       |  0.26

Nlocal:    19652 ave 19652 max 19652 min
Histogram: 1 0 0 0 0 0 0 0 0 0
Nghost:    17993 ave 17993 max 17993 min
Histogram: 1 0 0 0 0 0 0 0 0 0
Neighs:    1.43896e+06 ave 1.43896e+06 max 1.43896e+06 min
Histogram: 1 0 0 0 0 0 0 0 0 0

Total # of neighbors = 1438964
Ave neighs/atom = 73.2223
Neighbor list builds = 172
Dangerous builds not checked
Setting up Verlet run ...
  Unit style    : metal
  Current step  : 68014
  Time step     : 0.001
Per MPI rank memory allocation (min/avg/max) = 18.21 | 18.21 | 18.21 Mbytes
Step Temp Press TotEng PotEng Enthalpy Volume 
   68014     370.1243    150.31733   -62593.372   -63533.522   -62560.983    345227.88 
   68034    370.46592    55.448858   -62595.647   -63536.664   -62583.699    345237.52 
   68509    330.53624    228.05146   -62846.743   -63686.335   -62797.886    343248.13 
Loop time of 75.3151 on 1 procs for 495 steps with 19652 atoms

Performance: 0.568 ns/day, 42.264 hours/ns, 6.572 timesteps/s
98.9% CPU use with 1 MPI tasks x no OpenMP threads

MPI task timing breakdown:
Section |  min time  |  avg time  |  max time  |%varavg| %total
---------------------------------------------------------------
Pair    | 40.085     | 40.085     | 40.085     |   0.0 | 53.22
Neigh   | 33.724     | 33.724     | 33.724     |   0.0 | 44.78
Comm    | 0.50527    | 0.50527    | 0.50527    |   0.0 |  0.67
Output  | 0.066568   | 0.066568   | 0.066568   |   0.0 |  0.09
Modify  | 0.74359    | 0.74359    | 0.74359    |   0.0 |  0.99
Other   |            | 0.1911     |            |       |  0.25

Nlocal:    19652 ave 19652 max 19652 min
Histogram: 1 0 0 0 0 0 0 0 0 0
Nghost:    18031 ave 18031 max 18031 min
Histogram: 1 0 0 0 0 0 0 0 0 0
Neighs:    1.44616e+06 ave 1.44616e+06 max 1.44616e+06 min
Histogram: 1 0 0 0 0 0 0 0 0 0

Total # of neighbors = 1446162
Ave neighs/atom = 73.5885
Neighbor list builds = 495
Dangerous builds not checked
Setting up Verlet run ...
  Unit style    : metal
  Current step  : 68509
  Time step     : 0.001
Per MPI rank memory allocation (min/avg/max) = 18.21 | 18.21 | 18.21 Mbytes
Step Temp Press TotEng PotEng Enthalpy Volume 
   68509    330.53624    228.05146   -62846.743   -63686.335   -62797.886    343248.13 
   68681    319.17706    106.45074   -62910.046   -63720.785   -62887.262     342916.8 
Loop time of 25.3514 on 1 procs for 172 steps with 19652 atoms

Performance: 0.586 ns/day, 40.942 hours/ns, 6.785 timesteps/s
99.6% CPU use with 1 MPI tasks x no OpenMP threads

MPI task timing breakdown:
Section |  min time  |  avg time  |  max time  |%varavg| %total
---------------------------------------------------------------
Pair    | 13.537     | 13.537     | 13.537     |   0.0 | 53.40
Neigh   | 11.331     | 11.331     | 11.331     |   0.0 | 44.70
Comm    | 0.17304    | 0.17304    | 0.17304    |   0.0 |  0.68
Output  | 0.00018191 | 0.00018191 | 0.00018191 |   0.0 |  0.00
Modify  | 0.24591    | 0.24591    | 0.24591    |   0.0 |  0.97
Other   |            | 0.06371    |            |       |  0.25

Nlocal:    19652 ave 19652 max 19652 min
Histogram: 1 0 0 0 0 0 0 0 0 0
Nghost:    18057 ave 18057 max 18057 min
Histogram: 1 0 0 0 0 0 0 0 0 0
Neighs:    1.44788e+06 ave 1.44788e+06 max 1.44788e+06 min
Histogram: 1 0 0 0 0 0 0 0 0 0

Total # of neighbors = 1447882
Ave neighs/atom = 73.6761
Neighbor list builds = 172
Dangerous builds not checked
Setting up Verlet run ...
  Unit style    : metal
  Current step  : 68681
  Time step     : 0.001
Per MPI rank memory allocation (min/avg/max) = 18.21 | 18.21 | 18.21 Mbytes
Step Temp Press TotEng PotEng Enthalpy Volume 
   68681    319.17706    106.45074   -62910.046   -63720.785   -62887.262     342916.8 
   68701     322.2959   -187.78621   -62912.385   -63731.046   -62952.577    342916.52 
   69176    280.95538     131.1415   -63151.936   -63865.588   -63124.011    341168.57 
Loop time of 73.4691 on 1 procs for 495 steps with 19652 atoms

Performance: 0.582 ns/day, 41.228 hours/ns, 6.738 timesteps/s
99.4% CPU use with 1 MPI tasks x no OpenMP threads

MPI task timing breakdown:
Section |  min time  |  avg time  |  max time  |%varavg| %total
---------------------------------------------------------------
Pair    | 39.273     | 39.273     | 39.273     |   0.0 | 53.46
Neigh   | 32.722     | 32.722     | 32.722     |   0.0 | 44.54
Comm    | 0.49652    | 0.49652    | 0.49652    |   0.0 |  0.68
Output  | 0.077861   | 0.077861   | 0.077861   |   0.0 |  0.11
Modify  | 0.71192    | 0.71192    | 0.71192    |   0.0 |  0.97
Other   |            | 0.1871     |            |       |  0.25

Nlocal:    19652 ave 19652 max 19652 min
Histogram: 1 0 0 0 0 0 0 0 0 0
Nghost:    18044 ave 18044 max 18044 min
Histogram: 1 0 0 0 0 0 0 0 0 0
Neighs:    1.45462e+06 ave 1.45462e+06 max 1.45462e+06 min
Histogram: 1 0 0 0 0 0 0 0 0 0

Total # of neighbors = 1454621
Ave neighs/atom = 74.019
Neighbor list builds = 495
Dangerous builds not checked
Setting up Verlet run ...
  Unit style    : metal
  Current step  : 69176
  Time step     : 0.001
Per MPI rank memory allocation (min/avg/max) = 18.21 | 18.21 | 18.21 Mbytes
Step Temp Press TotEng PotEng Enthalpy Volume 
   69176    280.95538     131.1415   -63151.936   -63865.588   -63124.011    341168.57 
   69348    271.43843    1.8439576    -63214.94   -63904.418   -63214.548    340764.18 
Loop time of 24.9617 on 1 procs for 172 steps with 19652 atoms

Performance: 0.595 ns/day, 40.313 hours/ns, 6.891 timesteps/s
99.9% CPU use with 1 MPI tasks x no OpenMP threads

MPI task timing breakdown:
Section |  min time  |  avg time  |  max time  |%varavg| %total
---------------------------------------------------------------
Pair    | 13.326     | 13.326     | 13.326     |   0.0 | 53.38
Neigh   | 11.16      | 11.16      | 11.16      |   0.0 | 44.71
Comm    | 0.16946    | 0.16946    | 0.16946    |   0.0 |  0.68
Output  | 0.00020885 | 0.00020885 | 0.00020885 |   0.0 |  0.00
Modify  | 0.24292    | 0.24292    | 0.24292    |   0.0 |  0.97
Other   |            | 0.06327    |            |       |  0.25

Nlocal:    19652 ave 19652 max 19652 min
Histogram: 1 0 0 0 0 0 0 0 0 0
Nghost:    18103 ave 18103 max 18103 min
Histogram: 1 0 0 0 0 0 0 0 0 0
Neighs:    1.4565e+06 ave 1.4565e+06 max 1.4565e+06 min
Histogram: 1 0 0 0 0 0 0 0 0 0

Total # of neighbors = 1456497
Ave neighs/atom = 74.1144
Neighbor list builds = 172
Dangerous builds not checked
Setting up Verlet run ...
  Unit style    : metal
  Current step  : 69348
  Time step     : 0.001
Per MPI rank memory allocation (min/avg/max) = 18.21 | 18.21 | 18.21 Mbytes
Step Temp Press TotEng PotEng Enthalpy Volume 
   69348    271.43843    1.8439576    -63214.94   -63904.418   -63214.548    340764.18 
   69368    272.02849    -79.74944   -63217.423     -63908.4   -63234.385    340761.21 
   69843    231.40043   -45.827096   -63447.883   -64035.661   -63457.586    339245.88 
Loop time of 69.8788 on 1 procs for 495 steps with 19652 atoms

Performance: 0.612 ns/day, 39.214 hours/ns, 7.084 timesteps/s
100.0% CPU use with 1 MPI tasks x no OpenMP threads

MPI task timing breakdown:
Section |  min time  |  avg time  |  max time  |%varavg| %total
---------------------------------------------------------------
Pair    | 37.244     | 37.244     | 37.244     |   0.0 | 53.30
Neigh   | 31.266     | 31.266     | 31.266     |   0.0 | 44.74
Comm    | 0.47268    | 0.47268    | 0.47268    |   0.0 |  0.68
Output  | 0.054904   | 0.054904   | 0.054904   |   0.0 |  0.08
Modify  | 0.66539    | 0.66539    | 0.66539    |   0.0 |  0.95
Other   |            | 0.1765     |            |       |  0.25

Nlocal:    19652 ave 19652 max 19652 min
Histogram: 1 0 0 0 0 0 0 0 0 0
Nghost:    18169 ave 18169 max 18169 min
Histogram: 1 0 0 0 0 0 0 0 0 0
Neighs:    1.4628e+06 ave 1.4628e+06 max 1.4628e+06 min
Histogram: 1 0 0 0 0 0 0 0 0 0

Total # of neighbors = 1462795
Ave neighs/atom = 74.4349
Neighbor list builds = 495
Dangerous builds not checked
Setting up Verlet run ...
  Unit style    : metal
  Current step  : 69843
  Time step     : 0.001
Per MPI rank memory allocation (min/avg/max) = 18.21 | 18.21 | 18.21 Mbytes
Step Temp Press TotEng PotEng Enthalpy Volume 
   69843    231.40043   -45.827096   -63447.883   -64035.661   -63457.586    339245.88 
   70015    221.55648   -168.36349   -63506.884   -64069.657   -63542.497    338906.86 
Loop time of 24.8516 on 1 procs for 172 steps with 19652 atoms

Performance: 0.598 ns/day, 40.135 hours/ns, 6.921 timesteps/s
100.0% CPU use with 1 MPI tasks x no OpenMP threads

MPI task timing breakdown:
Section |  min time  |  avg time  |  max time  |%varavg| %total
---------------------------------------------------------------
Pair    | 13.365     | 13.365     | 13.365     |   0.0 | 53.78
Neigh   | 11.014     | 11.014     | 11.014     |   0.0 | 44.32
Comm    | 0.16818    | 0.16818    | 0.16818    |   0.0 |  0.68
Output  | 0.00017595 | 0.00017595 | 0.00017595 |   0.0 |  0.00
Modify  | 0.24144    | 0.24144    | 0.24144    |   0.0 |  0.97
Other   |            | 0.06289    |            |       |  0.25

Nlocal:    19652 ave 19652 max 19652 min
Histogram: 1 0 0 0 0 0 0 0 0 0
Nghost:    18110 ave 18110 max 18110 min
Histogram: 1 0 0 0 0 0 0 0 0 0
Neighs:    1.46396e+06 ave 1.46396e+06 max 1.46396e+06 min
Histogram: 1 0 0 0 0 0 0 0 0 0

Total # of neighbors = 1463960
Ave neighs/atom = 74.4942
Neighbor list builds = 172
Dangerous builds not checked
Setting up Verlet run ...
  Unit style    : metal
  Current step  : 70015
  Time step     : 0.001
Per MPI rank memory allocation (min/avg/max) = 18.21 | 18.21 | 18.21 Mbytes
Step Temp Press TotEng PotEng Enthalpy Volume 
   70015    221.55648   -168.36349   -63506.884   -64069.657   -63542.497    338906.86 
   70035    221.93113   -188.48035   -63509.381   -64073.106   -63549.247    338884.13 
   70510    182.66694   -199.35831   -63728.816   -64192.806   -63770.808     337476.8 
Loop time of 70.2539 on 1 procs for 495 steps with 19652 atoms

Performance: 0.609 ns/day, 39.424 hours/ns, 7.046 timesteps/s
99.6% CPU use with 1 MPI tasks x no OpenMP threads

MPI task timing breakdown:
Section |  min time  |  avg time  |  max time  |%varavg| %total
---------------------------------------------------------------
Pair    | 37.447     | 37.447     | 37.447     |   0.0 | 53.30
Neigh   | 31.228     | 31.228     | 31.228     |   0.0 | 44.45
Comm    | 0.47484    | 0.47484    | 0.47484    |   0.0 |  0.68
Output  | 0.25193    | 0.25193    | 0.25193    |   0.0 |  0.36
Modify  | 0.67453    | 0.67453    | 0.67453    |   0.0 |  0.96
Other   |            | 0.1779     |            |       |  0.25

Nlocal:    19652 ave 19652 max 19652 min
Histogram: 1 0 0 0 0 0 0 0 0 0
Nghost:    18244 ave 18244 max 18244 min
Histogram: 1 0 0 0 0 0 0 0 0 0
Neighs:    1.46958e+06 ave 1.46958e+06 max 1.46958e+06 min
Histogram: 1 0 0 0 0 0 0 0 0 0

Total # of neighbors = 1469580
Ave neighs/atom = 74.7802
Neighbor list builds = 495
Dangerous builds not checked
Setting up Verlet run ...
  Unit style    : metal
  Current step  : 70510
  Time step     : 0.001
Per MPI rank memory allocation (min/avg/max) = 18.21 | 18.21 | 18.21 Mbytes
Step Temp Press TotEng PotEng Enthalpy Volume 
   70510    182.66694   -199.35831   -63728.816   -64192.806   -63770.808     337476.8 
   70682    173.16451   -154.67502   -63786.414   -64226.267   -63818.958    337108.14 
Loop time of 25.2939 on 1 procs for 172 steps with 19652 atoms

Performance: 0.588 ns/day, 40.849 hours/ns, 6.800 timesteps/s
98.6% CPU use with 1 MPI tasks x no OpenMP threads

MPI task timing breakdown:
Section |  min time  |  avg time  |  max time  |%varavg| %total
---------------------------------------------------------------
Pair    | 13.411     | 13.411     | 13.411     |   0.0 | 53.02
Neigh   | 11.087     | 11.087     | 11.087     |   0.0 | 43.83
Comm    | 0.16876    | 0.16876    | 0.16876    |   0.0 |  0.67
Output  | 0.32029    | 0.32029    | 0.32029    |   0.0 |  1.27
Modify  | 0.24379    | 0.24379    | 0.24379    |   0.0 |  0.96
Other   |            | 0.06377    |            |       |  0.25

Nlocal:    19652 ave 19652 max 19652 min
Histogram: 1 0 0 0 0 0 0 0 0 0
Nghost:    18175 ave 18175 max 18175 min
Histogram: 1 0 0 0 0 0 0 0 0 0
Neighs:    1.47092e+06 ave 1.47092e+06 max 1.47092e+06 min
Histogram: 1 0 0 0 0 0 0 0 0 0

Total # of neighbors = 1470917
Ave neighs/atom = 74.8482
Neighbor list builds = 172
Dangerous builds not checked
Setting up Verlet run ...
  Unit style    : metal
  Current step  : 70682
  Time step     : 0.001
Per MPI rank memory allocation (min/avg/max) = 18.21 | 18.21 | 18.21 Mbytes
Step Temp Press TotEng PotEng Enthalpy Volume 
   70682    173.16451   -154.67502   -63786.414   -64226.267   -63818.958    337108.14 
   70702     173.7646   -199.55852   -63789.181   -64230.559   -63831.165    337076.31 
   71177    133.58024    35.668088   -64000.689   -64339.995   -63993.214     335762.7 
Loop time of 71.9346 on 1 procs for 495 steps with 19652 atoms

Performance: 0.595 ns/day, 40.367 hours/ns, 6.881 timesteps/s
99.9% CPU use with 1 MPI tasks x no OpenMP threads

MPI task timing breakdown:
Section |  min time  |  avg time  |  max time  |%varavg| %total
---------------------------------------------------------------
Pair    | 38.472     | 38.472     | 38.472     |   0.0 | 53.48
Neigh   | 32.034     | 32.034     | 32.034     |   0.0 | 44.53
Comm    | 0.48756    | 0.48756    | 0.48756    |   0.0 |  0.68
Output  | 0.062128   | 0.062128   | 0.062128   |   0.0 |  0.09
Modify  | 0.69584    | 0.69584    | 0.69584    |   0.0 |  0.97
Other   |            | 0.1838     |            |       |  0.26

Nlocal:    19652 ave 19652 max 19652 min
Histogram: 1 0 0 0 0 0 0 0 0 0
Nghost:    18196 ave 18196 max 18196 min
Histogram: 1 0 0 0 0 0 0 0 0 0
Neighs:    1.47622e+06 ave 1.47622e+06 max 1.47622e+06 min
Histogram: 1 0 0 0 0 0 0 0 0 0

Total # of neighbors = 1476225
Ave neighs/atom = 75.1183
Neighbor list builds = 495
Dangerous builds not checked
Setting up Verlet run ...
  Unit style    : metal
  Current step  : 71177
  Time step     : 0.001
Per MPI rank memory allocation (min/avg/max) = 18.21 | 18.21 | 18.21 Mbytes
Step Temp Press TotEng PotEng Enthalpy Volume 
   71177    133.58024    35.668088   -64000.689   -64339.995   -63993.214     335762.7 
   71349    124.45947   -138.15191   -64057.741   -64373.879   -64086.668    335473.43 
Loop time of 24.909 on 1 procs for 172 steps with 19652 atoms

Performance: 0.597 ns/day, 40.228 hours/ns, 6.905 timesteps/s
99.9% CPU use with 1 MPI tasks x no OpenMP threads

MPI task timing breakdown:
Section |  min time  |  avg time  |  max time  |%varavg| %total
---------------------------------------------------------------
Pair    | 13.375     | 13.375     | 13.375     |   0.0 | 53.70
Neigh   | 11.064     | 11.064     | 11.064     |   0.0 | 44.42
Comm    | 0.16727    | 0.16727    | 0.16727    |   0.0 |  0.67
Output  | 0.00022006 | 0.00022006 | 0.00022006 |   0.0 |  0.00
Modify  | 0.23888    | 0.23888    | 0.23888    |   0.0 |  0.96
Other   |            | 0.06316    |            |       |  0.25

Nlocal:    19652 ave 19652 max 19652 min
Histogram: 1 0 0 0 0 0 0 0 0 0
Nghost:    18240 ave 18240 max 18240 min
Histogram: 1 0 0 0 0 0 0 0 0 0
Neighs:    1.47728e+06 ave 1.47728e+06 max 1.47728e+06 min
Histogram: 1 0 0 0 0 0 0 0 0 0

Total # of neighbors = 1477283
Ave neighs/atom = 75.1721
Neighbor list builds = 172
Dangerous builds not checked
Total wall time: 2:44:42
