LAMMPS (12 Dec 2018)
Lattice spacing in x,y,z = 4 4 4
Created orthogonal box = (0 0 0) to (68 68 68)
  1 by 2 by 3 MPI processor grid
Created 19652 atoms
  Time spent = 0.00247693 secs
Setting atom values ...
  19281 settings made for type/fraction
Neighbor list info ...
  update every 1 steps, delay 0 steps, check no
  max neighbors/atom: 2000, page size: 100000
  master list distance cutoff = 8.5
  ghost atom cutoff = 8.5
  binsize = 4.25, bins = 16 16 16
  1 neighbor lists, perpetual/occasional/extra = 1 0 0
  (1) pair eam/alloy, perpetual
      attributes: half, newton on
      pair build: half/bin/atomonly/newton
      stencil: half/bin/3d/newton
      bin: standard
Setting up Verlet run ...
  Unit style    : metal
  Current step  : 0
  Time step     : 0.001
Per MPI rank memory allocation (min/avg/max) = 5.546 | 5.705 | 5.983 Mbytes
Step Temp Press TotEng PotEng Enthalpy 
       0          300    29666.511   -65241.477   -66003.504   -59419.334 
    1000    174.12126    36561.558   -65241.345   -65683.629   -58066.029 
Loop time of 36.4591 on 6 procs for 1000 steps with 19652 atoms

Performance: 2.370 ns/day, 10.128 hours/ns, 27.428 timesteps/s
99.5% CPU use with 6 MPI tasks x no OpenMP threads

MPI task timing breakdown:
Section |  min time  |  avg time  |  max time  |%varavg| %total
---------------------------------------------------------------
Pair    | 21.195     | 21.567     | 21.735     |   4.0 | 59.15
Neigh   | 10.934     | 11.446     | 12.162     |  13.2 | 31.39
Comm    | 2.4196     | 3.1516     | 3.6997     |  26.2 |  8.64
Output  | 0.00014687 | 0.00019149 | 0.00035501 |   0.0 |  0.00
Modify  | 0.16334    | 0.17533    | 0.18802    |   2.5 |  0.48
Other   |            | 0.1191     |            |       |  0.33

Nlocal:    3275.33 ave 3348 max 3171 min
Histogram: 2 0 0 0 0 0 0 1 2 1
Nghost:    7728 ave 7873 max 7463 min
Histogram: 2 0 0 0 0 0 0 0 0 4
Neighs:    261296 ave 269379 max 252644 min
Histogram: 1 1 0 0 1 1 0 0 0 2

Total # of neighbors = 1567777
Ave neighs/atom = 79.777
Neighbor list builds = 1000
Dangerous builds not checked
Setting up Verlet run ...
  Unit style    : metal
  Current step  : 1000
  Time step     : 0.001
Per MPI rank memory allocation (min/avg/max) = 5.549 | 5.838 | 5.987 Mbytes
Step Temp Press TotEng PotEng Enthalpy 
    1000    174.12126    36561.558   -65241.345   -65683.629   -58066.029 
    2000     304.3856   -63.120109   -64629.526   -65402.693   -64642.589 
Loop time of 32.3377 on 6 procs for 1000 steps with 19652 atoms

Performance: 2.672 ns/day, 8.983 hours/ns, 30.924 timesteps/s
99.7% CPU use with 6 MPI tasks x no OpenMP threads

MPI task timing breakdown:
Section |  min time  |  avg time  |  max time  |%varavg| %total
---------------------------------------------------------------
Pair    | 18.231     | 18.583     | 19.01      |   6.4 | 57.47
Neigh   | 10.44      | 11.003     | 11.602     |  13.2 | 34.03
Comm    | 1.591      | 2.2112     | 2.6758     |  28.8 |  6.84
Output  | 0.00011587 | 0.00013324 | 0.00021505 |   0.0 |  0.00
Modify  | 0.40126    | 0.41734    | 0.42544    |   1.5 |  1.29
Other   |            | 0.1223     |            |       |  0.38

Nlocal:    3275.33 ave 3339 max 3168 min
Histogram: 1 1 0 0 0 0 0 0 1 3
Nghost:    7714 ave 7868 max 7440 min
Histogram: 2 0 0 0 0 0 0 0 0 4
Neighs:    241556 ave 249283 max 233055 min
Histogram: 1 1 0 0 1 1 0 0 0 2

Total # of neighbors = 1449334
Ave neighs/atom = 73.7499
Neighbor list builds = 1000
Dangerous builds not checked
Setting up Verlet run ...
  Unit style    : metal
  Current step  : 2000
  Time step     : 0.001
Per MPI rank memory allocation (min/avg/max) = 5.549 | 5.838 | 5.987 Mbytes
Step Temp Press TotEng PotEng Enthalpy 
    2000     304.3856   -63.120109   -64629.526   -65402.693   -64642.589 
   10000    2444.8296   -136.87933   -51160.405   -57370.495   -51198.148 
Loop time of 225.963 on 6 procs for 8000 steps with 19652 atoms

Performance: 3.059 ns/day, 7.846 hours/ns, 35.404 timesteps/s
99.7% CPU use with 6 MPI tasks x no OpenMP threads

MPI task timing breakdown:
Section |  min time  |  avg time  |  max time  |%varavg| %total
---------------------------------------------------------------
Pair    | 124.18     | 124.73     | 125.15     |   3.3 | 55.20
Neigh   | 83.431     | 84.884     | 86.975     |  15.8 | 37.57
Comm    | 10.823     | 12.545     | 14.07      |  33.2 |  5.55
Output  | 9.4175e-05 | 0.00010892 | 0.00016999 |   0.0 |  0.00
Modify  | 2.7833     | 2.8109     | 2.8299     |   1.0 |  1.24
Other   |            | 0.9955     |            |       |  0.44

Nlocal:    3275.33 ave 3296 max 3249 min
Histogram: 2 0 0 0 1 0 0 0 0 3
Nghost:    6398.33 ave 6443 max 6364 min
Histogram: 1 0 2 0 0 1 1 0 0 1
Neighs:    185848 ave 190732 max 182687 min
Histogram: 1 2 0 1 0 0 1 0 0 1

Total # of neighbors = 1115089
Ave neighs/atom = 56.7418
Neighbor list builds = 8000
Dangerous builds not checked
Setting up Verlet run ...
  Unit style    : metal
  Current step  : 10000
  Time step     : 0.001
Per MPI rank memory allocation (min/avg/max) = 5.549 | 5.838 | 5.987 Mbytes
Step Temp Press TotEng PotEng Enthalpy 
   10000    2444.8296   -136.87933   -51160.405   -57370.495   -51198.148 
   40000    2433.4921   -820.25938   -51136.337   -57317.629   -51363.151 
Loop time of 789.809 on 6 procs for 30000 steps with 19652 atoms

Performance: 3.282 ns/day, 7.313 hours/ns, 37.984 timesteps/s
99.6% CPU use with 6 MPI tasks x no OpenMP threads

MPI task timing breakdown:
Section |  min time  |  avg time  |  max time  |%varavg| %total
---------------------------------------------------------------
Pair    | 410.8      | 415.31     | 418.1      |  13.1 | 52.58
Neigh   | 309.05     | 311.5      | 315.18     |  12.2 | 39.44
Comm    | 42.638     | 48.388     | 55.492     |  66.9 |  6.13
Output  | 9.0837e-05 | 0.00010749 | 0.00017715 |   0.0 |  0.00
Modify  | 10.777     | 10.912     | 11.02      |   2.5 |  1.38
Other   |            | 3.701      |            |       |  0.47

Nlocal:    3275.33 ave 3290 max 3261 min
Histogram: 2 0 1 0 0 0 0 1 0 2
Nghost:    6418.33 ave 6442 max 6397 min
Histogram: 1 0 1 0 1 0 2 0 0 1
Neighs:    185448 ave 187975 max 180709 min
Histogram: 1 0 0 0 1 0 1 0 1 2

Total # of neighbors = 1112686
Ave neighs/atom = 56.6195
Neighbor list builds = 30000
Dangerous builds not checked
Setting up Verlet run ...
  Unit style    : metal
  Current step  : 40000
  Time step     : 0.001
Per MPI rank memory allocation (min/avg/max) = 5.549 | 5.838 | 5.987 Mbytes
Step Temp Press TotEng PotEng Enthalpy 
   40000    2433.4921   -820.25938   -51136.337   -57317.629   -51363.151 
   40495    2411.2142   -349.69546   -51320.617   -57445.321   -51416.724 
Loop time of 12.492 on 6 procs for 495 steps with 19652 atoms

Performance: 3.424 ns/day, 7.010 hours/ns, 39.625 timesteps/s
99.9% CPU use with 6 MPI tasks x no OpenMP threads

MPI task timing breakdown:
Section |  min time  |  avg time  |  max time  |%varavg| %total
---------------------------------------------------------------
Pair    | 6.4494     | 6.5545     | 6.7058     |   3.1 | 52.47
Neigh   | 4.8871     | 4.9392     | 5.0418     |   2.3 | 39.54
Comm    | 0.53168    | 0.77359    | 0.88682    |  13.4 |  6.19
Output  | 6.3896e-05 | 8.7619e-05 | 0.0001421  |   0.0 |  0.00
Modify  | 0.1621     | 0.167      | 0.17347    |   0.9 |  1.34
Other   |            | 0.05757    |            |       |  0.46

Nlocal:    3275.33 ave 3304 max 3253 min
Histogram: 3 0 0 0 0 1 0 0 0 2
Nghost:    6423.83 ave 6456 max 6410 min
Histogram: 1 2 2 0 0 0 0 0 0 1
Neighs:    186460 ave 189399 max 183515 min
Histogram: 2 0 0 1 0 0 1 0 0 2

Total # of neighbors = 1118758
Ave neighs/atom = 56.9285
Neighbor list builds = 495
Dangerous builds not checked
Setting up Verlet run ...
  Unit style    : metal
  Current step  : 40495
  Time step     : 0.001
Per MPI rank memory allocation (min/avg/max) = 5.549 | 5.838 | 5.987 Mbytes
Step Temp Press TotEng PotEng Enthalpy 
   40495    2411.2142   -349.69546   -51320.617   -57445.321   -51416.724 
   66667    2420.1385    313.71402   -51313.267   -57460.639   -51227.156 
  106667    2397.6931    20.366505    -51383.09   -57473.449     -51377.5 
Loop time of 1827.29 on 6 procs for 66172 steps with 19652 atoms

Performance: 3.129 ns/day, 7.671 hours/ns, 36.213 timesteps/s
99.8% CPU use with 6 MPI tasks x no OpenMP threads

MPI task timing breakdown:
Section |  min time  |  avg time  |  max time  |%varavg| %total
---------------------------------------------------------------
Pair    | 960.29     | 967.63     | 975.45     |  17.1 | 52.95
Neigh   | 685.94     | 690.46     | 695.54     |  14.3 | 37.79
Comm    | 128.2      | 137.77     | 149.87     |  69.6 |  7.54
Output  | 0.018683   | 0.018733   | 0.018866   |   0.0 |  0.00
Modify  | 23.848     | 24.059     | 24.233     |   2.6 |  1.32
Other   |            | 7.356      |            |       |  0.40

Nlocal:    3275.33 ave 3300 max 3242 min
Histogram: 1 0 1 0 0 0 1 1 1 1
Nghost:    6433.33 ave 6475 max 6392 min
Histogram: 1 1 0 1 0 0 1 1 0 1
Neighs:    186717 ave 189651 max 183789 min
Histogram: 2 0 0 1 0 0 0 2 0 1

Total # of neighbors = 1120302
Ave neighs/atom = 57.007
Neighbor list builds = 66172
Dangerous builds not checked
Setting up Verlet run ...
  Unit style    : metal
  Current step  : 106667
  Time step     : 0.001
Per MPI rank memory allocation (min/avg/max) = 5.57 | 5.858 | 6.003 Mbytes
Step Temp Press TotEng PotEng Enthalpy 
  106667    2397.6931    20.366505    -51383.09   -57473.449     -51377.5 
  107162    2372.6291    604.32022   -51616.137   -57642.831   -51451.667 
Loop time of 13.007 on 6 procs for 495 steps with 19652 atoms

Performance: 3.288 ns/day, 7.299 hours/ns, 38.056 timesteps/s
99.9% CPU use with 6 MPI tasks x no OpenMP threads

MPI task timing breakdown:
Section |  min time  |  avg time  |  max time  |%varavg| %total
---------------------------------------------------------------
Pair    | 6.7896     | 6.9195     | 7.0261     |   2.6 | 53.20
Neigh   | 4.8016     | 4.8758     | 4.9417     |   2.3 | 37.49
Comm    | 0.8658     | 0.97532    | 1.1403     |   9.3 |  7.50
Output  | 7.2002e-05 | 9.1871e-05 | 0.00012803 |   0.0 |  0.00
Modify  | 0.17699    | 0.17929    | 0.18052    |   0.3 |  1.38
Other   |            | 0.05699    |            |       |  0.44

Nlocal:    3275.33 ave 3291 max 3257 min
Histogram: 1 0 1 1 0 0 0 0 2 1
Nghost:    6413.67 ave 6447 max 6354 min
Histogram: 1 0 0 0 1 0 0 2 1 1
Neighs:    188297 ave 191241 max 184879 min
Histogram: 1 0 0 1 1 0 1 1 0 1

Total # of neighbors = 1129784
Ave neighs/atom = 57.4895
Neighbor list builds = 495
Dangerous builds not checked
Setting up Verlet run ...
  Unit style    : metal
  Current step  : 107162
  Time step     : 0.001
Per MPI rank memory allocation (min/avg/max) = 5.57 | 5.858 | 6.003 Mbytes
Step Temp Press TotEng PotEng Enthalpy 
  107162    2372.6291    604.32022   -51616.137   -57642.831   -51451.667 
  133334    2342.8927   -812.45778    -51759.76   -57710.921   -51980.957 
  173334     2349.448    1164.6472   -51704.995   -57672.807   -51389.177 
Loop time of 1839.37 on 6 procs for 66172 steps with 19652 atoms

Performance: 3.108 ns/day, 7.721 hours/ns, 35.975 timesteps/s
99.8% CPU use with 6 MPI tasks x no OpenMP threads

MPI task timing breakdown:
Section |  min time  |  avg time  |  max time  |%varavg| %total
---------------------------------------------------------------
Pair    | 970.26     | 977.47     | 986.35     |  22.5 | 53.14
Neigh   | 686.28     | 691.54     | 697.78     |  15.2 | 37.60
Comm    | 125.79     | 138.74     | 151.39     |  77.7 |  7.54
Output  | 0.012718   | 0.012759   | 0.012912   |   0.1 |  0.00
Modify  | 24.146     | 24.223     | 24.277     |   1.0 |  1.32
Other   |            | 7.386      |            |       |  0.40

Nlocal:    3275.33 ave 3311 max 3250 min
Histogram: 1 1 1 0 1 0 1 0 0 1
Nghost:    6464.5 ave 6498 max 6446 min
Histogram: 2 1 0 0 1 1 0 0 0 1
Neighs:    188982 ave 194341 max 185937 min
Histogram: 2 2 0 0 0 0 0 1 0 1

Total # of neighbors = 1133890
Ave neighs/atom = 57.6985
Neighbor list builds = 66172
Dangerous builds not checked
Setting up Verlet run ...
  Unit style    : metal
  Current step  : 173334
  Time step     : 0.001
Per MPI rank memory allocation (min/avg/max) = 5.57 | 5.858 | 6.003 Mbytes
Step Temp Press TotEng PotEng Enthalpy 
  173334     2349.448    1164.6472   -51704.995   -57672.807   -51389.177 
  173829     2297.823   -955.98214   -51874.154   -57710.833   -52134.381 
Loop time of 13.4412 on 6 procs for 495 steps with 19652 atoms

Performance: 3.182 ns/day, 7.543 hours/ns, 36.827 timesteps/s
99.9% CPU use with 6 MPI tasks x no OpenMP threads

MPI task timing breakdown:
Section |  min time  |  avg time  |  max time  |%varavg| %total
---------------------------------------------------------------
Pair    | 7.0787     | 7.1998     | 7.2601     |   2.4 | 53.57
Neigh   | 4.8869     | 5.0031     | 5.1334     |   3.6 | 37.22
Comm    | 0.9118     | 1.0072     | 1.1669     |   8.9 |  7.49
Output  | 6.9857e-05 | 9.5805e-05 | 0.00013494 |   0.0 |  0.00
Modify  | 0.17832    | 0.17919    | 0.18162    |   0.3 |  1.33
Other   |            | 0.05184    |            |       |  0.39

Nlocal:    3275.33 ave 3308 max 3241 min
Histogram: 2 0 0 0 0 2 0 0 1 1
Nghost:    6448 ave 6499 max 6405 min
Histogram: 1 0 0 2 1 1 0 0 0 1
Neighs:    188303 ave 190602 max 184760 min
Histogram: 1 0 0 0 0 2 1 0 1 1

Total # of neighbors = 1129820
Ave neighs/atom = 57.4913
Neighbor list builds = 495
Dangerous builds not checked
Setting up Verlet run ...
  Unit style    : metal
  Current step  : 173829
  Time step     : 0.001
Per MPI rank memory allocation (min/avg/max) = 5.57 | 5.858 | 6.003 Mbytes
Step Temp Press TotEng PotEng Enthalpy 
  173829     2297.823   -955.98214   -51874.154   -57710.833   -52134.381 
  200001    2309.7521    955.94108   -51986.499    -57853.48   -51728.867 
  240001    2286.3055    319.14385   -52084.744   -57892.168   -51998.719 
Loop time of 1801.31 on 6 procs for 66172 steps with 19652 atoms

Performance: 3.174 ns/day, 7.562 hours/ns, 36.736 timesteps/s
99.8% CPU use with 6 MPI tasks x no OpenMP threads

MPI task timing breakdown:
Section |  min time  |  avg time  |  max time  |%varavg| %total
---------------------------------------------------------------
Pair    | 946.32     | 954.28     | 959.63     |  13.7 | 52.98
Neigh   | 681.86     | 689.09     | 696.2      |  22.2 | 38.26
Comm    | 117.44     | 126.51     | 141.31     |  75.1 |  7.02
Output  | 0.013924   | 0.013956   | 0.014068   |   0.0 |  0.00
Modify  | 23.371     | 23.809     | 24.038     |   5.0 |  1.32
Other   |            | 7.603      |            |       |  0.42

Nlocal:    3275.33 ave 3294 max 3261 min
Histogram: 2 0 0 0 2 0 1 0 0 1
Nghost:    6477.67 ave 6509 max 6437 min
Histogram: 1 0 0 0 1 0 2 1 0 1
Neighs:    190147 ave 193658 max 187889 min
Histogram: 2 1 0 0 1 0 1 0 0 1

Total # of neighbors = 1140883
Ave neighs/atom = 58.0543
Neighbor list builds = 66172
Dangerous builds not checked
Setting up Verlet run ...
  Unit style    : metal
  Current step  : 240001
  Time step     : 0.001
Per MPI rank memory allocation (min/avg/max) = 5.57 | 5.858 | 6.003 Mbytes
Step Temp Press TotEng PotEng Enthalpy 
  240001    2286.3055    319.14385   -52084.744   -57892.168   -51998.719 
  240496    2252.9566   -685.00458    -52152.24   -57874.955   -52337.424 
Loop time of 12.5478 on 6 procs for 495 steps with 19652 atoms

Performance: 3.408 ns/day, 7.041 hours/ns, 39.449 timesteps/s
99.9% CPU use with 6 MPI tasks x no OpenMP threads

MPI task timing breakdown:
Section |  min time  |  avg time  |  max time  |%varavg| %total
---------------------------------------------------------------
Pair    | 6.5639     | 6.6537     | 6.7597     |   2.3 | 53.03
Neigh   | 4.8684     | 4.9336     | 5.0057     |   1.9 | 39.32
Comm    | 0.56278    | 0.73262    | 0.83351    |  10.4 |  5.84
Output  | 7.2002e-05 | 8.142e-05  | 0.00011802 |   0.0 |  0.00
Modify  | 0.16327    | 0.16816    | 0.17201    |   0.7 |  1.34
Other   |            | 0.05966    |            |       |  0.48

Nlocal:    3275.33 ave 3286 max 3256 min
Histogram: 1 0 0 1 0 0 0 1 0 3
Nghost:    6448.5 ave 6476 max 6430 min
Histogram: 3 0 0 0 0 1 0 0 1 1
Neighs:    189571 ave 193853 max 186336 min
Histogram: 1 1 1 0 1 0 0 1 0 1

Total # of neighbors = 1137428
Ave neighs/atom = 57.8785
Neighbor list builds = 495
Dangerous builds not checked
Setting up Verlet run ...
  Unit style    : metal
  Current step  : 240496
  Time step     : 0.001
Per MPI rank memory allocation (min/avg/max) = 5.57 | 5.858 | 6.003 Mbytes
Step Temp Press TotEng PotEng Enthalpy 
  240496    2252.9566   -685.00458    -52152.24   -57874.955   -52337.424 
  266668     2277.408    672.03059   -52144.227   -57929.051   -51963.452 
  306668    2244.5259    27.156743   -52214.543   -57915.844   -52207.224 
Loop time of 1774.46 on 6 procs for 66172 steps with 19652 atoms

Performance: 3.222 ns/day, 7.449 hours/ns, 37.291 timesteps/s
99.8% CPU use with 6 MPI tasks x no OpenMP threads

MPI task timing breakdown:
Section |  min time  |  avg time  |  max time  |%varavg| %total
---------------------------------------------------------------
Pair    | 926.32     | 938.82     | 952.71     |  26.1 | 52.91
Neigh   | 678.49     | 685.26     | 695.35     |  23.3 | 38.62
Comm    | 95.251     | 119.18     | 137.01     | 113.1 |  6.72
Output  | 0.013567   | 0.013609   | 0.013703   |   0.0 |  0.00
Modify  | 22.947     | 23.448     | 23.682     |   5.5 |  1.32
Other   |            | 7.743      |            |       |  0.44

Nlocal:    3275.33 ave 3304 max 3229 min
Histogram: 1 0 0 0 1 0 0 2 1 1
Nghost:    6474.33 ave 6493 max 6455 min
Histogram: 1 0 1 0 1 1 0 1 0 1
Neighs:    190152 ave 192604 max 186722 min
Histogram: 1 0 0 2 0 0 0 0 1 2

Total # of neighbors = 1140911
Ave neighs/atom = 58.0557
Neighbor list builds = 66172
Dangerous builds not checked
Setting up Verlet run ...
  Unit style    : metal
  Current step  : 306668
  Time step     : 0.001
Per MPI rank memory allocation (min/avg/max) = 5.57 | 5.858 | 6.003 Mbytes
Step Temp Press TotEng PotEng Enthalpy 
  306668    2244.5259    27.156743   -52214.543   -57915.844   -52207.224 
  307163    2224.9748   -4.3160729   -52420.934   -58072.573   -52422.092 
Loop time of 12.8136 on 6 procs for 495 steps with 19652 atoms

Performance: 3.338 ns/day, 7.191 hours/ns, 38.631 timesteps/s
99.8% CPU use with 6 MPI tasks x no OpenMP threads

MPI task timing breakdown:
Section |  min time  |  avg time  |  max time  |%varavg| %total
---------------------------------------------------------------
Pair    | 6.7701     | 6.8631     | 6.9723     |   2.3 | 53.56
Neigh   | 4.792      | 4.8673     | 5.0252     |   3.5 | 37.99
Comm    | 0.59058    | 0.85118    | 1.0109     |  14.1 |  6.64
Output  | 8.3923e-05 | 0.00010033 | 0.000139   |   0.0 |  0.00
Modify  | 0.16743    | 0.17279    | 0.17544    |   0.7 |  1.35
Other   |            | 0.05921    |            |       |  0.46

Nlocal:    3275.33 ave 3298 max 3254 min
Histogram: 1 0 1 0 2 0 0 0 1 1
Nghost:    6457.17 ave 6489 max 6402 min
Histogram: 1 0 0 0 0 2 0 0 2 1
Neighs:    191150 ave 194955 max 187746 min
Histogram: 1 1 1 0 0 0 1 1 0 1

Total # of neighbors = 1146899
Ave neighs/atom = 58.3604
Neighbor list builds = 495
Dangerous builds not checked
Setting up Verlet run ...
  Unit style    : metal
  Current step  : 307163
  Time step     : 0.001
Per MPI rank memory allocation (min/avg/max) = 5.57 | 5.858 | 6.003 Mbytes
Step Temp Press TotEng PotEng Enthalpy 
  307163    2224.9748   -4.3160729   -52420.934   -58072.573   -52422.092 
  333335    2189.2524   -1028.7466   -52533.806   -58094.707    -52809.76 
  373335    2197.8554    88.077399   -52441.445   -58024.198   -52417.823 
Loop time of 1792.78 on 6 procs for 66172 steps with 19652 atoms

Performance: 3.189 ns/day, 7.526 hours/ns, 36.910 timesteps/s
99.8% CPU use with 6 MPI tasks x no OpenMP threads

MPI task timing breakdown:
Section |  min time  |  avg time  |  max time  |%varavg| %total
---------------------------------------------------------------
Pair    | 940.03     | 950.36     | 967.57     |  28.8 | 53.01
Neigh   | 678.39     | 685.54     | 694.75     |  22.4 | 38.24
Comm    | 99.108     | 125.41     | 139.92     | 113.7 |  7.00
Output  | 0.013705   | 0.013741   | 0.013857   |   0.0 |  0.00
Modify  | 23.213     | 23.674     | 23.887     |   5.0 |  1.32
Other   |            | 7.781      |            |       |  0.43

Nlocal:    3275.33 ave 3298 max 3240 min
Histogram: 1 0 0 0 0 0 3 1 0 1
Nghost:    6477.33 ave 6490 max 6464 min
Histogram: 1 0 0 0 2 1 1 0 0 1
Neighs:    191118 ave 194983 max 187002 min
Histogram: 2 0 0 0 1 0 1 0 0 2

Total # of neighbors = 1146709
Ave neighs/atom = 58.3508
Neighbor list builds = 66172
Dangerous builds not checked
Setting up Verlet run ...
  Unit style    : metal
  Current step  : 373335
  Time step     : 0.001
Per MPI rank memory allocation (min/avg/max) = 5.57 | 5.858 | 6.003 Mbytes
Step Temp Press TotEng PotEng Enthalpy 
  373335    2197.8554    88.077399   -52441.445   -58024.198   -52417.823 
  373830    2175.2613   -145.36755   -52684.744   -58210.106   -52723.526 
Loop time of 12.5518 on 6 procs for 495 steps with 19652 atoms

Performance: 3.407 ns/day, 7.044 hours/ns, 39.436 timesteps/s
99.9% CPU use with 6 MPI tasks x no OpenMP threads

MPI task timing breakdown:
Section |  min time  |  avg time  |  max time  |%varavg| %total
---------------------------------------------------------------
Pair    | 6.6064     | 6.6727     | 6.8067     |   2.5 | 53.16
Neigh   | 4.86       | 4.9243     | 4.9799     |   1.8 | 39.23
Comm    | 0.56631    | 0.72869    | 0.82916    |  10.0 |  5.81
Output  | 7.1049e-05 | 8.4201e-05 | 0.00014806 |   0.0 |  0.00
Modify  | 0.16439    | 0.16892    | 0.17195    |   0.7 |  1.35
Other   |            | 0.05717    |            |       |  0.46

Nlocal:    3275.33 ave 3305 max 3248 min
Histogram: 1 0 1 1 0 1 0 1 0 1
Nghost:    6503.83 ave 6524 max 6476 min
Histogram: 2 0 0 0 0 0 0 1 2 1
Neighs:    192183 ave 195579 max 188234 min
Histogram: 2 0 0 0 0 1 1 0 0 2

Total # of neighbors = 1153096
Ave neighs/atom = 58.6758
Neighbor list builds = 495
Dangerous builds not checked
Setting up Verlet run ...
  Unit style    : metal
  Current step  : 373830
  Time step     : 0.001
Per MPI rank memory allocation (min/avg/max) = 5.57 | 5.858 | 6.003 Mbytes
Step Temp Press TotEng PotEng Enthalpy 
  373830    2175.2613   -145.36755   -52684.744   -58210.106   -52723.526 
  400002    2159.3954   -754.16032   -52728.501   -58213.562   -52929.884 
  440002    2154.1859   -637.52744   -52703.591    -58175.42   -52873.973 
Loop time of 1828.65 on 6 procs for 66172 steps with 19652 atoms

Performance: 3.126 ns/day, 7.676 hours/ns, 36.186 timesteps/s
99.8% CPU use with 6 MPI tasks x no OpenMP threads

MPI task timing breakdown:
Section |  min time  |  avg time  |  max time  |%varavg| %total
---------------------------------------------------------------
Pair    | 958.46     | 973.71     | 996.26     |  41.7 | 53.25
Neigh   | 678.71     | 688        | 703.51     |  32.6 | 37.62
Comm    | 97.123     | 135.84     | 160.74     | 185.2 |  7.43
Output  | 0.014007   | 0.014352   | 0.015552   |   0.5 |  0.00
Modify  | 23.345     | 23.734     | 23.979     |   4.4 |  1.30
Other   |            | 7.354      |            |       |  0.40

Nlocal:    3275.33 ave 3302 max 3252 min
Histogram: 2 0 1 0 0 0 0 1 1 1
Nghost:    6488 ave 6526 max 6438 min
Histogram: 1 1 0 0 0 0 1 2 0 1
Neighs:    191782 ave 195765 max 188373 min
Histogram: 1 0 2 0 1 0 0 0 1 1

Total # of neighbors = 1150692
Ave neighs/atom = 58.5534
Neighbor list builds = 66172
Dangerous builds not checked
Setting up Verlet run ...
  Unit style    : metal
  Current step  : 440002
  Time step     : 0.001
Per MPI rank memory allocation (min/avg/max) = 5.57 | 5.858 | 6.003 Mbytes
Step Temp Press TotEng PotEng Enthalpy 
  440002    2154.1859   -637.52744   -52703.591    -58175.42   -52873.973 
  440497    2111.8879    143.17642   -52975.227   -58339.615   -52937.274 
Loop time of 13.9693 on 6 procs for 495 steps with 19652 atoms

Performance: 3.062 ns/day, 7.839 hours/ns, 35.435 timesteps/s
99.8% CPU use with 6 MPI tasks x no OpenMP threads

MPI task timing breakdown:
Section |  min time  |  avg time  |  max time  |%varavg| %total
---------------------------------------------------------------
Pair    | 7.3768     | 7.5411     | 7.6885     |   4.4 | 53.98
Neigh   | 4.9583     | 5.0385     | 5.1909     |   4.3 | 36.07
Comm    | 0.88123    | 1.145      | 1.3943     |  19.0 |  8.20
Output  | 8.297e-05  | 0.00010383 | 0.00016212 |   0.0 |  0.00
Modify  | 0.1835     | 0.18832    | 0.19483    |   0.9 |  1.35
Other   |            | 0.05633    |            |       |  0.40

Nlocal:    3275.33 ave 3312 max 3253 min
Histogram: 2 0 1 0 1 1 0 0 0 1
Nghost:    6545.83 ave 6577 max 6500 min
Histogram: 1 0 1 0 0 0 1 0 2 1
Neighs:    193362 ave 199111 max 190420 min
Histogram: 1 1 1 2 0 0 0 0 0 1

Total # of neighbors = 1160173
Ave neighs/atom = 59.0359
Neighbor list builds = 495
Dangerous builds not checked
Setting up Verlet run ...
  Unit style    : metal
  Current step  : 440497
  Time step     : 0.001
Per MPI rank memory allocation (min/avg/max) = 5.57 | 5.858 | 6.003 Mbytes
Step Temp Press TotEng PotEng Enthalpy 
  440497    2111.8879    143.17642   -52975.227   -58339.615   -52937.274 
  466669    2108.4794    873.82317   -53124.971     -58480.7   -52894.981 
  506669    2094.3475   -400.39615   -53099.328   -58419.161    -53205.35 
Loop time of 1819.39 on 6 procs for 66172 steps with 19652 atoms

Performance: 3.142 ns/day, 7.637 hours/ns, 36.370 timesteps/s
99.8% CPU use with 6 MPI tasks x no OpenMP threads

MPI task timing breakdown:
Section |  min time  |  avg time  |  max time  |%varavg| %total
---------------------------------------------------------------
Pair    | 950.53     | 968.72     | 997.84     |  51.9 | 53.24
Neigh   | 676.68     | 684.21     | 701.15     |  36.5 | 37.61
Comm    | 89.167     | 135.21     | 161.08     | 217.0 |  7.43
Output  | 0.013512   | 0.013554   | 0.01364    |   0.0 |  0.00
Modify  | 23.098     | 23.621     | 23.855     |   5.4 |  1.30
Other   |            | 7.616      |            |       |  0.42

Nlocal:    3275.33 ave 3314 max 3239 min
Histogram: 1 0 0 0 2 2 0 0 0 1
Nghost:    6531.33 ave 6560 max 6507 min
Histogram: 1 0 1 1 1 0 1 0 0 1
Neighs:    193650 ave 197100 max 190594 min
Histogram: 2 0 0 1 0 1 0 0 1 1

Total # of neighbors = 1161902
Ave neighs/atom = 59.1239
Neighbor list builds = 66172
Dangerous builds not checked
Setting up Verlet run ...
  Unit style    : metal
  Current step  : 506669
  Time step     : 0.001
Per MPI rank memory allocation (min/avg/max) = 5.57 | 5.858 | 6.003 Mbytes
Step Temp Press TotEng PotEng Enthalpy 
  506669    2094.3475   -400.39615   -53099.328   -58419.161    -53205.35 
  507164     2062.263    730.08503   -53285.971   -58524.307    -53093.93 
Loop time of 12.7867 on 6 procs for 495 steps with 19652 atoms

Performance: 3.345 ns/day, 7.175 hours/ns, 38.712 timesteps/s
99.9% CPU use with 6 MPI tasks x no OpenMP threads

MPI task timing breakdown:
Section |  min time  |  avg time  |  max time  |%varavg| %total
---------------------------------------------------------------
Pair    | 6.7124     | 6.8244     | 7.0485     |   4.2 | 53.37
Neigh   | 4.7841     | 4.8388     | 4.9819     |   3.0 | 37.84
Comm    | 0.53346    | 0.89161    | 1.0528     |  17.8 |  6.97
Output  | 7.0095e-05 | 9.6917e-05 | 0.00017118 |   0.0 |  0.00
Modify  | 0.16294    | 0.16869    | 0.171      |   0.7 |  1.32
Other   |            | 0.06306    |            |       |  0.49

Nlocal:    3275.33 ave 3299 max 3248 min
Histogram: 1 0 1 0 0 2 0 0 0 2
Nghost:    6546.83 ave 6582 max 6504 min
Histogram: 1 1 0 0 0 0 2 0 1 1
Neighs:    195009 ave 199350 max 189641 min
Histogram: 1 0 1 0 0 1 0 2 0 1

Total # of neighbors = 1170053
Ave neighs/atom = 59.5386
Neighbor list builds = 495
Dangerous builds not checked
Setting up Verlet run ...
  Unit style    : metal
  Current step  : 507164
  Time step     : 0.001
Per MPI rank memory allocation (min/avg/max) = 5.57 | 5.858 | 6.003 Mbytes
Step Temp Press TotEng PotEng Enthalpy 
  507164     2062.263    730.08503   -53285.971   -58524.307    -53093.93 
  533336    2035.6805    618.60077   -53348.057   -58518.871   -53185.388 
  573336    2046.8575    176.05468   -53361.309   -58560.513   -53314.989 
Loop time of 1767.89 on 6 procs for 66172 steps with 19652 atoms

Performance: 3.234 ns/day, 7.421 hours/ns, 37.430 timesteps/s
99.6% CPU use with 6 MPI tasks x no OpenMP threads

MPI task timing breakdown:
Section |  min time  |  avg time  |  max time  |%varavg| %total
---------------------------------------------------------------
Pair    | 933.13     | 944.82     | 954.67     |  23.4 | 53.44
Neigh   | 676.39     | 681.69     | 691.09     |  21.2 | 38.56
Comm    | 90.977     | 106.76     | 123.08     | 117.4 |  6.04
Output  | 0.013766   | 0.01381    | 0.014012   |   0.1 |  0.00
Modify  | 25.564     | 25.784     | 26.393     |   5.5 |  1.46
Other   |            | 8.826      |            |       |  0.50

Nlocal:    3275.33 ave 3297 max 3252 min
Histogram: 1 0 0 1 2 0 0 0 0 2
Nghost:    6540.33 ave 6586 max 6509 min
Histogram: 2 0 2 0 0 0 0 0 1 1
Neighs:    194904 ave 200330 max 189227 min
Histogram: 1 0 0 1 1 1 1 0 0 1

Total # of neighbors = 1169426
Ave neighs/atom = 59.5067
Neighbor list builds = 66172
Dangerous builds not checked
Setting up Verlet run ...
  Unit style    : metal
  Current step  : 573336
  Time step     : 0.001
Per MPI rank memory allocation (min/avg/max) = 5.57 | 5.858 | 6.003 Mbytes
Step Temp Press TotEng PotEng Enthalpy 
  573336    2046.8575    176.05468   -53361.309   -58560.513   -53314.989 
  573831    2011.5405    61.661237   -53511.912   -58621.408   -53495.726 
Loop time of 12.7855 on 6 procs for 495 steps with 19652 atoms

Performance: 3.345 ns/day, 7.175 hours/ns, 38.716 timesteps/s
99.8% CPU use with 6 MPI tasks x no OpenMP threads

MPI task timing breakdown:
Section |  min time  |  avg time  |  max time  |%varavg| %total
---------------------------------------------------------------
Pair    | 6.7774     | 6.8579     | 6.9117     |   1.8 | 53.64
Neigh   | 4.8585     | 4.9312     | 5.0175     |   2.7 | 38.57
Comm    | 0.61206    | 0.75042    | 0.88249    |  12.2 |  5.87
Output  | 7.1049e-05 | 0.00010665 | 0.00027704 |   0.0 |  0.00
Modify  | 0.17481    | 0.18337    | 0.20122    |   2.4 |  1.43
Other   |            | 0.06246    |            |       |  0.49

Nlocal:    3275.33 ave 3291 max 3254 min
Histogram: 2 0 0 0 0 0 0 1 2 1
Nghost:    6559.5 ave 6598 max 6513 min
Histogram: 1 0 0 1 1 1 0 0 0 2
Neighs:    195323 ave 199726 max 190457 min
Histogram: 2 0 0 0 0 1 1 0 1 1

Total # of neighbors = 1171939
Ave neighs/atom = 59.6346
Neighbor list builds = 495
Dangerous builds not checked
Setting up Verlet run ...
  Unit style    : metal
  Current step  : 573831
  Time step     : 0.001
Per MPI rank memory allocation (min/avg/max) = 5.57 | 5.858 | 6.003 Mbytes
Step Temp Press TotEng PotEng Enthalpy 
  573831    2011.5405    61.661237   -53511.912   -58621.408   -53495.726 
  600003    1979.7291   -755.06639   -53665.303   -58693.996   -53863.002 
  640003    2007.0391   -604.29189   -53558.242   -58656.304   -53716.814 
Loop time of 1749.06 on 6 procs for 66172 steps with 19652 atoms

Performance: 3.269 ns/day, 7.342 hours/ns, 37.833 timesteps/s
99.7% CPU use with 6 MPI tasks x no OpenMP threads

MPI task timing breakdown:
Section |  min time  |  avg time  |  max time  |%varavg| %total
---------------------------------------------------------------
Pair    | 925.27     | 938.1      | 944.15     |  22.1 | 53.63
Neigh   | 676.23     | 681.2      | 688.47     |  15.9 | 38.95
Comm    | 83.374     | 96.571     | 111.25     |  95.8 |  5.52
Output  | 0.013321   | 0.013347   | 0.013456   |   0.0 |  0.00
Modify  | 23.791     | 24.038     | 24.695     |   6.2 |  1.37
Other   |            | 9.131      |            |       |  0.52

Nlocal:    3275.33 ave 3299 max 3252 min
Histogram: 1 0 1 1 0 0 2 0 0 1
Nghost:    6525.83 ave 6565 max 6495 min
Histogram: 1 1 0 1 1 0 0 1 0 1
Neighs:    195388 ave 199524 max 191289 min
Histogram: 1 0 1 1 0 0 1 1 0 1

Total # of neighbors = 1172326
Ave neighs/atom = 59.6543
Neighbor list builds = 66172
Dangerous builds not checked
Setting up Verlet run ...
  Unit style    : metal
  Current step  : 640003
  Time step     : 0.001
Per MPI rank memory allocation (min/avg/max) = 5.57 | 5.858 | 6.003 Mbytes
Step Temp Press TotEng PotEng Enthalpy 
  640003    2007.0391   -604.29189   -53558.242   -58656.304   -53716.814 
  640498     1974.627    133.21187   -53808.642   -58824.375    -53773.93 
Loop time of 12.8902 on 6 procs for 495 steps with 19652 atoms

Performance: 3.318 ns/day, 7.234 hours/ns, 38.401 timesteps/s
99.6% CPU use with 6 MPI tasks x no OpenMP threads

MPI task timing breakdown:
Section |  min time  |  avg time  |  max time  |%varavg| %total
---------------------------------------------------------------
Pair    | 6.8724     | 6.9726     | 7.0428     |   2.1 | 54.09
Neigh   | 4.9027     | 4.9494     | 5.008      |   1.6 | 38.40
Comm    | 0.62832    | 0.72197    | 0.84374    |   9.2 |  5.60
Output  | 7.5817e-05 | 9.9182e-05 | 0.00018787 |   0.0 |  0.00
Modify  | 0.17222    | 0.17445    | 0.17948    |   0.6 |  1.35
Other   |            | 0.07174    |            |       |  0.56

Nlocal:    3275.33 ave 3295 max 3257 min
Histogram: 1 0 2 0 0 0 1 0 1 1
Nghost:    6576.83 ave 6614 max 6555 min
Histogram: 1 2 1 0 0 1 0 0 0 1
Neighs:    196720 ave 199736 max 194256 min
Histogram: 1 1 1 0 0 1 0 0 1 1

Total # of neighbors = 1180318
Ave neighs/atom = 60.061
Neighbor list builds = 495
Dangerous builds not checked
Setting up Verlet run ...
  Unit style    : metal
  Current step  : 640498
  Time step     : 0.001
Per MPI rank memory allocation (min/avg/max) = 5.57 | 5.858 | 6.003 Mbytes
Step Temp Press TotEng PotEng Enthalpy 
  640498     1974.627    133.21187   -53808.642   -58824.375    -53773.93 
  666670    1952.1868   -899.44954   -53839.982   -58798.714   -54075.112 
  706670     1950.388    565.29749   -53863.874   -58818.037   -53716.793 
Loop time of 1758.63 on 6 procs for 66172 steps with 19652 atoms

Performance: 3.251 ns/day, 7.382 hours/ns, 37.627 timesteps/s
99.7% CPU use with 6 MPI tasks x no OpenMP threads

MPI task timing breakdown:
Section |  min time  |  avg time  |  max time  |%varavg| %total
---------------------------------------------------------------
Pair    | 933.46     | 944.93     | 950.23     |  20.0 | 53.73
Neigh   | 676.18     | 680.28     | 689.51     |  19.3 | 38.68
Comm    | 85.175     | 99.29      | 113.91     |  99.4 |  5.65
Output  | 0.013465   | 0.013509   | 0.013719   |   0.1 |  0.00
Modify  | 24.845     | 25.047     | 25.434     |   4.0 |  1.42
Other   |            | 9.065      |            |       |  0.52

Nlocal:    3275.33 ave 3301 max 3250 min
Histogram: 1 0 1 0 1 1 0 1 0 1
Nghost:    6567.5 ave 6602 max 6539 min
Histogram: 1 0 1 1 0 2 0 0 0 1
Neighs:    197095 ave 200635 max 194563 min
Histogram: 1 2 0 0 1 0 1 0 0 1

Total # of neighbors = 1182571
Ave neighs/atom = 60.1756
Neighbor list builds = 66172
Dangerous builds not checked
Setting up Verlet run ...
  Unit style    : metal
  Current step  : 706670
  Time step     : 0.001
Per MPI rank memory allocation (min/avg/max) = 5.57 | 5.858 | 6.003 Mbytes
Step Temp Press TotEng PotEng Enthalpy 
  706670     1950.388    565.29749   -53863.874   -58818.037   -53716.793 
  707165    1909.9915    340.10363    -54092.43   -58943.983   -54004.324 
Loop time of 12.6719 on 6 procs for 495 steps with 19652 atoms

Performance: 3.375 ns/day, 7.111 hours/ns, 39.063 timesteps/s
99.7% CPU use with 6 MPI tasks x no OpenMP threads

MPI task timing breakdown:
Section |  min time  |  avg time  |  max time  |%varavg| %total
---------------------------------------------------------------
Pair    | 6.8157     | 6.8698     | 6.9301     |   1.5 | 54.21
Neigh   | 4.7998     | 4.8585     | 4.9178     |   1.6 | 38.34
Comm    | 0.58101    | 0.69938    | 0.77077    |   7.5 |  5.52
Output  | 7.391e-05  | 9.505e-05  | 0.00017285 |   0.0 |  0.00
Modify  | 0.17262    | 0.17513    | 0.18137    |   0.7 |  1.38
Other   |            | 0.06907    |            |       |  0.55

Nlocal:    3275.33 ave 3280 max 3269 min
Histogram: 1 0 0 2 0 0 0 0 1 2
Nghost:    6560.67 ave 6575 max 6544 min
Histogram: 2 0 0 0 1 0 0 0 2 1
Neighs:    198068 ave 201742 max 194481 min
Histogram: 1 0 1 0 1 1 0 1 0 1

Total # of neighbors = 1188410
Ave neighs/atom = 60.4727
Neighbor list builds = 495
Dangerous builds not checked
Setting up Verlet run ...
  Unit style    : metal
  Current step  : 707165
  Time step     : 0.001
Per MPI rank memory allocation (min/avg/max) = 5.57 | 5.858 | 6.003 Mbytes
Step Temp Press TotEng PotEng Enthalpy 
  707165    1909.9915    340.10363    -54092.43   -58943.983   -54004.324 
  733337    1917.0756   -613.36065   -54145.205   -59014.752   -54304.096 
  773337     1915.945     30.20048   -54158.697   -59025.372   -54150.887 
Loop time of 1749.23 on 6 procs for 66172 steps with 19652 atoms

Performance: 3.268 ns/day, 7.343 hours/ns, 37.829 timesteps/s
99.7% CPU use with 6 MPI tasks x no OpenMP threads

MPI task timing breakdown:
Section |  min time  |  avg time  |  max time  |%varavg| %total
---------------------------------------------------------------
Pair    | 928.84     | 941.08     | 946.67     |  20.6 | 53.80
Neigh   | 675.06     | 679.5      | 686.02     |  14.4 | 38.85
Comm    | 84.201     | 95.3       | 109.7      |  90.0 |  5.45
Output  | 0.013329   | 0.013358   | 0.013488   |   0.1 |  0.00
Modify  | 23.8       | 24.089     | 24.685     |   6.0 |  1.38
Other   |            | 9.25       |            |       |  0.53

Nlocal:    3275.33 ave 3301 max 3243 min
Histogram: 1 1 0 0 0 1 0 1 0 2
Nghost:    6599.67 ave 6624 max 6568 min
Histogram: 1 0 0 0 1 1 1 1 0 1
Neighs:    198301 ave 202232 max 195445 min
Histogram: 1 2 0 0 0 0 2 0 0 1

Total # of neighbors = 1189804
Ave neighs/atom = 60.5437
Neighbor list builds = 66172
Dangerous builds not checked
Setting up Verlet run ...
  Unit style    : metal
  Current step  : 773337
  Time step     : 0.001
Per MPI rank memory allocation (min/avg/max) = 5.57 | 5.858 | 6.003 Mbytes
Step Temp Press TotEng PotEng Enthalpy 
  773337     1915.945     30.20048   -54158.697   -59025.372   -54150.887 
  773832    1868.2902    175.07104   -54346.278   -59091.906   -54301.146 
Loop time of 12.8355 on 6 procs for 495 steps with 19652 atoms

Performance: 3.332 ns/day, 7.203 hours/ns, 38.565 timesteps/s
99.8% CPU use with 6 MPI tasks x no OpenMP threads

MPI task timing breakdown:
Section |  min time  |  avg time  |  max time  |%varavg| %total
---------------------------------------------------------------
Pair    | 6.8558     | 6.9427     | 7.0018     |   2.0 | 54.09
Neigh   | 4.8497     | 4.9339     | 4.9881     |   2.2 | 38.44
Comm    | 0.62156    | 0.71278    | 0.84694    |   9.4 |  5.55
Output  | 7.6056e-05 | 9.3659e-05 | 0.00017405 |   0.0 |  0.00
Modify  | 0.17524    | 0.1772     | 0.18053    |   0.4 |  1.38
Other   |            | 0.06877    |            |       |  0.54

Nlocal:    3275.33 ave 3290 max 3255 min
Histogram: 2 0 0 0 0 0 1 0 1 2
Nghost:    6612.5 ave 6653 max 6581 min
Histogram: 1 2 0 1 0 0 0 0 0 2
Neighs:    199025 ave 201344 max 197388 min
Histogram: 2 1 0 0 0 1 0 0 1 1

Total # of neighbors = 1194149
Ave neighs/atom = 60.7648
Neighbor list builds = 495
Dangerous builds not checked
Setting up Verlet run ...
  Unit style    : metal
  Current step  : 773832
  Time step     : 0.001
Per MPI rank memory allocation (min/avg/max) = 5.57 | 5.858 | 6.003 Mbytes
Step Temp Press TotEng PotEng Enthalpy 
  773832    1868.2902    175.07104   -54346.278   -59091.906   -54301.146 
  800004    1837.7093   -168.20523   -54494.631    -59162.58   -54537.912 
  840004    1824.1767     417.0861   -54530.045    -59163.62   -54422.947 
Loop time of 1761.64 on 6 procs for 66172 steps with 19652 atoms

Performance: 3.245 ns/day, 7.395 hours/ns, 37.563 timesteps/s
99.7% CPU use with 6 MPI tasks x no OpenMP threads

MPI task timing breakdown:
Section |  min time  |  avg time  |  max time  |%varavg| %total
---------------------------------------------------------------
Pair    | 937.26     | 950.33     | 958.59     |  24.5 | 53.95
Neigh   | 675.3      | 679.19     | 685.83     |  13.4 | 38.55
Comm    | 86.139     | 98.086     | 114.08     |  95.5 |  5.57
Output  | 0.013641   | 0.01367    | 0.013788   |   0.0 |  0.00
Modify  | 24.475     | 24.683     | 25.018     |   3.8 |  1.40
Other   |            | 9.345      |            |       |  0.53

Nlocal:    3275.33 ave 3295 max 3259 min
Histogram: 1 1 0 0 1 2 0 0 0 1
Nghost:    6608.5 ave 6634 max 6592 min
Histogram: 2 0 1 0 1 1 0 0 0 1
Neighs:    199807 ave 203425 max 197072 min
Histogram: 1 1 1 1 0 0 0 0 0 2

Total # of neighbors = 1198841
Ave neighs/atom = 61.0035
Neighbor list builds = 66172
Dangerous builds not checked
Setting up Verlet run ...
  Unit style    : metal
  Current step  : 840004
  Time step     : 0.001
Per MPI rank memory allocation (min/avg/max) = 5.57 | 5.858 | 6.003 Mbytes
Step Temp Press TotEng PotEng Enthalpy 
  840004    1824.1767     417.0861   -54530.045    -59163.62   -54422.947 
  840499    1808.4691   -80.416064    -54634.52   -59228.196   -54655.167 
Loop time of 12.9412 on 6 procs for 495 steps with 19652 atoms

Performance: 3.305 ns/day, 7.262 hours/ns, 38.250 timesteps/s
99.6% CPU use with 6 MPI tasks x no OpenMP threads

MPI task timing breakdown:
Section |  min time  |  avg time  |  max time  |%varavg| %total
---------------------------------------------------------------
Pair    | 6.9476     | 7.0426     | 7.116      |   2.3 | 54.42
Neigh   | 4.8549     | 4.9382     | 4.9843     |   1.9 | 38.16
Comm    | 0.59686    | 0.71733    | 0.81726    |   8.5 |  5.54
Output  | 7.6056e-05 | 0.00011174 | 0.00027418 |   0.0 |  0.00
Modify  | 0.17193    | 0.17404    | 0.17769    |   0.5 |  1.34
Other   |            | 0.06895    |            |       |  0.53

Nlocal:    3275.33 ave 3297 max 3255 min
Histogram: 1 0 1 1 0 1 0 1 0 1
Nghost:    6622.17 ave 6638 max 6610 min
Histogram: 2 0 0 0 1 1 1 0 0 1
Neighs:    199766 ave 202404 max 196473 min
Histogram: 1 1 0 0 0 1 0 1 0 2

Total # of neighbors = 1198596
Ave neighs/atom = 60.991
Neighbor list builds = 495
Dangerous builds not checked
Setting up Verlet run ...
  Unit style    : metal
  Current step  : 840499
  Time step     : 0.001
Per MPI rank memory allocation (min/avg/max) = 5.57 | 5.858 | 6.003 Mbytes
Step Temp Press TotEng PotEng Enthalpy 
  840499    1808.4691   -80.416064    -54634.52   -59228.196   -54655.167 
  866671    1788.7979   -29.415119   -54783.195   -59326.905   -54790.715 
  906671      1787.77   -1112.9932   -54709.209   -59250.307   -54995.207 
Loop time of 1778.75 on 6 procs for 66172 steps with 19652 atoms

Performance: 3.214 ns/day, 7.467 hours/ns, 37.201 timesteps/s
99.6% CPU use with 6 MPI tasks x no OpenMP threads

MPI task timing breakdown:
Section |  min time  |  avg time  |  max time  |%varavg| %total
---------------------------------------------------------------
Pair    | 951.58     | 963.01     | 970.06     |  21.8 | 54.14
Neigh   | 676.54     | 679.32     | 686.14     |  13.6 | 38.19
Comm    | 88.891     | 101.11     | 115.39     |  89.7 |  5.68
Output  | 0.013402   | 0.013446   | 0.013651   |   0.1 |  0.00
Modify  | 25.496     | 25.848     | 26.548     |   6.8 |  1.45
Other   |            | 9.455      |            |       |  0.53

Nlocal:    3275.33 ave 3297 max 3259 min
Histogram: 2 0 0 1 1 0 0 1 0 1
Nghost:    6584 ave 6613 max 6560 min
Histogram: 2 0 1 0 1 0 0 0 0 2
Neighs:    199580 ave 202403 max 197989 min
Histogram: 1 2 1 0 0 0 1 0 0 1

Total # of neighbors = 1197479
Ave neighs/atom = 60.9342
Neighbor list builds = 66172
Dangerous builds not checked
Setting up Verlet run ...
  Unit style    : metal
  Current step  : 906671
  Time step     : 0.001
Per MPI rank memory allocation (min/avg/max) = 5.57 | 5.858 | 6.003 Mbytes
Step Temp Press TotEng PotEng Enthalpy 
  906671      1787.77   -1112.9932   -54709.209   -59250.307   -54995.207 
  907166    1755.2021    125.80296   -54957.376    -59415.75   -54925.321 
Loop time of 12.6743 on 6 procs for 495 steps with 19652 atoms

Performance: 3.374 ns/day, 7.112 hours/ns, 39.055 timesteps/s
99.8% CPU use with 6 MPI tasks x no OpenMP threads

MPI task timing breakdown:
Section |  min time  |  avg time  |  max time  |%varavg| %total
---------------------------------------------------------------
Pair    | 6.8084     | 6.8884     | 6.9564     |   2.1 | 54.35
Neigh   | 4.8069     | 4.8602     | 4.8925     |   1.3 | 38.35
Comm    | 0.58366    | 0.6773     | 0.77644    |   7.8 |  5.34
Output  | 0.00011706 | 0.00013157 | 0.00020313 |   0.0 |  0.00
Modify  | 0.17132    | 0.17435    | 0.18221    |   0.9 |  1.38
Other   |            | 0.07398    |            |       |  0.58

Nlocal:    3275.33 ave 3283 max 3255 min
Histogram: 1 0 0 0 0 1 0 0 1 3
Nghost:    6627 ave 6652 max 6578 min
Histogram: 1 0 0 0 1 0 0 2 0 2
Neighs:    201423 ave 205537 max 198416 min
Histogram: 2 1 0 0 0 1 0 1 0 1

Total # of neighbors = 1208538
Ave neighs/atom = 61.4969
Neighbor list builds = 495
Dangerous builds not checked
Setting up Verlet run ...
  Unit style    : metal
  Current step  : 907166
  Time step     : 0.001
Per MPI rank memory allocation (min/avg/max) = 5.57 | 5.858 | 6.003 Mbytes
Step Temp Press TotEng PotEng Enthalpy 
  907166    1755.2021    125.80296   -54957.376    -59415.75   -54925.321 
  933338    1768.8391   -221.54482   -54984.924   -59477.936   -55041.359 
  973338    1752.3269    -42.13743   -55014.834   -59465.904   -55025.559 
Loop time of 1849.62 on 6 procs for 66172 steps with 19652 atoms

Performance: 3.091 ns/day, 7.764 hours/ns, 35.776 timesteps/s
99.8% CPU use with 6 MPI tasks x no OpenMP threads

MPI task timing breakdown:
Section |  min time  |  avg time  |  max time  |%varavg| %total
---------------------------------------------------------------
Pair    | 983.48     | 1004.8     | 1036.9     |  56.0 | 54.32
Neigh   | 674.45     | 683.2      | 693.2      |  26.0 | 36.94
Comm    | 91.184     | 129.98     | 157.3      | 204.4 |  7.03
Output  | 0.013456   | 0.013504   | 0.013572   |   0.0 |  0.00
Modify  | 23.488     | 23.748     | 24.071     |   4.7 |  1.28
Other   |            | 7.929      |            |       |  0.43

Nlocal:    3275.33 ave 3292 max 3250 min
Histogram: 1 0 0 0 0 2 1 0 1 1
Nghost:    6623.67 ave 6644 max 6611 min
Histogram: 2 0 2 0 0 0 0 1 0 1
Neighs:    201605 ave 204974 max 198141 min
Histogram: 1 1 0 0 0 2 0 0 1 1

Total # of neighbors = 1209632
Ave neighs/atom = 61.5526
Neighbor list builds = 66172
Dangerous builds not checked
Setting up Verlet run ...
  Unit style    : metal
  Current step  : 973338
  Time step     : 0.001
Per MPI rank memory allocation (min/avg/max) = 5.57 | 5.858 | 6.003 Mbytes
Step Temp Press TotEng PotEng Enthalpy 
  973338    1752.3269    -42.13743   -55014.834   -59465.904   -55025.559 
  973833    1709.9852    91.288967   -55213.951   -59557.469    -55190.81 
Loop time of 14.0737 on 6 procs for 495 steps with 19652 atoms

Performance: 3.039 ns/day, 7.898 hours/ns, 35.172 timesteps/s
99.8% CPU use with 6 MPI tasks x no OpenMP threads

MPI task timing breakdown:
Section |  min time  |  avg time  |  max time  |%varavg| %total
---------------------------------------------------------------
Pair    | 7.4754     | 7.7482     | 7.9954     |   7.2 | 55.05
Neigh   | 4.8897     | 5.0276     | 5.1759     |   4.0 | 35.72
Comm    | 0.73754    | 1.0524     | 1.3421     |  25.5 |  7.48
Output  | 6.6996e-05 | 9.1076e-05 | 0.00014615 |   0.0 |  0.00
Modify  | 0.18217    | 0.18515    | 0.1889     |   0.6 |  1.32
Other   |            | 0.06015    |            |       |  0.43

Nlocal:    3275.33 ave 3309 max 3258 min
Histogram: 1 2 1 0 1 0 0 0 0 1
Nghost:    6637.5 ave 6662 max 6595 min
Histogram: 1 0 0 1 0 0 1 0 1 2
Neighs:    202352 ave 206027 max 200189 min
Histogram: 1 0 2 2 0 0 0 0 0 1

Total # of neighbors = 1214111
Ave neighs/atom = 61.7805
Neighbor list builds = 495
Dangerous builds not checked
Setting up Verlet run ...
  Unit style    : metal
  Current step  : 973833
  Time step     : 0.001
Per MPI rank memory allocation (min/avg/max) = 5.57 | 5.858 | 6.003 Mbytes
Step Temp Press TotEng PotEng Enthalpy 
  973833    1709.9852    91.288967   -55213.951   -59557.469    -55190.81 
 1000005    1686.1494    280.86583   -55319.393   -59602.366   -55248.356 
 1040005    1698.2262   -272.78671   -55269.531    -59583.18    -55338.72 
Loop time of 1854.62 on 6 procs for 66172 steps with 19652 atoms

Performance: 3.083 ns/day, 7.785 hours/ns, 35.680 timesteps/s
99.8% CPU use with 6 MPI tasks x no OpenMP threads

MPI task timing breakdown:
Section |  min time  |  avg time  |  max time  |%varavg| %total
---------------------------------------------------------------
Pair    | 995.68     | 1010.4     | 1027.9     |  34.4 | 54.48
Neigh   | 678.76     | 683.58     | 697.81     |  26.9 | 36.86
Comm    | 97.638     | 128.66     | 147.8      | 142.7 |  6.94
Output  | 0.041677   | 0.041744   | 0.041811   |   0.0 |  0.00
Modify  | 23.663     | 24.02      | 24.173     |   3.5 |  1.30
Other   |            | 7.958      |            |       |  0.43

Nlocal:    3275.33 ave 3291 max 3263 min
Histogram: 1 1 1 0 1 0 0 0 1 1
Nghost:    6643.67 ave 6669 max 6608 min
Histogram: 1 0 0 1 0 0 0 3 0 1
Neighs:    202282 ave 204825 max 199478 min
Histogram: 1 2 0 0 0 0 0 0 1 2

Total # of neighbors = 1213691
Ave neighs/atom = 61.7592
Neighbor list builds = 66172
Dangerous builds not checked
Setting up Verlet run ...
  Unit style    : metal
  Current step  : 1040005
  Time step     : 0.001
Per MPI rank memory allocation (min/avg/max) = 5.57 | 5.858 | 6.003 Mbytes
Step Temp Press TotEng PotEng Enthalpy 
 1040005    1698.2262   -272.78671   -55269.531    -59583.18    -55338.72 
 1040500    1648.3213     889.1885    -55493.51   -59680.396   -55269.581 
Loop time of 13.4706 on 6 procs for 495 steps with 19652 atoms

Performance: 3.175 ns/day, 7.559 hours/ns, 36.747 timesteps/s
99.8% CPU use with 6 MPI tasks x no OpenMP threads

MPI task timing breakdown:
Section |  min time  |  avg time  |  max time  |%varavg| %total
---------------------------------------------------------------
Pair    | 7.213      | 7.3807     | 7.5706     |   4.9 | 54.79
Neigh   | 4.8873     | 4.9844     | 5.039      |   2.3 | 37.00
Comm    | 0.62534    | 0.87166    | 1.1416     |  19.0 |  6.47
Output  | 7.1049e-05 | 9.0043e-05 | 0.0001421  |   0.0 |  0.00
Modify  | 0.17306    | 0.17548    | 0.17692    |   0.3 |  1.30
Other   |            | 0.05835    |            |       |  0.43

Nlocal:    3275.33 ave 3288 max 3258 min
Histogram: 1 0 0 0 0 2 1 0 1 1
Nghost:    6655.67 ave 6716 max 6620 min
Histogram: 1 1 2 0 0 1 0 0 0 1
Neighs:    203776 ave 207573 max 198044 min
Histogram: 1 0 0 1 0 0 1 1 1 1

Total # of neighbors = 1222658
Ave neighs/atom = 62.2154
Neighbor list builds = 495
Dangerous builds not checked
Setting up Verlet run ...
  Unit style    : metal
  Current step  : 1040500
  Time step     : 0.001
Per MPI rank memory allocation (min/avg/max) = 5.57 | 5.858 | 6.003 Mbytes
Step Temp Press TotEng PotEng Enthalpy 
 1040500    1648.3213     889.1885    -55493.51   -59680.396   -55269.581 
 1066672    1649.9982    625.91725   -55578.921   -59770.067   -55421.432 
 1106672    1638.8464   -257.33683   -55596.481     -59759.3   -55661.273 
Loop time of 1942.07 on 6 procs for 66172 steps with 19652 atoms

Performance: 2.944 ns/day, 8.152 hours/ns, 34.073 timesteps/s
99.8% CPU use with 6 MPI tasks x no OpenMP threads

MPI task timing breakdown:
Section |  min time  |  avg time  |  max time  |%varavg| %total
---------------------------------------------------------------
Pair    | 1054.7     | 1069.2     | 1083.9     |  26.4 | 55.06
Neigh   | 683.35     | 691.02     | 700.19     |  20.2 | 35.58
Comm    | 132.63     | 147.93     | 166.87     |  96.9 |  7.62
Output  | 0.060878   | 0.060904   | 0.061007   |   0.0 |  0.00
Modify  | 25.701     | 25.791     | 25.919     |   1.5 |  1.33
Other   |            | 8.045      |            |       |  0.41

Nlocal:    3275.33 ave 3296 max 3247 min
Histogram: 1 0 0 0 1 2 0 0 1 1
Nghost:    6662 ave 6679 max 6652 min
Histogram: 3 0 0 0 1 0 0 1 0 1
Neighs:    203909 ave 207684 max 200574 min
Histogram: 1 1 1 0 0 1 0 0 1 1

Total # of neighbors = 1223455
Ave neighs/atom = 62.256
Neighbor list builds = 66172
Dangerous builds not checked
Setting up Verlet run ...
  Unit style    : metal
  Current step  : 1106672
  Time step     : 0.001
Per MPI rank memory allocation (min/avg/max) = 5.57 | 5.858 | 6.003 Mbytes
Step Temp Press TotEng PotEng Enthalpy 
 1106672    1638.8464   -257.33683   -55596.481     -59759.3   -55661.273 
 1107167    1613.7629    -530.0517   -55770.008   -59869.113   -55903.062 
Loop time of 14.5695 on 6 procs for 495 steps with 19652 atoms

Performance: 2.935 ns/day, 8.176 hours/ns, 33.975 timesteps/s
99.8% CPU use with 6 MPI tasks x no OpenMP threads

MPI task timing breakdown:
Section |  min time  |  avg time  |  max time  |%varavg| %total
---------------------------------------------------------------
Pair    | 7.998      | 8.0865     | 8.1902     |   2.5 | 55.50
Neigh   | 4.9598     | 5.0016     | 5.0385     |   1.1 | 34.33
Comm    | 1.1126     | 1.2276     | 1.3474     |   8.0 |  8.43
Output  | 7.5817e-05 | 0.00011496 | 0.00018001 |   0.0 |  0.00
Modify  | 0.19142    | 0.19373    | 0.19582    |   0.3 |  1.33
Other   |            | 0.05995    |            |       |  0.41

Nlocal:    3275.33 ave 3286 max 3264 min
Histogram: 2 0 0 1 0 0 0 0 2 1
Nghost:    6687.67 ave 6705 max 6661 min
Histogram: 1 0 0 1 0 1 0 1 0 2
Neighs:    204446 ave 207794 max 201340 min
Histogram: 2 0 0 1 0 0 1 0 1 1

Total # of neighbors = 1226674
Ave neighs/atom = 62.4198
Neighbor list builds = 495
Dangerous builds not checked
Setting up Verlet run ...
  Unit style    : metal
  Current step  : 1107167
  Time step     : 0.001
Per MPI rank memory allocation (min/avg/max) = 5.57 | 5.858 | 6.003 Mbytes
Step Temp Press TotEng PotEng Enthalpy 
 1107167    1613.7629    -530.0517   -55770.008   -59869.113   -55903.062 
 1133339    1588.4541    865.33113   -55869.795   -59904.613   -55653.462 
 1173339    1599.3779    153.21586   -55863.369   -59925.935   -55825.045 
Loop time of 1961.78 on 6 procs for 66172 steps with 19652 atoms

Performance: 2.914 ns/day, 8.235 hours/ns, 33.731 timesteps/s
99.8% CPU use with 6 MPI tasks x no OpenMP threads

MPI task timing breakdown:
Section |  min time  |  avg time  |  max time  |%varavg| %total
---------------------------------------------------------------
Pair    | 1072.4     | 1083.4     | 1093.8     |  24.6 | 55.22
Neigh   | 684.58     | 690.72     | 698.67     |  19.5 | 35.21
Comm    | 136.11     | 154.52     | 167.99     |  93.8 |  7.88
Output  | 0.01399    | 0.014023   | 0.014106   |   0.0 |  0.00
Modify  | 25.006     | 25.22      | 25.379     |   2.2 |  1.29
Other   |            | 7.947      |            |       |  0.41

Nlocal:    3275.33 ave 3299 max 3236 min
Histogram: 1 0 0 1 0 0 1 0 2 1
Nghost:    6700.67 ave 6761 max 6666 min
Histogram: 2 0 2 0 0 0 1 0 0 1
Neighs:    205254 ave 208577 max 199008 min
Histogram: 1 0 0 0 1 0 0 2 0 2

Total # of neighbors = 1231521
Ave neighs/atom = 62.6664
Neighbor list builds = 66172
Dangerous builds not checked
Setting up Verlet run ...
  Unit style    : metal
  Current step  : 1173339
  Time step     : 0.001
Per MPI rank memory allocation (min/avg/max) = 5.57 | 5.858 | 6.003 Mbytes
Step Temp Press TotEng PotEng Enthalpy 
 1173339    1599.3779    153.21586   -55863.369   -59925.935   -55825.045 
 1173834    1562.9128     132.1578   -56046.231   -60016.172    -56013.27 
Loop time of 15.5603 on 6 procs for 495 steps with 19652 atoms

Performance: 2.749 ns/day, 8.732 hours/ns, 31.812 timesteps/s
99.8% CPU use with 6 MPI tasks x no OpenMP threads

MPI task timing breakdown:
Section |  min time  |  avg time  |  max time  |%varavg| %total
---------------------------------------------------------------
Pair    | 8.5835     | 8.7516     | 8.8662     |   3.2 | 56.24
Neigh   | 5.065      | 5.1493     | 5.2339     |   2.3 | 33.09
Comm    | 1.301      | 1.3968     | 1.6545     |  10.8 |  8.98
Output  | 7.4863e-05 | 0.00011214 | 0.0001421  |   0.0 |  0.00
Modify  | 0.19747    | 0.20003    | 0.20254    |   0.3 |  1.29
Other   |            | 0.06241    |            |       |  0.40

Nlocal:    3275.33 ave 3297 max 3257 min
Histogram: 1 0 2 0 1 0 0 0 1 1
Nghost:    6701.33 ave 6734 max 6668 min
Histogram: 1 0 1 0 2 0 0 0 1 1
Neighs:    205777 ave 209628 max 202568 min
Histogram: 1 0 2 0 1 0 0 0 1 1

Total # of neighbors = 1234660
Ave neighs/atom = 62.8262
Neighbor list builds = 495
Dangerous builds not checked
Setting up Verlet run ...
  Unit style    : metal
  Current step  : 1173834
  Time step     : 0.001
Per MPI rank memory allocation (min/avg/max) = 5.57 | 5.858 | 6.003 Mbytes
Step Temp Press TotEng PotEng Enthalpy 
 1173834    1562.9128     132.1578   -56046.231   -60016.172    -56013.27 
 1200006    1543.0009   -1061.1517   -56124.704   -60044.067   -56389.844 
 1240006    1543.5381   -729.27044   -56114.506   -60035.234   -56296.684 
Loop time of 1988.19 on 6 procs for 66172 steps with 19652 atoms

Performance: 2.876 ns/day, 8.346 hours/ns, 33.282 timesteps/s
99.7% CPU use with 6 MPI tasks x no OpenMP threads

MPI task timing breakdown:
Section |  min time  |  avg time  |  max time  |%varavg| %total
---------------------------------------------------------------
Pair    | 1082.5     | 1097.9     | 1105.5     |  27.8 | 55.22
Neigh   | 686.36     | 691.55     | 699.44     |  18.1 | 34.78
Comm    | 148.04     | 163.34     | 184.29     |  95.7 |  8.22
Output  | 0.013508   | 0.013549   | 0.01363    |   0.0 |  0.00
Modify  | 26.503     | 26.876     | 27.36      |   6.2 |  1.35
Other   |            | 8.468      |            |       |  0.43

Nlocal:    3275.33 ave 3297 max 3258 min
Histogram: 1 0 1 0 2 1 0 0 0 1
Nghost:    6685.5 ave 6716 max 6650 min
Histogram: 1 0 0 0 2 1 0 0 1 1
Neighs:    205475 ave 208380 max 201835 min
Histogram: 2 0 0 0 0 1 0 0 2 1

Total # of neighbors = 1232852
Ave neighs/atom = 62.7342
Neighbor list builds = 66172
Dangerous builds not checked
Setting up Verlet run ...
  Unit style    : metal
  Current step  : 1240006
  Time step     : 0.001
Per MPI rank memory allocation (min/avg/max) = 5.57 | 5.858 | 6.003 Mbytes
Step Temp Press TotEng PotEng Enthalpy 
 1240006    1543.5381   -729.27044   -56114.506   -60035.234   -56296.684 
 1240501     1504.784    324.64076   -56302.393   -60124.682    -56221.79 
Loop time of 13.9072 on 6 procs for 495 steps with 19652 atoms

Performance: 3.075 ns/day, 7.804 hours/ns, 35.593 timesteps/s
99.7% CPU use with 6 MPI tasks x no OpenMP threads

MPI task timing breakdown:
Section |  min time  |  avg time  |  max time  |%varavg| %total
---------------------------------------------------------------
Pair    | 7.3929     | 7.5936     | 7.8308     |   6.0 | 54.60
Neigh   | 4.9329     | 5.015      | 5.1088     |   2.6 | 36.06
Comm    | 0.69995    | 1.0283     | 1.2863     |  21.7 |  7.39
Output  | 7.391e-05  | 9.2546e-05 | 0.00017214 |   0.0 |  0.00
Modify  | 0.20422    | 0.20694    | 0.20882    |   0.4 |  1.49
Other   |            | 0.06324    |            |       |  0.45

Nlocal:    3275.33 ave 3282 max 3266 min
Histogram: 1 0 0 0 1 1 0 2 0 1
Nghost:    6732 ave 6768 max 6699 min
Histogram: 1 0 1 0 2 0 1 0 0 1
Neighs:    206788 ave 210361 max 203264 min
Histogram: 2 0 0 0 1 0 1 0 1 1

Total # of neighbors = 1240730
Ave neighs/atom = 63.135
Neighbor list builds = 495
Dangerous builds not checked
Setting up Verlet run ...
  Unit style    : metal
  Current step  : 1240501
  Time step     : 0.001
Per MPI rank memory allocation (min/avg/max) = 5.57 | 5.858 | 6.003 Mbytes
Step Temp Press TotEng PotEng Enthalpy 
 1240501     1504.784    324.64076   -56302.393   -60124.682    -56221.79 
 1266673     1509.819   -1065.4211    -56390.76   -60225.838    -56655.26 
 1306673    1514.9196    249.35561   -56351.704   -60199.738   -56289.921 
Loop time of 1863.52 on 6 procs for 66172 steps with 19652 atoms

Performance: 3.068 ns/day, 7.823 hours/ns, 35.509 timesteps/s
99.7% CPU use with 6 MPI tasks x no OpenMP threads

MPI task timing breakdown:
Section |  min time  |  avg time  |  max time  |%varavg| %total
---------------------------------------------------------------
Pair    | 1007.1     | 1021.5     | 1033.2     |  27.4 | 54.81
Neigh   | 679.57     | 684.24     | 689.58     |  15.4 | 36.72
Comm    | 110.76     | 124.3      | 142.37     |  88.0 |  6.67
Output  | 0.01386    | 0.013885   | 0.013999   |   0.0 |  0.00
Modify  | 24.444     | 24.653     | 24.801     |   2.5 |  1.32
Other   |            | 8.833      |            |       |  0.47

Nlocal:    3275.33 ave 3285 max 3260 min
Histogram: 1 0 1 0 0 0 0 1 1 2
Nghost:    6714.33 ave 6746 max 6683 min
Histogram: 1 0 1 1 1 0 0 0 0 2
Neighs:    207142 ave 210926 max 202872 min
Histogram: 1 0 0 1 2 0 0 0 0 2

Total # of neighbors = 1242852
Ave neighs/atom = 63.243
Neighbor list builds = 66172
Dangerous builds not checked
Setting up Verlet run ...
  Unit style    : metal
  Current step  : 1306673
  Time step     : 0.001
Per MPI rank memory allocation (min/avg/max) = 5.57 | 5.858 | 6.003 Mbytes
Step Temp Press TotEng PotEng Enthalpy 
 1306673    1514.9196    249.35561   -56351.704   -60199.738   -56289.921 
 1307168    1474.3398    181.71352   -56583.753    -60328.71    -56538.89 
Loop time of 13.1267 on 6 procs for 495 steps with 19652 atoms

Performance: 3.258 ns/day, 7.366 hours/ns, 37.709 timesteps/s
99.8% CPU use with 6 MPI tasks x no OpenMP threads

MPI task timing breakdown:
Section |  min time  |  avg time  |  max time  |%varavg| %total
---------------------------------------------------------------
Pair    | 7.117      | 7.2317     | 7.3626     |   3.1 | 55.09
Neigh   | 4.8134     | 4.9043     | 4.9707     |   2.4 | 37.36
Comm    | 0.64333    | 0.75875    | 0.88369    |  10.8 |  5.78
Output  | 6.6996e-05 | 9.9778e-05 | 0.00022388 |   0.0 |  0.00
Modify  | 0.17003    | 0.17355    | 0.17714    |   0.6 |  1.32
Other   |            | 0.05831    |            |       |  0.44

Nlocal:    3275.33 ave 3286 max 3253 min
Histogram: 1 0 0 0 0 1 1 0 0 3
Nghost:    6716.5 ave 6741 max 6688 min
Histogram: 1 1 0 0 0 2 0 0 0 2
Neighs:    207908 ave 212201 max 205200 min
Histogram: 1 2 0 1 0 0 0 1 0 1

Total # of neighbors = 1247448
Ave neighs/atom = 63.4769
Neighbor list builds = 495
Dangerous builds not checked
Setting up Verlet run ...
  Unit style    : metal
  Current step  : 1307168
  Time step     : 0.001
Per MPI rank memory allocation (min/avg/max) = 5.57 | 5.858 | 6.003 Mbytes
Step Temp Press TotEng PotEng Enthalpy 
 1307168    1474.3398    181.71352   -56583.753    -60328.71    -56538.89 
 1333340    1456.8361    948.23655   -56654.467   -60354.964   -56421.275 
 1373340    1451.0512   -746.55126   -56677.727    -60363.53   -56862.106 
Loop time of 1861.76 on 6 procs for 66172 steps with 19652 atoms

Performance: 3.071 ns/day, 7.815 hours/ns, 35.543 timesteps/s
99.7% CPU use with 6 MPI tasks x no OpenMP threads

MPI task timing breakdown:
Section |  min time  |  avg time  |  max time  |%varavg| %total
---------------------------------------------------------------
Pair    | 1006.3     | 1020.9     | 1031.8     |  27.7 | 54.84
Neigh   | 675.88     | 681.8      | 687.99     |  16.0 | 36.62
Comm    | 109.39     | 125.13     | 140.4      |  89.2 |  6.72
Output  | 0.014499   | 0.014522   | 0.014629   |   0.0 |  0.00
Modify  | 24.784     | 25.259     | 25.499     |   5.2 |  1.36
Other   |            | 8.654      |            |       |  0.46

Nlocal:    3275.33 ave 3305 max 3247 min
Histogram: 1 0 1 0 1 1 0 1 0 1
Nghost:    6733.33 ave 6765 max 6705 min
Histogram: 1 1 0 0 0 3 0 0 0 1
Neighs:    207895 ave 212789 max 204447 min
Histogram: 2 1 0 0 0 0 2 0 0 1

Total # of neighbors = 1247372
Ave neighs/atom = 63.473
Neighbor list builds = 66172
Dangerous builds not checked
Setting up Verlet run ...
  Unit style    : metal
  Current step  : 1373340
  Time step     : 0.001
Per MPI rank memory allocation (min/avg/max) = 5.57 | 5.858 | 6.003 Mbytes
Step Temp Press TotEng PotEng Enthalpy 
 1373340    1451.0512   -746.55126   -56677.727    -60363.53   -56862.106 
 1373835    1407.5273    485.46929   -56896.901   -60472.148   -56777.764 
Loop time of 14.1681 on 6 procs for 495 steps with 19652 atoms

Performance: 3.019 ns/day, 7.951 hours/ns, 34.938 timesteps/s
99.7% CPU use with 6 MPI tasks x no OpenMP threads

MPI task timing breakdown:
Section |  min time  |  avg time  |  max time  |%varavg| %total
---------------------------------------------------------------
Pair    | 7.5965     | 7.776      | 8.0527     |   5.5 | 54.88
Neigh   | 4.9202     | 5.0063     | 5.1437     |   3.4 | 35.34
Comm    | 0.77622    | 1.097      | 1.3179     |  19.9 |  7.74
Output  | 7.5102e-05 | 9.803e-05  | 0.00018501 |   0.0 |  0.00
Modify  | 0.20947    | 0.21993    | 0.22615    |   1.6 |  1.55
Other   |            | 0.06877    |            |       |  0.49

Nlocal:    3275.33 ave 3306 max 3255 min
Histogram: 2 0 1 1 0 0 1 0 0 1
Nghost:    6747 ave 6785 max 6718 min
Histogram: 1 1 0 1 1 1 0 0 0 1
Neighs:    209222 ave 211863 max 206898 min
Histogram: 1 1 1 0 0 0 0 2 0 1

Total # of neighbors = 1255329
Ave neighs/atom = 63.8779
Neighbor list builds = 495
Dangerous builds not checked
Setting up Verlet run ...
  Unit style    : metal
  Current step  : 1373835
  Time step     : 0.001
Per MPI rank memory allocation (min/avg/max) = 5.57 | 5.858 | 6.003 Mbytes
Step Temp Press TotEng PotEng Enthalpy 
 1373835    1407.5273    485.46929   -56896.901   -60472.148   -56777.764 
 1400007     1396.935     -126.623   -56992.443   -60540.785   -57023.459 
 1440007    1394.2953   -363.22987   -57016.297   -60557.934   -57105.346 
Loop time of 1867.58 on 6 procs for 66172 steps with 19652 atoms

Performance: 3.061 ns/day, 7.840 hours/ns, 35.432 timesteps/s
99.7% CPU use with 6 MPI tasks x no OpenMP threads

MPI task timing breakdown:
Section |  min time  |  avg time  |  max time  |%varavg| %total
---------------------------------------------------------------
Pair    | 1015.7     | 1025.2     | 1034.9     |  22.3 | 54.90
Neigh   | 672.78     | 679.3      | 687.45     |  18.8 | 36.37
Comm    | 110.73     | 128.19     | 137.26     |  82.7 |  6.86
Output  | 0.014332   | 0.014355   | 0.014464   |   0.0 |  0.00
Modify  | 25.56      | 25.718     | 25.924     |   2.2 |  1.38
Other   |            | 9.117      |            |       |  0.49

Nlocal:    3275.33 ave 3293 max 3254 min
Histogram: 1 0 1 0 0 1 1 0 1 1
Nghost:    6735.33 ave 6776 max 6695 min
Histogram: 1 1 0 1 1 0 0 0 0 2
Neighs:    209430 ave 213305 max 205181 min
Histogram: 1 0 1 1 0 0 1 0 1 1

Total # of neighbors = 1256581
Ave neighs/atom = 63.9416
Neighbor list builds = 66172
Dangerous builds not checked
Setting up Verlet run ...
  Unit style    : metal
  Current step  : 1440007
  Time step     : 0.001
Per MPI rank memory allocation (min/avg/max) = 5.57 | 5.858 | 6.003 Mbytes
Step Temp Press TotEng PotEng Enthalpy 
 1440007    1394.2953   -363.22987   -57016.297   -60557.934   -57105.346 
 1440502    1363.8467    210.95702   -57187.873   -60652.168   -57136.381 
Loop time of 13.0117 on 6 procs for 495 steps with 19652 atoms

Performance: 3.287 ns/day, 7.302 hours/ns, 38.043 timesteps/s
99.8% CPU use with 6 MPI tasks x no OpenMP threads

MPI task timing breakdown:
Section |  min time  |  avg time  |  max time  |%varavg| %total
---------------------------------------------------------------
Pair    | 7.0464     | 7.1528     | 7.2311     |   2.5 | 54.97
Neigh   | 4.8998     | 4.9249     | 4.9549     |   0.9 | 37.85
Comm    | 0.57606    | 0.67954    | 0.79708    |   9.5 |  5.22
Output  | 7.2956e-05 | 8.9844e-05 | 0.00014806 |   0.0 |  0.00
Modify  | 0.16997    | 0.17154    | 0.17418    |   0.4 |  1.32
Other   |            | 0.08286    |            |       |  0.64

Nlocal:    3275.33 ave 3281 max 3270 min
Histogram: 1 0 0 0 3 1 0 0 0 1
Nghost:    6742.67 ave 6768 max 6713 min
Histogram: 1 0 0 2 0 0 1 0 0 2
Neighs:    210441 ave 212800 max 206762 min
Histogram: 1 0 1 0 0 1 0 0 1 2

Total # of neighbors = 1262648
Ave neighs/atom = 64.2504
Neighbor list builds = 495
Dangerous builds not checked
Setting up Verlet run ...
  Unit style    : metal
  Current step  : 1440502
  Time step     : 0.001
Per MPI rank memory allocation (min/avg/max) = 5.57 | 5.858 | 6.003 Mbytes
Step Temp Press TotEng PotEng Enthalpy 
 1440502    1363.8467    210.95702   -57187.873   -60652.168   -57136.381 
 1466674    1347.0876    588.59704   -57280.959   -60702.684   -57137.703 
 1506674    1351.8687    727.90052   -57279.391   -60713.261     -57102.2 
Loop time of 1795.32 on 6 procs for 66172 steps with 19652 atoms

Performance: 3.185 ns/day, 7.536 hours/ns, 36.858 timesteps/s
99.6% CPU use with 6 MPI tasks x no OpenMP threads

MPI task timing breakdown:
Section |  min time  |  avg time  |  max time  |%varavg| %total
---------------------------------------------------------------
Pair    | 971.09     | 988.17     | 997.71     |  27.5 | 55.04
Neigh   | 667.8      | 672.86     | 678.42     |  13.6 | 37.48
Comm    | 88.621     | 98.504     | 117.77     |  94.5 |  5.49
Output  | 0.013596   | 0.013639   | 0.013845   |   0.1 |  0.00
Modify  | 25.642     | 25.861     | 26.365     |   5.2 |  1.44
Other   |            | 9.918      |            |       |  0.55

Nlocal:    3275.33 ave 3296 max 3260 min
Histogram: 1 1 0 1 1 0 1 0 0 1
Nghost:    6752.67 ave 6767 max 6741 min
Histogram: 1 0 2 1 0 0 0 0 1 1
Neighs:    210956 ave 215241 max 207465 min
Histogram: 1 2 0 0 0 1 0 0 1 1

Total # of neighbors = 1265738
Ave neighs/atom = 64.4076
Neighbor list builds = 66172
Dangerous builds not checked
Setting up Verlet run ...
  Unit style    : metal
  Current step  : 1506674
  Time step     : 0.001
Per MPI rank memory allocation (min/avg/max) = 5.57 | 5.858 | 6.003 Mbytes
Step Temp Press TotEng PotEng Enthalpy 
 1506674    1351.8687    727.90052   -57279.391   -60713.261     -57102.2 
 1507169    1320.9435    460.92364    -57454.68   -60809.996   -57342.898 
Loop time of 13.0331 on 6 procs for 495 steps with 19652 atoms

Performance: 3.281 ns/day, 7.314 hours/ns, 37.980 timesteps/s
99.7% CPU use with 6 MPI tasks x no OpenMP threads

MPI task timing breakdown:
Section |  min time  |  avg time  |  max time  |%varavg| %total
---------------------------------------------------------------
Pair    | 7.1069     | 7.2121     | 7.2852     |   2.5 | 55.34
Neigh   | 4.8085     | 4.8813     | 4.9753     |   2.4 | 37.45
Comm    | 0.61128    | 0.69726    | 0.80178    |   8.7 |  5.35
Output  | 8.0109e-05 | 0.00011623 | 0.00027704 |   0.0 |  0.00
Modify  | 0.1713     | 0.17196    | 0.173      |   0.1 |  1.32
Other   |            | 0.07036    |            |       |  0.54

Nlocal:    3275.33 ave 3297 max 3252 min
Histogram: 1 0 1 1 0 1 0 0 0 2
Nghost:    6780.5 ave 6810 max 6731 min
Histogram: 1 0 0 1 0 1 0 0 2 1
Neighs:    211767 ave 214812 max 208139 min
Histogram: 1 0 1 1 0 0 0 0 2 1

Total # of neighbors = 1270603
Ave neighs/atom = 64.6551
Neighbor list builds = 495
Dangerous builds not checked
Setting up Verlet run ...
  Unit style    : metal
  Current step  : 1507169
  Time step     : 0.001
Per MPI rank memory allocation (min/avg/max) = 5.57 | 5.858 | 6.003 Mbytes
Step Temp Press TotEng PotEng Enthalpy 
 1507169    1320.9435    460.92364    -57454.68   -60809.996   -57342.898 
 1533341    1303.2722    104.51061    -57575.63   -60886.061   -57550.314 
 1573341    1287.5688   -753.36943   -57555.699   -60826.241   -57738.709 
Loop time of 1794.61 on 6 procs for 66172 steps with 19652 atoms

Performance: 3.186 ns/day, 7.533 hours/ns, 36.873 timesteps/s
99.7% CPU use with 6 MPI tasks x no OpenMP threads

MPI task timing breakdown:
Section |  min time  |  avg time  |  max time  |%varavg| %total
---------------------------------------------------------------
Pair    | 975.76     | 989.27     | 999.5      |  29.1 | 55.12
Neigh   | 668.42     | 672.95     | 678.72     |  14.5 | 37.50
Comm    | 85.919     | 98.445     | 114.92     | 102.1 |  5.49
Output  | 0.013528   | 0.013568   | 0.013758   |   0.1 |  0.00
Modify  | 24.061     | 24.177     | 24.487     |   2.9 |  1.35
Other   |            | 9.762      |            |       |  0.54

Nlocal:    3275.33 ave 3288 max 3257 min
Histogram: 1 0 0 0 1 1 1 0 1 1
Nghost:    6789 ave 6805 max 6780 min
Histogram: 1 1 2 0 0 1 0 0 0 1
Neighs:    211439 ave 216049 max 207412 min
Histogram: 2 0 0 0 1 1 0 1 0 1

Total # of neighbors = 1268634
Ave neighs/atom = 64.555
Neighbor list builds = 66172
Dangerous builds not checked
Setting up Verlet run ...
  Unit style    : metal
  Current step  : 1573341
  Time step     : 0.001
Per MPI rank memory allocation (min/avg/max) = 5.57 | 5.858 | 6.003 Mbytes
Step Temp Press TotEng PotEng Enthalpy 
 1573341    1287.5688   -753.36943   -57555.699   -60826.241   -57738.709 
 1573836    1257.5796   -330.30608   -57753.588   -60947.955   -57833.456 
Loop time of 13.2765 on 6 procs for 495 steps with 19652 atoms

Performance: 3.221 ns/day, 7.450 hours/ns, 37.284 timesteps/s
99.8% CPU use with 6 MPI tasks x no OpenMP threads

MPI task timing breakdown:
Section |  min time  |  avg time  |  max time  |%varavg| %total
---------------------------------------------------------------
Pair    | 7.2136     | 7.3237     | 7.3992     |   2.9 | 55.16
Neigh   | 4.8702     | 4.9296     | 4.9775     |   1.5 | 37.13
Comm    | 0.65503    | 0.7746     | 0.88734    |   9.8 |  5.83
Output  | 7.5102e-05 | 0.00011587 | 0.00028896 |   0.0 |  0.00
Modify  | 0.17201    | 0.17316    | 0.17535    |   0.3 |  1.30
Other   |            | 0.07532    |            |       |  0.57

Nlocal:    3275.33 ave 3291 max 3253 min
Histogram: 1 0 0 0 1 1 0 1 1 1
Nghost:    6778.17 ave 6815 max 6742 min
Histogram: 1 1 1 0 0 0 1 0 0 2
Neighs:    212435 ave 217481 max 208901 min
Histogram: 1 2 0 0 0 1 1 0 0 1

Total # of neighbors = 1274608
Ave neighs/atom = 64.8589
Neighbor list builds = 495
Dangerous builds not checked
Setting up Verlet run ...
  Unit style    : metal
  Current step  : 1573836
  Time step     : 0.001
Per MPI rank memory allocation (min/avg/max) = 5.57 | 5.858 | 6.003 Mbytes
Step Temp Press TotEng PotEng Enthalpy 
 1573836    1257.5796   -330.30608   -57753.588   -60947.955   -57833.456 
 1600008    1243.9822   -610.18605   -57853.781   -61013.609   -58001.108 
 1640008    1247.9951    675.69583   -57872.826   -61042.847   -57710.176 
Loop time of 1827.38 on 6 procs for 66172 steps with 19652 atoms

Performance: 3.129 ns/day, 7.671 hours/ns, 36.211 timesteps/s
99.7% CPU use with 6 MPI tasks x no OpenMP threads

MPI task timing breakdown:
Section |  min time  |  avg time  |  max time  |%varavg| %total
---------------------------------------------------------------
Pair    | 986.81     | 1005.4     | 1014.5     |  29.9 | 55.02
Neigh   | 666.01     | 672.39     | 677.52     |  17.5 | 36.80
Comm    | 104.22     | 116.46     | 138.57     | 103.9 |  6.37
Output  | 0.013566   | 0.013611   | 0.013687   |   0.0 |  0.00
Modify  | 24.179     | 24.309     | 24.44      |   1.9 |  1.33
Other   |            | 8.864      |            |       |  0.49

Nlocal:    3275.33 ave 3295 max 3249 min
Histogram: 1 1 0 0 0 0 0 2 1 1
Nghost:    6819.67 ave 6836 max 6781 min
Histogram: 1 0 0 0 0 0 1 0 3 1
Neighs:    213374 ave 215750 max 208422 min
Histogram: 1 0 0 0 1 0 0 0 2 2

Total # of neighbors = 1280245
Ave neighs/atom = 65.1458
Neighbor list builds = 66172
Dangerous builds not checked
Setting up Verlet run ...
  Unit style    : metal
  Current step  : 1640008
  Time step     : 0.001
Per MPI rank memory allocation (min/avg/max) = 5.57 | 5.858 | 6.003 Mbytes
Step Temp Press TotEng PotEng Enthalpy 
 1640008    1247.9951    675.69583   -57872.826   -61042.847   -57710.176 
 1640503    1216.5042    597.93769   -58031.881   -61121.913   -57888.344 
Loop time of 13.2042 on 6 procs for 495 steps with 19652 atoms

Performance: 3.239 ns/day, 7.410 hours/ns, 37.488 timesteps/s
99.9% CPU use with 6 MPI tasks x no OpenMP threads

MPI task timing breakdown:
Section |  min time  |  avg time  |  max time  |%varavg| %total
---------------------------------------------------------------
Pair    | 7.1539     | 7.2493     | 7.426      |   3.3 | 54.90
Neigh   | 4.878      | 4.9101     | 4.9997     |   1.9 | 37.19
Comm    | 0.56546    | 0.8099     | 0.93686    |  13.4 |  6.13
Output  | 6.9857e-05 | 8.3725e-05 | 0.00013685 |   0.0 |  0.00
Modify  | 0.16185    | 0.1667     | 0.16909    |   0.6 |  1.26
Other   |            | 0.068      |            |       |  0.52

Nlocal:    3275.33 ave 3294 max 3262 min
Histogram: 2 0 1 0 0 1 1 0 0 1
Nghost:    6819.33 ave 6831 max 6800 min
Histogram: 1 0 1 0 0 0 1 0 0 3
Neighs:    213873 ave 217699 max 210240 min
Histogram: 2 0 1 0 0 0 1 0 0 2

Total # of neighbors = 1283239
Ave neighs/atom = 65.2981
Neighbor list builds = 495
Dangerous builds not checked
Setting up Verlet run ...
  Unit style    : metal
  Current step  : 1640503
  Time step     : 0.001
Per MPI rank memory allocation (min/avg/max) = 5.57 | 5.858 | 6.003 Mbytes
Step Temp Press TotEng PotEng Enthalpy 
 1640503    1216.5042    597.93769   -58031.881   -61121.913   -57888.344 
 1666675    1206.2982   -556.28876   -58119.512    -61183.62   -58253.065 
 1706675    1209.0728    713.50718   -58123.469   -61194.624   -57952.689 
Loop time of 1887.54 on 6 procs for 66172 steps with 19652 atoms

Performance: 3.029 ns/day, 7.924 hours/ns, 35.057 timesteps/s
99.8% CPU use with 6 MPI tasks x no OpenMP threads

MPI task timing breakdown:
Section |  min time  |  avg time  |  max time  |%varavg| %total
---------------------------------------------------------------
Pair    | 1028.5     | 1047.3     | 1069.9     |  47.8 | 55.48
Neigh   | 668.65     | 676.99     | 690.1      |  35.6 | 35.87
Comm    | 95.858     | 130.91     | 155.16     | 207.2 |  6.94
Output  | 0.01401    | 0.014045   | 0.014147   |   0.0 |  0.00
Modify  | 23.819     | 23.98      | 24.163     |   2.3 |  1.27
Other   |            | 8.363      |            |       |  0.44

Nlocal:    3275.33 ave 3290 max 3265 min
Histogram: 1 1 0 0 2 1 0 0 0 1
Nghost:    6829.83 ave 6872 max 6786 min
Histogram: 1 0 0 2 1 0 0 0 0 2
Neighs:    214622 ave 218643 max 211101 min
Histogram: 1 1 0 1 0 0 2 0 0 1

Total # of neighbors = 1287735
Ave neighs/atom = 65.5269
Neighbor list builds = 66172
Dangerous builds not checked
Setting up Verlet run ...
  Unit style    : metal
  Current step  : 1706675
  Time step     : 0.001
Per MPI rank memory allocation (min/avg/max) = 5.57 | 5.858 | 6.003 Mbytes
Step Temp Press TotEng PotEng Enthalpy 
 1706675    1209.0728    713.50718   -58123.469   -61194.624   -57952.689 
 1707170    1163.4033    832.92657   -58331.756   -61286.906   -58133.061 
Loop time of 13.8533 on 6 procs for 495 steps with 19652 atoms

Performance: 3.087 ns/day, 7.774 hours/ns, 35.732 timesteps/s
99.9% CPU use with 6 MPI tasks x no OpenMP threads

MPI task timing breakdown:
Section |  min time  |  avg time  |  max time  |%varavg| %total
---------------------------------------------------------------
Pair    | 7.4603     | 7.6655     | 8.0098     |   6.9 | 55.33
Neigh   | 4.8314     | 4.9033     | 5.0615     |   3.5 | 35.39
Comm    | 0.52769    | 1.0315     | 1.2713     |  25.3 |  7.45
Output  | 6.4135e-05 | 8.0307e-05 | 0.00013018 |   0.0 |  0.00
Modify  | 0.18616    | 0.188      | 0.19258    |   0.5 |  1.36
Other   |            | 0.0649     |            |       |  0.47

Nlocal:    3275.33 ave 3293 max 3252 min
Histogram: 2 0 0 0 0 0 1 0 1 2
Nghost:    6830.5 ave 6856 max 6803 min
Histogram: 1 0 0 1 1 1 0 1 0 1
Neighs:    215331 ave 219366 max 211220 min
[...]
Loop time of 15.2635 on 6 procs for 495 steps with 19652 atoms

Performance: 2.802 ns/day, 8.565 hours/ns, 32.430 timesteps/s
99.8% CPU use with 6 MPI tasks x no OpenMP threads

MPI task timing breakdown:
Section |  min time  |  avg time  |  max time  |%varavg| %total
---------------------------------------------------------------
Pair    | 8.191      | 8.379      | 8.5926     |   4.7 | 54.90
Neigh   | 5.2722     | 5.371      | 5.4549     |   2.8 | 35.19
Comm    | 1.0045     | 1.2569     | 1.4943     |  16.1 |  8.24
Output  | 8.2016e-05 | 0.00011075 | 0.00019217 |   0.0 |  0.00
Modify  | 0.18223    | 0.18528    | 0.18798    |   0.5 |  1.21
Other   |            | 0.07108    |            |       |  0.47

Nlocal:    3275.33 ave 3293 max 3266 min
Histogram: 3 1 0 0 0 0 0 0 1 1
Nghost:    7124 ave 7144 max 7104 min
Histogram: 1 1 1 0 0 0 0 1 0 2
Neighs:    235652 ave 238742 max 231625 min
Histogram: 1 0 0 2 0 0 0 0 2 1

Total # of neighbors = 1413910
Ave neighs/atom = 71.9474
Neighbor list builds = 495
Dangerous builds not checked
Setting up Verlet run ...
  Unit style    : metal
  Current step  : 2707175
  Time step     : 0.001
Per MPI rank memory allocation (min/avg/max) = 5.572 | 5.86 | 6.004 Mbytes
Step Temp Press TotEng PotEng Enthalpy 
 2707175    422.81725   -175.10863   -63139.017   -64213.011    -63177.23 
 2733347    399.64588    466.18365   -63309.677   -64324.814   -63208.331 
 2773347    401.77881   -58.043733   -63314.841   -64335.396   -63327.462 
Loop time of 1992.03 on 6 procs for 66172 steps with 19652 atoms

Performance: 2.870 ns/day, 8.362 hours/ns, 33.218 timesteps/s
99.0% CPU use with 6 MPI tasks x no OpenMP threads

MPI task timing breakdown:
Section |  min time  |  avg time  |  max time  |%varavg| %total
---------------------------------------------------------------
Pair    | 1059.9     | 1083.2     | 1108.2     |  46.8 | 54.37
Neigh   | 713.73     | 719.71     | 725.89     |  16.8 | 36.13
Comm    | 111.49     | 142.12     | 170.19     | 161.3 |  7.13
Output  | 0.013709   | 0.013783   | 0.014135   |   0.1 |  0.00
Modify  | 36.591     | 37.204     | 37.799     |   6.3 |  1.87
Other   |            | 9.828      |            |       |  0.49

Nlocal:    3275.33 ave 3298 max 3258 min
Histogram: 1 0 1 1 0 2 0 0 0 1
Nghost:    7134.33 ave 7160 max 7110 min
Histogram: 1 0 1 1 1 0 0 0 0 2
Neighs:    236491 ave 242114 max 233063 min
Histogram: 2 0 0 2 0 1 0 0 0 1

Total # of neighbors = 1418947
Ave neighs/atom = 72.2037
Neighbor list builds = 66172
Dangerous builds not checked
Setting up Verlet run ...
  Unit style    : metal
  Current step  : 2773347
  Time step     : 0.001
Per MPI rank memory allocation (min/avg/max) = 5.572 | 5.86 | 6.004 Mbytes
Step Temp Press TotEng PotEng Enthalpy 
 2773347    401.77881   -58.043733   -63314.841   -64335.396   -63327.462 
 2773842    369.60281   -212.89097   -63477.425   -64416.249   -63523.628 
Loop time of 15.2377 on 6 procs for 495 steps with 19652 atoms

Performance: 2.807 ns/day, 8.551 hours/ns, 32.485 timesteps/s
98.5% CPU use with 6 MPI tasks x no OpenMP threads

MPI task timing breakdown:
Section |  min time  |  avg time  |  max time  |%varavg| %total
---------------------------------------------------------------
Pair    | 7.7979     | 8.0032     | 8.2557     |   5.1 | 52.52
Neigh   | 5.2876     | 5.3411     | 5.3834     |   1.6 | 35.05
Comm    | 1.1224     | 1.4158     | 1.6687     |  15.1 |  9.29
Output  | 7.8917e-05 | 0.00011496 | 0.0002768  |   0.0 |  0.00
Modify  | 0.37836    | 0.40668    | 0.42052    |   2.2 |  2.67
Other   |            | 0.07076    |            |       |  0.46

Nlocal:    3275.33 ave 3299 max 3262 min
Histogram: 1 0 3 0 1 0 0 0 0 1
Nghost:    7140.83 ave 7160 max 7116 min
Histogram: 1 0 1 0 1 0 0 1 1 1
Neighs:    236899 ave 240331 max 233052 min
Histogram: 1 0 0 0 3 0 0 0 0 2

Total # of neighbors = 1421396
Ave neighs/atom = 72.3283
Neighbor list builds = 495
Dangerous builds not checked
Setting up Verlet run ...
  Unit style    : metal
  Current step  : 2773842
  Time step     : 0.001
Per MPI rank memory allocation (min/avg/max) = 5.572 | 5.86 | 6.004 Mbytes
Step Temp Press TotEng PotEng Enthalpy 
 2773842    369.60281   -212.89097   -63477.425   -64416.249   -63523.628 
 2800014    350.90723    91.905171   -63613.595   -64504.931   -63593.707 
 2840014     347.0402   -512.74211   -63643.706    -64525.22   -63754.742 
Loop time of 1932.89 on 6 procs for 66172 steps with 19652 atoms

Performance: 2.958 ns/day, 8.114 hours/ns, 34.235 timesteps/s
99.4% CPU use with 6 MPI tasks x no OpenMP threads

MPI task timing breakdown:
Section |  min time  |  avg time  |  max time  |%varavg| %total
---------------------------------------------------------------
Pair    | 1034.1     | 1056.1     | 1080.9     |  43.0 | 54.64
Neigh   | 709.21     | 716.53     | 722.57     |  17.0 | 37.07
Comm    | 91.73      | 123.16     | 147.69     | 159.7 |  6.37
Output  | 0.013632   | 0.013698   | 0.014007   |   0.1 |  0.00
Modify  | 27.074     | 27.345     | 27.595     |   3.5 |  1.41
Other   |            | 9.765      |            |       |  0.51

Nlocal:    3275.33 ave 3281 max 3268 min
Histogram: 2 0 0 0 0 0 1 1 1 1
Nghost:    7161.17 ave 7194 max 7151 min
Histogram: 3 2 0 0 0 0 0 0 0 1
Neighs:    237335 ave 241340 max 233094 min
Histogram: 1 0 1 0 2 0 0 0 0 2

Total # of neighbors = 1424009
Ave neighs/atom = 72.4613
Neighbor list builds = 66172
Dangerous builds not checked
Setting up Verlet run ...
  Unit style    : metal
  Current step  : 2840014
  Time step     : 0.001
Per MPI rank memory allocation (min/avg/max) = 5.572 | 5.86 | 6.004 Mbytes
Step Temp Press TotEng PotEng Enthalpy 
 2840014     347.0402   -512.74211   -63643.706    -64525.22   -63754.742 
 2840509    323.29848   -140.75211   -63781.988   -64603.196   -63812.387 
Loop time of 14.2567 on 6 procs for 495 steps with 19652 atoms

Performance: 3.000 ns/day, 8.000 hours/ns, 34.721 timesteps/s
99.6% CPU use with 6 MPI tasks x no OpenMP threads

MPI task timing breakdown:
Section |  min time  |  avg time  |  max time  |%varavg| %total
---------------------------------------------------------------
Pair    | 7.6189     | 7.7808     | 7.9714     |   3.9 | 54.58
Neigh   | 5.2603     | 5.322      | 5.3661     |   1.6 | 37.33
Comm    | 0.6526     | 0.89564    | 1.1011     |  15.6 |  6.28
Output  | 7.6056e-05 | 0.00011102 | 0.000278   |   0.0 |  0.00
Modify  | 0.18253    | 0.18398    | 0.18557    |   0.2 |  1.29
Other   |            | 0.07408    |            |       |  0.52

Nlocal:    3275.33 ave 3293 max 3264 min
Histogram: 2 0 2 0 0 0 0 1 0 1
Nghost:    7154.17 ave 7203 max 7100 min
Histogram: 1 0 0 1 1 1 0 1 0 1
Neighs:    237997 ave 242341 max 234152 min
Histogram: 1 0 1 2 0 0 0 0 1 1

Total # of neighbors = 1427983
Ave neighs/atom = 72.6635
Neighbor list builds = 495
Dangerous builds not checked
Setting up Verlet run ...
  Unit style    : metal
  Current step  : 2840509
  Time step     : 0.001
Per MPI rank memory allocation (min/avg/max) = 5.572 | 5.86 | 6.004 Mbytes
Step Temp Press TotEng PotEng Enthalpy 
 2840509    323.29848   -140.75211   -63781.988   -64603.196   -63812.387 
 2866681    299.23563   -118.06318   -63911.054    -64671.14    -63936.51 
 2906681    297.86778   -172.85144   -63927.378    -64683.99   -63964.645 
Loop time of 2017.09 on 6 procs for 66172 steps with 19652 atoms

Performance: 2.834 ns/day, 8.467 hours/ns, 32.806 timesteps/s
98.7% CPU use with 6 MPI tasks x no OpenMP threads

MPI task timing breakdown:
Section |  min time  |  avg time  |  max time  |%varavg| %total
---------------------------------------------------------------
Pair    | 1068.4     | 1092.8     | 1118.5     |  47.8 | 54.18
Neigh   | 708.71     | 717.36     | 724.74     |  20.7 | 35.56
Comm    | 122.01     | 155.78     | 181.23     | 161.6 |  7.72
Output  | 0.013717   | 0.013783   | 0.014094   |   0.1 |  0.00
Modify  | 40.858     | 41.506     | 42.191     |   7.0 |  2.06
Other   |            | 9.581      |            |       |  0.48

Nlocal:    3275.33 ave 3290 max 3267 min
Histogram: 3 0 1 0 0 0 0 0 1 1
Nghost:    7159.33 ave 7188 max 7139 min
Histogram: 2 0 1 0 0 1 0 1 0 1
Neighs:    238398 ave 242296 max 234828 min
Histogram: 1 0 1 1 1 0 0 0 1 1

Total # of neighbors = 1430386
Ave neighs/atom = 72.7858
Neighbor list builds = 66172
Dangerous builds not checked
Setting up Verlet run ...
  Unit style    : metal
  Current step  : 2906681
  Time step     : 0.001
Per MPI rank memory allocation (min/avg/max) = 5.572 | 5.86 | 6.004 Mbytes
Step Temp Press TotEng PotEng Enthalpy 
 2906681    297.86778   -172.85144   -63927.378    -64683.99   -63964.645 
 2907176    272.89971    277.54311   -64065.963   -64759.153   -64006.257 
Loop time of 14.3778 on 6 procs for 495 steps with 19652 atoms

Performance: 2.975 ns/day, 8.068 hours/ns, 34.428 timesteps/s
99.3% CPU use with 6 MPI tasks x no OpenMP threads

MPI task timing breakdown:
Section |  min time  |  avg time  |  max time  |%varavg| %total
---------------------------------------------------------------
Pair    | 7.7065     | 7.8486     | 8.0535     |   3.8 | 54.59
Neigh   | 5.234      | 5.3072     | 5.3404     |   1.5 | 36.91
Comm    | 0.73556    | 0.96839    | 1.1242     |  13.4 |  6.74
Output  | 8.0109e-05 | 9.7712e-05 | 0.00016713 |   0.0 |  0.00
Modify  | 0.17632    | 0.1788     | 0.18486    |   0.7 |  1.24
Other   |            | 0.07472    |            |       |  0.52

Nlocal:    3275.33 ave 3280 max 3269 min
Histogram: 1 0 1 0 1 0 0 0 1 2
Nghost:    7176.83 ave 7201 max 7160 min
Histogram: 1 1 0 2 0 1 0 0 0 1
Neighs:    238884 ave 242606 max 235149 min
Histogram: 2 0 0 0 0 2 0 0 1 1

Total # of neighbors = 1433301
Ave neighs/atom = 72.9341
Neighbor list builds = 495
Dangerous builds not checked
Setting up Verlet run ...
  Unit style    : metal
  Current step  : 2907176
  Time step     : 0.001
Per MPI rank memory allocation (min/avg/max) = 5.572 | 5.86 | 6.004 Mbytes
Step Temp Press TotEng PotEng Enthalpy 
 2907176    272.89971    277.54311   -64065.963   -64759.153   -64006.257 
 2933348    247.71205    63.414493   -64200.811   -64830.022   -64187.189 
 2973348    250.03432   -151.14691   -64209.623   -64844.733   -64242.091 
Loop time of 1923.54 on 6 procs for 66172 steps with 19652 atoms

Performance: 2.972 ns/day, 8.075 hours/ns, 34.401 timesteps/s
99.5% CPU use with 6 MPI tasks x no OpenMP threads

MPI task timing breakdown:
Section |  min time  |  avg time  |  max time  |%varavg| %total
---------------------------------------------------------------
Pair    | 1033.8     | 1054.5     | 1080.1     |  44.7 | 54.82
Neigh   | 704.57     | 713.51     | 720.47     |  20.5 | 37.09
Comm    | 87.76      | 120.09     | 145.11     | 181.2 |  6.24
Output  | 0.013555   | 0.0136     | 0.013807   |   0.1 |  0.00
Modify  | 25.491     | 25.874     | 26.334     |   5.0 |  1.35
Other   |            | 9.531      |            |       |  0.50

Nlocal:    3275.33 ave 3287 max 3265 min
Histogram: 3 0 0 0 0 0 1 0 0 2
Nghost:    7163.67 ave 7194 max 7129 min
Histogram: 1 0 1 0 1 0 0 2 0 1
Neighs:    239167 ave 242707 max 235431 min
Histogram: 1 1 0 1 0 0 1 0 1 1

Total # of neighbors = 1435001
Ave neighs/atom = 73.0206
Neighbor list builds = 66172
Dangerous builds not checked
Setting up Verlet run ...
  Unit style    : metal
  Current step  : 2973348
  Time step     : 0.001
Per MPI rank memory allocation (min/avg/max) = 5.572 | 5.86 | 6.004 Mbytes
Step Temp Press TotEng PotEng Enthalpy 
 2973348    250.03432   -151.14691   -64209.623   -64844.733   -64242.091 
 2973843    222.19081     82.30666   -64336.673   -64901.057   -64319.024 
Loop time of 14.3358 on 6 procs for 495 steps with 19652 atoms

Performance: 2.983 ns/day, 8.045 hours/ns, 34.529 timesteps/s
99.7% CPU use with 6 MPI tasks x no OpenMP threads

MPI task timing breakdown:
Section |  min time  |  avg time  |  max time  |%varavg| %total
---------------------------------------------------------------
Pair    | 7.6548     | 7.8162     | 8.0949     |   5.0 | 54.52
Neigh   | 5.2514     | 5.3021     | 5.372      |   1.7 | 36.99
Comm    | 0.65431    | 0.96488    | 1.1437     |  16.8 |  6.73
Output  | 7.6056e-05 | 9.5566e-05 | 0.00017118 |   0.0 |  0.00
Modify  | 0.1786     | 0.17966    | 0.18098    |   0.2 |  1.25
Other   |            | 0.0728     |            |       |  0.51

Nlocal:    3275.33 ave 3286 max 3261 min
Histogram: 1 0 0 0 1 0 2 1 0 1
Nghost:    7173.83 ave 7197 max 7133 min
Histogram: 1 0 0 0 0 1 1 1 0 2
Neighs:    239620 ave 244041 max 236317 min
Histogram: 2 0 1 0 1 0 0 1 0 1

Total # of neighbors = 1437722
Ave neighs/atom = 73.1591
Neighbor list builds = 495
Dangerous builds not checked
Setting up Verlet run ...
  Unit style    : metal
  Current step  : 2973843
  Time step     : 0.001
Per MPI rank memory allocation (min/avg/max) = 5.572 | 5.86 | 6.004 Mbytes
Step Temp Press TotEng PotEng Enthalpy 
 2973843    222.19081     82.30666   -64336.673   -64901.057   -64319.024 
 3000015    200.62124    441.15375   -64464.377   -64973.973   -64369.965 
 3040015    199.66647    44.520079   -64463.023   -64970.194    -64453.49 
Loop time of 1997.27 on 6 procs for 66172 steps with 19652 atoms

Performance: 2.863 ns/day, 8.384 hours/ns, 33.131 timesteps/s
99.0% CPU use with 6 MPI tasks x no OpenMP threads

MPI task timing breakdown:
Section |  min time  |  avg time  |  max time  |%varavg| %total
---------------------------------------------------------------
Pair    | 1061.5     | 1083       | 1119.1     |  53.7 | 54.22
Neigh   | 704.18     | 714.37     | 724.87     |  25.0 | 35.77
Comm    | 111.97     | 153.99     | 179.56     | 178.8 |  7.71
Output  | 0.013552   | 0.013578   | 0.013688   |   0.0 |  0.00
Modify  | 36.111     | 36.574     | 37.319     |   7.4 |  1.83
Other   |            | 9.324      |            |       |  0.47

Nlocal:    3275.33 ave 3287 max 3261 min
Histogram: 1 0 0 1 1 0 1 0 1 1
Nghost:    7180.83 ave 7202 max 7155 min
Histogram: 1 0 0 1 1 1 0 0 0 2
Neighs:    239916 ave 243693 max 235690 min
Histogram: 1 1 0 0 1 0 1 0 1 1

Total # of neighbors = 1439498
Ave neighs/atom = 73.2494
Neighbor list builds = 66172
Dangerous builds not checked
Setting up Verlet run ...
  Unit style    : metal
  Current step  : 3040015
  Time step     : 0.001
Per MPI rank memory allocation (min/avg/max) = 5.572 | 5.86 | 6.004 Mbytes
Step Temp Press TotEng PotEng Enthalpy 
 3040015    199.66647    44.520079   -64463.023   -64970.194    -64453.49 
 3040510    174.98887   -54.557294   -64595.181   -65039.669   -64606.851 
Loop time of 14.3208 on 6 procs for 495 steps with 19652 atoms

Performance: 2.986 ns/day, 8.036 hours/ns, 34.565 timesteps/s
99.7% CPU use with 6 MPI tasks x no OpenMP threads

MPI task timing breakdown:
Section |  min time  |  avg time  |  max time  |%varavg| %total
---------------------------------------------------------------
Pair    | 7.6632     | 7.8131     | 8.1013     |   5.0 | 54.56
Neigh   | 5.2534     | 5.3165     | 5.3937     |   2.0 | 37.12
Comm    | 0.62436    | 0.94768    | 1.142      |  17.8 |  6.62
Output  | 7.8917e-05 | 0.00011909 | 0.00028014 |   0.0 |  0.00
Modify  | 0.1751     | 0.17676    | 0.17933    |   0.3 |  1.23
Other   |            | 0.06664    |            |       |  0.47

Nlocal:    3275.33 ave 3284 max 3265 min
Histogram: 1 0 0 1 1 0 0 2 0 1
Nghost:    7189.17 ave 7217 max 7165 min
Histogram: 1 1 0 2 0 0 0 0 0 2
Neighs:    240246 ave 243886 max 237241 min
Histogram: 2 0 0 1 1 0 0 0 1 1

Total # of neighbors = 1441473
Ave neighs/atom = 73.3499
Neighbor list builds = 495
Dangerous builds not checked
Setting up Verlet run ...
  Unit style    : metal
  Current step  : 3040510
  Time step     : 0.001
Per MPI rank memory allocation (min/avg/max) = 5.572 | 5.86 | 6.004 Mbytes
Step Temp Press TotEng PotEng Enthalpy 
 3040510    174.98887   -54.557294   -64595.181   -65039.669   -64606.851 
 3066682    149.33684    237.29863   -64733.616   -65112.945   -64682.965 
 3106682    151.15236   -11.094891   -64730.551   -65114.492    -64732.92 
Loop time of 2257.03 on 6 procs for 66172 steps with 19652 atoms

Performance: 2.533 ns/day, 9.475 hours/ns, 29.318 timesteps/s
97.1% CPU use with 6 MPI tasks x no OpenMP threads

MPI task timing breakdown:
Section |  min time  |  avg time  |  max time  |%varavg| %total
---------------------------------------------------------------
Pair    | 1175       | 1194.5     | 1230.2     |  50.3 | 52.92
Neigh   | 710.57     | 720.52     | 728.81     |  24.5 | 31.92
Comm    | 207.84     | 250.1      | 274.03     | 141.6 | 11.08
Output  | 0.013552   | 0.013876   | 0.0151     |   0.5 |  0.00
Modify  | 81.37      | 82.776     | 84.947     |  13.7 |  3.67
Other   |            | 9.164      |            |       |  0.41

Nlocal:    3275.33 ave 3297 max 3254 min
Histogram: 1 0 1 0 0 2 1 0 0 1
Nghost:    7183.5 ave 7203 max 7136 min
Histogram: 1 0 0 0 0 0 1 1 1 2
Neighs:    240637 ave 245829 max 237564 min
Histogram: 2 1 0 0 1 0 1 0 0 1

Total # of neighbors = 1443820
Ave neighs/atom = 73.4694
Neighbor list builds = 66172
Dangerous builds not checked
Setting up Verlet run ...
  Unit style    : metal
  Current step  : 3106682
  Time step     : 0.001
Per MPI rank memory allocation (min/avg/max) = 5.572 | 5.86 | 6.004 Mbytes
Step Temp Press TotEng PotEng Enthalpy 
 3106682    151.15236   -11.094891   -64730.551   -65114.492    -64732.92 
 3107177    126.22088     241.2867   -64850.436   -65171.049   -64798.995 
Loop time of 28.0925 on 6 procs for 495 steps with 19652 atoms

Performance: 1.522 ns/day, 15.765 hours/ns, 17.620 timesteps/s
91.2% CPU use with 6 MPI tasks x no OpenMP threads

MPI task timing breakdown:
Section |  min time  |  avg time  |  max time  |%varavg| %total
---------------------------------------------------------------
Pair    | 13.415     | 13.744     | 13.94      |   5.2 | 48.93
Neigh   | 5.4184     | 5.6114     | 5.9033     |   6.9 | 19.97
Comm    | 5.1625     | 5.7892     | 6.0143     |  12.1 | 20.61
Output  | 7.7963e-05 | 0.00012914 | 0.00029898 |   0.0 |  0.00
Modify  | 2.7435     | 2.8801     | 3.0213     |   4.9 | 10.25
Other   |            | 0.06733    |            |       |  0.24

Nlocal:    3275.33 ave 3287 max 3264 min
Histogram: 2 0 0 1 0 0 0 1 0 2
Nghost:    7198.67 ave 7221 max 7176 min
Histogram: 1 0 0 2 0 1 0 1 0 1
Neighs:    241045 ave 245347 max 237002 min
Histogram: 2 0 0 1 0 0 1 0 0 2

Total # of neighbors = 1446268
Ave neighs/atom = 73.5939
Neighbor list builds = 495
Dangerous builds not checked
Setting up Verlet run ...
  Unit style    : metal
  Current step  : 3107177
  Time step     : 0.001
Per MPI rank memory allocation (min/avg/max) = 5.572 | 5.86 | 6.004 Mbytes
Step Temp Press TotEng PotEng Enthalpy 
 3107177    126.22088     241.2867   -64850.436   -65171.049   -64798.995 
 3133349    99.779333    8.5169131   -64993.594   -65247.042    -64991.78 
 3173349    100.97503    57.788863   -64988.805   -65245.291   -64976.499 
Loop time of 2287.61 on 6 procs for 66172 steps with 19652 atoms

Performance: 2.499 ns/day, 9.603 hours/ns, 28.926 timesteps/s
97.6% CPU use with 6 MPI tasks x no OpenMP threads

MPI task timing breakdown:
Section |  min time  |  avg time  |  max time  |%varavg| %total
---------------------------------------------------------------
Pair    | 1209.4     | 1230.1     | 1264.5     |  48.1 | 53.77
Neigh   | 714.87     | 727.85     | 741.41     |  33.9 | 31.82
Comm    | 195.84     | 244.52     | 272.92     | 161.1 | 10.69
Output  | 0.022091   | 0.022164   | 0.0225     |   0.1 |  0.00
Modify  | 74.386     | 76.068     | 77.228     |  12.0 |  3.33
Other   |            | 9.012      |            |       |  0.39

Nlocal:    3275.33 ave 3286 max 3258 min
Histogram: 1 0 1 0 0 0 1 1 0 2
Nghost:    7190.67 ave 7229 max 7163 min
Histogram: 1 0 1 1 1 1 0 0 0 1
Neighs:    241329 ave 245498 max 238074 min
Histogram: 2 0 0 1 0 1 1 0 0 1

Total # of neighbors = 1447976
Ave neighs/atom = 73.6808
Neighbor list builds = 66172
Dangerous builds not checked
Total wall time: 25:31:38
