LAMMPS (12 Dec 2018)
Lattice spacing in x,y,z = 4 4 4
Created orthogonal box = (0 0 0) to (68 68 68)
  1 by 1 by 1 MPI processor grid
Created 19652 atoms
  Time spent = 0.00417805 secs
Setting atom values ...
  19480 settings made for type/fraction
Neighbor list info ...
  update every 1 steps, delay 0 steps, check no
  max neighbors/atom: 2000, page size: 100000
  master list distance cutoff = 8.5
  ghost atom cutoff = 8.5
  binsize = 4.25, bins = 16 16 16
  1 neighbor lists, perpetual/occasional/extra = 1 0 0
  (1) pair eam/alloy, perpetual
      attributes: half, newton on
      pair build: half/bin/atomonly/newton
      stencil: half/bin/3d/newton
      bin: standard
Setting up Verlet run ...
  Unit style    : metal
  Current step  : 0
  Time step     : 0.001
Per MPI rank memory allocation (min/avg/max) = 18.19 | 18.19 | 18.19 Mbytes
Step Temp Press TotEng PotEng Enthalpy 
       0          300    15950.205   -65977.094   -66739.122   -62846.818 
    1000    154.76387    22614.565   -65976.913   -66370.027   -61538.736 
Loop time of 189.765 on 1 procs for 1000 steps with 19652 atoms

Performance: 0.455 ns/day, 52.712 hours/ns, 5.270 timesteps/s
85.2% CPU use with 1 MPI tasks x no OpenMP threads

MPI task timing breakdown:
Section |  min time  |  avg time  |  max time  |%varavg| %total
---------------------------------------------------------------
Pair    | 108.4      | 108.4      | 108.4      |   0.0 | 57.12
Neigh   | 78.939     | 78.939     | 78.939     |   0.0 | 41.60
Comm    | 1.4563     | 1.4563     | 1.4563     |   0.0 |  0.77
Output  | 0.00035214 | 0.00035214 | 0.00035214 |   0.0 |  0.00
Modify  | 0.5021     | 0.5021     | 0.5021     |   0.0 |  0.26
Other   |            | 0.4672     |            |       |  0.25

Nlocal:    19652 ave 19652 max 19652 min
Histogram: 1 0 0 0 0 0 0 0 0 0
Nghost:    20102 ave 20102 max 20102 min
Histogram: 1 0 0 0 0 0 0 0 0 0
Neighs:    1.57319e+06 ave 1.57319e+06 max 1.57319e+06 min
Histogram: 1 0 0 0 0 0 0 0 0 0

Total # of neighbors = 1573186
Ave neighs/atom = 80.0522
Neighbor list builds = 1000
Dangerous builds not checked
Setting up Verlet run ...
  Unit style    : metal
  Current step  : 1000
  Time step     : 0.001
Per MPI rank memory allocation (min/avg/max) = 18.19 | 18.19 | 18.19 Mbytes
Step Temp Press TotEng PotEng Enthalpy 
    1000    154.76387    22614.565   -65976.913   -66370.027   -61538.736 
    2000    298.03668    7.8881203    -65220.73    -65977.77   -65219.118 
Loop time of 188.472 on 1 procs for 1000 steps with 19652 atoms

Performance: 0.458 ns/day, 52.353 hours/ns, 5.306 timesteps/s
86.3% CPU use with 1 MPI tasks x no OpenMP threads

MPI task timing breakdown:
Section |  min time  |  avg time  |  max time  |%varavg| %total
---------------------------------------------------------------
Pair    | 106.34     | 106.34     | 106.34     |   0.0 | 56.42
Neigh   | 78.453     | 78.453     | 78.453     |   0.0 | 41.63
Comm    | 1.3645     | 1.3645     | 1.3645     |   0.0 |  0.72
Output  | 0.00026107 | 0.00026107 | 0.00026107 |   0.0 |  0.00
Modify  | 1.8304     | 1.8304     | 1.8304     |   0.0 |  0.97
Other   |            | 0.4814     |            |       |  0.26

Nlocal:    19652 ave 19652 max 19652 min
Histogram: 1 0 0 0 0 0 0 0 0 0
Nghost:    20102 ave 20102 max 20102 min
Histogram: 1 0 0 0 0 0 0 0 0 0
Neighs:    1.45875e+06 ave 1.45875e+06 max 1.45875e+06 min
Histogram: 1 0 0 0 0 0 0 0 0 0

Total # of neighbors = 1458746
Ave neighs/atom = 74.2289
Neighbor list builds = 1000
Dangerous builds not checked
Setting up Verlet run ...
  Unit style    : metal
  Current step  : 2000
  Time step     : 0.001
Per MPI rank memory allocation (min/avg/max) = 18.19 | 18.19 | 18.19 Mbytes
Step Temp Press TotEng PotEng Enthalpy 
    2000    298.03668    7.8881203    -65220.73    -65977.77   -65219.118 
    5000    1055.2026    115.92493   -60173.684   -62853.995   -60147.459 
   10000    2451.1587   -66.623864   -50954.013    -57180.18   -50972.648 
Loop time of 1505.54 on 1 procs for 8000 steps with 19652 atoms

Performance: 0.459 ns/day, 52.276 hours/ns, 5.314 timesteps/s
81.9% CPU use with 1 MPI tasks x no OpenMP threads

MPI task timing breakdown:
Section |  min time  |  avg time  |  max time  |%varavg| %total
---------------------------------------------------------------
Pair    | 815        | 815        | 815        |   0.0 | 54.13
Neigh   | 659.73     | 659.73     | 659.73     |   0.0 | 43.82
Comm    | 11.527     | 11.527     | 11.527     |   0.0 |  0.77
Output  | 0.17714    | 0.17714    | 0.17714    |   0.0 |  0.01
Modify  | 15.068     | 15.068     | 15.068     |   0.0 |  1.00
Other   |            | 4.032      |            |       |  0.27

Nlocal:    19652 ave 19652 max 19652 min
Histogram: 1 0 0 0 0 0 0 0 0 0
Nghost:    16253 ave 16253 max 16253 min
Histogram: 1 0 0 0 0 0 0 0 0 0
Neighs:    1.10116e+06 ave 1.10116e+06 max 1.10116e+06 min
Histogram: 1 0 0 0 0 0 0 0 0 0

Total # of neighbors = 1101161
Ave neighs/atom = 56.033
Neighbor list builds = 8000
Dangerous builds not checked
Setting up Verlet run ...
  Unit style    : metal
  Current step  : 10000
  Time step     : 0.001
Per MPI rank memory allocation (min/avg/max) = 18.21 | 18.21 | 18.21 Mbytes
Step Temp Press TotEng PotEng Enthalpy 
   10000    2451.1587   -66.623864   -50954.013    -57180.18   -50972.648 
   15000    2451.5286   -179.95821   -50929.346   -57156.452   -50979.745 
   20000    2447.9146   -275.56501    -51000.59   -57218.516   -51077.662 
   25000    2456.6319    748.93814   -50927.246   -57167.315   -50717.949 
   30000    2437.4391    469.84978   -51006.715   -57198.032   -50875.594 
   35000     2437.145   -284.26106   -50960.064   -57150.634    -51039.68 
   40000    2450.2774   -1135.3171   -50863.156   -57087.084   -51182.583 
Loop time of 5197.26 on 1 procs for 30000 steps with 19652 atoms

Performance: 0.499 ns/day, 48.123 hours/ns, 5.772 timesteps/s
84.4% CPU use with 1 MPI tasks x no OpenMP threads

MPI task timing breakdown:
Section |  min time  |  avg time  |  max time  |%varavg| %total
---------------------------------------------------------------
Pair    | 2815.6     | 2815.6     | 2815.6     |   0.0 | 54.17
Neigh   | 2271       | 2271       | 2271       |   0.0 | 43.70
Comm    | 40.971     | 40.971     | 40.971     |   0.0 |  0.79
Output  | 0.38563    | 0.38563    | 0.38563    |   0.0 |  0.01
Modify  | 54.719     | 54.719     | 54.719     |   0.0 |  1.05
Other   |            | 14.61      |            |       |  0.28

Nlocal:    19652 ave 19652 max 19652 min
Histogram: 1 0 0 0 0 0 0 0 0 0
Nghost:    16247 ave 16247 max 16247 min
Histogram: 1 0 0 0 0 0 0 0 0 0
Neighs:    1.0941e+06 ave 1.0941e+06 max 1.0941e+06 min
Histogram: 1 0 0 0 0 0 0 0 0 0

Total # of neighbors = 1094104
Ave neighs/atom = 55.6739
Neighbor list builds = 30000
Dangerous builds not checked
Setting up Verlet run ...
  Unit style    : metal
  Current step  : 40000
  Time step     : 0.001
Per MPI rank memory allocation (min/avg/max) = 18.21 | 18.21 | 18.21 Mbytes
Step Temp Press TotEng PotEng Enthalpy 
   40000    2450.2774   -1135.3171   -50863.156   -57087.084   -51182.583 
   40495     2415.359    1005.4679   -51134.009   -57269.241   -50854.035 
Loop time of 75.7377 on 1 procs for 495 steps with 19652 atoms

Performance: 0.565 ns/day, 42.502 hours/ns, 6.536 timesteps/s
96.3% CPU use with 1 MPI tasks x no OpenMP threads

MPI task timing breakdown:
Section |  min time  |  avg time  |  max time  |%varavg| %total
---------------------------------------------------------------
Pair    | 41.111     | 41.111     | 41.111     |   0.0 | 54.28
Neigh   | 32.991     | 32.991     | 32.991     |   0.0 | 43.56
Comm    | 0.6117     | 0.6117     | 0.6117     |   0.0 |  0.81
Output  | 0.0002439  | 0.0002439  | 0.0002439  |   0.0 |  0.00
Modify  | 0.79228    | 0.79228    | 0.79228    |   0.0 |  1.05
Other   |            | 0.2311     |            |       |  0.31

Nlocal:    19652 ave 19652 max 19652 min
Histogram: 1 0 0 0 0 0 0 0 0 0
Nghost:    16262 ave 16262 max 16262 min
Histogram: 1 0 0 0 0 0 0 0 0 0
Neighs:    1.10608e+06 ave 1.10608e+06 max 1.10608e+06 min
Histogram: 1 0 0 0 0 0 0 0 0 0

Total # of neighbors = 1106080
Ave neighs/atom = 56.2833
Neighbor list builds = 495
Dangerous builds not checked
Setting up Verlet run ...
  Unit style    : metal
  Current step  : 40495
  Time step     : 0.001
Per MPI rank memory allocation (min/avg/max) = 18.21 | 18.21 | 18.21 Mbytes
Step Temp Press TotEng PotEng Enthalpy 
   40495     2415.359    1005.4679   -51134.009   -57269.241   -50854.035 
   45000    2411.7351   -839.92769   -51090.862   -57216.889   -51325.763 
Loop time of 757.639 on 1 procs for 4505 steps with 19652 atoms

Performance: 0.514 ns/day, 46.716 hours/ns, 5.946 timesteps/s
93.2% CPU use with 1 MPI tasks x no OpenMP threads

MPI task timing breakdown:
Section |  min time  |  avg time  |  max time  |%varavg| %total
---------------------------------------------------------------
Pair    | 403.52     | 403.52     | 403.52     |   0.0 | 53.26
Neigh   | 338.82     | 338.82     | 338.82     |   0.0 | 44.72
Comm    | 5.7265     | 5.7265     | 5.7265     |   0.0 |  0.76
Output  | 0.070162   | 0.070162   | 0.070162   |   0.0 |  0.01
Modify  | 7.5316     | 7.5316     | 7.5316     |   0.0 |  0.99
Other   |            | 1.974      |            |       |  0.26

Nlocal:    19652 ave 19652 max 19652 min
Histogram: 1 0 0 0 0 0 0 0 0 0
Nghost:    16131 ave 16131 max 16131 min
Histogram: 1 0 0 0 0 0 0 0 0 0
Neighs:    1.10097e+06 ave 1.10097e+06 max 1.10097e+06 min
Histogram: 1 0 0 0 0 0 0 0 0 0

Total # of neighbors = 1100967
Ave neighs/atom = 56.0232
Neighbor list builds = 4505
Dangerous builds not checked
Setting up Verlet run ...
  Unit style    : metal
  Current step  : 45000
  Time step     : 0.001
Per MPI rank memory allocation (min/avg/max) = 18.21 | 18.21 | 18.21 Mbytes
Step Temp Press TotEng PotEng Enthalpy 
   45000    2411.7351   -839.92769   -51090.862   -57216.889   -51325.763 
   45495    2371.5045   -149.12759    -51390.01   -57413.848    -51431.34 
Loop time of 77.5283 on 1 procs for 495 steps with 19652 atoms

Performance: 0.552 ns/day, 43.506 hours/ns, 6.385 timesteps/s
95.3% CPU use with 1 MPI tasks x no OpenMP threads

MPI task timing breakdown:
Section |  min time  |  avg time  |  max time  |%varavg| %total
---------------------------------------------------------------
Pair    | 41.395     | 41.395     | 41.395     |   0.0 | 53.39
Neigh   | 34.537     | 34.537     | 34.537     |   0.0 | 44.55
Comm    | 0.59429    | 0.59429    | 0.59429    |   0.0 |  0.77
Output  | 0.00019193 | 0.00019193 | 0.00019193 |   0.0 |  0.00
Modify  | 0.7985     | 0.7985     | 0.7985     |   0.0 |  1.03
Other   |            | 0.2032     |            |       |  0.26

Nlocal:    19652 ave 19652 max 19652 min
Histogram: 1 0 0 0 0 0 0 0 0 0
Nghost:    16232 ave 16232 max 16232 min
Histogram: 1 0 0 0 0 0 0 0 0 0
Neighs:    1.11122e+06 ave 1.11122e+06 max 1.11122e+06 min
Histogram: 1 0 0 0 0 0 0 0 0 0

Total # of neighbors = 1111225
Ave neighs/atom = 56.5451
Neighbor list builds = 495
Dangerous builds not checked
Setting up Verlet run ...
  Unit style    : metal
  Current step  : 45495
  Time step     : 0.001
Per MPI rank memory allocation (min/avg/max) = 18.21 | 18.21 | 18.21 Mbytes
Step Temp Press TotEng PotEng Enthalpy 
   45495    2371.5045   -149.12759    -51390.01   -57413.848    -51431.34 
   50000    2359.7182    641.95331   -51404.391   -57398.291   -51226.627 
Loop time of 742.556 on 1 procs for 4505 steps with 19652 atoms

Performance: 0.524 ns/day, 45.786 hours/ns, 6.067 timesteps/s
96.4% CPU use with 1 MPI tasks x no OpenMP threads

MPI task timing breakdown:
Section |  min time  |  avg time  |  max time  |%varavg| %total
---------------------------------------------------------------
Pair    | 397.65     | 397.65     | 397.65     |   0.0 | 53.55
Neigh   | 329.99     | 329.99     | 329.99     |   0.0 | 44.44
Comm    | 5.6625     | 5.6625     | 5.6625     |   0.0 |  0.76
Output  | 0.060264   | 0.060264   | 0.060264   |   0.0 |  0.01
Modify  | 7.2457     | 7.2457     | 7.2457     |   0.0 |  0.98
Other   |            | 1.952      |            |       |  0.26

Nlocal:    19652 ave 19652 max 19652 min
Histogram: 1 0 0 0 0 0 0 0 0 0
Nghost:    16344 ave 16344 max 16344 min
Histogram: 1 0 0 0 0 0 0 0 0 0
Neighs:    1.11258e+06 ave 1.11258e+06 max 1.11258e+06 min
Histogram: 1 0 0 0 0 0 0 0 0 0

Total # of neighbors = 1112582
Ave neighs/atom = 56.6142
Neighbor list builds = 4505
Dangerous builds not checked
Setting up Verlet run ...
  Unit style    : metal
  Current step  : 50000
  Time step     : 0.001
Per MPI rank memory allocation (min/avg/max) = 18.21 | 18.21 | 18.21 Mbytes
Step Temp Press TotEng PotEng Enthalpy 
   50000    2359.7182    641.95331   -51404.391   -57398.291   -51226.627 
   50495    2307.6295    10.567547   -51654.852   -57516.441   -51651.936 
Loop time of 79.1667 on 1 procs for 495 steps with 19652 atoms

Performance: 0.540 ns/day, 44.426 hours/ns, 6.253 timesteps/s
94.9% CPU use with 1 MPI tasks x no OpenMP threads

MPI task timing breakdown:
Section |  min time  |  avg time  |  max time  |%varavg| %total
---------------------------------------------------------------
Pair    | 42.25      | 42.25      | 42.25      |   0.0 | 53.37
Neigh   | 35.285     | 35.285     | 35.285     |   0.0 | 44.57
Comm    | 0.6004     | 0.6004     | 0.6004     |   0.0 |  0.76
Output  | 0.00032806 | 0.00032806 | 0.00032806 |   0.0 |  0.00
Modify  | 0.81849    | 0.81849    | 0.81849    |   0.0 |  1.03
Other   |            | 0.2126     |            |       |  0.27

Nlocal:    19652 ave 19652 max 19652 min
Histogram: 1 0 0 0 0 0 0 0 0 0
Nghost:    16354 ave 16354 max 16354 min
Histogram: 1 0 0 0 0 0 0 0 0 0
Neighs:    1.11677e+06 ave 1.11677e+06 max 1.11677e+06 min
Histogram: 1 0 0 0 0 0 0 0 0 0

Total # of neighbors = 1116766
Ave neighs/atom = 56.8271
Neighbor list builds = 495
Dangerous builds not checked
Setting up Verlet run ...
  Unit style    : metal
  Current step  : 50495
  Time step     : 0.001
Per MPI rank memory allocation (min/avg/max) = 18.21 | 18.21 | 18.21 Mbytes
Step Temp Press TotEng PotEng Enthalpy 
   50495    2307.6295    10.567547   -51654.852   -57516.441   -51651.936 
   55000    2288.6582    355.36923   -51727.528   -57540.928   -51629.623 
Loop time of 696.637 on 1 procs for 4505 steps with 19652 atoms

Performance: 0.559 ns/day, 42.955 hours/ns, 6.467 timesteps/s
99.8% CPU use with 1 MPI tasks x no OpenMP threads

MPI task timing breakdown:
Section |  min time  |  avg time  |  max time  |%varavg| %total
---------------------------------------------------------------
Pair    | 373.16     | 373.16     | 373.16     |   0.0 | 53.57
Neigh   | 309.43     | 309.43     | 309.43     |   0.0 | 44.42
Comm    | 5.3212     | 5.3212     | 5.3212     |   0.0 |  0.76
Output  | 0.054984   | 0.054984   | 0.054984   |   0.0 |  0.01
Modify  | 6.8045     | 6.8045     | 6.8045     |   0.0 |  0.98
Other   |            | 1.864      |            |       |  0.27

Nlocal:    19652 ave 19652 max 19652 min
Histogram: 1 0 0 0 0 0 0 0 0 0
Nghost:    16301 ave 16301 max 16301 min
Histogram: 1 0 0 0 0 0 0 0 0 0
Neighs:    1.11809e+06 ave 1.11809e+06 max 1.11809e+06 min
Histogram: 1 0 0 0 0 0 0 0 0 0

Total # of neighbors = 1118091
Ave neighs/atom = 56.8945
Neighbor list builds = 4505
Dangerous builds not checked
Setting up Verlet run ...
  Unit style    : metal
  Current step  : 55000
  Time step     : 0.001
Per MPI rank memory allocation (min/avg/max) = 18.21 | 18.21 | 18.21 Mbytes
Step Temp Press TotEng PotEng Enthalpy 
   55000    2288.6582    355.36923   -51727.528   -57540.928   -51629.623 
   55495    2254.4306    718.28826   -51925.359   -57651.818   -51728.412 
Loop time of 73.5884 on 1 procs for 495 steps with 19652 atoms

Performance: 0.581 ns/day, 41.295 hours/ns, 6.727 timesteps/s
99.5% CPU use with 1 MPI tasks x no OpenMP threads

MPI task timing breakdown:
Section |  min time  |  avg time  |  max time  |%varavg| %total
---------------------------------------------------------------
Pair    | 39.132     | 39.132     | 39.132     |   0.0 | 53.18
Neigh   | 32.914     | 32.914     | 32.914     |   0.0 | 44.73
Comm    | 0.57382    | 0.57382    | 0.57382    |   0.0 |  0.78
Output  | 0.00016594 | 0.00016594 | 0.00016594 |   0.0 |  0.00
Modify  | 0.76341    | 0.76341    | 0.76341    |   0.0 |  1.04
Other   |            | 0.2052     |            |       |  0.28

Nlocal:    19652 ave 19652 max 19652 min
Histogram: 1 0 0 0 0 0 0 0 0 0
Nghost:    16295 ave 16295 max 16295 min
Histogram: 1 0 0 0 0 0 0 0 0 0
Neighs:    1.12347e+06 ave 1.12347e+06 max 1.12347e+06 min
Histogram: 1 0 0 0 0 0 0 0 0 0

Total # of neighbors = 1123467
Ave neighs/atom = 57.1681
Neighbor list builds = 495
Dangerous builds not checked
Setting up Verlet run ...
  Unit style    : metal
  Current step  : 55495
  Time step     : 0.001
Per MPI rank memory allocation (min/avg/max) = 18.21 | 18.21 | 18.21 Mbytes
Step Temp Press TotEng PotEng Enthalpy 
   55495    2254.4306    718.28826   -51925.359   -57651.818   -51728.412 
   60000    2231.8725   -732.00868   -52077.542   -57746.702   -52278.099 
Loop time of 686.307 on 1 procs for 4505 steps with 19652 atoms

Performance: 0.567 ns/day, 42.318 hours/ns, 6.564 timesteps/s
99.7% CPU use with 1 MPI tasks x no OpenMP threads

MPI task timing breakdown:
Section |  min time  |  avg time  |  max time  |%varavg| %total
---------------------------------------------------------------
Pair    | 366.37     | 366.37     | 366.37     |   0.0 | 53.38
Neigh   | 306.12     | 306.12     | 306.12     |   0.0 | 44.60
Comm    | 5.2195     | 5.2195     | 5.2195     |   0.0 |  0.76
Output  | 0.064993   | 0.064993   | 0.064993   |   0.0 |  0.01
Modify  | 6.7009     | 6.7009     | 6.7009     |   0.0 |  0.98
Other   |            | 1.824      |            |       |  0.27

Nlocal:    19652 ave 19652 max 19652 min
Histogram: 1 0 0 0 0 0 0 0 0 0
Nghost:    16299 ave 16299 max 16299 min
Histogram: 1 0 0 0 0 0 0 0 0 0
Neighs:    1.12466e+06 ave 1.12466e+06 max 1.12466e+06 min
Histogram: 1 0 0 0 0 0 0 0 0 0

Total # of neighbors = 1124658
Ave neighs/atom = 57.2287
Neighbor list builds = 4505
Dangerous builds not checked
Setting up Verlet run ...
  Unit style    : metal
  Current step  : 60000
  Time step     : 0.001
Per MPI rank memory allocation (min/avg/max) = 18.21 | 18.21 | 18.21 Mbytes
Step Temp Press TotEng PotEng Enthalpy 
   60000    2231.8725   -732.00868   -52077.542   -57746.702   -52278.099 
   60495    2194.0033    66.226114   -52153.717   -57726.686   -52135.605 
Loop time of 72.7881 on 1 procs for 495 steps with 19652 atoms

Performance: 0.588 ns/day, 40.846 hours/ns, 6.801 timesteps/s
99.9% CPU use with 1 MPI tasks x no OpenMP threads

MPI task timing breakdown:
Section |  min time  |  avg time  |  max time  |%varavg| %total
---------------------------------------------------------------
Pair    | 38.664     | 38.664     | 38.664     |   0.0 | 53.12
Neigh   | 32.634     | 32.634     | 32.634     |   0.0 | 44.83
Comm    | 0.55675    | 0.55675    | 0.55675    |   0.0 |  0.76
Output  | 0.00024199 | 0.00024199 | 0.00024199 |   0.0 |  0.00
Modify  | 0.73273    | 0.73273    | 0.73273    |   0.0 |  1.01
Other   |            | 0.2013     |            |       |  0.28

Nlocal:    19652 ave 19652 max 19652 min
Histogram: 1 0 0 0 0 0 0 0 0 0
Nghost:    16406 ave 16406 max 16406 min
Histogram: 1 0 0 0 0 0 0 0 0 0
Neighs:    1.12664e+06 ave 1.12664e+06 max 1.12664e+06 min
Histogram: 1 0 0 0 0 0 0 0 0 0

Total # of neighbors = 1126644
Ave neighs/atom = 57.3297
Neighbor list builds = 495
Dangerous builds not checked
Setting up Verlet run ...
  Unit style    : metal
  Current step  : 60495
  Time step     : 0.001
Per MPI rank memory allocation (min/avg/max) = 18.21 | 18.21 | 18.21 Mbytes
Step Temp Press TotEng PotEng Enthalpy 
   60495    2194.0033    66.226114   -52153.717   -57726.686   -52135.605 
   65000    2192.0195   -475.48661   -52248.165   -57816.094   -52377.955 
Loop time of 697.946 on 1 procs for 4505 steps with 19652 atoms

Performance: 0.558 ns/day, 43.035 hours/ns, 6.455 timesteps/s
99.8% CPU use with 1 MPI tasks x no OpenMP threads

MPI task timing breakdown:
Section |  min time  |  avg time  |  max time  |%varavg| %total
---------------------------------------------------------------
Pair    | 376.84     | 376.84     | 376.84     |   0.0 | 53.99
Neigh   | 307.13     | 307.13     | 307.13     |   0.0 | 44.00
Comm    | 5.2795     | 5.2795     | 5.2795     |   0.0 |  0.76
Output  | 0.064048   | 0.064048   | 0.064048   |   0.0 |  0.01
Modify  | 6.7844     | 6.7844     | 6.7844     |   0.0 |  0.97
Other   |            | 1.852      |            |       |  0.27

Nlocal:    19652 ave 19652 max 19652 min
Histogram: 1 0 0 0 0 0 0 0 0 0
Nghost:    16428 ave 16428 max 16428 min
Histogram: 1 0 0 0 0 0 0 0 0 0
Neighs:    1.12873e+06 ave 1.12873e+06 max 1.12873e+06 min
Histogram: 1 0 0 0 0 0 0 0 0 0

Total # of neighbors = 1128731
Ave neighs/atom = 57.4359
Neighbor list builds = 4505
Dangerous builds not checked
Setting up Verlet run ...
  Unit style    : metal
  Current step  : 65000
  Time step     : 0.001
Per MPI rank memory allocation (min/avg/max) = 18.21 | 18.21 | 18.21 Mbytes
Step Temp Press TotEng PotEng Enthalpy 
   65000    2192.0195   -475.48661   -52248.165   -57816.094   -52377.955 
   65495    2181.4153   -656.21806   -52446.562   -57987.556   -52624.657 
Loop time of 71.6532 on 1 procs for 495 steps with 19652 atoms

Performance: 0.597 ns/day, 40.209 hours/ns, 6.908 timesteps/s
99.9% CPU use with 1 MPI tasks x no OpenMP threads

MPI task timing breakdown:
Section |  min time  |  avg time  |  max time  |%varavg| %total
---------------------------------------------------------------
Pair    | 38.125     | 38.125     | 38.125     |   0.0 | 53.21
Neigh   | 32.038     | 32.038     | 32.038     |   0.0 | 44.71
Comm    | 0.55798    | 0.55798    | 0.55798    |   0.0 |  0.78
Output  | 0.00018787 | 0.00018787 | 0.00018787 |   0.0 |  0.00
Modify  | 0.73262    | 0.73262    | 0.73262    |   0.0 |  1.02
Other   |            | 0.2002     |            |       |  0.28

Nlocal:    19652 ave 19652 max 19652 min
Histogram: 1 0 0 0 0 0 0 0 0 0
Nghost:    16380 ave 16380 max 16380 min
Histogram: 1 0 0 0 0 0 0 0 0 0
Neighs:    1.13532e+06 ave 1.13532e+06 max 1.13532e+06 min
Histogram: 1 0 0 0 0 0 0 0 0 0

Total # of neighbors = 1135320
Ave neighs/atom = 57.7712
Neighbor list builds = 495
Dangerous builds not checked
Setting up Verlet run ...
  Unit style    : metal
  Current step  : 65495
  Time step     : 0.001
Per MPI rank memory allocation (min/avg/max) = 18.21 | 18.21 | 18.21 Mbytes
Step Temp Press TotEng PotEng Enthalpy 
   65495    2181.4153   -656.21806   -52446.562   -57987.556   -52624.657 
   70000    2146.7386   -120.00019    -52517.93   -57970.842   -52550.476 
Loop time of 696.343 on 1 procs for 4505 steps with 19652 atoms

Performance: 0.559 ns/day, 42.936 hours/ns, 6.470 timesteps/s
99.7% CPU use with 1 MPI tasks x no OpenMP threads

MPI task timing breakdown:
Section |  min time  |  avg time  |  max time  |%varavg| %total
---------------------------------------------------------------
Pair    | 374.18     | 374.18     | 374.18     |   0.0 | 53.74
Neigh   | 308.05     | 308.05     | 308.05     |   0.0 | 44.24
Comm    | 5.3169     | 5.3169     | 5.3169     |   0.0 |  0.76
Output  | 0.069775   | 0.069775   | 0.069775   |   0.0 |  0.01
Modify  | 6.8553     | 6.8553     | 6.8553     |   0.0 |  0.98
Other   |            | 1.864      |            |       |  0.27

Nlocal:    19652 ave 19652 max 19652 min
Histogram: 1 0 0 0 0 0 0 0 0 0
Nghost:    16420 ave 16420 max 16420 min
Histogram: 1 0 0 0 0 0 0 0 0 0
Neighs:    1.13668e+06 ave 1.13668e+06 max 1.13668e+06 min
Histogram: 1 0 0 0 0 0 0 0 0 0

Total # of neighbors = 1136676
Ave neighs/atom = 57.8402
Neighbor list builds = 4505
Dangerous builds not checked
Setting up Verlet run ...
  Unit style    : metal
  Current step  : 70000
  Time step     : 0.001
Per MPI rank memory allocation (min/avg/max) = 18.21 | 18.21 | 18.21 Mbytes
Step Temp Press TotEng PotEng Enthalpy 
   70000    2146.7386   -120.00019    -52517.93   -57970.842   -52550.476 
   70495    2106.8186     773.6819   -52765.091   -58116.602   -52556.834 
Loop time of 73.9785 on 1 procs for 495 steps with 19652 atoms

Performance: 0.578 ns/day, 41.514 hours/ns, 6.691 timesteps/s
99.8% CPU use with 1 MPI tasks x no OpenMP threads

MPI task timing breakdown:
Section |  min time  |  avg time  |  max time  |%varavg| %total
---------------------------------------------------------------
Pair    | 39.551     | 39.551     | 39.551     |   0.0 | 53.46
Neigh   | 32.919     | 32.919     | 32.919     |   0.0 | 44.50
Comm    | 0.56342    | 0.56342    | 0.56342    |   0.0 |  0.76
Output  | 0.000314   | 0.000314   | 0.000314   |   0.0 |  0.00
Modify  | 0.74149    | 0.74149    | 0.74149    |   0.0 |  1.00
Other   |            | 0.203      |            |       |  0.27

Nlocal:    19652 ave 19652 max 19652 min
Histogram: 1 0 0 0 0 0 0 0 0 0
Nghost:    16472 ave 16472 max 16472 min
Histogram: 1 0 0 0 0 0 0 0 0 0
Neighs:    1.14493e+06 ave 1.14493e+06 max 1.14493e+06 min
Histogram: 1 0 0 0 0 0 0 0 0 0

Total # of neighbors = 1144933
Ave neighs/atom = 58.2604
Neighbor list builds = 495
Dangerous builds not checked
Setting up Verlet run ...
  Unit style    : metal
  Current step  : 70495
  Time step     : 0.001
Per MPI rank memory allocation (min/avg/max) = 18.21 | 18.21 | 18.21 Mbytes
Step Temp Press TotEng PotEng Enthalpy 
   70495    2106.8186     773.6819   -52765.091   -58116.602   -52556.834 
   75000    2093.4127   -115.28977   -52887.058   -58204.517   -52918.059 
Loop time of 698.667 on 1 procs for 4505 steps with 19652 atoms

Performance: 0.557 ns/day, 43.080 hours/ns, 6.448 timesteps/s
99.8% CPU use with 1 MPI tasks x no OpenMP threads

MPI task timing breakdown:
Section |  min time  |  avg time  |  max time  |%varavg| %total
---------------------------------------------------------------
Pair    | 376.26     | 376.26     | 376.26     |   0.0 | 53.85
Neigh   | 308.41     | 308.41     | 308.41     |   0.0 | 44.14
Comm    | 5.2919     | 5.2919     | 5.2919     |   0.0 |  0.76
Output  | 0.069421   | 0.069421   | 0.069421   |   0.0 |  0.01
Modify  | 6.783      | 6.783      | 6.783      |   0.0 |  0.97
Other   |            | 1.853      |            |       |  0.27

Nlocal:    19652 ave 19652 max 19652 min
Histogram: 1 0 0 0 0 0 0 0 0 0
Nghost:    16553 ave 16553 max 16553 min
Histogram: 1 0 0 0 0 0 0 0 0 0
Neighs:    1.1468e+06 ave 1.1468e+06 max 1.1468e+06 min
Histogram: 1 0 0 0 0 0 0 0 0 0

Total # of neighbors = 1146800
Ave neighs/atom = 58.3554
Neighbor list builds = 4505
Dangerous builds not checked
Setting up Verlet run ...
  Unit style    : metal
  Current step  : 75000
  Time step     : 0.001
Per MPI rank memory allocation (min/avg/max) = 18.21 | 18.21 | 18.21 Mbytes
Step Temp Press TotEng PotEng Enthalpy 
   75000    2093.4127   -115.28977   -52887.058   -58204.517   -52918.059 
   75495    2064.8533   -885.38143   -53002.774    -58247.69   -53240.675 
Loop time of 73.8294 on 1 procs for 495 steps with 19652 atoms

Performance: 0.579 ns/day, 41.431 hours/ns, 6.705 timesteps/s
99.8% CPU use with 1 MPI tasks x no OpenMP threads

MPI task timing breakdown:
Section |  min time  |  avg time  |  max time  |%varavg| %total
---------------------------------------------------------------
Pair    | 39.626     | 39.626     | 39.626     |   0.0 | 53.67
Neigh   | 32.705     | 32.705     | 32.705     |   0.0 | 44.30
Comm    | 0.56175    | 0.56175    | 0.56175    |   0.0 |  0.76
Output  | 0.00015783 | 0.00015783 | 0.00015783 |   0.0 |  0.00
Modify  | 0.73665    | 0.73665    | 0.73665    |   0.0 |  1.00
Other   |            | 0.2003     |            |       |  0.27

Nlocal:    19652 ave 19652 max 19652 min
Histogram: 1 0 0 0 0 0 0 0 0 0
Nghost:    16505 ave 16505 max 16505 min
Histogram: 1 0 0 0 0 0 0 0 0 0
Neighs:    1.14765e+06 ave 1.14765e+06 max 1.14765e+06 min
Histogram: 1 0 0 0 0 0 0 0 0 0

Total # of neighbors = 1147647
Ave neighs/atom = 58.3985
Neighbor list builds = 495
Dangerous builds not checked
Setting up Verlet run ...
  Unit style    : metal
  Current step  : 75495
  Time step     : 0.001
Per MPI rank memory allocation (min/avg/max) = 18.21 | 18.21 | 18.21 Mbytes
Step Temp Press TotEng PotEng Enthalpy 
   75495    2064.8533   -885.38143   -53002.774    -58247.69   -53240.675 
   80000    2058.2979    526.28465   -53023.625   -58251.889   -52882.638 
Loop time of 700.278 on 1 procs for 4505 steps with 19652 atoms

Performance: 0.556 ns/day, 43.179 hours/ns, 6.433 timesteps/s
99.7% CPU use with 1 MPI tasks x no OpenMP threads

MPI task timing breakdown:
Section |  min time  |  avg time  |  max time  |%varavg| %total
---------------------------------------------------------------
Pair    | 377.81     | 377.81     | 377.81     |   0.0 | 53.95
Neigh   | 308.41     | 308.41     | 308.41     |   0.0 | 44.04
Comm    | 5.2985     | 5.2985     | 5.2985     |   0.0 |  0.76
Output  | 0.068611   | 0.068611   | 0.068611   |   0.0 |  0.01
Modify  | 6.8262     | 6.8262     | 6.8262     |   0.0 |  0.97
Other   |            | 1.865      |            |       |  0.27

Nlocal:    19652 ave 19652 max 19652 min
Histogram: 1 0 0 0 0 0 0 0 0 0
Nghost:    16537 ave 16537 max 16537 min
Histogram: 1 0 0 0 0 0 0 0 0 0
Neighs:    1.15017e+06 ave 1.15017e+06 max 1.15017e+06 min
Histogram: 1 0 0 0 0 0 0 0 0 0

Total # of neighbors = 1150172
Ave neighs/atom = 58.527
Neighbor list builds = 4505
Dangerous builds not checked
Setting up Verlet run ...
  Unit style    : metal
  Current step  : 80000
  Time step     : 0.001
Per MPI rank memory allocation (min/avg/max) = 18.21 | 18.21 | 18.21 Mbytes
Step Temp Press TotEng PotEng Enthalpy 
   80000    2058.2979    526.28465   -53023.625   -58251.889   -52882.638 
   80495    2012.4187    439.58982   -53277.224   -58388.951   -53160.098 
Loop time of 74.3685 on 1 procs for 495 steps with 19652 atoms

Performance: 0.575 ns/day, 41.733 hours/ns, 6.656 timesteps/s
99.7% CPU use with 1 MPI tasks x no OpenMP threads

MPI task timing breakdown:
Section |  min time  |  avg time  |  max time  |%varavg| %total
---------------------------------------------------------------
Pair    | 39.952     | 39.952     | 39.952     |   0.0 | 53.72
Neigh   | 32.885     | 32.885     | 32.885     |   0.0 | 44.22
Comm    | 0.57348    | 0.57348    | 0.57348    |   0.0 |  0.77
Output  | 0.000211   | 0.000211   | 0.000211   |   0.0 |  0.00
Modify  | 0.75362    | 0.75362    | 0.75362    |   0.0 |  1.01
Other   |            | 0.2044     |            |       |  0.27

Nlocal:    19652 ave 19652 max 19652 min
Histogram: 1 0 0 0 0 0 0 0 0 0
Nghost:    16527 ave 16527 max 16527 min
Histogram: 1 0 0 0 0 0 0 0 0 0
Neighs:    1.15711e+06 ave 1.15711e+06 max 1.15711e+06 min
Histogram: 1 0 0 0 0 0 0 0 0 0

Total # of neighbors = 1157108
Ave neighs/atom = 58.8799
Neighbor list builds = 495
Dangerous builds not checked
Setting up Verlet run ...
  Unit style    : metal
  Current step  : 80495
  Time step     : 0.001
Per MPI rank memory allocation (min/avg/max) = 18.21 | 18.21 | 18.21 Mbytes
Step Temp Press TotEng PotEng Enthalpy 
   80495    2012.4187    439.58982   -53277.224   -58388.951   -53160.098 
   85000    1997.8202   -688.55384   -53364.206   -58438.852   -53547.835 
Loop time of 695.653 on 1 procs for 4505 steps with 19652 atoms

Performance: 0.560 ns/day, 42.894 hours/ns, 6.476 timesteps/s
99.8% CPU use with 1 MPI tasks x no OpenMP threads

MPI task timing breakdown:
Section |  min time  |  avg time  |  max time  |%varavg| %total
---------------------------------------------------------------
Pair    | 375.78     | 375.78     | 375.78     |   0.0 | 54.02
Neigh   | 305.89     | 305.89     | 305.89     |   0.0 | 43.97
Comm    | 5.2846     | 5.2846     | 5.2846     |   0.0 |  0.76
Output  | 0.067609   | 0.067609   | 0.067609   |   0.0 |  0.01
Modify  | 6.7842     | 6.7842     | 6.7842     |   0.0 |  0.98
Other   |            | 1.855      |            |       |  0.27

Nlocal:    19652 ave 19652 max 19652 min
Histogram: 1 0 0 0 0 0 0 0 0 0
Nghost:    16579 ave 16579 max 16579 min
Histogram: 1 0 0 0 0 0 0 0 0 0
Neighs:    1.1558e+06 ave 1.1558e+06 max 1.1558e+06 min
Histogram: 1 0 0 0 0 0 0 0 0 0

Total # of neighbors = 1155800
Ave neighs/atom = 58.8134
Neighbor list builds = 4505
Dangerous builds not checked
Setting up Verlet run ...
  Unit style    : metal
  Current step  : 85000
  Time step     : 0.001
Per MPI rank memory allocation (min/avg/max) = 18.21 | 18.21 | 18.21 Mbytes
Step Temp Press TotEng PotEng Enthalpy 
   85000    1997.8202   -688.55384   -53364.206   -58438.852   -53547.835 
   85495     1962.254    470.84829   -53613.458   -58597.762   -53488.965 
Loop time of 73.418 on 1 procs for 495 steps with 19652 atoms

Performance: 0.583 ns/day, 41.200 hours/ns, 6.742 timesteps/s
99.4% CPU use with 1 MPI tasks x no OpenMP threads

MPI task timing breakdown:
Section |  min time  |  avg time  |  max time  |%varavg| %total
---------------------------------------------------------------
Pair    | 39.195     | 39.195     | 39.195     |   0.0 | 53.39
Neigh   | 32.714     | 32.714     | 32.714     |   0.0 | 44.56
Comm    | 0.55966    | 0.55966    | 0.55966    |   0.0 |  0.76
Output  | 0.00018215 | 0.00018215 | 0.00018215 |   0.0 |  0.00
Modify  | 0.74732    | 0.74732    | 0.74732    |   0.0 |  1.02
Other   |            | 0.2018     |            |       |  0.27

Nlocal:    19652 ave 19652 max 19652 min
Histogram: 1 0 0 0 0 0 0 0 0 0
Nghost:    16583 ave 16583 max 16583 min
Histogram: 1 0 0 0 0 0 0 0 0 0
Neighs:    1.16603e+06 ave 1.16603e+06 max 1.16603e+06 min
Histogram: 1 0 0 0 0 0 0 0 0 0

Total # of neighbors = 1166031
Ave neighs/atom = 59.334
Neighbor list builds = 495
Dangerous builds not checked
Setting up Verlet run ...
  Unit style    : metal
  Current step  : 85495
  Time step     : 0.001
Per MPI rank memory allocation (min/avg/max) = 18.21 | 18.21 | 18.21 Mbytes
Step Temp Press TotEng PotEng Enthalpy 
   85495     1962.254    470.84829   -53613.458   -58597.762   -53488.965 
   90000     1945.315   -702.90985    -53623.76   -58565.038   -53810.156 
Loop time of 689.623 on 1 procs for 4505 steps with 19652 atoms

Performance: 0.564 ns/day, 42.522 hours/ns, 6.533 timesteps/s
99.5% CPU use with 1 MPI tasks x no OpenMP threads

MPI task timing breakdown:
Section |  min time  |  avg time  |  max time  |%varavg| %total
---------------------------------------------------------------
Pair    | 374.79     | 374.79     | 374.79     |   0.0 | 54.35
Neigh   | 301.02     | 301.02     | 301.02     |   0.0 | 43.65
Comm    | 5.1976     | 5.1976     | 5.1976     |   0.0 |  0.75
Output  | 0.064698   | 0.064698   | 0.064698   |   0.0 |  0.01
Modify  | 6.7217     | 6.7217     | 6.7217     |   0.0 |  0.97
Other   |            | 1.82       |            |       |  0.26

Nlocal:    19652 ave 19652 max 19652 min
Histogram: 1 0 0 0 0 0 0 0 0 0
Nghost:    16558 ave 16558 max 16558 min
Histogram: 1 0 0 0 0 0 0 0 0 0
Neighs:    1.16296e+06 ave 1.16296e+06 max 1.16296e+06 min
Histogram: 1 0 0 0 0 0 0 0 0 0

Total # of neighbors = 1162961
Ave neighs/atom = 59.1777
Neighbor list builds = 4505
Dangerous builds not checked
Setting up Verlet run ...
  Unit style    : metal
  Current step  : 90000
  Time step     : 0.001
Per MPI rank memory allocation (min/avg/max) = 18.21 | 18.21 | 18.21 Mbytes
Step Temp Press TotEng PotEng Enthalpy 
   90000     1945.315   -702.90985    -53623.76   -58565.038   -53810.156 
   90495    1901.3209    158.14862   -53872.136   -58701.664   -53830.504 
Loop time of 72.6736 on 1 procs for 495 steps with 19652 atoms

Performance: 0.588 ns/day, 40.782 hours/ns, 6.811 timesteps/s
99.8% CPU use with 1 MPI tasks x no OpenMP threads

MPI task timing breakdown:
Section |  min time  |  avg time  |  max time  |%varavg| %total
---------------------------------------------------------------
Pair    | 39.063     | 39.063     | 39.063     |   0.0 | 53.75
Neigh   | 32.124     | 32.124     | 32.124     |   0.0 | 44.20
Comm    | 0.55185    | 0.55185    | 0.55185    |   0.0 |  0.76
Output  | 0.00028419 | 0.00028419 | 0.00028419 |   0.0 |  0.00
Modify  | 0.7355     | 0.7355     | 0.7355     |   0.0 |  1.01
Other   |            | 0.1987     |            |       |  0.27

Nlocal:    19652 ave 19652 max 19652 min
Histogram: 1 0 0 0 0 0 0 0 0 0
Nghost:    16614 ave 16614 max 16614 min
Histogram: 1 0 0 0 0 0 0 0 0 0
Neighs:    1.17185e+06 ave 1.17185e+06 max 1.17185e+06 min
Histogram: 1 0 0 0 0 0 0 0 0 0

Total # of neighbors = 1171848
Ave neighs/atom = 59.63
Neighbor list builds = 495
Dangerous builds not checked
Setting up Verlet run ...
  Unit style    : metal
  Current step  : 90495
  Time step     : 0.001
Per MPI rank memory allocation (min/avg/max) = 18.21 | 18.21 | 18.21 Mbytes
Step Temp Press TotEng PotEng Enthalpy 
   90495    1901.3209    158.14862   -53872.136   -58701.664   -53830.504 
   95000    1895.5361   -110.78115   -53928.034   -58742.868   -53957.196 
Loop time of 689.034 on 1 procs for 4505 steps with 19652 atoms

Performance: 0.565 ns/day, 42.486 hours/ns, 6.538 timesteps/s
99.4% CPU use with 1 MPI tasks x no OpenMP threads

MPI task timing breakdown:
Section |  min time  |  avg time  |  max time  |%varavg| %total
---------------------------------------------------------------
Pair    | 373.3      | 373.3      | 373.3      |   0.0 | 54.18
Neigh   | 301.77     | 301.77     | 301.77     |   0.0 | 43.80
Comm    | 5.2511     | 5.2511     | 5.2511     |   0.0 |  0.76
Output  | 0.081585   | 0.081585   | 0.081585   |   0.0 |  0.01
Modify  | 6.7942     | 6.7942     | 6.7942     |   0.0 |  0.99
Other   |            | 1.839      |            |       |  0.27

Nlocal:    19652 ave 19652 max 19652 min
Histogram: 1 0 0 0 0 0 0 0 0 0
Nghost:    16644 ave 16644 max 16644 min
Histogram: 1 0 0 0 0 0 0 0 0 0
Neighs:    1.17176e+06 ave 1.17176e+06 max 1.17176e+06 min
Histogram: 1 0 0 0 0 0 0 0 0 0

Total # of neighbors = 1171758
Ave neighs/atom = 59.6254
Neighbor list builds = 4505
Dangerous builds not checked
Setting up Verlet run ...
  Unit style    : metal
  Current step  : 95000
  Time step     : 0.001
Per MPI rank memory allocation (min/avg/max) = 18.21 | 18.21 | 18.21 Mbytes
Step Temp Press TotEng PotEng Enthalpy 
   95000    1895.5361   -110.78115   -53928.034   -58742.868   -53957.196 
   95495    1852.1282    669.69007   -54160.538   -58865.112   -53985.297 
Loop time of 77.8955 on 1 procs for 495 steps with 19652 atoms

Performance: 0.549 ns/day, 43.712 hours/ns, 6.355 timesteps/s
99.5% CPU use with 1 MPI tasks x no OpenMP threads

MPI task timing breakdown:
Section |  min time  |  avg time  |  max time  |%varavg| %total
---------------------------------------------------------------
Pair    | 42.436     | 42.436     | 42.436     |   0.0 | 54.48
Neigh   | 33.829     | 33.829     | 33.829     |   0.0 | 43.43
Comm    | 0.59785    | 0.59785    | 0.59785    |   0.0 |  0.77
Output  | 0.0043571  | 0.0043571  | 0.0043571  |   0.0 |  0.01
Modify  | 0.81244    | 0.81244    | 0.81244    |   0.0 |  1.04
Other   |            | 0.2163     |            |       |  0.28

Nlocal:    19652 ave 19652 max 19652 min
Histogram: 1 0 0 0 0 0 0 0 0 0
Nghost:    16628 ave 16628 max 16628 min
Histogram: 1 0 0 0 0 0 0 0 0 0
Neighs:    1.17838e+06 ave 1.17838e+06 max 1.17838e+06 min
Histogram: 1 0 0 0 0 0 0 0 0 0

Total # of neighbors = 1178383
Ave neighs/atom = 59.9625
Neighbor list builds = 495
Dangerous builds not checked
Setting up Verlet run ...
  Unit style    : metal
  Current step  : 95495
  Time step     : 0.001
Per MPI rank memory allocation (min/avg/max) = 18.21 | 18.21 | 18.21 Mbytes
Step Temp Press TotEng PotEng Enthalpy 
   95495    1852.1282    669.69007   -54160.538   -58865.112   -53985.297 
  100000    1855.2422    649.47393   -54208.062   -58920.546    -54038.46 
Loop time of 705.785 on 1 procs for 4505 steps with 19652 atoms

Performance: 0.551 ns/day, 43.519 hours/ns, 6.383 timesteps/s
99.7% CPU use with 1 MPI tasks x no OpenMP threads

MPI task timing breakdown:
Section |  min time  |  avg time  |  max time  |%varavg| %total
---------------------------------------------------------------
Pair    | 384        | 384        | 384        |   0.0 | 54.41
Neigh   | 307.45     | 307.45     | 307.45     |   0.0 | 43.56
Comm    | 5.3804     | 5.3804     | 5.3804     |   0.0 |  0.76
Output  | 0.081338   | 0.081338   | 0.081338   |   0.0 |  0.01
Modify  | 6.9751     | 6.9751     | 6.9751     |   0.0 |  0.99
Other   |            | 1.9        |            |       |  0.27

Nlocal:    19652 ave 19652 max 19652 min
Histogram: 1 0 0 0 0 0 0 0 0 0
Nghost:    16584 ave 16584 max 16584 min
Histogram: 1 0 0 0 0 0 0 0 0 0
Neighs:    1.18185e+06 ave 1.18185e+06 max 1.18185e+06 min
Histogram: 1 0 0 0 0 0 0 0 0 0

Total # of neighbors = 1181848
Ave neighs/atom = 60.1388
Neighbor list builds = 4505
Dangerous builds not checked
Setting up Verlet run ...
  Unit style    : metal
  Current step  : 100000
  Time step     : 0.001
Per MPI rank memory allocation (min/avg/max) = 18.21 | 18.21 | 18.21 Mbytes
Step Temp Press TotEng PotEng Enthalpy 
  100000    1855.2422    649.47393   -54208.062   -58920.546    -54038.46 
  100495     1814.914    1051.6299   -54421.525   -59031.572   -54148.242 
Loop time of 74.2921 on 1 procs for 495 steps with 19652 atoms

Performance: 0.576 ns/day, 41.690 hours/ns, 6.663 timesteps/s
99.8% CPU use with 1 MPI tasks x no OpenMP threads

MPI task timing breakdown:
Section |  min time  |  avg time  |  max time  |%varavg| %total
---------------------------------------------------------------
Pair    | 40.619     | 40.619     | 40.619     |   0.0 | 54.67
Neigh   | 32.125     | 32.125     | 32.125     |   0.0 | 43.24
Comm    | 0.57758    | 0.57758    | 0.57758    |   0.0 |  0.78
Output  | 0.00021696 | 0.00021696 | 0.00021696 |   0.0 |  0.00
Modify  | 0.76242    | 0.76242    | 0.76242    |   0.0 |  1.03
Other   |            | 0.2074     |            |       |  0.28

Nlocal:    19652 ave 19652 max 19652 min
Histogram: 1 0 0 0 0 0 0 0 0 0
Nghost:    16719 ave 16719 max 16719 min
Histogram: 1 0 0 0 0 0 0 0 0 0
Neighs:    1.18724e+06 ave 1.18724e+06 max 1.18724e+06 min
Histogram: 1 0 0 0 0 0 0 0 0 0

Total # of neighbors = 1187241
Ave neighs/atom = 60.4132
Neighbor list builds = 495
Dangerous builds not checked
Setting up Verlet run ...
  Unit style    : metal
  Current step  : 100495
  Time step     : 0.001
Per MPI rank memory allocation (min/avg/max) = 18.21 | 18.21 | 18.21 Mbytes
Step Temp Press TotEng PotEng Enthalpy 
  100495     1814.914    1051.6299   -54421.525   -59031.572   -54148.242 
  105000    1795.2979    85.168855   -54547.495   -59107.715   -54525.384 
Loop time of 681.479 on 1 procs for 4505 steps with 19652 atoms

Performance: 0.571 ns/day, 42.020 hours/ns, 6.611 timesteps/s
99.7% CPU use with 1 MPI tasks x no OpenMP threads

MPI task timing breakdown:
Section |  min time  |  avg time  |  max time  |%varavg| %total
---------------------------------------------------------------
Pair    | 368.08     | 368.08     | 368.08     |   0.0 | 54.01
Neigh   | 299.45     | 299.45     | 299.45     |   0.0 | 43.94
Comm    | 5.2105     | 5.2105     | 5.2105     |   0.0 |  0.76
Output  | 0.062677   | 0.062677   | 0.062677   |   0.0 |  0.01
Modify  | 6.8258     | 6.8258     | 6.8258     |   0.0 |  1.00
Other   |            | 1.853      |            |       |  0.27

Nlocal:    19652 ave 19652 max 19652 min
Histogram: 1 0 0 0 0 0 0 0 0 0
Nghost:    16685 ave 16685 max 16685 min
Histogram: 1 0 0 0 0 0 0 0 0 0
Neighs:    1.18815e+06 ave 1.18815e+06 max 1.18815e+06 min
Histogram: 1 0 0 0 0 0 0 0 0 0

Total # of neighbors = 1188149
Ave neighs/atom = 60.4594
Neighbor list builds = 4505
Dangerous builds not checked
Setting up Verlet run ...
  Unit style    : metal
  Current step  : 105000
  Time step     : 0.001
Per MPI rank memory allocation (min/avg/max) = 18.21 | 18.21 | 18.21 Mbytes
Step Temp Press TotEng PotEng Enthalpy 
  105000    1795.2979    85.168855   -54547.495   -59107.715   -54525.384 
  105495    1762.8328    296.49766   -54714.453   -59192.209   -54637.777 
Loop time of 76.1237 on 1 procs for 495 steps with 19652 atoms

Performance: 0.562 ns/day, 42.718 hours/ns, 6.503 timesteps/s
99.7% CPU use with 1 MPI tasks x no OpenMP threads

MPI task timing breakdown:
Section |  min time  |  avg time  |  max time  |%varavg| %total
---------------------------------------------------------------
Pair    | 41.093     | 41.093     | 41.093     |   0.0 | 53.98
Neigh   | 33.443     | 33.443     | 33.443     |   0.0 | 43.93
Comm    | 0.58194    | 0.58194    | 0.58194    |   0.0 |  0.76
Output  | 0.00037003 | 0.00037003 | 0.00037003 |   0.0 |  0.00
Modify  | 0.79331    | 0.79331    | 0.79331    |   0.0 |  1.04
Other   |            | 0.2112     |            |       |  0.28

Nlocal:    19652 ave 19652 max 19652 min
Histogram: 1 0 0 0 0 0 0 0 0 0
Nghost:    16691 ave 16691 max 16691 min
Histogram: 1 0 0 0 0 0 0 0 0 0
Neighs:    1.19301e+06 ave 1.19301e+06 max 1.19301e+06 min
Histogram: 1 0 0 0 0 0 0 0 0 0

Total # of neighbors = 1193014
Ave neighs/atom = 60.707
Neighbor list builds = 495
Dangerous builds not checked
Setting up Verlet run ...
  Unit style    : metal
  Current step  : 105495
  Time step     : 0.001
Per MPI rank memory allocation (min/avg/max) = 18.21 | 18.21 | 18.21 Mbytes
Step Temp Press TotEng PotEng Enthalpy 
  105495    1762.8328    296.49766   -54714.453   -59192.209   -54637.777 
  110000    1743.6654    773.60325   -54805.665   -59234.734   -54606.051 
Loop time of 719.216 on 1 procs for 4505 steps with 19652 atoms

Performance: 0.541 ns/day, 44.347 hours/ns, 6.264 timesteps/s
98.8% CPU use with 1 MPI tasks x no OpenMP threads

MPI task timing breakdown:
Section |  min time  |  avg time  |  max time  |%varavg| %total
---------------------------------------------------------------
Pair    | 391.56     | 391.56     | 391.56     |   0.0 | 54.44
Neigh   | 312.85     | 312.85     | 312.85     |   0.0 | 43.50
Comm    | 5.5016     | 5.5016     | 5.5016     |   0.0 |  0.76
Output  | 0.067827   | 0.067827   | 0.067827   |   0.0 |  0.01
Modify  | 7.2715     | 7.2715     | 7.2715     |   0.0 |  1.01
Other   |            | 1.962      |            |       |  0.27

Nlocal:    19652 ave 19652 max 19652 min
Histogram: 1 0 0 0 0 0 0 0 0 0
Nghost:    16724 ave 16724 max 16724 min
Histogram: 1 0 0 0 0 0 0 0 0 0
Neighs:    1.19609e+06 ave 1.19609e+06 max 1.19609e+06 min
Histogram: 1 0 0 0 0 0 0 0 0 0

Total # of neighbors = 1196087
Ave neighs/atom = 60.8634
Neighbor list builds = 4505
Dangerous builds not checked
Setting up Verlet run ...
  Unit style    : metal
  Current step  : 110000
  Time step     : 0.001
Per MPI rank memory allocation (min/avg/max) = 18.21 | 18.21 | 18.21 Mbytes
Step Temp Press TotEng PotEng Enthalpy 
  110000    1743.6654    773.60325   -54805.665   -59234.734   -54606.051 
  110495    1722.9278    595.82848   -54991.869   -59368.263   -54838.845 
Loop time of 83.4319 on 1 procs for 495 steps with 19652 atoms

Performance: 0.513 ns/day, 46.819 hours/ns, 5.933 timesteps/s
95.0% CPU use with 1 MPI tasks x no OpenMP threads

MPI task timing breakdown:
Section |  min time  |  avg time  |  max time  |%varavg| %total
---------------------------------------------------------------
Pair    | 45.613     | 45.613     | 45.613     |   0.0 | 54.67
Neigh   | 36.05      | 36.05      | 36.05      |   0.0 | 43.21
Comm    | 0.6422     | 0.6422     | 0.6422     |   0.0 |  0.77
Output  | 0.00036502 | 0.00036502 | 0.00036502 |   0.0 |  0.00
Modify  | 0.88499    | 0.88499    | 0.88499    |   0.0 |  1.06
Other   |            | 0.2416     |            |       |  0.29

Nlocal:    19652 ave 19652 max 19652 min
Histogram: 1 0 0 0 0 0 0 0 0 0
Nghost:    16755 ave 16755 max 16755 min
Histogram: 1 0 0 0 0 0 0 0 0 0
Neighs:    1.20139e+06 ave 1.20139e+06 max 1.20139e+06 min
Histogram: 1 0 0 0 0 0 0 0 0 0

Total # of neighbors = 1201386
Ave neighs/atom = 61.133
Neighbor list builds = 495
Dangerous builds not checked
Setting up Verlet run ...
  Unit style    : metal
  Current step  : 110495
  Time step     : 0.001
Per MPI rank memory allocation (min/avg/max) = 18.21 | 18.21 | 18.21 Mbytes
Step Temp Press TotEng PotEng Enthalpy 
  110495    1722.9278    595.82848   -54991.869   -59368.263   -54838.845 
  115000    1695.1901    44.310927   -55080.885   -59386.822   -55069.502 
Loop time of 629.621 on 1 procs for 4505 steps with 19652 atoms

Performance: 0.618 ns/day, 38.822 hours/ns, 7.155 timesteps/s
98.8% CPU use with 1 MPI tasks x no OpenMP threads

MPI task timing breakdown:
Section |  min time  |  avg time  |  max time  |%varavg| %total
---------------------------------------------------------------
Pair    | 335.78     | 335.78     | 335.78     |   0.0 | 53.33
Neigh   | 280.92     | 280.92     | 280.92     |   0.0 | 44.62
Comm    | 4.7689     | 4.7689     | 4.7689     |   0.0 |  0.76
Output  | 0.042406   | 0.042406   | 0.042406   |   0.0 |  0.01
Modify  | 6.3702     | 6.3702     | 6.3702     |   0.0 |  1.01
Other   |            | 1.743      |            |       |  0.28

Nlocal:    19652 ave 19652 max 19652 min
Histogram: 1 0 0 0 0 0 0 0 0 0
Nghost:    16776 ave 16776 max 16776 min
Histogram: 1 0 0 0 0 0 0 0 0 0
Neighs:    1.20202e+06 ave 1.20202e+06 max 1.20202e+06 min
Histogram: 1 0 0 0 0 0 0 0 0 0

Total # of neighbors = 1202018
Ave neighs/atom = 61.1652
Neighbor list builds = 4505
Dangerous builds not checked
Setting up Verlet run ...
  Unit style    : metal
  Current step  : 115000
  Time step     : 0.001
Per MPI rank memory allocation (min/avg/max) = 18.21 | 18.21 | 18.21 Mbytes
Step Temp Press TotEng PotEng Enthalpy 
  115000    1695.1901    44.310927   -55080.885   -59386.822   -55069.502 
  115495    1667.2239    608.78731   -55259.867   -59494.767    -55104.24 
Loop time of 65.5582 on 1 procs for 495 steps with 19652 atoms

Performance: 0.652 ns/day, 36.789 hours/ns, 7.551 timesteps/s
100.0% CPU use with 1 MPI tasks x no OpenMP threads

MPI task timing breakdown:
Section |  min time  |  avg time  |  max time  |%varavg| %total
---------------------------------------------------------------
Pair    | 34.392     | 34.392     | 34.392     |   0.0 | 52.46
Neigh   | 29.789     | 29.789     | 29.789     |   0.0 | 45.44
Comm    | 0.49095    | 0.49095    | 0.49095    |   0.0 |  0.75
Output  | 0.00030398 | 0.00030398 | 0.00030398 |   0.0 |  0.00
Modify  | 0.70005    | 0.70005    | 0.70005    |   0.0 |  1.07
Other   |            | 0.1852     |            |       |  0.28

Nlocal:    19652 ave 19652 max 19652 min
Histogram: 1 0 0 0 0 0 0 0 0 0
Nghost:    16874 ave 16874 max 16874 min
Histogram: 1 0 0 0 0 0 0 0 0 0
Neighs:    1.20779e+06 ave 1.20779e+06 max 1.20779e+06 min
Histogram: 1 0 0 0 0 0 0 0 0 0

Total # of neighbors = 1207792
Ave neighs/atom = 61.459
Neighbor list builds = 495
Dangerous builds not checked
Setting up Verlet run ...
  Unit style    : metal
  Current step  : 115495
  Time step     : 0.001
Per MPI rank memory allocation (min/avg/max) = 18.21 | 18.21 | 18.21 Mbytes
Step Temp Press TotEng PotEng Enthalpy 
  115495    1667.2239    608.78731   -55259.867   -59494.767    -55104.24 
  120000    1648.0899   -106.54677   -55364.403   -59550.701   -55391.616 
Loop time of 579.888 on 1 procs for 4505 steps with 19652 atoms

Performance: 0.671 ns/day, 35.756 hours/ns, 7.769 timesteps/s
99.5% CPU use with 1 MPI tasks x no OpenMP threads

MPI task timing breakdown:
Section |  min time  |  avg time  |  max time  |%varavg| %total
---------------------------------------------------------------
Pair    | 301.59     | 301.59     | 301.59     |   0.0 | 52.01
Neigh   | 266.29     | 266.29     | 266.29     |   0.0 | 45.92
Comm    | 4.3672     | 4.3672     | 4.3672     |   0.0 |  0.75
Output  | 0.04463    | 0.04463    | 0.04463    |   0.0 |  0.01
Modify  | 6.0054     | 6.0054     | 6.0054     |   0.0 |  1.04
Other   |            | 1.597      |            |       |  0.28

Nlocal:    19652 ave 19652 max 19652 min
Histogram: 1 0 0 0 0 0 0 0 0 0
Nghost:    16845 ave 16845 max 16845 min
Histogram: 1 0 0 0 0 0 0 0 0 0
Neighs:    1.20866e+06 ave 1.20866e+06 max 1.20866e+06 min
Histogram: 1 0 0 0 0 0 0 0 0 0

Total # of neighbors = 1208665
Ave neighs/atom = 61.5034
Neighbor list builds = 4505
Dangerous builds not checked
Setting up Verlet run ...
  Unit style    : metal
  Current step  : 120000
  Time step     : 0.001
Per MPI rank memory allocation (min/avg/max) = 18.21 | 18.21 | 18.21 Mbytes
Step Temp Press TotEng PotEng Enthalpy 
  120000    1648.0899   -106.54677   -55364.403   -59550.701   -55391.616 
  120495    1627.0822   -7.3107175   -55575.657   -59708.594   -55577.514 
Loop time of 59.3907 on 1 procs for 495 steps with 19652 atoms

Performance: 0.720 ns/day, 33.328 hours/ns, 8.335 timesteps/s
99.8% CPU use with 1 MPI tasks x no OpenMP threads

MPI task timing breakdown:
Section |  min time  |  avg time  |  max time  |%varavg| %total
---------------------------------------------------------------
Pair    | 30.883     | 30.883     | 30.883     |   0.0 | 52.00
Neigh   | 27.286     | 27.286     | 27.286     |   0.0 | 45.94
Comm    | 0.4441     | 0.4441     | 0.4441     |   0.0 |  0.75
Output  | 0.00016594 | 0.00016594 | 0.00016594 |   0.0 |  0.00
Modify  | 0.61324    | 0.61324    | 0.61324    |   0.0 |  1.03
Other   |            | 0.1638     |            |       |  0.28

Nlocal:    19652 ave 19652 max 19652 min
Histogram: 1 0 0 0 0 0 0 0 0 0
Nghost:    16774 ave 16774 max 16774 min
Histogram: 1 0 0 0 0 0 0 0 0 0
Neighs:    1.21555e+06 ave 1.21555e+06 max 1.21555e+06 min
Histogram: 1 0 0 0 0 0 0 0 0 0

Total # of neighbors = 1215547
Ave neighs/atom = 61.8536
Neighbor list builds = 495
Dangerous builds not checked
Setting up Verlet run ...
  Unit style    : metal
  Current step  : 120495
  Time step     : 0.001
Per MPI rank memory allocation (min/avg/max) = 18.21 | 18.21 | 18.21 Mbytes
Step Temp Press TotEng PotEng Enthalpy 
  120495    1627.0822   -7.3107175   -55575.657   -59708.594   -55577.514 
  125000    1605.3128   -645.97581   -55626.982   -59704.622   -55791.218 
Loop time of 615.313 on 1 procs for 4505 steps with 19652 atoms

Performance: 0.633 ns/day, 37.940 hours/ns, 7.321 timesteps/s
99.5% CPU use with 1 MPI tasks x no OpenMP threads

MPI task timing breakdown:
Section |  min time  |  avg time  |  max time  |%varavg| %total
---------------------------------------------------------------
Pair    | 324.26     | 324.26     | 324.26     |   0.0 | 52.70
Neigh   | 278.38     | 278.38     | 278.38     |   0.0 | 45.24
Comm    | 4.5935     | 4.5935     | 4.5935     |   0.0 |  0.75
Output  | 0.07014    | 0.07014    | 0.07014    |   0.0 |  0.01
Modify  | 6.3288     | 6.3288     | 6.3288     |   0.0 |  1.03
Other   |            | 1.68       |            |       |  0.27

Nlocal:    19652 ave 19652 max 19652 min
Histogram: 1 0 0 0 0 0 0 0 0 0
Nghost:    16831 ave 16831 max 16831 min
Histogram: 1 0 0 0 0 0 0 0 0 0
Neighs:    1.21456e+06 ave 1.21456e+06 max 1.21456e+06 min
Histogram: 1 0 0 0 0 0 0 0 0 0

Total # of neighbors = 1214564
Ave neighs/atom = 61.8036
Neighbor list builds = 4505
Dangerous builds not checked
Setting up Verlet run ...
  Unit style    : metal
  Current step  : 125000
  Time step     : 0.001
Per MPI rank memory allocation (min/avg/max) = 18.21 | 18.21 | 18.21 Mbytes
Step Temp Press TotEng PotEng Enthalpy 
  125000    1605.3128   -645.97581   -55626.982   -59704.622   -55791.218 
  125495    1563.8754    538.83397   -55866.967   -59839.353   -55731.006 
Loop time of 70.1528 on 1 procs for 495 steps with 19652 atoms

Performance: 0.610 ns/day, 39.367 hours/ns, 7.056 timesteps/s
99.5% CPU use with 1 MPI tasks x no OpenMP threads

MPI task timing breakdown:
Section |  min time  |  avg time  |  max time  |%varavg| %total
---------------------------------------------------------------
Pair    | 37.147     | 37.147     | 37.147     |   0.0 | 52.95
Neigh   | 31.551     | 31.551     | 31.551     |   0.0 | 44.97
Comm    | 0.52349    | 0.52349    | 0.52349    |   0.0 |  0.75
Output  | 0.00048995 | 0.00048995 | 0.00048995 |   0.0 |  0.00
Modify  | 0.73517    | 0.73517    | 0.73517    |   0.0 |  1.05
Other   |            | 0.1959     |            |       |  0.28

Nlocal:    19652 ave 19652 max 19652 min
Histogram: 1 0 0 0 0 0 0 0 0 0
Nghost:    16898 ave 16898 max 16898 min
Histogram: 1 0 0 0 0 0 0 0 0 0
Neighs:    1.22382e+06 ave 1.22382e+06 max 1.22382e+06 min
Histogram: 1 0 0 0 0 0 0 0 0 0

Total # of neighbors = 1223825
Ave neighs/atom = 62.2748
Neighbor list builds = 495
Dangerous builds not checked
Setting up Verlet run ...
  Unit style    : metal
  Current step  : 125495
  Time step     : 0.001
Per MPI rank memory allocation (min/avg/max) = 18.21 | 18.21 | 18.21 Mbytes
Step Temp Press TotEng PotEng Enthalpy 
  125495    1563.8754    538.83397   -55866.967   -59839.353   -55731.006 
  130000    1562.7098     315.3317   -55901.455   -59870.881   -55821.916 
Loop time of 657.315 on 1 procs for 4505 steps with 19652 atoms

Performance: 0.592 ns/day, 40.530 hours/ns, 6.854 timesteps/s
99.1% CPU use with 1 MPI tasks x no OpenMP threads

MPI task timing breakdown:
Section |  min time  |  avg time  |  max time  |%varavg| %total
---------------------------------------------------------------
Pair    | 349.79     | 349.79     | 349.79     |   0.0 | 53.22
Neigh   | 294.04     | 294.04     | 294.04     |   0.0 | 44.73
Comm    | 4.8838     | 4.8838     | 4.8838     |   0.0 |  0.74
Output  | 0.063698   | 0.063698   | 0.063698   |   0.0 |  0.01
Modify  | 6.7438     | 6.7438     | 6.7438     |   0.0 |  1.03
Other   |            | 1.789      |            |       |  0.27

Nlocal:    19652 ave 19652 max 19652 min
Histogram: 1 0 0 0 0 0 0 0 0 0
Nghost:    16904 ave 16904 max 16904 min
Histogram: 1 0 0 0 0 0 0 0 0 0
Neighs:    1.22422e+06 ave 1.22422e+06 max 1.22422e+06 min
Histogram: 1 0 0 0 0 0 0 0 0 0

Total # of neighbors = 1224221
Ave neighs/atom = 62.295
Neighbor list builds = 4505
Dangerous builds not checked
Setting up Verlet run ...
  Unit style    : metal
  Current step  : 130000
  Time step     : 0.001
Per MPI rank memory allocation (min/avg/max) = 18.21 | 18.21 | 18.21 Mbytes
Step Temp Press TotEng PotEng Enthalpy 
  130000    1562.7098     315.3317   -55901.455   -59870.881   -55821.916 
  130495    1515.5596    176.03432   -56140.569   -59990.228   -56096.361 
Loop time of 71.2605 on 1 procs for 495 steps with 19652 atoms

Performance: 0.600 ns/day, 39.989 hours/ns, 6.946 timesteps/s
99.1% CPU use with 1 MPI tasks x no OpenMP threads

MPI task timing breakdown:
Section |  min time  |  avg time  |  max time  |%varavg| %total
---------------------------------------------------------------
Pair    | 37.727     | 37.727     | 37.727     |   0.0 | 52.94
Neigh   | 32.054     | 32.054     | 32.054     |   0.0 | 44.98
Comm    | 0.52867    | 0.52867    | 0.52867    |   0.0 |  0.74
Output  | 0.00036216 | 0.00036216 | 0.00036216 |   0.0 |  0.00
Modify  | 0.75145    | 0.75145    | 0.75145    |   0.0 |  1.05
Other   |            | 0.1993     |            |       |  0.28

Nlocal:    19652 ave 19652 max 19652 min
Histogram: 1 0 0 0 0 0 0 0 0 0
Nghost:    16905 ave 16905 max 16905 min
Histogram: 1 0 0 0 0 0 0 0 0 0
Neighs:    1.23003e+06 ave 1.23003e+06 max 1.23003e+06 min
Histogram: 1 0 0 0 0 0 0 0 0 0

Total # of neighbors = 1230029
Ave neighs/atom = 62.5905
Neighbor list builds = 495
Dangerous builds not checked
Setting up Verlet run ...
  Unit style    : metal
  Current step  : 130495
  Time step     : 0.001
Per MPI rank memory allocation (min/avg/max) = 18.21 | 18.21 | 18.21 Mbytes
Step Temp Press TotEng PotEng Enthalpy 
  130495    1515.5596    176.03432   -56140.569   -59990.228   -56096.361 
  135000    1500.9096    423.24362   -56208.091   -60020.538   -56101.938 
Loop time of 665.665 on 1 procs for 4505 steps with 19652 atoms

Performance: 0.585 ns/day, 41.045 hours/ns, 6.768 timesteps/s
98.2% CPU use with 1 MPI tasks x no OpenMP threads

MPI task timing breakdown:
Section |  min time  |  avg time  |  max time  |%varavg| %total
---------------------------------------------------------------
Pair    | 353.31     | 353.31     | 353.31     |   0.0 | 53.08
Neigh   | 298.66     | 298.66     | 298.66     |   0.0 | 44.87
Comm    | 4.9433     | 4.9433     | 4.9433     |   0.0 |  0.74
Output  | 0.06704    | 0.06704    | 0.06704    |   0.0 |  0.01
Modify  | 6.8725     | 6.8725     | 6.8725     |   0.0 |  1.03
Other   |            | 1.817      |            |       |  0.27

Nlocal:    19652 ave 19652 max 19652 min
Histogram: 1 0 0 0 0 0 0 0 0 0
Nghost:    16968 ave 16968 max 16968 min
Histogram: 1 0 0 0 0 0 0 0 0 0
Neighs:    1.23157e+06 ave 1.23157e+06 max 1.23157e+06 min
Histogram: 1 0 0 0 0 0 0 0 0 0

Total # of neighbors = 1231574
Ave neighs/atom = 62.6691
Neighbor list builds = 4505
Dangerous builds not checked
Setting up Verlet run ...
  Unit style    : metal
  Current step  : 135000
  Time step     : 0.001
Per MPI rank memory allocation (min/avg/max) = 18.21 | 18.21 | 18.21 Mbytes
Step Temp Press TotEng PotEng Enthalpy 
  135000    1500.9096    423.24362   -56208.091   -60020.538   -56101.938 
  135495    1470.2718    285.21475   -56421.489   -60156.114   -56350.288 
Loop time of 71.4203 on 1 procs for 495 steps with 19652 atoms

Performance: 0.599 ns/day, 40.079 hours/ns, 6.931 timesteps/s
99.3% CPU use with 1 MPI tasks x no OpenMP threads

MPI task timing breakdown:
Section |  min time  |  avg time  |  max time  |%varavg| %total
---------------------------------------------------------------
Pair    | 38.017     | 38.017     | 38.017     |   0.0 | 53.23
Neigh   | 31.932     | 31.932     | 31.932     |   0.0 | 44.71
Comm    | 0.53047    | 0.53047    | 0.53047    |   0.0 |  0.74
Output  | 0.00025201 | 0.00025201 | 0.00025201 |   0.0 |  0.00
Modify  | 0.73943    | 0.73943    | 0.73943    |   0.0 |  1.04
Other   |            | 0.2016     |            |       |  0.28

Nlocal:    19652 ave 19652 max 19652 min
Histogram: 1 0 0 0 0 0 0 0 0 0
Nghost:    16982 ave 16982 max 16982 min
Histogram: 1 0 0 0 0 0 0 0 0 0
Neighs:    1.2378e+06 ave 1.2378e+06 max 1.2378e+06 min
Histogram: 1 0 0 0 0 0 0 0 0 0

Total # of neighbors = 1237795
Ave neighs/atom = 62.9857
Neighbor list builds = 495
Dangerous builds not checked
Setting up Verlet run ...
  Unit style    : metal
  Current step  : 135495
  Time step     : 0.001
Per MPI rank memory allocation (min/avg/max) = 18.21 | 18.21 | 18.21 Mbytes
Step Temp Press TotEng PotEng Enthalpy 
  135495    1470.2718    285.21475   -56421.489   -60156.114   -56350.288 
  140000     1451.909    573.91998   -56520.024   -60208.005   -56377.144 
Loop time of 686.333 on 1 procs for 4505 steps with 19652 atoms

Performance: 0.567 ns/day, 42.319 hours/ns, 6.564 timesteps/s
98.2% CPU use with 1 MPI tasks x no OpenMP threads

MPI task timing breakdown:
Section |  min time  |  avg time  |  max time  |%varavg| %total
---------------------------------------------------------------
Pair    | 369.82     | 369.82     | 369.82     |   0.0 | 53.88
Neigh   | 302.25     | 302.25     | 302.25     |   0.0 | 44.04
Comm    | 5.0952     | 5.0952     | 5.0952     |   0.0 |  0.74
Output  | 0.093758   | 0.093758   | 0.093758   |   0.0 |  0.01
Modify  | 7.1738     | 7.1738     | 7.1738     |   0.0 |  1.05
Other   |            | 1.905      |            |       |  0.28

Nlocal:    19652 ave 19652 max 19652 min
Histogram: 1 0 0 0 0 0 0 0 0 0
Nghost:    17016 ave 17016 max 17016 min
Histogram: 1 0 0 0 0 0 0 0 0 0
Neighs:    1.24137e+06 ave 1.24137e+06 max 1.24137e+06 min
Histogram: 1 0 0 0 0 0 0 0 0 0

Total # of neighbors = 1241366
Ave neighs/atom = 63.1674
Neighbor list builds = 4505
Dangerous builds not checked
Setting up Verlet run ...
  Unit style    : metal
  Current step  : 140000
  Time step     : 0.001
Per MPI rank memory allocation (min/avg/max) = 18.21 | 18.21 | 18.21 Mbytes
Step Temp Press TotEng PotEng Enthalpy 
  140000     1451.909    573.91998   -56520.024   -60208.005   -56377.144 
  140495    1421.5449    135.40323   -56744.116    -60354.97   -56710.565 
Loop time of 74.7327 on 1 procs for 495 steps with 19652 atoms

Performance: 0.572 ns/day, 41.938 hours/ns, 6.624 timesteps/s
98.5% CPU use with 1 MPI tasks x no OpenMP threads

MPI task timing breakdown:
Section |  min time  |  avg time  |  max time  |%varavg| %total
---------------------------------------------------------------
Pair    | 40.377     | 40.377     | 40.377     |   0.0 | 54.03
Neigh   | 32.799     | 32.799     | 32.799     |   0.0 | 43.89
Comm    | 0.57146    | 0.57146    | 0.57146    |   0.0 |  0.76
Output  | 0.00039721 | 0.00039721 | 0.00039721 |   0.0 |  0.00
Modify  | 0.77568    | 0.77568    | 0.77568    |   0.0 |  1.04
Other   |            | 0.2083     |            |       |  0.28

Nlocal:    19652 ave 19652 max 19652 min
Histogram: 1 0 0 0 0 0 0 0 0 0
Nghost:    17047 ave 17047 max 17047 min
Histogram: 1 0 0 0 0 0 0 0 0 0
Neighs:    1.24727e+06 ave 1.24727e+06 max 1.24727e+06 min
Histogram: 1 0 0 0 0 0 0 0 0 0

Total # of neighbors = 1247273
Ave neighs/atom = 63.468
Neighbor list builds = 495
Dangerous builds not checked
Setting up Verlet run ...
  Unit style    : metal
  Current step  : 140495
  Time step     : 0.001
Per MPI rank memory allocation (min/avg/max) = 18.21 | 18.21 | 18.21 Mbytes
Step Temp Press TotEng PotEng Enthalpy 
  140495    1421.5449    135.40323   -56744.116    -60354.97   -56710.565 
  145000    1393.7485     23.03363   -56837.772    -60378.02   -56832.068 
Loop time of 696.874 on 1 procs for 4505 steps with 19652 atoms

Performance: 0.559 ns/day, 42.969 hours/ns, 6.465 timesteps/s
98.4% CPU use with 1 MPI tasks x no OpenMP threads

MPI task timing breakdown:
Section |  min time  |  avg time  |  max time  |%varavg| %total
---------------------------------------------------------------
Pair    | 379.59     | 379.59     | 379.59     |   0.0 | 54.47
Neigh   | 303.16     | 303.16     | 303.16     |   0.0 | 43.50
Comm    | 5.2041     | 5.2041     | 5.2041     |   0.0 |  0.75
Output  | 0.06774    | 0.06774    | 0.06774    |   0.0 |  0.01
Modify  | 6.9857     | 6.9857     | 6.9857     |   0.0 |  1.00
Other   |            | 1.87       |            |       |  0.27

Nlocal:    19652 ave 19652 max 19652 min
Histogram: 1 0 0 0 0 0 0 0 0 0
Nghost:    17093 ave 17093 max 17093 min
Histogram: 1 0 0 0 0 0 0 0 0 0
Neighs:    1.24889e+06 ave 1.24889e+06 max 1.24889e+06 min
Histogram: 1 0 0 0 0 0 0 0 0 0

Total # of neighbors = 1248894
Ave neighs/atom = 63.5505
Neighbor list builds = 4505
Dangerous builds not checked
Setting up Verlet run ...
  Unit style    : metal
  Current step  : 145000
  Time step     : 0.001
Per MPI rank memory allocation (min/avg/max) = 18.21 | 18.21 | 18.21 Mbytes
Step Temp Press TotEng PotEng Enthalpy 
  145000    1393.7485     23.03363   -56837.772    -60378.02   -56832.068 
  145495    1374.0512   -7.2476062   -57009.726   -60499.941   -57011.513 
Loop time of 73.6495 on 1 procs for 495 steps with 19652 atoms

Performance: 0.581 ns/day, 41.330 hours/ns, 6.721 timesteps/s
98.1% CPU use with 1 MPI tasks x no OpenMP threads

MPI task timing breakdown:
Section |  min time  |  avg time  |  max time  |%varavg| %total
---------------------------------------------------------------
Pair    | 39.758     | 39.758     | 39.758     |   0.0 | 53.98
Neigh   | 32.393     | 32.393     | 32.393     |   0.0 | 43.98
Comm    | 0.54169    | 0.54169    | 0.54169    |   0.0 |  0.74
Output  | 0.00026488 | 0.00026488 | 0.00026488 |   0.0 |  0.00
Modify  | 0.75758    | 0.75758    | 0.75758    |   0.0 |  1.03
Other   |            | 0.199      |            |       |  0.27

Nlocal:    19652 ave 19652 max 19652 min
Histogram: 1 0 0 0 0 0 0 0 0 0
Nghost:    17076 ave 17076 max 17076 min
Histogram: 1 0 0 0 0 0 0 0 0 0
Neighs:    1.25312e+06 ave 1.25312e+06 max 1.25312e+06 min
Histogram: 1 0 0 0 0 0 0 0 0 0

Total # of neighbors = 1253124
Ave neighs/atom = 63.7657
Neighbor list builds = 495
Dangerous builds not checked
Setting up Verlet run ...
  Unit style    : metal
  Current step  : 145495
  Time step     : 0.001
Per MPI rank memory allocation (min/avg/max) = 18.21 | 18.21 | 18.21 Mbytes
Step Temp Press TotEng PotEng Enthalpy 
  145495    1374.0512   -7.2476062   -57009.726   -60499.941   -57011.513 
  150000    1355.8642    234.37597   -57120.957   -60564.976   -57063.317 
Loop time of 693.459 on 1 procs for 4505 steps with 19652 atoms

Performance: 0.561 ns/day, 42.759 hours/ns, 6.496 timesteps/s
98.8% CPU use with 1 MPI tasks x no OpenMP threads

MPI task timing breakdown:
Section |  min time  |  avg time  |  max time  |%varavg| %total
---------------------------------------------------------------
Pair    | 376.88     | 376.88     | 376.88     |   0.0 | 54.35
Neigh   | 302.67     | 302.67     | 302.67     |   0.0 | 43.65
Comm    | 5.0998     | 5.0998     | 5.0998     |   0.0 |  0.74
Output  | 0.077092   | 0.077092   | 0.077092   |   0.0 |  0.01
Modify  | 6.9077     | 6.9077     | 6.9077     |   0.0 |  1.00
Other   |            | 1.832      |            |       |  0.26

Nlocal:    19652 ave 19652 max 19652 min
Histogram: 1 0 0 0 0 0 0 0 0 0
Nghost:    17142 ave 17142 max 17142 min
Histogram: 1 0 0 0 0 0 0 0 0 0
Neighs:    1.2574e+06 ave 1.2574e+06 max 1.2574e+06 min
Histogram: 1 0 0 0 0 0 0 0 0 0

Total # of neighbors = 1257401
Ave neighs/atom = 63.9834
Neighbor list builds = 4505
Dangerous builds not checked
Setting up Verlet run ...
  Unit style    : metal
  Current step  : 150000
  Time step     : 0.001
Per MPI rank memory allocation (min/avg/max) = 18.21 | 18.21 | 18.21 Mbytes
Step Temp Press TotEng PotEng Enthalpy 
  150000    1355.8642    234.37597   -57120.957   -60564.976   -57063.317 
  150495    1307.3004    1235.5506   -57321.404   -60642.066   -57019.069 
Loop time of 82.4795 on 1 procs for 495 steps with 19652 atoms

Performance: 0.519 ns/day, 46.285 hours/ns, 6.001 timesteps/s
90.6% CPU use with 1 MPI tasks x no OpenMP threads

MPI task timing breakdown:
Section |  min time  |  avg time  |  max time  |%varavg| %total
---------------------------------------------------------------
Pair    | 44.599     | 44.599     | 44.599     |   0.0 | 54.07
Neigh   | 36.19      | 36.19      | 36.19      |   0.0 | 43.88
Comm    | 0.62365    | 0.62365    | 0.62365    |   0.0 |  0.76
Output  | 0.00021815 | 0.00021815 | 0.00021815 |   0.0 |  0.00
Modify  | 0.84469    | 0.84469    | 0.84469    |   0.0 |  1.02
Other   |            | 0.222      |            |       |  0.27

Nlocal:    19652 ave 19652 max 19652 min
Histogram: 1 0 0 0 0 0 0 0 0 0
Nghost:    17088 ave 17088 max 17088 min
Histogram: 1 0 0 0 0 0 0 0 0 0
Neighs:    1.26368e+06 ave 1.26368e+06 max 1.26368e+06 min
Histogram: 1 0 0 0 0 0 0 0 0 0

Total # of neighbors = 1263682
Ave neighs/atom = 64.303
Neighbor list builds = 495
Dangerous builds not checked
Setting up Verlet run ...
  Unit style    : metal
  Current step  : 150495
  Time step     : 0.001
Per MPI rank memory allocation (min/avg/max) = 18.21 | 18.21 | 18.21 Mbytes
Step Temp Press TotEng PotEng Enthalpy 
  150495    1307.3004    1235.5506   -57321.404   -60642.066   -57019.069 
  155000    1317.2091   -352.48898   -57348.759    -60694.59   -57435.135 
Loop time of 788.772 on 1 procs for 4505 steps with 19652 atoms

Performance: 0.493 ns/day, 48.636 hours/ns, 5.711 timesteps/s
89.5% CPU use with 1 MPI tasks x no OpenMP threads

MPI task timing breakdown:
Section |  min time  |  avg time  |  max time  |%varavg| %total
---------------------------------------------------------------
Pair    | 431.86     | 431.86     | 431.86     |   0.0 | 54.75
Neigh   | 340.95     | 340.95     | 340.95     |   0.0 | 43.23
Comm    | 5.7336     | 5.7336     | 5.7336     |   0.0 |  0.73
Output  | 0.072823   | 0.072823   | 0.072823   |   0.0 |  0.01
Modify  | 7.9984     | 7.9984     | 7.9984     |   0.0 |  1.01
Other   |            | 2.149      |            |       |  0.27

Nlocal:    19652 ave 19652 max 19652 min
Histogram: 1 0 0 0 0 0 0 0 0 0
Nghost:    17131 ave 17131 max 17131 min
Histogram: 1 0 0 0 0 0 0 0 0 0
Neighs:    1.26307e+06 ave 1.26307e+06 max 1.26307e+06 min
Histogram: 1 0 0 0 0 0 0 0 0 0

Total # of neighbors = 1263073
Ave neighs/atom = 64.272
Neighbor list builds = 4505
Dangerous builds not checked
Setting up Verlet run ...
  Unit style    : metal
  Current step  : 155000
  Time step     : 0.001
Per MPI rank memory allocation (min/avg/max) = 18.21 | 18.21 | 18.21 Mbytes
Step Temp Press TotEng PotEng Enthalpy 
  155000    1317.2091   -352.48898   -57348.759    -60694.59   -57435.135 
  155495    1265.6794   -275.82734    -57611.45   -60826.391   -57678.663 
Loop time of 87.1034 on 1 procs for 495 steps with 19652 atoms

Performance: 0.491 ns/day, 48.880 hours/ns, 5.683 timesteps/s
89.6% CPU use with 1 MPI tasks x no OpenMP threads

MPI task timing breakdown:
Section |  min time  |  avg time  |  max time  |%varavg| %total
---------------------------------------------------------------
Pair    | 47.727     | 47.727     | 47.727     |   0.0 | 54.79
Neigh   | 37.611     | 37.611     | 37.611     |   0.0 | 43.18
Comm    | 0.64018    | 0.64018    | 0.64018    |   0.0 |  0.73
Output  | 0.00030899 | 0.00030899 | 0.00030899 |   0.0 |  0.00
Modify  | 0.89175    | 0.89175    | 0.89175    |   0.0 |  1.02
Other   |            | 0.2337     |            |       |  0.27

Nlocal:    19652 ave 19652 max 19652 min
Histogram: 1 0 0 0 0 0 0 0 0 0
Nghost:    17187 ave 17187 max 17187 min
Histogram: 1 0 0 0 0 0 0 0 0 0
Neighs:    1.26927e+06 ave 1.26927e+06 max 1.26927e+06 min
Histogram: 1 0 0 0 0 0 0 0 0 0

Total # of neighbors = 1269270
Ave neighs/atom = 64.5873
Neighbor list builds = 495
Dangerous builds not checked
Setting up Verlet run ...
  Unit style    : metal
  Current step  : 155495
  Time step     : 0.001
Per MPI rank memory allocation (min/avg/max) = 18.21 | 18.21 | 18.21 Mbytes
Step Temp Press TotEng PotEng Enthalpy 
  155495    1265.6794   -275.82734    -57611.45   -60826.391   -57678.663 
  160000    1245.5777   -252.77723   -57695.639    -60859.52   -57757.164 
Loop time of 796.8 on 1 procs for 4505 steps with 19652 atoms

Performance: 0.488 ns/day, 49.131 hours/ns, 5.654 timesteps/s
91.6% CPU use with 1 MPI tasks x no OpenMP threads

MPI task timing breakdown:
Section |  min time  |  avg time  |  max time  |%varavg| %total
---------------------------------------------------------------
Pair    | 441.5      | 441.5      | 441.5      |   0.0 | 55.41
Neigh   | 339.14     | 339.14     | 339.14     |   0.0 | 42.56
Comm    | 6.0432     | 6.0432     | 6.0432     |   0.0 |  0.76
Output  | 0.068035   | 0.068035   | 0.068035   |   0.0 |  0.01
Modify  | 7.9307     | 7.9307     | 7.9307     |   0.0 |  1.00
Other   |            | 2.118      |            |       |  0.27

Nlocal:    19652 ave 19652 max 19652 min
Histogram: 1 0 0 0 0 0 0 0 0 0
Nghost:    17130 ave 17130 max 17130 min
Histogram: 1 0 0 0 0 0 0 0 0 0
Neighs:    1.27094e+06 ave 1.27094e+06 max 1.27094e+06 min
Histogram: 1 0 0 0 0 0 0 0 0 0

Total # of neighbors = 1270938
Ave neighs/atom = 64.6722
Neighbor list builds = 4505
Dangerous builds not checked
Setting up Verlet run ...
  Unit style    : metal
  Current step  : 160000
  Time step     : 0.001
Per MPI rank memory allocation (min/avg/max) = 18.21 | 18.21 | 18.21 Mbytes
Step Temp Press TotEng PotEng Enthalpy 
  160000    1245.5777   -252.77723   -57695.639    -60859.52   -57757.164 
  160495    1215.5386   -38.884836   -57911.692   -60999.271   -57921.109 
Loop time of 93.1836 on 1 procs for 495 steps with 19652 atoms

Performance: 0.459 ns/day, 52.292 hours/ns, 5.312 timesteps/s
84.3% CPU use with 1 MPI tasks x no OpenMP threads

MPI task timing breakdown:
Section |  min time  |  avg time  |  max time  |%varavg| %total
---------------------------------------------------------------
Pair    | 51.42      | 51.42      | 51.42      |   0.0 | 55.18
Neigh   | 39.822     | 39.822     | 39.822     |   0.0 | 42.74
Comm    | 0.73287    | 0.73287    | 0.73287    |   0.0 |  0.79
Output  | 0.00025892 | 0.00025892 | 0.00025892 |   0.0 |  0.00
Modify  | 0.95869    | 0.95869    | 0.95869    |   0.0 |  1.03
Other   |            | 0.2494     |            |       |  0.27

Nlocal:    19652 ave 19652 max 19652 min
Histogram: 1 0 0 0 0 0 0 0 0 0
Nghost:    17159 ave 17159 max 17159 min
Histogram: 1 0 0 0 0 0 0 0 0 0
Neighs:    1.27826e+06 ave 1.27826e+06 max 1.27826e+06 min
Histogram: 1 0 0 0 0 0 0 0 0 0

Total # of neighbors = 1278262
Ave neighs/atom = 65.0449
Neighbor list builds = 495
Dangerous builds not checked
Setting up Verlet run ...
  Unit style    : metal
  Current step  : 160495
  Time step     : 0.001
Per MPI rank memory allocation (min/avg/max) = 18.21 | 18.21 | 18.21 Mbytes
Step Temp Press TotEng PotEng Enthalpy 
  160495    1215.5386   -38.884836   -57911.692   -60999.271   -57921.109 
  165000    1215.5659    1042.8371   -57992.198   -61079.846   -57740.743 
Loop time of 755.431 on 1 procs for 4505 steps with 19652 atoms

Performance: 0.515 ns/day, 46.580 hours/ns, 5.963 timesteps/s
95.9% CPU use with 1 MPI tasks x no OpenMP threads

MPI task timing breakdown:
Section |  min time  |  avg time  |  max time  |%varavg| %total
---------------------------------------------------------------
Pair    | 417.95     | 417.95     | 417.95     |   0.0 | 55.33
Neigh   | 322.2      | 322.2      | 322.2      |   0.0 | 42.65
Comm    | 5.6754     | 5.6754     | 5.6754     |   0.0 |  0.75
Output  | 0.11296    | 0.11296    | 0.11296    |   0.0 |  0.01
Modify  | 7.4823     | 7.4823     | 7.4823     |   0.0 |  0.99
Other   |            | 2.015      |            |       |  0.27

Nlocal:    19652 ave 19652 max 19652 min
Histogram: 1 0 0 0 0 0 0 0 0 0
Nghost:    17287 ave 17287 max 17287 min
Histogram: 1 0 0 0 0 0 0 0 0 0
Neighs:    1.28363e+06 ave 1.28363e+06 max 1.28363e+06 min
Histogram: 1 0 0 0 0 0 0 0 0 0

Total # of neighbors = 1283626
Ave neighs/atom = 65.3178
Neighbor list builds = 4505
Dangerous builds not checked
Setting up Verlet run ...
  Unit style    : metal
  Current step  : 165000
  Time step     : 0.001
Per MPI rank memory allocation (min/avg/max) = 18.21 | 18.21 | 18.21 Mbytes
Step Temp Press TotEng PotEng Enthalpy 
  165000    1215.5659    1042.8371   -57992.198   -61079.846   -57740.743 
  165495    1161.6387     771.1532   -58224.955   -61175.623    -58039.65 
Loop time of 78.6936 on 1 procs for 495 steps with 19652 atoms

Performance: 0.543 ns/day, 44.160 hours/ns, 6.290 timesteps/s
99.1% CPU use with 1 MPI tasks x no OpenMP threads

MPI task timing breakdown:
Section |  min time  |  avg time  |  max time  |%varavg| %total
---------------------------------------------------------------
Pair    | 43.371     | 43.371     | 43.371     |   0.0 | 55.11
Neigh   | 33.651     | 33.651     | 33.651     |   0.0 | 42.76
Comm    | 0.60824    | 0.60824    | 0.60824    |   0.0 |  0.77
Output  | 0.00024915 | 0.00024915 | 0.00024915 |   0.0 |  0.00
Modify  | 0.84603    | 0.84603    | 0.84603    |   0.0 |  1.08
Other   |            | 0.2172     |            |       |  0.28

Nlocal:    19652 ave 19652 max 19652 min
Histogram: 1 0 0 0 0 0 0 0 0 0
Nghost:    17285 ave 17285 max 17285 min
Histogram: 1 0 0 0 0 0 0 0 0 0
Neighs:    1.28871e+06 ave 1.28871e+06 max 1.28871e+06 min
Histogram: 1 0 0 0 0 0 0 0 0 0

Total # of neighbors = 1288711
Ave neighs/atom = 65.5766
Neighbor list builds = 495
Dangerous builds not checked
Setting up Verlet run ...
  Unit style    : metal
  Current step  : 165495
  Time step     : 0.001
Per MPI rank memory allocation (min/avg/max) = 18.21 | 18.21 | 18.21 Mbytes
Step Temp Press TotEng PotEng Enthalpy 
  165495    1161.6387     771.1532   -58224.955   -61175.623    -58039.65 
  170000    1166.6747    760.28149   -58338.229   -61301.689    -58156.28 
Loop time of 745.534 on 1 procs for 4505 steps with 19652 atoms

Performance: 0.522 ns/day, 45.970 hours/ns, 6.043 timesteps/s
[...]
Setting up Verlet run ...
  Unit style    : metal
  Current step  : 240000
  Time step     : 0.001
Per MPI rank memory allocation (min/avg/max) = 18.21 | 18.21 | 18.21 Mbytes
Step Temp Press TotEng PotEng Enthalpy 
  240000    450.43616   -178.58272   -63081.945   -64226.094   -63120.549 
  240495    423.12258    248.39795   -63243.957   -64318.727   -63190.471 
Loop time of 78.8035 on 1 procs for 495 steps with 19652 atoms

Performance: 0.543 ns/day, 44.222 hours/ns, 6.281 timesteps/s
99.1% CPU use with 1 MPI tasks x no OpenMP threads

MPI task timing breakdown:
Section |  min time  |  avg time  |  max time  |%varavg| %total
---------------------------------------------------------------
Pair    | 42.797     | 42.797     | 42.797     |   0.0 | 54.31
Neigh   | 34.461     | 34.461     | 34.461     |   0.0 | 43.73
Comm    | 0.57384    | 0.57384    | 0.57384    |   0.0 |  0.73
Output  | 0.0002389  | 0.0002389  | 0.0002389  |   0.0 |  0.00
Modify  | 0.76108    | 0.76108    | 0.76108    |   0.0 |  0.97
Other   |            | 0.2102     |            |       |  0.27

Nlocal:    19652 ave 19652 max 19652 min
Histogram: 1 0 0 0 0 0 0 0 0 0
Nghost:    18063 ave 18063 max 18063 min
Histogram: 1 0 0 0 0 0 0 0 0 0
Neighs:    1.44307e+06 ave 1.44307e+06 max 1.44307e+06 min
Histogram: 1 0 0 0 0 0 0 0 0 0

Total # of neighbors = 1443068
Ave neighs/atom = 73.4311
Neighbor list builds = 495
Dangerous builds not checked
Setting up Verlet run ...
  Unit style    : metal
  Current step  : 240495
  Time step     : 0.001
Per MPI rank memory allocation (min/avg/max) = 18.21 | 18.21 | 18.21 Mbytes
Step Temp Press TotEng PotEng Enthalpy 
  240495    423.12258    248.39795   -63243.957   -64318.727   -63190.471 
  245000    400.81237    631.45367   -63431.784   -64449.884   -63296.479 
Loop time of 726.402 on 1 procs for 4505 steps with 19652 atoms

Performance: 0.536 ns/day, 44.790 hours/ns, 6.202 timesteps/s
99.6% CPU use with 1 MPI tasks x no OpenMP threads

MPI task timing breakdown:
Section |  min time  |  avg time  |  max time  |%varavg| %total
---------------------------------------------------------------
Pair    | 396.79     | 396.79     | 396.79     |   0.0 | 54.62
Neigh   | 315.36     | 315.36     | 315.36     |   0.0 | 43.41
Comm    | 5.2236     | 5.2236     | 5.2236     |   0.0 |  0.72
Output  | 0.083379   | 0.083379   | 0.083379   |   0.0 |  0.01
Modify  | 7.0531     | 7.0531     | 7.0531     |   0.0 |  0.97
Other   |            | 1.891      |            |       |  0.26

Nlocal:    19652 ave 19652 max 19652 min
Histogram: 1 0 0 0 0 0 0 0 0 0
Nghost:    18122 ave 18122 max 18122 min
Histogram: 1 0 0 0 0 0 0 0 0 0
Neighs:    1.45047e+06 ave 1.45047e+06 max 1.45047e+06 min
Histogram: 1 0 0 0 0 0 0 0 0 0

Total # of neighbors = 1450470
Ave neighs/atom = 73.8078
Neighbor list builds = 4505
Dangerous builds not checked
Setting up Verlet run ...
  Unit style    : metal
  Current step  : 245000
  Time step     : 0.001
Per MPI rank memory allocation (min/avg/max) = 18.21 | 18.21 | 18.21 Mbytes
Step Temp Press TotEng PotEng Enthalpy 
  245000    400.81237    631.45367   -63431.784   -64449.884   -63296.479 
  245495    372.06719    665.03441   -63587.201   -64532.285    -63445.12 
Loop time of 78.029 on 1 procs for 495 steps with 19652 atoms

Performance: 0.548 ns/day, 43.787 hours/ns, 6.344 timesteps/s
99.6% CPU use with 1 MPI tasks x no OpenMP threads

MPI task timing breakdown:
Section |  min time  |  avg time  |  max time  |%varavg| %total
---------------------------------------------------------------
Pair    | 42.177     | 42.177     | 42.177     |   0.0 | 54.05
Neigh   | 34.329     | 34.329     | 34.329     |   0.0 | 43.99
Comm    | 0.55755    | 0.55755    | 0.55755    |   0.0 |  0.71
Output  | 0.000211   | 0.000211   | 0.000211   |   0.0 |  0.00
Modify  | 0.76239    | 0.76239    | 0.76239    |   0.0 |  0.98
Other   |            | 0.2033     |            |       |  0.26

Nlocal:    19652 ave 19652 max 19652 min
Histogram: 1 0 0 0 0 0 0 0 0 0
Nghost:    18118 ave 18118 max 18118 min
Histogram: 1 0 0 0 0 0 0 0 0 0
Neighs:    1.45431e+06 ave 1.45431e+06 max 1.45431e+06 min
Histogram: 1 0 0 0 0 0 0 0 0 0

Total # of neighbors = 1454306
Ave neighs/atom = 74.003
Neighbor list builds = 495
Dangerous builds not checked
Setting up Verlet run ...
  Unit style    : metal
  Current step  : 245495
  Time step     : 0.001
Per MPI rank memory allocation (min/avg/max) = 18.21 | 18.21 | 18.21 Mbytes
Step Temp Press TotEng PotEng Enthalpy 
  245495    372.06719    665.03441   -63587.201   -64532.285    -63445.12 
  250000    347.47533   -358.99825   -63754.522   -64637.141   -63831.084 
Loop time of 726.042 on 1 procs for 4505 steps with 19652 atoms

Performance: 0.536 ns/day, 44.768 hours/ns, 6.205 timesteps/s
99.6% CPU use with 1 MPI tasks x no OpenMP threads

MPI task timing breakdown:
Section |  min time  |  avg time  |  max time  |%varavg| %total
---------------------------------------------------------------
Pair    | 394.83     | 394.83     | 394.83     |   0.0 | 54.38
Neigh   | 316.76     | 316.76     | 316.76     |   0.0 | 43.63
Comm    | 5.3207     | 5.3207     | 5.3207     |   0.0 |  0.73
Output  | 0.063008   | 0.063008   | 0.063008   |   0.0 |  0.01
Modify  | 7.1357     | 7.1357     | 7.1357     |   0.0 |  0.98
Other   |            | 1.936      |            |       |  0.27

Nlocal:    19652 ave 19652 max 19652 min
Histogram: 1 0 0 0 0 0 0 0 0 0
Nghost:    18096 ave 18096 max 18096 min
Histogram: 1 0 0 0 0 0 0 0 0 0
Neighs:    1.45677e+06 ave 1.45677e+06 max 1.45677e+06 min
Histogram: 1 0 0 0 0 0 0 0 0 0

Total # of neighbors = 1456770
Ave neighs/atom = 74.1283
Neighbor list builds = 4505
Dangerous builds not checked
Setting up Verlet run ...
  Unit style    : metal
  Current step  : 250000
  Time step     : 0.001
Per MPI rank memory allocation (min/avg/max) = 18.21 | 18.21 | 18.21 Mbytes
Step Temp Press TotEng PotEng Enthalpy 
  250000    347.47533   -358.99825   -63754.522   -64637.141   -63831.084 
  250495    324.86154   -498.60592   -63901.316   -64726.494   -64007.358 
Loop time of 82.2812 on 1 procs for 495 steps with 19652 atoms

Performance: 0.520 ns/day, 46.173 hours/ns, 6.016 timesteps/s
98.8% CPU use with 1 MPI tasks x no OpenMP threads

MPI task timing breakdown:
Section |  min time  |  avg time  |  max time  |%varavg| %total
---------------------------------------------------------------
Pair    | 45.092     | 45.092     | 45.092     |   0.0 | 54.80
Neigh   | 35.544     | 35.544     | 35.544     |   0.0 | 43.20
Comm    | 0.60514    | 0.60514    | 0.60514    |   0.0 |  0.74
Output  | 0.0034199  | 0.0034199  | 0.0034199  |   0.0 |  0.00
Modify  | 0.81796    | 0.81796    | 0.81796    |   0.0 |  0.99
Other   |            | 0.2182     |            |       |  0.27

Nlocal:    19652 ave 19652 max 19652 min
Histogram: 1 0 0 0 0 0 0 0 0 0
Nghost:    18118 ave 18118 max 18118 min
Histogram: 1 0 0 0 0 0 0 0 0 0
Neighs:    1.45985e+06 ave 1.45985e+06 max 1.45985e+06 min
Histogram: 1 0 0 0 0 0 0 0 0 0

Total # of neighbors = 1459853
Ave neighs/atom = 74.2852
Neighbor list builds = 495
Dangerous builds not checked
Setting up Verlet run ...
  Unit style    : metal
  Current step  : 250495
  Time step     : 0.001
Per MPI rank memory allocation (min/avg/max) = 18.21 | 18.21 | 18.21 Mbytes
Step Temp Press TotEng PotEng Enthalpy 
  250495    324.86154   -498.60592   -63901.316   -64726.494   -64007.358 
  255000    297.92676    547.07574   -64057.352   -64814.114   -63941.487 
Loop time of 863.291 on 1 procs for 4505 steps with 19652 atoms

Performance: 0.451 ns/day, 53.230 hours/ns, 5.218 timesteps/s
83.4% CPU use with 1 MPI tasks x no OpenMP threads

MPI task timing breakdown:
Section |  min time  |  avg time  |  max time  |%varavg| %total
---------------------------------------------------------------
Pair    | 471.88     | 471.88     | 471.88     |   0.0 | 54.66
Neigh   | 374.39     | 374.39     | 374.39     |   0.0 | 43.37
Comm    | 6.1024     | 6.1024     | 6.1024     |   0.0 |  0.71
Output  | 0.16039    | 0.16039    | 0.16039    |   0.0 |  0.02
Modify  | 8.4212     | 8.4212     | 8.4212     |   0.0 |  0.98
Other   |            | 2.34       |            |       |  0.27

Nlocal:    19652 ave 19652 max 19652 min
Histogram: 1 0 0 0 0 0 0 0 0 0
Nghost:    18166 ave 18166 max 18166 min
Histogram: 1 0 0 0 0 0 0 0 0 0
Neighs:    1.46563e+06 ave 1.46563e+06 max 1.46563e+06 min
Histogram: 1 0 0 0 0 0 0 0 0 0

Total # of neighbors = 1465634
Ave neighs/atom = 74.5794
Neighbor list builds = 4505
Dangerous builds not checked
Setting up Verlet run ...
  Unit style    : metal
  Current step  : 255000
  Time step     : 0.001
Per MPI rank memory allocation (min/avg/max) = 18.21 | 18.21 | 18.21 Mbytes
Step Temp Press TotEng PotEng Enthalpy 
  255000    297.92676    547.07574   -64057.352   -64814.114   -63941.487 
  255495    272.67346   -541.44407    -64199.51   -64892.126   -64314.052 
Loop time of 93.1758 on 1 procs for 495 steps with 19652 atoms

Performance: 0.459 ns/day, 52.287 hours/ns, 5.313 timesteps/s
84.1% CPU use with 1 MPI tasks x no OpenMP threads

MPI task timing breakdown:
Section |  min time  |  avg time  |  max time  |%varavg| %total
---------------------------------------------------------------
Pair    | 50.435     | 50.435     | 50.435     |   0.0 | 54.13
Neigh   | 40.865     | 40.865     | 40.865     |   0.0 | 43.86
Comm    | 0.65188    | 0.65188    | 0.65188    |   0.0 |  0.70
Output  | 0.00032902 | 0.00032902 | 0.00032902 |   0.0 |  0.00
Modify  | 0.95846    | 0.95846    | 0.95846    |   0.0 |  1.03
Other   |            | 0.2656     |            |       |  0.29

Nlocal:    19652 ave 19652 max 19652 min
Histogram: 1 0 0 0 0 0 0 0 0 0
Nghost:    18161 ave 18161 max 18161 min
Histogram: 1 0 0 0 0 0 0 0 0 0
Neighs:    1.46778e+06 ave 1.46778e+06 max 1.46778e+06 min
Histogram: 1 0 0 0 0 0 0 0 0 0

Total # of neighbors = 1467779
Ave neighs/atom = 74.6885
Neighbor list builds = 495
Dangerous builds not checked
Setting up Verlet run ...
  Unit style    : metal
  Current step  : 255495
  Time step     : 0.001
Per MPI rank memory allocation (min/avg/max) = 18.21 | 18.21 | 18.21 Mbytes
Step Temp Press TotEng PotEng Enthalpy 
  255495    272.67346   -541.44407    -64199.51   -64892.126   -64314.052 
  260000    248.24069   -1028.7192   -64348.025   -64978.579   -64565.255 
Loop time of 816.748 on 1 procs for 4505 steps with 19652 atoms

Performance: 0.477 ns/day, 50.361 hours/ns, 5.516 timesteps/s
86.8% CPU use with 1 MPI tasks x no OpenMP threads

MPI task timing breakdown:
Section |  min time  |  avg time  |  max time  |%varavg| %total
---------------------------------------------------------------
Pair    | 445.57     | 445.57     | 445.57     |   0.0 | 54.55
Neigh   | 355.26     | 355.26     | 355.26     |   0.0 | 43.50
Comm    | 5.6412     | 5.6412     | 5.6412     |   0.0 |  0.69
Output  | 0.070636   | 0.070636   | 0.070636   |   0.0 |  0.01
Modify  | 8.0933     | 8.0933     | 8.0933     |   0.0 |  0.99
Other   |            | 2.109      |            |       |  0.26

Nlocal:    19652 ave 19652 max 19652 min
Histogram: 1 0 0 0 0 0 0 0 0 0
Nghost:    18167 ave 18167 max 18167 min
Histogram: 1 0 0 0 0 0 0 0 0 0
Neighs:    1.46966e+06 ave 1.46966e+06 max 1.46966e+06 min
Histogram: 1 0 0 0 0 0 0 0 0 0

Total # of neighbors = 1469662
Ave neighs/atom = 74.7843
Neighbor list builds = 4505
Dangerous builds not checked
Setting up Verlet run ...
  Unit style    : metal
  Current step  : 260000
  Time step     : 0.001
Per MPI rank memory allocation (min/avg/max) = 18.21 | 18.21 | 18.21 Mbytes
Step Temp Press TotEng PotEng Enthalpy 
  260000    248.24069   -1028.7192   -64348.025   -64978.579   -64565.255 
  260495    223.04954    591.99136   -64482.917   -65049.484   -64358.464 
Loop time of 89.5205 on 1 procs for 495 steps with 19652 atoms

Performance: 0.478 ns/day, 50.236 hours/ns, 5.529 timesteps/s
86.3% CPU use with 1 MPI tasks x no OpenMP threads

MPI task timing breakdown:
Section |  min time  |  avg time  |  max time  |%varavg| %total
---------------------------------------------------------------
Pair    | 48.447     | 48.447     | 48.447     |   0.0 | 54.12
Neigh   | 39.333     | 39.333     | 39.333     |   0.0 | 43.94
Comm    | 0.61166    | 0.61166    | 0.61166    |   0.0 |  0.68
Output  | 0.00018406 | 0.00018406 | 0.00018406 |   0.0 |  0.00
Modify  | 0.90396    | 0.90396    | 0.90396    |   0.0 |  1.01
Other   |            | 0.2245     |            |       |  0.25

Nlocal:    19652 ave 19652 max 19652 min
Histogram: 1 0 0 0 0 0 0 0 0 0
Nghost:    18241 ave 18241 max 18241 min
Histogram: 1 0 0 0 0 0 0 0 0 0
Neighs:    1.47553e+06 ave 1.47553e+06 max 1.47553e+06 min
Histogram: 1 0 0 0 0 0 0 0 0 0

Total # of neighbors = 1475528
Ave neighs/atom = 75.0828
Neighbor list builds = 495
Dangerous builds not checked
Setting up Verlet run ...
  Unit style    : metal
  Current step  : 260495
  Time step     : 0.001
Per MPI rank memory allocation (min/avg/max) = 18.21 | 18.21 | 18.21 Mbytes
Step Temp Press TotEng PotEng Enthalpy 
  260495    223.04954    591.99136   -64482.917   -65049.484   -64358.464 
  265000    201.34633     450.3171   -64627.308   -65138.746   -64532.887 
Loop time of 811.921 on 1 procs for 4505 steps with 19652 atoms

Performance: 0.479 ns/day, 50.063 hours/ns, 5.549 timesteps/s
86.5% CPU use with 1 MPI tasks x no OpenMP threads

MPI task timing breakdown:
Section |  min time  |  avg time  |  max time  |%varavg| %total
---------------------------------------------------------------
Pair    | 439.56     | 439.56     | 439.56     |   0.0 | 54.14
Neigh   | 356.34     | 356.34     | 356.34     |   0.0 | 43.89
Comm    | 5.8551     | 5.8551     | 5.8551     |   0.0 |  0.72
Output  | 0.067626   | 0.067626   | 0.067626   |   0.0 |  0.01
Modify  | 7.9104     | 7.9104     | 7.9104     |   0.0 |  0.97
Other   |            | 2.192      |            |       |  0.27

Nlocal:    19652 ave 19652 max 19652 min
Histogram: 1 0 0 0 0 0 0 0 0 0
Nghost:    18220 ave 18220 max 18220 min
Histogram: 1 0 0 0 0 0 0 0 0 0
Neighs:    1.47927e+06 ave 1.47927e+06 max 1.47927e+06 min
Histogram: 1 0 0 0 0 0 0 0 0 0

Total # of neighbors = 1479273
Ave neighs/atom = 75.2734
Neighbor list builds = 4505
Dangerous builds not checked
Setting up Verlet run ...
  Unit style    : metal
  Current step  : 265000
  Time step     : 0.001
Per MPI rank memory allocation (min/avg/max) = 18.21 | 18.21 | 18.21 Mbytes
Step Temp Press TotEng PotEng Enthalpy 
  265000    201.34633     450.3171   -64627.308   -65138.746   -64532.887 
  265495    174.95298     62.71488   -64755.255   -65199.651   -64742.125 
Loop time of 89.4254 on 1 procs for 495 steps with 19652 atoms

Performance: 0.478 ns/day, 50.183 hours/ns, 5.535 timesteps/s
86.8% CPU use with 1 MPI tasks x no OpenMP threads

MPI task timing breakdown:
Section |  min time  |  avg time  |  max time  |%varavg| %total
---------------------------------------------------------------
Pair    | 48.536     | 48.536     | 48.536     |   0.0 | 54.28
Neigh   | 39.151     | 39.151     | 39.151     |   0.0 | 43.78
Comm    | 0.60811    | 0.60811    | 0.60811    |   0.0 |  0.68
Output  | 0.00022697 | 0.00022697 | 0.00022697 |   0.0 |  0.00
Modify  | 0.9123     | 0.9123     | 0.9123     |   0.0 |  1.02
Other   |            | 0.2181     |            |       |  0.24

Nlocal:    19652 ave 19652 max 19652 min
Histogram: 1 0 0 0 0 0 0 0 0 0
Nghost:    18282 ave 18282 max 18282 min
Histogram: 1 0 0 0 0 0 0 0 0 0
Neighs:    1.48102e+06 ave 1.48102e+06 max 1.48102e+06 min
Histogram: 1 0 0 0 0 0 0 0 0 0

Total # of neighbors = 1481016
Ave neighs/atom = 75.3621
Neighbor list builds = 495
Dangerous builds not checked
Setting up Verlet run ...
  Unit style    : metal
  Current step  : 265495
  Time step     : 0.001
Per MPI rank memory allocation (min/avg/max) = 18.21 | 18.21 | 18.21 Mbytes
Step Temp Press TotEng PotEng Enthalpy 
  265495    174.95298     62.71488   -64755.255   -65199.651   -64742.125 
  270000    150.99292    432.92898   -64895.106   -65278.642    -64804.72 
Loop time of 841.391 on 1 procs for 4505 steps with 19652 atoms

Performance: 0.463 ns/day, 51.880 hours/ns, 5.354 timesteps/s
83.5% CPU use with 1 MPI tasks x no OpenMP threads

MPI task timing breakdown:
Section |  min time  |  avg time  |  max time  |%varavg| %total
---------------------------------------------------------------
Pair    | 456.81     | 456.81     | 456.81     |   0.0 | 54.29
Neigh   | 367.79     | 367.79     | 367.79     |   0.0 | 43.71
Comm    | 6.188      | 6.188      | 6.188      |   0.0 |  0.74
Output  | 0.072458   | 0.072458   | 0.072458   |   0.0 |  0.01
Modify  | 8.3691     | 8.3691     | 8.3691     |   0.0 |  0.99
Other   |            | 2.161      |            |       |  0.26

Nlocal:    19652 ave 19652 max 19652 min
Histogram: 1 0 0 0 0 0 0 0 0 0
Nghost:    18263 ave 18263 max 18263 min
Histogram: 1 0 0 0 0 0 0 0 0 0
Neighs:    1.48454e+06 ave 1.48454e+06 max 1.48454e+06 min
Histogram: 1 0 0 0 0 0 0 0 0 0

Total # of neighbors = 1484536
Ave neighs/atom = 75.5412
Neighbor list builds = 4505
Dangerous builds not checked
Setting up Verlet run ...
  Unit style    : metal
  Current step  : 270000
  Time step     : 0.001
Per MPI rank memory allocation (min/avg/max) = 18.21 | 18.21 | 18.21 Mbytes
Step Temp Press TotEng PotEng Enthalpy 
  270000    150.99292    432.92898   -64895.106   -65278.642    -64804.72 
  270495    127.52937   -296.69215   -65015.601   -65339.537   -65077.475 
Loop time of 86.8594 on 1 procs for 495 steps with 19652 atoms

Performance: 0.492 ns/day, 48.743 hours/ns, 5.699 timesteps/s
89.3% CPU use with 1 MPI tasks x no OpenMP threads

MPI task timing breakdown:
Section |  min time  |  avg time  |  max time  |%varavg| %total
---------------------------------------------------------------
Pair    | 47.125     | 47.125     | 47.125     |   0.0 | 54.25
Neigh   | 38.044     | 38.044     | 38.044     |   0.0 | 43.80
Comm    | 0.60768    | 0.60768    | 0.60768    |   0.0 |  0.70
Output  | 0.00024819 | 0.00024819 | 0.00024819 |   0.0 |  0.00
Modify  | 0.86196    | 0.86196    | 0.86196    |   0.0 |  0.99
Other   |            | 0.2212     |            |       |  0.25

Nlocal:    19652 ave 19652 max 19652 min
Histogram: 1 0 0 0 0 0 0 0 0 0
Nghost:    18304 ave 18304 max 18304 min
Histogram: 1 0 0 0 0 0 0 0 0 0
Neighs:    1.48629e+06 ave 1.48629e+06 max 1.48629e+06 min
Histogram: 1 0 0 0 0 0 0 0 0 0

Total # of neighbors = 1486294
Ave neighs/atom = 75.6307
Neighbor list builds = 495
Dangerous builds not checked
Setting up Verlet run ...
  Unit style    : metal
  Current step  : 270495
  Time step     : 0.001
Per MPI rank memory allocation (min/avg/max) = 18.21 | 18.21 | 18.21 Mbytes
Step Temp Press TotEng PotEng Enthalpy 
  270495    127.52937   -296.69215   -65015.601   -65339.537   -65077.475 
  275000    99.563598    141.86055   -65161.742   -65414.642   -65132.241 
Loop time of 829.297 on 1 procs for 4505 steps with 19652 atoms

Performance: 0.469 ns/day, 51.134 hours/ns, 5.432 timesteps/s
85.9% CPU use with 1 MPI tasks x no OpenMP threads

MPI task timing breakdown:
Section |  min time  |  avg time  |  max time  |%varavg| %total
---------------------------------------------------------------
Pair    | 454.88     | 454.88     | 454.88     |   0.0 | 54.85
Neigh   | 358.2      | 358.2      | 358.2      |   0.0 | 43.19
Comm    | 5.9259     | 5.9259     | 5.9259     |   0.0 |  0.71
Output  | 0.084739   | 0.084739   | 0.084739   |   0.0 |  0.01
Modify  | 7.9679     | 7.9679     | 7.9679     |   0.0 |  0.96
Other   |            | 2.238      |            |       |  0.27

Nlocal:    19652 ave 19652 max 19652 min
Histogram: 1 0 0 0 0 0 0 0 0 0
Nghost:    18273 ave 18273 max 18273 min
Histogram: 1 0 0 0 0 0 0 0 0 0
Neighs:    1.4899e+06 ave 1.4899e+06 max 1.4899e+06 min
Histogram: 1 0 0 0 0 0 0 0 0 0

Total # of neighbors = 1489903
Ave neighs/atom = 75.8143
Neighbor list builds = 4505
Dangerous builds not checked
Total wall time: 12:42:19
