LAMMPS (12 Dec 2018)
Lattice spacing in x,y,z = 4 4 4
Created orthogonal box = (0 0 0) to (68 68 68)
  1 by 1 by 2 MPI processor grid
Created 19652 atoms
  Time spent = 0.00153399 secs
Setting atom values ...
  19652 settings made for type/fraction
Neighbor list info ...
  update every 1 steps, delay 0 steps, check no
  max neighbors/atom: 2000, page size: 100000
  master list distance cutoff = 8.5
  ghost atom cutoff = 8.5
  binsize = 4.25, bins = 16 16 16
  1 neighbor lists, perpetual/occasional/extra = 1 0 0
  (1) pair eam/alloy, perpetual
      attributes: half, newton on
      pair build: half/bin/atomonly/newton
      stencil: half/bin/3d/newton
      bin: standard
Setting up Verlet run ...
  Unit style    : metal
  Current step  : 0
  Time step     : 0.001
Per MPI rank memory allocation (min/avg/max) = 11.15 | 11.15 | 11.15 Mbytes
Step Temp Press TotEng PotEng Enthalpy 
       0          300   -61779.302   -76290.537   -77052.565   -88414.913 
    1000    2087.4585    117169.77    -76291.73   -81594.065   -53296.807 
Loop time of 103.118 on 2 procs for 1000 steps with 19652 atoms

Performance: 0.838 ns/day, 28.644 hours/ns, 9.698 timesteps/s
97.3% CPU use with 2 MPI tasks x no OpenMP threads

MPI task timing breakdown:
Section |  min time  |  avg time  |  max time  |%varavg| %total
---------------------------------------------------------------
Pair    | 57.52      | 57.704     | 57.888     |   2.4 | 55.96
Neigh   | 41.001     | 41.572     | 42.143     |   8.9 | 40.31
Comm    | 2.9941     | 3.3874     | 3.7808     |  21.4 |  3.29
Output  | 0.00016594 | 0.00026846 | 0.00037098 |   0.0 |  0.00
Modify  | 0.22565    | 0.22996    | 0.23426    |   0.9 |  0.22
Other   |            | 0.2246     |            |       |  0.22

Nlocal:    9826 ave 9833 max 9819 min
Histogram: 1 0 0 0 0 0 0 0 0 1
Nghost:    13224.5 ave 13232 max 13217 min
Histogram: 1 0 0 0 0 0 0 0 0 1
Neighs:    784694 ave 784938 max 784451 min
Histogram: 1 0 0 0 0 0 0 0 0 1

Total # of neighbors = 1569389
Ave neighs/atom = 79.859
Neighbor list builds = 1000
Dangerous builds not checked
Setting up Verlet run ...
  Unit style    : metal
  Current step  : 1000
  Time step     : 0.001
Per MPI rank memory allocation (min/avg/max) = 11.15 | 11.15 | 11.15 Mbytes
Step Temp Press TotEng PotEng Enthalpy 
    1000    2087.4585    117169.77    -76291.73   -81594.065   -53296.807 
    2000    338.58836   -251.01798   -86577.775    -87437.82   -86635.083 
Loop time of 96.834 on 2 procs for 1000 steps with 19652 atoms

Performance: 0.892 ns/day, 26.898 hours/ns, 10.327 timesteps/s
95.6% CPU use with 2 MPI tasks x no OpenMP threads

MPI task timing breakdown:
Section |  min time  |  avg time  |  max time  |%varavg| %total
---------------------------------------------------------------
Pair    | 50.922     | 51.004     | 51.085     |   1.1 | 52.67
Neigh   | 39.961     | 40.096     | 40.231     |   2.1 | 41.41
Comm    | 4.3316     | 4.5502     | 4.7687     |  10.2 |  4.70
Output  | 9.5844e-05 | 0.00021195 | 0.00032806 |   0.0 |  0.00
Modify  | 0.94624    | 0.95328    | 0.96032    |   0.7 |  0.98
Other   |            | 0.2307     |            |       |  0.24

Nlocal:    9826 ave 9834 max 9818 min
Histogram: 1 0 0 0 0 0 0 0 0 1
Nghost:    12391.5 ave 12421 max 12362 min
Histogram: 1 0 0 0 0 0 0 0 0 1
Neighs:    675202 ave 676200 max 674205 min
Histogram: 1 0 0 0 0 0 0 0 0 1

Total # of neighbors = 1350405
Ave neighs/atom = 68.7159
Neighbor list builds = 1000
Dangerous builds not checked
Setting up Verlet run ...
  Unit style    : metal
  Current step  : 2000
  Time step     : 0.001
Per MPI rank memory allocation (min/avg/max) = 11.15 | 11.15 | 11.15 Mbytes
Step Temp Press TotEng PotEng Enthalpy 
    2000    338.58836   -251.01798   -86577.775    -87437.82   -86635.083 
   10000    2453.4779    300.40519   -75247.537   -81479.594   -75174.004 
Loop time of 710.56 on 2 procs for 8000 steps with 19652 atoms

Performance: 0.973 ns/day, 24.672 hours/ns, 11.259 timesteps/s
98.0% CPU use with 2 MPI tasks x no OpenMP threads

MPI task timing breakdown:
Section |  min time  |  avg time  |  max time  |%varavg| %total
---------------------------------------------------------------
Pair    | 378.37     | 379.43     | 380.49     |   5.4 | 53.40
Neigh   | 296.68     | 298.15     | 299.63     |   8.5 | 41.96
Comm    | 21.583     | 24.13      | 26.677     |  51.9 |  3.40
Output  | 0.00012302 | 0.00020552 | 0.00028801 |   0.0 |  0.00
Modify  | 7.0475     | 7.0646     | 7.0816     |   0.6 |  0.99
Other   |            | 1.787      |            |       |  0.25

Nlocal:    9826 ave 9838 max 9814 min
Histogram: 1 0 0 0 0 0 0 0 0 1
Nghost:    12005.5 ave 12016 max 11995 min
Histogram: 1 0 0 0 0 0 0 0 0 1
Neighs:    629269 ave 636005 max 622533 min
Histogram: 1 0 0 0 0 0 0 0 0 1

Total # of neighbors = 1258538
Ave neighs/atom = 64.0412
Neighbor list builds = 8000
Dangerous builds not checked
Setting up Verlet run ...
  Unit style    : metal
  Current step  : 10000
  Time step     : 0.001
Per MPI rank memory allocation (min/avg/max) = 11.16 | 11.16 | 11.16 Mbytes
Step Temp Press TotEng PotEng Enthalpy 
   10000    2453.4779    300.40519   -75247.537   -81479.594   -75174.004 
   20000    2448.6091    1323.5337   -75267.855   -81487.545   -74944.002 
   40000    2450.6681   -962.05172   -75213.622   -81438.542   -75450.144 
Loop time of 2704.81 on 2 procs for 30000 steps with 19652 atoms

Performance: 0.958 ns/day, 25.045 hours/ns, 11.091 timesteps/s
98.3% CPU use with 2 MPI tasks x no OpenMP threads

MPI task timing breakdown:
Section |  min time  |  avg time  |  max time  |%varavg| %total
---------------------------------------------------------------
Pair    | 1457       | 1470.2     | 1483.4     |  34.5 | 54.36
Neigh   | 1095.4     | 1099.5     | 1103.6     |  12.4 | 40.65
Comm    | 85.619     | 102.96     | 120.31     | 170.9 |  3.81
Output  | 0.070334   | 0.070384   | 0.070434   |   0.0 |  0.00
Modify  | 25.449     | 25.47      | 25.491     |   0.4 |  0.94
Other   |            | 6.58       |            |       |  0.24

Nlocal:    9826 ave 9844 max 9808 min
Histogram: 1 0 0 0 0 0 0 0 0 1
Nghost:    12002 ave 12011 max 11993 min
Histogram: 1 0 0 0 0 0 0 0 0 1
Neighs:    626684 ave 630543 max 622824 min
Histogram: 1 0 0 0 0 0 0 0 0 1

Total # of neighbors = 1253367
Ave neighs/atom = 63.7781
Neighbor list builds = 30000
Dangerous builds not checked
Setting up Verlet run ...
  Unit style    : metal
  Current step  : 40000
  Time step     : 0.001
Per MPI rank memory allocation (min/avg/max) = 11.3 | 11.3 | 11.3 Mbytes
Step Temp Press TotEng PotEng Enthalpy 
   40000    2450.6681   -962.05172   -75213.622   -81438.542   -75450.144 
   40495    2391.3508    1041.5063   -75411.851     -81486.1   -75157.633 
Loop time of 44.0993 on 2 procs for 495 steps with 19652 atoms

Performance: 0.970 ns/day, 24.747 hours/ns, 11.225 timesteps/s
97.0% CPU use with 2 MPI tasks x no OpenMP threads

MPI task timing breakdown:
Section |  min time  |  avg time  |  max time  |%varavg| %total
---------------------------------------------------------------
Pair    | 23.644     | 23.963     | 24.282     |   6.5 | 54.34
Neigh   | 17.793     | 18.174     | 18.555     |   8.9 | 41.21
Comm    | 1.3569     | 1.4175     | 1.4782     |   5.1 |  3.21
Output  | 9.6798e-05 | 0.00018942 | 0.00028205 |   0.0 |  0.00
Modify  | 0.43164    | 0.43286    | 0.43408    |   0.2 |  0.98
Other   |            | 0.112      |            |       |  0.25

Nlocal:    9826 ave 9829 max 9823 min
Histogram: 1 0 0 0 0 0 0 0 0 1
Nghost:    12033.5 ave 12040 max 12027 min
Histogram: 1 0 0 0 0 0 0 0 0 1
Neighs:    630989 ave 637527 max 624451 min
Histogram: 1 0 0 0 0 0 0 0 0 1

Total # of neighbors = 1261978
Ave neighs/atom = 64.2163
Neighbor list builds = 495
Dangerous builds not checked
Setting up Verlet run ...
  Unit style    : metal
  Current step  : 40495
  Time step     : 0.001
Per MPI rank memory allocation (min/avg/max) = 11.3 | 11.3 | 11.3 Mbytes
Step Temp Press TotEng PotEng Enthalpy 
   40495    2391.3508    1041.5063   -75411.851     -81486.1   -75157.633 
   60000     2388.006   -404.06653   -75471.297   -81537.049   -75570.174 
Loop time of 1716.35 on 2 procs for 19505 steps with 19652 atoms

Performance: 0.982 ns/day, 24.443 hours/ns, 11.364 timesteps/s
97.2% CPU use with 2 MPI tasks x no OpenMP threads

MPI task timing breakdown:
Section |  min time  |  avg time  |  max time  |%varavg| %total
---------------------------------------------------------------
Pair    | 913.2      | 919.83     | 926.47     |  21.9 | 53.59
Neigh   | 714.44     | 714.65     | 714.86     |   0.8 | 41.64
Comm    | 52.83      | 59.704     | 66.579     |  89.0 |  3.48
Output  | 0.036599   | 0.036632   | 0.036665   |   0.0 |  0.00
Modify  | 17.762     | 17.768     | 17.773     |   0.1 |  1.04
Other   |            | 4.359      |            |       |  0.25

Nlocal:    9826 ave 9853 max 9799 min
Histogram: 1 0 0 0 0 0 0 0 0 1
Nghost:    12017 ave 12026 max 12008 min
Histogram: 1 0 0 0 0 0 0 0 0 1
Neighs:    629340 ave 638094 max 620587 min
Histogram: 1 0 0 0 0 0 0 0 0 1

Total # of neighbors = 1258681
Ave neighs/atom = 64.0485
Neighbor list builds = 19505
Dangerous builds not checked
Setting up Verlet run ...
  Unit style    : metal
  Current step  : 60000
  Time step     : 0.001
Per MPI rank memory allocation (min/avg/max) = 11.32 | 11.32 | 11.32 Mbytes
Step Temp Press TotEng PotEng Enthalpy 
   60000     2388.006   -404.06653   -75471.297   -81537.049   -75570.174 
   60495    2342.9266    487.65575   -75675.303   -81626.549   -75556.282 
Loop time of 41.0045 on 2 procs for 495 steps with 19652 atoms

Performance: 1.043 ns/day, 23.010 hours/ns, 12.072 timesteps/s
98.8% CPU use with 2 MPI tasks x no OpenMP threads

MPI task timing breakdown:
Section |  min time  |  avg time  |  max time  |%varavg| %total
---------------------------------------------------------------
Pair    | 21.85      | 21.894     | 21.937     |   0.9 | 53.39
Neigh   | 16.963     | 17.364     | 17.765     |   9.6 | 42.35
Comm    | 0.85849    | 1.2169     | 1.5753     |  32.5 |  2.97
Output  | 8.893e-05  | 0.0001384  | 0.00018787 |   0.0 |  0.00
Modify  | 0.4166     | 0.42027    | 0.42394    |   0.6 |  1.02
Other   |            | 0.1092     |            |       |  0.27

Nlocal:    9826 ave 9842 max 9810 min
Histogram: 1 0 0 0 0 0 0 0 0 1
Nghost:    12086 ave 12098 max 12074 min
Histogram: 1 0 0 0 0 0 0 0 0 1
Neighs:    631343 ave 639078 max 623608 min
Histogram: 1 0 0 0 0 0 0 0 0 1

Total # of neighbors = 1262686
Ave neighs/atom = 64.2523
Neighbor list builds = 495
Dangerous builds not checked
Setting up Verlet run ...
  Unit style    : metal
  Current step  : 60495
  Time step     : 0.001
Per MPI rank memory allocation (min/avg/max) = 11.32 | 11.32 | 11.32 Mbytes
Step Temp Press TotEng PotEng Enthalpy 
   60495    2342.9266    487.65575   -75675.303   -81626.549   -75556.282 
   80000    2352.6063    549.07145   -75661.589   -81637.423    -75527.67 
Loop time of 1723.05 on 2 procs for 19505 steps with 19652 atoms

Performance: 0.978 ns/day, 24.539 hours/ns, 11.320 timesteps/s
96.4% CPU use with 2 MPI tasks x no OpenMP threads

MPI task timing breakdown:
Section |  min time  |  avg time  |  max time  |%varavg| %total
---------------------------------------------------------------
Pair    | 921.09     | 925.04     | 928.99     |  13.0 | 53.69
Neigh   | 713.59     | 715.87     | 718.15     |   8.5 | 41.55
Comm    | 53.268     | 59.557     | 65.845     |  81.5 |  3.46
Output  | 0.035309   | 0.035373   | 0.035436   |   0.0 |  0.00
Modify  | 18.113     | 18.199     | 18.286     |   2.0 |  1.06
Other   |            | 4.351      |            |       |  0.25

Nlocal:    9826 ave 9841 max 9811 min
Histogram: 1 0 0 0 0 0 0 0 0 1
Nghost:    12047.5 ave 12077 max 12018 min
Histogram: 1 0 0 0 0 0 0 0 0 1
Neighs:    631560 ave 639983 max 623136 min
Histogram: 1 0 0 0 0 0 0 0 0 1

Total # of neighbors = 1263119
Ave neighs/atom = 64.2743
Neighbor list builds = 19505
Dangerous builds not checked
Setting up Verlet run ...
  Unit style    : metal
  Current step  : 80000
  Time step     : 0.001
Per MPI rank memory allocation (min/avg/max) = 11.33 | 11.33 | 11.33 Mbytes
Step Temp Press TotEng PotEng Enthalpy 
   80000    2352.6063    549.07145   -75661.589   -81637.423    -75527.67 
   80495    2314.5793    752.87315   -75818.231   -81697.474   -75635.155 
Loop time of 42.2539 on 2 procs for 495 steps with 19652 atoms

Performance: 1.012 ns/day, 23.712 hours/ns, 11.715 timesteps/s
97.0% CPU use with 2 MPI tasks x no OpenMP threads

MPI task timing breakdown:
Section |  min time  |  avg time  |  max time  |%varavg| %total
---------------------------------------------------------------
Pair    | 22.563     | 22.629     | 22.695     |   1.4 | 53.55
Neigh   | 17.301     | 17.628     | 17.955     |   7.8 | 41.72
Comm    | 1.1288     | 1.3904     | 1.6519     |  22.2 |  3.29
Output  | 0.00018096 | 0.00021899 | 0.00025702 |   0.0 |  0.00
Modify  | 0.49172    | 0.49554    | 0.49936    |   0.5 |  1.17
Other   |            | 0.1109     |            |       |  0.26

Nlocal:    9826 ave 9850 max 9802 min
Histogram: 1 0 0 0 0 0 0 0 0 1
Nghost:    12009 ave 12046 max 11972 min
Histogram: 1 0 0 0 0 0 0 0 0 1
Neighs:    633597 ave 637920 max 629274 min
Histogram: 1 0 0 0 0 0 0 0 0 1

Total # of neighbors = 1267194
Ave neighs/atom = 64.4817
Neighbor list builds = 495
Dangerous builds not checked
Setting up Verlet run ...
  Unit style    : metal
  Current step  : 80495
  Time step     : 0.001
Per MPI rank memory allocation (min/avg/max) = 11.33 | 11.33 | 11.33 Mbytes
Step Temp Press TotEng PotEng Enthalpy 
   80495    2314.5793    752.87315   -75818.231   -81697.474   -75635.155 
  100000    2295.0063    565.84821   -75918.121   -81747.646   -75780.417 
Loop time of 1723.67 on 2 procs for 19505 steps with 19652 atoms

Performance: 0.978 ns/day, 24.547 hours/ns, 11.316 timesteps/s
96.4% CPU use with 2 MPI tasks x no OpenMP threads

MPI task timing breakdown:
Section |  min time  |  avg time  |  max time  |%varavg| %total
---------------------------------------------------------------
Pair    | 921.86     | 926.46     | 931.06     |  15.1 | 53.75
Neigh   | 714.72     | 717.61     | 720.51     |  10.8 | 41.63
Comm    | 50.473     | 58.003     | 65.532     |  98.9 |  3.37
Output  | 0.037088   | 0.037179   | 0.037271   |   0.0 |  0.00
Modify  | 17.146     | 17.15      | 17.153     |   0.1 |  0.99
Other   |            | 4.402      |            |       |  0.26

Nlocal:    9826 ave 9834 max 9818 min
Histogram: 1 0 0 0 0 0 0 0 0 1
Nghost:    12056 ave 12061 max 12051 min
Histogram: 1 0 0 0 0 0 0 0 0 1
Neighs:    633025 ave 638459 max 627591 min
Histogram: 1 0 0 0 0 0 0 0 0 1

Total # of neighbors = 1266050
Ave neighs/atom = 64.4235
Neighbor list builds = 19505
Dangerous builds not checked
Setting up Verlet run ...
  Unit style    : metal
  Current step  : 100000
  Time step     : 0.001
Per MPI rank memory allocation (min/avg/max) = 11.34 | 11.34 | 11.34 Mbytes
Step Temp Press TotEng PotEng Enthalpy 
  100000    2295.0063    565.84821   -75918.121   -81747.646   -75780.417 
  100495    2272.8862   -563.96337   -76034.942    -81808.28   -76172.169 
Loop time of 39.4323 on 2 procs for 495 steps with 19652 atoms

Performance: 1.085 ns/day, 22.128 hours/ns, 12.553 timesteps/s
97.7% CPU use with 2 MPI tasks x no OpenMP threads

MPI task timing breakdown:
Section |  min time  |  avg time  |  max time  |%varavg| %total
---------------------------------------------------------------
Pair    | 21.077     | 21.18      | 21.283     |   2.2 | 53.71
Neigh   | 16.701     | 16.746     | 16.79      |   1.1 | 42.47
Comm    | 0.93939    | 0.99507    | 1.0507     |   5.6 |  2.52
Output  | 8.6784e-05 | 0.0001694  | 0.00025201 |   0.0 |  0.00
Modify  | 0.40129    | 0.40437    | 0.40745    |   0.5 |  1.03
Other   |            | 0.1073     |            |       |  0.27

Nlocal:    9826 ave 9831 max 9821 min
Histogram: 1 0 0 0 0 0 0 0 0 1
Nghost:    12083.5 ave 12088 max 12079 min
Histogram: 1 0 0 0 0 0 0 0 0 1
Neighs:    633010 ave 638820 max 627201 min
Histogram: 1 0 0 0 0 0 0 0 0 1

Total # of neighbors = 1266021
Ave neighs/atom = 64.422
Neighbor list builds = 495
Dangerous builds not checked
Setting up Verlet run ...
  Unit style    : metal
  Current step  : 100495
  Time step     : 0.001
Per MPI rank memory allocation (min/avg/max) = 11.34 | 11.34 | 11.34 Mbytes
Step Temp Press TotEng PotEng Enthalpy 
  100495    2272.8862   -563.96337   -76034.942    -81808.28   -76172.169 
  120000    2265.8995   -36.915356   -76057.463   -81813.054   -76066.448 
Loop time of 1722.79 on 2 procs for 19505 steps with 19652 atoms

Performance: 0.978 ns/day, 24.535 hours/ns, 11.322 timesteps/s
96.2% CPU use with 2 MPI tasks x no OpenMP threads

MPI task timing breakdown:
Section |  min time  |  avg time  |  max time  |%varavg| %total
---------------------------------------------------------------
Pair    | 924.66     | 927.16     | 929.66     |   8.2 | 53.82
Neigh   | 711.33     | 713.97     | 716.61     |   9.9 | 41.44
Comm    | 54.405     | 59.593     | 64.781     |  67.2 |  3.46
Output  | 0.036836   | 0.036895   | 0.036953   |   0.0 |  0.00
Modify  | 17.621     | 17.681     | 17.741     |   1.4 |  1.03
Other   |            | 4.349      |            |       |  0.25

Nlocal:    9826 ave 9862 max 9790 min
Histogram: 1 0 0 0 0 0 0 0 0 1
Nghost:    12052 ave 12071 max 12033 min
Histogram: 1 0 0 0 0 0 0 0 0 1
Neighs:    632920 ave 642173 max 623668 min
Histogram: 1 0 0 0 0 0 0 0 0 1

Total # of neighbors = 1265841
Ave neighs/atom = 64.4128
Neighbor list builds = 19505
Dangerous builds not checked
Setting up Verlet run ...
  Unit style    : metal
  Current step  : 120000
  Time step     : 0.001
Per MPI rank memory allocation (min/avg/max) = 11.34 | 11.34 | 11.34 Mbytes
Step Temp Press TotEng PotEng Enthalpy 
  120000    2265.8995   -36.915356   -76057.463   -81813.054   -76066.448 
  120495      2201.74     257.8156     -76318.4    -81911.02   -76255.882 
Loop time of 44.7289 on 2 procs for 495 steps with 19652 atoms

Performance: 0.956 ns/day, 25.100 hours/ns, 11.067 timesteps/s
92.3% CPU use with 2 MPI tasks x no OpenMP threads

MPI task timing breakdown:
Section |  min time  |  avg time  |  max time  |%varavg| %total
---------------------------------------------------------------
Pair    | 24.581     | 24.663     | 24.745     |   1.7 | 55.14
Neigh   | 17.369     | 17.673     | 17.977     |   7.2 | 39.51
Comm    | 1.5583     | 1.7846     | 2.0109     |  16.9 |  3.99
Output  | 7.987e-05  | 0.00012445 | 0.00016904 |   0.0 |  0.00
Modify  | 0.48374    | 0.49298    | 0.50223    |   1.3 |  1.10
Other   |            | 0.1147     |            |       |  0.26

Nlocal:    9826 ave 9827 max 9825 min
Histogram: 1 0 0 0 0 0 0 0 0 1
Nghost:    12050.5 ave 12055 max 12046 min
Histogram: 1 0 0 0 0 0 0 0 0 1
Neighs:    635368 ave 640721 max 630016 min
Histogram: 1 0 0 0 0 0 0 0 0 1

Total # of neighbors = 1270737
Ave neighs/atom = 64.662
Neighbor list builds = 495
Dangerous builds not checked
Setting up Verlet run ...
  Unit style    : metal
  Current step  : 120495
  Time step     : 0.001
Per MPI rank memory allocation (min/avg/max) = 11.34 | 11.34 | 11.34 Mbytes
Step Temp Press TotEng PotEng Enthalpy 
  120495      2201.74     257.8156     -76318.4    -81911.02   -76255.882 
  140000    2220.9282   -549.81459   -76295.378   -81936.738   -76428.837 
Loop time of 1682.48 on 2 procs for 19505 steps with 19652 atoms

Performance: 1.002 ns/day, 23.961 hours/ns, 11.593 timesteps/s
96.5% CPU use with 2 MPI tasks x no OpenMP threads

MPI task timing breakdown:
Section |  min time  |  avg time  |  max time  |%varavg| %total
---------------------------------------------------------------
Pair    | 901.83     | 902.89     | 903.94     |   3.5 | 53.66
Neigh   | 700.38     | 702.1      | 703.82     |   6.5 | 41.73
Comm    | 52.833     | 55.574     | 58.315     |  36.8 |  3.30
Output  | 0.036535   | 0.036552   | 0.036569   |   0.0 |  0.00
Modify  | 17.54      | 17.552     | 17.565     |   0.3 |  1.04
Other   |            | 4.323      |            |       |  0.26

Nlocal:    9826 ave 9851 max 9801 min
Histogram: 1 0 0 0 0 0 0 0 0 1
Nghost:    12070 ave 12090 max 12050 min
Histogram: 1 0 0 0 0 0 0 0 0 1
Neighs:    634626 ave 637799 max 631454 min
Histogram: 1 0 0 0 0 0 0 0 0 1

Total # of neighbors = 1269253
Ave neighs/atom = 64.5865
Neighbor list builds = 19505
Dangerous builds not checked
Setting up Verlet run ...
  Unit style    : metal
  Current step  : 140000
  Time step     : 0.001
Per MPI rank memory allocation (min/avg/max) = 11.34 | 11.34 | 11.34 Mbytes
Step Temp Press TotEng PotEng Enthalpy 
  140000    2220.9282   -549.81459   -76295.378   -81936.738   -76428.837 
  140495    2174.9682    405.77288   -76523.056   -82047.673   -76424.867 
Loop time of 40.9575 on 2 procs for 495 steps with 19652 atoms

Performance: 1.044 ns/day, 22.984 hours/ns, 12.086 timesteps/s
97.5% CPU use with 2 MPI tasks x no OpenMP threads

MPI task timing breakdown:
Section |  min time  |  avg time  |  max time  |%varavg| %total
---------------------------------------------------------------
Pair    | 21.824     | 22.045     | 22.266     |   4.7 | 53.82
Neigh   | 17.264     | 17.267     | 17.271     |   0.1 | 42.16
Comm    | 0.88237    | 1.1031     | 1.3239     |  21.0 |  2.69
Output  | 0.00010109 | 0.00018764 | 0.00027418 |   0.0 |  0.00
Modify  | 0.42953    | 0.43337    | 0.43721    |   0.6 |  1.06
Other   |            | 0.1081     |            |       |  0.26

Nlocal:    9826 ave 9873 max 9779 min
Histogram: 1 0 0 0 0 0 0 0 0 1
Nghost:    12091.5 ave 12132 max 12051 min
Histogram: 1 0 0 0 0 0 0 0 0 1
Neighs:    636732 ave 647247 max 626216 min
Histogram: 1 0 0 0 0 0 0 0 0 1

Total # of neighbors = 1273463
Ave neighs/atom = 64.8007
Neighbor list builds = 495
Dangerous builds not checked
Setting up Verlet run ...
  Unit style    : metal
  Current step  : 140495
  Time step     : 0.001
Per MPI rank memory allocation (min/avg/max) = 11.34 | 11.34 | 11.34 Mbytes
Step Temp Press TotEng PotEng Enthalpy 
  140495    2174.9682    405.77288   -76523.056   -82047.673   -76424.867 
  160000    2135.4379    -146.0162   -76624.026   -82048.233    -76659.37 
Loop time of 1692.99 on 2 procs for 19505 steps with 19652 atoms

Performance: 0.995 ns/day, 24.111 hours/ns, 11.521 timesteps/s
96.5% CPU use with 2 MPI tasks x no OpenMP threads

MPI task timing breakdown:
Section |  min time  |  avg time  |  max time  |%varavg| %total
---------------------------------------------------------------
Pair    | 902.18     | 907.88     | 913.58     |  18.9 | 53.63
Neigh   | 703.14     | 706.24     | 709.34     |  11.7 | 41.72
Comm    | 48.554     | 57.339     | 66.123     | 116.0 |  3.39
Output  | 0.036875   | 0.036938   | 0.037001   |   0.0 |  0.00
Modify  | 17.139     | 17.153     | 17.167     |   0.3 |  1.01
Other   |            | 4.344      |            |       |  0.26

Nlocal:    9826 ave 9837 max 9815 min
Histogram: 1 0 0 0 0 0 0 0 0 1
Nghost:    12104 ave 12131 max 12077 min
Histogram: 1 0 0 0 0 0 0 0 0 1
Neighs:    636674 ave 640837 max 632511 min
Histogram: 1 0 0 0 0 0 0 0 0 1

Total # of neighbors = 1273348
Ave neighs/atom = 64.7948
Neighbor list builds = 19505
Dangerous builds not checked
Setting up Verlet run ...
  Unit style    : metal
  Current step  : 160000
  Time step     : 0.001
Per MPI rank memory allocation (min/avg/max) = 11.34 | 11.34 | 11.34 Mbytes
Step Temp Press TotEng PotEng Enthalpy 
  160000    2135.4379    -146.0162   -76624.026   -82048.233    -76659.37 
  160495    2117.2799   -748.55634   -76721.299   -82099.383   -76902.404 
Loop time of 40.086 on 2 procs for 495 steps with 19652 atoms

Performance: 1.067 ns/day, 22.495 hours/ns, 12.348 timesteps/s
97.0% CPU use with 2 MPI tasks x no OpenMP threads

MPI task timing breakdown:
Section |  min time  |  avg time  |  max time  |%varavg| %total
---------------------------------------------------------------
Pair    | 21.275     | 21.434     | 21.593     |   3.4 | 53.47
Neigh   | 16.646     | 17.063     | 17.479     |  10.1 | 42.57
Comm    | 0.79334    | 1.0647     | 1.3361     |  26.3 |  2.66
Output  | 8.7023e-05 | 0.00016952 | 0.00025201 |   0.0 |  0.00
Modify  | 0.40431    | 0.4125     | 0.4207     |   1.3 |  1.03
Other   |            | 0.1121     |            |       |  0.28

Nlocal:    9826 ave 9839 max 9813 min
Histogram: 1 0 0 0 0 0 0 0 0 1
Nghost:    12075 ave 12082 max 12068 min
Histogram: 1 0 0 0 0 0 0 0 0 1
Neighs:    636679 ave 640998 max 632360 min
Histogram: 1 0 0 0 0 0 0 0 0 1

Total # of neighbors = 1273358
Ave neighs/atom = 64.7953
Neighbor list builds = 495
Dangerous builds not checked
Setting up Verlet run ...
  Unit style    : metal
  Current step  : 160495
  Time step     : 0.001
Per MPI rank memory allocation (min/avg/max) = 11.34 | 11.34 | 11.34 Mbytes
Step Temp Press TotEng PotEng Enthalpy 
  160495    2117.2799   -748.55634   -76721.299   -82099.383   -76902.404 
  180000     2092.322   -872.01337   -76783.202   -82097.891   -76994.393 
Loop time of 1726.22 on 2 procs for 19505 steps with 19652 atoms

Performance: 0.976 ns/day, 24.584 hours/ns, 11.299 timesteps/s
96.0% CPU use with 2 MPI tasks x no OpenMP threads

MPI task timing breakdown:
Section |  min time  |  avg time  |  max time  |%varavg| %total
---------------------------------------------------------------
Pair    | 923.97     | 928.09     | 932.21     |  13.5 | 53.76
Neigh   | 710.59     | 712.34     | 714.1      |   6.6 | 41.27
Comm    | 61.327     | 63.601     | 65.875     |  28.5 |  3.68
Output  | 0.036882   | 0.036911   | 0.036939   |   0.0 |  0.00
Modify  | 17.666     | 17.757     | 17.848     |   2.2 |  1.03
Other   |            | 4.39       |            |       |  0.25

Nlocal:    9826 ave 9853 max 9799 min
Histogram: 1 0 0 0 0 0 0 0 0 1
Nghost:    12078.5 ave 12091 max 12066 min
Histogram: 1 0 0 0 0 0 0 0 0 1
Neighs:    636105 ave 638856 max 633354 min
Histogram: 1 0 0 0 0 0 0 0 0 1

Total # of neighbors = 1272210
Ave neighs/atom = 64.7369
Neighbor list builds = 19505
Dangerous builds not checked
Setting up Verlet run ...
  Unit style    : metal
  Current step  : 180000
  Time step     : 0.001
Per MPI rank memory allocation (min/avg/max) = 11.34 | 11.34 | 11.35 Mbytes
Step Temp Press TotEng PotEng Enthalpy 
  180000     2092.322   -872.01337   -76783.202   -82097.891   -76994.393 
  180495    2060.0541    761.88198   -76991.073   -82223.798   -76807.573 
Loop time of 39.9782 on 2 procs for 495 steps with 19652 atoms

Performance: 1.070 ns/day, 22.434 hours/ns, 12.382 timesteps/s
97.5% CPU use with 2 MPI tasks x no OpenMP threads

MPI task timing breakdown:
Section |  min time  |  avg time  |  max time  |%varavg| %total
---------------------------------------------------------------
Pair    | 21.32      | 21.43      | 21.541     |   2.4 | 53.60
Neigh   | 16.723     | 16.736     | 16.749     |   0.3 | 41.86
Comm    | 1.1741     | 1.2976     | 1.421      |  10.8 |  3.25
Output  | 0.0001719  | 0.00021601 | 0.00026011 |   0.0 |  0.00
Modify  | 0.40374    | 0.40398    | 0.40422    |   0.0 |  1.01
Other   |            | 0.1101     |            |       |  0.28

Nlocal:    9826 ave 9841 max 9811 min
Histogram: 1 0 0 0 0 0 0 0 0 1
Nghost:    12051 ave 12068 max 12034 min
Histogram: 1 0 0 0 0 0 0 0 0 1
Neighs:    640031 ave 643805 max 636257 min
Histogram: 1 0 0 0 0 0 0 0 0 1

Total # of neighbors = 1280062
Ave neighs/atom = 65.1365
Neighbor list builds = 495
Dangerous builds not checked
Setting up Verlet run ...
  Unit style    : metal
  Current step  : 180495
  Time step     : 0.001
Per MPI rank memory allocation (min/avg/max) = 11.34 | 11.34 | 11.35 Mbytes
Step Temp Press TotEng PotEng Enthalpy 
  180495    2060.0541    761.88198   -76991.073   -82223.798   -76807.573 
  200000    2072.2615   -1064.9873    -76940.98   -82204.713   -77198.051 
Loop time of 1686.29 on 2 procs for 19505 steps with 19652 atoms

Performance: 0.999 ns/day, 24.015 hours/ns, 11.567 timesteps/s
97.6% CPU use with 2 MPI tasks x no OpenMP threads

MPI task timing breakdown:
Section |  min time  |  avg time  |  max time  |%varavg| %total
---------------------------------------------------------------
Pair    | 900.78     | 904.74     | 908.71     |  13.2 | 53.65
Neigh   | 700.68     | 700.84     | 701.01     |   0.6 | 41.56
Comm    | 55.616     | 59.546     | 63.476     |  50.9 |  3.53
Output  | 0.037115   | 0.037143   | 0.03717    |   0.0 |  0.00
Modify  | 16.678     | 16.801     | 16.923     |   3.0 |  1.00
Other   |            | 4.325      |            |       |  0.26

Nlocal:    9826 ave 9829 max 9823 min
Histogram: 1 0 0 0 0 0 0 0 0 1
Nghost:    12040 ave 12056 max 12024 min
Histogram: 1 0 0 0 0 0 0 0 0 1
Neighs:    638298 ave 644173 max 632423 min
Histogram: 1 0 0 0 0 0 0 0 0 1

Total # of neighbors = 1276596
Ave neighs/atom = 64.9601
Neighbor list builds = 19505
Dangerous builds not checked
Setting up Verlet run ...
  Unit style    : metal
  Current step  : 200000
  Time step     : 0.001
Per MPI rank memory allocation (min/avg/max) = 11.35 | 11.35 | 11.35 Mbytes
Step Temp Press TotEng PotEng Enthalpy 
  200000    2072.2615   -1064.9873    -76940.98   -82204.713   -77198.051 
  200495    1997.1703   -2.6331372   -77212.168   -82285.162   -77212.801 
Loop time of 42.4775 on 2 procs for 495 steps with 19652 atoms

Performance: 1.007 ns/day, 23.837 hours/ns, 11.653 timesteps/s
98.5% CPU use with 2 MPI tasks x no OpenMP threads

MPI task timing breakdown:
Section |  min time  |  avg time  |  max time  |%varavg| %total
---------------------------------------------------------------
Pair    | 22.885     | 23.004     | 23.122     |   2.5 | 54.15
Neigh   | 17.029     | 17.352     | 17.674     |   7.7 | 40.85
Comm    | 1.1487     | 1.5961     | 2.0435     |  35.4 |  3.76
Output  | 9.0122e-05 | 0.00012851 | 0.00016689 |   0.0 |  0.00
Modify  | 0.40915    | 0.41654    | 0.42394    |   1.1 |  0.98
Other   |            | 0.1094     |            |       |  0.26

Nlocal:    9826 ave 9839 max 9813 min
Histogram: 1 0 0 0 0 0 0 0 0 1
Nghost:    12121 ave 12139 max 12103 min
Histogram: 1 0 0 0 0 0 0 0 0 1
Neighs:    640310 ave 647164 max 633457 min
Histogram: 1 0 0 0 0 0 0 0 0 1

Total # of neighbors = 1280621
Ave neighs/atom = 65.1649
Neighbor list builds = 495
Dangerous builds not checked
Setting up Verlet run ...
  Unit style    : metal
  Current step  : 200495
  Time step     : 0.001
Per MPI rank memory allocation (min/avg/max) = 11.35 | 11.35 | 11.35 Mbytes
Step Temp Press TotEng PotEng Enthalpy 
  200495    1997.1703   -2.6331372   -77212.168   -82285.162   -77212.801 
  220000    1997.9806    812.65467   -77217.725   -82292.778   -77022.429 
Loop time of 1720.55 on 2 procs for 19505 steps with 19652 atoms

Performance: 0.979 ns/day, 24.503 hours/ns, 11.336 timesteps/s
98.5% CPU use with 2 MPI tasks x no OpenMP threads

MPI task timing breakdown:
Section |  min time  |  avg time  |  max time  |%varavg| %total
---------------------------------------------------------------
Pair    | 931.84     | 936.32     | 940.8      |  14.6 | 54.42
Neigh   | 709.21     | 711.06     | 712.91     |   6.9 | 41.33
Comm    | 45.763     | 52.112     | 58.461     |  88.0 |  3.03
Output  | 0.034219   | 0.034316   | 0.034412   |   0.1 |  0.00
Modify  | 16.65      | 16.683     | 16.717     |   0.8 |  0.97
Other   |            | 4.342      |            |       |  0.25

Nlocal:    9826 ave 9849 max 9803 min
Histogram: 1 0 0 0 0 0 0 0 0 1
Nghost:    12148 ave 12172 max 12124 min
Histogram: 1 0 0 0 0 0 0 0 0 1
Neighs:    641292 ave 649250 max 633334 min
Histogram: 1 0 0 0 0 0 0 0 0 1

Total # of neighbors = 1282584
Ave neighs/atom = 65.2648
Neighbor list builds = 19505
Dangerous builds not checked
Setting up Verlet run ...
  Unit style    : metal
  Current step  : 220000
  Time step     : 0.001
Per MPI rank memory allocation (min/avg/max) = 11.35 | 11.35 | 11.35 Mbytes
Step Temp Press TotEng PotEng Enthalpy 
  220000    1997.9806    812.65467   -77217.725   -82292.778   -77022.429 
  220495    1961.3607    112.17032   -77411.945    -82393.98   -77385.011 
Loop time of 41.0846 on 2 procs for 495 steps with 19652 atoms

Performance: 1.041 ns/day, 23.055 hours/ns, 12.048 timesteps/s
99.5% CPU use with 2 MPI tasks x no OpenMP threads

MPI task timing breakdown:
Section |  min time  |  avg time  |  max time  |%varavg| %total
---------------------------------------------------------------
Pair    | 22.064     | 22.14      | 22.215     |   1.6 | 53.89
Neigh   | 17.002     | 17.22      | 17.438     |   5.3 | 41.91
Comm    | 0.90563    | 1.1998     | 1.494      |  26.9 |  2.92
Output  | 9.9897e-05 | 0.00019944 | 0.00029898 |   0.0 |  0.00
Modify  | 0.41477    | 0.41628    | 0.41779    |   0.2 |  1.01
Other   |            | 0.1089     |            |       |  0.27

Nlocal:    9826 ave 9838 max 9814 min
Histogram: 1 0 0 0 0 0 0 0 0 1
Nghost:    12134.5 ave 12145 max 12124 min
Histogram: 1 0 0 0 0 0 0 0 0 1
Neighs:    641726 ave 649123 max 634330 min
Histogram: 1 0 0 0 0 0 0 0 0 1

Total # of neighbors = 1283453
Ave neighs/atom = 65.309
Neighbor list builds = 495
Dangerous builds not checked
Setting up Verlet run ...
  Unit style    : metal
  Current step  : 220495
  Time step     : 0.001
Per MPI rank memory allocation (min/avg/max) = 11.35 | 11.35 | 11.35 Mbytes
Step Temp Press TotEng PotEng Enthalpy 
  220495    1961.3607    112.17032   -77411.945    -82393.98   -77385.011 
  240000    1950.6888    -497.3171   -77459.488   -82414.415   -77578.976 
Loop time of 1786.84 on 2 procs for 19505 steps with 19652 atoms

Performance: 0.943 ns/day, 25.447 hours/ns, 10.916 timesteps/s
96.8% CPU use with 2 MPI tasks x no OpenMP threads

MPI task timing breakdown:
Section |  min time  |  avg time  |  max time  |%varavg| %total
---------------------------------------------------------------
Pair    | 969.55     | 974.44     | 979.33     |  15.7 | 54.53
Neigh   | 727.41     | 728.97     | 730.54     |   5.8 | 40.80
Comm    | 54.782     | 61.248     | 67.714     |  82.6 |  3.43
Output  | 0.036623   | 0.036691   | 0.036758   |   0.0 |  0.00
Modify  | 17.631     | 17.671     | 17.711     |   1.0 |  0.99
Other   |            | 4.473      |            |       |  0.25

Nlocal:    9826 ave 9842 max 9810 min
Histogram: 1 0 0 0 0 0 0 0 0 1
Nghost:    12110.5 ave 12119 max 12102 min
Histogram: 1 0 0 0 0 0 0 0 0 1
Neighs:    641234 ave 645492 max 636976 min
Histogram: 1 0 0 0 0 0 0 0 0 1

Total # of neighbors = 1282468
Ave neighs/atom = 65.2589
Neighbor list builds = 19505
Dangerous builds not checked
Setting up Verlet run ...
  Unit style    : metal
  Current step  : 240000
  Time step     : 0.001
Per MPI rank memory allocation (min/avg/max) = 11.35 | 11.35 | 11.35 Mbytes
Step Temp Press TotEng PotEng Enthalpy 
  240000    1950.6888    -497.3171   -77459.488   -82414.415   -77578.976 
  240495    1904.3317    92.132005   -77645.079   -82482.255   -77622.961 
Loop time of 43.2239 on 2 procs for 495 steps with 19652 atoms

Performance: 0.989 ns/day, 24.256 hours/ns, 11.452 timesteps/s
96.8% CPU use with 2 MPI tasks x no OpenMP threads

MPI task timing breakdown:
Section |  min time  |  avg time  |  max time  |%varavg| %total
---------------------------------------------------------------
Pair    | 23.436     | 23.591     | 23.746     |   3.2 | 54.58
Neigh   | 17.57      | 17.728     | 17.887     |   3.8 | 41.02
Comm    | 1.3405     | 1.3532     | 1.3659     |   1.1 |  3.13
Output  | 0.0002141  | 0.00029314 | 0.00037217 |   0.0 |  0.00
Modify  | 0.42791    | 0.43631    | 0.44471    |   1.3 |  1.01
Other   |            | 0.1149     |            |       |  0.27

Nlocal:    9826 ave 9859 max 9793 min
Histogram: 1 0 0 0 0 0 0 0 0 1
Nghost:    12134 ave 12137 max 12131 min
Histogram: 1 0 0 0 0 0 0 0 0 1
Neighs:    642004 ave 650798 max 633209 min
Histogram: 1 0 0 0 0 0 0 0 0 1

Total # of neighbors = 1284007
Ave neighs/atom = 65.3372
Neighbor list builds = 495
Dangerous builds not checked
Setting up Verlet run ...
  Unit style    : metal
  Current step  : 240495
  Time step     : 0.001
Per MPI rank memory allocation (min/avg/max) = 11.35 | 11.35 | 11.35 Mbytes
Step Temp Press TotEng PotEng Enthalpy 
  240495    1904.3317    92.132005   -77645.079   -82482.255   -77622.961 
  260000    1901.8854   -573.28987   -77710.542   -82541.504   -77848.138 
Loop time of 1811.41 on 2 procs for 19505 steps with 19652 atoms

Performance: 0.930 ns/day, 25.797 hours/ns, 10.768 timesteps/s
94.2% CPU use with 2 MPI tasks x no OpenMP threads

MPI task timing breakdown:
Section |  min time  |  avg time  |  max time  |%varavg| %total
---------------------------------------------------------------
Pair    | 982.05     | 985.55     | 989.05     |  11.1 | 54.41
Neigh   | 720.56     | 721.91     | 723.27     |   5.0 | 39.85
Comm    | 76.808     | 81.336     | 85.864     |  50.2 |  4.49
Output  | 0.036959   | 0.037025   | 0.037092   |   0.0 |  0.00
Modify  | 17.763     | 18.074     | 18.386     |   7.3 |  1.00
Other   |            | 4.498      |            |       |  0.25

Nlocal:    9826 ave 9827 max 9825 min
Histogram: 1 0 0 0 0 0 0 0 0 1
Nghost:    12114.5 ave 12129 max 12100 min
Histogram: 1 0 0 0 0 0 0 0 0 1
Neighs:    642128 ave 648150 max 636105 min
Histogram: 1 0 0 0 0 0 0 0 0 1

Total # of neighbors = 1284255
Ave neighs/atom = 65.3498
Neighbor list builds = 19505
Dangerous builds not checked
Setting up Verlet run ...
  Unit style    : metal
  Current step  : 260000
  Time step     : 0.001
Per MPI rank memory allocation (min/avg/max) = 11.35 | 11.35 | 11.35 Mbytes
Step Temp Press TotEng PotEng Enthalpy 
  260000    1901.8854   -573.28987   -77710.542   -82541.504   -77848.138 
  260495    1858.9016   -469.02182   -77921.602   -82643.381   -78034.016 
Loop time of 45.0791 on 2 procs for 495 steps with 19652 atoms

Performance: 0.949 ns/day, 25.297 hours/ns, 10.981 timesteps/s
93.2% CPU use with 2 MPI tasks x no OpenMP threads

MPI task timing breakdown:
Section |  min time  |  avg time  |  max time  |%varavg| %total
---------------------------------------------------------------
Pair    | 24.123     | 24.333     | 24.543     |   4.3 | 53.98
Neigh   | 17.162     | 17.603     | 18.043     |  10.5 | 39.05
Comm    | 2.3258     | 2.5642     | 2.8025     |  14.9 |  5.69
Output  | 0.00011086 | 0.00017846 | 0.00024605 |   0.0 |  0.00
Modify  | 0.46175    | 0.47101    | 0.48027    |   1.3 |  1.04
Other   |            | 0.1085     |            |       |  0.24

Nlocal:    9826 ave 9832 max 9820 min
Histogram: 1 0 0 0 0 0 0 0 0 1
Nghost:    12108.5 ave 12147 max 12070 min
Histogram: 1 0 0 0 0 0 0 0 0 1
Neighs:    643084 ave 650673 max 635494 min
Histogram: 1 0 0 0 0 0 0 0 0 1

Total # of neighbors = 1286167
Ave neighs/atom = 65.4471
Neighbor list builds = 495
Dangerous builds not checked
Setting up Verlet run ...
  Unit style    : metal
  Current step  : 260495
  Time step     : 0.001
Per MPI rank memory allocation (min/avg/max) = 11.35 | 11.35 | 11.35 Mbytes
Step Temp Press TotEng PotEng Enthalpy 
  260495    1858.9016   -469.02182   -77921.602   -82643.381   -78034.016 
  280000    1863.1363   -1999.4254   -77857.519   -82590.055     -78337.6 
Loop time of 1975.18 on 2 procs for 19505 steps with 19652 atoms

Performance: 0.853 ns/day, 28.129 hours/ns, 9.875 timesteps/s
89.7% CPU use with 2 MPI tasks x no OpenMP threads

MPI task timing breakdown:
Section |  min time  |  avg time  |  max time  |%varavg| %total
---------------------------------------------------------------
Pair    | 1073.8     | 1075.3     | 1076.9     |   4.7 | 54.44
Neigh   | 758        | 761.16     | 764.33     |  11.5 | 38.54
Comm    | 106.05     | 111.27     | 116.48     |  49.4 |  5.63
Output  | 0.037326   | 0.037388   | 0.037449   |   0.0 |  0.00
Modify  | 22.145     | 22.675     | 23.205     |  11.1 |  1.15
Other   |            | 4.714      |            |       |  0.24

Nlocal:    9826 ave 9830 max 9822 min
Histogram: 1 0 0 0 0 0 0 0 0 1
Nghost:    12123.5 ave 12151 max 12096 min
Histogram: 1 0 0 0 0 0 0 0 0 1
Neighs:    641714 ave 646621 max 636807 min
Histogram: 1 0 0 0 0 0 0 0 0 1

Total # of neighbors = 1283428
Ave neighs/atom = 65.3078
Neighbor list builds = 19505
Dangerous builds not checked
Setting up Verlet run ...
  Unit style    : metal
  Current step  : 280000
  Time step     : 0.001
Per MPI rank memory allocation (min/avg/max) = 11.35 | 11.35 | 11.35 Mbytes
Step Temp Press TotEng PotEng Enthalpy 
  280000    1863.1363   -1999.4254   -77857.519   -82590.055     -78337.6 
  280495    1811.2094   -172.09628    -78094.24   -82694.877   -78135.353 
Loop time of 45.6688 on 2 procs for 495 steps with 19652 atoms

Performance: 0.936 ns/day, 25.628 hours/ns, 10.839 timesteps/s
94.7% CPU use with 2 MPI tasks x no OpenMP threads

MPI task timing breakdown:
Section |  min time  |  avg time  |  max time  |%varavg| %total
---------------------------------------------------------------
Pair    | 24.497     | 24.665     | 24.833     |   3.4 | 54.01
Neigh   | 17.968     | 18.085     | 18.202     |   2.7 | 39.60
Comm    | 1.7389     | 2.024      | 2.3091     |  20.0 |  4.43
Output  | 8.9884e-05 | 0.00017345 | 0.00025702 |   0.0 |  0.00
Modify  | 0.77682    | 0.78017    | 0.78353    |   0.4 |  1.71
Other   |            | 0.1144     |            |       |  0.25

Nlocal:    9826 ave 9848 max 9804 min
Histogram: 1 0 0 0 0 0 0 0 0 1
Nghost:    12133 ave 12146 max 12120 min
Histogram: 1 0 0 0 0 0 0 0 0 1
Neighs:    645152 ave 648472 max 641833 min
Histogram: 1 0 0 0 0 0 0 0 0 1

Total # of neighbors = 1290305
Ave neighs/atom = 65.6577
Neighbor list builds = 495
Dangerous builds not checked
Setting up Verlet run ...
  Unit style    : metal
  Current step  : 280495
  Time step     : 0.001
Per MPI rank memory allocation (min/avg/max) = 11.35 | 11.35 | 11.35 Mbytes
Step Temp Press TotEng PotEng Enthalpy 
  280495    1811.2094   -172.09628    -78094.24   -82694.877   -78135.353 
  300000    1811.3271    1020.5275    -78125.37   -82726.306   -77881.895 
Loop time of 1836.92 on 2 procs for 19505 steps with 19652 atoms

Performance: 0.917 ns/day, 26.160 hours/ns, 10.618 timesteps/s
94.8% CPU use with 2 MPI tasks x no OpenMP threads

MPI task timing breakdown:
Section |  min time  |  avg time  |  max time  |%varavg| %total
---------------------------------------------------------------
Pair    | 1001.4     | 1005.9     | 1010.4     |  14.3 | 54.76
Neigh   | 735.38     | 736.05     | 736.72     |   2.5 | 40.07
Comm    | 67.13      | 72.313     | 77.496     |  61.0 |  3.94
Output  | 0.037006   | 0.037036   | 0.037066   |   0.0 |  0.00
Modify  | 18.104     | 18.131     | 18.157     |   0.6 |  0.99
Other   |            | 4.49       |            |       |  0.24

Nlocal:    9826 ave 9829 max 9823 min
Histogram: 1 0 0 0 0 0 0 0 0 1
Nghost:    12135.5 ave 12141 max 12130 min
Histogram: 1 0 0 0 0 0 0 0 0 1
Neighs:    645936 ave 650682 max 641191 min
Histogram: 1 0 0 0 0 0 0 0 0 1

Total # of neighbors = 1291873
Ave neighs/atom = 65.7375
Neighbor list builds = 19505
Dangerous builds not checked
Setting up Verlet run ...
  Unit style    : metal
  Current step  : 300000
  Time step     : 0.001
Per MPI rank memory allocation (min/avg/max) = 11.35 | 11.35 | 11.35 Mbytes
Step Temp Press TotEng PotEng Enthalpy 
  300000    1811.3271    1020.5275    -78125.37   -82726.306   -77881.895 
  300495    1760.7398     490.2241   -78328.683   -82801.123    -78211.68 
Loop time of 43.5637 on 2 procs for 495 steps with 19652 atoms

Performance: 0.982 ns/day, 24.447 hours/ns, 11.363 timesteps/s
95.9% CPU use with 2 MPI tasks x no OpenMP threads

MPI task timing breakdown:
Section |  min time  |  avg time  |  max time  |%varavg| %total
---------------------------------------------------------------
Pair    | 23.845     | 24.012     | 24.18      |   3.4 | 55.12
Neigh   | 17.155     | 17.457     | 17.758     |   7.2 | 40.07
Comm    | 1.0768     | 1.5584     | 2.0399     |  38.6 |  3.58
Output  | 8.297e-05  | 0.00017142 | 0.00025988 |   0.0 |  0.00
Modify  | 0.41593    | 0.42541    | 0.43488    |   1.5 |  0.98
Other   |            | 0.1109     |            |       |  0.25

Nlocal:    9826 ave 9828 max 9824 min
Histogram: 1 0 0 0 0 0 0 0 0 1
Nghost:    12161.5 ave 12190 max 12133 min
Histogram: 1 0 0 0 0 0 0 0 0 1
Neighs:    645576 ave 653102 max 638051 min
Histogram: 1 0 0 0 0 0 0 0 0 1

Total # of neighbors = 1291153
Ave neighs/atom = 65.7008
Neighbor list builds = 495
Dangerous builds not checked
Setting up Verlet run ...
  Unit style    : metal
  Current step  : 300495
  Time step     : 0.001
Per MPI rank memory allocation (min/avg/max) = 11.35 | 11.35 | 11.35 Mbytes
Step Temp Press TotEng PotEng Enthalpy 
  300495    1760.7398     490.2241   -78328.683   -82801.123    -78211.68 
  320000    1743.2681    228.56162   -78408.801   -82836.861   -78354.377 
Loop time of 1789.89 on 2 procs for 19505 steps with 19652 atoms

Performance: 0.942 ns/day, 25.490 hours/ns, 10.897 timesteps/s
96.1% CPU use with 2 MPI tasks x no OpenMP threads

MPI task timing breakdown:
Section |  min time  |  avg time  |  max time  |%varavg| %total
---------------------------------------------------------------
Pair    | 974.2      | 976.78     | 979.36     |   8.3 | 54.57
Neigh   | 716.09     | 721.33     | 726.56     |  19.5 | 40.30
Comm    | 61.518     | 69.619     | 77.72      |  97.1 |  3.89
Output  | 0.040777   | 0.040801   | 0.040824   |   0.0 |  0.00
Modify  | 17.416     | 17.717     | 18.018     |   7.2 |  0.99
Other   |            | 4.408      |            |       |  0.25

Nlocal:    9826 ave 9828 max 9824 min
Histogram: 1 0 0 0 0 0 0 0 0 1
Nghost:    12170.5 ave 12201 max 12140 min
Histogram: 1 0 0 0 0 0 0 0 0 1
Neighs:    647212 ave 653674 max 640749 min
Histogram: 1 0 0 0 0 0 0 0 0 1

Total # of neighbors = 1294423
Ave neighs/atom = 65.8672
Neighbor list builds = 19505
Dangerous builds not checked
Setting up Verlet run ...
  Unit style    : metal
  Current step  : 320000
  Time step     : 0.001
Per MPI rank memory allocation (min/avg/max) = 11.35 | 11.35 | 11.35 Mbytes
Step Temp Press TotEng PotEng Enthalpy 
  320000    1743.2681    228.56162   -78408.801   -82836.861   -78354.377 
  320495    1717.3492    648.48419   -78586.107    -82948.33   -78431.999 
Loop time of 42.8126 on 2 procs for 495 steps with 19652 atoms

Performance: 0.999 ns/day, 24.025 hours/ns, 11.562 timesteps/s
96.7% CPU use with 2 MPI tasks x no OpenMP threads

MPI task timing breakdown:
Section |  min time  |  avg time  |  max time  |%varavg| %total
---------------------------------------------------------------
Pair    | 23.241     | 23.273     | 23.304     |   0.7 | 54.36
Neigh   | 17.399     | 17.487     | 17.575     |   2.1 | 40.84
Comm    | 1.4169     | 1.5294     | 1.6418     |   9.1 |  3.57
Output  | 0.00019407 | 0.00023854 | 0.000283   |   0.0 |  0.00
Modify  | 0.40787    | 0.40918    | 0.41049    |   0.2 |  0.96
Other   |            | 0.1144     |            |       |  0.27

Nlocal:    9826 ave 9859 max 9793 min
Histogram: 1 0 0 0 0 0 0 0 0 1
Nghost:    12159 ave 12162 max 12156 min
Histogram: 1 0 0 0 0 0 0 0 0 1
Neighs:    648279 ave 651416 max 645142 min
Histogram: 1 0 0 0 0 0 0 0 0 1

Total # of neighbors = 1296558
Ave neighs/atom = 65.9759
Neighbor list builds = 495
Dangerous builds not checked
Setting up Verlet run ...
  Unit style    : metal
  Current step  : 320495
  Time step     : 0.001
Per MPI rank memory allocation (min/avg/max) = 11.35 | 11.35 | 11.35 Mbytes
Step Temp Press TotEng PotEng Enthalpy 
  320495    1717.3492    648.48419   -78586.107    -82948.33   -78431.999 
  340000    1707.5399    175.79956   -78582.087   -82919.394   -78540.232 
Loop time of 1807.59 on 2 procs for 19505 steps with 19652 atoms

Performance: 0.932 ns/day, 25.742 hours/ns, 10.791 timesteps/s
96.5% CPU use with 2 MPI tasks x no OpenMP threads

MPI task timing breakdown:
Section |  min time  |  avg time  |  max time  |%varavg| %total
---------------------------------------------------------------
Pair    | 983.83     | 987.24     | 990.66     |  10.9 | 54.62
Neigh   | 728.1      | 730.98     | 733.86     |  10.6 | 40.44
Comm    | 60.841     | 67.214     | 73.588     |  77.7 |  3.72
Output  | 0.037802   | 0.03785    | 0.037899   |   0.0 |  0.00
Modify  | 17.624     | 17.678     | 17.732     |   1.3 |  0.98
Other   |            | 4.432      |            |       |  0.25

Nlocal:    9826 ave 9840 max 9812 min
Histogram: 1 0 0 0 0 0 0 0 0 1
Nghost:    12189.5 ave 12198 max 12181 min
Histogram: 1 0 0 0 0 0 0 0 0 1
Neighs:    647434 ave 654178 max 640691 min
Histogram: 1 0 0 0 0 0 0 0 0 1

Total # of neighbors = 1294869
Ave neighs/atom = 65.8899
Neighbor list builds = 19505
Dangerous builds not checked
Setting up Verlet run ...
  Unit style    : metal
  Current step  : 340000
  Time step     : 0.001
Per MPI rank memory allocation (min/avg/max) = 11.35 | 11.35 | 11.35 Mbytes
Step Temp Press TotEng PotEng Enthalpy 
  340000    1707.5399    175.79956   -78582.087   -82919.394   -78540.232 
  340495    1650.7176    898.79902   -78817.667    -83010.64   -78604.442 
Loop time of 43.4509 on 2 procs for 495 steps with 19652 atoms

Performance: 0.984 ns/day, 24.383 hours/ns, 11.392 timesteps/s
98.5% CPU use with 2 MPI tasks x no OpenMP threads

MPI task timing breakdown:
Section |  min time  |  avg time  |  max time  |%varavg| %total
---------------------------------------------------------------
Pair    | 23.368     | 23.67      | 23.973     |   6.2 | 54.48
Neigh   | 17.778     | 17.823     | 17.868     |   1.1 | 41.02
Comm    | 1.1757     | 1.4279     | 1.6801     |  21.1 |  3.29
Output  | 0.00010085 | 0.00014901 | 0.00019717 |   0.0 |  0.00
Modify  | 0.41296    | 0.41689    | 0.42081    |   0.6 |  0.96
Other   |            | 0.1126     |            |       |  0.26

Nlocal:    9826 ave 9827 max 9825 min
Histogram: 1 0 0 0 0 0 0 0 0 1
Nghost:    12175 ave 12178 max 12172 min
Histogram: 1 0 0 0 0 0 0 0 0 1
Neighs:    649469 ave 655471 max 643467 min
Histogram: 1 0 0 0 0 0 0 0 0 1

Total # of neighbors = 1298938
Ave neighs/atom = 66.097
Neighbor list builds = 495
Dangerous builds not checked
Setting up Verlet run ...
  Unit style    : metal
  Current step  : 340495
  Time step     : 0.001
Per MPI rank memory allocation (min/avg/max) = 11.35 | 11.35 | 11.35 Mbytes
Step Temp Press TotEng PotEng Enthalpy 
  340495    1650.7176    898.79902   -78817.667    -83010.64   -78604.442 
  360000    1638.8124     90.67958   -78886.511   -83049.244   -78864.998 
Loop time of 1729.23 on 2 procs for 19505 steps with 19652 atoms

Performance: 0.975 ns/day, 24.627 hours/ns, 11.280 timesteps/s
97.0% CPU use with 2 MPI tasks x no OpenMP threads

MPI task timing breakdown:
Section |  min time  |  avg time  |  max time  |%varavg| %total
---------------------------------------------------------------
Pair    | 939.62     | 941.81     | 944        |   7.1 | 54.46
Neigh   | 702.36     | 702.66     | 702.97     |   1.1 | 40.63
Comm    | 60.934     | 63.45      | 65.966     |  31.6 |  3.67
Output  | 0.036043   | 0.036112   | 0.036181   |   0.0 |  0.00
Modify  | 16.914     | 16.992     | 17.071     |   1.9 |  0.98
Other   |            | 4.283      |            |       |  0.25

Nlocal:    9826 ave 9850 max 9802 min
Histogram: 1 0 0 0 0 0 0 0 0 1
Nghost:    12197.5 ave 12227 max 12168 min
Histogram: 1 0 0 0 0 0 0 0 0 1
Neighs:    649808 ave 653612 max 646005 min
Histogram: 1 0 0 0 0 0 0 0 0 1

Total # of neighbors = 1299617
Ave neighs/atom = 66.1315
Neighbor list builds = 19505
Dangerous builds not checked
Setting up Verlet run ...
  Unit style    : metal
  Current step  : 360000
  Time step     : 0.001
Per MPI rank memory allocation (min/avg/max) = 11.35 | 11.35 | 11.35 Mbytes
Step Temp Press TotEng PotEng Enthalpy 
  360000    1638.8124     90.67958   -78886.511   -83049.244   -78864.998 
  360495    1608.8942    798.18436   -79055.268   -83142.005   -78866.252 
Loop time of 40.9029 on 2 procs for 495 steps with 19652 atoms

Performance: 1.046 ns/day, 22.953 hours/ns, 12.102 timesteps/s
98.1% CPU use with 2 MPI tasks x no OpenMP threads

MPI task timing breakdown:
Section |  min time  |  avg time  |  max time  |%varavg| %total
---------------------------------------------------------------
Pair    | 22.411     | 22.552     | 22.692     |   3.0 | 55.14
Neigh   | 15.658     | 15.871     | 16.084     |   5.4 | 38.80
Comm    | 1.6293     | 1.9838     | 2.3383     |  25.2 |  4.85
Output  | 7.987e-05  | 0.00011694 | 0.00015402 |   0.0 |  0.00
Modify  | 0.39082    | 0.3932     | 0.39559    |   0.4 |  0.96
Other   |            | 0.103      |            |       |  0.25

Nlocal:    9826 ave 9856 max 9796 min
Histogram: 1 0 0 0 0 0 0 0 0 1
Nghost:    12187.5 ave 12203 max 12172 min
Histogram: 1 0 0 0 0 0 0 0 0 1
Neighs:    650622 ave 660233 max 641011 min
Histogram: 1 0 0 0 0 0 0 0 0 1

Total # of neighbors = 1301244
Ave neighs/atom = 66.2143
Neighbor list builds = 495
Dangerous builds not checked
Setting up Verlet run ...
  Unit style    : metal
  Current step  : 360495
  Time step     : 0.001
Per MPI rank memory allocation (min/avg/max) = 11.35 | 11.35 | 11.35 Mbytes
Step Temp Press TotEng PotEng Enthalpy 
  360495    1608.8942    798.18436   -79055.268   -83142.005   -78866.252 
  380000    1598.3024    -516.3504   -79124.045   -83183.878   -79246.244 
Loop time of 1518.56 on 2 procs for 19505 steps with 19652 atoms

Performance: 1.110 ns/day, 21.626 hours/ns, 12.844 timesteps/s
98.4% CPU use with 2 MPI tasks x no OpenMP threads

MPI task timing breakdown:
Section |  min time  |  avg time  |  max time  |%varavg| %total
---------------------------------------------------------------
Pair    | 817.67     | 818.68     | 819.7      |   3.5 | 53.91
Neigh   | 601.99     | 605.17     | 608.36     |  12.9 | 39.85
Comm    | 72.546     | 76.749     | 80.953     |  48.0 |  5.05
Output  | 0.036246   | 0.036267   | 0.036287   |   0.0 |  0.00
Modify  | 14.119     | 14.128     | 14.137     |   0.2 |  0.93
Other   |            | 3.79       |            |       |  0.25

Nlocal:    9826 ave 9837 max 9815 min
Histogram: 1 0 0 0 0 0 0 0 0 1
Nghost:    12213.5 ave 12214 max 12213 min
Histogram: 1 0 0 0 0 0 0 0 0 1
Neighs:    651307 ave 658865 max 643749 min
Histogram: 1 0 0 0 0 0 0 0 0 1

Total # of neighbors = 1302614
Ave neighs/atom = 66.284
Neighbor list builds = 19505
Dangerous builds not checked
Setting up Verlet run ...
  Unit style    : metal
  Current step  : 380000
  Time step     : 0.001
Per MPI rank memory allocation (min/avg/max) = 11.35 | 11.35 | 11.35 Mbytes
Step Temp Press TotEng PotEng Enthalpy 
  380000    1598.3024    -516.3504   -79124.045   -83183.878   -79246.244 
  380495    1557.7912   -567.26127   -79288.084   -83245.015   -79422.468 
Loop time of 40.6313 on 2 procs for 495 steps with 19652 atoms

Performance: 1.053 ns/day, 22.801 hours/ns, 12.183 timesteps/s
99.0% CPU use with 2 MPI tasks x no OpenMP threads

MPI task timing breakdown:
Section |  min time  |  avg time  |  max time  |%varavg| %total
---------------------------------------------------------------
Pair    | 22.03      | 22.071     | 22.113     |   0.9 | 54.32
Neigh   | 15.513     | 16.372     | 17.231     |  21.2 | 40.29
Comm    | 0.85494    | 1.6906     | 2.5263     |  64.3 |  4.16
Output  | 0.0001328  | 0.00016296 | 0.00019312 |   0.0 |  0.00
Modify  | 0.38177    | 0.39506    | 0.40835    |   2.1 |  0.97
Other   |            | 0.1022     |            |       |  0.25

Nlocal:    9826 ave 9843 max 9809 min
Histogram: 1 0 0 0 0 0 0 0 0 1
Nghost:    12220 ave 12247 max 12193 min
Histogram: 1 0 0 0 0 0 0 0 0 1
Neighs:    650714 ave 654747 max 646682 min
Histogram: 1 0 0 0 0 0 0 0 0 1

Total # of neighbors = 1301429
Ave neighs/atom = 66.2237
Neighbor list builds = 495
Dangerous builds not checked
Setting up Verlet run ...
  Unit style    : metal
  Current step  : 380495
  Time step     : 0.001
Per MPI rank memory allocation (min/avg/max) = 11.35 | 11.35 | 11.35 Mbytes
Step Temp Press TotEng PotEng Enthalpy 
  380495    1557.7912   -567.26127   -79288.084   -83245.015   -79422.468 
  400000     1541.235    689.06256   -79398.464   -83313.341   -79235.623 
Loop time of 1609.77 on 2 procs for 19505 steps with 19652 atoms

Performance: 1.047 ns/day, 22.925 hours/ns, 12.117 timesteps/s
97.9% CPU use with 2 MPI tasks x no OpenMP threads

MPI task timing breakdown:
Section |  min time  |  avg time  |  max time  |%varavg| %total
---------------------------------------------------------------
Pair    | 867.43     | 871.94     | 876.45     |  15.3 | 54.17
Neigh   | 656.27     | 658.37     | 660.47     |   8.2 | 40.90
Comm    | 52.193     | 59.12      | 66.046     |  90.1 |  3.67
Output  | 0.037634   | 0.037653   | 0.037672   |   0.0 |  0.00
Modify  | 15.93      | 16.27      | 16.611     |   8.4 |  1.01
Other   |            | 4.036      |            |       |  0.25

Nlocal:    9826 ave 9828 max 9824 min
Histogram: 1 0 0 0 0 0 0 0 0 1
Nghost:    12193 ave 12195 max 12191 min
Histogram: 1 0 0 0 0 0 0 0 0 1
Neighs:    652275 ave 658609 max 645941 min
Histogram: 1 0 0 0 0 0 0 0 0 1

Total # of neighbors = 1304550
Ave neighs/atom = 66.3826
Neighbor list builds = 19505
Dangerous builds not checked
Setting up Verlet run ...
  Unit style    : metal
  Current step  : 400000
  Time step     : 0.001
Per MPI rank memory allocation (min/avg/max) = 11.35 | 11.35 | 11.35 Mbytes
Step Temp Press TotEng PotEng Enthalpy 
  400000     1541.235    689.06256   -79398.464   -83313.341   -79235.623 
  400495    1499.1014    -17.81356   -79543.036   -83350.891   -79547.246 
Loop time of 41.9017 on 2 procs for 495 steps with 19652 atoms

Performance: 1.021 ns/day, 23.514 hours/ns, 11.813 timesteps/s
98.1% CPU use with 2 MPI tasks x no OpenMP threads

MPI task timing breakdown:
Section |  min time  |  avg time  |  max time  |%varavg| %total
---------------------------------------------------------------
Pair    | 22.341     | 22.344     | 22.347     |   0.1 | 53.32
Neigh   | 16.926     | 16.983     | 17.04      |   1.4 | 40.53
Comm    | 1.9905     | 2.0529     | 2.1153     |   4.4 |  4.90
Output  | 0.00011182 | 0.0001384  | 0.00016499 |   0.0 |  0.00
Modify  | 0.41046    | 0.41341    | 0.41636    |   0.5 |  0.99
Other   |            | 0.1081     |            |       |  0.26

Nlocal:    9826 ave 9832 max 9820 min
Histogram: 1 0 0 0 0 0 0 0 0 1
Nghost:    12212 ave 12217 max 12207 min
Histogram: 1 0 0 0 0 0 0 0 0 1
Neighs:    652140 ave 659352 max 644927 min
Histogram: 1 0 0 0 0 0 0 0 0 1

Total # of neighbors = 1304279
Ave neighs/atom = 66.3688
Neighbor list builds = 495
Dangerous builds not checked
Setting up Verlet run ...
  Unit style    : metal
  Current step  : 400495
  Time step     : 0.001
Per MPI rank memory allocation (min/avg/max) = 11.35 | 11.35 | 11.35 Mbytes
Step Temp Press TotEng PotEng Enthalpy 
  400495    1499.1014    -17.81356   -79543.036   -83350.891   -79547.246 
  420000    1506.9084   -657.62907   -79592.434   -83420.119   -79748.081 
Loop time of 1459.2 on 2 procs for 19505 steps with 19652 atoms

Performance: 1.155 ns/day, 20.781 hours/ns, 13.367 timesteps/s
98.5% CPU use with 2 MPI tasks x no OpenMP threads

MPI task timing breakdown:
Section |  min time  |  avg time  |  max time  |%varavg| %total
---------------------------------------------------------------
Pair    | 773.79     | 776.14     | 778.49     |   8.4 | 53.19
Neigh   | 597.05     | 600.91     | 604.77     |  15.7 | 41.18
Comm    | 57.863     | 64.03      | 70.198     |  77.1 |  4.39
Output  | 0.086523   | 0.086533   | 0.086543   |   0.0 |  0.01
Modify  | 14.33      | 14.374     | 14.418     |   1.2 |  0.99
Other   |            | 3.66       |            |       |  0.25

Nlocal:    9826 ave 9837 max 9815 min
Histogram: 1 0 0 0 0 0 0 0 0 1
Nghost:    12187.5 ave 12229 max 12146 min
Histogram: 1 0 0 0 0 0 0 0 0 1
Neighs:    651369 ave 658405 max 644333 min
Histogram: 1 0 0 0 0 0 0 0 0 1

Total # of neighbors = 1302738
Ave neighs/atom = 66.2904
Neighbor list builds = 19505
Dangerous builds not checked
Setting up Verlet run ...
  Unit style    : metal
  Current step  : 420000
  Time step     : 0.001
Per MPI rank memory allocation (min/avg/max) = 11.35 | 11.35 | 11.35 Mbytes
Step Temp Press TotEng PotEng Enthalpy 
  420000    1506.9084   -657.62907   -79592.434   -83420.119   -79748.081 
  420495      1464.05   -425.10698   -79807.109   -83525.929   -79907.516 
Loop time of 31.9717 on 2 procs for 495 steps with 19652 atoms

Performance: 1.338 ns/day, 17.941 hours/ns, 15.482 timesteps/s
99.3% CPU use with 2 MPI tasks x no OpenMP threads

MPI task timing breakdown:
Section |  min time  |  avg time  |  max time  |%varavg| %total
---------------------------------------------------------------
Pair    | 16.922     | 16.959     | 16.995     |   0.9 | 53.04
Neigh   | 13.149     | 13.344     | 13.54      |   5.4 | 41.74
Comm    | 1.0332     | 1.2708     | 1.5083     |  21.1 |  3.97
Output  | 5.6028e-05 | 8.9526e-05 | 0.00012302 |   0.0 |  0.00
Modify  | 0.31265    | 0.31539    | 0.31814    |   0.5 |  0.99
Other   |            | 0.08247    |            |       |  0.26

Nlocal:    9826 ave 9838 max 9814 min
Histogram: 1 0 0 0 0 0 0 0 0 1
Nghost:    12208.5 ave 12216 max 12201 min
Histogram: 1 0 0 0 0 0 0 0 0 1
Neighs:    652592 ave 659195 max 645989 min
Histogram: 1 0 0 0 0 0 0 0 0 1

Total # of neighbors = 1305184
Ave neighs/atom = 66.4148
Neighbor list builds = 495
Dangerous builds not checked
Setting up Verlet run ...
  Unit style    : metal
  Current step  : 420495
  Time step     : 0.001
Per MPI rank memory allocation (min/avg/max) = 11.35 | 11.35 | 11.35 Mbytes
Step Temp Press TotEng PotEng Enthalpy 
  420495      1464.05   -425.10698   -79807.109   -83525.929   -79907.516 
  440000    1437.9275    238.91926   -79886.904    -83539.37   -79830.568 
Loop time of 1292.29 on 2 procs for 19505 steps with 19652 atoms

Performance: 1.304 ns/day, 18.404 hours/ns, 15.093 timesteps/s
99.1% CPU use with 2 MPI tasks x no OpenMP threads

MPI task timing breakdown:
Section |  min time  |  avg time  |  max time  |%varavg| %total
---------------------------------------------------------------
Pair    | 683.25     | 683.3      | 683.36     |   0.2 | 52.88
Neigh   | 538.7      | 542.71     | 546.73     |  17.2 | 42.00
Comm    | 46.173     | 50.283     | 54.393     |  58.0 |  3.89
Output  | 0.024981   | 0.024995   | 0.02501    |   0.0 |  0.00
Modify  | 12.714     | 12.74      | 12.767     |   0.7 |  0.99
Other   |            | 3.219      |            |       |  0.25

Nlocal:    9826 ave 9836 max 9816 min
Histogram: 1 0 0 0 0 0 0 0 0 1
Nghost:    12218.5 ave 12263 max 12174 min
Histogram: 1 0 0 0 0 0 0 0 0 1
Neighs:    653654 ave 660035 max 647274 min
Histogram: 1 0 0 0 0 0 0 0 0 1

Total # of neighbors = 1307309
Ave neighs/atom = 66.5229
Neighbor list builds = 19505
Dangerous builds not checked
Setting up Verlet run ...
  Unit style    : metal
  Current step  : 440000
  Time step     : 0.001
Per MPI rank memory allocation (min/avg/max) = 11.35 | 11.35 | 11.35 Mbytes
Step Temp Press TotEng PotEng Enthalpy 
  440000    1437.9275    238.91926   -79886.904    -83539.37   -79830.568 
  440495    1413.3678   -463.08896   -80037.885   -83627.968   -80146.936 
Loop time of 28.59 on 2 procs for 495 steps with 19652 atoms

Performance: 1.496 ns/day, 16.044 hours/ns, 17.314 timesteps/s
99.1% CPU use with 2 MPI tasks x no OpenMP threads

MPI task timing breakdown:
Section |  min time  |  avg time  |  max time  |%varavg| %total
---------------------------------------------------------------
Pair    | 14.704     | 14.71      | 14.715     |   0.1 | 51.45
Neigh   | 12.128     | 12.267     | 12.405     |   4.0 | 42.91
Comm    | 1.1335     | 1.2682     | 1.403      |  12.0 |  4.44
Output  | 6.5088e-05 | 8.9049e-05 | 0.00011301 |   0.0 |  0.00
Modify  | 0.2697     | 0.27122    | 0.27274    |   0.3 |  0.95
Other   |            | 0.07433    |            |       |  0.26

Nlocal:    9826 ave 9837 max 9815 min
Histogram: 1 0 0 0 0 0 0 0 0 1
Nghost:    12177.5 ave 12186 max 12169 min
Histogram: 1 0 0 0 0 0 0 0 0 1
Neighs:    654560 ave 659870 max 649251 min
Histogram: 1 0 0 0 0 0 0 0 0 1

Total # of neighbors = 1309121
Ave neighs/atom = 66.6152
Neighbor list builds = 495
Dangerous builds not checked
Setting up Verlet run ...
  Unit style    : metal
  Current step  : 440495
  Time step     : 0.001
Per MPI rank memory allocation (min/avg/max) = 11.35 | 11.35 | 11.35 Mbytes
Step Temp Press TotEng PotEng Enthalpy 
  440495    1413.3678   -463.08896   -80037.885   -83627.968   -80146.936 
  460000    1391.6345    891.18167    -80128.29   -83663.168   -79918.927 
Loop time of 1244.53 on 2 procs for 19505 steps with 19652 atoms

Performance: 1.354 ns/day, 17.724 hours/ns, 15.673 timesteps/s
98.4% CPU use with 2 MPI tasks x no OpenMP threads

MPI task timing breakdown:
Section |  min time  |  avg time  |  max time  |%varavg| %total
---------------------------------------------------------------
Pair    | 649.84     | 650.44     | 651.04     |   2.4 | 52.26
Neigh   | 535.9      | 537.21     | 538.53     |   5.7 | 43.17
Comm    | 41.631     | 42.338     | 43.045     |  10.9 |  3.40
Output  | 0.022884   | 0.022898   | 0.022912   |   0.0 |  0.00
Modify  | 11.416     | 11.422     | 11.427     |   0.2 |  0.92
Other   |            | 3.101      |            |       |  0.25

Nlocal:    9826 ave 9832 max 9820 min
Histogram: 1 0 0 0 0 0 0 0 0 1
Nghost:    12209 ave 12213 max 12205 min
Histogram: 1 0 0 0 0 0 0 0 0 1
Neighs:    655948 ave 656739 max 655157 min
Histogram: 1 0 0 0 0 0 0 0 0 1

Total # of neighbors = 1311896
Ave neighs/atom = 66.7564
Neighbor list builds = 19505
Dangerous builds not checked
Setting up Verlet run ...
  Unit style    : metal
  Current step  : 460000
  Time step     : 0.001
Per MPI rank memory allocation (min/avg/max) = 11.35 | 11.35 | 11.35 Mbytes
Step Temp Press TotEng PotEng Enthalpy 
  460000    1391.6345    891.18167    -80128.29   -83663.168   -79918.927 
  460495    1360.2708    621.66894   -80298.741   -83753.953   -80152.812 
Loop time of 29.2644 on 2 procs for 495 steps with 19652 atoms

Performance: 1.461 ns/day, 16.422 hours/ns, 16.915 timesteps/s
97.4% CPU use with 2 MPI tasks x no OpenMP threads

MPI task timing breakdown:
Section |  min time  |  avg time  |  max time  |%varavg| %total
---------------------------------------------------------------
Pair    | 15.177     | 15.199     | 15.22      |   0.6 | 51.94
Neigh   | 12.778     | 12.9       | 13.023     |   3.4 | 44.08
Comm    | 0.72283    | 0.8257     | 0.92857    |  11.3 |  2.82
Output  | 8.1062e-05 | 0.00012314 | 0.00016522 |   0.0 |  0.00
Modify  | 0.263      | 0.2645     | 0.26599    |   0.3 |  0.90
Other   |            | 0.07501    |            |       |  0.26

Nlocal:    9826 ave 9839 max 9813 min
Histogram: 1 0 0 0 0 0 0 0 0 1
Nghost:    12209.5 ave 12221 max 12198 min
Histogram: 1 0 0 0 0 0 0 0 0 1
Neighs:    656673 ave 658835 max 654511 min
Histogram: 1 0 0 0 0 0 0 0 0 1

Total # of neighbors = 1313346
Ave neighs/atom = 66.8301
Neighbor list builds = 495
Dangerous builds not checked
Setting up Verlet run ...
  Unit style    : metal
  Current step  : 460495
  Time step     : 0.001
Per MPI rank memory allocation (min/avg/max) = 11.35 | 11.35 | 11.35 Mbytes
Step Temp Press TotEng PotEng Enthalpy 
  460495    1360.2708    621.66894   -80298.741   -83753.953   -80152.812 
  480000    1345.6152   -847.90496   -80376.877   -83794.863   -80576.343 
Loop time of 1179.49 on 2 procs for 19505 steps with 19652 atoms

Performance: 1.429 ns/day, 16.797 hours/ns, 16.537 timesteps/s
98.5% CPU use with 2 MPI tasks x no OpenMP threads

MPI task timing breakdown:
Section |  min time  |  avg time  |  max time  |%varavg| %total
---------------------------------------------------------------
Pair    | 602.91     | 603.97     | 605.02     |   4.3 | 51.21
Neigh   | 528.59     | 530.29     | 532        |   7.4 | 44.96
Comm    | 30.867     | 31.584     | 32.301     |  12.8 |  2.68
Output  | 0.036367   | 0.036384   | 0.036401   |   0.0 |  0.00
Modify  | 10.61      | 10.669     | 10.728     |   1.8 |  0.90
Other   |            | 2.935      |            |       |  0.25

Nlocal:    9826 ave 9834 max 9818 min
Histogram: 1 0 0 0 0 0 0 0 0 1
Nghost:    12208.5 ave 12232 max 12185 min
Histogram: 1 0 0 0 0 0 0 0 0 1
Neighs:    655598 ave 655641 max 655556 min
Histogram: 1 0 0 0 0 0 0 0 0 1

Total # of neighbors = 1311197
Ave neighs/atom = 66.7208
Neighbor list builds = 19505
Dangerous builds not checked
Setting up Verlet run ...
  Unit style    : metal
  Current step  : 480000
  Time step     : 0.001
Per MPI rank memory allocation (min/avg/max) = 11.35 | 11.35 | 11.35 Mbytes
Step Temp Press TotEng PotEng Enthalpy 
  480000    1345.6152   -847.90496   -80376.877   -83794.863   -80576.343 
  480495    1311.5246    214.84987     -80566.1   -83897.492   -80515.662 
Loop time of 38.0117 on 2 procs for 495 steps with 19652 atoms

Performance: 1.125 ns/day, 21.331 hours/ns, 13.022 timesteps/s
97.7% CPU use with 2 MPI tasks x no OpenMP threads

MPI task timing breakdown:
Section |  min time  |  avg time  |  max time  |%varavg| %total
---------------------------------------------------------------
Pair    | 19.389     | 19.564     | 19.739     |   4.0 | 51.47
Neigh   | 15.694     | 16.242     | 16.789     |  13.6 | 42.73
Comm    | 1.3631     | 1.743      | 2.1229     |  28.8 |  4.59
Output  | 7.2002e-05 | 0.00010347 | 0.00013494 |   0.0 |  0.00
Modify  | 0.35875    | 0.36714    | 0.37552    |   1.4 |  0.97
Other   |            | 0.09572    |            |       |  0.25

Nlocal:    9826 ave 9841 max 9811 min
Histogram: 1 0 0 0 0 0 0 0 0 1
Nghost:    12224 ave 12264 max 12184 min
Histogram: 1 0 0 0 0 0 0 0 0 1
Neighs:    656904 ave 657088 max 656719 min
Histogram: 1 0 0 0 0 0 0 0 0 1

Total # of neighbors = 1313807
Ave neighs/atom = 66.8536
Neighbor list builds = 495
Dangerous builds not checked
Setting up Verlet run ...
  Unit style    : metal
  Current step  : 480495
  Time step     : 0.001
Per MPI rank memory allocation (min/avg/max) = 11.35 | 11.35 | 11.35 Mbytes
Step Temp Press TotEng PotEng Enthalpy 
  480495    1311.5246    214.84987     -80566.1   -83897.492   -80515.662 
  500000    1312.5689    731.90461   -80621.447   -83955.491   -80449.983 
Loop time of 1128.86 on 2 procs for 19505 steps with 19652 atoms

Performance: 1.493 ns/day, 16.076 hours/ns, 17.279 timesteps/s
99.1% CPU use with 2 MPI tasks x no OpenMP threads

MPI task timing breakdown:
Section |  min time  |  avg time  |  max time  |%varavg| %total
---------------------------------------------------------------
Pair    | 567.93     | 568.54     | 569.16     |   2.6 | 50.36
Neigh   | 520.75     | 520.96     | 521.18     |   0.9 | 46.15
Comm    | 25.409     | 26.252     | 27.095     |  16.5 |  2.33
Output  | 0.022624   | 0.022638   | 0.022652   |   0.0 |  0.00
Modify  | 10.2       | 10.214     | 10.229     |   0.5 |  0.90
Other   |            | 2.861      |            |       |  0.25

Nlocal:    9826 ave 9832 max 9820 min
Histogram: 1 0 0 0 0 0 0 0 0 1
Nghost:    12203.5 ave 12220 max 12187 min
Histogram: 1 0 0 0 0 0 0 0 0 1
Neighs:    658008 ave 659815 max 656200 min
Histogram: 1 0 0 0 0 0 0 0 0 1

Total # of neighbors = 1316015
Ave neighs/atom = 66.966
Neighbor list builds = 19505
Dangerous builds not checked
Setting up Verlet run ...
  Unit style    : metal
  Current step  : 500000
  Time step     : 0.001
Per MPI rank memory allocation (min/avg/max) = 11.35 | 11.35 | 11.35 Mbytes
Step Temp Press TotEng PotEng Enthalpy 
  500000    1312.5689    731.90461   -80621.447   -83955.491   -80449.983 
  500495    1270.8709    523.63367   -80849.194   -84077.322   -80726.533 
Loop time of 26.0779 on 2 procs for 495 steps with 19652 atoms

Performance: 1.640 ns/day, 14.634 hours/ns, 18.982 timesteps/s
100.0% CPU use with 2 MPI tasks x no OpenMP threads

MPI task timing breakdown:
Section |  min time  |  avg time  |  max time  |%varavg| %total
---------------------------------------------------------------
Pair    | 13.005     | 13.019     | 13.033     |   0.4 | 49.92
Neigh   | 12.427     | 12.427     | 12.428     |   0.0 | 47.65
Comm    | 0.30626    | 0.31931    | 0.33237    |   2.3 |  1.22
Output  | 7.2002e-05 | 0.00010145 | 0.00013089 |   0.0 |  0.00
Modify  | 0.24325    | 0.24341    | 0.24358    |   0.0 |  0.93
Other   |            | 0.06856    |            |       |  0.26

Nlocal:    9826 ave 9840 max 9812 min
Histogram: 1 0 0 0 0 0 0 0 0 1
Nghost:    12236 ave 12255 max 12217 min
Histogram: 1 0 0 0 0 0 0 0 0 1
Neighs:    658088 ave 659286 max 656891 min
Histogram: 1 0 0 0 0 0 0 0 0 1

Total # of neighbors = 1316177
Ave neighs/atom = 66.9742
Neighbor list builds = 495
Dangerous builds not checked
Setting up Verlet run ...
  Unit style    : metal
  Current step  : 500495
  Time step     : 0.001
Per MPI rank memory allocation (min/avg/max) = 11.35 | 11.35 | 11.35 Mbytes
Step Temp Press TotEng PotEng Enthalpy 
  500495    1270.8709    523.63367   -80849.194   -84077.322   -80726.533 
  520000    1245.8009     89.30302   -80942.886   -84107.334   -80921.963 
Loop time of 1259.44 on 2 procs for 19505 steps with 19652 atoms

Performance: 1.338 ns/day, 17.936 hours/ns, 15.487 timesteps/s
98.7% CPU use with 2 MPI tasks x no OpenMP threads

MPI task timing breakdown:
Section |  min time  |  avg time  |  max time  |%varavg| %total
---------------------------------------------------------------
Pair    | 639.18     | 640.15     | 641.11     |   3.8 | 50.83
Neigh   | 561.64     | 561.89     | 562.14     |   1.1 | 44.61
Comm    | 41.499     | 42.22      | 42.941     |  11.1 |  3.35
Output  | 0.033407   | 0.033423   | 0.033439   |   0.0 |  0.00
Modify  | 12.004     | 12.024     | 12.045     |   0.6 |  0.95
Other   |            | 3.131      |            |       |  0.25

Nlocal:    9826 ave 9844 max 9808 min
Histogram: 1 0 0 0 0 0 0 0 0 1
Nghost:    12266 ave 12277 max 12255 min
Histogram: 1 0 0 0 0 0 0 0 0 1
Neighs:    657988 ave 658937 max 657039 min
Histogram: 1 0 0 0 0 0 0 0 0 1

Total # of neighbors = 1315976
Ave neighs/atom = 66.964
Neighbor list builds = 19505
Dangerous builds not checked
Setting up Verlet run ...
  Unit style    : metal
  Current step  : 520000
  Time step     : 0.001
Per MPI rank memory allocation (min/avg/max) = 11.35 | 11.35 | 11.35 Mbytes
Step Temp Press TotEng PotEng Enthalpy 
  520000    1245.8009     89.30302   -80942.886   -84107.334   -80921.963 
  520495    1209.0815    -696.7433   -81108.704   -84179.881   -81271.892 
Loop time of 37.0167 on 2 procs for 495 steps with 19652 atoms

Performance: 1.155 ns/day, 20.773 hours/ns, 13.372 timesteps/s
98.6% CPU use with 2 MPI tasks x no OpenMP threads

MPI task timing breakdown:
Section |  min time  |  avg time  |  max time  |%varavg| %total
---------------------------------------------------------------
Pair    | 18.691     | 18.782     | 18.873     |   2.1 | 50.74
Neigh   | 15.763     | 15.839     | 15.915     |   1.9 | 42.79
Comm    | 1.9375     | 1.952      | 1.9665     |   1.0 |  5.27
Output  | 8.7023e-05 | 0.00011551 | 0.000144   |   0.0 |  0.00
Modify  | 0.35326    | 0.35339    | 0.35352    |   0.0 |  0.95
Other   |            | 0.09057    |            |       |  0.24

Nlocal:    9826 ave 9833 max 9819 min
Histogram: 1 0 0 0 0 0 0 0 0 1
Nghost:    12252.5 ave 12266 max 12239 min
Histogram: 1 0 0 0 0 0 0 0 0 1
Neighs:    658446 ave 659975 max 656918 min
Histogram: 1 0 0 0 0 0 0 0 0 1

Total # of neighbors = 1316893
Ave neighs/atom = 67.0106
Neighbor list builds = 495
Dangerous builds not checked
Setting up Verlet run ...
  Unit style    : metal
  Current step  : 520495
  Time step     : 0.001
Per MPI rank memory allocation (min/avg/max) = 11.35 | 11.35 | 11.35 Mbytes
Step Temp Press TotEng PotEng Enthalpy 
  520495    1209.0815    -696.7433   -81108.704   -84179.881   -81271.892 
  540000    1212.2106    1630.8439   -81131.098   -84210.223   -80749.755 
Loop time of 1553.42 on 2 procs for 19505 steps with 19652 atoms

Performance: 1.085 ns/day, 22.123 hours/ns, 12.556 timesteps/s
98.0% CPU use with 2 MPI tasks x no OpenMP threads

MPI task timing breakdown:
Section |  min time  |  avg time  |  max time  |%varavg| %total
---------------------------------------------------------------
Pair    | 805.97     | 807.11     | 808.25     |   4.0 | 51.96
Neigh   | 660.81     | 661.24     | 661.67     |   1.7 | 42.57
Comm    | 65.363     | 66.047     | 66.732     |   8.4 |  4.25
Output  | 0.03603    | 0.036053   | 0.036076   |   0.0 |  0.00
Modify  | 15.252     | 15.267     | 15.282     |   0.4 |  0.98
Other   |            | 3.717      |            |       |  0.24

Nlocal:    9826 ave 9840 max 9812 min
Histogram: 1 0 0 0 0 0 0 0 0 1
Nghost:    12257.5 ave 12265 max 12250 min
Histogram: 1 0 0 0 0 0 0 0 0 1
Neighs:    659438 ave 661822 max 657054 min
Histogram: 1 0 0 0 0 0 0 0 0 1

Total # of neighbors = 1318876
Ave neighs/atom = 67.1115
Neighbor list builds = 19505
Dangerous builds not checked
Setting up Verlet run ...
  Unit style    : metal
  Current step  : 540000
  Time step     : 0.001
Per MPI rank memory allocation (min/avg/max) = 11.35 | 11.35 | 11.35 Mbytes
Step Temp Press TotEng PotEng Enthalpy 
  540000    1212.2106    1630.8439   -81131.098   -84210.223   -80749.755 
  540495    1160.3755    493.65321   -81374.634   -84322.093   -81259.383 
Loop time of 43.7196 on 2 procs for 495 steps with 19652 atoms

Performance: 0.978 ns/day, 24.534 hours/ns, 11.322 timesteps/s
98.7% CPU use with 2 MPI tasks x no OpenMP threads

MPI task timing breakdown:
Section |  min time  |  avg time  |  max time  |%varavg| %total
---------------------------------------------------------------
Pair    | 23.161     | 23.196     | 23.231     |   0.7 | 53.06
Neigh   | 18.501     | 18.692     | 18.883     |   4.4 | 42.75
Comm    | 1.1404     | 1.303      | 1.4656     |  14.2 |  2.98
Output  | 9.203e-05  | 0.00012302 | 0.00015402 |   0.0 |  0.00
Modify  | 0.41599    | 0.42103    | 0.42606    |   0.8 |  0.96
Other   |            | 0.1075     |            |       |  0.25

Nlocal:    9826 ave 9849 max 9803 min
Histogram: 1 0 0 0 0 0 0 0 0 1
Nghost:    12273.5 ave 12280 max 12267 min
Histogram: 1 0 0 0 0 0 0 0 0 1
Neighs:    660288 ave 662835 max 657741 min
Histogram: 1 0 0 0 0 0 0 0 0 1

Total # of neighbors = 1320576
Ave neighs/atom = 67.198
Neighbor list builds = 495
Dangerous builds not checked
Setting up Verlet run ...
  Unit style    : metal
  Current step  : 540495
  Time step     : 0.001
Per MPI rank memory allocation (min/avg/max) = 11.35 | 11.35 | 11.35 Mbytes
Step Temp Press TotEng PotEng Enthalpy 
  540495    1160.3755    493.65321   -81374.634   -84322.093   -81259.383 
  560000    1155.4456    741.08666   -81485.405   -84420.343   -81312.526 
Loop time of 1481.84 on 2 procs for 19505 steps with 19652 atoms

Performance: 1.137 ns/day, 21.103 hours/ns, 13.163 timesteps/s
98.2% CPU use with 2 MPI tasks x no OpenMP threads

MPI task timing breakdown:
Section |  min time  |  avg time  |  max time  |%varavg| %total
---------------------------------------------------------------
Pair    | 768.43     | 770.64     | 772.85     |   8.0 | 52.01
Neigh   | 638.83     | 638.97     | 639.12     |   0.6 | 43.12
Comm    | 51.192     | 53.675     | 56.157     |  33.9 |  3.62
Output  | 0.022877   | 0.022889   | 0.022902   |   0.0 |  0.00
Modify  | 14.523     | 14.931     | 15.339     |  10.6 |  1.01
Other   |            | 3.602      |            |       |  0.24

Nlocal:    9826 ave 9831 max 9821 min
Histogram: 1 0 0 0 0 0 0 0 0 1
Nghost:    12234 ave 12236 max 12232 min
Histogram: 1 0 0 0 0 0 0 0 0 1
Neighs:    661228 ave 661714 max 660741 min
Histogram: 1 0 0 0 0 0 0 0 0 1

Total # of neighbors = 1322455
Ave neighs/atom = 67.2937
Neighbor list builds = 19505
Dangerous builds not checked
Setting up Verlet run ...
  Unit style    : metal
  Current step  : 560000
  Time step     : 0.001
Per MPI rank memory allocation (min/avg/max) = 11.35 | 11.35 | 11.35 Mbytes
Step Temp Press TotEng PotEng Enthalpy 
[...]
Neighs:    668823 ave 669193 max 668453 min
Histogram: 1 0 0 0 0 0 0 0 0 1

Total # of neighbors = 1337646
Ave neighs/atom = 68.0667
Neighbor list builds = 19505
Dangerous builds not checked
Setting up Verlet run ...
  Unit style    : metal
  Current step  : 840000
  Time step     : 0.001
Per MPI rank memory allocation (min/avg/max) = 11.35 | 11.35 | 11.35 Mbytes
Step Temp Press TotEng PotEng Enthalpy 
  840000     448.4932    92.338491    -86739.19   -87878.403   -86717.894 
  840495     418.5575    92.580654   -86896.929   -87960.103   -86875.586 
Loop time of 41.8213 on 2 procs for 495 steps with 19652 atoms

Performance: 1.023 ns/day, 23.469 hours/ns, 11.836 timesteps/s
99.2% CPU use with 2 MPI tasks x no OpenMP threads

MPI task timing breakdown:
Section |  min time  |  avg time  |  max time  |%varavg| %total
---------------------------------------------------------------
Pair    | 21.834     | 21.947     | 22.06      |   2.4 | 52.48
Neigh   | 18.052     | 18.181     | 18.31      |   3.0 | 43.47
Comm    | 1.1306     | 1.1486     | 1.1665     |   1.7 |  2.75
Output  | 0.00010109 | 0.00014949 | 0.00019789 |   0.0 |  0.00
Modify  | 0.43224    | 0.43326    | 0.43428    |   0.2 |  1.04
Other   |            | 0.1115     |            |       |  0.27

Nlocal:    9826 ave 9848 max 9804 min
Histogram: 1 0 0 0 0 0 0 0 0 1
Nghost:    12352.5 ave 12384 max 12321 min
Histogram: 1 0 0 0 0 0 0 0 0 1
Neighs:    669084 ave 671411 max 666757 min
Histogram: 1 0 0 0 0 0 0 0 0 1

Total # of neighbors = 1338168
Ave neighs/atom = 68.0932
Neighbor list builds = 495
Dangerous builds not checked
Setting up Verlet run ...
  Unit style    : metal
  Current step  : 840495
  Time step     : 0.001
Per MPI rank memory allocation (min/avg/max) = 11.35 | 11.35 | 11.35 Mbytes
Step Temp Press TotEng PotEng Enthalpy 
  840495     418.5575    92.580654   -86896.929   -87960.103   -86875.586 
  860000    397.81724    16.949668   -87130.886   -88141.378    -87126.98 
Loop time of 1653.77 on 2 procs for 19505 steps with 19652 atoms

Performance: 1.019 ns/day, 23.552 hours/ns, 11.794 timesteps/s
99.1% CPU use with 2 MPI tasks x no OpenMP threads

MPI task timing breakdown:
Section |  min time  |  avg time  |  max time  |%varavg| %total
---------------------------------------------------------------
Pair    | 861.82     | 862.9      | 863.99     |   3.7 | 52.18
Neigh   | 715.08     | 716.21     | 717.34     |   4.2 | 43.31
Comm    | 50.914     | 52.914     | 54.914     |  27.5 |  3.20
Output  | 0.032586   | 0.032616   | 0.032646   |   0.0 |  0.00
Modify  | 17.063     | 17.276     | 17.489     |   5.1 |  1.04
Other   |            | 4.433      |            |       |  0.27

Nlocal:    9826 ave 9827 max 9825 min
Histogram: 1 0 0 0 0 0 0 0 0 1
Nghost:    12356.5 ave 12375 max 12338 min
Histogram: 1 0 0 0 0 0 0 0 0 1
Neighs:    669568 ave 669576 max 669561 min
Histogram: 1 0 0 0 0 0 0 0 0 1

Total # of neighbors = 1339137
Ave neighs/atom = 68.1425
Neighbor list builds = 19505
Dangerous builds not checked
Setting up Verlet run ...
  Unit style    : metal
  Current step  : 860000
  Time step     : 0.001
Per MPI rank memory allocation (min/avg/max) = 11.35 | 11.35 | 11.35 Mbytes
Step Temp Press TotEng PotEng Enthalpy 
  860000    397.81724    16.949668   -87130.886   -88141.378    -87126.98 
  860495    377.50573   -58.520529   -87271.992   -88230.891   -87285.467 
Loop time of 41.452 on 2 procs for 495 steps with 19652 atoms

Performance: 1.032 ns/day, 23.261 hours/ns, 11.942 timesteps/s
99.6% CPU use with 2 MPI tasks x no OpenMP threads

MPI task timing breakdown:
Section |  min time  |  avg time  |  max time  |%varavg| %total
---------------------------------------------------------------
Pair    | 21.408     | 21.597     | 21.786     |   4.1 | 52.10
Neigh   | 18.012     | 18.021     | 18.03      |   0.2 | 43.47
Comm    | 1.1118     | 1.2927     | 1.4736     |  15.9 |  3.12
Output  | 9.5129e-05 | 0.00013757 | 0.00018001 |   0.0 |  0.00
Modify  | 0.42736    | 0.42895    | 0.43054    |   0.2 |  1.03
Other   |            | 0.1124     |            |       |  0.27

Nlocal:    9826 ave 9834 max 9818 min
Histogram: 1 0 0 0 0 0 0 0 0 1
Nghost:    12330 ave 12343 max 12317 min
Histogram: 1 0 0 0 0 0 0 0 0 1
Neighs:    669837 ave 670299 max 669375 min
Histogram: 1 0 0 0 0 0 0 0 0 1

Total # of neighbors = 1339674
Ave neighs/atom = 68.1699
Neighbor list builds = 495
Dangerous builds not checked
Setting up Verlet run ...
  Unit style    : metal
  Current step  : 860495
  Time step     : 0.001
Per MPI rank memory allocation (min/avg/max) = 11.35 | 11.35 | 11.35 Mbytes
Step Temp Press TotEng PotEng Enthalpy 
  860495    377.50573   -58.520529   -87271.992   -88230.891   -87285.467 
  880000    355.39802    620.45078    -87423.28   -88326.023   -87280.554 
Loop time of 1601.24 on 2 procs for 19505 steps with 19652 atoms

Performance: 1.052 ns/day, 22.804 hours/ns, 12.181 timesteps/s
98.9% CPU use with 2 MPI tasks x no OpenMP threads

MPI task timing breakdown:
Section |  min time  |  avg time  |  max time  |%varavg| %total
---------------------------------------------------------------
Pair    | 830.85     | 831.88     | 832.91     |   3.6 | 51.95
Neigh   | 689.86     | 690.08     | 690.3      |   0.8 | 43.10
Comm    | 56.769     | 57.578     | 58.387     |  10.7 |  3.60
Output  | 0.03679    | 0.036813   | 0.036837   |   0.0 |  0.00
Modify  | 17.414     | 17.416     | 17.419     |   0.1 |  1.09
Other   |            | 4.252      |            |       |  0.27

Nlocal:    9826 ave 9835 max 9817 min
Histogram: 1 0 0 0 0 0 0 0 0 1
Nghost:    12338 ave 12369 max 12307 min
Histogram: 1 0 0 0 0 0 0 0 0 1
Neighs:    670318 ave 671070 max 669565 min
Histogram: 1 0 0 0 0 0 0 0 0 1

Total # of neighbors = 1340635
Ave neighs/atom = 68.2188
Neighbor list builds = 19505
Dangerous builds not checked
Setting up Verlet run ...
  Unit style    : metal
  Current step  : 880000
  Time step     : 0.001
Per MPI rank memory allocation (min/avg/max) = 11.35 | 11.35 | 11.35 Mbytes
Step Temp Press TotEng PotEng Enthalpy 
  880000    355.39802    620.45078    -87423.28   -88326.023   -87280.554 
  880495    323.09651    46.529996    -87591.42   -88412.114   -87580.714 
Loop time of 40.9807 on 2 procs for 495 steps with 19652 atoms

Performance: 1.044 ns/day, 22.997 hours/ns, 12.079 timesteps/s
97.4% CPU use with 2 MPI tasks x no OpenMP threads

MPI task timing breakdown:
Section |  min time  |  avg time  |  max time  |%varavg| %total
---------------------------------------------------------------
Pair    | 20.878     | 20.957     | 21.036     |   1.7 | 51.14
Neigh   | 17.41      | 17.448     | 17.487     |   0.9 | 42.58
Comm    | 1.8463     | 1.8867     | 1.9271     |   2.9 |  4.60
Output  | 0.00019503 | 0.0002346  | 0.00027418 |   0.0 |  0.00
Modify  | 0.5811     | 0.5817     | 0.5823     |   0.1 |  1.42
Other   |            | 0.1065     |            |       |  0.26

Nlocal:    9826 ave 9828 max 9824 min
Histogram: 1 0 0 0 0 0 0 0 0 1
Nghost:    12333 ave 12362 max 12304 min
Histogram: 1 0 0 0 0 0 0 0 0 1
Neighs:    670225 ave 670640 max 669810 min
Histogram: 1 0 0 0 0 0 0 0 0 1

Total # of neighbors = 1340450
Ave neighs/atom = 68.2093
Neighbor list builds = 495
Dangerous builds not checked
Setting up Verlet run ...
  Unit style    : metal
  Current step  : 880495
  Time step     : 0.001
Per MPI rank memory allocation (min/avg/max) = 11.35 | 11.35 | 11.35 Mbytes
Step Temp Press TotEng PotEng Enthalpy 
  880495    323.09651    46.529996    -87591.42   -88412.114   -87580.714 
  900000    298.12392   -98.807556   -87755.751   -88513.013   -87778.461 
Loop time of 1622.49 on 2 procs for 19505 steps with 19652 atoms

Performance: 1.039 ns/day, 23.106 hours/ns, 12.022 timesteps/s
99.2% CPU use with 2 MPI tasks x no OpenMP threads

MPI task timing breakdown:
Section |  min time  |  avg time  |  max time  |%varavg| %total
---------------------------------------------------------------
Pair    | 847.46     | 849.23     | 850.99     |   6.1 | 52.34
Neigh   | 696.74     | 696.95     | 697.16     |   0.8 | 42.96
Comm    | 53.56      | 55.108     | 56.656     |  20.9 |  3.40
Output  | 0.039756   | 0.039813   | 0.03987    |   0.0 |  0.00
Modify  | 16.779     | 16.782     | 16.784     |   0.1 |  1.03
Other   |            | 4.385      |            |       |  0.27

Nlocal:    9826 ave 9828 max 9824 min
Histogram: 1 0 0 0 0 0 0 0 0 1
Nghost:    12340.5 ave 12371 max 12310 min
Histogram: 1 0 0 0 0 0 0 0 0 1
Neighs:    671002 ave 671545 max 670459 min
Histogram: 1 0 0 0 0 0 0 0 0 1

Total # of neighbors = 1342004
Ave neighs/atom = 68.2884
Neighbor list builds = 19505
Dangerous builds not checked
Setting up Verlet run ...
  Unit style    : metal
  Current step  : 900000
  Time step     : 0.001
Per MPI rank memory allocation (min/avg/max) = 11.35 | 11.35 | 11.35 Mbytes
Step Temp Press TotEng PotEng Enthalpy 
  900000    298.12392   -98.807556   -87755.751   -88513.013   -87778.461 
  900495    273.10493   -414.45166     -87897.2   -88590.911   -87992.427 
Loop time of 40.9458 on 2 procs for 495 steps with 19652 atoms

Performance: 1.045 ns/day, 22.977 hours/ns, 12.089 timesteps/s
99.2% CPU use with 2 MPI tasks x no OpenMP threads

MPI task timing breakdown:
Section |  min time  |  avg time  |  max time  |%varavg| %total
---------------------------------------------------------------
Pair    | 21.272     | 21.475     | 21.677     |   4.4 | 52.45
Neigh   | 17.529     | 17.657     | 17.785     |   3.0 | 43.12
Comm    | 1.1882     | 1.2616     | 1.335      |   6.5 |  3.08
Output  | 8.7023e-05 | 0.00017691 | 0.00026679 |   0.0 |  0.00
Modify  | 0.437      | 0.43724    | 0.43748    |   0.0 |  1.07
Other   |            | 0.1152     |            |       |  0.28

Nlocal:    9826 ave 9826 max 9826 min
Histogram: 2 0 0 0 0 0 0 0 0 0
Nghost:    12324.5 ave 12357 max 12292 min
Histogram: 1 0 0 0 0 0 0 0 0 1
Neighs:    671004 ave 671603 max 670404 min
Histogram: 1 0 0 0 0 0 0 0 0 1

Total # of neighbors = 1342007
Ave neighs/atom = 68.2886
Neighbor list builds = 495
Dangerous builds not checked
Setting up Verlet run ...
  Unit style    : metal
  Current step  : 900495
  Time step     : 0.001
Per MPI rank memory allocation (min/avg/max) = 11.35 | 11.35 | 11.35 Mbytes
Step Temp Press TotEng PotEng Enthalpy 
  900495    273.10493   -414.45166     -87897.2   -88590.911   -87992.427 
  920000    251.31923   -44.793784   -88034.441   -88672.815   -88044.726 
Loop time of 1609.81 on 2 procs for 19505 steps with 19652 atoms

Performance: 1.047 ns/day, 22.926 hours/ns, 12.116 timesteps/s
99.5% CPU use with 2 MPI tasks x no OpenMP threads

MPI task timing breakdown:
Section |  min time  |  avg time  |  max time  |%varavg| %total
---------------------------------------------------------------
Pair    | 839.16     | 841.33     | 843.5      |   7.5 | 52.26
Neigh   | 694.62     | 695.8      | 696.99     |   4.5 | 43.22
Comm    | 48.067     | 51.332     | 54.598     |  45.6 |  3.19
Output  | 0.036597   | 0.036634   | 0.036671   |   0.0 |  0.00
Modify  | 16.802     | 16.881     | 16.96      |   1.9 |  1.05
Other   |            | 4.427      |            |       |  0.28

Nlocal:    9826 ave 9835 max 9817 min
Histogram: 1 0 0 0 0 0 0 0 0 1
Nghost:    12356.5 ave 12376 max 12337 min
Histogram: 1 0 0 0 0 0 0 0 0 1
Neighs:    671314 ave 671849 max 670778 min
Histogram: 1 0 0 0 0 0 0 0 0 1

Total # of neighbors = 1342627
Ave neighs/atom = 68.3201
Neighbor list builds = 19505
Dangerous builds not checked
Setting up Verlet run ...
  Unit style    : metal
  Current step  : 920000
  Time step     : 0.001
Per MPI rank memory allocation (min/avg/max) = 11.35 | 11.35 | 11.35 Mbytes
Step Temp Press TotEng PotEng Enthalpy 
  920000    251.31923   -44.793784   -88034.441   -88672.815   -88044.726 
  920495    224.57532    260.02658   -88174.412   -88744.854   -88114.754 
Loop time of 46.6569 on 2 procs for 495 steps with 19652 atoms

Performance: 0.917 ns/day, 26.182 hours/ns, 10.609 timesteps/s
87.5% CPU use with 2 MPI tasks x no OpenMP threads

MPI task timing breakdown:
Section |  min time  |  avg time  |  max time  |%varavg| %total
---------------------------------------------------------------
Pair    | 21.308     | 21.437     | 21.567     |   2.8 | 45.95
Neigh   | 17.734     | 17.86      | 17.986     |   3.0 | 38.28
Comm    | 6.8108     | 6.8139     | 6.8169     |   0.1 | 14.60
Output  | 0.000175   | 0.00020599 | 0.00023699 |   0.0 |  0.00
Modify  | 0.43256    | 0.43329    | 0.43402    |   0.1 |  0.93
Other   |            | 0.1122     |            |       |  0.24

Nlocal:    9826 ave 9838 max 9814 min
Histogram: 1 0 0 0 0 0 0 0 0 1
Nghost:    12334.5 ave 12338 max 12331 min
Histogram: 1 0 0 0 0 0 0 0 0 1
Neighs:    671904 ave 673230 max 670577 min
Histogram: 1 0 0 0 0 0 0 0 0 1

Total # of neighbors = 1343807
Ave neighs/atom = 68.3802
Neighbor list builds = 495
Dangerous builds not checked
Setting up Verlet run ...
  Unit style    : metal
  Current step  : 920495
  Time step     : 0.001
Per MPI rank memory allocation (min/avg/max) = 11.35 | 11.35 | 11.35 Mbytes
Step Temp Press TotEng PotEng Enthalpy 
  920495    224.57532    260.02658   -88174.412   -88744.854   -88114.754 
  940000    199.19582   -157.89829   -88316.185   -88822.161   -88352.398 
Loop time of 1627.32 on 2 procs for 19505 steps with 19652 atoms

Performance: 1.036 ns/day, 23.175 hours/ns, 11.986 timesteps/s
99.0% CPU use with 2 MPI tasks x no OpenMP threads

MPI task timing breakdown:
Section |  min time  |  avg time  |  max time  |%varavg| %total
---------------------------------------------------------------
Pair    | 849.35     | 849.35     | 849.36     |   0.0 | 52.19
Neigh   | 699.88     | 701.43     | 702.99     |   5.9 | 43.10
Comm    | 53.256     | 54.871     | 56.486     |  21.8 |  3.37
Output  | 0.035926   | 0.035961   | 0.035997   |   0.0 |  0.00
Modify  | 17.031     | 17.08      | 17.128     |   1.2 |  1.05
Other   |            | 4.548      |            |       |  0.28

Nlocal:    9826 ave 9829 max 9823 min
Histogram: 1 0 0 0 0 0 0 0 0 1
Nghost:    12352 ave 12379 max 12325 min
Histogram: 1 0 0 0 0 0 0 0 0 1
Neighs:    672274 ave 672870 max 671679 min
Histogram: 1 0 0 0 0 0 0 0 0 1

Total # of neighbors = 1344549
Ave neighs/atom = 68.4179
Neighbor list builds = 19505
Dangerous builds not checked
Setting up Verlet run ...
  Unit style    : metal
  Current step  : 940000
  Time step     : 0.001
Per MPI rank memory allocation (min/avg/max) = 11.35 | 11.35 | 11.35 Mbytes
Step Temp Press TotEng PotEng Enthalpy 
  940000    199.19582   -157.89829   -88316.185   -88822.161   -88352.398 
  940495     175.0351    231.19702   -88443.226   -88887.831   -88390.262 
Loop time of 43.2159 on 2 procs for 495 steps with 19652 atoms

Performance: 0.990 ns/day, 24.251 hours/ns, 11.454 timesteps/s
96.0% CPU use with 2 MPI tasks x no OpenMP threads

MPI task timing breakdown:
Section |  min time  |  avg time  |  max time  |%varavg| %total
---------------------------------------------------------------
Pair    | 23.784     | 23.846     | 23.908     |   1.3 | 55.18
Neigh   | 17.381     | 17.427     | 17.473     |   1.1 | 40.33
Comm    | 1.296      | 1.4054     | 1.5149     |   9.2 |  3.25
Output  | 0.00019884 | 0.00023544 | 0.00027204 |   0.0 |  0.00
Modify  | 0.42522    | 0.42607    | 0.42691    |   0.1 |  0.99
Other   |            | 0.1113     |            |       |  0.26

Nlocal:    9826 ave 9831 max 9821 min
Histogram: 1 0 0 0 0 0 0 0 0 1
Nghost:    12368.5 ave 12385 max 12352 min
Histogram: 1 0 0 0 0 0 0 0 0 1
Neighs:    672808 ave 673339 max 672277 min
Histogram: 1 0 0 0 0 0 0 0 0 1

Total # of neighbors = 1345616
Ave neighs/atom = 68.4722
Neighbor list builds = 495
Dangerous builds not checked
Setting up Verlet run ...
  Unit style    : metal
  Current step  : 940495
  Time step     : 0.001
Per MPI rank memory allocation (min/avg/max) = 11.35 | 11.35 | 11.35 Mbytes
Step Temp Press TotEng PotEng Enthalpy 
  940495     175.0351    231.19702   -88443.226   -88887.831   -88390.262 
  960000    149.29965   -212.34128   -88585.489   -88964.724   -88634.112 
Loop time of 1601.18 on 2 procs for 19505 steps with 19652 atoms

Performance: 1.052 ns/day, 22.803 hours/ns, 12.182 timesteps/s
98.8% CPU use with 2 MPI tasks x no OpenMP threads

MPI task timing breakdown:
Section |  min time  |  avg time  |  max time  |%varavg| %total
---------------------------------------------------------------
Pair    | 834.87     | 835.73     | 836.59     |   3.0 | 52.19
Neigh   | 687.3      | 687.57     | 687.84     |   1.0 | 42.94
Comm    | 55.898     | 56.476     | 57.055     |   7.7 |  3.53
Output  | 0.036977   | 0.036996   | 0.037014   |   0.0 |  0.00
Modify  | 17.061     | 17.069     | 17.076     |   0.2 |  1.07
Other   |            | 4.295      |            |       |  0.27

Nlocal:    9826 ave 9828 max 9824 min
Histogram: 1 0 0 0 0 0 0 0 0 1
Nghost:    12367 ave 12401 max 12333 min
Histogram: 1 0 0 0 0 0 0 0 0 1
Neighs:    672868 ave 673250 max 672487 min
Histogram: 1 0 0 0 0 0 0 0 0 1

Total # of neighbors = 1345737
Ave neighs/atom = 68.4784
Neighbor list builds = 19505
Dangerous builds not checked
Setting up Verlet run ...
  Unit style    : metal
  Current step  : 960000
  Time step     : 0.001
Per MPI rank memory allocation (min/avg/max) = 11.35 | 11.35 | 11.35 Mbytes
Step Temp Press TotEng PotEng Enthalpy 
  960000    149.29965   -212.34128   -88585.489   -88964.724   -88634.112 
  960495     127.0083    44.783444   -88703.691   -89026.304   -88693.444 
Loop time of 40.1538 on 2 procs for 495 steps with 19652 atoms

Performance: 1.065 ns/day, 22.533 hours/ns, 12.328 timesteps/s
99.1% CPU use with 2 MPI tasks x no OpenMP threads

MPI task timing breakdown:
Section |  min time  |  avg time  |  max time  |%varavg| %total
---------------------------------------------------------------
Pair    | 21.079     | 21.123     | 21.166     |   1.0 | 52.60
Neigh   | 17.091     | 17.123     | 17.154     |   0.8 | 42.64
Comm    | 1.3698     | 1.3829     | 1.396      |   1.1 |  3.44
Output  | 9.5844e-05 | 0.00015342 | 0.000211   |   0.0 |  0.00
Modify  | 0.41637    | 0.41751    | 0.41865    |   0.2 |  1.04
Other   |            | 0.108      |            |       |  0.27

Nlocal:    9826 ave 9830 max 9822 min
Histogram: 1 0 0 0 0 0 0 0 0 1
Nghost:    12366.5 ave 12375 max 12358 min
Histogram: 1 0 0 0 0 0 0 0 0 1
Neighs:    673548 ave 673928 max 673169 min
Histogram: 1 0 0 0 0 0 0 0 0 1

Total # of neighbors = 1347097
Ave neighs/atom = 68.5476
Neighbor list builds = 495
Dangerous builds not checked
Setting up Verlet run ...
  Unit style    : metal
  Current step  : 960495
  Time step     : 0.001
Per MPI rank memory allocation (min/avg/max) = 11.35 | 11.35 | 11.35 Mbytes
Step Temp Press TotEng PotEng Enthalpy 
  960495     127.0083    44.783444   -88703.691   -89026.304   -88693.444 
  980000    99.465305   -158.16644   -88846.775   -89099.426   -88882.953 
Loop time of 1587.45 on 2 procs for 19505 steps with 19652 atoms

Performance: 1.062 ns/day, 22.607 hours/ns, 12.287 timesteps/s
99.2% CPU use with 2 MPI tasks x no OpenMP threads

MPI task timing breakdown:
Section |  min time  |  avg time  |  max time  |%varavg| %total
---------------------------------------------------------------
Pair    | 828.76     | 828.94     | 829.11     |   0.6 | 52.22
Neigh   | 686.53     | 687.37     | 688.21     |   3.2 | 43.30
Comm    | 49.365     | 49.809     | 50.252     |   6.3 |  3.14
Output  | 0.033986   | 0.034029   | 0.034072   |   0.0 |  0.00
Modify  | 16.782     | 17.007     | 17.232     |   5.5 |  1.07
Other   |            | 4.287      |            |       |  0.27

Nlocal:    9826 ave 9831 max 9821 min
Histogram: 1 0 0 0 0 0 0 0 0 1
Nghost:    12362.5 ave 12370 max 12355 min
Histogram: 1 0 0 0 0 0 0 0 0 1
Neighs:    673538 ave 674008 max 673068 min
Histogram: 1 0 0 0 0 0 0 0 0 1

Total # of neighbors = 1347076
Ave neighs/atom = 68.5465
Neighbor list builds = 19505
Dangerous builds not checked
Total wall time: 22:23:48
