LAMMPS (12 Dec 2018)
Lattice spacing in x,y,z = 4 4 4
Created orthogonal box = (0 0 0) to (68 68 68)
  1 by 1 by 2 MPI processor grid
Created 19652 atoms
  Time spent = 0.00889087 secs
Setting atom values ...
  0 settings made for type/fraction
Neighbor list info ...
  update every 1 steps, delay 0 steps, check no
  max neighbors/atom: 2000, page size: 100000
  master list distance cutoff = 8.5
  ghost atom cutoff = 8.5
  binsize = 4.25, bins = 16 16 16
  1 neighbor lists, perpetual/occasional/extra = 1 0 0
  (1) pair eam/alloy, perpetual
      attributes: half, newton on
      pair build: half/bin/atomonly/newton
      stencil: half/bin/3d/newton
      bin: standard
Setting up Verlet run ...
  Unit style    : metal
  Current step  : 0
  Time step     : 0.001
Per MPI rank memory allocation (min/avg/max) = 11.15 | 11.15 | 11.15 Mbytes
Step Temp Press TotEng PotEng Enthalpy 
       0          300    270988.05   -20809.105   -21571.132    32373.122 
    1000    146.30006    268929.19   -20808.867   -21180.483    31969.302 
Loop time of 99.949 on 2 procs for 1000 steps with 19652 atoms

Performance: 0.864 ns/day, 27.764 hours/ns, 10.005 timesteps/s
96.1% CPU use with 2 MPI tasks x no OpenMP threads

MPI task timing breakdown:
Section |  min time  |  avg time  |  max time  |%varavg| %total
---------------------------------------------------------------
Pair    | 57.58      | 57.58      | 57.581     |   0.0 | 57.61
Neigh   | 36.734     | 37.664     | 38.595     |  15.2 | 37.68
Comm    | 3.2879     | 4.231      | 5.1741     |  45.9 |  4.23
Output  | 0.00017905 | 0.00024807 | 0.0003171  |   0.0 |  0.00
Modify  | 0.22936    | 0.23779    | 0.24621    |   1.7 |  0.24
Other   |            | 0.2355     |            |       |  0.24

Nlocal:    9826 ave 9828 max 9824 min
Histogram: 1 0 0 0 0 0 0 0 0 1
Nghost:    14211 ave 14213 max 14209 min
Histogram: 1 0 0 0 0 0 0 0 0 1
Neighs:    786678 ave 786726 max 786630 min
Histogram: 1 0 0 0 0 0 0 0 0 1

Total # of neighbors = 1573356
Ave neighs/atom = 80.0609
Neighbor list builds = 1000
Dangerous builds not checked
Setting up Verlet run ...
  Unit style    : metal
  Current step  : 1000
  Time step     : 0.001
Per MPI rank memory allocation (min/avg/max) = 11.15 | 11.15 | 11.15 Mbytes
Step Temp Press TotEng PotEng Enthalpy 
    1000    146.30006    268929.19   -20808.867   -21180.483    31969.302 
    2000     257.5869    312.13925    -28438.05   -29092.345   -28349.305 
Loop time of 84.4294 on 2 procs for 1000 steps with 19652 atoms

Performance: 1.023 ns/day, 23.453 hours/ns, 11.844 timesteps/s
97.5% CPU use with 2 MPI tasks x no OpenMP threads

MPI task timing breakdown:
Section |  min time  |  avg time  |  max time  |%varavg| %total
---------------------------------------------------------------
Pair    | 45.044     | 45.425     | 45.807     |   5.7 | 53.80
Neigh   | 34.504     | 35.185     | 35.865     |  11.5 | 41.67
Comm    | 2.3523     | 2.6804     | 3.0085     |  20.0 |  3.17
Output  | 8.1778e-05 | 0.00013685 | 0.00019193 |   0.0 |  0.00
Modify  | 0.87408    | 0.89953    | 0.92497    |   2.7 |  1.07
Other   |            | 0.2396     |            |       |  0.28

Nlocal:    9826 ave 9838 max 9814 min
Histogram: 1 0 0 0 0 0 0 0 0 1
Nghost:    10346 ave 10358 max 10334 min
Histogram: 1 0 0 0 0 0 0 0 0 1
Neighs:    557484 ave 557814 max 557155 min
Histogram: 1 0 0 0 0 0 0 0 0 1

Total # of neighbors = 1114969
Ave neighs/atom = 56.7357
Neighbor list builds = 1000
Dangerous builds not checked
Setting up Verlet run ...
  Unit style    : metal
  Current step  : 2000
  Time step     : 0.001
Per MPI rank memory allocation (min/avg/max) = 11.15 | 11.15 | 11.15 Mbytes
Step Temp Press TotEng PotEng Enthalpy 
    2000     257.5869    312.13925    -28438.05   -29092.345   -28349.305 
   10000    2428.5094    284.66701   -13499.396   -19668.031   -13378.988 
Loop time of 587.985 on 2 procs for 8000 steps with 19652 atoms

Performance: 1.176 ns/day, 20.416 hours/ns, 13.606 timesteps/s
94.7% CPU use with 2 MPI tasks x no OpenMP threads

MPI task timing breakdown:
Section |  min time  |  avg time  |  max time  |%varavg| %total
---------------------------------------------------------------
Pair    | 308.81     | 309.14     | 309.46     |   1.9 | 52.58
Neigh   | 235.23     | 236.15     | 237.08     |   6.0 | 40.16
Comm    | 32.287     | 32.494     | 32.702     |   3.6 |  5.53
Output  | 0.05298    | 0.053011   | 0.053043   |   0.0 |  0.01
Modify  | 7.8988     | 8.2788     | 8.6589     |  13.2 |  1.41
Other   |            | 1.869      |            |       |  0.32

Nlocal:    9826 ave 9865 max 9787 min
Histogram: 1 0 0 0 0 0 0 0 0 1
Nghost:    9626 ave 9692 max 9560 min
Histogram: 1 0 0 0 0 0 0 0 0 1
Neighs:    362456 ave 364612 max 360299 min
Histogram: 1 0 0 0 0 0 0 0 0 1

Total # of neighbors = 724911
Ave neighs/atom = 36.8874
Neighbor list builds = 8000
Dangerous builds not checked
Setting up Verlet run ...
  Unit style    : metal
  Current step  : 10000
  Time step     : 0.001
Per MPI rank memory allocation (min/avg/max) = 11.2 | 11.2 | 11.2 Mbytes
Step Temp Press TotEng PotEng Enthalpy 
   10000    2428.5094    284.66701   -13499.396   -19668.031   -13378.988 
   20000    2442.4246   -369.25948   -13155.658   -19359.639   -13315.573 
   30000    2445.5925   -211.55729   -13361.687   -19573.714   -13452.115 
   40000     2456.665   -116.57071   -13238.846       -19479   -13288.949 
Loop time of 1873.6 on 2 procs for 30000 steps with 19652 atoms

Performance: 1.383 ns/day, 17.348 hours/ns, 16.012 timesteps/s
96.7% CPU use with 2 MPI tasks x no OpenMP threads

MPI task timing breakdown:
Section |  min time  |  avg time  |  max time  |%varavg| %total
---------------------------------------------------------------
Pair    | 945.6      | 946.49     | 947.37     |   2.9 | 50.52
Neigh   | 808.23     | 813.33     | 818.43     |  17.9 | 43.41
Comm    | 71.386     | 77.426     | 83.466     |  68.6 |  4.13
Output  | 0.10618    | 0.1063     | 0.10642    |   0.0 |  0.01
Modify  | 29.633     | 29.706     | 29.78      |   1.3 |  1.59
Other   |            | 6.542      |            |       |  0.35

Nlocal:    9826 ave 9849 max 9803 min
Histogram: 1 0 0 0 0 0 0 0 0 1
Nghost:    9536.5 ave 9540 max 9533 min
Histogram: 1 0 0 0 0 0 0 0 0 1
Neighs:    356648 ave 357723 max 355574 min
Histogram: 1 0 0 0 0 0 0 0 0 1

Total # of neighbors = 713297
Ave neighs/atom = 36.2964
Neighbor list builds = 30000
Dangerous builds not checked
Setting up Verlet run ...
  Unit style    : metal
  Current step  : 40000
  Time step     : 0.001
Per MPI rank memory allocation (min/avg/max) = 11.29 | 11.29 | 11.29 Mbytes
Step Temp Press TotEng PotEng Enthalpy 
   40000     2456.665   -116.57071   -13238.846       -19479   -13288.949 
   40495    2409.6497    260.41825   -13408.226   -19528.956    -13296.95 
Loop time of 30.0929 on 2 procs for 495 steps with 19652 atoms

Performance: 1.421 ns/day, 16.887 hours/ns, 16.449 timesteps/s
94.9% CPU use with 2 MPI tasks x no OpenMP threads

MPI task timing breakdown:
Section |  min time  |  avg time  |  max time  |%varavg| %total
---------------------------------------------------------------
Pair    | 15.041     | 15.142     | 15.242     |   2.6 | 50.32
Neigh   | 13.069     | 13.102     | 13.136     |   0.9 | 43.54
Comm    | 1.1703     | 1.3033     | 1.4362     |  11.6 |  4.33
Output  | 9.2983e-05 | 0.00011396 | 0.00013494 |   0.0 |  0.00
Modify  | 0.42735    | 0.43074    | 0.43412    |   0.5 |  1.43
Other   |            | 0.1148     |            |       |  0.38

Nlocal:    9826 ave 9831 max 9821 min
Histogram: 1 0 0 0 0 0 0 0 0 1
Nghost:    9534 ave 9568 max 9500 min
Histogram: 1 0 0 0 0 0 0 0 0 1
Neighs:    358816 ave 358910 max 358723 min
Histogram: 1 0 0 0 0 0 0 0 0 1

Total # of neighbors = 717633
Ave neighs/atom = 36.517
Neighbor list builds = 495
Dangerous builds not checked
Setting up Verlet run ...
  Unit style    : metal
  Current step  : 40495
  Time step     : 0.001
Per MPI rank memory allocation (min/avg/max) = 11.29 | 11.29 | 11.29 Mbytes
Step Temp Press TotEng PotEng Enthalpy 
   40495    2409.6497    260.41825   -13408.226   -19528.956    -13296.95 
   50000     2431.782   -164.04635   -13560.485   -19737.433   -13629.588 
Loop time of 617.471 on 2 procs for 9505 steps with 19652 atoms

Performance: 1.330 ns/day, 18.045 hours/ns, 15.393 timesteps/s
94.0% CPU use with 2 MPI tasks x no OpenMP threads

MPI task timing breakdown:
Section |  min time  |  avg time  |  max time  |%varavg| %total
---------------------------------------------------------------
Pair    | 314.94     | 315.11     | 315.28     |   1.0 | 51.03
Neigh   | 261.97     | 263.36     | 264.75     |   8.6 | 42.65
Comm    | 26.325     | 27.928     | 29.531     |  30.3 |  4.52
Output  | 0.035928   | 0.035946   | 0.035964   |   0.0 |  0.01
Modify  | 8.8222     | 8.8647     | 8.9072     |   1.4 |  1.44
Other   |            | 2.169      |            |       |  0.35

Nlocal:    9826 ave 9859 max 9793 min
Histogram: 1 0 0 0 0 0 0 0 0 1
Nghost:    9622.5 ave 9631 max 9614 min
Histogram: 1 0 0 0 0 0 0 0 0 1
Neighs:    363622 ave 365698 max 361546 min
Histogram: 1 0 0 0 0 0 0 0 0 1

Total # of neighbors = 727244
Ave neighs/atom = 37.0061
Neighbor list builds = 9505
Dangerous builds not checked
Setting up Verlet run ...
  Unit style    : metal
  Current step  : 50000
  Time step     : 0.001
Per MPI rank memory allocation (min/avg/max) = 11.3 | 11.3 | 11.3 Mbytes
Step Temp Press TotEng PotEng Enthalpy 
   50000     2431.782   -164.04635   -13560.485   -19737.433   -13629.588 
   50495    2356.8468   -103.80497   -13857.878   -19844.484   -13901.334 
Loop time of 28.6132 on 2 procs for 495 steps with 19652 atoms

Performance: 1.495 ns/day, 16.057 hours/ns, 17.300 timesteps/s
99.7% CPU use with 2 MPI tasks x no OpenMP threads

MPI task timing breakdown:
Section |  min time  |  avg time  |  max time  |%varavg| %total
---------------------------------------------------------------
Pair    | 14.201     | 14.495     | 14.79      |   7.7 | 50.66
Neigh   | 12.22      | 12.412     | 12.603     |   5.4 | 43.38
Comm    | 1.0825     | 1.1866     | 1.2907     |   9.6 |  4.15
Output  | 8.893e-05  | 0.00017941 | 0.00026989 |   0.0 |  0.00
Modify  | 0.41171    | 0.41183    | 0.41195    |   0.0 |  1.44
Other   |            | 0.1077     |            |       |  0.38

Nlocal:    9826 ave 9913 max 9739 min
Histogram: 1 0 0 0 0 0 0 0 0 1
Nghost:    9577 ave 9588 max 9566 min
Histogram: 1 0 0 0 0 0 0 0 0 1
Neighs:    366060 ave 372524 max 359595 min
Histogram: 1 0 0 0 0 0 0 0 0 1

Total # of neighbors = 732119
Ave neighs/atom = 37.2542
Neighbor list builds = 495
Dangerous builds not checked
Setting up Verlet run ...
  Unit style    : metal
  Current step  : 50495
  Time step     : 0.001
Per MPI rank memory allocation (min/avg/max) = 11.3 | 11.3 | 11.3 Mbytes
Step Temp Press TotEng PotEng Enthalpy 
   50495    2356.8468   -103.80497   -13857.878   -19844.484   -13901.334 
   60000    2350.3864    104.74164   -14032.971   -20003.167   -13989.628 
Loop time of 554.042 on 2 procs for 9505 steps with 19652 atoms

Performance: 1.482 ns/day, 16.192 hours/ns, 17.156 timesteps/s
99.7% CPU use with 2 MPI tasks x no OpenMP threads

MPI task timing breakdown:
Section |  min time  |  avg time  |  max time  |%varavg| %total
---------------------------------------------------------------
Pair    | 279.48     | 279.94     | 280.41     |   2.8 | 50.53
Neigh   | 242.16     | 242.97     | 243.78     |   5.2 | 43.85
Comm    | 19.577     | 20.873     | 22.169     |  28.4 |  3.77
Output  | 0.036332   | 0.036386   | 0.036439   |   0.0 |  0.01
Modify  | 8.2451     | 8.2565     | 8.2679     |   0.4 |  1.49
Other   |            | 1.961      |            |       |  0.35

Nlocal:    9826 ave 9829 max 9823 min
Histogram: 1 0 0 0 0 0 0 0 0 1
Nghost:    9714.5 ave 9720 max 9709 min
Histogram: 1 0 0 0 0 0 0 0 0 1
Neighs:    370254 ave 370841 max 369667 min
Histogram: 1 0 0 0 0 0 0 0 0 1

Total # of neighbors = 740508
Ave neighs/atom = 37.6811
Neighbor list builds = 9505
Dangerous builds not checked
Setting up Verlet run ...
  Unit style    : metal
  Current step  : 60000
  Time step     : 0.001
Per MPI rank memory allocation (min/avg/max) = 11.31 | 11.31 | 11.31 Mbytes
Step Temp Press TotEng PotEng Enthalpy 
   60000    2350.3864    104.74164   -14032.971   -20003.167   -13989.628 
   60495    2320.7781   -259.93578   -14247.473   -20142.461   -14354.629 
Loop time of 28.6089 on 2 procs for 495 steps with 19652 atoms

Performance: 1.495 ns/day, 16.054 hours/ns, 17.302 timesteps/s
99.8% CPU use with 2 MPI tasks x no OpenMP threads

MPI task timing breakdown:
Section |  min time  |  avg time  |  max time  |%varavg| %total
---------------------------------------------------------------
Pair    | 14.096     | 14.385     | 14.675     |   7.6 | 50.28
Neigh   | 12.411     | 12.531     | 12.652     |   3.4 | 43.80
Comm    | 0.75322    | 1.167      | 1.5807     |  38.3 |  4.08
Output  | 6.6996e-05 | 0.00010109 | 0.00013518 |   0.0 |  0.00
Modify  | 0.4162     | 0.41709    | 0.41797    |   0.1 |  1.46
Other   |            | 0.1079     |            |       |  0.38

Nlocal:    9826 ave 9833 max 9819 min
Histogram: 1 0 0 0 0 0 0 0 0 1
Nghost:    9658.5 ave 9662 max 9655 min
Histogram: 1 0 0 0 0 0 0 0 0 1
Neighs:    372025 ave 373221 max 370829 min
Histogram: 1 0 0 0 0 0 0 0 0 1

Total # of neighbors = 744050
Ave neighs/atom = 37.8613
Neighbor list builds = 495
Dangerous builds not checked
Setting up Verlet run ...
  Unit style    : metal
  Current step  : 60495
  Time step     : 0.001
Per MPI rank memory allocation (min/avg/max) = 11.31 | 11.31 | 11.31 Mbytes
Step Temp Press TotEng PotEng Enthalpy 
   60495    2320.7781   -259.93578   -14247.473   -20142.461   -14354.629 
   70000    2284.6851   -210.79414   -14359.374   -20162.683   -14446.022 
Loop time of 545.015 on 2 procs for 9505 steps with 19652 atoms

Performance: 1.507 ns/day, 15.928 hours/ns, 17.440 timesteps/s
99.5% CPU use with 2 MPI tasks x no OpenMP threads

MPI task timing breakdown:
Section |  min time  |  avg time  |  max time  |%varavg| %total
---------------------------------------------------------------
Pair    | 275.27     | 275.93     | 276.6      |   4.0 | 50.63
Neigh   | 235.8      | 236.96     | 238.11     |   7.5 | 43.48
Comm    | 22.143     | 22.656     | 23.169     |  10.8 |  4.16
Output  | 0.032425   | 0.032485   | 0.032544   |   0.0 |  0.01
Modify  | 7.5419     | 7.5604     | 7.5788     |   0.7 |  1.39
Other   |            | 1.875      |            |       |  0.34

Nlocal:    9826 ave 9844 max 9808 min
Histogram: 1 0 0 0 0 0 0 0 0 1
Nghost:    9692 ave 9725 max 9659 min
Histogram: 1 0 0 0 0 0 0 0 0 1
Neighs:    372754 ave 374347 max 371161 min
Histogram: 1 0 0 0 0 0 0 0 0 1

Total # of neighbors = 745508
Ave neighs/atom = 37.9355
Neighbor list builds = 9505
Dangerous builds not checked
Setting up Verlet run ...
  Unit style    : metal
  Current step  : 70000
  Time step     : 0.001
Per MPI rank memory allocation (min/avg/max) = 11.32 | 11.32 | 11.32 Mbytes
Step Temp Press TotEng PotEng Enthalpy 
   70000    2284.6851   -210.79414   -14359.374   -20162.683   -14446.022 
   70495    2264.3974   -58.618678   -14564.354   -20316.129   -14588.208 
Loop time of 27.4334 on 2 procs for 495 steps with 19652 atoms

Performance: 1.559 ns/day, 15.395 hours/ns, 18.044 timesteps/s
99.9% CPU use with 2 MPI tasks x no OpenMP threads

MPI task timing breakdown:
Section |  min time  |  avg time  |  max time  |%varavg| %total
---------------------------------------------------------------
Pair    | 13.796     | 13.828     | 13.861     |   0.9 | 50.41
Neigh   | 11.623     | 11.949     | 12.276     |   9.5 | 43.56
Comm    | 0.79882    | 1.168      | 1.5372     |  34.2 |  4.26
Output  | 9.6798e-05 | 0.00012243 | 0.00014806 |   0.0 |  0.00
Modify  | 0.38351    | 0.39024    | 0.39697    |   1.1 |  1.42
Other   |            | 0.09748    |            |       |  0.36

Nlocal:    9826 ave 9837 max 9815 min
Histogram: 1 0 0 0 0 0 0 0 0 1
Nghost:    9735 ave 9756 max 9714 min
Histogram: 1 0 0 0 0 0 0 0 0 1
Neighs:    376281 ave 378304 max 374258 min
Histogram: 1 0 0 0 0 0 0 0 0 1

Total # of neighbors = 752562
Ave neighs/atom = 38.2944
Neighbor list builds = 495
Dangerous builds not checked
Setting up Verlet run ...
  Unit style    : metal
  Current step  : 70495
  Time step     : 0.001
Per MPI rank memory allocation (min/avg/max) = 11.32 | 11.32 | 11.32 Mbytes
Step Temp Press TotEng PotEng Enthalpy 
   70495    2264.3974   -58.618678   -14564.354   -20316.129   -14588.208 
   80000    2239.9949   -27.249718   -14809.404   -20499.195   -14820.327 
Loop time of 554.708 on 2 procs for 9505 steps with 19652 atoms

Performance: 1.480 ns/day, 16.211 hours/ns, 17.135 timesteps/s
98.4% CPU use with 2 MPI tasks x no OpenMP threads

MPI task timing breakdown:
Section |  min time  |  avg time  |  max time  |%varavg| %total
---------------------------------------------------------------
Pair    | 283.35     | 283.52     | 283.69     |   1.0 | 51.11
Neigh   | 235.94     | 237.41     | 238.89     |   9.6 | 42.80
Comm    | 22.75      | 24.424     | 26.099     |  33.9 |  4.40
Output  | 0.035902   | 0.035931   | 0.03596    |   0.0 |  0.01
Modify  | 7.4289     | 7.4504     | 7.4718     |   0.8 |  1.34
Other   |            | 1.865      |            |       |  0.34

Nlocal:    9826 ave 9847 max 9805 min
Histogram: 1 0 0 0 0 0 0 0 0 1
Nghost:    9809.5 ave 9830 max 9789 min
Histogram: 1 0 0 0 0 0 0 0 0 1
Neighs:    382217 ave 383258 max 381176 min
Histogram: 1 0 0 0 0 0 0 0 0 1

Total # of neighbors = 764434
Ave neighs/atom = 38.8985
Neighbor list builds = 9505
Dangerous builds not checked
Setting up Verlet run ...
  Unit style    : metal
  Current step  : 80000
  Time step     : 0.001
Per MPI rank memory allocation (min/avg/max) = 11.33 | 11.33 | 11.33 Mbytes
Step Temp Press TotEng PotEng Enthalpy 
   80000    2239.9949   -27.249718   -14809.404   -20499.195   -14820.327 
   80495    2205.8815   -435.44422   -14950.974   -20554.114   -15126.209 
Loop time of 27.3021 on 2 procs for 495 steps with 19652 atoms

Performance: 1.566 ns/day, 15.321 hours/ns, 18.130 timesteps/s
99.9% CPU use with 2 MPI tasks x no OpenMP threads

MPI task timing breakdown:
Section |  min time  |  avg time  |  max time  |%varavg| %total
---------------------------------------------------------------
Pair    | 13.687     | 13.718     | 13.75      |   0.9 | 50.25
Neigh   | 11.896     | 11.955     | 12.015     |   1.7 | 43.79
Comm    | 1.0519     | 1.147      | 1.2421     |   8.9 |  4.20
Output  | 0.000108   | 0.00015402 | 0.00020003 |   0.0 |  0.00
Modify  | 0.38209    | 0.38476    | 0.38743    |   0.4 |  1.41
Other   |            | 0.09637    |            |       |  0.35

Nlocal:    9826 ave 9833 max 9819 min
Histogram: 1 0 0 0 0 0 0 0 0 1
Nghost:    9787.5 ave 9808 max 9767 min
Histogram: 1 0 0 0 0 0 0 0 0 1
Neighs:    381057 ave 381438 max 380676 min
Histogram: 1 0 0 0 0 0 0 0 0 1

Total # of neighbors = 762114
Ave neighs/atom = 38.7805
Neighbor list builds = 495
Dangerous builds not checked
Setting up Verlet run ...
  Unit style    : metal
  Current step  : 80495
  Time step     : 0.001
Per MPI rank memory allocation (min/avg/max) = 11.33 | 11.33 | 11.33 Mbytes
Step Temp Press TotEng PotEng Enthalpy 
   80495    2205.8815   -435.44422   -14950.974   -20554.114   -15126.209 
   90000    2188.3129    318.30537   -15039.286     -20597.8   -14912.592 
Loop time of 553.462 on 2 procs for 9505 steps with 19652 atoms

Performance: 1.484 ns/day, 16.175 hours/ns, 17.174 timesteps/s
99.2% CPU use with 2 MPI tasks x no OpenMP threads

MPI task timing breakdown:
Section |  min time  |  avg time  |  max time  |%varavg| %total
---------------------------------------------------------------
Pair    | 279.47     | 280.82     | 282.17     |   8.1 | 50.74
Neigh   | 236.09     | 236.68     | 237.28     |   3.8 | 42.76
Comm    | 25.898     | 26.632     | 27.366     |  14.2 |  4.81
Output  | 0.034724   | 0.034737   | 0.03475    |   0.0 |  0.01
Modify  | 7.4034     | 7.423      | 7.4427     |   0.7 |  1.34
Other   |            | 1.868      |            |       |  0.34

Nlocal:    9826 ave 9834 max 9818 min
Histogram: 1 0 0 0 0 0 0 0 0 1
Nghost:    9808.5 ave 9848 max 9769 min
Histogram: 1 0 0 0 0 0 0 0 0 1
Neighs:    384882 ave 385292 max 384473 min
Histogram: 1 0 0 0 0 0 0 0 0 1

Total # of neighbors = 769765
Ave neighs/atom = 39.1698
Neighbor list builds = 9505
Dangerous builds not checked
Setting up Verlet run ...
  Unit style    : metal
  Current step  : 90000
  Time step     : 0.001
Per MPI rank memory allocation (min/avg/max) = 11.33 | 11.33 | 11.33 Mbytes
Step Temp Press TotEng PotEng Enthalpy 
   90000    2188.3129    318.30537   -15039.286     -20597.8   -14912.592 
   90495    2156.6817   -186.75133   -15283.791   -20761.959   -15357.733 
Loop time of 27.885 on 2 procs for 495 steps with 19652 atoms

Performance: 1.534 ns/day, 15.648 hours/ns, 17.751 timesteps/s
98.8% CPU use with 2 MPI tasks x no OpenMP threads

MPI task timing breakdown:
Section |  min time  |  avg time  |  max time  |%varavg| %total
---------------------------------------------------------------
Pair    | 13.903     | 13.95      | 13.997     |   1.3 | 50.03
Neigh   | 11.925     | 12.002     | 12.079     |   2.2 | 43.04
Comm    | 1.4216     | 1.452      | 1.4824     |   2.5 |  5.21
Output  | 8.0109e-05 | 0.00010061 | 0.00012112 |   0.0 |  0.00
Modify  | 0.38474    | 0.38544    | 0.38615    |   0.1 |  1.38
Other   |            | 0.0957     |            |       |  0.34

Nlocal:    9826 ave 9866 max 9786 min
Histogram: 1 0 0 0 0 0 0 0 0 1
Nghost:    9883.5 ave 9944 max 9823 min
Histogram: 1 0 0 0 0 0 0 0 0 1
Neighs:    386637 ave 388684 max 384590 min
Histogram: 1 0 0 0 0 0 0 0 0 1

Total # of neighbors = 773274
Ave neighs/atom = 39.3484
Neighbor list builds = 495
Dangerous builds not checked
Setting up Verlet run ...
  Unit style    : metal
  Current step  : 90495
  Time step     : 0.001
Per MPI rank memory allocation (min/avg/max) = 11.33 | 11.33 | 11.33 Mbytes
Step Temp Press TotEng PotEng Enthalpy 
   90495    2156.6817   -186.75133   -15283.791   -20761.959   -15357.733 
  100000     2136.973   -168.16827   -15391.931   -20820.037    -15458.09 
Loop time of 555.429 on 2 procs for 9505 steps with 19652 atoms

Performance: 1.479 ns/day, 16.232 hours/ns, 17.113 timesteps/s
99.5% CPU use with 2 MPI tasks x no OpenMP threads

MPI task timing breakdown:
Section |  min time  |  avg time  |  max time  |%varavg| %total
---------------------------------------------------------------
Pair    | 284.9      | 285.4      | 285.89     |   2.9 | 51.38
Neigh   | 236.9      | 237        | 237.09     |   0.6 | 42.67
Comm    | 23.169     | 23.605     | 24.042     |   9.0 |  4.25
Output  | 0.036226   | 0.036249   | 0.036272   |   0.0 |  0.01
Modify  | 7.4967     | 7.5294     | 7.5622     |   1.2 |  1.36
Other   |            | 1.864      |            |       |  0.34

Nlocal:    9826 ave 9866 max 9786 min
Histogram: 1 0 0 0 0 0 0 0 0 1
Nghost:    9963 ave 10000 max 9926 min
Histogram: 1 0 0 0 0 0 0 0 0 1
Neighs:    389056 ave 392115 max 385997 min
Histogram: 1 0 0 0 0 0 0 0 0 1

Total # of neighbors = 778112
Ave neighs/atom = 39.5945
Neighbor list builds = 9505
Dangerous builds not checked
Setting up Verlet run ...
  Unit style    : metal
  Current step  : 100000
  Time step     : 0.001
Per MPI rank memory allocation (min/avg/max) = 11.34 | 11.34 | 11.34 Mbytes
Step Temp Press TotEng PotEng Enthalpy 
  100000     2136.973   -168.16827   -15391.931   -20820.037    -15458.09 
  100495    2101.8533    561.29517   -15646.119   -20985.018   -15427.345 
Loop time of 27.7361 on 2 procs for 495 steps with 19652 atoms

Performance: 1.542 ns/day, 15.565 hours/ns, 17.847 timesteps/s
99.9% CPU use with 2 MPI tasks x no OpenMP threads

MPI task timing breakdown:
Section |  min time  |  avg time  |  max time  |%varavg| %total
---------------------------------------------------------------
Pair    | 14.009     | 14.06      | 14.112     |   1.4 | 50.69
Neigh   | 12.199     | 12.231     | 12.262     |   0.9 | 44.10
Comm    | 0.94144    | 0.95777    | 0.9741     |   1.7 |  3.45
Output  | 6.6996e-05 | 0.0001055  | 0.000144   |   0.0 |  0.00
Modify  | 0.38623    | 0.38858    | 0.39093    |   0.4 |  1.40
Other   |            | 0.09851    |            |       |  0.36

Nlocal:    9826 ave 9876 max 9776 min
Histogram: 1 0 0 0 0 0 0 0 0 1
Nghost:    9978 ave 9999 max 9957 min
Histogram: 1 0 0 0 0 0 0 0 0 1
Neighs:    392997 ave 396970 max 389024 min
Histogram: 1 0 0 0 0 0 0 0 0 1

Total # of neighbors = 785994
Ave neighs/atom = 39.9956
Neighbor list builds = 495
Dangerous builds not checked
Setting up Verlet run ...
  Unit style    : metal
  Current step  : 100495
  Time step     : 0.001
Per MPI rank memory allocation (min/avg/max) = 11.34 | 11.34 | 11.34 Mbytes
Step Temp Press TotEng PotEng Enthalpy 
  100495    2101.8533    561.29517   -15646.119   -20985.018   -15427.345 
  110000    2109.9765    187.11304   -15693.696   -21053.228   -15620.896 
Loop time of 557.143 on 2 procs for 9505 steps with 19652 atoms

Performance: 1.474 ns/day, 16.282 hours/ns, 17.060 timesteps/s
99.5% CPU use with 2 MPI tasks x no OpenMP threads

MPI task timing breakdown:
Section |  min time  |  avg time  |  max time  |%varavg| %total
---------------------------------------------------------------
Pair    | 287.48     | 287.71     | 287.94     |   1.4 | 51.64
Neigh   | 235.59     | 237.27     | 238.96     |  10.9 | 42.59
Comm    | 21.316     | 22.811     | 24.305     |  31.3 |  4.09
Output  | 0.035701   | 0.035711   | 0.03572    |   0.0 |  0.01
Modify  | 7.413      | 7.4451     | 7.4771     |   1.2 |  1.34
Other   |            | 1.87       |            |       |  0.34

Nlocal:    9826 ave 9844 max 9808 min
Histogram: 1 0 0 0 0 0 0 0 0 1
Nghost:    9916 ave 9961 max 9871 min
Histogram: 1 0 0 0 0 0 0 0 0 1
Neighs:    393810 ave 395865 max 391754 min
Histogram: 1 0 0 0 0 0 0 0 0 1

Total # of neighbors = 787619
Ave neighs/atom = 40.0783
Neighbor list builds = 9505
Dangerous builds not checked
Setting up Verlet run ...
  Unit style    : metal
  Current step  : 110000
  Time step     : 0.001
Per MPI rank memory allocation (min/avg/max) = 11.34 | 11.34 | 11.34 Mbytes
Step Temp Press TotEng PotEng Enthalpy 
  110000    2109.9765    187.11304   -15693.696   -21053.228   -15620.896 
  110495    2077.7869    -116.3763   -15913.308   -21191.076   -15958.368 
Loop time of 27.2304 on 2 procs for 495 steps with 19652 atoms

Performance: 1.571 ns/day, 15.281 hours/ns, 18.178 timesteps/s
99.9% CPU use with 2 MPI tasks x no OpenMP threads

MPI task timing breakdown:
Section |  min time  |  avg time  |  max time  |%varavg| %total
---------------------------------------------------------------
Pair    | 13.826     | 13.885     | 13.945     |   1.6 | 50.99
Neigh   | 11.697     | 11.699     | 11.701     |   0.1 | 42.96
Comm    | 1.1125     | 1.1728     | 1.2331     |   5.6 |  4.31
Output  | 8.297e-05  | 0.00011659 | 0.0001502  |   0.0 |  0.00
Modify  | 0.37812    | 0.3792     | 0.38029    |   0.2 |  1.39
Other   |            | 0.09389    |            |       |  0.34

Nlocal:    9826 ave 9833 max 9819 min
Histogram: 1 0 0 0 0 0 0 0 0 1
Nghost:    9932.5 ave 9946 max 9919 min
Histogram: 1 0 0 0 0 0 0 0 0 1
Neighs:    395605 ave 395674 max 395536 min
Histogram: 1 0 0 0 0 0 0 0 0 1

Total # of neighbors = 791210
Ave neighs/atom = 40.261
Neighbor list builds = 495
Dangerous builds not checked
Setting up Verlet run ...
  Unit style    : metal
  Current step  : 110495
  Time step     : 0.001
Per MPI rank memory allocation (min/avg/max) = 11.34 | 11.34 | 11.34 Mbytes
Step Temp Press TotEng PotEng Enthalpy 
  110495    2077.7869    -116.3763   -15913.308   -21191.076   -15958.368 
  120000    2020.5989   -114.59154   -16200.782   -21333.287   -16244.674 
Loop time of 559.095 on 2 procs for 9505 steps with 19652 atoms

Performance: 1.469 ns/day, 16.339 hours/ns, 17.001 timesteps/s
99.9% CPU use with 2 MPI tasks x no OpenMP threads

MPI task timing breakdown:
Section |  min time  |  avg time  |  max time  |%varavg| %total
---------------------------------------------------------------
Pair    | 285.53     | 286.5      | 287.48     |   5.8 | 51.24
Neigh   | 239.52     | 240.25     | 240.97     |   4.7 | 42.97
Comm    | 22.926     | 23.143     | 23.36      |   4.5 |  4.14
Output  | 0.035385   | 0.03541    | 0.035436   |   0.0 |  0.01
Modify  | 7.3059     | 7.3291     | 7.3523     |   0.9 |  1.31
Other   |            | 1.837      |            |       |  0.33

Nlocal:    9826 ave 9842 max 9810 min
Histogram: 1 0 0 0 0 0 0 0 0 1
Nghost:    9904.5 ave 9924 max 9885 min
Histogram: 1 0 0 0 0 0 0 0 0 1
Neighs:    399838 ave 401643 max 398032 min
Histogram: 1 0 0 0 0 0 0 0 0 1

Total # of neighbors = 799675
Ave neighs/atom = 40.6918
Neighbor list builds = 9505
Dangerous builds not checked
Setting up Verlet run ...
  Unit style    : metal
  Current step  : 120000
  Time step     : 0.001
Per MPI rank memory allocation (min/avg/max) = 11.35 | 11.35 | 11.35 Mbytes
Step Temp Press TotEng PotEng Enthalpy 
  120000    2020.5989   -114.59154   -16200.782   -21333.287   -16244.674 
  120495    2010.0736   -439.43845   -16282.112   -21387.882   -16450.406 
Loop time of 29.0758 on 2 procs for 495 steps with 19652 atoms

Performance: 1.471 ns/day, 16.316 hours/ns, 17.024 timesteps/s
99.9% CPU use with 2 MPI tasks x no OpenMP threads

MPI task timing breakdown:
Section |  min time  |  avg time  |  max time  |%varavg| %total
---------------------------------------------------------------
Pair    | 14.374     | 14.593     | 14.812     |   5.7 | 50.19
Neigh   | 12.39      | 12.889     | 13.388     |  13.9 | 44.33
Comm    | 0.8146     | 1.1072     | 1.3998     |  27.8 |  3.81
Output  | 7.7963e-05 | 0.00011396 | 0.00014997 |   0.0 |  0.00
Modify  | 0.3799     | 0.38936    | 0.39882    |   1.5 |  1.34
Other   |            | 0.0976     |            |       |  0.34

Nlocal:    9826 ave 9826 max 9826 min
Histogram: 2 0 0 0 0 0 0 0 0 0
Nghost:    10006 ave 10019 max 9993 min
Histogram: 1 0 0 0 0 0 0 0 0 1
Neighs:    399678 ave 402278 max 397078 min
Histogram: 1 0 0 0 0 0 0 0 0 1

Total # of neighbors = 799356
Ave neighs/atom = 40.6756
Neighbor list builds = 495
Dangerous builds not checked
Setting up Verlet run ...
  Unit style    : metal
  Current step  : 120495
  Time step     : 0.001
Per MPI rank memory allocation (min/avg/max) = 11.35 | 11.35 | 11.35 Mbytes
Step Temp Press TotEng PotEng Enthalpy 
  120495    2010.0736   -439.43845   -16282.112   -21387.882   -16450.406 
  130000    2007.1176    315.50321   -16402.424   -21500.685   -16282.815 
Loop time of 581.284 on 2 procs for 9505 steps with 19652 atoms

Performance: 1.413 ns/day, 16.988 hours/ns, 16.352 timesteps/s
99.2% CPU use with 2 MPI tasks x no OpenMP threads

MPI task timing breakdown:
Section |  min time  |  avg time  |  max time  |%varavg| %total
---------------------------------------------------------------
Pair    | 291.03     | 291.96     | 292.89     |   5.4 | 50.23
Neigh   | 252.03     | 253.45     | 254.88     |   8.9 | 43.60
Comm    | 23.71      | 26.217     | 28.723     |  49.0 |  4.51
Output  | 0.035607   | 0.035614   | 0.03562    |   0.0 |  0.01
Modify  | 7.5965     | 7.7503     | 7.9042     |   5.5 |  1.33
Other   |            | 1.866      |            |       |  0.32

Nlocal:    9826 ave 9850 max 9802 min
Histogram: 1 0 0 0 0 0 0 0 0 1
Nghost:    9955 ave 9959 max 9951 min
Histogram: 1 0 0 0 0 0 0 0 0 1
Neighs:    404022 ave 409628 max 398417 min
Histogram: 1 0 0 0 0 0 0 0 0 1

Total # of neighbors = 808045
Ave neighs/atom = 41.1177
Neighbor list builds = 9505
Dangerous builds not checked
Setting up Verlet run ...
  Unit style    : metal
  Current step  : 130000
  Time step     : 0.001
Per MPI rank memory allocation (min/avg/max) = 11.35 | 11.35 | 11.35 Mbytes
Step Temp Press TotEng PotEng Enthalpy 
  130000    2007.1176    315.50321   -16402.424   -21500.685   -16282.815 
  130495    1957.1347   -190.78081   -16590.087   -21561.387   -16662.271 
Loop time of 29.5052 on 2 procs for 495 steps with 19652 atoms

Performance: 1.450 ns/day, 16.557 hours/ns, 16.777 timesteps/s
98.8% CPU use with 2 MPI tasks x no OpenMP threads

MPI task timing breakdown:
Section |  min time  |  avg time  |  max time  |%varavg| %total
---------------------------------------------------------------
Pair    | 14.745     | 14.865     | 14.986     |   3.1 | 50.38
Neigh   | 12.921     | 13.073     | 13.225     |   4.2 | 44.31
Comm    | 1.0342     | 1.072      | 1.1097     |   3.6 |  3.63
Output  | 7.2002e-05 | 0.00011051 | 0.00014901 |   0.0 |  0.00
Modify  | 0.39063    | 0.39612    | 0.4016     |   0.9 |  1.34
Other   |            | 0.0988     |            |       |  0.33

Nlocal:    9826 ave 9827 max 9825 min
Histogram: 1 0 0 0 0 0 0 0 0 1
Nghost:    10023.5 ave 10059 max 9988 min
Histogram: 1 0 0 0 0 0 0 0 0 1
Neighs:    404727 ave 408810 max 400644 min
Histogram: 1 0 0 0 0 0 0 0 0 1

Total # of neighbors = 809454
Ave neighs/atom = 41.1894
Neighbor list builds = 495
Dangerous builds not checked
Setting up Verlet run ...
  Unit style    : metal
  Current step  : 130495
  Time step     : 0.001
Per MPI rank memory allocation (min/avg/max) = 11.35 | 11.35 | 11.35 Mbytes
Step Temp Press TotEng PotEng Enthalpy 
  130495    1957.1347   -190.78081   -16590.087   -21561.387   -16662.271 
  140000    1938.1302    120.72518   -16763.055   -21686.082   -16717.729 
Loop time of 577.949 on 2 procs for 9505 steps with 19652 atoms

Performance: 1.421 ns/day, 16.890 hours/ns, 16.446 timesteps/s
99.9% CPU use with 2 MPI tasks x no OpenMP threads

MPI task timing breakdown:
Section |  min time  |  avg time  |  max time  |%varavg| %total
---------------------------------------------------------------
Pair    | 290.07     | 292.62     | 295.16     |  14.9 | 50.63
Neigh   | 252        | 252.02     | 252.03     |   0.1 | 43.61
Comm    | 21.518     | 24.044     | 26.57      |  51.5 |  4.16
Output  | 0.03671    | 0.036728   | 0.036745   |   0.0 |  0.01
Modify  | 7.3788     | 7.379      | 7.3793     |   0.0 |  1.28
Other   |            | 1.855      |            |       |  0.32

Nlocal:    9826 ave 9868 max 9784 min
Histogram: 1 0 0 0 0 0 0 0 0 1
Nghost:    10041 ave 10064 max 10018 min
Histogram: 1 0 0 0 0 0 0 0 0 1
Neighs:    408021 ave 408854 max 407188 min
Histogram: 1 0 0 0 0 0 0 0 0 1

Total # of neighbors = 816042
Ave neighs/atom = 41.5246
Neighbor list builds = 9505
Dangerous builds not checked
Setting up Verlet run ...
  Unit style    : metal
  Current step  : 140000
  Time step     : 0.001
Per MPI rank memory allocation (min/avg/max) = 11.35 | 11.35 | 11.36 Mbytes
Step Temp Press TotEng PotEng Enthalpy 
  140000    1938.1302    120.72518   -16763.055   -21686.082   -16717.729 
  140495     1912.717   -277.57589   -16935.921   -21794.396   -17039.784 
Loop time of 29.712 on 2 procs for 495 steps with 19652 atoms

Performance: 1.439 ns/day, 16.673 hours/ns, 16.660 timesteps/s
98.7% CPU use with 2 MPI tasks x no OpenMP threads

MPI task timing breakdown:
Section |  min time  |  avg time  |  max time  |%varavg| %total
---------------------------------------------------------------
Pair    | 14.633     | 14.735     | 14.837     |   2.7 | 49.59
Neigh   | 12.499     | 12.782     | 13.066     |   7.9 | 43.02
Comm    | 0.82264    | 1.2154     | 1.6082     |  35.6 |  4.09
Output  | 8.297e-05  | 0.00011599 | 0.00014901 |   0.0 |  0.00
Modify  | 0.87613    | 0.88184    | 0.88755    |   0.6 |  2.97
Other   |            | 0.09737    |            |       |  0.33

Nlocal:    9826 ave 9828 max 9824 min
Histogram: 1 0 0 0 0 0 0 0 0 1
Nghost:    10033.5 ave 10091 max 9976 min
Histogram: 1 0 0 0 0 0 0 0 0 1
Neighs:    409219 ave 413789 max 404649 min
Histogram: 1 0 0 0 0 0 0 0 0 1

Total # of neighbors = 818438
Ave neighs/atom = 41.6465
Neighbor list builds = 495
Dangerous builds not checked
Setting up Verlet run ...
  Unit style    : metal
  Current step  : 140495
  Time step     : 0.001
Per MPI rank memory allocation (min/avg/max) = 11.35 | 11.35 | 11.36 Mbytes
Step Temp Press TotEng PotEng Enthalpy 
  140495     1912.717   -277.57589   -16935.921   -21794.396   -17039.784 
  150000    1913.9428   -486.22258    -16988.24   -21849.829   -17169.772 
Loop time of 587.451 on 2 procs for 9505 steps with 19652 atoms

Performance: 1.398 ns/day, 17.168 hours/ns, 16.180 timesteps/s
99.1% CPU use with 2 MPI tasks x no OpenMP threads

MPI task timing breakdown:
Section |  min time  |  avg time  |  max time  |%varavg| %total
---------------------------------------------------------------
Pair    | 296.47     | 297.43     | 298.39     |   5.6 | 50.63
Neigh   | 252.95     | 253.44     | 253.94     |   3.1 | 43.14
Comm    | 26.064     | 26.494     | 26.924     |   8.4 |  4.51
Output  | 0.035264   | 0.035279   | 0.035294   |   0.0 |  0.01
Modify  | 8.1575     | 8.1794     | 8.2013     |   0.8 |  1.39
Other   |            | 1.867      |            |       |  0.32

Nlocal:    9826 ave 9828 max 9824 min
Histogram: 1 0 0 0 0 0 0 0 0 1
Nghost:    10086 ave 10113 max 10059 min
Histogram: 1 0 0 0 0 0 0 0 0 1
Neighs:    410160 ave 413527 max 406792 min
Histogram: 1 0 0 0 0 0 0 0 0 1

Total # of neighbors = 820319
Ave neighs/atom = 41.7423
Neighbor list builds = 9505
Dangerous builds not checked
Setting up Verlet run ...
  Unit style    : metal
  Current step  : 150000
  Time step     : 0.001
Per MPI rank memory allocation (min/avg/max) = 11.35 | 11.36 | 11.36 Mbytes
Step Temp Press TotEng PotEng Enthalpy 
  150000    1913.9428   -486.22258    -16988.24   -21849.829   -17169.772 
  150495    1871.8109   -86.589821   -17234.444   -21989.014   -17266.506 
Loop time of 29.6138 on 2 procs for 495 steps with 19652 atoms

Performance: 1.444 ns/day, 16.618 hours/ns, 16.715 timesteps/s
99.4% CPU use with 2 MPI tasks x no OpenMP threads

MPI task timing breakdown:
Section |  min time  |  avg time  |  max time  |%varavg| %total
---------------------------------------------------------------
Pair    | 14.669     | 14.886     | 15.104     |   5.6 | 50.27
Neigh   | 12.63      | 12.876     | 13.122     |   6.9 | 43.48
Comm    | 1.3254     | 1.3608     | 1.3962     |   3.0 |  4.60
Output  | 9.8944e-05 | 0.00013292 | 0.00016689 |   0.0 |  0.00
Modify  | 0.38772    | 0.39216    | 0.3966     |   0.7 |  1.32
Other   |            | 0.09858    |            |       |  0.33

Nlocal:    9826 ave 9858 max 9794 min
Histogram: 1 0 0 0 0 0 0 0 0 1
Nghost:    10114.5 ave 10122 max 10107 min
Histogram: 1 0 0 0 0 0 0 0 0 1
Neighs:    413708 ave 415600 max 411815 min
Histogram: 1 0 0 0 0 0 0 0 0 1

Total # of neighbors = 827415
Ave neighs/atom = 42.1033
Neighbor list builds = 495
Dangerous builds not checked
Setting up Verlet run ...
  Unit style    : metal
  Current step  : 150495
  Time step     : 0.001
Per MPI rank memory allocation (min/avg/max) = 11.35 | 11.36 | 11.36 Mbytes
Step Temp Press TotEng PotEng Enthalpy 
  150495    1871.8109   -86.589821   -17234.444   -21989.014   -17266.506 
  160000    1844.1144   -503.58061   -17404.637   -22088.856   -17590.692 
Loop time of 592.961 on 2 procs for 9505 steps with 19652 atoms

Performance: 1.385 ns/day, 17.329 hours/ns, 16.030 timesteps/s
98.8% CPU use with 2 MPI tasks x no OpenMP threads

MPI task timing breakdown:
Section |  min time  |  avg time  |  max time  |%varavg| %total
---------------------------------------------------------------
Pair    | 299.26     | 300.91     | 302.56     |   9.5 | 50.75
Neigh   | 253.28     | 253.4      | 253.52     |   0.8 | 42.73
Comm    | 26.873     | 28.383     | 29.892     |  28.3 |  4.79
Output  | 0.042506   | 0.042533   | 0.042559   |   0.0 |  0.01
Modify  | 8.3621     | 8.3699     | 8.3777     |   0.3 |  1.41
Other   |            | 1.856      |            |       |  0.31

Nlocal:    9826 ave 9862 max 9790 min
Histogram: 1 0 0 0 0 0 0 0 0 1
Nghost:    10125 ave 10141 max 10109 min
Histogram: 1 0 0 0 0 0 0 0 0 1
Neighs:    414519 ave 419748 max 409290 min
Histogram: 1 0 0 0 0 0 0 0 0 1

Total # of neighbors = 829038
Ave neighs/atom = 42.1859
Neighbor list builds = 9505
Dangerous builds not checked
Setting up Verlet run ...
  Unit style    : metal
  Current step  : 160000
  Time step     : 0.001
Per MPI rank memory allocation (min/avg/max) = 11.36 | 11.36 | 11.36 Mbytes
Step Temp Press TotEng PotEng Enthalpy 
  160000    1844.1144   -503.58061   -17404.637   -22088.856   -17590.692 
  160495    1806.1238   -438.39617   -17536.783   -22124.502   -17698.172 
Loop time of 30.1883 on 2 procs for 495 steps with 19652 atoms

Performance: 1.417 ns/day, 16.941 hours/ns, 16.397 timesteps/s
99.3% CPU use with 2 MPI tasks x no OpenMP threads

MPI task timing breakdown:
Section |  min time  |  avg time  |  max time  |%varavg| %total
---------------------------------------------------------------
Pair    | 15.128     | 15.262     | 15.396     |   3.4 | 50.55
Neigh   | 13.1       | 13.125     | 13.149     |   0.7 | 43.48
Comm    | 1.1986     | 1.3087     | 1.4188     |   9.6 |  4.34
Output  | 9.5129e-05 | 0.00011611 | 0.00013709 |   0.0 |  0.00
Modify  | 0.39359    | 0.39361    | 0.39362    |   0.0 |  1.30
Other   |            | 0.09947    |            |       |  0.33

Nlocal:    9826 ave 9834 max 9818 min
Histogram: 1 0 0 0 0 0 0 0 0 1
Nghost:    10127 ave 10162 max 10092 min
Histogram: 1 0 0 0 0 0 0 0 0 1
Neighs:    415995 ave 418664 max 413326 min
Histogram: 1 0 0 0 0 0 0 0 0 1

Total # of neighbors = 831990
Ave neighs/atom = 42.3361
Neighbor list builds = 495
Dangerous builds not checked
Setting up Verlet run ...
  Unit style    : metal
  Current step  : 160495
  Time step     : 0.001
Per MPI rank memory allocation (min/avg/max) = 11.36 | 11.36 | 11.36 Mbytes
Step Temp Press TotEng PotEng Enthalpy 
  160495    1806.1238   -438.39617   -17536.783   -22124.502   -17698.172 
  170000      1803.93    104.54466   -17652.534    -22234.68   -17614.369 
Loop time of 588.086 on 2 procs for 9505 steps with 19652 atoms

Performance: 1.396 ns/day, 17.186 hours/ns, 16.163 timesteps/s
99.5% CPU use with 2 MPI tasks x no OpenMP threads

MPI task timing breakdown:
Section |  min time  |  avg time  |  max time  |%varavg| %total
---------------------------------------------------------------
Pair    | 298.3      | 300.23     | 302.16     |  11.1 | 51.05
Neigh   | 254.08     | 254.26     | 254.44     |   1.1 | 43.24
Comm    | 21.603     | 23.719     | 25.835     |  43.4 |  4.03
Output  | 0.06406    | 0.064074   | 0.064088   |   0.0 |  0.01
Modify  | 7.9342     | 7.9417     | 7.9492     |   0.3 |  1.35
Other   |            | 1.867      |            |       |  0.32

Nlocal:    9826 ave 9841 max 9811 min
Histogram: 1 0 0 0 0 0 0 0 0 1
Nghost:    10201 ave 10222 max 10180 min
Histogram: 1 0 0 0 0 0 0 0 0 1
Neighs:    419566 ave 421859 max 417272 min
Histogram: 1 0 0 0 0 0 0 0 0 1

Total # of neighbors = 839131
Ave neighs/atom = 42.6995
Neighbor list builds = 9505
Dangerous builds not checked
Setting up Verlet run ...
  Unit style    : metal
  Current step  : 170000
  Time step     : 0.001
Per MPI rank memory allocation (min/avg/max) = 11.36 | 11.36 | 11.36 Mbytes
Step Temp Press TotEng PotEng Enthalpy 
  170000      1803.93    104.54466   -17652.534    -22234.68   -17614.369 
  170495    1762.1954   -108.21075    -17864.43   -22340.567   -17903.778 
Loop time of 29.9436 on 2 procs for 495 steps with 19652 atoms

Performance: 1.428 ns/day, 16.803 hours/ns, 16.531 timesteps/s
96.9% CPU use with 2 MPI tasks x no OpenMP threads

MPI task timing breakdown:
Section |  min time  |  avg time  |  max time  |%varavg| %total
---------------------------------------------------------------
Pair    | 15.525     | 15.596     | 15.667     |   1.8 | 52.08
Neigh   | 12.397     | 12.524     | 12.65      |   3.6 | 41.82
Comm    | 1.1502     | 1.3508     | 1.5514     |  17.3 |  4.51
Output  | 7.2002e-05 | 8.9526e-05 | 0.00010705 |   0.0 |  0.00
Modify  | 0.37685    | 0.37829    | 0.37973    |   0.2 |  1.26
Other   |            | 0.09474    |            |       |  0.32

Nlocal:    9826 ave 9846 max 9806 min
Histogram: 1 0 0 0 0 0 0 0 0 1
Nghost:    10217.5 ave 10224 max 10211 min
Histogram: 1 0 0 0 0 0 0 0 0 1
Neighs:    421364 ave 423829 max 418898 min
Histogram: 1 0 0 0 0 0 0 0 0 1

Total # of neighbors = 842727
Ave neighs/atom = 42.8825
Neighbor list builds = 495
Dangerous builds not checked
Setting up Verlet run ...
  Unit style    : metal
  Current step  : 170495
  Time step     : 0.001
Per MPI rank memory allocation (min/avg/max) = 11.36 | 11.36 | 11.36 Mbytes
Step Temp Press TotEng PotEng Enthalpy 
  170495    1762.1954   -108.21075    -17864.43   -22340.567   -17903.778 
  180000    1762.1876   -250.28684   -17916.402    -22392.52   -18007.325 
Loop time of 587.627 on 2 procs for 9505 steps with 19652 atoms

Performance: 1.398 ns/day, 17.173 hours/ns, 16.175 timesteps/s
98.8% CPU use with 2 MPI tasks x no OpenMP threads

MPI task timing breakdown:
Section |  min time  |  avg time  |  max time  |%varavg| %total
---------------------------------------------------------------
Pair    | 298.47     | 299.98     | 301.5      |   8.7 | 51.05
Neigh   | 250.2      | 250.67     | 251.15     |   3.0 | 42.66
Comm    | 25.809     | 27.799     | 29.79      |  37.8 |  4.73
Output  | 0.036163   | 0.036172   | 0.03618    |   0.0 |  0.01
Modify  | 7.295      | 7.3021     | 7.3092     |   0.3 |  1.24
Other   |            | 1.832      |            |       |  0.31

Nlocal:    9826 ave 9841 max 9811 min
Histogram: 1 0 0 0 0 0 0 0 0 1
Nghost:    10168 ave 10194 max 10142 min
Histogram: 1 0 0 0 0 0 0 0 0 1
Neighs:    421890 ave 426474 max 417306 min
Histogram: 1 0 0 0 0 0 0 0 0 1

Total # of neighbors = 843780
Ave neighs/atom = 42.9361
Neighbor list builds = 9505
Dangerous builds not checked
Setting up Verlet run ...
  Unit style    : metal
  Current step  : 180000
  Time step     : 0.001
Per MPI rank memory allocation (min/avg/max) = 11.36 | 11.36 | 11.36 Mbytes
Step Temp Press TotEng PotEng Enthalpy 
  180000    1762.1876   -250.28684   -17916.402    -22392.52   -18007.325 
  180495    1725.4968    208.70241   -18146.732   -22529.651   -18071.599 
Loop time of 30.0196 on 2 procs for 495 steps with 19652 atoms

Performance: 1.425 ns/day, 16.846 hours/ns, 16.489 timesteps/s
99.9% CPU use with 2 MPI tasks x no OpenMP threads

MPI task timing breakdown:
Section |  min time  |  avg time  |  max time  |%varavg| %total
---------------------------------------------------------------
Pair    | 15.15      | 15.379     | 15.607     |   5.8 | 51.23
Neigh   | 12.927     | 13.061     | 13.195     |   3.7 | 43.51
Comm    | 0.99593    | 1.0881     | 1.1803     |   8.8 |  3.62
Output  | 6.9141e-05 | 0.000108   | 0.00014687 |   0.0 |  0.00
Modify  | 0.39045    | 0.39225    | 0.39405    |   0.3 |  1.31
Other   |            | 0.09935    |            |       |  0.33

Nlocal:    9826 ave 9854 max 9798 min
Histogram: 1 0 0 0 0 0 0 0 0 1
Nghost:    10214.5 ave 10230 max 10199 min
Histogram: 1 0 0 0 0 0 0 0 0 1
Neighs:    425723 ave 431293 max 420153 min
Histogram: 1 0 0 0 0 0 0 0 0 1

Total # of neighbors = 851446
Ave neighs/atom = 43.3262
Neighbor list builds = 495
Dangerous builds not checked
Setting up Verlet run ...
  Unit style    : metal
  Current step  : 180495
  Time step     : 0.001
Per MPI rank memory allocation (min/avg/max) = 11.36 | 11.36 | 11.36 Mbytes
Step Temp Press TotEng PotEng Enthalpy 
  180495    1725.4968    208.70241   -18146.732   -22529.651   -18071.599 
  190000    1700.9156    39.879149   -18261.841   -22582.322   -18247.511 
Loop time of 592.883 on 2 procs for 9505 steps with 19652 atoms

Performance: 1.385 ns/day, 17.327 hours/ns, 16.032 timesteps/s
99.3% CPU use with 2 MPI tasks x no OpenMP threads

MPI task timing breakdown:
Section |  min time  |  avg time  |  max time  |%varavg| %total
---------------------------------------------------------------
Pair    | 303.75     | 305.89     | 308.02     |  12.2 | 51.59
Neigh   | 253.01     | 253.59     | 254.17     |   3.7 | 42.77
Comm    | 21.401     | 24.142     | 26.882     |  55.8 |  4.07
Output  | 0.036367   | 0.036426   | 0.036485   |   0.0 |  0.01
Modify  | 7.3446     | 7.3615     | 7.3784     |   0.6 |  1.24
Other   |            | 1.866      |            |       |  0.31

Nlocal:    9826 ave 9839 max 9813 min
Histogram: 1 0 0 0 0 0 0 0 0 1
Nghost:    10227 ave 10269 max 10185 min
Histogram: 1 0 0 0 0 0 0 0 0 1
Neighs:    426578 ave 431429 max 421728 min
Histogram: 1 0 0 0 0 0 0 0 0 1

Total # of neighbors = 853157
Ave neighs/atom = 43.4132
Neighbor list builds = 9505
Dangerous builds not checked
Setting up Verlet run ...
  Unit style    : metal
  Current step  : 190000
  Time step     : 0.001
Per MPI rank memory allocation (min/avg/max) = 11.36 | 11.36 | 11.36 Mbytes
Step Temp Press TotEng PotEng Enthalpy 
  190000    1700.9156    39.879149   -18261.841   -22582.322   -18247.511 
  190495    1665.5235    166.69568   -18486.964   -22717.545   -18427.519 
Loop time of 29.8398 on 2 procs for 495 steps with 19652 atoms

Performance: 1.433 ns/day, 16.745 hours/ns, 16.589 timesteps/s
100.0% CPU use with 2 MPI tasks x no OpenMP threads

MPI task timing breakdown:
Section |  min time  |  avg time  |  max time  |%varavg| %total
---------------------------------------------------------------
Pair    | 15.154     | 15.366     | 15.577     |   5.4 | 51.49
Neigh   | 12.642     | 12.871     | 13.101     |   6.4 | 43.13
Comm    | 1.0944     | 1.1194     | 1.1444     |   2.4 |  3.75
Output  | 9.8944e-05 | 0.00012493 | 0.00015092 |   0.0 |  0.00
Modify  | 0.37975    | 0.38551    | 0.39127    |   0.9 |  1.29
Other   |            | 0.09792    |            |       |  0.33

Nlocal:    9826 ave 9851 max 9801 min
Histogram: 1 0 0 0 0 0 0 0 0 1
Nghost:    10294 ave 10294 max 10294 min
Histogram: 2 0 0 0 0 0 0 0 0 0
Neighs:    429688 ave 435605 max 423770 min
Histogram: 1 0 0 0 0 0 0 0 0 1

Total # of neighbors = 859375
Ave neighs/atom = 43.7296
Neighbor list builds = 495
Dangerous builds not checked
Setting up Verlet run ...
  Unit style    : metal
  Current step  : 190495
  Time step     : 0.001
Per MPI rank memory allocation (min/avg/max) = 11.36 | 11.36 | 11.36 Mbytes
Step Temp Press TotEng PotEng Enthalpy 
  190495    1665.5235    166.69568   -18486.964   -22717.545   -18427.519 
  200000    1647.1222    48.112858   -18554.849    -22738.69   -18537.705 
Loop time of 611.359 on 2 procs for 9505 steps with 19652 atoms

Performance: 1.343 ns/day, 17.867 hours/ns, 15.547 timesteps/s
99.0% CPU use with 2 MPI tasks x no OpenMP threads

MPI task timing breakdown:
Section |  min time  |  avg time  |  max time  |%varavg| %total
---------------------------------------------------------------
Pair    | 312.18     | 314.45     | 316.71     |  12.8 | 51.43
Neigh   | 258.65     | 258.96     | 259.27     |   1.9 | 42.36
Comm    | 25.132     | 27.726     | 30.319     |  49.3 |  4.54
Output  | 0.034904   | 0.03492    | 0.034936   |   0.0 |  0.01
Modify  | 8.2481     | 8.2604     | 8.2727     |   0.4 |  1.35
Other   |            | 1.931      |            |       |  0.32

Nlocal:    9826 ave 9829 max 9823 min
Histogram: 1 0 0 0 0 0 0 0 0 1
Nghost:    10318.5 ave 10327 max 10310 min
Histogram: 1 0 0 0 0 0 0 0 0 1
Neighs:    430222 ave 434703 max 425740 min
Histogram: 1 0 0 0 0 0 0 0 0 1

Total # of neighbors = 860443
Ave neighs/atom = 43.784
Neighbor list builds = 9505
Dangerous builds not checked
Setting up Verlet run ...
  Unit style    : metal
  Current step  : 200000
  Time step     : 0.001
Per MPI rank memory allocation (min/avg/max) = 11.36 | 11.36 | 11.36 Mbytes
Step Temp Press TotEng PotEng Enthalpy 
  200000    1647.1222    48.112858   -18554.849    -22738.69   -18537.705 
  200495    1611.6145   -96.676584   -18750.817   -22844.465   -18785.123 
Loop time of 31.126 on 2 procs for 495 steps with 19652 atoms

Performance: 1.374 ns/day, 17.467 hours/ns, 15.903 timesteps/s
99.9% CPU use with 2 MPI tasks x no OpenMP threads

MPI task timing breakdown:
Section |  min time  |  avg time  |  max time  |%varavg| %total
---------------------------------------------------------------
Pair    | 15.986     | 16.087     | 16.188     |   2.5 | 51.68
Neigh   | 13.416     | 13.547     | 13.677     |   3.5 | 43.52
Comm    | 0.7466     | 0.9806     | 1.2146     |  23.6 |  3.15
Output  | 7.0095e-05 | 0.00010252 | 0.00013494 |   0.0 |  0.00
Modify  | 0.40478    | 0.40678    | 0.40877    |   0.3 |  1.31
Other   |            | 0.1049     |            |       |  0.34

Nlocal:    9826 ave 9830 max 9822 min
Histogram: 1 0 0 0 0 0 0 0 0 1
Nghost:    10340 ave 10349 max 10331 min
Histogram: 1 0 0 0 0 0 0 0 0 1
Neighs:    432005 ave 436487 max 427523 min
Histogram: 1 0 0 0 0 0 0 0 0 1

Total # of neighbors = 864010
Ave neighs/atom = 43.9655
Neighbor list builds = 495
Dangerous builds not checked
Setting up Verlet run ...
  Unit style    : metal
  Current step  : 200495
  Time step     : 0.001
Per MPI rank memory allocation (min/avg/max) = 11.36 | 11.36 | 11.36 Mbytes
Step Temp Press TotEng PotEng Enthalpy 
  200495    1611.6145   -96.676584   -18750.817   -22844.465   -18785.123 
  210000    1608.5001    84.819395   -18840.224   -22925.961   -18810.237 
Loop time of 606.89 on 2 procs for 9505 steps with 19652 atoms

Performance: 1.353 ns/day, 17.736 hours/ns, 15.662 timesteps/s
99.6% CPU use with 2 MPI tasks x no OpenMP threads

MPI task timing breakdown:
Section |  min time  |  avg time  |  max time  |%varavg| %total
---------------------------------------------------------------
Pair    | 312.36     | 313.8      | 315.24     |   8.1 | 51.71
Neigh   | 258.34     | 258.73     | 259.12     |   2.4 | 42.63
Comm    | 22.991     | 24.84      | 26.689     |  37.1 |  4.09
Output  | 0.035749   | 0.035773   | 0.035796   |   0.0 |  0.01
Modify  | 7.5381     | 7.557      | 7.5758     |   0.7 |  1.25
Other   |            | 1.926      |            |       |  0.32

Nlocal:    9826 ave 9837 max 9815 min
Histogram: 1 0 0 0 0 0 0 0 0 1
Nghost:    10320.5 ave 10328 max 10313 min
Histogram: 1 0 0 0 0 0 0 0 0 1
Neighs:    433571 ave 438524 max 428618 min
Histogram: 1 0 0 0 0 0 0 0 0 1

Total # of neighbors = 867142
Ave neighs/atom = 44.1249
Neighbor list builds = 9505
Dangerous builds not checked
Setting up Verlet run ...
  Unit style    : metal
  Current step  : 210000
  Time step     : 0.001
Per MPI rank memory allocation (min/avg/max) = 11.36 | 11.36 | 11.36 Mbytes
Step Temp Press TotEng PotEng Enthalpy 
  210000    1608.5001    84.819395   -18840.224   -22925.961   -18810.237 
  210495    1563.7079    261.72606   -19064.444   -23036.404   -18972.485 
Loop time of 30.4059 on 2 procs for 495 steps with 19652 atoms

Performance: 1.407 ns/day, 17.063 hours/ns, 16.280 timesteps/s
99.9% CPU use with 2 MPI tasks x no OpenMP threads

MPI task timing breakdown:
Section |  min time  |  avg time  |  max time  |%varavg| %total
---------------------------------------------------------------
Pair    | 15.719     | 15.734     | 15.749     |   0.4 | 51.75
Neigh   | 12.587     | 12.996     | 13.406     |  11.4 | 42.74
Comm    | 0.77721    | 1.1845     | 1.5917     |  37.4 |  3.90
Output  | 6.8188e-05 | 9.7156e-05 | 0.00012612 |   0.0 |  0.00
Modify  | 0.38195    | 0.39106    | 0.40016    |   1.5 |  1.29
Other   |            | 0.09989    |            |       |  0.33

Nlocal:    9826 ave 9838 max 9814 min
Histogram: 1 0 0 0 0 0 0 0 0 1
Nghost:    10365.5 ave 10369 max 10362 min
Histogram: 1 0 0 0 0 0 0 0 0 1
Neighs:    436443 ave 441568 max 431318 min
Histogram: 1 0 0 0 0 0 0 0 0 1

Total # of neighbors = 872886
Ave neighs/atom = 44.4172
Neighbor list builds = 495
Dangerous builds not checked
Setting up Verlet run ...
  Unit style    : metal
  Current step  : 210495
  Time step     : 0.001
Per MPI rank memory allocation (min/avg/max) = 11.36 | 11.36 | 11.36 Mbytes
Step Temp Press TotEng PotEng Enthalpy 
  210495    1563.7079    261.72606   -19064.444   -23036.404   -18972.485 
  220000    1554.2606   -384.17567    -19117.81   -23065.773    -19252.97 
Loop time of 606.519 on 2 procs for 9505 steps with 19652 atoms

Performance: 1.354 ns/day, 17.725 hours/ns, 15.671 timesteps/s
99.7% CPU use with 2 MPI tasks x no OpenMP threads

MPI task timing breakdown:
Section |  min time  |  avg time  |  max time  |%varavg| %total
---------------------------------------------------------------
Pair    | 313.22     | 315.61     | 318.01     |  13.5 | 52.04
Neigh   | 256.81     | 257.55     | 258.29     |   4.6 | 42.46
Comm    | 20.702     | 23.865     | 27.029     |  64.8 |  3.93
Output  | 0.036168   | 0.036225   | 0.036283   |   0.0 |  0.01
Modify  | 7.5193     | 7.5389     | 7.5585     |   0.7 |  1.24
Other   |            | 1.918      |            |       |  0.32

Nlocal:    9826 ave 9834 max 9818 min
Histogram: 1 0 0 0 0 0 0 0 0 1
Nghost:    10282 ave 10307 max 10257 min
Histogram: 1 0 0 0 0 0 0 0 0 1
Neighs:    435662 ave 439585 max 431740 min
Histogram: 1 0 0 0 0 0 0 0 0 1

Total # of neighbors = 871325
Ave neighs/atom = 44.3377
Neighbor list builds = 9505
Dangerous builds not checked
Setting up Verlet run ...
  Unit style    : metal
  Current step  : 220000
  Time step     : 0.001
Per MPI rank memory allocation (min/avg/max) = 11.36 | 11.36 | 11.36 Mbytes
Step Temp Press TotEng PotEng Enthalpy 
  220000    1554.2606   -384.17567    -19117.81   -23065.773    -19252.97 
  220495    1529.3689    230.67891   -19382.974   -23267.711   -19302.691 
Loop time of 30.5684 on 2 procs for 495 steps with 19652 atoms

Performance: 1.399 ns/day, 17.154 hours/ns, 16.193 timesteps/s
99.9% CPU use with 2 MPI tasks x no OpenMP threads

MPI task timing breakdown:
Section |  min time  |  avg time  |  max time  |%varavg| %total
---------------------------------------------------------------
Pair    | 15.641     | 15.767     | 15.893     |   3.2 | 51.58
Neigh   | 12.822     | 13.061     | 13.3       |   6.6 | 42.73
Comm    | 0.87502    | 1.2478     | 1.6205     |  33.4 |  4.08
Output  | 8.5115e-05 | 0.00014102 | 0.00019693 |   0.0 |  0.00
Modify  | 0.38672    | 0.39218    | 0.39764    |   0.9 |  1.28
Other   |            | 0.1002     |            |       |  0.33

Nlocal:    9826 ave 9832 max 9820 min
Histogram: 1 0 0 0 0 0 0 0 0 1
Nghost:    10412.5 ave 10428 max 10397 min
Histogram: 1 0 0 0 0 0 0 0 0 1
Neighs:    440832 ave 445064 max 436599 min
Histogram: 1 0 0 0 0 0 0 0 0 1

Total # of neighbors = 881663
Ave neighs/atom = 44.8638
Neighbor list builds = 495
Dangerous builds not checked
Setting up Verlet run ...
  Unit style    : metal
  Current step  : 220495
  Time step     : 0.001
Per MPI rank memory allocation (min/avg/max) = 11.36 | 11.36 | 11.36 Mbytes
Step Temp Press TotEng PotEng Enthalpy 
  220495    1529.3689    230.67891   -19382.974   -23267.711   -19302.691 
  230000    1506.7056   -203.89804   -19441.856   -23269.026   -19512.841 
Loop time of 609.902 on 2 procs for 9505 steps with 19652 atoms

Performance: 1.346 ns/day, 17.824 hours/ns, 15.584 timesteps/s
99.0% CPU use with 2 MPI tasks x no OpenMP threads

MPI task timing breakdown:
Section |  min time  |  avg time  |  max time  |%varavg| %total
---------------------------------------------------------------
Pair    | 313.69     | 315.87     | 318.05     |  12.2 | 51.79
Neigh   | 254.02     | 254.85     | 255.69     |   5.2 | 41.79
Comm    | 26.251     | 29.292     | 32.334     |  56.2 |  4.80
Output  | 0.03576    | 0.035823   | 0.035886   |   0.0 |  0.01
Modify  | 7.9273     | 7.9475     | 7.9678     |   0.7 |  1.30
Other   |            | 1.902      |            |       |  0.31

Nlocal:    9826 ave 9831 max 9821 min
Histogram: 1 0 0 0 0 0 0 0 0 1
Nghost:    10396.5 ave 10407 max 10386 min
Histogram: 1 0 0 0 0 0 0 0 0 1
Neighs:    440475 ave 444027 max 436923 min
Histogram: 1 0 0 0 0 0 0 0 0 1

Total # of neighbors = 880950
Ave neighs/atom = 44.8275
Neighbor list builds = 9505
Dangerous builds not checked
Setting up Verlet run ...
  Unit style    : metal
  Current step  : 230000
  Time step     : 0.001
Per MPI rank memory allocation (min/avg/max) = 11.36 | 11.36 | 11.36 Mbytes
Step Temp Press TotEng PotEng Enthalpy 
  230000    1506.7056   -203.89804   -19441.856   -23269.026   -19512.841 
  230495    1465.0138    196.41001   -19702.982    -23424.25   -19635.158 
Loop time of 30.6703 on 2 procs for 495 steps with 19652 atoms

Performance: 1.394 ns/day, 17.211 hours/ns, 16.139 timesteps/s
99.9% CPU use with 2 MPI tasks x no OpenMP threads

MPI task timing breakdown:
Section |  min time  |  avg time  |  max time  |%varavg| %total
---------------------------------------------------------------
Pair    | 15.845     | 15.988     | 16.131     |   3.6 | 52.13
Neigh   | 12.473     | 12.855     | 13.237     |  10.7 | 41.91
Comm    | 1.0865     | 1.3345     | 1.5825     |  21.5 |  4.35
Output  | 9.2983e-05 | 0.00011694 | 0.00014091 |   0.0 |  0.00
Modify  | 0.38761    | 0.39353    | 0.39945    |   0.9 |  1.28
Other   |            | 0.09934    |            |       |  0.32

Nlocal:    9826 ave 9834 max 9818 min
Histogram: 1 0 0 0 0 0 0 0 0 1
Nghost:    10430.5 ave 10451 max 10410 min
Histogram: 1 0 0 0 0 0 0 0 0 1
Neighs:    444155 ave 447550 max 440760 min
Histogram: 1 0 0 0 0 0 0 0 0 1

Total # of neighbors = 888310
Ave neighs/atom = 45.202
Neighbor list builds = 495
Dangerous builds not checked
Setting up Verlet run ...
  Unit style    : metal
  Current step  : 230495
  Time step     : 0.001
Per MPI rank memory allocation (min/avg/max) = 11.36 | 11.36 | 11.36 Mbytes
Step Temp Press TotEng PotEng Enthalpy 
  230495    1465.0138    196.41001   -19702.982    -23424.25   -19635.158 
  240000    1439.5181   -126.56329   -19827.176   -23483.684   -19870.854 
Loop time of 609.828 on 2 procs for 9505 steps with 19652 atoms

Performance: 1.347 ns/day, 17.822 hours/ns, 15.586 timesteps/s
99.3% CPU use with 2 MPI tasks x no OpenMP threads

MPI task timing breakdown:
Section |  min time  |  avg time  |  max time  |%varavg| %total
---------------------------------------------------------------
Pair    | 314.65     | 317.37     | 320.1      |  15.3 | 52.04
Neigh   | 255.52     | 255.64     | 255.75     |   0.7 | 41.92
Comm    | 24.539     | 27.387     | 30.236     |  54.4 |  4.49
Output  | 0.035671   | 0.035689   | 0.035707   |   0.0 |  0.01
Modify  | 7.48       | 7.4831     | 7.4861     |   0.1 |  1.23
Other   |            | 1.916      |            |       |  0.31

Nlocal:    9826 ave 9838 max 9814 min
Histogram: 1 0 0 0 0 0 0 0 0 1
Nghost:    10420.5 ave 10446 max 10395 min
Histogram: 1 0 0 0 0 0 0 0 0 1
Neighs:    444439 ave 447539 max 441339 min
Histogram: 1 0 0 0 0 0 0 0 0 1

Total # of neighbors = 888878
Ave neighs/atom = 45.2309
Neighbor list builds = 9505
Dangerous builds not checked
Setting up Verlet run ...
  Unit style    : metal
  Current step  : 240000
  Time step     : 0.001
Per MPI rank memory allocation (min/avg/max) = 11.36 | 11.36 | 11.36 Mbytes
Step Temp Press TotEng PotEng Enthalpy 
  240000    1439.5181   -126.56329   -19827.176   -23483.684   -19870.854 
  240495    1419.1082    11.897211   -20009.579   -23614.243   -20005.499 
Loop time of 31.2145 on 2 procs for 495 steps with 19652 atoms

Performance: 1.370 ns/day, 17.517 hours/ns, 15.858 timesteps/s
99.1% CPU use with 2 MPI tasks x no OpenMP threads

MPI task timing breakdown:
Section |  min time  |  avg time  |  max time  |%varavg| %total
---------------------------------------------------------------
Pair    | 16.205     | 16.237     | 16.268     |   0.8 | 52.02
Neigh   | 13.012     | 13.167     | 13.322     |   4.3 | 42.18
Comm    | 1.0298     | 1.1569     | 1.284      |  11.8 |  3.71
Output  | 0.00010395 | 0.00012445 | 0.00014496 |   0.0 |  0.00
Modify  | 0.54967    | 0.55319    | 0.55671    |   0.5 |  1.77
Other   |            | 0.1005     |            |       |  0.32

Nlocal:    9826 ave 9857 max 9795 min
Histogram: 1 0 0 0 0 0 0 0 0 1
Nghost:    10453.5 ave 10465 max 10442 min
Histogram: 1 0 0 0 0 0 0 0 0 1
Neighs:    447319 ave 448914 max 445724 min
Histogram: 1 0 0 0 0 0 0 0 0 1

Total # of neighbors = 894638
Ave neighs/atom = 45.524
Neighbor list builds = 495
Dangerous builds not checked
Setting up Verlet run ...
  Unit style    : metal
  Current step  : 240495
  Time step     : 0.001
Per MPI rank memory allocation (min/avg/max) = 11.36 | 11.36 | 11.36 Mbytes
Step Temp Press TotEng PotEng Enthalpy 
  240495    1419.1082    11.897211   -20009.579   -23614.243   -20005.499 
  250000    1405.7394    239.25927   -20111.442   -23682.148   -20029.788 
Loop time of 636.314 on 2 procs for 9505 steps with 19652 atoms

Performance: 1.291 ns/day, 18.596 hours/ns, 14.938 timesteps/s
97.9% CPU use with 2 MPI tasks x no OpenMP threads

MPI task timing breakdown:
Section |  min time  |  avg time  |  max time  |%varavg| %total
---------------------------------------------------------------
Pair    | 333.05     | 335.04     | 337.03     |  10.9 | 52.65
Neigh   | 258.76     | 260.57     | 262.38     |  11.2 | 40.95
Comm    | 26.433     | 30.294     | 34.155     |  70.1 |  4.76
Output  | 0.036002   | 0.036075   | 0.036149   |   0.0 |  0.01
Modify  | 8.3475     | 8.3871     | 8.4266     |   1.4 |  1.32
Other   |            | 1.983      |            |       |  0.31

Nlocal:    9826 ave 9827 max 9825 min
Histogram: 1 0 0 0 0 0 0 0 0 1
Nghost:    10509 ave 10544 max 10474 min
Histogram: 1 0 0 0 0 0 0 0 0 1
Neighs:    449750 ave 453599 max 445902 min
Histogram: 1 0 0 0 0 0 0 0 0 1

Total # of neighbors = 899501
Ave neighs/atom = 45.7715
Neighbor list builds = 9505
Dangerous builds not checked
Setting up Verlet run ...
  Unit style    : metal
  Current step  : 250000
  Time step     : 0.001
Per MPI rank memory allocation (min/avg/max) = 11.36 | 11.36 | 11.36 Mbytes
Step Temp Press TotEng PotEng Enthalpy 
  250000    1405.7394    239.25927   -20111.442   -23682.148   -20029.788 
  250495    1372.3418    19.329523   -20286.904   -23772.778   -20280.325 
Loop time of 35.2014 on 2 procs for 495 steps with 19652 atoms

Performance: 1.215 ns/day, 19.754 hours/ns, 14.062 timesteps/s
95.3% CPU use with 2 MPI tasks x no OpenMP threads

MPI task timing breakdown:
Section |  min time  |  avg time  |  max time  |%varavg| %total
---------------------------------------------------------------
Pair    | 18.629     | 18.804     | 18.979     |   4.0 | 53.42
Neigh   | 12.312     | 13.744     | 15.177     |  38.6 | 39.05
Comm    | 0.81196    | 2.1139     | 3.4158     |  89.5 |  6.01
Output  | 8.9884e-05 | 0.00012195 | 0.00015402 |   0.0 |  0.00
Modify  | 0.39351    | 0.42802    | 0.46254    |   5.3 |  1.22
Other   |            | 0.1111     |            |       |  0.32

Nlocal:    9826 ave 9861 max 9791 min
Histogram: 1 0 0 0 0 0 0 0 0 1
Nghost:    10446.5 ave 10470 max 10423 min
Histogram: 1 0 0 0 0 0 0 0 0 1
Neighs:    450716 ave 452556 max 448875 min
Histogram: 1 0 0 0 0 0 0 0 0 1

Total # of neighbors = 901431
Ave neighs/atom = 45.8697
Neighbor list builds = 495
Dangerous builds not checked
Setting up Verlet run ...
  Unit style    : metal
  Current step  : 250495
  Time step     : 0.001
Per MPI rank memory allocation (min/avg/max) = 11.36 | 11.36 | 11.36 Mbytes
Step Temp Press TotEng PotEng Enthalpy 
  250495    1372.3418    19.329523   -20286.904   -23772.778   -20280.325 
  260000    1342.3641    339.93253   -20457.848   -23867.576   -20342.812 
Loop time of 697.856 on 2 procs for 9505 steps with 19652 atoms

Performance: 1.177 ns/day, 20.394 hours/ns, 13.620 timesteps/s
93.9% CPU use with 2 MPI tasks x no OpenMP threads

MPI task timing breakdown:
Section |  min time  |  avg time  |  max time  |%varavg| %total
---------------------------------------------------------------
Pair    | 362.04     | 364.1      | 366.15     |  10.7 | 52.17
Neigh   | 275.63     | 277.2      | 278.78     |   9.5 | 39.72
Comm    | 39.037     | 42.731     | 46.426     |  56.5 |  6.12
Output  | 0.039608   | 0.039622   | 0.039637   |   0.0 |  0.01
Modify  | 11.505     | 11.563     | 11.621     |   1.7 |  1.66
Other   |            | 2.224      |            |       |  0.32

Nlocal:    9826 ave 9827 max 9825 min
Histogram: 1 0 0 0 0 0 0 0 0 1
Nghost:    10557 ave 10559 max 10555 min
Histogram: 1 0 0 0 0 0 0 0 0 1
Neighs:    453738 ave 458533 max 448943 min
Histogram: 1 0 0 0 0 0 0 0 0 1

Total # of neighbors = 907476
Ave neighs/atom = 46.1773
Neighbor list builds = 9505
Dangerous builds not checked
Setting up Verlet run ...
  Unit style    : metal
  Current step  : 260000
  Time step     : 0.001
Per MPI rank memory allocation (min/avg/max) = 11.36 | 11.36 | 11.36 Mbytes
Step Temp Press TotEng PotEng Enthalpy 
  260000    1342.3641    339.93253   -20457.848   -23867.576   -20342.812 
  260495    1315.0403   -178.86327   -20589.116   -23929.438   -20649.668 
Loop time of 40.3174 on 2 procs for 495 steps with 19652 atoms

Performance: 1.061 ns/day, 22.625 hours/ns, 12.278 timesteps/s
86.8% CPU use with 2 MPI tasks x no OpenMP threads

MPI task timing breakdown:
Section |  min time  |  avg time  |  max time  |%varavg| %total
---------------------------------------------------------------
Pair    | 20.952     | 21.131     | 21.31      |   3.9 | 52.41
Neigh   | 15.242     | 15.599     | 15.955     |   9.0 | 38.69
Comm    | 2.737      | 2.9516     | 3.1661     |  12.5 |  7.32
Output  | 0.00038815 | 0.00042105 | 0.00045395 |   0.0 |  0.00
Modify  | 0.47416    | 0.50231    | 0.53046    |   4.0 |  1.25
Other   |            | 0.1339     |            |       |  0.33

Nlocal:    9826 ave 9838 max 9814 min
Histogram: 1 0 0 0 0 0 0 0 0 1
Nghost:    10495.5 ave 10510 max 10481 min
Histogram: 1 0 0 0 0 0 0 0 0 1
Neighs:    453499 ave 455830 max 451168 min
Histogram: 1 0 0 0 0 0 0 0 0 1

Total # of neighbors = 906998
Ave neighs/atom = 46.153
Neighbor list builds = 495
Dangerous builds not checked
Setting up Verlet run ...
  Unit style    : metal
  Current step  : 260495
  Time step     : 0.001
Per MPI rank memory allocation (min/avg/max) = 11.36 | 11.36 | 11.36 Mbytes
Step Temp Press TotEng PotEng Enthalpy 
  260495    1315.0403   -178.86327   -20589.116   -23929.438   -20649.668 
  270000    1288.7654   -83.043522    -20776.24   -24049.822   -20804.188 
Loop time of 697.253 on 2 procs for 9505 steps with 19652 atoms

Performance: 1.178 ns/day, 20.377 hours/ns, 13.632 timesteps/s
93.0% CPU use with 2 MPI tasks x no OpenMP threads

MPI task timing breakdown:
Section |  min time  |  avg time  |  max time  |%varavg| %total
---------------------------------------------------------------
Pair    | 364.97     | 368.08     | 371.19     |  16.2 | 52.79
Neigh   | 280.36     | 282.66     | 284.95     |  13.6 | 40.54
Comm    | 33.264     | 34.042     | 34.82      |  13.3 |  4.88
Output  | 0.046469   | 0.046486   | 0.046504   |   0.0 |  0.01
Modify  | 10.183     | 10.206     | 10.229     |   0.7 |  1.46
Other   |            | 2.226      |            |       |  0.32

Nlocal:    9826 ave 9834 max 9818 min
Histogram: 1 0 0 0 0 0 0 0 0 1
Nghost:    10554 ave 10562 max 10546 min
Histogram: 1 0 0 0 0 0 0 0 0 1
Neighs:    456334 ave 459360 max 453307 min
Histogram: 1 0 0 0 0 0 0 0 0 1

Total # of neighbors = 912667
Ave neighs/atom = 46.4414
Neighbor list builds = 9505
Dangerous builds not checked
Setting up Verlet run ...
  Unit style    : metal
  Current step  : 270000
  Time step     : 0.001
Per MPI rank memory allocation (min/avg/max) = 11.36 | 11.36 | 11.36 Mbytes
Step Temp Press TotEng PotEng Enthalpy 
  270000    1288.7654   -83.043522    -20776.24   -24049.822   -20804.188 
  270495    1271.9857   -370.12109   -20888.887   -24119.846   -21013.369 
Loop time of 35.8102 on 2 procs for 495 steps with 19652 atoms

Performance: 1.194 ns/day, 20.096 hours/ns, 13.823 timesteps/s
92.5% CPU use with 2 MPI tasks x no OpenMP threads

MPI task timing breakdown:
Section |  min time  |  avg time  |  max time  |%varavg| %total
---------------------------------------------------------------
Pair    | 18.667     | 18.984     | 19.301     |   7.3 | 53.01
Neigh   | 14.46      | 14.636     | 14.812     |   4.6 | 40.87
Comm    | 1.4679     | 1.5919     | 1.7159     |   9.8 |  4.45
Output  | 9.5129e-05 | 0.00013459 | 0.00017405 |   0.0 |  0.00
Modify  | 0.46696    | 0.48116    | 0.49536    |   2.0 |  1.34
Other   |            | 0.1175     |            |       |  0.33

Nlocal:    9826 ave 9829 max 9823 min
Histogram: 1 0 0 0 0 0 0 0 0 1
Nghost:    10564 ave 10585 max 10543 min
Histogram: 1 0 0 0 0 0 0 0 0 1
Neighs:    456450 ave 460386 max 452515 min
Histogram: 1 0 0 0 0 0 0 0 0 1

Total # of neighbors = 912901
Ave neighs/atom = 46.4533
Neighbor list builds = 495
Dangerous builds not checked
Setting up Verlet run ...
  Unit style    : metal
  Current step  : 270495
  Time step     : 0.001
Per MPI rank memory allocation (min/avg/max) = 11.36 | 11.36 | 11.36 Mbytes
Step Temp Press TotEng PotEng Enthalpy 
  270495    1271.9857   -370.12109   -20888.887   -24119.846   -21013.369 
  280000    1234.0553   -569.74802   -21021.262   -24155.875   -21212.475 
Loop time of 703.485 on 2 procs for 9505 steps with 19652 atoms

Performance: 1.167 ns/day, 20.559 hours/ns, 13.511 timesteps/s
93.9% CPU use with 2 MPI tasks x no OpenMP threads

MPI task timing breakdown:
Section |  min time  |  avg time  |  max time  |%varavg| %total
---------------------------------------------------------------
Pair    | 373.11     | 375.39     | 377.68     |  11.8 | 53.36
Neigh   | 283.84     | 284.42     | 285        |   3.4 | 40.43
Comm    | 28.627     | 31.533     | 34.438     |  51.7 |  4.48
Output  | 0.036961   | 0.037041   | 0.037122   |   0.0 |  0.01
Modify  | 9.8392     | 9.8587     | 9.8782     |   0.6 |  1.40
Other   |            | 2.246      |            |       |  0.32

Nlocal:    9826 ave 9834 max 9818 min
Histogram: 1 0 0 0 0 0 0 0 0 1
Nghost:    10544.5 ave 10551 max 10538 min
Histogram: 1 0 0 0 0 0 0 0 0 1
Neighs:    457591 ave 460856 max 454326 min
Histogram: 1 0 0 0 0 0 0 0 0 1

Total # of neighbors = 915182
Ave neighs/atom = 46.5694
Neighbor list builds = 9505
Dangerous builds not checked
Setting up Verlet run ...
  Unit style    : metal
  Current step  : 280000
  Time step     : 0.001
Per MPI rank memory allocation (min/avg/max) = 11.36 | 11.36 | 11.36 Mbytes
Step Temp Press TotEng PotEng Enthalpy 
  280000    1234.0553   -569.74802   -21021.262   -24155.875   -21212.475 
  280495    1214.5862   -112.29254   -21220.301   -24305.461   -21257.709 
Loop time of 38.1751 on 2 procs for 495 steps with 19652 atoms

Performance: 1.120 ns/day, 21.423 hours/ns, 12.967 timesteps/s
90.6% CPU use with 2 MPI tasks x no OpenMP threads

MPI task timing breakdown:
Section |  min time  |  avg time  |  max time  |%varavg| %total
---------------------------------------------------------------
Pair    | 19.861     | 20.26      | 20.659     |   8.9 | 53.07
Neigh   | 14.852     | 15.189     | 15.527     |   8.7 | 39.79
Comm    | 2.0921     | 2.1485     | 2.2049     |   3.8 |  5.63
Output  | 8.7976e-05 | 0.00018406 | 0.00028014 |   0.0 |  0.00
Modify  | 0.46116    | 0.46635    | 0.47153    |   0.8 |  1.22
Other   |            | 0.111      |            |       |  0.29

Nlocal:    9826 ave 9855 max 9797 min
Histogram: 1 0 0 0 0 0 0 0 0 1
Nghost:    10534.5 ave 10557 max 10512 min
Histogram: 1 0 0 0 0 0 0 0 0 1
Neighs:    460986 ave 463239 max 458732 min
Histogram: 1 0 0 0 0 0 0 0 0 1

Total # of neighbors = 921971
Ave neighs/atom = 46.9149
Neighbor list builds = 495
Dangerous builds not checked
Setting up Verlet run ...
  Unit style    : metal
  Current step  : 280495
  Time step     : 0.001
Per MPI rank memory allocation (min/avg/max) = 11.36 | 11.36 | 11.36 Mbytes
Step Temp Press TotEng PotEng Enthalpy 
  280495    1214.5862   -112.29254   -21220.301   -24305.461   -21257.709 
  290000    1202.3965    535.06549   -21310.888   -24365.085   -21133.485 
Loop time of 836.482 on 2 procs for 9505 steps with 19652 atoms

Performance: 0.982 ns/day, 24.446 hours/ns, 11.363 timesteps/s
86.1% CPU use with 2 MPI tasks x no OpenMP threads

MPI task timing breakdown:
Section |  min time  |  avg time  |  max time  |%varavg| %total
---------------------------------------------------------------
Pair    | 447.81     | 450.74     | 453.68     |  13.8 | 53.89
Neigh   | 312.18     | 312.36     | 312.54     |   1.0 | 37.34
Comm    | 55.122     | 58.41      | 61.698     |  43.0 |  6.98
Output  | 0.089737   | 0.089759   | 0.089781   |   0.0 |  0.01
Modify  | 12.12      | 12.246     | 12.373     |   3.6 |  1.46
Other   |            | 2.63       |            |       |  0.31

Nlocal:    9826 ave 9836 max 9816 min
Histogram: 1 0 0 0 0 0 0 0 0 1
Nghost:    10551 ave 10562 max 10540 min
Histogram: 1 0 0 0 0 0 0 0 0 1
Neighs:    463566 ave 468539 max 458593 min
Histogram: 1 0 0 0 0 0 0 0 0 1

Total # of neighbors = 927132
Ave neighs/atom = 47.1775
Neighbor list builds = 9505
Dangerous builds not checked
Setting up Verlet run ...
  Unit style    : metal
  Current step  : 290000
  Time step     : 0.001
Per MPI rank memory allocation (min/avg/max) = 11.36 | 11.36 | 11.36 Mbytes
Step Temp Press TotEng PotEng Enthalpy 
  290000    1202.3965    535.06549   -21310.888   -24365.085   -21133.485 
  290495    1166.0308    453.75109   -21498.668   -24460.493   -21348.672 
Loop time of 47.4847 on 2 procs for 495 steps with 19652 atoms

Performance: 0.901 ns/day, 26.647 hours/ns, 10.424 timesteps/s
81.3% CPU use with 2 MPI tasks x no OpenMP threads

MPI task timing breakdown:
Section |  min time  |  avg time  |  max time  |%varavg| %total
---------------------------------------------------------------
Pair    | 25.921     | 26.007     | 26.094     |   1.7 | 54.77
Neigh   | 17.205     | 17.26      | 17.315     |   1.3 | 36.35
Comm    | 3.3541     | 3.3855     | 3.4168     |   1.7 |  7.13
Output  | 8.7976e-05 | 0.00017858 | 0.00026917 |   0.0 |  0.00
Modify  | 0.65517    | 0.67296    | 0.69075    |   2.2 |  1.42
Other   |            | 0.1587     |            |       |  0.33

Nlocal:    9826 ave 9835 max 9817 min
Histogram: 1 0 0 0 0 0 0 0 0 1
Nghost:    10547.5 ave 10595 max 10500 min
Histogram: 1 0 0 0 0 0 0 0 0 1
Neighs:    465322 ave 469051 max 461592 min
Histogram: 1 0 0 0 0 0 0 0 0 1

Total # of neighbors = 930643
Ave neighs/atom = 47.3561
Neighbor list builds = 495
Dangerous builds not checked
Setting up Verlet run ...
  Unit style    : metal
  Current step  : 290495
  Time step     : 0.001
Per MPI rank memory allocation (min/avg/max) = 11.36 | 11.36 | 11.36 Mbytes
Step Temp Press TotEng PotEng Enthalpy 
  290495    1166.0308    453.75109   -21498.668   -24460.493   -21348.672 
  300000     1146.818   -273.25728   -21641.284   -24554.306   -21731.461 
Loop time of 926.648 on 2 procs for 9505 steps with 19652 atoms

Performance: 0.886 ns/day, 27.081 hours/ns, 10.257 timesteps/s
81.3% CPU use with 2 MPI tasks x no OpenMP threads

MPI task timing breakdown:
Section |  min time  |  avg time  |  max time  |%varavg| %total
---------------------------------------------------------------
Pair    | 503.95     | 507.1      | 510.26     |  14.0 | 54.72
Neigh   | 336.9      | 338.38     | 339.85     |   8.0 | 36.52
Comm    | 61.177     | 65.813     | 70.45      |  57.1 |  7.10
Output  | 0.03963    | 0.039688   | 0.039747   |   0.0 |  0.00
Modify  | 12.426     | 12.439     | 12.453     |   0.4 |  1.34
Other   |            | 2.877      |            |       |  0.31

Nlocal:    9826 ave 9827 max 9825 min
Histogram: 1 0 0 0 0 0 0 0 0 1
Nghost:    10608 ave 10611 max 10605 min
Histogram: 1 0 0 0 0 0 0 0 0 1
Neighs:    465996 ave 470362 max 461629 min
Histogram: 1 0 0 0 0 0 0 0 0 1

Total # of neighbors = 931991
Ave neighs/atom = 47.4247
Neighbor list builds = 9505
Dangerous builds not checked
Setting up Verlet run ...
  Unit style    : metal
  Current step  : 300000
  Time step     : 0.001
Per MPI rank memory allocation (min/avg/max) = 11.36 | 11.36 | 11.36 Mbytes
Step Temp Press TotEng PotEng Enthalpy 
  300000     1146.818   -273.25728   -21641.284   -24554.306   -21731.461 
[...]
Histogram: 1 0 0 0 0 0 0 0 0 1
Neighs:    523218 ave 524619 max 521817 min
Histogram: 1 0 0 0 0 0 0 0 0 1

Total # of neighbors = 1046436
Ave neighs/atom = 53.2483
Neighbor list builds = 9505
Dangerous builds not checked
Setting up Verlet run ...
  Unit style    : metal
  Current step  : 440000
  Time step     : 0.001
Per MPI rank memory allocation (min/avg/max) = 11.36 | 11.36 | 11.36 Mbytes
Step Temp Press TotEng PotEng Enthalpy 
  440000     446.2059   -629.68451   -26220.973   -27354.377   -26409.556 
  440495    422.33119    436.89576   -26365.367   -27438.127   -26235.365 
Loop time of 35.0142 on 2 procs for 495 steps with 19652 atoms

Performance: 1.221 ns/day, 19.649 hours/ns, 14.137 timesteps/s
99.9% CPU use with 2 MPI tasks x no OpenMP threads

MPI task timing breakdown:
Section |  min time  |  avg time  |  max time  |%varavg| %total
---------------------------------------------------------------
Pair    | 18.596     | 18.614     | 18.632     |   0.4 | 53.16
Neigh   | 14.551     | 14.589     | 14.627     |   1.0 | 41.67
Comm    | 1.2146     | 1.2362     | 1.2579     |   1.9 |  3.53
Output  | 8.7023e-05 | 0.00012398 | 0.00016093 |   0.0 |  0.00
Modify  | 0.44731    | 0.44881    | 0.45032    |   0.2 |  1.28
Other   |            | 0.1263     |            |       |  0.36

Nlocal:    9826 ave 9835 max 9817 min
Histogram: 1 0 0 0 0 0 0 0 0 1
Nghost:    11084 ave 11100 max 11068 min
Histogram: 1 0 0 0 0 0 0 0 0 1
Neighs:    527218 ave 527803 max 526633 min
Histogram: 1 0 0 0 0 0 0 0 0 1

Total # of neighbors = 1054436
Ave neighs/atom = 53.6554
Neighbor list builds = 495
Dangerous builds not checked
Setting up Verlet run ...
  Unit style    : metal
  Current step  : 440495
  Time step     : 0.001
Per MPI rank memory allocation (min/avg/max) = 11.36 | 11.36 | 11.36 Mbytes
Step Temp Press TotEng PotEng Enthalpy 
  440495    422.33119    436.89576   -26365.367   -27438.127   -26235.365 
  450000    398.74157    201.06185   -26510.378   -27523.218   -26450.669 
Loop time of 685.986 on 2 procs for 9505 steps with 19652 atoms

Performance: 1.197 ns/day, 20.048 hours/ns, 13.856 timesteps/s
99.8% CPU use with 2 MPI tasks x no OpenMP threads

MPI task timing breakdown:
Section |  min time  |  avg time  |  max time  |%varavg| %total
---------------------------------------------------------------
Pair    | 366.1      | 366.45     | 366.8      |   1.8 | 53.42
Neigh   | 282.9      | 283.26     | 283.61     |   2.1 | 41.29
Comm    | 24.392     | 25.106     | 25.819     |  14.2 |  3.66
Output  | 0.036409   | 0.036429   | 0.03645    |   0.0 |  0.01
Modify  | 8.6587     | 8.6717     | 8.6847     |   0.4 |  1.26
Other   |            | 2.47       |            |       |  0.36

Nlocal:    9826 ave 9830 max 9822 min
Histogram: 1 0 0 0 0 0 0 0 0 1
Nghost:    11086 ave 11092 max 11080 min
Histogram: 1 0 0 0 0 0 0 0 0 1
Neighs:    528787 ave 528883 max 528691 min
Histogram: 1 0 0 0 0 0 0 0 0 1

Total # of neighbors = 1057574
Ave neighs/atom = 53.8151
Neighbor list builds = 9505
Dangerous builds not checked
Setting up Verlet run ...
  Unit style    : metal
  Current step  : 450000
  Time step     : 0.001
Per MPI rank memory allocation (min/avg/max) = 11.36 | 11.36 | 11.36 Mbytes
Step Temp Press TotEng PotEng Enthalpy 
  450000    398.74157    201.06185   -26510.378   -27523.218   -26450.669 
  450495    372.43156   -232.94554   -26664.979   -27610.989   -26734.075 
Loop time of 35.4403 on 2 procs for 495 steps with 19652 atoms

Performance: 1.207 ns/day, 19.888 hours/ns, 13.967 timesteps/s
99.9% CPU use with 2 MPI tasks x no OpenMP threads

MPI task timing breakdown:
Section |  min time  |  avg time  |  max time  |%varavg| %total
---------------------------------------------------------------
Pair    | 18.835     | 18.933     | 19.032     |   2.3 | 53.42
Neigh   | 14.625     | 14.69      | 14.754     |   1.7 | 41.45
Comm    | 1.0578     | 1.2241     | 1.3904     |  15.0 |  3.45
Output  | 8.893e-05  | 0.00013292 | 0.00017691 |   0.0 |  0.00
Modify  | 0.45836    | 0.46089    | 0.46342    |   0.4 |  1.30
Other   |            | 0.1323     |            |       |  0.37

Nlocal:    9826 ave 9833 max 9819 min
Histogram: 1 0 0 0 0 0 0 0 0 1
Nghost:    11071 ave 11086 max 11056 min
Histogram: 1 0 0 0 0 0 0 0 0 1
Neighs:    529604 ave 530294 max 528914 min
Histogram: 1 0 0 0 0 0 0 0 0 1

Total # of neighbors = 1059208
Ave neighs/atom = 53.8982
Neighbor list builds = 495
Dangerous builds not checked
Setting up Verlet run ...
  Unit style    : metal
  Current step  : 450495
  Time step     : 0.001
Per MPI rank memory allocation (min/avg/max) = 11.36 | 11.36 | 11.36 Mbytes
Step Temp Press TotEng PotEng Enthalpy 
  450495    372.43156   -232.94554   -26664.979   -27610.989   -26734.075 
  460000    347.09618    -190.2241   -26828.069   -27709.725   -26884.308 
Loop time of 683.578 on 2 procs for 9505 steps with 19652 atoms

Performance: 1.201 ns/day, 19.977 hours/ns, 13.905 timesteps/s
99.7% CPU use with 2 MPI tasks x no OpenMP threads

MPI task timing breakdown:
Section |  min time  |  avg time  |  max time  |%varavg| %total
---------------------------------------------------------------
Pair    | 363.92     | 364.58     | 365.24     |   3.5 | 53.33
Neigh   | 282.02     | 282.3      | 282.59     |   1.7 | 41.30
Comm    | 24.172     | 25.124     | 26.076     |  19.0 |  3.68
Output  | 0.038866   | 0.038955   | 0.039043   |   0.0 |  0.01
Modify  | 9.0599     | 9.0632     | 9.0665     |   0.1 |  1.33
Other   |            | 2.464      |            |       |  0.36

Nlocal:    9826 ave 9828 max 9824 min
Histogram: 1 0 0 0 0 0 0 0 0 1
Nghost:    11084 ave 11104 max 11064 min
Histogram: 1 0 0 0 0 0 0 0 0 1
Neighs:    532094 ave 532233 max 531955 min
Histogram: 1 0 0 0 0 0 0 0 0 1

Total # of neighbors = 1064188
Ave neighs/atom = 54.1516
Neighbor list builds = 9505
Dangerous builds not checked
Setting up Verlet run ...
  Unit style    : metal
  Current step  : 460000
  Time step     : 0.001
Per MPI rank memory allocation (min/avg/max) = 11.36 | 11.36 | 11.36 Mbytes
Step Temp Press TotEng PotEng Enthalpy 
  460000    347.09618    -190.2241   -26828.069   -27709.725   -26884.308 
  460495    324.28995    239.30389   -26966.051   -27789.777   -26895.589 
Loop time of 35.0984 on 2 procs for 495 steps with 19652 atoms

Performance: 1.219 ns/day, 19.696 hours/ns, 14.103 timesteps/s
99.9% CPU use with 2 MPI tasks x no OpenMP threads

MPI task timing breakdown:
Section |  min time  |  avg time  |  max time  |%varavg| %total
---------------------------------------------------------------
Pair    | 18.641     | 18.695     | 18.749     |   1.2 | 53.27
Neigh   | 14.436     | 14.608     | 14.78      |   4.5 | 41.62
Comm    | 1.0894     | 1.2102     | 1.3309     |  11.0 |  3.45
Output  | 0.00018215 | 0.00021303 | 0.0002439  |   0.0 |  0.00
Modify  | 0.45206    | 0.45399    | 0.45592    |   0.3 |  1.29
Other   |            | 0.1304     |            |       |  0.37

Nlocal:    9826 ave 9845 max 9807 min
Histogram: 1 0 0 0 0 0 0 0 0 1
Nghost:    11130 ave 11143 max 11117 min
Histogram: 1 0 0 0 0 0 0 0 0 1
Neighs:    534785 ave 536473 max 533097 min
Histogram: 1 0 0 0 0 0 0 0 0 1

Total # of neighbors = 1069570
Ave neighs/atom = 54.4255
Neighbor list builds = 495
Dangerous builds not checked
Setting up Verlet run ...
  Unit style    : metal
  Current step  : 460495
  Time step     : 0.001
Per MPI rank memory allocation (min/avg/max) = 11.36 | 11.36 | 11.36 Mbytes
Step Temp Press TotEng PotEng Enthalpy 
  460495    324.28995    239.30389   -26966.051   -27789.777   -26895.589 
  470000    298.60304   -154.10809    -27117.86   -27876.339    -27163.16 
Loop time of 683.331 on 2 procs for 9505 steps with 19652 atoms

Performance: 1.202 ns/day, 19.970 hours/ns, 13.910 timesteps/s
99.8% CPU use with 2 MPI tasks x no OpenMP threads

MPI task timing breakdown:
Section |  min time  |  avg time  |  max time  |%varavg| %total
---------------------------------------------------------------
Pair    | 365.11     | 365.52     | 365.92     |   2.1 | 53.49
Neigh   | 281.23     | 281.63     | 282.03     |   2.4 | 41.21
Comm    | 24.973     | 24.98      | 24.988     |   0.1 |  3.66
Output  | 0.03828    | 0.038358   | 0.038436   |   0.0 |  0.01
Modify  | 8.6851     | 8.6896     | 8.6942     |   0.2 |  1.27
Other   |            | 2.476      |            |       |  0.36

Nlocal:    9826 ave 9828 max 9824 min
Histogram: 1 0 0 0 0 0 0 0 0 1
Nghost:    11120 ave 11137 max 11103 min
Histogram: 1 0 0 0 0 0 0 0 0 1
Neighs:    536120 ave 536186 max 536054 min
Histogram: 1 0 0 0 0 0 0 0 0 1

Total # of neighbors = 1072240
Ave neighs/atom = 54.5614
Neighbor list builds = 9505
Dangerous builds not checked
Setting up Verlet run ...
  Unit style    : metal
  Current step  : 470000
  Time step     : 0.001
Per MPI rank memory allocation (min/avg/max) = 11.36 | 11.36 | 11.36 Mbytes
Step Temp Press TotEng PotEng Enthalpy 
  470000    298.60304   -154.10809    -27117.86   -27876.339    -27163.16 
  470495    273.12418   -99.252641   -27253.544   -27947.304   -27282.654 
Loop time of 35.0552 on 2 procs for 495 steps with 19652 atoms

Performance: 1.220 ns/day, 19.672 hours/ns, 14.121 timesteps/s
99.9% CPU use with 2 MPI tasks x no OpenMP threads

MPI task timing breakdown:
Section |  min time  |  avg time  |  max time  |%varavg| %total
---------------------------------------------------------------
Pair    | 18.447     | 18.625     | 18.803     |   4.1 | 53.13
Neigh   | 14.485     | 14.599     | 14.712     |   3.0 | 41.65
Comm    | 1.1812     | 1.2462     | 1.3111     |   5.8 |  3.55
Output  | 8.7976e-05 | 0.00018942 | 0.00029087 |   0.0 |  0.00
Modify  | 0.45338    | 0.45433    | 0.45528    |   0.1 |  1.30
Other   |            | 0.1305     |            |       |  0.37

Nlocal:    9826 ave 9839 max 9813 min
Histogram: 1 0 0 0 0 0 0 0 0 1
Nghost:    11138 ave 11149 max 11127 min
Histogram: 1 0 0 0 0 0 0 0 0 1
Neighs:    537692 ave 538382 max 537002 min
Histogram: 1 0 0 0 0 0 0 0 0 1

Total # of neighbors = 1075384
Ave neighs/atom = 54.7214
Neighbor list builds = 495
Dangerous builds not checked
Setting up Verlet run ...
  Unit style    : metal
  Current step  : 470495
  Time step     : 0.001
Per MPI rank memory allocation (min/avg/max) = 11.36 | 11.36 | 11.36 Mbytes
Step Temp Press TotEng PotEng Enthalpy 
  470495    273.12418   -99.252641   -27253.544   -27947.304   -27282.654 
  480000    249.11155   -264.34017   -27386.174    -28018.94   -27463.557 
Loop time of 677.467 on 2 procs for 9505 steps with 19652 atoms

Performance: 1.212 ns/day, 19.799 hours/ns, 14.030 timesteps/s
99.5% CPU use with 2 MPI tasks x no OpenMP threads

MPI task timing breakdown:
Section |  min time  |  avg time  |  max time  |%varavg| %total
---------------------------------------------------------------
Pair    | 360.65     | 361.04     | 361.44     |   2.1 | 53.29
Neigh   | 276.7      | 277.05     | 277.41     |   2.1 | 40.90
Comm    | 26.427     | 27.401     | 28.374     |  18.6 |  4.04
Output  | 0.03715    | 0.037221   | 0.037292   |   0.0 |  0.01
Modify  | 9.2846     | 9.5094     | 9.7342     |   7.3 |  1.40
Other   |            | 2.424      |            |       |  0.36

Nlocal:    9826 ave 9827 max 9825 min
Histogram: 1 0 0 0 0 0 0 0 0 1
Nghost:    11137.5 ave 11143 max 11132 min
Histogram: 1 0 0 0 0 0 0 0 0 1
Neighs:    538876 ave 538983 max 538769 min
Histogram: 1 0 0 0 0 0 0 0 0 1

Total # of neighbors = 1077752
Ave neighs/atom = 54.8418
Neighbor list builds = 9505
Dangerous builds not checked
Setting up Verlet run ...
  Unit style    : metal
  Current step  : 480000
  Time step     : 0.001
Per MPI rank memory allocation (min/avg/max) = 11.36 | 11.36 | 11.36 Mbytes
Step Temp Press TotEng PotEng Enthalpy 
  480000    249.11155   -264.34017   -27386.174    -28018.94   -27463.557 
  480495    224.59075   -245.92152   -27526.272   -28096.753   -27598.087 
Loop time of 34.879 on 2 procs for 495 steps with 19652 atoms

Performance: 1.226 ns/day, 19.573 hours/ns, 14.192 timesteps/s
99.9% CPU use with 2 MPI tasks x no OpenMP threads

MPI task timing breakdown:
Section |  min time  |  avg time  |  max time  |%varavg| %total
---------------------------------------------------------------
Pair    | 18.559     | 18.625     | 18.692     |   1.5 | 53.40
Neigh   | 14.38      | 14.42      | 14.46      |   1.1 | 41.34
Comm    | 1.2389     | 1.2664     | 1.2939     |   2.4 |  3.63
Output  | 7.4863e-05 | 0.00013888 | 0.00020289 |   0.0 |  0.00
Modify  | 0.44252    | 0.44291    | 0.44331    |   0.1 |  1.27
Other   |            | 0.1243     |            |       |  0.36

Nlocal:    9826 ave 9836 max 9816 min
Histogram: 1 0 0 0 0 0 0 0 0 1
Nghost:    11156.5 ave 11173 max 11140 min
Histogram: 1 0 0 0 0 0 0 0 0 1
Neighs:    540575 ave 541192 max 539958 min
Histogram: 1 0 0 0 0 0 0 0 0 1

Total # of neighbors = 1081150
Ave neighs/atom = 55.0148
Neighbor list builds = 495
Dangerous builds not checked
Setting up Verlet run ...
  Unit style    : metal
  Current step  : 480495
  Time step     : 0.001
Per MPI rank memory allocation (min/avg/max) = 11.36 | 11.36 | 11.36 Mbytes
Step Temp Press TotEng PotEng Enthalpy 
  480495    224.59075   -245.92152   -27526.272   -28096.753   -27598.087 
  490000    197.89238     256.9704   -27674.485   -28177.149   -27599.758 
Loop time of 691.42 on 2 procs for 9505 steps with 19652 atoms

Performance: 1.188 ns/day, 20.206 hours/ns, 13.747 timesteps/s
98.4% CPU use with 2 MPI tasks x no OpenMP threads

MPI task timing breakdown:
Section |  min time  |  avg time  |  max time  |%varavg| %total
---------------------------------------------------------------
Pair    | 365.89     | 366.11     | 366.33     |   1.2 | 52.95
Neigh   | 279.06     | 280.49     | 281.92     |   8.6 | 40.57
Comm    | 31.513     | 32.323     | 33.133     |  14.2 |  4.67
Output  | 0.039462   | 0.039511   | 0.03956    |   0.0 |  0.01
Modify  | 9.1892     | 10.029     | 10.869     |  26.5 |  1.45
Other   |            | 2.428      |            |       |  0.35

Nlocal:    9826 ave 9832 max 9820 min
Histogram: 1 0 0 0 0 0 0 0 0 1
Nghost:    11199.5 ave 11211 max 11188 min
Histogram: 1 0 0 0 0 0 0 0 0 1
Neighs:    543342 ave 543694 max 542989 min
Histogram: 1 0 0 0 0 0 0 0 0 1

Total # of neighbors = 1086683
Ave neighs/atom = 55.2963
Neighbor list builds = 9505
Dangerous builds not checked
Setting up Verlet run ...
  Unit style    : metal
  Current step  : 490000
  Time step     : 0.001
Per MPI rank memory allocation (min/avg/max) = 11.36 | 11.36 | 11.36 Mbytes
Step Temp Press TotEng PotEng Enthalpy 
  490000    197.89238     256.9704   -27674.485   -28177.149   -27599.758 
  490495    175.78977    12.363666   -27796.072   -28242.594   -27792.482 
Loop time of 34.924 on 2 procs for 495 steps with 19652 atoms

Performance: 1.225 ns/day, 19.598 hours/ns, 14.174 timesteps/s
99.9% CPU use with 2 MPI tasks x no OpenMP threads

MPI task timing breakdown:
Section |  min time  |  avg time  |  max time  |%varavg| %total
---------------------------------------------------------------
Pair    | 18.606     | 18.671     | 18.736     |   1.5 | 53.46
Neigh   | 14.495     | 14.591     | 14.687     |   2.5 | 41.78
Comm    | 1.0542     | 1.0961     | 1.1381     |   4.0 |  3.14
Output  | 0.00018382 | 0.0002234  | 0.00026298 |   0.0 |  0.00
Modify  | 0.43263    | 0.44238    | 0.45213    |   1.5 |  1.27
Other   |            | 0.1236     |            |       |  0.35

Nlocal:    9826 ave 9830 max 9822 min
Histogram: 1 0 0 0 0 0 0 0 0 1
Nghost:    11178.5 ave 11192 max 11165 min
Histogram: 1 0 0 0 0 0 0 0 0 1
Neighs:    544329 ave 544416 max 544242 min
Histogram: 1 0 0 0 0 0 0 0 0 1

Total # of neighbors = 1088658
Ave neighs/atom = 55.3968
Neighbor list builds = 495
Dangerous builds not checked
Setting up Verlet run ...
  Unit style    : metal
  Current step  : 490495
  Time step     : 0.001
Per MPI rank memory allocation (min/avg/max) = 11.36 | 11.36 | 11.36 Mbytes
Step Temp Press TotEng PotEng Enthalpy 
  490495    175.78977    12.363666   -27796.072   -28242.594   -27792.482 
  500000    149.72339    51.998174   -27939.759    -28320.07   -27924.696 
Loop time of 678.394 on 2 procs for 9505 steps with 19652 atoms

Performance: 1.211 ns/day, 19.826 hours/ns, 14.011 timesteps/s
98.9% CPU use with 2 MPI tasks x no OpenMP threads

MPI task timing breakdown:
Section |  min time  |  avg time  |  max time  |%varavg| %total
---------------------------------------------------------------
Pair    | 361.24     | 361.34     | 361.44     |   0.5 | 53.26
Neigh   | 277.19     | 277.85     | 278.51     |   4.0 | 40.96
Comm    | 27.654     | 28.214     | 28.775     |  10.6 |  4.16
Output  | 0.038593   | 0.038674   | 0.038755   |   0.0 |  0.01
Modify  | 8.5771     | 8.5789     | 8.5806     |   0.1 |  1.26
Other   |            | 2.37       |            |       |  0.35

Nlocal:    9826 ave 9831 max 9821 min
Histogram: 1 0 0 0 0 0 0 0 0 1
Nghost:    11206 ave 11208 max 11204 min
Histogram: 1 0 0 0 0 0 0 0 0 1
Neighs:    546110 ave 546513 max 545706 min
Histogram: 1 0 0 0 0 0 0 0 0 1

Total # of neighbors = 1092219
Ave neighs/atom = 55.578
Neighbor list builds = 9505
Dangerous builds not checked
Setting up Verlet run ...
  Unit style    : metal
  Current step  : 500000
  Time step     : 0.001
Per MPI rank memory allocation (min/avg/max) = 11.36 | 11.36 | 11.36 Mbytes
Step Temp Press TotEng PotEng Enthalpy 
  500000    149.72339    51.998174   -27939.759    -28320.07   -27924.696 
  500495    127.65927   -251.22196     -28055.5   -28379.766   -28128.214 
Loop time of 35.3169 on 2 procs for 495 steps with 19652 atoms

Performance: 1.211 ns/day, 19.819 hours/ns, 14.016 timesteps/s
99.9% CPU use with 2 MPI tasks x no OpenMP threads

MPI task timing breakdown:
Section |  min time  |  avg time  |  max time  |%varavg| %total
---------------------------------------------------------------
Pair    | 18.965     | 19.006     | 19.046     |   0.9 | 53.82
Neigh   | 14.514     | 14.538     | 14.563     |   0.6 | 41.17
Comm    | 1.1297     | 1.1961     | 1.2626     |   6.1 |  3.39
Output  | 8.5115e-05 | 0.00012207 | 0.00015903 |   0.0 |  0.00
Modify  | 0.45074    | 0.45137    | 0.45199    |   0.1 |  1.28
Other   |            | 0.1251     |            |       |  0.35

Nlocal:    9826 ave 9836 max 9816 min
Histogram: 1 0 0 0 0 0 0 0 0 1
Nghost:    11215.5 ave 11225 max 11206 min
Histogram: 1 0 0 0 0 0 0 0 0 1
Neighs:    546870 ave 547508 max 546231 min
Histogram: 1 0 0 0 0 0 0 0 0 1

Total # of neighbors = 1093739
Ave neighs/atom = 55.6554
Neighbor list builds = 495
Dangerous builds not checked
Setting up Verlet run ...
  Unit style    : metal
  Current step  : 500495
  Time step     : 0.001
Per MPI rank memory allocation (min/avg/max) = 11.36 | 11.36 | 11.36 Mbytes
Step Temp Press TotEng PotEng Enthalpy 
  500495    127.65927   -251.22196     -28055.5   -28379.766   -28128.214 
  510000     100.3917    175.19631   -28194.294   -28449.298   -28143.754 
Loop time of 677.683 on 2 procs for 9505 steps with 19652 atoms

Performance: 1.212 ns/day, 19.805 hours/ns, 14.026 timesteps/s
99.4% CPU use with 2 MPI tasks x no OpenMP threads

MPI task timing breakdown:
Section |  min time  |  avg time  |  max time  |%varavg| %total
---------------------------------------------------------------
Pair    | 363.87     | 364.68     | 365.48     |   4.2 | 53.81
Neigh   | 279.99     | 280.28     | 280.57     |   1.7 | 41.36
Comm    | 20.515     | 21.632     | 22.75      |  24.0 |  3.19
Output  | 0.03455    | 0.034635   | 0.034719   |   0.0 |  0.01
Modify  | 8.6479     | 8.663      | 8.6782     |   0.5 |  1.28
Other   |            | 2.399      |            |       |  0.35

Nlocal:    9826 ave 9832 max 9820 min
Histogram: 1 0 0 0 0 0 0 0 0 1
Nghost:    11208.5 ave 11210 max 11207 min
Histogram: 1 0 0 0 0 0 0 0 0 1
Neighs:    549014 ave 549694 max 548334 min
Histogram: 1 0 0 0 0 0 0 0 0 1

Total # of neighbors = 1098028
Ave neighs/atom = 55.8736
Neighbor list builds = 9505
Dangerous builds not checked
Total wall time: 9:51:46
