LAMMPS (12 Dec 2018)
Lattice spacing in x,y,z = 4 4 4
Created orthogonal box = (0 0 0) to (68 68 68)
  1 by 1 by 2 MPI processor grid
Created 19652 atoms
  Time spent = 0.00178814 secs
Setting atom values ...
  417 settings made for type/fraction
Neighbor list info ...
  update every 1 steps, delay 0 steps, check no
  max neighbors/atom: 2000, page size: 100000
  master list distance cutoff = 8.5
  ghost atom cutoff = 8.5
  binsize = 4.25, bins = 16 16 16
  1 neighbor lists, perpetual/occasional/extra = 1 0 0
  (1) pair eam/alloy, perpetual
      attributes: half, newton on
      pair build: half/bin/atomonly/newton
      stencil: half/bin/3d/newton
      bin: standard
Setting up Verlet run ...
  Unit style    : metal
  Current step  : 0
  Time step     : 0.001
Per MPI rank memory allocation (min/avg/max) = 11.15 | 11.15 | 11.15 Mbytes
Step Temp Press TotEng PotEng Enthalpy 
       0          300     281057.6   -21441.367   -22203.394     33717.04 
    1000    165.53116    278738.89   -21441.154   -21861.618    33262.199 
Loop time of 101.918 on 2 procs for 1000 steps with 19652 atoms

Performance: 0.848 ns/day, 28.311 hours/ns, 9.812 timesteps/s
96.7% CPU use with 2 MPI tasks x no OpenMP threads

MPI task timing breakdown:
Section |  min time  |  avg time  |  max time  |%varavg| %total
---------------------------------------------------------------
Pair    | 57.781     | 57.914     | 58.047     |   1.7 | 56.82
Neigh   | 35.519     | 35.72      | 35.92      |   3.4 | 35.05
Comm    | 7.4411     | 7.7756     | 8.11       |  12.0 |  7.63
Output  | 0.00013304 | 0.0001595  | 0.00018597 |   0.0 |  0.00
Modify  | 0.25948    | 0.25956    | 0.25964    |   0.0 |  0.25
Other   |            | 0.2495     |            |       |  0.24

Nlocal:    9826 ave 9864 max 9788 min
Histogram: 1 0 0 0 0 0 0 0 0 1
Nghost:    14211 ave 14249 max 14173 min
Histogram: 1 0 0 0 0 0 0 0 0 1
Neighs:    786206 ave 789593 max 782819 min
Histogram: 1 0 0 0 0 0 0 0 0 1

Total # of neighbors = 1572412
Ave neighs/atom = 80.0128
Neighbor list builds = 1000
Dangerous builds not checked
Setting up Verlet run ...
  Unit style    : metal
  Current step  : 1000
  Time step     : 0.001
Per MPI rank memory allocation (min/avg/max) = 11.15 | 11.15 | 11.15 Mbytes
Step Temp Press TotEng PotEng Enthalpy 
    1000    165.53116    278738.89   -21441.154   -21861.618    33262.199 
    2000    265.75592    263.34322   -29504.111   -30179.155   -29428.371 
Loop time of 86.7944 on 2 procs for 1000 steps with 19652 atoms

Performance: 0.995 ns/day, 24.110 hours/ns, 11.521 timesteps/s
98.8% CPU use with 2 MPI tasks x no OpenMP threads

MPI task timing breakdown:
Section |  min time  |  avg time  |  max time  |%varavg| %total
---------------------------------------------------------------
Pair    | 47.632     | 47.731     | 47.831     |   1.4 | 54.99
Neigh   | 33.085     | 33.102     | 33.12      |   0.3 | 38.14
Comm    | 4.7284     | 4.8112     | 4.894      |   3.8 |  5.54
Output  | 0.00015211 | 0.00017262 | 0.00019312 |   0.0 |  0.00
Modify  | 0.89661    | 0.8971     | 0.89759    |   0.1 |  1.03
Other   |            | 0.2521     |            |       |  0.29

Nlocal:    9826 ave 9854 max 9798 min
Histogram: 1 0 0 0 0 0 0 0 0 1
Nghost:    10346 ave 10374 max 10318 min
Histogram: 1 0 0 0 0 0 0 0 0 1
Neighs:    538887 ave 540634 max 537140 min
Histogram: 1 0 0 0 0 0 0 0 0 1

Total # of neighbors = 1077774
Ave neighs/atom = 54.843
Neighbor list builds = 1000
Dangerous builds not checked
Setting up Verlet run ...
  Unit style    : metal
  Current step  : 2000
  Time step     : 0.001
Per MPI rank memory allocation (min/avg/max) = 11.15 | 11.15 | 11.15 Mbytes
Step Temp Press TotEng PotEng Enthalpy 
    2000    265.75592    263.34322   -29504.111   -30179.155   -29428.371 
   10000    2436.8152   -679.64109   -15415.952   -21605.684   -15693.458 
Loop time of 605.025 on 2 procs for 8000 steps with 19652 atoms

Performance: 1.142 ns/day, 21.008 hours/ns, 13.223 timesteps/s
97.7% CPU use with 2 MPI tasks x no OpenMP threads

MPI task timing breakdown:
Section |  min time  |  avg time  |  max time  |%varavg| %total
---------------------------------------------------------------
Pair    | 329.74     | 330.55     | 331.36     |   4.5 | 54.63
Neigh   | 228.4      | 229.37     | 230.34     |   6.4 | 37.91
Comm    | 32.805     | 34.59      | 36.376     |  30.4 |  5.72
Output  | 0.035759   | 0.035864   | 0.035969   |   0.1 |  0.01
Modify  | 8.4867     | 8.4869     | 8.487      |   0.0 |  1.40
Other   |            | 1.998      |            |       |  0.33

Nlocal:    9826 ave 9866 max 9786 min
Histogram: 1 0 0 0 0 0 0 0 0 1
Nghost:    9751 ave 9766 max 9736 min
Histogram: 1 0 0 0 0 0 0 0 0 1
Neighs:    374702 ave 377471 max 371933 min
Histogram: 1 0 0 0 0 0 0 0 0 1

Total # of neighbors = 749404
Ave neighs/atom = 38.1337
Neighbor list builds = 8000
Dangerous builds not checked
Setting up Verlet run ...
  Unit style    : metal
  Current step  : 10000
  Time step     : 0.001
Per MPI rank memory allocation (min/avg/max) = 11.21 | 11.21 | 11.21 Mbytes
Step Temp Press TotEng PotEng Enthalpy 
   10000    2436.8152   -679.64109   -15415.952   -21605.684   -15693.458 
   20000    2424.7684    123.43018   -15331.157    -21490.29   -15280.555 
   30000     2449.477    54.415074   -15403.346   -21625.241   -15381.162 
   40000     2430.556    980.96558   -15378.757   -21552.591    -14979.64 
Loop time of 2047.2 on 2 procs for 30000 steps with 19652 atoms

Performance: 1.266 ns/day, 18.956 hours/ns, 14.654 timesteps/s
98.4% CPU use with 2 MPI tasks x no OpenMP threads

MPI task timing breakdown:
Section |  min time  |  avg time  |  max time  |%varavg| %total
---------------------------------------------------------------
Pair    | 1105.3     | 1106.3     | 1107.4     |   3.2 | 54.04
Neigh   | 802.62     | 803.33     | 804.05     |   2.5 | 39.24
Comm    | 101.19     | 101.52     | 101.86     |   3.3 |  4.96
Output  | 0.12031    | 0.12038    | 0.12045    |   0.0 |  0.01
Modify  | 28.918     | 28.92      | 28.922     |   0.0 |  1.41
Other   |            | 6.977      |            |       |  0.34

Nlocal:    9826 ave 9866 max 9786 min
Histogram: 1 0 0 0 0 0 0 0 0 1
Nghost:    9777 ave 9782 max 9772 min
Histogram: 1 0 0 0 0 0 0 0 0 1
Neighs:    376661 ave 379521 max 373801 min
Histogram: 1 0 0 0 0 0 0 0 0 1

Total # of neighbors = 753322
Ave neighs/atom = 38.3331
Neighbor list builds = 30000
Dangerous builds not checked
Setting up Verlet run ...
  Unit style    : metal
  Current step  : 40000
  Time step     : 0.001
Per MPI rank memory allocation (min/avg/max) = 11.3 | 11.3 | 11.3 Mbytes
Step Temp Press TotEng PotEng Enthalpy 
   40000     2430.556    980.96558   -15378.757   -21552.591    -14979.64 
   40495    2385.5234   -293.08457   -15505.152   -21564.599   -15625.032 
Loop time of 31.0821 on 2 procs for 495 steps with 19652 atoms

Performance: 1.376 ns/day, 17.442 hours/ns, 15.926 timesteps/s
98.4% CPU use with 2 MPI tasks x no OpenMP threads

MPI task timing breakdown:
Section |  min time  |  avg time  |  max time  |%varavg| %total
---------------------------------------------------------------
Pair    | 16.387     | 16.419     | 16.45      |   0.8 | 52.82
Neigh   | 12.163     | 12.388     | 12.613     |   6.4 | 39.86
Comm    | 1.5535     | 1.751      | 1.9485     |  14.9 |  5.63
Output  | 9.8944e-05 | 0.00012541 | 0.00015187 |   0.0 |  0.00
Modify  | 0.4123     | 0.41535    | 0.41841    |   0.5 |  1.34
Other   |            | 0.109      |            |       |  0.35

Nlocal:    9826 ave 9858 max 9794 min
Histogram: 1 0 0 0 0 0 0 0 0 1
Nghost:    9784.5 ave 9800 max 9769 min
Histogram: 1 0 0 0 0 0 0 0 0 1
Neighs:    374370 ave 377067 max 371674 min
Histogram: 1 0 0 0 0 0 0 0 0 1

Total # of neighbors = 748741
Ave neighs/atom = 38.1
Neighbor list builds = 495
Dangerous builds not checked
Setting up Verlet run ...
  Unit style    : metal
  Current step  : 40495
  Time step     : 0.001
Per MPI rank memory allocation (min/avg/max) = 11.3 | 11.3 | 11.3 Mbytes
Step Temp Press TotEng PotEng Enthalpy 
   40495    2385.5234   -293.08457   -15505.152   -21564.599   -15625.032 
   50000    2417.1571    32.752098    -15541.19   -21680.989   -15527.896 
Loop time of 627.742 on 2 procs for 9505 steps with 19652 atoms

Performance: 1.308 ns/day, 18.345 hours/ns, 15.142 timesteps/s
98.5% CPU use with 2 MPI tasks x no OpenMP threads

MPI task timing breakdown:
Section |  min time  |  avg time  |  max time  |%varavg| %total
---------------------------------------------------------------
Pair    | 337.54     | 338.11     | 338.68     |   3.1 | 53.86
Neigh   | 248.65     | 248.83     | 249        |   1.1 | 39.64
Comm    | 30.141     | 30.549     | 30.957     |   7.4 |  4.87
Output  | 0.036878   | 0.036911   | 0.036943   |   0.0 |  0.01
Modify  | 8.092      | 8.0992     | 8.1063     |   0.3 |  1.29
Other   |            | 2.12       |            |       |  0.34

Nlocal:    9826 ave 9845 max 9807 min
Histogram: 1 0 0 0 0 0 0 0 0 1
Nghost:    9723 ave 9764 max 9682 min
Histogram: 1 0 0 0 0 0 0 0 0 1
Neighs:    377198 ave 378742 max 375653 min
Histogram: 1 0 0 0 0 0 0 0 0 1

Total # of neighbors = 754395
Ave neighs/atom = 38.3877
Neighbor list builds = 9505
Dangerous builds not checked
Setting up Verlet run ...
  Unit style    : metal
  Current step  : 50000
  Time step     : 0.001
Per MPI rank memory allocation (min/avg/max) = 11.31 | 11.31 | 11.31 Mbytes
Step Temp Press TotEng PotEng Enthalpy 
   50000    2417.1571    32.752098    -15541.19   -21680.989   -15527.896 
   50495    2365.9996    -391.5227   -15776.083   -21785.937   -15934.506 
Loop time of 31.5803 on 2 procs for 495 steps with 19652 atoms

Performance: 1.354 ns/day, 17.722 hours/ns, 15.674 timesteps/s
98.5% CPU use with 2 MPI tasks x no OpenMP threads

MPI task timing breakdown:
Section |  min time  |  avg time  |  max time  |%varavg| %total
---------------------------------------------------------------
Pair    | 17.089     | 17.127     | 17.165     |   0.9 | 54.23
Neigh   | 12.504     | 12.574     | 12.645     |   2.0 | 39.82
Comm    | 1.3039     | 1.3369     | 1.3699     |   2.9 |  4.23
Output  | 0.00013089 | 0.00016546 | 0.00020003 |   0.0 |  0.00
Modify  | 0.42728    | 0.42788    | 0.42848    |   0.1 |  1.35
Other   |            | 0.1141     |            |       |  0.36

Nlocal:    9826 ave 9897 max 9755 min
Histogram: 1 0 0 0 0 0 0 0 0 1
Nghost:    9786 ave 9808 max 9764 min
Histogram: 1 0 0 0 0 0 0 0 0 1
Neighs:    378259 ave 383507 max 373011 min
Histogram: 1 0 0 0 0 0 0 0 0 1

Total # of neighbors = 756518
Ave neighs/atom = 38.4957
Neighbor list builds = 495
Dangerous builds not checked
Setting up Verlet run ...
  Unit style    : metal
  Current step  : 50495
  Time step     : 0.001
Per MPI rank memory allocation (min/avg/max) = 11.31 | 11.31 | 11.31 Mbytes
Step Temp Press TotEng PotEng Enthalpy 
   50495    2365.9996    -391.5227   -15776.083   -21785.937   -15934.506 
   60000    2367.8054   -4.4070883   -15828.018   -21842.459   -15829.793 
Loop time of 647.265 on 2 procs for 9505 steps with 19652 atoms

Performance: 1.269 ns/day, 18.916 hours/ns, 14.685 timesteps/s
97.7% CPU use with 2 MPI tasks x no OpenMP threads

MPI task timing breakdown:
Section |  min time  |  avg time  |  max time  |%varavg| %total
---------------------------------------------------------------
Pair    | 348.89     | 349.04     | 349.19     |   0.8 | 53.93
Neigh   | 248.25     | 248.68     | 249.1      |   2.7 | 38.42
Comm    | 37.355     | 37.601     | 37.846     |   4.0 |  5.81
Output  | 0.0383     | 0.038326   | 0.038352   |   0.0 |  0.01
Modify  | 9.427      | 9.7545     | 10.082     |  10.5 |  1.51
Other   |            | 2.155      |            |       |  0.33

Nlocal:    9826 ave 9871 max 9781 min
Histogram: 1 0 0 0 0 0 0 0 0 1
Nghost:    9753 ave 9761 max 9745 min
Histogram: 1 0 0 0 0 0 0 0 0 1
Neighs:    380200 ave 383481 max 376918 min
Histogram: 1 0 0 0 0 0 0 0 0 1

Total # of neighbors = 760399
Ave neighs/atom = 38.6932
Neighbor list builds = 9505
Dangerous builds not checked
Setting up Verlet run ...
  Unit style    : metal
  Current step  : 60000
  Time step     : 0.001
Per MPI rank memory allocation (min/avg/max) = 11.32 | 11.32 | 11.33 Mbytes
Step Temp Press TotEng PotEng Enthalpy 
   60000    2367.8054   -4.4070883   -15828.018   -21842.459   -15829.793 
   60495    2319.9374    381.58475    -16091.71   -21984.563    -15939.53 
Loop time of 31.0754 on 2 procs for 495 steps with 19652 atoms

Performance: 1.376 ns/day, 17.438 hours/ns, 15.929 timesteps/s
99.1% CPU use with 2 MPI tasks x no OpenMP threads

MPI task timing breakdown:
Section |  min time  |  avg time  |  max time  |%varavg| %total
---------------------------------------------------------------
Pair    | 16.488     | 16.557     | 16.625     |   1.7 | 53.28
Neigh   | 12.398     | 12.513     | 12.627     |   3.2 | 40.27
Comm    | 1.2834     | 1.4699     | 1.6564     |  15.4 |  4.73
Output  | 9.9182e-05 | 0.0001471  | 0.00019503 |   0.0 |  0.00
Modify  | 0.41942    | 0.42227    | 0.42512    |   0.4 |  1.36
Other   |            | 0.1138     |            |       |  0.37

Nlocal:    9826 ave 9895 max 9757 min
Histogram: 1 0 0 0 0 0 0 0 0 1
Nghost:    9785 ave 9801 max 9769 min
Histogram: 1 0 0 0 0 0 0 0 0 1
Neighs:    383930 ave 388254 max 379605 min
Histogram: 1 0 0 0 0 0 0 0 0 1

Total # of neighbors = 767859
Ave neighs/atom = 39.0728
Neighbor list builds = 495
Dangerous builds not checked
Setting up Verlet run ...
  Unit style    : metal
  Current step  : 60495
  Time step     : 0.001
Per MPI rank memory allocation (min/avg/max) = 11.32 | 11.32 | 11.33 Mbytes
Step Temp Press TotEng PotEng Enthalpy 
   60495    2319.9374    381.58475    -16091.71   -21984.563    -15939.53 
   70000    2291.8588     310.3389   -16313.772   -22135.302   -16191.136 
Loop time of 640.842 on 2 procs for 9505 steps with 19652 atoms

Performance: 1.281 ns/day, 18.728 hours/ns, 14.832 timesteps/s
98.9% CPU use with 2 MPI tasks x no OpenMP threads

MPI task timing breakdown:
Section |  min time  |  avg time  |  max time  |%varavg| %total
---------------------------------------------------------------
Pair    | 347.8      | 347.82     | 347.85     |   0.1 | 54.28
Neigh   | 249.51     | 251.04     | 252.57     |   9.6 | 39.17
Comm    | 29.756     | 31.291     | 32.826     |  27.4 |  4.88
Output  | 0.037663   | 0.037693   | 0.037722   |   0.0 |  0.01
Modify  | 8.4486     | 8.4653     | 8.482      |   0.6 |  1.32
Other   |            | 2.182      |            |       |  0.34

Nlocal:    9826 ave 9880 max 9772 min
Histogram: 1 0 0 0 0 0 0 0 0 1
Nghost:    9902.5 ave 9935 max 9870 min
Histogram: 1 0 0 0 0 0 0 0 0 1
Neighs:    387340 ave 390776 max 383903 min
Histogram: 1 0 0 0 0 0 0 0 0 1

Total # of neighbors = 774679
Ave neighs/atom = 39.4199
Neighbor list builds = 9505
Dangerous builds not checked
Setting up Verlet run ...
  Unit style    : metal
  Current step  : 70000
  Time step     : 0.001
Per MPI rank memory allocation (min/avg/max) = 11.33 | 11.33 | 11.33 Mbytes
Step Temp Press TotEng PotEng Enthalpy 
   70000    2291.8588     310.3389   -16313.772   -22135.302   -16191.136 
   70495    2249.0405   -652.67604   -16413.768   -22126.536    -16672.71 
Loop time of 31.9109 on 2 procs for 495 steps with 19652 atoms

Performance: 1.340 ns/day, 17.907 hours/ns, 15.512 timesteps/s
99.7% CPU use with 2 MPI tasks x no OpenMP threads

MPI task timing breakdown:
Section |  min time  |  avg time  |  max time  |%varavg| %total
---------------------------------------------------------------
Pair    | 17.177     | 17.219     | 17.261     |   1.0 | 53.96
Neigh   | 12.502     | 12.628     | 12.753     |   3.5 | 39.57
Comm    | 1.3451     | 1.5182     | 1.6912     |  14.0 |  4.76
Output  | 9.5844e-05 | 0.00012398 | 0.00015211 |   0.0 |  0.00
Modify  | 0.42653    | 0.4301     | 0.43368    |   0.5 |  1.35
Other   |            | 0.116      |            |       |  0.36

Nlocal:    9826 ave 9872 max 9780 min
Histogram: 1 0 0 0 0 0 0 0 0 1
Nghost:    9831 ave 9852 max 9810 min
Histogram: 1 0 0 0 0 0 0 0 0 1
Neighs:    385691 ave 388710 max 382672 min
Histogram: 1 0 0 0 0 0 0 0 0 1

Total # of neighbors = 771382
Ave neighs/atom = 39.2521
Neighbor list builds = 495
Dangerous builds not checked
Setting up Verlet run ...
  Unit style    : metal
  Current step  : 70495
  Time step     : 0.001
Per MPI rank memory allocation (min/avg/max) = 11.33 | 11.33 | 11.33 Mbytes
Step Temp Press TotEng PotEng Enthalpy 
   70495    2249.0405   -652.67604   -16413.768   -22126.536    -16672.71 
   80000    2235.3175    375.27467   -16562.663   -22240.573   -16415.234 
Loop time of 646.294 on 2 procs for 9505 steps with 19652 atoms

Performance: 1.271 ns/day, 18.888 hours/ns, 14.707 timesteps/s
98.6% CPU use with 2 MPI tasks x no OpenMP threads

MPI task timing breakdown:
Section |  min time  |  avg time  |  max time  |%varavg| %total
---------------------------------------------------------------
Pair    | 349.28     | 349.61     | 349.94     |   1.7 | 54.09
Neigh   | 248.57     | 249.81     | 251.06     |   7.9 | 38.65
Comm    | 33.787     | 35.462     | 37.137     |  28.1 |  5.49
Output  | 0.037078   | 0.037092   | 0.037105   |   0.0 |  0.01
Modify  | 9.1112     | 9.2062     | 9.3011     |   3.1 |  1.42
Other   |            | 2.168      |            |       |  0.34

Nlocal:    9826 ave 9839 max 9813 min
Histogram: 1 0 0 0 0 0 0 0 0 1
Nghost:    9847 ave 9853 max 9841 min
Histogram: 1 0 0 0 0 0 0 0 0 1
Neighs:    389786 ave 389913 max 389658 min
Histogram: 1 0 0 0 0 0 0 0 0 1

Total # of neighbors = 779571
Ave neighs/atom = 39.6688
Neighbor list builds = 9505
Dangerous builds not checked
Setting up Verlet run ...
  Unit style    : metal
  Current step  : 80000
  Time step     : 0.001
Per MPI rank memory allocation (min/avg/max) = 11.34 | 11.34 | 11.34 Mbytes
Step Temp Press TotEng PotEng Enthalpy 
   80000    2235.3175    375.27467   -16562.663   -22240.573   -16415.234 
   80495    2207.4878   -191.08152   -16739.233   -22346.453   -16813.992 
Loop time of 32.4101 on 2 procs for 495 steps with 19652 atoms

Performance: 1.320 ns/day, 18.187 hours/ns, 15.273 timesteps/s
96.2% CPU use with 2 MPI tasks x no OpenMP threads

MPI task timing breakdown:
Section |  min time  |  avg time  |  max time  |%varavg| %total
---------------------------------------------------------------
Pair    | 17.682     | 17.746     | 17.81      |   1.5 | 54.75
Neigh   | 11.99      | 12.142     | 12.294     |   4.4 | 37.46
Comm    | 1.911      | 2.0052     | 2.0993     |   6.6 |  6.19
Output  | 8.893e-05  | 0.00012696 | 0.00016499 |   0.0 |  0.00
Modify  | 0.40227    | 0.40783    | 0.41338    |   0.9 |  1.26
Other   |            | 0.1089     |            |       |  0.34

Nlocal:    9826 ave 9827 max 9825 min
Histogram: 1 0 0 0 0 0 0 0 0 1
Nghost:    9951.5 ave 9961 max 9942 min
Histogram: 1 0 0 0 0 0 0 0 0 1
Neighs:    391334 ave 392305 max 390362 min
Histogram: 1 0 0 0 0 0 0 0 0 1

Total # of neighbors = 782667
Ave neighs/atom = 39.8263
Neighbor list builds = 495
Dangerous builds not checked
Setting up Verlet run ...
  Unit style    : metal
  Current step  : 80495
  Time step     : 0.001
Per MPI rank memory allocation (min/avg/max) = 11.34 | 11.34 | 11.34 Mbytes
Step Temp Press TotEng PotEng Enthalpy 
   80495    2207.4878   -191.08152   -16739.233   -22346.453   -16813.992 
   90000    2226.7141   -56.402082    -16832.45   -22488.506    -16854.36 
Loop time of 643.436 on 2 procs for 9505 steps with 19652 atoms

Performance: 1.276 ns/day, 18.804 hours/ns, 14.772 timesteps/s
99.0% CPU use with 2 MPI tasks x no OpenMP threads

MPI task timing breakdown:
Section |  min time  |  avg time  |  max time  |%varavg| %total
---------------------------------------------------------------
Pair    | 350.22     | 351.52     | 352.81     |   6.9 | 54.63
Neigh   | 247.92     | 248.14     | 248.37     |   1.4 | 38.57
Comm    | 31.99      | 33.514     | 35.037     |  26.3 |  5.21
Output  | 0.036365   | 0.036407   | 0.03645    |   0.0 |  0.01
Modify  | 8.0743     | 8.0795     | 8.0846     |   0.2 |  1.26
Other   |            | 2.148      |            |       |  0.33

Nlocal:    9826 ave 9845 max 9807 min
Histogram: 1 0 0 0 0 0 0 0 0 1
Nghost:    9933 ave 9934 max 9932 min
Histogram: 1 0 0 0 0 0 0 0 0 1
Neighs:    393670 ave 395059 max 392281 min
Histogram: 1 0 0 0 0 0 0 0 0 1

Total # of neighbors = 787340
Ave neighs/atom = 40.0641
Neighbor list builds = 9505
Dangerous builds not checked
Setting up Verlet run ...
  Unit style    : metal
  Current step  : 90000
  Time step     : 0.001
Per MPI rank memory allocation (min/avg/max) = 11.34 | 11.34 | 11.34 Mbytes
Step Temp Press TotEng PotEng Enthalpy 
   90000    2226.7141   -56.402082    -16832.45   -22488.506    -16854.36 
   90495    2164.7982   -176.59736   -17036.605    -22535.39   -17105.207 
Loop time of 31.2358 on 2 procs for 495 steps with 19652 atoms

Performance: 1.369 ns/day, 17.529 hours/ns, 15.847 timesteps/s
99.0% CPU use with 2 MPI tasks x no OpenMP threads

MPI task timing breakdown:
Section |  min time  |  avg time  |  max time  |%varavg| %total
---------------------------------------------------------------
Pair    | 16.977     | 17.026     | 17.076     |   1.2 | 54.51
Neigh   | 11.944     | 12.078     | 12.212     |   3.8 | 38.67
Comm    | 1.4314     | 1.6174     | 1.8033     |  14.6 |  5.18
Output  | 8.0824e-05 | 0.00012434 | 0.00016785 |   0.0 |  0.00
Modify  | 0.40306    | 0.40505    | 0.40703    |   0.3 |  1.30
Other   |            | 0.1088     |            |       |  0.35

Nlocal:    9826 ave 9854 max 9798 min
Histogram: 1 0 0 0 0 0 0 0 0 1
Nghost:    9935 ave 9980 max 9890 min
Histogram: 1 0 0 0 0 0 0 0 0 1
Neighs:    394016 ave 395539 max 392493 min
Histogram: 1 0 0 0 0 0 0 0 0 1

Total # of neighbors = 788032
Ave neighs/atom = 40.0993
Neighbor list builds = 495
Dangerous builds not checked
Setting up Verlet run ...
  Unit style    : metal
  Current step  : 90495
  Time step     : 0.001
Per MPI rank memory allocation (min/avg/max) = 11.34 | 11.34 | 11.34 Mbytes
Step Temp Press TotEng PotEng Enthalpy 
   90495    2164.7982   -176.59736   -17036.605    -22535.39   -17105.207 
  100000    2158.0325   -692.95753   -17065.189   -22546.788   -17334.355 
Loop time of 649.019 on 2 procs for 9505 steps with 19652 atoms

Performance: 1.265 ns/day, 18.967 hours/ns, 14.645 timesteps/s
98.6% CPU use with 2 MPI tasks x no OpenMP threads

MPI task timing breakdown:
Section |  min time  |  avg time  |  max time  |%varavg| %total
---------------------------------------------------------------
Pair    | 357.33     | 357.62     | 357.91     |   1.5 | 55.10
Neigh   | 246.57     | 246.81     | 247.04     |   1.5 | 38.03
Comm    | 33.801     | 34.336     | 34.87      |   9.1 |  5.29
Output  | 0.038915   | 0.03895    | 0.038985   |   0.0 |  0.01
Modify  | 8.0711     | 8.074      | 8.0769     |   0.1 |  1.24
Other   |            | 2.144      |            |       |  0.33

Nlocal:    9826 ave 9829 max 9823 min
Histogram: 1 0 0 0 0 0 0 0 0 1
Nghost:    9937 ave 9977 max 9897 min
Histogram: 1 0 0 0 0 0 0 0 0 1
Neighs:    393872 ave 394388 max 393357 min
Histogram: 1 0 0 0 0 0 0 0 0 1

Total # of neighbors = 787745
Ave neighs/atom = 40.0847
Neighbor list builds = 9505
Dangerous builds not checked
Setting up Verlet run ...
  Unit style    : metal
  Current step  : 100000
  Time step     : 0.001
Per MPI rank memory allocation (min/avg/max) = 11.34 | 11.34 | 11.34 Mbytes
Step Temp Press TotEng PotEng Enthalpy 
  100000    2158.0325   -692.95753   -17065.189   -22546.788   -17334.355 
  100495     2128.235    16.126889   -17362.579    -22768.49     -17356.4 
Loop time of 32.8888 on 2 procs for 495 steps with 19652 atoms

Performance: 1.300 ns/day, 18.456 hours/ns, 15.051 timesteps/s
99.2% CPU use with 2 MPI tasks x no OpenMP threads

MPI task timing breakdown:
Section |  min time  |  avg time  |  max time  |%varavg| %total
---------------------------------------------------------------
Pair    | 17.824     | 17.88      | 17.936     |   1.3 | 54.37
Neigh   | 12.55      | 12.874     | 13.197     |   9.0 | 39.14
Comm    | 1.2991     | 1.5772     | 1.8554     |  22.1 |  4.80
Output  | 0.00010395 | 0.00015807 | 0.00021219 |   0.0 |  0.00
Modify  | 0.43072    | 0.43899    | 0.44726    |   1.2 |  1.33
Other   |            | 0.1182     |            |       |  0.36

Nlocal:    9826 ave 9837 max 9815 min
Histogram: 1 0 0 0 0 0 0 0 0 1
Nghost:    10003.5 ave 10006 max 10001 min
Histogram: 1 0 0 0 0 0 0 0 0 1
Neighs:    399720 ave 401995 max 397445 min
Histogram: 1 0 0 0 0 0 0 0 0 1

Total # of neighbors = 799440
Ave neighs/atom = 40.6798
Neighbor list builds = 495
Dangerous builds not checked
Setting up Verlet run ...
  Unit style    : metal
  Current step  : 100495
  Time step     : 0.001
Per MPI rank memory allocation (min/avg/max) = 11.34 | 11.34 | 11.34 Mbytes
Step Temp Press TotEng PotEng Enthalpy 
  100495     2128.235    16.126889   -17362.579    -22768.49     -17356.4 
  110000    2097.1099    404.79692   -17483.902   -22810.752   -17329.595 
Loop time of 661.75 on 2 procs for 9505 steps with 19652 atoms

Performance: 1.241 ns/day, 19.339 hours/ns, 14.363 timesteps/s
98.5% CPU use with 2 MPI tasks x no OpenMP threads

MPI task timing breakdown:
Section |  min time  |  avg time  |  max time  |%varavg| %total
---------------------------------------------------------------
Pair    | 352.53     | 354.22     | 355.91     |   9.0 | 53.53
Neigh   | 255.29     | 257.09     | 258.89     |  11.2 | 38.85
Comm    | 38.958     | 39.266     | 39.574     |   4.9 |  5.93
Output  | 0.034863   | 0.034898   | 0.034933   |   0.0 |  0.01
Modify  | 8.8425     | 9.0168     | 9.1912     |   5.8 |  1.36
Other   |            | 2.121      |            |       |  0.32

Nlocal:    9826 ave 9833 max 9819 min
Histogram: 1 0 0 0 0 0 0 0 0 1
Nghost:    10032 ave 10066 max 9998 min
Histogram: 1 0 0 0 0 0 0 0 0 1
Neighs:    401450 ave 406233 max 396668 min
Histogram: 1 0 0 0 0 0 0 0 0 1

Total # of neighbors = 802901
Ave neighs/atom = 40.8559
Neighbor list builds = 9505
Dangerous builds not checked
Setting up Verlet run ...
  Unit style    : metal
  Current step  : 110000
  Time step     : 0.001
Per MPI rank memory allocation (min/avg/max) = 11.35 | 11.35 | 11.35 Mbytes
Step Temp Press TotEng PotEng Enthalpy 
  110000    2097.1099    404.79692   -17483.902   -22810.752   -17329.595 
  110495     2064.437   -132.02838   -17649.247   -22893.105   -17699.552 
Loop time of 31.1828 on 2 procs for 495 steps with 19652 atoms

Performance: 1.372 ns/day, 17.499 hours/ns, 15.874 timesteps/s
99.4% CPU use with 2 MPI tasks x no OpenMP threads

MPI task timing breakdown:
Section |  min time  |  avg time  |  max time  |%varavg| %total
---------------------------------------------------------------
Pair    | 16.374     | 16.571     | 16.768     |   4.8 | 53.14
Neigh   | 12.27      | 12.387     | 12.505     |   3.3 | 39.73
Comm    | 1.4101     | 1.7271     | 2.0441     |  24.1 |  5.54
Output  | 9.5844e-05 | 0.00014544 | 0.00019503 |   0.0 |  0.00
Modify  | 0.39067    | 0.39267    | 0.39467    |   0.3 |  1.26
Other   |            | 0.1046     |            |       |  0.34

Nlocal:    9826 ave 9859 max 9793 min
Histogram: 1 0 0 0 0 0 0 0 0 1
Nghost:    10064 ave 10073 max 10055 min
Histogram: 1 0 0 0 0 0 0 0 0 1
Neighs:    401564 ave 407705 max 395422 min
Histogram: 1 0 0 0 0 0 0 0 0 1

Total # of neighbors = 803127
Ave neighs/atom = 40.8674
Neighbor list builds = 495
Dangerous builds not checked
Setting up Verlet run ...
  Unit style    : metal
  Current step  : 110495
  Time step     : 0.001
Per MPI rank memory allocation (min/avg/max) = 11.35 | 11.35 | 11.35 Mbytes
Step Temp Press TotEng PotEng Enthalpy 
  110495     2064.437   -132.02838   -17649.247   -22893.105   -17699.552 
  120000    2063.0473    270.43929   -17781.367   -23021.695   -17679.335 
Loop time of 671.335 on 2 procs for 9505 steps with 19652 atoms

Performance: 1.223 ns/day, 19.619 hours/ns, 14.158 timesteps/s
99.1% CPU use with 2 MPI tasks x no OpenMP threads

MPI task timing breakdown:
Section |  min time  |  avg time  |  max time  |%varavg| %total
---------------------------------------------------------------
Pair    | 359.29     | 361.12     | 362.95     |   9.6 | 53.79
Neigh   | 260.54     | 264.3      | 268.07     |  23.2 | 39.37
Comm    | 29.303     | 35.005     | 40.708     |  96.4 |  5.21
Output  | 0.03922    | 0.039235   | 0.039251   |   0.0 |  0.01
Modify  | 8.6239     | 8.7037     | 8.7836     |   2.7 |  1.30
Other   |            | 2.16       |            |       |  0.32

Nlocal:    9826 ave 9845 max 9807 min
Histogram: 1 0 0 0 0 0 0 0 0 1
Nghost:    10034 ave 10065 max 10003 min
Histogram: 1 0 0 0 0 0 0 0 0 1
Neighs:    405696 ave 408090 max 403303 min
Histogram: 1 0 0 0 0 0 0 0 0 1

Total # of neighbors = 811393
Ave neighs/atom = 41.2881
Neighbor list builds = 9505
Dangerous builds not checked
Setting up Verlet run ...
  Unit style    : metal
  Current step  : 120000
  Time step     : 0.001
Per MPI rank memory allocation (min/avg/max) = 11.35 | 11.35 | 11.35 Mbytes
Step Temp Press TotEng PotEng Enthalpy 
  120000    2063.0473    270.43929   -17781.367   -23021.695   -17679.335 
  120495    2004.4062   -490.99339   -17939.305   -23030.679   -18125.228 
Loop time of 34.2104 on 2 procs for 495 steps with 19652 atoms

Performance: 1.250 ns/day, 19.198 hours/ns, 14.469 timesteps/s
99.1% CPU use with 2 MPI tasks x no OpenMP threads

MPI task timing breakdown:
Section |  min time  |  avg time  |  max time  |%varavg| %total
---------------------------------------------------------------
Pair    | 18.223     | 18.239     | 18.255     |   0.4 | 53.31
Neigh   | 13.343     | 13.565     | 13.787     |   6.0 | 39.65
Comm    | 1.6014     | 1.8517     | 2.102      |  18.4 |  5.41
Output  | 9.799e-05  | 0.00013793 | 0.00017786 |   0.0 |  0.00
Modify  | 0.42961    | 0.43984    | 0.45007    |   1.5 |  1.29
Other   |            | 0.1151     |            |       |  0.34

Nlocal:    9826 ave 9858 max 9794 min
Histogram: 1 0 0 0 0 0 0 0 0 1
Nghost:    10071.5 ave 10076 max 10067 min
Histogram: 1 0 0 0 0 0 0 0 0 1
Neighs:    404228 ave 405992 max 402464 min
Histogram: 1 0 0 0 0 0 0 0 0 1

Total # of neighbors = 808456
Ave neighs/atom = 41.1386
Neighbor list builds = 495
Dangerous builds not checked
Setting up Verlet run ...
  Unit style    : metal
  Current step  : 120495
  Time step     : 0.001
Per MPI rank memory allocation (min/avg/max) = 11.35 | 11.35 | 11.35 Mbytes
Step Temp Press TotEng PotEng Enthalpy 
  120495    2004.4062   -490.99339   -17939.305   -23030.679   -18125.228 
  130000     1984.014    219.57407   -18152.773    -23192.35   -18070.605 
Loop time of 673.701 on 2 procs for 9505 steps with 19652 atoms

Performance: 1.219 ns/day, 19.689 hours/ns, 14.109 timesteps/s
99.1% CPU use with 2 MPI tasks x no OpenMP threads

MPI task timing breakdown:
Section |  min time  |  avg time  |  max time  |%varavg| %total
---------------------------------------------------------------
Pair    | 361.06     | 363.49     | 365.93     |  12.8 | 53.95
Neigh   | 263.66     | 263.86     | 264.05     |   1.2 | 39.17
Comm    | 33.444     | 36.09      | 38.736     |  44.0 |  5.36
Output  | 0.037745   | 0.037781   | 0.037817   |   0.0 |  0.01
Modify  | 8.058      | 8.072      | 8.086      |   0.5 |  1.20
Other   |            | 2.153      |            |       |  0.32

Nlocal:    9826 ave 9827 max 9825 min
Histogram: 1 0 0 0 0 0 0 0 0 1
Nghost:    10107.5 ave 10113 max 10102 min
Histogram: 1 0 0 0 0 0 0 0 0 1
Neighs:    408791 ave 412513 max 405069 min
Histogram: 1 0 0 0 0 0 0 0 0 1

Total # of neighbors = 817582
Ave neighs/atom = 41.603
Neighbor list builds = 9505
Dangerous builds not checked
Setting up Verlet run ...
  Unit style    : metal
  Current step  : 130000
  Time step     : 0.001
Per MPI rank memory allocation (min/avg/max) = 11.35 | 11.35 | 11.35 Mbytes
Step Temp Press TotEng PotEng Enthalpy 
  130000     1984.014    219.57407   -18152.773    -23192.35   -18070.605 
  130495    1939.9387   -493.48562   -18249.935   -23177.557   -18435.276 
Loop time of 34.4496 on 2 procs for 495 steps with 19652 atoms

Performance: 1.241 ns/day, 19.332 hours/ns, 14.369 timesteps/s
97.9% CPU use with 2 MPI tasks x no OpenMP threads

MPI task timing breakdown:
Section |  min time  |  avg time  |  max time  |%varavg| %total
---------------------------------------------------------------
Pair    | 18.877     | 18.915     | 18.954     |   0.9 | 54.91
Neigh   | 13.308     | 13.382     | 13.455     |   2.0 | 38.84
Comm    | 1.5714     | 1.6079     | 1.6445     |   2.9 |  4.67
Output  | 0.00010204 | 0.00015295 | 0.00020385 |   0.0 |  0.00
Modify  | 0.42854    | 0.4288     | 0.42906    |   0.0 |  1.24
Other   |            | 0.116      |            |       |  0.34

Nlocal:    9826 ave 9845 max 9807 min
Histogram: 1 0 0 0 0 0 0 0 0 1
Nghost:    10069.5 ave 10095 max 10044 min
Histogram: 1 0 0 0 0 0 0 0 0 1
Neighs:    407495 ave 412156 max 402834 min
Histogram: 1 0 0 0 0 0 0 0 0 1

Total # of neighbors = 814990
Ave neighs/atom = 41.4711
Neighbor list builds = 495
Dangerous builds not checked
Setting up Verlet run ...
  Unit style    : metal
  Current step  : 130495
  Time step     : 0.001
Per MPI rank memory allocation (min/avg/max) = 11.35 | 11.35 | 11.35 Mbytes
Step Temp Press TotEng PotEng Enthalpy 
  130495    1939.9387   -493.48562   -18249.935   -23177.557   -18435.276 
  140000    1942.0979      105.205   -18373.177   -23306.282   -18333.962 
Loop time of 694.699 on 2 procs for 9505 steps with 19652 atoms

Performance: 1.182 ns/day, 20.302 hours/ns, 13.682 timesteps/s
99.2% CPU use with 2 MPI tasks x no OpenMP threads

MPI task timing breakdown:
Section |  min time  |  avg time  |  max time  |%varavg| %total
---------------------------------------------------------------
Pair    | 373.75     | 376.31     | 378.88     |  13.2 | 54.17
Neigh   | 268        | 272.14     | 276.29     |  25.1 | 39.17
Comm    | 28.728     | 35.543     | 42.358     | 114.3 |  5.12
Output  | 0.035672   | 0.035691   | 0.03571    |   0.0 |  0.01
Modify  | 8.298      | 8.3906     | 8.4832     |   3.2 |  1.21
Other   |            | 2.269      |            |       |  0.33

Nlocal:    9826 ave 9839 max 9813 min
Histogram: 1 0 0 0 0 0 0 0 0 1
Nghost:    10113 ave 10125 max 10101 min
Histogram: 1 0 0 0 0 0 0 0 0 1
Neighs:    410547 ave 415427 max 405667 min
Histogram: 1 0 0 0 0 0 0 0 0 1

Total # of neighbors = 821094
Ave neighs/atom = 41.7817
Neighbor list builds = 9505
Dangerous builds not checked
Setting up Verlet run ...
  Unit style    : metal
  Current step  : 140000
  Time step     : 0.001
Per MPI rank memory allocation (min/avg/max) = 11.35 | 11.35 | 11.35 Mbytes
Step Temp Press TotEng PotEng Enthalpy 
  140000    1942.0979      105.205   -18373.177   -23306.282   -18333.962 
  140495    1913.8795   -800.19607   -18493.229   -23354.657   -18791.815 
Loop time of 34.813 on 2 procs for 495 steps with 19652 atoms

Performance: 1.229 ns/day, 19.536 hours/ns, 14.219 timesteps/s
98.8% CPU use with 2 MPI tasks x no OpenMP threads

MPI task timing breakdown:
Section |  min time  |  avg time  |  max time  |%varavg| %total
---------------------------------------------------------------
Pair    | 18.826     | 18.961     | 19.096     |   3.1 | 54.47
Neigh   | 13.702     | 13.927     | 14.151     |   6.0 | 40.00
Comm    | 0.99703    | 1.3646     | 1.7322     |  31.5 |  3.92
Output  | 7.2002e-05 | 0.0001055  | 0.000139   |   0.0 |  0.00
Modify  | 0.4334     | 0.43938    | 0.44535    |   0.9 |  1.26
Other   |            | 0.1212     |            |       |  0.35

Nlocal:    9826 ave 9850 max 9802 min
Histogram: 1 0 0 0 0 0 0 0 0 1
Nghost:    10119.5 ave 10163 max 10076 min
Histogram: 1 0 0 0 0 0 0 0 0 1
Neighs:    410260 ave 414891 max 405628 min
Histogram: 1 0 0 0 0 0 0 0 0 1

Total # of neighbors = 820519
Ave neighs/atom = 41.7524
Neighbor list builds = 495
Dangerous builds not checked
Setting up Verlet run ...
  Unit style    : metal
  Current step  : 140495
  Time step     : 0.001
Per MPI rank memory allocation (min/avg/max) = 11.35 | 11.35 | 11.35 Mbytes
Step Temp Press TotEng PotEng Enthalpy 
  140495    1913.8795   -800.19607   -18493.229   -23354.657   -18791.815 
  150000    1914.2084   -108.22113   -18602.788   -23465.052   -18642.866 
Loop time of 709.9 on 2 procs for 9505 steps with 19652 atoms

Performance: 1.157 ns/day, 20.746 hours/ns, 13.389 timesteps/s
99.3% CPU use with 2 MPI tasks x no OpenMP threads

MPI task timing breakdown:
Section |  min time  |  avg time  |  max time  |%varavg| %total
---------------------------------------------------------------
Pair    | 381.85     | 384.76     | 387.66     |  14.8 | 54.20
Neigh   | 279.72     | 282.51     | 285.3      |  16.6 | 39.80
Comm    | 25.103     | 30.852     | 36.6       | 103.5 |  4.35
Output  | 0.036508   | 0.036584   | 0.036661   |   0.0 |  0.01
Modify  | 9.3588     | 9.4002     | 9.4416     |   1.4 |  1.32
Other   |            | 2.345      |            |       |  0.33

Nlocal:    9826 ave 9857 max 9795 min
Histogram: 1 0 0 0 0 0 0 0 0 1
Nghost:    10105 ave 10110 max 10100 min
Histogram: 1 0 0 0 0 0 0 0 0 1
Neighs:    413234 ave 419562 max 406907 min
Histogram: 1 0 0 0 0 0 0 0 0 1

Total # of neighbors = 826469
Ave neighs/atom = 42.0552
Neighbor list builds = 9505
Dangerous builds not checked
Setting up Verlet run ...
  Unit style    : metal
  Current step  : 150000
  Time step     : 0.001
Per MPI rank memory allocation (min/avg/max) = 11.35 | 11.35 | 11.35 Mbytes
Step Temp Press TotEng PotEng Enthalpy 
  150000    1914.2084   -108.22113   -18602.788   -23465.052   -18642.866 
  150495    1872.8575   -277.34589    -18804.63   -23561.859   -18906.915 
Loop time of 37.0279 on 2 procs for 495 steps with 19652 atoms

Performance: 1.155 ns/day, 20.779 hours/ns, 13.368 timesteps/s
98.6% CPU use with 2 MPI tasks x no OpenMP threads

MPI task timing breakdown:
Section |  min time  |  avg time  |  max time  |%varavg| %total
---------------------------------------------------------------
Pair    | 19.777     | 20.21      | 20.642     |   9.6 | 54.58
Neigh   | 14.816     | 14.846     | 14.877     |   0.8 | 40.10
Comm    | 0.96811    | 1.3723     | 1.7766     |  34.5 |  3.71
Output  | 0.0001049  | 0.00023746 | 0.00037003 |   0.0 |  0.00
Modify  | 0.47213    | 0.47318    | 0.47423    |   0.2 |  1.28
Other   |            | 0.1259     |            |       |  0.34

Nlocal:    9826 ave 9848 max 9804 min
Histogram: 1 0 0 0 0 0 0 0 0 1
Nghost:    10166.5 ave 10200 max 10133 min
Histogram: 1 0 0 0 0 0 0 0 0 1
Neighs:    414887 ave 421218 max 408556 min
Histogram: 1 0 0 0 0 0 0 0 0 1

Total # of neighbors = 829774
Ave neighs/atom = 42.2234
Neighbor list builds = 495
Dangerous builds not checked
Setting up Verlet run ...
  Unit style    : metal
  Current step  : 150495
  Time step     : 0.001
Per MPI rank memory allocation (min/avg/max) = 11.35 | 11.35 | 11.35 Mbytes
Step Temp Press TotEng PotEng Enthalpy 
  150495    1872.8575   -277.34589    -18804.63   -23561.859   -18906.915 
  160000    1851.2304   -184.10249   -18965.196    -23667.49   -19032.714 
Loop time of 742.7 on 2 procs for 9505 steps with 19652 atoms

Performance: 1.106 ns/day, 21.705 hours/ns, 12.798 timesteps/s
98.5% CPU use with 2 MPI tasks x no OpenMP threads

MPI task timing breakdown:
Section |  min time  |  avg time  |  max time  |%varavg| %total
---------------------------------------------------------------
Pair    | 408.59     | 411.92     | 415.25     |  16.4 | 55.46
Neigh   | 289.61     | 290.92     | 292.24     |   7.7 | 39.17
Comm    | 23.697     | 28.423     | 33.148     |  88.6 |  3.83
Output  | 0.037438   | 0.037534   | 0.037629   |   0.0 |  0.01
Modify  | 8.8891     | 8.9652     | 9.0412     |   2.5 |  1.21
Other   |            | 2.426      |            |       |  0.33

Nlocal:    9826 ave 9847 max 9805 min
Histogram: 1 0 0 0 0 0 0 0 0 1
Nghost:    10158.5 ave 10167 max 10150 min
Histogram: 1 0 0 0 0 0 0 0 0 1
Neighs:    417248 ave 422595 max 411901 min
Histogram: 1 0 0 0 0 0 0 0 0 1

Total # of neighbors = 834496
Ave neighs/atom = 42.4637
Neighbor list builds = 9505
Dangerous builds not checked
Setting up Verlet run ...
  Unit style    : metal
  Current step  : 160000
  Time step     : 0.001
Per MPI rank memory allocation (min/avg/max) = 11.36 | 11.36 | 11.36 Mbytes
Step Temp Press TotEng PotEng Enthalpy 
  160000    1851.2304   -184.10249   -18965.196    -23667.49   -19032.714 
  160495    1819.4001    184.33636   -19162.407   -23783.849   -19095.254 
Loop time of 35.6093 on 2 procs for 495 steps with 19652 atoms

Performance: 1.201 ns/day, 19.983 hours/ns, 13.901 timesteps/s
98.6% CPU use with 2 MPI tasks x no OpenMP threads

MPI task timing breakdown:
Section |  min time  |  avg time  |  max time  |%varavg| %total
---------------------------------------------------------------
Pair    | 19.031     | 19.089     | 19.147     |   1.3 | 53.61
Neigh   | 14.08      | 14.145     | 14.21      |   1.7 | 39.72
Comm    | 1.6743     | 1.797      | 1.9198     |   9.2 |  5.05
Output  | 8.1062e-05 | 0.00013602 | 0.00019097 |   0.0 |  0.00
Modify  | 0.45419    | 0.45431    | 0.45443    |   0.0 |  1.28
Other   |            | 0.1238     |            |       |  0.35

Nlocal:    9826 ave 9831 max 9821 min
Histogram: 1 0 0 0 0 0 0 0 0 1
Nghost:    10207 ave 10217 max 10197 min
Histogram: 1 0 0 0 0 0 0 0 0 1
Neighs:    420151 ave 424316 max 415986 min
Histogram: 1 0 0 0 0 0 0 0 0 1

Total # of neighbors = 840302
Ave neighs/atom = 42.7591
Neighbor list builds = 495
Dangerous builds not checked
Setting up Verlet run ...
  Unit style    : metal
  Current step  : 160495
  Time step     : 0.001
Per MPI rank memory allocation (min/avg/max) = 11.36 | 11.36 | 11.36 Mbytes
Step Temp Press TotEng PotEng Enthalpy 
  160495    1819.4001    184.33636   -19162.407   -23783.849   -19095.254 
  170000    1799.7577   -9.9642735    -19287.21   -23858.759   -19290.828 
Loop time of 709.877 on 2 procs for 9505 steps with 19652 atoms

Performance: 1.157 ns/day, 20.746 hours/ns, 13.390 timesteps/s
99.3% CPU use with 2 MPI tasks x no OpenMP threads

MPI task timing breakdown:
Section |  min time  |  avg time  |  max time  |%varavg| %total
---------------------------------------------------------------
Pair    | 388.21     | 389.64     | 391.07     |   7.3 | 54.89
Neigh   | 282.4      | 284.33     | 286.27     |  11.5 | 40.05
Comm    | 21.368     | 24.746     | 28.125     |  67.9 |  3.49
Output  | 0.039165   | 0.039193   | 0.039222   |   0.0 |  0.01
Modify  | 8.7009     | 8.7306     | 8.7604     |   1.0 |  1.23
Other   |            | 2.389      |            |       |  0.34

Nlocal:    9826 ave 9842 max 9810 min
Histogram: 1 0 0 0 0 0 0 0 0 1
Nghost:    10236 ave 10237 max 10235 min
Histogram: 1 0 0 0 0 0 0 0 0 1
Neighs:    421558 ave 424781 max 418335 min
Histogram: 1 0 0 0 0 0 0 0 0 1

Total # of neighbors = 843116
Ave neighs/atom = 42.9023
Neighbor list builds = 9505
Dangerous builds not checked
Setting up Verlet run ...
  Unit style    : metal
  Current step  : 170000
  Time step     : 0.001
Per MPI rank memory allocation (min/avg/max) = 11.36 | 11.36 | 11.36 Mbytes
Step Temp Press TotEng PotEng Enthalpy 
  170000    1799.7577   -9.9642735    -19287.21   -23858.759   -19290.828 
  170495    1753.7324   -318.60116   -19440.704   -23895.344   -19556.376 
Loop time of 34.6875 on 2 procs for 495 steps with 19652 atoms

Performance: 1.233 ns/day, 19.465 hours/ns, 14.270 timesteps/s
98.7% CPU use with 2 MPI tasks x no OpenMP threads

MPI task timing breakdown:
Section |  min time  |  avg time  |  max time  |%varavg| %total
---------------------------------------------------------------
Pair    | 18.736     | 18.902     | 19.068     |   3.8 | 54.49
Neigh   | 13.757     | 14.001     | 14.245     |   6.5 | 40.36
Comm    | 1.1298     | 1.2016     | 1.2734     |   6.6 |  3.46
Output  | 9.7036e-05 | 0.00013053 | 0.00016403 |   0.0 |  0.00
Modify  | 0.45481    | 0.45613    | 0.45745    |   0.2 |  1.31
Other   |            | 0.1267     |            |       |  0.37

Nlocal:    9826 ave 9850 max 9802 min
Histogram: 1 0 0 0 0 0 0 0 0 1
Nghost:    10209 ave 10211 max 10207 min
Histogram: 1 0 0 0 0 0 0 0 0 1
Neighs:    421660 ave 423792 max 419529 min
Histogram: 1 0 0 0 0 0 0 0 0 1

Total # of neighbors = 843321
Ave neighs/atom = 42.9127
Neighbor list builds = 495
Dangerous builds not checked
Setting up Verlet run ...
  Unit style    : metal
  Current step  : 170495
  Time step     : 0.001
Per MPI rank memory allocation (min/avg/max) = 11.36 | 11.36 | 11.36 Mbytes
Step Temp Press TotEng PotEng Enthalpy 
  170495    1753.7324   -318.60116   -19440.704   -23895.344   -19556.376 
  180000    1740.0847   -206.40303   -19579.667   -23999.641   -19654.295 
Loop time of 727.929 on 2 procs for 9505 steps with 19652 atoms

Performance: 1.128 ns/day, 21.273 hours/ns, 13.058 timesteps/s
98.5% CPU use with 2 MPI tasks x no OpenMP threads

MPI task timing breakdown:
Section |  min time  |  avg time  |  max time  |%varavg| %total
---------------------------------------------------------------
Pair    | 397.91     | 400.22     | 402.54     |  11.6 | 54.98
Neigh   | 287.95     | 289.77     | 291.59     |  10.7 | 39.81
Comm    | 22.535     | 26.724     | 30.914     |  81.0 |  3.67
Output  | 0.037145   | 0.03717    | 0.037196   |   0.0 |  0.01
Modify  | 8.7162     | 8.7772     | 8.8383     |   2.1 |  1.21
Other   |            | 2.396      |            |       |  0.33

Nlocal:    9826 ave 9850 max 9802 min
Histogram: 1 0 0 0 0 0 0 0 0 1
Nghost:    10164 ave 10166 max 10162 min
Histogram: 1 0 0 0 0 0 0 0 0 1
Neighs:    423244 ave 425225 max 421264 min
Histogram: 1 0 0 0 0 0 0 0 0 1

Total # of neighbors = 846489
Ave neighs/atom = 43.0739
Neighbor list builds = 9505
Dangerous builds not checked
Setting up Verlet run ...
  Unit style    : metal
  Current step  : 180000
  Time step     : 0.001
Per MPI rank memory allocation (min/avg/max) = 11.36 | 11.36 | 11.36 Mbytes
Step Temp Press TotEng PotEng Enthalpy 
  180000    1740.0847   -206.40303   -19579.667   -23999.641   -19654.295 
  180495    1713.1937   -24.331984   -19687.353   -24039.021   -19696.126 
Loop time of 35.9086 on 2 procs for 495 steps with 19652 atoms

Performance: 1.191 ns/day, 20.151 hours/ns, 13.785 timesteps/s
97.6% CPU use with 2 MPI tasks x no OpenMP threads

MPI task timing breakdown:
Section |  min time  |  avg time  |  max time  |%varavg| %total
---------------------------------------------------------------
Pair    | 19.254     | 19.287     | 19.319     |   0.7 | 53.71
Neigh   | 14.278     | 14.333     | 14.387     |   1.4 | 39.91
Comm    | 1.6187     | 1.6301     | 1.6415     |   0.9 |  4.54
Output  | 7.8917e-05 | 0.00018239 | 0.00028586 |   0.0 |  0.00
Modify  | 0.45876    | 0.53282    | 0.60688    |  10.1 |  1.48
Other   |            | 0.1259     |            |       |  0.35

Nlocal:    9826 ave 9827 max 9825 min
Histogram: 1 0 0 0 0 0 0 0 0 1
Nghost:    10231.5 ave 10248 max 10215 min
Histogram: 1 0 0 0 0 0 0 0 0 1
Neighs:    424702 ave 428218 max 421185 min
Histogram: 1 0 0 0 0 0 0 0 0 1

Total # of neighbors = 849403
Ave neighs/atom = 43.2222
Neighbor list builds = 495
Dangerous builds not checked
Setting up Verlet run ...
  Unit style    : metal
  Current step  : 180495
  Time step     : 0.001
Per MPI rank memory allocation (min/avg/max) = 11.36 | 11.36 | 11.36 Mbytes
Step Temp Press TotEng PotEng Enthalpy 
  180495    1713.1937   -24.331984   -19687.353   -24039.021   -19696.126 
  190000    1690.9782    22.044324   -19784.973   -24080.212   -19777.047 
Loop time of 730.681 on 2 procs for 9505 steps with 19652 atoms

Performance: 1.124 ns/day, 21.354 hours/ns, 13.008 timesteps/s
98.7% CPU use with 2 MPI tasks x no OpenMP threads

MPI task timing breakdown:
Section |  min time  |  avg time  |  max time  |%varavg| %total
---------------------------------------------------------------
Pair    | 403.11     | 403.89     | 404.66     |   3.9 | 55.28
Neigh   | 284.88     | 287.12     | 289.35     |  13.2 | 39.29
Comm    | 25.405     | 28.466     | 31.527     |  57.4 |  3.90
Output  | 0.037404   | 0.03744    | 0.037475   |   0.0 |  0.01
Modify  | 8.717      | 8.7744     | 8.8317     |   1.9 |  1.20
Other   |            | 2.401      |            |       |  0.33

Nlocal:    9826 ave 9827 max 9825 min
Histogram: 1 0 0 0 0 0 0 0 0 1
Nghost:    10277.5 ave 10287 max 10268 min
Histogram: 1 0 0 0 0 0 0 0 0 1
Neighs:    426073 ave 429653 max 422493 min
Histogram: 1 0 0 0 0 0 0 0 0 1

Total # of neighbors = 852146
Ave neighs/atom = 43.3618
Neighbor list builds = 9505
Dangerous builds not checked
Setting up Verlet run ...
  Unit style    : metal
  Current step  : 190000
  Time step     : 0.001
Per MPI rank memory allocation (min/avg/max) = 11.36 | 11.36 | 11.36 Mbytes
Step Temp Press TotEng PotEng Enthalpy 
  190000    1690.9782    22.044324   -19784.973   -24080.212   -19777.047 
  190495    1679.4153   -368.51976   -19970.432     -24236.3   -20102.377 
Loop time of 35.2271 on 2 procs for 495 steps with 19652 atoms

Performance: 1.214 ns/day, 19.768 hours/ns, 14.052 timesteps/s
99.8% CPU use with 2 MPI tasks x no OpenMP threads

MPI task timing breakdown:
Section |  min time  |  avg time  |  max time  |%varavg| %total
---------------------------------------------------------------
Pair    | 19.066     | 19.165     | 19.265     |   2.3 | 54.41
Neigh   | 13.962     | 14.218     | 14.474     |   6.8 | 40.36
Comm    | 0.90434    | 1.2673     | 1.6303     |  32.2 |  3.60
Output  | 0.000108   | 0.00021553 | 0.00032306 |   0.0 |  0.00
Modify  | 0.4466     | 0.45285    | 0.45911    |   0.9 |  1.29
Other   |            | 0.1233     |            |       |  0.35

Nlocal:    9826 ave 9835 max 9817 min
Histogram: 1 0 0 0 0 0 0 0 0 1
Nghost:    10271 ave 10295 max 10247 min
Histogram: 1 0 0 0 0 0 0 0 0 1
Neighs:    427566 ave 430530 max 424602 min
Histogram: 1 0 0 0 0 0 0 0 0 1

Total # of neighbors = 855132
Ave neighs/atom = 43.5137
Neighbor list builds = 495
Dangerous builds not checked
Setting up Verlet run ...
  Unit style    : metal
  Current step  : 190495
  Time step     : 0.001
Per MPI rank memory allocation (min/avg/max) = 11.36 | 11.36 | 11.36 Mbytes
Step Temp Press TotEng PotEng Enthalpy 
  190495    1679.4153   -368.51976   -19970.432     -24236.3   -20102.377 
  200000    1659.1913   -500.48283   -20045.779   -24260.276   -20224.793 
Loop time of 748.049 on 2 procs for 9505 steps with 19652 atoms

Performance: 1.098 ns/day, 21.861 hours/ns, 12.706 timesteps/s
97.4% CPU use with 2 MPI tasks x no OpenMP threads

MPI task timing breakdown:
Section |  min time  |  avg time  |  max time  |%varavg| %total
---------------------------------------------------------------
Pair    | 415.06     | 416.16     | 417.25     |   5.4 | 55.63
Neigh   | 289.86     | 291.31     | 292.76     |   8.5 | 38.94
Comm    | 26.418     | 28.979     | 31.54      |  47.6 |  3.87
Output  | 0.037605   | 0.037701   | 0.037797   |   0.0 |  0.01
Modify  | 9.0948     | 9.1246     | 9.1544     |   1.0 |  1.22
Other   |            | 2.438      |            |       |  0.33

Nlocal:    9826 ave 9858 max 9794 min
Histogram: 1 0 0 0 0 0 0 0 0 1
Nghost:    10240 ave 10248 max 10232 min
Histogram: 1 0 0 0 0 0 0 0 0 1
Neighs:    428056 ave 434206 max 421907 min
Histogram: 1 0 0 0 0 0 0 0 0 1

Total # of neighbors = 856113
Ave neighs/atom = 43.5637
Neighbor list builds = 9505
Dangerous builds not checked
Setting up Verlet run ...
  Unit style    : metal
  Current step  : 200000
  Time step     : 0.001
Per MPI rank memory allocation (min/avg/max) = 11.36 | 11.36 | 11.36 Mbytes
Step Temp Press TotEng PotEng Enthalpy 
  200000    1659.1913   -500.48283   -20045.779   -24260.276   -20224.793 
  200495    1609.7499    223.08317   -20283.626   -24372.538   -20204.468 
Loop time of 39.0273 on 2 procs for 495 steps with 19652 atoms

Performance: 1.096 ns/day, 21.901 hours/ns, 12.683 timesteps/s
94.3% CPU use with 2 MPI tasks x no OpenMP threads

MPI task timing breakdown:
Section |  min time  |  avg time  |  max time  |%varavg| %total
---------------------------------------------------------------
Pair    | 21.477     | 21.499     | 21.521     |   0.5 | 55.09
Neigh   | 14.702     | 15.132     | 15.563     |  11.1 | 38.77
Comm    | 1.2619     | 1.7191     | 2.1764     |  34.9 |  4.40
Output  | 0.00012302 | 0.00024092 | 0.00035882 |   0.0 |  0.00
Modify  | 0.53593    | 0.54542    | 0.55491    |   1.3 |  1.40
Other   |            | 0.1312     |            |       |  0.34

Nlocal:    9826 ave 9856 max 9796 min
Histogram: 1 0 0 0 0 0 0 0 0 1
Nghost:    10300 ave 10304 max 10296 min
Histogram: 1 0 0 0 0 0 0 0 0 1
Neighs:    431601 ave 433511 max 429691 min
Histogram: 1 0 0 0 0 0 0 0 0 1

Total # of neighbors = 863202
Ave neighs/atom = 43.9244
Neighbor list builds = 495
Dangerous builds not checked
Setting up Verlet run ...
  Unit style    : metal
  Current step  : 200495
  Time step     : 0.001
Per MPI rank memory allocation (min/avg/max) = 11.36 | 11.36 | 11.36 Mbytes
Step Temp Press TotEng PotEng Enthalpy 
  200495    1609.7499    223.08317   -20283.626   -24372.538   -20204.468 
  210000    1579.2191   -97.522838   -20428.917   -24440.277   -20463.476 
Loop time of 769.984 on 2 procs for 9505 steps with 19652 atoms

Performance: 1.067 ns/day, 22.502 hours/ns, 12.344 timesteps/s
95.1% CPU use with 2 MPI tasks x no OpenMP threads

MPI task timing breakdown:
Section |  min time  |  avg time  |  max time  |%varavg| %total
---------------------------------------------------------------
Pair    | 422.54     | 424.58     | 426.63     |   9.9 | 55.14
Neigh   | 295.48     | 296.63     | 297.77     |   6.6 | 38.52
Comm    | 33.171     | 36.487     | 39.803     |  54.9 |  4.74
Output  | 0.03582    | 0.035925   | 0.03603    |   0.1 |  0.00
Modify  | 9.6854     | 9.7811     | 9.8768     |   3.1 |  1.27
Other   |            | 2.471      |            |       |  0.32

Nlocal:    9826 ave 9832 max 9820 min
Histogram: 1 0 0 0 0 0 0 0 0 1
Nghost:    10288.5 ave 10292 max 10285 min
Histogram: 1 0 0 0 0 0 0 0 0 1
Neighs:    432338 ave 435484 max 429191 min
Histogram: 1 0 0 0 0 0 0 0 0 1

Total # of neighbors = 864675
Ave neighs/atom = 43.9993
Neighbor list builds = 9505
Dangerous builds not checked
Setting up Verlet run ...
  Unit style    : metal
  Current step  : 210000
  Time step     : 0.001
Per MPI rank memory allocation (min/avg/max) = 11.36 | 11.36 | 11.36 Mbytes
Step Temp Press TotEng PotEng Enthalpy 
  210000    1579.2191   -97.522838   -20428.917   -24440.277   -20463.476 
  210495    1570.7549   -123.31598   -20533.587   -24523.447    -20577.16 
Loop time of 38.6035 on 2 procs for 495 steps with 19652 atoms

Performance: 1.108 ns/day, 21.663 hours/ns, 12.823 timesteps/s
96.6% CPU use with 2 MPI tasks x no OpenMP threads

MPI task timing breakdown:
Section |  min time  |  avg time  |  max time  |%varavg| %total
---------------------------------------------------------------
Pair    | 20.938     | 21.372     | 21.806     |   9.4 | 55.36
Neigh   | 14.802     | 15.001     | 15.201     |   5.2 | 38.86
Comm    | 1.3909     | 1.6271     | 1.8634     |  18.5 |  4.22
Output  | 9.8944e-05 | 0.00019395 | 0.00028896 |   0.0 |  0.00
Modify  | 0.46714    | 0.47295    | 0.47876    |   0.8 |  1.23
Other   |            | 0.1299     |            |       |  0.34

Nlocal:    9826 ave 9832 max 9820 min
Histogram: 1 0 0 0 0 0 0 0 0 1
Nghost:    10343 ave 10348 max 10338 min
Histogram: 1 0 0 0 0 0 0 0 0 1
Neighs:    433412 ave 437867 max 428956 min
Histogram: 1 0 0 0 0 0 0 0 0 1

Total # of neighbors = 866823
Ave neighs/atom = 44.1086
Neighbor list builds = 495
Dangerous builds not checked
Setting up Verlet run ...
  Unit style    : metal
  Current step  : 210495
  Time step     : 0.001
Per MPI rank memory allocation (min/avg/max) = 11.36 | 11.36 | 11.36 Mbytes
Step Temp Press TotEng PotEng Enthalpy 
  210495    1570.7549   -123.31598   -20533.587   -24523.447    -20577.16 
  220000    1555.9908    524.51214   -20665.435   -24617.793   -20481.599 
Loop time of 760.884 on 2 procs for 9505 steps with 19652 atoms

Performance: 1.079 ns/day, 22.236 hours/ns, 12.492 timesteps/s
96.0% CPU use with 2 MPI tasks x no OpenMP threads

MPI task timing breakdown:
Section |  min time  |  avg time  |  max time  |%varavg| %total
---------------------------------------------------------------
Pair    | 415.68     | 419.3      | 422.92     |  17.7 | 55.11
Neigh   | 294.46     | 295.45     | 296.44     |   5.8 | 38.83
Comm    | 31.404     | 33.973     | 36.541     |  44.1 |  4.46
Output  | 0.038991   | 0.039021   | 0.039051   |   0.0 |  0.01
Modify  | 9.6701     | 9.7049     | 9.7397     |   1.1 |  1.28
Other   |            | 2.415      |            |       |  0.32

Nlocal:    9826 ave 9828 max 9824 min
Histogram: 1 0 0 0 0 0 0 0 0 1
Nghost:    10353.5 ave 10357 max 10350 min
Histogram: 1 0 0 0 0 0 0 0 0 1
Neighs:    437090 ave 441107 max 433074 min
Histogram: 1 0 0 0 0 0 0 0 0 1

Total # of neighbors = 874181
Ave neighs/atom = 44.4831
Neighbor list builds = 9505
Dangerous builds not checked
Setting up Verlet run ...
  Unit style    : metal
  Current step  : 220000
  Time step     : 0.001
Per MPI rank memory allocation (min/avg/max) = 11.36 | 11.36 | 11.36 Mbytes
Step Temp Press TotEng PotEng Enthalpy 
  220000    1555.9908    524.51214   -20665.435   -24617.793   -20481.599 
  220495    1512.6986   -110.36195   -20827.831   -24670.223   -20866.556 
Loop time of 35.5894 on 2 procs for 495 steps with 19652 atoms

Performance: 1.202 ns/day, 19.972 hours/ns, 13.909 timesteps/s
96.5% CPU use with 2 MPI tasks x no OpenMP threads

MPI task timing breakdown:
Section |  min time  |  avg time  |  max time  |%varavg| %total
---------------------------------------------------------------
Pair    | 18.917     | 19.066     | 19.215     |   3.4 | 53.57
Neigh   | 13.987     | 14.1       | 14.214     |   3.0 | 39.62
Comm    | 1.7846     | 1.813      | 1.8413     |   2.1 |  5.09
Output  | 0.0010312  | 0.0010802  | 0.0011292  |   0.1 |  0.00
Modify  | 0.47701    | 0.48559    | 0.49416    |   1.2 |  1.36
Other   |            | 0.1231     |            |       |  0.35

Nlocal:    9826 ave 9830 max 9822 min
Histogram: 1 0 0 0 0 0 0 0 0 1
Nghost:    10359.5 ave 10380 max 10339 min
Histogram: 1 0 0 0 0 0 0 0 0 1
Neighs:    436540 ave 439437 max 433643 min
Histogram: 1 0 0 0 0 0 0 0 0 1

Total # of neighbors = 873080
Ave neighs/atom = 44.427
Neighbor list builds = 495
Dangerous builds not checked
Setting up Verlet run ...
  Unit style    : metal
  Current step  : 220495
  Time step     : 0.001
Per MPI rank memory allocation (min/avg/max) = 11.36 | 11.36 | 11.36 Mbytes
Step Temp Press TotEng PotEng Enthalpy 
  220495    1512.6986   -110.36195   -20827.831   -24670.223   -20866.556 
  230000    1493.0594   -87.034241   -20934.096   -24726.603   -20964.518 
Loop time of 758.386 on 2 procs for 9505 steps with 19652 atoms

Performance: 1.083 ns/day, 22.163 hours/ns, 12.533 timesteps/s
97.1% CPU use with 2 MPI tasks x no OpenMP threads

MPI task timing breakdown:
Section |  min time  |  avg time  |  max time  |%varavg| %total
---------------------------------------------------------------
Pair    | 416.24     | 417.78     | 419.33     |   7.6 | 55.09
Neigh   | 292.98     | 294.19     | 295.4      |   7.1 | 38.79
Comm    | 31.49      | 34.242     | 36.993     |  47.0 |  4.52
Output  | 0.037449   | 0.037472   | 0.037495   |   0.0 |  0.00
Modify  | 9.731      | 9.7371     | 9.7432     |   0.2 |  1.28
Other   |            | 2.391      |            |       |  0.32

Nlocal:    9826 ave 9863 max 9789 min
Histogram: 1 0 0 0 0 0 0 0 0 1
Nghost:    10414.5 ave 10434 max 10395 min
Histogram: 1 0 0 0 0 0 0 0 0 1
Neighs:    438428 ave 438689 max 438168 min
Histogram: 1 0 0 0 0 0 0 0 0 1

Total # of neighbors = 876857
Ave neighs/atom = 44.6192
Neighbor list builds = 9505
Dangerous builds not checked
Setting up Verlet run ...
  Unit style    : metal
  Current step  : 230000
  Time step     : 0.001
Per MPI rank memory allocation (min/avg/max) = 11.36 | 11.36 | 11.36 Mbytes
Step Temp Press TotEng PotEng Enthalpy 
  230000    1493.0594   -87.034241   -20934.096   -24726.603   -20964.518 
  230495    1458.8274    127.34569   -21126.984   -24832.538   -21082.661 
Loop time of 34.798 on 2 procs for 495 steps with 19652 atoms

Performance: 1.229 ns/day, 19.527 hours/ns, 14.225 timesteps/s
98.9% CPU use with 2 MPI tasks x no OpenMP threads

MPI task timing breakdown:
Section |  min time  |  avg time  |  max time  |%varavg| %total
---------------------------------------------------------------
Pair    | 18.471     | 18.802     | 19.134     |   7.6 | 54.03
Neigh   | 13.568     | 14.053     | 14.538     |  12.9 | 40.39
Comm    | 0.58441    | 1.3989     | 2.2133     |  68.9 |  4.02
Output  | 9.5129e-05 | 0.00018561 | 0.00027609 |   0.0 |  0.00
Modify  | 0.42384    | 0.4264     | 0.42895    |   0.4 |  1.23
Other   |            | 0.1168     |            |       |  0.34

Nlocal:    9826 ave 9828 max 9824 min
Histogram: 1 0 0 0 0 0 0 0 0 1
Nghost:    10459 ave 10481 max 10437 min
Histogram: 1 0 0 0 0 0 0 0 0 1
Neighs:    440381 ave 444385 max 436377 min
Histogram: 1 0 0 0 0 0 0 0 0 1

Total # of neighbors = 880762
Ave neighs/atom = 44.8179
Neighbor list builds = 495
Dangerous builds not checked
Setting up Verlet run ...
  Unit style    : metal
  Current step  : 230495
  Time step     : 0.001
Per MPI rank memory allocation (min/avg/max) = 11.36 | 11.36 | 11.36 Mbytes
Step Temp Press TotEng PotEng Enthalpy 
  230495    1458.8274    127.34569   -21126.984   -24832.538   -21082.661 
  240000      1454.85    423.44736   -21200.194   -24895.646   -21053.265 
Loop time of 706.342 on 2 procs for 9505 steps with 19652 atoms

Performance: 1.163 ns/day, 20.642 hours/ns, 13.457 timesteps/s
98.0% CPU use with 2 MPI tasks x no OpenMP threads

MPI task timing breakdown:
Section |  min time  |  avg time  |  max time  |%varavg| %total
---------------------------------------------------------------
Pair    | 382.15     | 384.06     | 385.96     |   9.7 | 54.37
Neigh   | 276.93     | 281.62     | 286.32     |  28.0 | 39.87
Comm    | 21.809     | 28.516     | 35.223     | 125.6 |  4.04
Output  | 0.036278   | 0.036351   | 0.036424   |   0.0 |  0.01
Modify  | 9.7826     | 9.8789     | 9.9752     |   3.1 |  1.40
Other   |            | 2.232      |            |       |  0.32

Nlocal:    9826 ave 9866 max 9786 min
Histogram: 1 0 0 0 0 0 0 0 0 1
Nghost:    10368 ave 10370 max 10366 min
Histogram: 1 0 0 0 0 0 0 0 0 1
Neighs:    441786 ave 442881 max 440691 min
Histogram: 1 0 0 0 0 0 0 0 0 1

Total # of neighbors = 883572
Ave neighs/atom = 44.9609
Neighbor list builds = 9505
Dangerous builds not checked
Setting up Verlet run ...
  Unit style    : metal
  Current step  : 240000
  Time step     : 0.001
Per MPI rank memory allocation (min/avg/max) = 11.36 | 11.36 | 11.36 Mbytes
Step Temp Press TotEng PotEng Enthalpy 
  240000      1454.85    423.44736   -21200.194   -24895.646   -21053.265 
  240495    1420.6936    175.10009   -21416.319    -25025.01   -21355.874 
Loop time of 34.156 on 2 procs for 495 steps with 19652 atoms

Performance: 1.252 ns/day, 19.167 hours/ns, 14.492 timesteps/s
98.9% CPU use with 2 MPI tasks x no OpenMP threads

MPI task timing breakdown:
Section |  min time  |  avg time  |  max time  |%varavg| %total
---------------------------------------------------------------
Pair    | 18.186     | 18.534     | 18.881     |   8.1 | 54.26
Neigh   | 13.437     | 14.07      | 14.703     |  16.9 | 41.19
Comm    | 0.70069    | 0.99899    | 1.2973     |  29.8 |  2.92
Output  | 9.7036e-05 | 0.0001955  | 0.00029397 |   0.0 |  0.00
Modify  | 0.4283     | 0.4419     | 0.4555     |   2.0 |  1.29
Other   |            | 0.1109     |            |       |  0.32

Nlocal:    9826 ave 9848 max 9804 min
Histogram: 1 0 0 0 0 0 0 0 0 1
Nghost:    10449.5 ave 10466 max 10433 min
Histogram: 1 0 0 0 0 0 0 0 0 1
Neighs:    443951 ave 446004 max 441898 min
Histogram: 1 0 0 0 0 0 0 0 0 1

Total # of neighbors = 887902
Ave neighs/atom = 45.1813
Neighbor list builds = 495
Dangerous builds not checked
Setting up Verlet run ...
  Unit style    : metal
  Current step  : 240495
  Time step     : 0.001
Per MPI rank memory allocation (min/avg/max) = 11.36 | 11.36 | 11.36 Mbytes
Step Temp Press TotEng PotEng Enthalpy 
  240495    1420.6936    175.10009   -21416.319    -25025.01   -21355.874 
  250000    1389.9391    347.80507   -21552.177   -25082.749   -21432.416 
Loop time of 689.052 on 2 procs for 9505 steps with 19652 atoms

Performance: 1.192 ns/day, 20.137 hours/ns, 13.794 timesteps/s
97.0% CPU use with 2 MPI tasks x no OpenMP threads

MPI task timing breakdown:
Section |  min time  |  avg time  |  max time  |%varavg| %total
---------------------------------------------------------------
Pair    | 368.78     | 370.47     | 372.15     |   8.8 | 53.76
Neigh   | 274.74     | 275.8      | 276.86     |   6.4 | 40.03
Comm    | 28.492     | 31.291     | 34.089     |  50.0 |  4.54
Output  | 0.036815   | 0.03684    | 0.036866   |   0.0 |  0.01
Modify  | 9.2403     | 9.2838     | 9.3273     |   1.4 |  1.35
Other   |            | 2.176      |            |       |  0.32

Nlocal:    9826 ave 9838 max 9814 min
Histogram: 1 0 0 0 0 0 0 0 0 1
Nghost:    10403.5 ave 10434 max 10373 min
Histogram: 1 0 0 0 0 0 0 0 0 1
Neighs:    445256 ave 450611 max 439902 min
Histogram: 1 0 0 0 0 0 0 0 0 1

Total # of neighbors = 890513
Ave neighs/atom = 45.3141
Neighbor list builds = 9505
Dangerous builds not checked
Setting up Verlet run ...
  Unit style    : metal
  Current step  : 250000
  Time step     : 0.001
Per MPI rank memory allocation (min/avg/max) = 11.36 | 11.36 | 11.36 Mbytes
Step Temp Press TotEng PotEng Enthalpy 
  250000    1389.9391    347.80507   -21552.177   -25082.749   -21432.416 
  250495    1366.2053   -210.75765    -21695.46   -25165.746    -21767.89 
Loop time of 34.446 on 2 procs for 495 steps with 19652 atoms

Performance: 1.242 ns/day, 19.330 hours/ns, 14.370 timesteps/s
99.8% CPU use with 2 MPI tasks x no OpenMP threads

MPI task timing breakdown:
Section |  min time  |  avg time  |  max time  |%varavg| %total
---------------------------------------------------------------
Pair    | 18.706     | 18.724     | 18.742     |   0.4 | 54.36
Neigh   | 13.813     | 14.005     | 14.197     |   5.1 | 40.66
Comm    | 0.9806     | 1.1631     | 1.3455     |  16.9 |  3.38
Output  | 9.5844e-05 | 0.00023043 | 0.00036502 |   0.0 |  0.00
Modify  | 0.42481    | 0.43455    | 0.44429    |   1.5 |  1.26
Other   |            | 0.1189     |            |       |  0.35

Nlocal:    9826 ave 9855 max 9797 min
Histogram: 1 0 0 0 0 0 0 0 0 1
Nghost:    10468 ave 10488 max 10448 min
Histogram: 1 0 0 0 0 0 0 0 0 1
Neighs:    445900 ave 451411 max 440390 min
Histogram: 1 0 0 0 0 0 0 0 0 1

Total # of neighbors = 891801
Ave neighs/atom = 45.3797
Neighbor list builds = 495
Dangerous builds not checked
Setting up Verlet run ...
  Unit style    : metal
  Current step  : 250495
  Time step     : 0.001
Per MPI rank memory allocation (min/avg/max) = 11.36 | 11.36 | 11.36 Mbytes
Step Temp Press TotEng PotEng Enthalpy 
  250495    1366.2053   -210.75765    -21695.46   -25165.746    -21767.89 
  260000    1347.7977   -392.04757   -21802.194   -25225.723   -21936.788 
Loop time of 680.521 on 2 procs for 9505 steps with 19652 atoms

Performance: 1.207 ns/day, 19.888 hours/ns, 13.967 timesteps/s
99.5% CPU use with 2 MPI tasks x no OpenMP threads

MPI task timing breakdown:
Section |  min time  |  avg time  |  max time  |%varavg| %total
---------------------------------------------------------------
Pair    | 369.26     | 371.88     | 374.49     |  13.6 | 54.65
Neigh   | 272.36     | 273.88     | 275.4      |   9.2 | 40.25
Comm    | 20.051     | 24.226     | 28.4       |  84.8 |  3.56
Output  | 0.036029   | 0.036095   | 0.036162   |   0.0 |  0.01
Modify  | 8.2503     | 8.29       | 8.3296     |   1.4 |  1.22
Other   |            | 2.21       |            |       |  0.32

Nlocal:    9826 ave 9836 max 9816 min
Histogram: 1 0 0 0 0 0 0 0 0 1
Nghost:    10453 ave 10459 max 10447 min
Histogram: 1 0 0 0 0 0 0 0 0 1
Neighs:    446536 ave 451453 max 441620 min
Histogram: 1 0 0 0 0 0 0 0 0 1

Total # of neighbors = 893073
Ave neighs/atom = 45.4444
Neighbor list builds = 9505
Dangerous builds not checked
Setting up Verlet run ...
  Unit style    : metal
  Current step  : 260000
  Time step     : 0.001
Per MPI rank memory allocation (min/avg/max) = 11.36 | 11.36 | 11.36 Mbytes
Step Temp Press TotEng PotEng Enthalpy 
  260000    1347.7977   -392.04757   -21802.194   -25225.723   -21936.788 
  260495    1308.8562    246.74529   -22006.353   -25330.966   -21922.244 
Loop time of 35.4192 on 2 procs for 495 steps with 19652 atoms

Performance: 1.207 ns/day, 19.876 hours/ns, 13.975 timesteps/s
98.9% CPU use with 2 MPI tasks x no OpenMP threads

MPI task timing breakdown:
Section |  min time  |  avg time  |  max time  |%varavg| %total
---------------------------------------------------------------
Pair    | 19.495     | 19.549     | 19.604     |   1.2 | 55.19
Neigh   | 14.041     | 14.056     | 14.071     |   0.4 | 39.69
Comm    | 1.1861     | 1.259      | 1.3319     |   6.5 |  3.55
Output  | 0.00010991 | 0.00016904 | 0.00022817 |   0.0 |  0.00
Modify  | 0.43197    | 0.43471    | 0.43745    |   0.4 |  1.23
Other   |            | 0.1196     |            |       |  0.34

Nlocal:    9826 ave 9829 max 9823 min
Histogram: 1 0 0 0 0 0 0 0 0 1
Nghost:    10429 ave 10441 max 10417 min
Histogram: 1 0 0 0 0 0 0 0 0 1
Neighs:    449998 ave 453618 max 446378 min
Histogram: 1 0 0 0 0 0 0 0 0 1

Total # of neighbors = 899996
Ave neighs/atom = 45.7967
Neighbor list builds = 495
Dangerous builds not checked
Setting up Verlet run ...
  Unit style    : metal
  Current step  : 260495
  Time step     : 0.001
Per MPI rank memory allocation (min/avg/max) = 11.36 | 11.36 | 11.36 Mbytes
Step Temp Press TotEng PotEng Enthalpy 
  260495    1308.8562    246.74529   -22006.353   -25330.966   -21922.244 
  270000    1294.1029   -18.808307   -22104.353   -25391.492    -22110.76 
Loop time of 705.187 on 2 procs for 9505 steps with 19652 atoms

Performance: 1.165 ns/day, 20.609 hours/ns, 13.479 timesteps/s
99.1% CPU use with 2 MPI tasks x no OpenMP threads

MPI task timing breakdown:
Section |  min time  |  avg time  |  max time  |%varavg| %total
---------------------------------------------------------------
Pair    | 386.88     | 388.43     | 389.98     |   7.9 | 55.08
Neigh   | 277.36     | 278.65     | 279.94     |   7.7 | 39.51
Comm    | 24.374     | 27.271     | 30.169     |  55.5 |  3.87
Output  | 0.038619   | 0.03865    | 0.038682   |   0.0 |  0.01
Modify  | 8.463      | 8.52       | 8.5771     |   2.0 |  1.21
Other   |            | 2.275      |            |       |  0.32

Nlocal:    9826 ave 9829 max 9823 min
Histogram: 1 0 0 0 0 0 0 0 0 1
Nghost:    10457.5 ave 10464 max 10451 min
Histogram: 1 0 0 0 0 0 0 0 0 1
Neighs:    450512 ave 454765 max 446258 min
Histogram: 1 0 0 0 0 0 0 0 0 1

Total # of neighbors = 901023
Ave neighs/atom = 45.8489
Neighbor list builds = 9505
Dangerous builds not checked
Setting up Verlet run ...
  Unit style    : metal
  Current step  : 270000
  Time step     : 0.001
Per MPI rank memory allocation (min/avg/max) = 11.36 | 11.36 | 11.36 Mbytes
Step Temp Press TotEng PotEng Enthalpy 
  270000    1294.1029   -18.808307   -22104.353   -25391.492    -22110.76 
  270495     1269.965    156.29921   -22288.189   -25514.016   -22235.268 
Loop time of 35.2479 on 2 procs for 495 steps with 19652 atoms

Performance: 1.213 ns/day, 19.780 hours/ns, 14.043 timesteps/s
97.1% CPU use with 2 MPI tasks x no OpenMP threads

MPI task timing breakdown:
Section |  min time  |  avg time  |  max time  |%varavg| %total
---------------------------------------------------------------
Pair    | 19.535     | 19.638     | 19.741     |   2.3 | 55.71
Neigh   | 13.787     | 13.841     | 13.896     |   1.5 | 39.27
Comm    | 1.0639     | 1.2252     | 1.3866     |  14.6 |  3.48
Output  | 9.2983e-05 | 0.00013602 | 0.00017905 |   0.0 |  0.00
Modify  | 0.42188    | 0.42619    | 0.4305     |   0.7 |  1.21
Other   |            | 0.1167     |            |       |  0.33

Nlocal:    9826 ave 9833 max 9819 min
Histogram: 1 0 0 0 0 0 0 0 0 1
Nghost:    10508 ave 10532 max 10484 min
Histogram: 1 0 0 0 0 0 0 0 0 1
Neighs:    453248 ave 456472 max 450023 min
Histogram: 1 0 0 0 0 0 0 0 0 1

Total # of neighbors = 906495
Ave neighs/atom = 46.1274
Neighbor list builds = 495
Dangerous builds not checked
Setting up Verlet run ...
  Unit style    : metal
  Current step  : 270495
  Time step     : 0.001
Per MPI rank memory allocation (min/avg/max) = 11.36 | 11.36 | 11.36 Mbytes
Step Temp Press TotEng PotEng Enthalpy 
  270495     1269.965    156.29921   -22288.189   -25514.016   -22235.268 
  280000    1246.1877   -262.94375   -22402.752   -25568.182   -22491.801 
Loop time of 707.88 on 2 procs for 9505 steps with 19652 atoms

Performance: 1.160 ns/day, 20.687 hours/ns, 13.427 timesteps/s
99.0% CPU use with 2 MPI tasks x no OpenMP threads

MPI task timing breakdown:
Section |  min time  |  avg time  |  max time  |%varavg| %total
---------------------------------------------------------------
Pair    | 386.65     | 388.06     | 389.47     |   7.2 | 54.82
Neigh   | 274.39     | 275.89     | 277.38     |   9.0 | 38.97
Comm    | 30.022     | 32.963     | 35.905     |  51.2 |  4.66
Output  | 0.037856   | 0.037899   | 0.037941   |   0.0 |  0.01
Modify  | 8.6112     | 8.6565     | 8.7017     |   1.5 |  1.22
Other   |            | 2.273      |            |       |  0.32

Nlocal:    9826 ave 9827 max 9825 min
Histogram: 1 0 0 0 0 0 0 0 0 1
Nghost:    10559.5 ave 10591 max 10528 min
Histogram: 1 0 0 0 0 0 0 0 0 1
Neighs:    453142 ave 456769 max 449516 min
Histogram: 1 0 0 0 0 0 0 0 0 1

Total # of neighbors = 906285
Ave neighs/atom = 46.1167
Neighbor list builds = 9505
Dangerous builds not checked
Setting up Verlet run ...
  Unit style    : metal
  Current step  : 280000
  Time step     : 0.001
Per MPI rank memory allocation (min/avg/max) = 11.36 | 11.36 | 11.36 Mbytes
Step Temp Press TotEng PotEng Enthalpy 
  280000    1246.1877   -262.94375   -22402.752   -25568.182   -22491.801 
  280495    1204.7195    272.65988   -22591.458   -25651.555   -22499.736 
Loop time of 36.2577 on 2 procs for 495 steps with 19652 atoms

Performance: 1.180 ns/day, 20.347 hours/ns, 13.652 timesteps/s
99.7% CPU use with 2 MPI tasks x no OpenMP threads

MPI task timing breakdown:
Section |  min time  |  avg time  |  max time  |%varavg| %total
---------------------------------------------------------------
Pair    | 19.924     | 19.984     | 20.044     |   1.3 | 55.12
Neigh   | 14.295     | 14.343     | 14.392     |   1.3 | 39.56
Comm    | 1.2477     | 1.3534     | 1.4591     |   9.1 |  3.73
Output  | 0.00027204 | 0.00031793 | 0.00036383 |   0.0 |  0.00
Modify  | 0.45114    | 0.45308    | 0.45501    |   0.3 |  1.25
Other   |            | 0.1233     |            |       |  0.34

Nlocal:    9826 ave 9831 max 9821 min
Histogram: 1 0 0 0 0 0 0 0 0 1
Nghost:    10536 ave 10538 max 10534 min
Histogram: 1 0 0 0 0 0 0 0 0 1
Neighs:    456132 ave 459813 max 452451 min
Histogram: 1 0 0 0 0 0 0 0 0 1

Total # of neighbors = 912264
Ave neighs/atom = 46.4209
Neighbor list builds = 495
Dangerous builds not checked
Setting up Verlet run ...
  Unit style    : metal
  Current step  : 280495
  Time step     : 0.001
Per MPI rank memory allocation (min/avg/max) = 11.36 | 11.36 | 11.36 Mbytes
Step Temp Press TotEng PotEng Enthalpy 
  280495    1204.7195    272.65988   -22591.458   -25651.555   -22499.736 
  290000      1206.73   -108.57082    -22675.02   -25740.224   -22711.502 
Loop time of 709.878 on 2 procs for 9505 steps with 19652 atoms

Performance: 1.157 ns/day, 20.746 hours/ns, 13.390 timesteps/s
98.6% CPU use with 2 MPI tasks x no OpenMP threads

MPI task timing breakdown:
Section |  min time  |  avg time  |  max time  |%varavg| %total
---------------------------------------------------------------
Pair    | 389.01     | 390.56     | 392.11     |   7.9 | 55.02
Neigh   | 273.89     | 275.48     | 277.08     |   9.6 | 38.81
Comm    | 29.797     | 33.013     | 36.228     |  56.0 |  4.65
Output  | 0.038587   | 0.038629   | 0.038671   |   0.0 |  0.01
Modify  | 8.4275     | 8.48       | 8.5326     |   1.8 |  1.19
Other   |            | 2.303      |            |       |  0.32

Nlocal:    9826 ave 9841 max 9811 min
Histogram: 1 0 0 0 0 0 0 0 0 1
Nghost:    10519.5 ave 10541 max 10498 min
Histogram: 1 0 0 0 0 0 0 0 0 1
Neighs:    456904 ave 462033 max 451776 min
Histogram: 1 0 0 0 0 0 0 0 0 1

Total # of neighbors = 913809
Ave neighs/atom = 46.4995
Neighbor list builds = 9505
Dangerous builds not checked
Setting up Verlet run ...
  Unit style    : metal
  Current step  : 290000
  Time step     : 0.001
Per MPI rank memory allocation (min/avg/max) = 11.36 | 11.36 | 11.36 Mbytes
Step Temp Press TotEng PotEng Enthalpy 
  290000      1206.73   -108.57082    -22675.02   -25740.224   -22711.502 
  290495    1163.4476    118.51678   -22858.385   -25813.648   -22818.706 
Loop time of 35.8207 on 2 procs for 495 steps with 19652 atoms

Performance: 1.194 ns/day, 20.101 hours/ns, 13.819 timesteps/s
98.1% CPU use with 2 MPI tasks x no OpenMP threads

MPI task timing breakdown:
Section |  min time  |  avg time  |  max time  |%varavg| %total
---------------------------------------------------------------
Pair    | 19.903     | 19.953     | 20.002     |   1.1 | 55.70
Neigh   | 13.915     | 13.937     | 13.96      |   0.6 | 38.91
Comm    | 1.3093     | 1.3829     | 1.4565     |   6.3 |  3.86
Output  | 9.0122e-05 | 0.00013959 | 0.00018907 |   0.0 |  0.00
Modify  | 0.4289     | 0.43099    | 0.43308    |   0.3 |  1.20
Other   |            | 0.1166     |            |       |  0.33

Nlocal:    9826 ave 9830 max 9822 min
Histogram: 1 0 0 0 0 0 0 0 0 1
Nghost:    10530.5 ave 10543 max 10518 min
Histogram: 1 0 0 0 0 0 0 0 0 1
Neighs:    458498 ave 462269 max 454728 min
Histogram: 1 0 0 0 0 0 0 0 0 1

Total # of neighbors = 916997
Ave neighs/atom = 46.6618
Neighbor list builds = 495
Dangerous builds not checked
Setting up Verlet run ...
  Unit style    : metal
  Current step  : 290495
  Time step     : 0.001
Per MPI rank memory allocation (min/avg/max) = 11.36 | 11.36 | 11.36 Mbytes
Step Temp Press TotEng PotEng Enthalpy 
  290495    1163.4476    118.51678   -22858.385   -25813.648   -22818.706 
  300000    1151.8558    202.45455    -22999.68   -25925.498   -22932.221 
Loop time of 701.056 on 2 procs for 9505 steps with 19652 atoms

Performance: 1.171 ns/day, 20.488 hours/ns, 13.558 timesteps/s
97.8% CPU use with 2 MPI tasks x no OpenMP threads

MPI task timing breakdown:
Section |  min time  |  avg time  |  max time  |%varavg| %total
---------------------------------------------------------------
Pair    | 383.08     | 385.26     | 387.44     |  11.1 | 54.95
Neigh   | 268.22     | 268.97     | 269.72     |   4.6 | 38.37
Comm    | 33.514     | 36.469     | 39.423     |  48.9 |  5.20
Output  | 0.033978   | 0.034009   | 0.034041   |   0.0 |  0.00
Modify  | 8.1294     | 8.1604     | 8.1914     |   1.1 |  1.16
Other   |            | 2.163      |            |       |  0.31

Nlocal:    9826 ave 9843 max 9809 min
Histogram: 1 0 0 0 0 0 0 0 0 1
Nghost:    10570 ave 10575 max 10565 min
Histogram: 1 0 0 0 0 0 0 0 0 1
Neighs:    460962 ave 466354 max 455571 min
Histogram: 1 0 0 0 0 0 0 0 0 1

Total # of neighbors = 921925
Ave neighs/atom = 46.9125
Neighbor list builds = 9505
Dangerous builds not checked
Setting up Verlet run ...
  Unit style    : metal
  Current step  : 300000
  Time step     : 0.001
Per MPI rank memory allocation (min/avg/max) = 11.36 | 11.36 | 11.36 Mbytes
Step Temp Press TotEng PotEng Enthalpy 
  300000    1151.8558    202.45455    -22999.68   -25925.498   -22932.221 
[...]
Histogram: 1 0 0 0 0 0 0 0 0 1
Neighs:    515841 ave 516116 max 515566 min
Histogram: 1 0 0 0 0 0 0 0 0 1

Total # of neighbors = 1031682
Ave neighs/atom = 52.4976
Neighbor list builds = 9505
Dangerous builds not checked
Setting up Verlet run ...
  Unit style    : metal
  Current step  : 440000
  Time step     : 0.001
Per MPI rank memory allocation (min/avg/max) = 11.36 | 11.36 | 11.36 Mbytes
Step Temp Press TotEng PotEng Enthalpy 
  440000    454.95046    285.70413   -27454.927   -28610.542   -27368.346 
  440495    417.22436   -553.16686   -27625.849   -28685.636   -27793.468 
Loop time of 37.9834 on 2 procs for 495 steps with 19652 atoms

Performance: 1.126 ns/day, 21.315 hours/ns, 13.032 timesteps/s
97.6% CPU use with 2 MPI tasks x no OpenMP threads

MPI task timing breakdown:
Section |  min time  |  avg time  |  max time  |%varavg| %total
---------------------------------------------------------------
Pair    | 20.154     | 20.58      | 21.006     |   9.4 | 54.18
Neigh   | 14.983     | 15.207     | 15.432     |   5.8 | 40.04
Comm    | 0.94546    | 1.6049     | 2.2644     |  52.1 |  4.23
Output  | 0.00010395 | 0.00020695 | 0.00030994 |   0.0 |  0.00
Modify  | 0.45934    | 0.46867    | 0.478      |   1.4 |  1.23
Other   |            | 0.1221     |            |       |  0.32

Nlocal:    9826 ave 9827 max 9825 min
Histogram: 1 0 0 0 0 0 0 0 0 1
Nghost:    10982 ave 10995 max 10969 min
Histogram: 1 0 0 0 0 0 0 0 0 1
Neighs:    516026 ave 516198 max 515854 min
Histogram: 1 0 0 0 0 0 0 0 0 1

Total # of neighbors = 1032052
Ave neighs/atom = 52.5164
Neighbor list builds = 495
Dangerous builds not checked
Setting up Verlet run ...
  Unit style    : metal
  Current step  : 440495
  Time step     : 0.001
Per MPI rank memory allocation (min/avg/max) = 11.36 | 11.36 | 11.36 Mbytes
Step Temp Press TotEng PotEng Enthalpy 
  440495    417.22436   -553.16686   -27625.849   -28685.636   -27793.468 
  450000    403.49463    198.14714   -27787.553   -28812.466   -27727.917 
Loop time of 724.763 on 2 procs for 9505 steps with 19652 atoms

Performance: 1.133 ns/day, 21.181 hours/ns, 13.115 timesteps/s
97.3% CPU use with 2 MPI tasks x no OpenMP threads

MPI task timing breakdown:
Section |  min time  |  avg time  |  max time  |%varavg| %total
---------------------------------------------------------------
Pair    | 392.67     | 393.64     | 394.61     |   4.9 | 54.31
Neigh   | 289.94     | 290.11     | 290.29     |   1.0 | 40.03
Comm    | 28.657     | 29.818     | 30.979     |  21.3 |  4.11
Output  | 0.050048   | 0.050074   | 0.050099   |   0.0 |  0.01
Modify  | 8.8066     | 8.811      | 8.8154     |   0.1 |  1.22
Other   |            | 2.335      |            |       |  0.32

Nlocal:    9826 ave 9833 max 9819 min
Histogram: 1 0 0 0 0 0 0 0 0 1
Nghost:    11029 ave 11039 max 11019 min
Histogram: 1 0 0 0 0 0 0 0 0 1
Neighs:    520406 ave 520843 max 519970 min
Histogram: 1 0 0 0 0 0 0 0 0 1

Total # of neighbors = 1040813
Ave neighs/atom = 52.9622
Neighbor list builds = 9505
Dangerous builds not checked
Setting up Verlet run ...
  Unit style    : metal
  Current step  : 450000
  Time step     : 0.001
Per MPI rank memory allocation (min/avg/max) = 11.36 | 11.36 | 11.36 Mbytes
Step Temp Press TotEng PotEng Enthalpy 
  450000    403.49463    198.14714   -27787.553   -28812.466   -27727.917 
  450495    373.74934   -277.36632    -27942.14   -28891.498   -28025.523 
Loop time of 38.2242 on 2 procs for 495 steps with 19652 atoms

Performance: 1.119 ns/day, 21.450 hours/ns, 12.950 timesteps/s
96.9% CPU use with 2 MPI tasks x no OpenMP threads

MPI task timing breakdown:
Section |  min time  |  avg time  |  max time  |%varavg| %total
---------------------------------------------------------------
Pair    | 20.91      | 21.244     | 21.578     |   7.2 | 55.58
Neigh   | 14.928     | 14.941     | 14.953     |   0.3 | 39.09
Comm    | 1.1356     | 1.4814     | 1.8271     |  28.4 |  3.88
Output  | 8.6069e-05 | 0.00017405 | 0.00026202 |   0.0 |  0.00
Modify  | 0.43887    | 0.44038    | 0.44189    |   0.2 |  1.15
Other   |            | 0.1176     |            |       |  0.31

Nlocal:    9826 ave 9828 max 9824 min
Histogram: 1 0 0 0 0 0 0 0 0 1
Nghost:    11052.5 ave 11059 max 11046 min
Histogram: 1 0 0 0 0 0 0 0 0 1
Neighs:    521280 ave 521486 max 521075 min
Histogram: 1 0 0 0 0 0 0 0 0 1

Total # of neighbors = 1042561
Ave neighs/atom = 53.0511
Neighbor list builds = 495
Dangerous builds not checked
Setting up Verlet run ...
  Unit style    : metal
  Current step  : 450495
  Time step     : 0.001
Per MPI rank memory allocation (min/avg/max) = 11.36 | 11.36 | 11.36 Mbytes
Step Temp Press TotEng PotEng Enthalpy 
  450495    373.74934   -277.36632    -27942.14   -28891.498   -28025.523 
  460000    349.60834   -294.28027   -28118.392   -29006.429   -28206.509 
Loop time of 733.925 on 2 procs for 9505 steps with 19652 atoms

Performance: 1.119 ns/day, 21.449 hours/ns, 12.951 timesteps/s
96.0% CPU use with 2 MPI tasks x no OpenMP threads

MPI task timing breakdown:
Section |  min time  |  avg time  |  max time  |%varavg| %total
---------------------------------------------------------------
Pair    | 399.65     | 400.15     | 400.65     |   2.5 | 54.52
Neigh   | 286.66     | 288.27     | 289.88     |   9.5 | 39.28
Comm    | 32.313     | 34.441     | 36.568     |  36.2 |  4.69
Output  | 0.037741   | 0.03782    | 0.0379     |   0.0 |  0.01
Modify  | 8.702      | 8.7188     | 8.7355     |   0.6 |  1.19
Other   |            | 2.311      |            |       |  0.31

Nlocal:    9826 ave 9841 max 9811 min
Histogram: 1 0 0 0 0 0 0 0 0 1
Nghost:    11029.5 ave 11036 max 11023 min
Histogram: 1 0 0 0 0 0 0 0 0 1
Neighs:    524216 ave 525429 max 523002 min
Histogram: 1 0 0 0 0 0 0 0 0 1

Total # of neighbors = 1048431
Ave neighs/atom = 53.3498
Neighbor list builds = 9505
Dangerous builds not checked
Setting up Verlet run ...
  Unit style    : metal
  Current step  : 460000
  Time step     : 0.001
Per MPI rank memory allocation (min/avg/max) = 11.36 | 11.36 | 11.36 Mbytes
Step Temp Press TotEng PotEng Enthalpy 
  460000    349.60834   -294.28027   -28118.392   -29006.429   -28206.509 
  460495    319.78243    142.24491   -28251.792   -29064.068   -28209.356 
Loop time of 38.0675 on 2 procs for 495 steps with 19652 atoms

Performance: 1.123 ns/day, 21.362 hours/ns, 13.003 timesteps/s
95.7% CPU use with 2 MPI tasks x no OpenMP threads

MPI task timing breakdown:
Section |  min time  |  avg time  |  max time  |%varavg| %total
---------------------------------------------------------------
Pair    | 20.358     | 20.521     | 20.684     |   3.6 | 53.91
Neigh   | 14.745     | 14.837     | 14.928     |   2.4 | 38.97
Comm    | 1.8745     | 2.1224     | 2.3702     |  17.0 |  5.58
Output  | 9.6083e-05 | 0.00012898 | 0.00016189 |   0.0 |  0.00
Modify  | 0.46375    | 0.47065    | 0.47755    |   1.0 |  1.24
Other   |            | 0.1168     |            |       |  0.31

Nlocal:    9826 ave 9826 max 9826 min
Histogram: 2 0 0 0 0 0 0 0 0 0
Nghost:    11069 ave 11078 max 11060 min
Histogram: 1 0 0 0 0 0 0 0 0 1
Neighs:    526464 ave 526652 max 526275 min
Histogram: 1 0 0 0 0 0 0 0 0 1

Total # of neighbors = 1052927
Ave neighs/atom = 53.5786
Neighbor list builds = 495
Dangerous builds not checked
Setting up Verlet run ...
  Unit style    : metal
  Current step  : 460495
  Time step     : 0.001
Per MPI rank memory allocation (min/avg/max) = 11.36 | 11.36 | 11.36 Mbytes
Step Temp Press TotEng PotEng Enthalpy 
  460495    319.78243    142.24491   -28251.792   -29064.068   -28209.356 
  470000    300.49474    174.17636   -28390.501   -29153.785   -28338.703 
Loop time of 720.419 on 2 procs for 9505 steps with 19652 atoms

Performance: 1.140 ns/day, 21.054 hours/ns, 13.194 timesteps/s
97.4% CPU use with 2 MPI tasks x no OpenMP threads

MPI task timing breakdown:
Section |  min time  |  avg time  |  max time  |%varavg| %total
---------------------------------------------------------------
Pair    | 391.93     | 393.41     | 394.88     |   7.4 | 54.61
Neigh   | 284.77     | 285.73     | 286.7      |   5.7 | 39.66
Comm    | 27.776     | 30.251     | 32.726     |  45.0 |  4.20
Output  | 0.037935   | 0.038022   | 0.03811    |   0.0 |  0.01
Modify  | 8.6726     | 8.7048     | 8.7371     |   1.1 |  1.21
Other   |            | 2.283      |            |       |  0.32

Nlocal:    9826 ave 9836 max 9816 min
Histogram: 1 0 0 0 0 0 0 0 0 1
Nghost:    11121 ave 11123 max 11119 min
Histogram: 1 0 0 0 0 0 0 0 0 1
Neighs:    528694 ave 529407 max 527980 min
Histogram: 1 0 0 0 0 0 0 0 0 1

Total # of neighbors = 1057387
Ave neighs/atom = 53.8056
Neighbor list builds = 9505
Dangerous builds not checked
Setting up Verlet run ...
  Unit style    : metal
  Current step  : 470000
  Time step     : 0.001
Per MPI rank memory allocation (min/avg/max) = 11.36 | 11.36 | 11.36 Mbytes
Step Temp Press TotEng PotEng Enthalpy 
  470000    300.49474    174.17636   -28390.501   -29153.785   -28338.703 
  470495    272.76663    108.22865   -28536.099   -29228.951   -28503.984 
Loop time of 38.8392 on 2 procs for 495 steps with 19652 atoms

Performance: 1.101 ns/day, 21.795 hours/ns, 12.745 timesteps/s
95.7% CPU use with 2 MPI tasks x no OpenMP threads

MPI task timing breakdown:
Section |  min time  |  avg time  |  max time  |%varavg| %total
---------------------------------------------------------------
Pair    | 21.106     | 21.18      | 21.253     |   1.6 | 54.53
Neigh   | 15.09      | 15.181     | 15.271     |   2.3 | 39.09
Comm    | 1.8786     | 1.8995     | 1.9203     |   1.5 |  4.89
Output  | 0.00011587 | 0.00025392 | 0.00039196 |   0.0 |  0.00
Modify  | 0.45636    | 0.45836    | 0.46035    |   0.3 |  1.18
Other   |            | 0.1205     |            |       |  0.31

Nlocal:    9826 ave 9836 max 9816 min
Histogram: 1 0 0 0 0 0 0 0 0 1
Nghost:    11101.5 ave 11102 max 11101 min
Histogram: 1 0 0 0 0 0 0 0 0 1
Neighs:    530050 ave 530527 max 529572 min
Histogram: 1 0 0 0 0 0 0 0 0 1

Total # of neighbors = 1060099
Ave neighs/atom = 53.9436
Neighbor list builds = 495
Dangerous builds not checked
Setting up Verlet run ...
  Unit style    : metal
  Current step  : 470495
  Time step     : 0.001
Per MPI rank memory allocation (min/avg/max) = 11.36 | 11.36 | 11.36 Mbytes
Step Temp Press TotEng PotEng Enthalpy 
  470495    272.76663    108.22865   -28536.099   -29228.951   -28503.984 
  480000    249.22723   -113.21794     -28680.2    -29313.26    -28713.72 
Loop time of 767.762 on 2 procs for 9505 steps with 19652 atoms

Performance: 1.070 ns/day, 22.437 hours/ns, 12.380 timesteps/s
94.3% CPU use with 2 MPI tasks x no OpenMP threads

MPI task timing breakdown:
Section |  min time  |  avg time  |  max time  |%varavg| %total
---------------------------------------------------------------
Pair    | 416.46     | 417.74     | 419.02     |   6.3 | 54.41
Neigh   | 294        | 295.35     | 296.7      |   7.9 | 38.47
Comm    | 40.092     | 42.798     | 45.505     |  41.4 |  5.57
Output  | 0.038389   | 0.038466   | 0.038543   |   0.0 |  0.01
Modify  | 9.4187     | 9.4381     | 9.4576     |   0.6 |  1.23
Other   |            | 2.398      |            |       |  0.31

Nlocal:    9826 ave 9834 max 9818 min
Histogram: 1 0 0 0 0 0 0 0 0 1
Nghost:    11119 ave 11128 max 11110 min
Histogram: 1 0 0 0 0 0 0 0 0 1
Neighs:    531598 ave 532082 max 531114 min
Histogram: 1 0 0 0 0 0 0 0 0 1

Total # of neighbors = 1063196
Ave neighs/atom = 54.1012
Neighbor list builds = 9505
Dangerous builds not checked
Setting up Verlet run ...
  Unit style    : metal
  Current step  : 480000
  Time step     : 0.001
Per MPI rank memory allocation (min/avg/max) = 11.36 | 11.36 | 11.36 Mbytes
Step Temp Press TotEng PotEng Enthalpy 
  480000    249.22723   -113.21794     -28680.2    -29313.26    -28713.72 
  480495    225.51521   -107.38634   -28814.902   -29387.731   -28846.609 
Loop time of 40.8004 on 2 procs for 495 steps with 19652 atoms

Performance: 1.048 ns/day, 22.896 hours/ns, 12.132 timesteps/s
90.0% CPU use with 2 MPI tasks x no OpenMP threads

MPI task timing breakdown:
Section |  min time  |  avg time  |  max time  |%varavg| %total
---------------------------------------------------------------
Pair    | 21.75      | 21.991     | 22.232     |   5.1 | 53.90
Neigh   | 15.486     | 15.579     | 15.673     |   2.4 | 38.18
Comm    | 2.4595     | 2.6056     | 2.7518     |   9.1 |  6.39
Output  | 9.6083e-05 | 0.00013101 | 0.00016594 |   0.0 |  0.00
Modify  | 0.50255    | 0.50415    | 0.50574    |   0.2 |  1.24
Other   |            | 0.1202     |            |       |  0.29

Nlocal:    9826 ave 9833 max 9819 min
Histogram: 1 0 0 0 0 0 0 0 0 1
Nghost:    11129.5 ave 11137 max 11122 min
Histogram: 1 0 0 0 0 0 0 0 0 1
Neighs:    533347 ave 533679 max 533015 min
Histogram: 1 0 0 0 0 0 0 0 0 1

Total # of neighbors = 1066694
Ave neighs/atom = 54.2792
Neighbor list builds = 495
Dangerous builds not checked
Setting up Verlet run ...
  Unit style    : metal
  Current step  : 480495
  Time step     : 0.001
Per MPI rank memory allocation (min/avg/max) = 11.36 | 11.36 | 11.36 Mbytes
Step Temp Press TotEng PotEng Enthalpy 
  480495    225.51521   -107.38634   -28814.902   -29387.731   -28846.609 
  490000    200.21405    196.22955   -28958.826   -29467.388   -28901.085 
Loop time of 784.726 on 2 procs for 9505 steps with 19652 atoms

Performance: 1.047 ns/day, 22.933 hours/ns, 12.113 timesteps/s
92.6% CPU use with 2 MPI tasks x no OpenMP threads

MPI task timing breakdown:
Section |  min time  |  avg time  |  max time  |%varavg| %total
---------------------------------------------------------------
Pair    | 432.22     | 433.52     | 434.81     |   6.2 | 55.24
Neigh   | 297.62     | 297.95     | 298.27     |   1.9 | 37.97
Comm    | 39.244     | 40.86      | 42.476     |  25.3 |  5.21
Output  | 0.055201   | 0.055234   | 0.055267   |   0.0 |  0.01
Modify  | 9.9197     | 9.9286     | 9.9374     |   0.3 |  1.27
Other   |            | 2.418      |            |       |  0.31

Nlocal:    9826 ave 9828 max 9824 min
Histogram: 1 0 0 0 0 0 0 0 0 1
Nghost:    11161.5 ave 11163 max 11160 min
Histogram: 1 0 0 0 0 0 0 0 0 1
Neighs:    535728 ave 536084 max 535373 min
Histogram: 1 0 0 0 0 0 0 0 0 1

Total # of neighbors = 1071457
Ave neighs/atom = 54.5215
Neighbor list builds = 9505
Dangerous builds not checked
Setting up Verlet run ...
  Unit style    : metal
  Current step  : 490000
  Time step     : 0.001
Per MPI rank memory allocation (min/avg/max) = 11.36 | 11.36 | 11.36 Mbytes
Step Temp Press TotEng PotEng Enthalpy 
  490000    200.21405    196.22955   -28958.826   -29467.388   -28901.085 
  490495    175.92215   -96.972462   -29086.382    -29533.24    -29114.87 
Loop time of 41.4065 on 2 procs for 495 steps with 19652 atoms

Performance: 1.033 ns/day, 23.236 hours/ns, 11.955 timesteps/s
92.4% CPU use with 2 MPI tasks x no OpenMP threads

MPI task timing breakdown:
Section |  min time  |  avg time  |  max time  |%varavg| %total
---------------------------------------------------------------
Pair    | 22.229     | 22.262     | 22.294     |   0.7 | 53.76
Neigh   | 15.249     | 15.341     | 15.434     |   2.4 | 37.05
Comm    | 3.0902     | 3.2168     | 3.3434     |   7.1 |  7.77
Output  | 8.7976e-05 | 0.00011647 | 0.00014496 |   0.0 |  0.00
Modify  | 0.46621    | 0.46651    | 0.46681    |   0.0 |  1.13
Other   |            | 0.1203     |            |       |  0.29

Nlocal:    9826 ave 9829 max 9823 min
Histogram: 1 0 0 0 0 0 0 0 0 1
Nghost:    11173.5 ave 11175 max 11172 min
Histogram: 1 0 0 0 0 0 0 0 0 1
Neighs:    536872 ave 537128 max 536617 min
Histogram: 1 0 0 0 0 0 0 0 0 1

Total # of neighbors = 1073745
Ave neighs/atom = 54.638
Neighbor list builds = 495
Dangerous builds not checked
Setting up Verlet run ...
  Unit style    : metal
  Current step  : 490495
  Time step     : 0.001
Per MPI rank memory allocation (min/avg/max) = 11.36 | 11.36 | 11.36 Mbytes
Step Temp Press TotEng PotEng Enthalpy 
  490495    175.92215   -96.972462   -29086.382    -29533.24    -29114.87 
  500000    151.24259   -48.055926   -29226.302   -29610.472   -29240.385 
Loop time of 769.863 on 2 procs for 9505 steps with 19652 atoms

Performance: 1.067 ns/day, 22.499 hours/ns, 12.346 timesteps/s
93.1% CPU use with 2 MPI tasks x no OpenMP threads

MPI task timing breakdown:
Section |  min time  |  avg time  |  max time  |%varavg| %total
---------------------------------------------------------------
Pair    | 415.6      | 415.97     | 416.33     |   1.8 | 54.03
Neigh   | 294.15     | 294.49     | 294.82     |   1.9 | 38.25
Comm    | 46.187     | 46.672     | 47.156     |   7.1 |  6.06
Output  | 0.03945    | 0.039546   | 0.039643   |   0.0 |  0.01
Modify  | 9.8652     | 10.316     | 10.767     |  14.0 |  1.34
Other   |            | 2.383      |            |       |  0.31

Nlocal:    9826 ave 9829 max 9823 min
Histogram: 1 0 0 0 0 0 0 0 0 1
Nghost:    11159 ave 11162 max 11156 min
Histogram: 1 0 0 0 0 0 0 0 0 1
Neighs:    538420 ave 538790 max 538051 min
Histogram: 1 0 0 0 0 0 0 0 0 1

Total # of neighbors = 1076841
Ave neighs/atom = 54.7955
Neighbor list builds = 9505
Dangerous builds not checked
Setting up Verlet run ...
  Unit style    : metal
  Current step  : 500000
  Time step     : 0.001
Per MPI rank memory allocation (min/avg/max) = 11.36 | 11.36 | 11.36 Mbytes
Step Temp Press TotEng PotEng Enthalpy 
  500000    151.24259   -48.055926   -29226.302   -29610.472   -29240.385 
  500495    126.58648    211.25306    -29348.16   -29669.701   -29286.429 
Loop time of 39.8318 on 2 procs for 495 steps with 19652 atoms

Performance: 1.074 ns/day, 22.352 hours/ns, 12.427 timesteps/s
93.1% CPU use with 2 MPI tasks x no OpenMP threads

MPI task timing breakdown:
Section |  min time  |  avg time  |  max time  |%varavg| %total
---------------------------------------------------------------
Pair    | 21.749     | 21.888     | 22.028     |   3.0 | 54.95
Neigh   | 15.442     | 15.608     | 15.773     |   4.2 | 39.18
Comm    | 1.6897     | 1.7134     | 1.7371     |   1.8 |  4.30
Output  | 8.893e-05  | 0.00013947 | 0.00019002 |   0.0 |  0.00
Modify  | 0.49403    | 0.49593    | 0.49783    |   0.3 |  1.25
Other   |            | 0.126      |            |       |  0.32

Nlocal:    9826 ave 9827 max 9825 min
Histogram: 1 0 0 0 0 0 0 0 0 1
Nghost:    11181 ave 11182 max 11180 min
Histogram: 1 0 0 0 0 0 0 0 0 1
Neighs:    540283 ave 540410 max 540156 min
Histogram: 1 0 0 0 0 0 0 0 0 1

Total # of neighbors = 1080566
Ave neighs/atom = 54.985
Neighbor list builds = 495
Dangerous builds not checked
Setting up Verlet run ...
  Unit style    : metal
  Current step  : 500495
  Time step     : 0.001
Per MPI rank memory allocation (min/avg/max) = 11.36 | 11.36 | 11.36 Mbytes
Step Temp Press TotEng PotEng Enthalpy 
  500495    126.58648    211.25306    -29348.16   -29669.701   -29286.429 
  510000    99.724375   -59.775629   -29496.224   -29749.533   -29513.665 
Loop time of 842.172 on 2 procs for 9505 steps with 19652 atoms

Performance: 0.975 ns/day, 24.612 hours/ns, 11.286 timesteps/s
88.5% CPU use with 2 MPI tasks x no OpenMP threads

MPI task timing breakdown:
Section |  min time  |  avg time  |  max time  |%varavg| %total
---------------------------------------------------------------
Pair    | 463.53     | 464.78     | 466.04     |   5.8 | 55.19
Neigh   | 308.11     | 309.47     | 310.83     |   7.7 | 36.75
Comm    | 54.44      | 54.578     | 54.717     |   1.9 |  6.48
Output  | 0.070347   | 0.070427   | 0.070508   |   0.0 |  0.01
Modify  | 10.73      | 10.743     | 10.756     |   0.4 |  1.28
Other   |            | 2.525      |            |       |  0.30

Nlocal:    9826 ave 9831 max 9821 min
Histogram: 1 0 0 0 0 0 0 0 0 1
Nghost:    11212 ave 11237 max 11187 min
Histogram: 1 0 0 0 0 0 0 0 0 1
Neighs:    541579 ave 541875 max 541283 min
Histogram: 1 0 0 0 0 0 0 0 0 1

Total # of neighbors = 1083158
Ave neighs/atom = 55.1169
Neighbor list builds = 9505
Dangerous builds not checked
Total wall time: 10:34:59
