LAMMPS (12 Dec 2018)
Lattice spacing in x,y,z = 4 4 4
Created orthogonal box = (0 0 0) to (68 68 68)
  1 by 1 by 2 MPI processor grid
Created 19652 atoms
  Time spent = 0.00161695 secs
Setting atom values ...
  19281 settings made for type/fraction
Neighbor list info ...
  update every 1 steps, delay 0 steps, check no
  max neighbors/atom: 2000, page size: 100000
  master list distance cutoff = 8.5
  ghost atom cutoff = 8.5
  binsize = 4.25, bins = 16 16 16
  1 neighbor lists, perpetual/occasional/extra = 1 0 0
  (1) pair eam/alloy, perpetual
      attributes: half, newton on
      pair build: half/bin/atomonly/newton
      stencil: half/bin/3d/newton
      bin: standard
Setting up Verlet run ...
  Unit style    : metal
  Current step  : 0
  Time step     : 0.001
Per MPI rank memory allocation (min/avg/max) = 11.15 | 11.15 | 11.15 Mbytes
Step Temp Press TotEng PotEng Enthalpy 
       0          300    56881.345   -55279.362   -56041.389   -44116.225 
    1000    156.09585    63559.784   -55279.313   -55675.811   -42805.513 
Loop time of 106.935 on 2 procs for 1000 steps with 19652 atoms

Performance: 0.808 ns/day, 29.704 hours/ns, 9.351 timesteps/s
99.4% CPU use with 2 MPI tasks x no OpenMP threads

MPI task timing breakdown:
Section |  min time  |  avg time  |  max time  |%varavg| %total
---------------------------------------------------------------
Pair    | 62.67      | 62.883     | 63.097     |   2.7 | 58.80
Neigh   | 40.026     | 40.162     | 40.298     |   2.1 | 37.56
Comm    | 3.1682     | 3.2585     | 3.3488     |   5.0 |  3.05
Output  | 0.00014687 | 0.00027537 | 0.00040388 |   0.0 |  0.00
Modify  | 0.31366    | 0.32108    | 0.32849    |   1.3 |  0.30
Other   |            | 0.3103     |            |       |  0.29

Nlocal:    9826 ave 9839 max 9813 min
Histogram: 1 0 0 0 0 0 0 0 0 1
Nghost:    14211 ave 14224 max 14198 min
Histogram: 1 0 0 0 0 0 0 0 0 1
Neighs:    786780 ave 787423 max 786136 min
Histogram: 1 0 0 0 0 0 0 0 0 1

Total # of neighbors = 1573559
Ave neighs/atom = 80.0712
Neighbor list builds = 1000
Dangerous builds not checked
Setting up Verlet run ...
  Unit style    : metal
  Current step  : 1000
  Time step     : 0.001
Per MPI rank memory allocation (min/avg/max) = 11.15 | 11.15 | 11.15 Mbytes
Step Temp Press TotEng PotEng Enthalpy 
    1000    156.09585    63559.784   -55279.313   -55675.811   -42805.513 
    2000    293.85585   -149.63459   -54795.213   -55541.634   -54826.624 
Loop time of 101.508 on 2 procs for 1000 steps with 19652 atoms

Performance: 0.851 ns/day, 28.197 hours/ns, 9.851 timesteps/s
99.7% CPU use with 2 MPI tasks x no OpenMP threads

MPI task timing breakdown:
Section |  min time  |  avg time  |  max time  |%varavg| %total
---------------------------------------------------------------
Pair    | 57.505     | 58.232     | 58.959     |   9.5 | 57.37
Neigh   | 38.487     | 38.899     | 39.311     |   6.6 | 38.32
Comm    | 1.8938     | 3.0446     | 4.1955     |  66.0 |  3.00
Output  | 0.00012898 | 0.00026298 | 0.00039697 |   0.0 |  0.00
Modify  | 1.0167     | 1.024      | 1.0312     |   0.7 |  1.01
Other   |            | 0.3079     |            |       |  0.30

Nlocal:    9826 ave 9842 max 9810 min
Histogram: 1 0 0 0 0 0 0 0 0 1
Nghost:    14203.5 ave 14221 max 14186 min
Histogram: 1 0 0 0 0 0 0 0 0 1
Neighs:    706094 ave 707468 max 704721 min
Histogram: 1 0 0 0 0 0 0 0 0 1

Total # of neighbors = 1412189
Ave neighs/atom = 71.8598
Neighbor list builds = 1000
Dangerous builds not checked
Setting up Verlet run ...
  Unit style    : metal
  Current step  : 2000
  Time step     : 0.001
Per MPI rank memory allocation (min/avg/max) = 11.15 | 11.15 | 11.15 Mbytes
Step Temp Press TotEng PotEng Enthalpy 
    2000    293.85585   -149.63459   -54795.213   -55541.634   -54826.624 
   10000    2432.4421   -127.54845   -40102.071   -46280.696   -40138.279 
Loop time of 807.669 on 2 procs for 8000 steps with 19652 atoms

Performance: 0.856 ns/day, 28.044 hours/ns, 9.905 timesteps/s
99.4% CPU use with 2 MPI tasks x no OpenMP threads

MPI task timing breakdown:
Section |  min time  |  avg time  |  max time  |%varavg| %total
---------------------------------------------------------------
Pair    | 454.2      | 454.85     | 455.5      |   3.0 | 56.32
Neigh   | 314.2      | 317.56     | 320.91     |  18.8 | 39.32
Comm    | 20.39      | 24.448     | 28.505     |  82.1 |  3.03
Output  | 0.00013185 | 0.00021946 | 0.00030708 |   0.0 |  0.00
Modify  | 8.3135     | 8.3759     | 8.4383     |   2.2 |  1.04
Other   |            | 2.439      |            |       |  0.30

Nlocal:    9826 ave 9832 max 9820 min
Histogram: 1 0 0 0 0 0 0 0 0 1
Nghost:    11303 ave 11340 max 11266 min
Histogram: 1 0 0 0 0 0 0 0 0 1
Neighs:    543310 ave 544011 max 542609 min
Histogram: 1 0 0 0 0 0 0 0 0 1

Total # of neighbors = 1086620
Ave neighs/atom = 55.2931
Neighbor list builds = 8000
Dangerous builds not checked
Setting up Verlet run ...
  Unit style    : metal
  Current step  : 10000
  Time step     : 0.001
Per MPI rank memory allocation (min/avg/max) = 11.15 | 11.15 | 11.15 Mbytes
Step Temp Press TotEng PotEng Enthalpy 
   10000    2432.4421   -127.54845   -40102.071   -46280.696   -40138.279 
   20000     2446.858   -53.887398   -39826.048    -46041.29   -39841.491 
   40000       2446.1    517.72758   -39957.639   -46170.955   -39810.067 
Loop time of 2805.01 on 2 procs for 30000 steps with 19652 atoms

Performance: 0.924 ns/day, 25.972 hours/ns, 10.695 timesteps/s
99.5% CPU use with 2 MPI tasks x no OpenMP threads

MPI task timing breakdown:
Section |  min time  |  avg time  |  max time  |%varavg| %total
---------------------------------------------------------------
Pair    | 1581       | 1589.1     | 1597.2     |  20.3 | 56.65
Neigh   | 1082.4     | 1087.3     | 1092.2     |  14.9 | 38.76
Comm    | 84.603     | 87.77      | 90.936     |  33.8 |  3.13
Output  | 0.082807   | 0.082905   | 0.083003   |   0.0 |  0.00
Modify  | 31.667     | 31.688     | 31.709     |   0.4 |  1.13
Other   |            | 9.045      |            |       |  0.32

Nlocal:    9826 ave 9834 max 9818 min
Histogram: 1 0 0 0 0 0 0 0 0 1
Nghost:    11266 ave 11272 max 11260 min
Histogram: 1 0 0 0 0 0 0 0 0 1
Neighs:    540966 ave 542762 max 539171 min
Histogram: 1 0 0 0 0 0 0 0 0 1

Total # of neighbors = 1081933
Ave neighs/atom = 55.0546
Neighbor list builds = 30000
Dangerous builds not checked
Setting up Verlet run ...
  Unit style    : metal
  Current step  : 40000
  Time step     : 0.001
Per MPI rank memory allocation (min/avg/max) = 11.24 | 11.24 | 11.24 Mbytes
Step Temp Press TotEng PotEng Enthalpy 
   40000       2446.1    517.72758   -39957.639   -46170.955   -39810.067 
   40495    2414.3415    725.84068   -40016.411   -46149.059   -39809.502 
Loop time of 44.238 on 2 procs for 495 steps with 19652 atoms

Performance: 0.967 ns/day, 24.825 hours/ns, 11.189 timesteps/s
99.8% CPU use with 2 MPI tasks x no OpenMP threads

MPI task timing breakdown:
Section |  min time  |  avg time  |  max time  |%varavg| %total
---------------------------------------------------------------
Pair    | 24.179     | 24.79      | 25.401     |  12.3 | 56.04
Neigh   | 17.108     | 17.377     | 17.646     |   6.4 | 39.28
Comm    | 1.0431     | 1.3836     | 1.7242     |  28.9 |  3.13
Output  | 0.00011587 | 0.00022984 | 0.0003438  |   0.0 |  0.00
Modify  | 0.53657    | 0.53695    | 0.53733    |   0.1 |  1.21
Other   |            | 0.1502     |            |       |  0.34

Nlocal:    9826 ave 9840 max 9812 min
Histogram: 1 0 0 0 0 0 0 0 0 1
Nghost:    11220.5 ave 11228 max 11213 min
Histogram: 1 0 0 0 0 0 0 0 0 1
Neighs:    541098 ave 543219 max 538978 min
Histogram: 1 0 0 0 0 0 0 0 0 1

Total # of neighbors = 1082197
Ave neighs/atom = 55.068
Neighbor list builds = 495
Dangerous builds not checked
Setting up Verlet run ...
  Unit style    : metal
  Current step  : 40495
  Time step     : 0.001
Per MPI rank memory allocation (min/avg/max) = 11.24 | 11.24 | 11.24 Mbytes
Step Temp Press TotEng PotEng Enthalpy 
   40495    2414.3415    725.84068   -40016.411   -46149.059   -39809.502 
   60000    2405.0567    350.80816   -40160.538   -46269.601   -40060.945 
Loop time of 1811.48 on 2 procs for 19505 steps with 19652 atoms

Performance: 0.930 ns/day, 25.798 hours/ns, 10.767 timesteps/s
99.5% CPU use with 2 MPI tasks x no OpenMP threads

MPI task timing breakdown:
Section |  min time  |  avg time  |  max time  |%varavg| %total
---------------------------------------------------------------
Pair    | 1024.2     | 1026.2     | 1028.3     |   6.5 | 56.65
Neigh   | 700.79     | 701.49     | 702.19     |   2.6 | 38.72
Comm    | 54.711     | 57.573     | 60.435     |  37.7 |  3.18
Output  | 0.040759   | 0.040858   | 0.040956   |   0.0 |  0.00
Modify  | 20.271     | 20.338     | 20.405     |   1.5 |  1.12
Other   |            | 5.796      |            |       |  0.32

Nlocal:    9826 ave 9838 max 9814 min
Histogram: 1 0 0 0 0 0 0 0 0 1
Nghost:    11295 ave 11296 max 11294 min
Histogram: 1 0 0 0 0 0 0 0 0 1
Neighs:    543008 ave 544410 max 541605 min
Histogram: 1 0 0 0 0 0 0 0 0 1

Total # of neighbors = 1086015
Ave neighs/atom = 55.2623
Neighbor list builds = 19505
Dangerous builds not checked
Setting up Verlet run ...
  Unit style    : metal
  Current step  : 60000
  Time step     : 0.001
Per MPI rank memory allocation (min/avg/max) = 11.26 | 11.26 | 11.26 Mbytes
Step Temp Press TotEng PotEng Enthalpy 
   60000    2405.0567    350.80816   -40160.538   -46269.601   -40060.945 
   60495    2357.0323   -253.54104   -40381.929   -46369.006    -40453.75 
Loop time of 42.1512 on 2 procs for 495 steps with 19652 atoms

Performance: 1.015 ns/day, 23.654 hours/ns, 11.743 timesteps/s
99.5% CPU use with 2 MPI tasks x no OpenMP threads

MPI task timing breakdown:
Section |  min time  |  avg time  |  max time  |%varavg| %total
---------------------------------------------------------------
Pair    | 23.508     | 23.567     | 23.625     |   1.2 | 55.91
Neigh   | 16.428     | 16.511     | 16.594     |   2.0 | 39.17
Comm    | 1.3021     | 1.4478     | 1.5936     |  12.1 |  3.43
Output  | 0.00011802 | 0.00021505 | 0.00031209 |   0.0 |  0.00
Modify  | 0.47963    | 0.48432    | 0.48902    |   0.7 |  1.15
Other   |            | 0.1411     |            |       |  0.33

Nlocal:    9826 ave 9850 max 9802 min
Histogram: 1 0 0 0 0 0 0 0 0 1
Nghost:    11321.5 ave 11335 max 11308 min
Histogram: 1 0 0 0 0 0 0 0 0 1
Neighs:    544170 ave 546460 max 541881 min
Histogram: 1 0 0 0 0 0 0 0 0 1

Total # of neighbors = 1088341
Ave neighs/atom = 55.3807
Neighbor list builds = 495
Dangerous builds not checked
Setting up Verlet run ...
  Unit style    : metal
  Current step  : 60495
  Time step     : 0.001
Per MPI rank memory allocation (min/avg/max) = 11.26 | 11.26 | 11.26 Mbytes
Step Temp Press TotEng PotEng Enthalpy 
   60495    2357.0323   -253.54104   -40381.929   -46369.006    -40453.75 
   80000    2340.2739   -220.42227   -40568.931    -46513.44   -40630.964 
Loop time of 1813.37 on 2 procs for 19505 steps with 19652 atoms

Performance: 0.929 ns/day, 25.825 hours/ns, 10.756 timesteps/s
99.6% CPU use with 2 MPI tasks x no OpenMP threads

MPI task timing breakdown:
Section |  min time  |  avg time  |  max time  |%varavg| %total
---------------------------------------------------------------
Pair    | 1026       | 1030.1     | 1034.2     |  12.8 | 56.81
Neigh   | 696.91     | 697.31     | 697.71     |   1.5 | 38.45
Comm    | 55.578     | 60.119     | 64.661     |  58.6 |  3.32
Output  | 0.038677   | 0.038772   | 0.038867   |   0.0 |  0.00
Modify  | 20.027     | 20.093     | 20.159     |   1.5 |  1.11
Other   |            | 5.71       |            |       |  0.31

Nlocal:    9826 ave 9832 max 9820 min
Histogram: 1 0 0 0 0 0 0 0 0 1
Nghost:    11328.5 ave 11387 max 11270 min
Histogram: 1 0 0 0 0 0 0 0 0 1
Neighs:    547961 ave 548907 max 547015 min
Histogram: 1 0 0 0 0 0 0 0 0 1

Total # of neighbors = 1095922
Ave neighs/atom = 55.7664
Neighbor list builds = 19505
Dangerous builds not checked
Setting up Verlet run ...
  Unit style    : metal
  Current step  : 80000
  Time step     : 0.001
Per MPI rank memory allocation (min/avg/max) = 11.29 | 11.29 | 11.29 Mbytes
Step Temp Press TotEng PotEng Enthalpy 
   80000    2340.2739   -220.42227   -40568.931    -46513.44   -40630.964 
   80495    2314.3029   -750.88619   -40712.987   -46591.527   -40923.958 
Loop time of 44.7576 on 2 procs for 495 steps with 19652 atoms

Performance: 0.956 ns/day, 25.116 hours/ns, 11.060 timesteps/s
98.8% CPU use with 2 MPI tasks x no OpenMP threads

MPI task timing breakdown:
Section |  min time  |  avg time  |  max time  |%varavg| %total
---------------------------------------------------------------
Pair    | 25.375     | 25.443     | 25.512     |   1.4 | 56.85
Neigh   | 17.236     | 17.345     | 17.454     |   2.6 | 38.75
Comm    | 1.2615     | 1.3022     | 1.3429     |   3.6 |  2.91
Output  | 8.1062e-05 | 0.00016952 | 0.00025797 |   0.0 |  0.00
Modify  | 0.51554    | 0.51681    | 0.51809    |   0.2 |  1.15
Other   |            | 0.1501     |            |       |  0.34

Nlocal:    9826 ave 9863 max 9789 min
Histogram: 1 0 0 0 0 0 0 0 0 1
Nghost:    11316.5 ave 11341 max 11292 min
Histogram: 1 0 0 0 0 0 0 0 0 1
Neighs:    548866 ave 553279 max 544452 min
Histogram: 1 0 0 0 0 0 0 0 0 1

Total # of neighbors = 1097731
Ave neighs/atom = 55.8585
Neighbor list builds = 495
Dangerous builds not checked
Setting up Verlet run ...
  Unit style    : metal
  Current step  : 80495
  Time step     : 0.001
Per MPI rank memory allocation (min/avg/max) = 11.29 | 11.29 | 11.29 Mbytes
Step Temp Press TotEng PotEng Enthalpy 
   80495    2314.3029   -750.88619   -40712.987   -46591.527   -40923.958 
  100000     2273.437   -597.02444   -40869.329   -46644.066   -41036.491 
Loop time of 1865.54 on 2 procs for 19505 steps with 19652 atoms

Performance: 0.903 ns/day, 26.568 hours/ns, 10.455 timesteps/s
99.0% CPU use with 2 MPI tasks x no OpenMP threads

MPI task timing breakdown:
Section |  min time  |  avg time  |  max time  |%varavg| %total
---------------------------------------------------------------
Pair    | 1044       | 1051.2     | 1058.4     |  22.3 | 56.35
Neigh   | 720.5      | 721.5      | 722.49     |   3.7 | 38.68
Comm    | 57.681     | 65.974     | 74.267     | 102.1 |  3.54
Output  | 0.040844   | 0.040884   | 0.040925   |   0.0 |  0.00
Modify  | 21.036     | 21.121     | 21.205     |   1.8 |  1.13
Other   |            | 5.719      |            |       |  0.31

Nlocal:    9826 ave 9837 max 9815 min
Histogram: 1 0 0 0 0 0 0 0 0 1
Nghost:    11324.5 ave 11361 max 11288 min
Histogram: 1 0 0 0 0 0 0 0 0 1
Neighs:    550786 ave 551869 max 549702 min
Histogram: 1 0 0 0 0 0 0 0 0 1

Total # of neighbors = 1101571
Ave neighs/atom = 56.0539
Neighbor list builds = 19505
Dangerous builds not checked
Setting up Verlet run ...
  Unit style    : metal
  Current step  : 100000
  Time step     : 0.001
Per MPI rank memory allocation (min/avg/max) = 11.3 | 11.3 | 11.3 Mbytes
Step Temp Press TotEng PotEng Enthalpy 
  100000     2273.437   -597.02444   -40869.329   -46644.066   -41036.491 
  100495    2247.7573    272.88899   -41023.549   -46733.057   -40947.495 
Loop time of 44.5297 on 2 procs for 495 steps with 19652 atoms

Performance: 0.960 ns/day, 24.989 hours/ns, 11.116 timesteps/s
99.3% CPU use with 2 MPI tasks x no OpenMP threads

MPI task timing breakdown:
Section |  min time  |  avg time  |  max time  |%varavg| %total
---------------------------------------------------------------
Pair    | 24.743     | 24.8       | 24.858     |   1.2 | 55.69
Neigh   | 17.292     | 17.512     | 17.733     |   5.3 | 39.33
Comm    | 1.2908     | 1.5764     | 1.862      |  22.7 |  3.54
Output  | 8.9884e-05 | 0.000193   | 0.00029612 |   0.0 |  0.00
Modify  | 0.49113    | 0.49832    | 0.5055     |   1.0 |  1.12
Other   |            | 0.1421     |            |       |  0.32

Nlocal:    9826 ave 9870 max 9782 min
Histogram: 1 0 0 0 0 0 0 0 0 1
Nghost:    11395 ave 11427 max 11363 min
Histogram: 1 0 0 0 0 0 0 0 0 1
Neighs:    553284 ave 562232 max 544336 min
Histogram: 1 0 0 0 0 0 0 0 0 1

Total # of neighbors = 1106568
Ave neighs/atom = 56.3082
Neighbor list builds = 495
Dangerous builds not checked
Setting up Verlet run ...
  Unit style    : metal
  Current step  : 100495
  Time step     : 0.001
Per MPI rank memory allocation (min/avg/max) = 11.3 | 11.3 | 11.3 Mbytes
Step Temp Press TotEng PotEng Enthalpy 
  100495    2247.7573    272.88899   -41023.549   -46733.057   -40947.495 
  120000    2254.4067   -99.558221   -41125.349   -46851.747   -41152.966 
Loop time of 1999.2 on 2 procs for 19505 steps with 19652 atoms

Performance: 0.843 ns/day, 28.471 hours/ns, 9.756 timesteps/s
99.5% CPU use with 2 MPI tasks x no OpenMP threads

MPI task timing breakdown:
Section |  min time  |  avg time  |  max time  |%varavg| %total
---------------------------------------------------------------
Pair    | 1106.7     | 1120.2     | 1133.7     |  40.4 | 56.03
Neigh   | 774.35     | 779.51     | 784.67     |  18.5 | 38.99
Comm    | 49.984     | 68.749     | 87.514     | 226.3 |  3.44
Output  | 0.040968   | 0.041065   | 0.041163   |   0.0 |  0.00
Modify  | 24.407     | 24.515     | 24.623     |   2.2 |  1.23
Other   |            | 6.159      |            |       |  0.31

Nlocal:    9826 ave 9829 max 9823 min
Histogram: 1 0 0 0 0 0 0 0 0 1
Nghost:    11450 ave 11474 max 11426 min
Histogram: 1 0 0 0 0 0 0 0 0 1
Neighs:    556256 ave 561217 max 551295 min
Histogram: 1 0 0 0 0 0 0 0 0 1

Total # of neighbors = 1112512
Ave neighs/atom = 56.6106
Neighbor list builds = 19505
Dangerous builds not checked
Setting up Verlet run ...
  Unit style    : metal
  Current step  : 120000
  Time step     : 0.001
Per MPI rank memory allocation (min/avg/max) = 11.31 | 11.31 | 11.31 Mbytes
Step Temp Press TotEng PotEng Enthalpy 
  120000    2254.4067   -99.558221   -41125.349   -46851.747   -41152.966 
  120495     2224.421     389.4864   -41372.351   -47022.583   -41264.991 
Loop time of 48.9778 on 2 procs for 495 steps with 19652 atoms

Performance: 0.873 ns/day, 27.485 hours/ns, 10.107 timesteps/s
99.2% CPU use with 2 MPI tasks x no OpenMP threads

MPI task timing breakdown:
Section |  min time  |  avg time  |  max time  |%varavg| %total
---------------------------------------------------------------
Pair    | 27.403     | 27.405     | 27.408     |   0.1 | 55.95
Neigh   | 18.96      | 19.167     | 19.374     |   4.7 | 39.13
Comm    | 1.4708     | 1.6843     | 1.8979     |  16.5 |  3.44
Output  | 0.00011802 | 0.00022507 | 0.00033212 |   0.0 |  0.00
Modify  | 0.55566    | 0.5577     | 0.55974    |   0.3 |  1.14
Other   |            | 0.1628     |            |       |  0.33

Nlocal:    9826 ave 9845 max 9807 min
Histogram: 1 0 0 0 0 0 0 0 0 1
Nghost:    11450.5 ave 11472 max 11429 min
Histogram: 1 0 0 0 0 0 0 0 0 1
Neighs:    559750 ave 566573 max 552927 min
Histogram: 1 0 0 0 0 0 0 0 0 1

Total # of neighbors = 1119500
Ave neighs/atom = 56.9662
Neighbor list builds = 495
Dangerous builds not checked
Setting up Verlet run ...
  Unit style    : metal
  Current step  : 120495
  Time step     : 0.001
Per MPI rank memory allocation (min/avg/max) = 11.31 | 11.31 | 11.31 Mbytes
Step Temp Press TotEng PotEng Enthalpy 
  120495     2224.421     389.4864   -41372.351   -47022.583   -41264.991 
  140000    2231.3556    1161.7388   -41358.958   -47026.805   -41039.307 
Loop time of 2011.36 on 2 procs for 19505 steps with 19652 atoms

Performance: 0.838 ns/day, 28.644 hours/ns, 9.697 timesteps/s
97.0% CPU use with 2 MPI tasks x no OpenMP threads

MPI task timing breakdown:
Section |  min time  |  avg time  |  max time  |%varavg| %total
---------------------------------------------------------------
Pair    | 1109.2     | 1117.1     | 1125       |  23.6 | 55.54
Neigh   | 779.5      | 785.41     | 791.32     |  21.1 | 39.05
Comm    | 67.38      | 81.343     | 95.305     | 154.8 |  4.04
Output  | 0.041139   | 0.041411   | 0.041683   |   0.1 |  0.00
Modify  | 21.361     | 21.53      | 21.698     |   3.6 |  1.07
Other   |            | 5.955      |            |       |  0.30

Nlocal:    9826 ave 9844 max 9808 min
Histogram: 1 0 0 0 0 0 0 0 0 1
Nghost:    11500 ave 11507 max 11493 min
Histogram: 1 0 0 0 0 0 0 0 0 1
Neighs:    560595 ave 563451 max 557739 min
Histogram: 1 0 0 0 0 0 0 0 0 1

Total # of neighbors = 1121190
Ave neighs/atom = 57.0522
Neighbor list builds = 19505
Dangerous builds not checked
Setting up Verlet run ...
  Unit style    : metal
  Current step  : 140000
  Time step     : 0.001
Per MPI rank memory allocation (min/avg/max) = 11.31 | 11.31 | 11.31 Mbytes
Step Temp Press TotEng PotEng Enthalpy 
  140000    2231.3556    1161.7388   -41358.958   -47026.805   -41039.307 
  140495    2164.9863   -305.00313   -41651.678    -47150.94   -41735.308 
Loop time of 49.1038 on 2 procs for 495 steps with 19652 atoms

Performance: 0.871 ns/day, 27.555 hours/ns, 10.081 timesteps/s
97.3% CPU use with 2 MPI tasks x no OpenMP threads

MPI task timing breakdown:
Section |  min time  |  avg time  |  max time  |%varavg| %total
---------------------------------------------------------------
Pair    | 26.458     | 27.086     | 27.714     |  12.1 | 55.16
Neigh   | 19.089     | 19.141     | 19.193     |   1.2 | 38.98
Comm    | 1.4947     | 2.1811     | 2.8676     |  46.5 |  4.44
Output  | 0.00013089 | 0.00029695 | 0.00046301 |   0.0 |  0.00
Modify  | 0.54315    | 0.54633    | 0.54952    |   0.4 |  1.11
Other   |            | 0.1491     |            |       |  0.30

Nlocal:    9826 ave 9842 max 9810 min
Histogram: 1 0 0 0 0 0 0 0 0 1
Nghost:    11507 ave 11530 max 11484 min
Histogram: 1 0 0 0 0 0 0 0 0 1
Neighs:    562654 ave 568835 max 556473 min
Histogram: 1 0 0 0 0 0 0 0 0 1

Total # of neighbors = 1125308
Ave neighs/atom = 57.2618
Neighbor list builds = 495
Dangerous builds not checked
Setting up Verlet run ...
  Unit style    : metal
  Current step  : 140495
  Time step     : 0.001
Per MPI rank memory allocation (min/avg/max) = 11.31 | 11.31 | 11.31 Mbytes
Step Temp Press TotEng PotEng Enthalpy 
  140495    2164.9863   -305.00313   -41651.678    -47150.94   -41735.308 
  160000    2134.3432   -950.17685   -41799.619   -47221.046   -42059.974 
Loop time of 2055.71 on 2 procs for 19505 steps with 19652 atoms

Performance: 0.820 ns/day, 29.276 hours/ns, 9.488 timesteps/s
94.8% CPU use with 2 MPI tasks x no OpenMP threads

MPI task timing breakdown:
Section |  min time  |  avg time  |  max time  |%varavg| %total
---------------------------------------------------------------
Pair    | 1125.2     | 1138.5     | 1151.7     |  39.4 | 55.38
Neigh   | 794.01     | 795.93     | 797.86     |   6.8 | 38.72
Comm    | 77.599     | 92.94      | 108.28     | 159.1 |  4.52
Output  | 0.037519   | 0.037549   | 0.037579   |   0.0 |  0.00
Modify  | 22.216     | 22.382     | 22.549     |   3.5 |  1.09
Other   |            | 5.952      |            |       |  0.29

Nlocal:    9826 ave 9834 max 9818 min
Histogram: 1 0 0 0 0 0 0 0 0 1
Nghost:    11458 ave 11481 max 11435 min
Histogram: 1 0 0 0 0 0 0 0 0 1
Neighs:    563072 ave 569105 max 557039 min
Histogram: 1 0 0 0 0 0 0 0 0 1

Total # of neighbors = 1126144
Ave neighs/atom = 57.3043
Neighbor list builds = 19505
Dangerous builds not checked
Setting up Verlet run ...
  Unit style    : metal
  Current step  : 160000
  Time step     : 0.001
Per MPI rank memory allocation (min/avg/max) = 11.32 | 11.32 | 11.32 Mbytes
Step Temp Press TotEng PotEng Enthalpy 
  160000    2134.3432   -950.17685   -41799.619   -47221.046   -42059.974 
  160495    2111.7428   -370.45185   -41963.708   -47327.727   -42064.713 
Loop time of 46.8192 on 2 procs for 495 steps with 19652 atoms

Performance: 0.913 ns/day, 26.273 hours/ns, 10.573 timesteps/s
97.6% CPU use with 2 MPI tasks x no OpenMP threads

MPI task timing breakdown:
Section |  min time  |  avg time  |  max time  |%varavg| %total
---------------------------------------------------------------
Pair    | 25.701     | 25.744     | 25.786     |   0.8 | 54.99
Neigh   | 18.967     | 18.978     | 18.989     |   0.3 | 40.53
Comm    | 1.3661     | 1.4264     | 1.4866     |   5.0 |  3.05
Output  | 0.00010514 | 0.00015962 | 0.0002141  |   0.0 |  0.00
Modify  | 0.51341    | 0.51916    | 0.52491    |   0.8 |  1.11
Other   |            | 0.152      |            |       |  0.32

Nlocal:    9826 ave 9830 max 9822 min
Histogram: 1 0 0 0 0 0 0 0 0 1
Nghost:    11532.5 ave 11534 max 11531 min
Histogram: 1 0 0 0 0 0 0 0 0 1
Neighs:    565775 ave 572814 max 558736 min
Histogram: 1 0 0 0 0 0 0 0 0 1

Total # of neighbors = 1131550
Ave neighs/atom = 57.5794
Neighbor list builds = 495
Dangerous builds not checked
Setting up Verlet run ...
  Unit style    : metal
  Current step  : 160495
  Time step     : 0.001
Per MPI rank memory allocation (min/avg/max) = 11.32 | 11.32 | 11.32 Mbytes
Step Temp Press TotEng PotEng Enthalpy 
  160495    2111.7428   -370.45185   -41963.708   -47327.727   -42064.713 
  180000     2092.645    154.51064   -42099.695   -47415.204   -42057.775 
Loop time of 2146.87 on 2 procs for 19505 steps with 19652 atoms

Performance: 0.785 ns/day, 30.574 hours/ns, 9.085 timesteps/s
91.1% CPU use with 2 MPI tasks x no OpenMP threads

MPI task timing breakdown:
Section |  min time  |  avg time  |  max time  |%varavg| %total
---------------------------------------------------------------
Pair    | 1179.5     | 1190.7     | 1201.8     |  32.3 | 55.46
Neigh   | 810.37     | 813.85     | 817.33     |  12.2 | 37.91
Comm    | 98.511     | 113.14     | 127.76     | 137.5 |  5.27
Output  | 0.040932   | 0.041024   | 0.041117   |   0.0 |  0.00
Modify  | 23.315     | 23.337     | 23.359     |   0.5 |  1.09
Other   |            | 5.84       |            |       |  0.27

Nlocal:    9826 ave 9826 max 9826 min
Histogram: 2 0 0 0 0 0 0 0 0 0
Nghost:    11535.5 ave 11619 max 11452 min
Histogram: 1 0 0 0 0 0 0 0 0 1
Neighs:    569048 ave 574321 max 563776 min
Histogram: 1 0 0 0 0 0 0 0 0 1

Total # of neighbors = 1138097
Ave neighs/atom = 57.9125
Neighbor list builds = 19505
Dangerous builds not checked
Setting up Verlet run ...
  Unit style    : metal
  Current step  : 180000
  Time step     : 0.001
Per MPI rank memory allocation (min/avg/max) = 11.32 | 11.32 | 11.32 Mbytes
Step Temp Press TotEng PotEng Enthalpy 
  180000     2092.645    154.51064   -42099.695   -47415.204   -42057.775 
  180495    2064.2131    334.24798   -42283.992   -47527.281   -42193.714 
Loop time of 52.9964 on 2 procs for 495 steps with 19652 atoms

Performance: 0.807 ns/day, 29.740 hours/ns, 9.340 timesteps/s
89.8% CPU use with 2 MPI tasks x no OpenMP threads

MPI task timing breakdown:
Section |  min time  |  avg time  |  max time  |%varavg| %total
---------------------------------------------------------------
Pair    | 29.023     | 29.246     | 29.47      |   4.1 | 55.19
Neigh   | 20.132     | 20.227     | 20.321     |   2.1 | 38.17
Comm    | 2.6705     | 2.8078     | 2.945      |   8.2 |  5.30
Output  | 0.00012493 | 0.00020146 | 0.000278   |   0.0 |  0.00
Modify  | 0.55813    | 0.55842    | 0.55872    |   0.0 |  1.05
Other   |            | 0.1569     |            |       |  0.30

Nlocal:    9826 ave 9832 max 9820 min
Histogram: 1 0 0 0 0 0 0 0 0 1
Nghost:    11545.5 ave 11573 max 11518 min
Histogram: 1 0 0 0 0 0 0 0 0 1
Neighs:    571268 ave 576549 max 565988 min
Histogram: 1 0 0 0 0 0 0 0 0 1

Total # of neighbors = 1142537
Ave neighs/atom = 58.1385
Neighbor list builds = 495
Dangerous builds not checked
Setting up Verlet run ...
  Unit style    : metal
  Current step  : 180495
  Time step     : 0.001
Per MPI rank memory allocation (min/avg/max) = 11.32 | 11.32 | 11.32 Mbytes
Step Temp Press TotEng PotEng Enthalpy 
  180495    2064.2131    334.24798   -42283.992   -47527.281   -42193.714 
  200000    2042.4906    144.48613   -42474.243   -47662.356     -42435.4 
Loop time of 2131.18 on 2 procs for 19505 steps with 19652 atoms

Performance: 0.791 ns/day, 30.351 hours/ns, 9.152 timesteps/s
91.5% CPU use with 2 MPI tasks x no OpenMP threads

MPI task timing breakdown:
Section |  min time  |  avg time  |  max time  |%varavg| %total
---------------------------------------------------------------
Pair    | 1168.1     | 1180.5     | 1192.9     |  36.1 | 55.39
Neigh   | 805.35     | 807.84     | 810.33     |   8.8 | 37.91
Comm    | 97.993     | 112.95     | 127.9      | 140.7 |  5.30
Output  | 0.036242   | 0.03632    | 0.036399   |   0.0 |  0.00
Modify  | 23.873     | 23.93      | 23.987     |   1.2 |  1.12
Other   |            | 5.922      |            |       |  0.28

Nlocal:    9826 ave 9839 max 9813 min
Histogram: 1 0 0 0 0 0 0 0 0 1
Nghost:    11559.5 ave 11581 max 11538 min
Histogram: 1 0 0 0 0 0 0 0 0 1
Neighs:    574147 ave 581552 max 566742 min
Histogram: 1 0 0 0 0 0 0 0 0 1

Total # of neighbors = 1148294
Ave neighs/atom = 58.4314
Neighbor list builds = 19505
Dangerous builds not checked
Setting up Verlet run ...
  Unit style    : metal
  Current step  : 200000
  Time step     : 0.001
Per MPI rank memory allocation (min/avg/max) = 11.33 | 11.33 | 11.33 Mbytes
Step Temp Press TotEng PotEng Enthalpy 
  200000    2042.4906    144.48613   -42474.243   -47662.356     -42435.4 
  200495    2012.4868   -723.55304    -42613.13    -47725.03   -42807.572 
Loop time of 52.6715 on 2 procs for 495 steps with 19652 atoms

Performance: 0.812 ns/day, 29.557 hours/ns, 9.398 timesteps/s
92.0% CPU use with 2 MPI tasks x no OpenMP threads

MPI task timing breakdown:
Section |  min time  |  avg time  |  max time  |%varavg| %total
---------------------------------------------------------------
Pair    | 29.104     | 29.256     | 29.408     |   2.8 | 55.54
Neigh   | 19.513     | 19.872     | 20.23      |   8.0 | 37.73
Comm    | 2.3083     | 2.819      | 3.3297     |  30.4 |  5.35
Output  | 0.00012898 | 0.00026155 | 0.00039411 |   0.0 |  0.00
Modify  | 0.57197    | 0.57563    | 0.57929    |   0.5 |  1.09
Other   |            | 0.149      |            |       |  0.28

Nlocal:    9826 ave 9846 max 9806 min
Histogram: 1 0 0 0 0 0 0 0 0 1
Nghost:    11534 ave 11561 max 11507 min
Histogram: 1 0 0 0 0 0 0 0 0 1
Neighs:    574436 ave 581769 max 567104 min
Histogram: 1 0 0 0 0 0 0 0 0 1

Total # of neighbors = 1148873
Ave neighs/atom = 58.4609
Neighbor list builds = 495
Dangerous builds not checked
Setting up Verlet run ...
  Unit style    : metal
  Current step  : 200495
  Time step     : 0.001
Per MPI rank memory allocation (min/avg/max) = 11.33 | 11.33 | 11.33 Mbytes
Step Temp Press TotEng PotEng Enthalpy 
  200495    2012.4868   -723.55304    -42613.13    -47725.03   -42807.572 
  220000    2002.3202    1022.9323   -42679.275   -47765.351   -42405.824 
Loop time of 2047.37 on 2 procs for 19505 steps with 19652 atoms

Performance: 0.823 ns/day, 29.157 hours/ns, 9.527 timesteps/s
96.8% CPU use with 2 MPI tasks x no OpenMP threads

MPI task timing breakdown:
Section |  min time  |  avg time  |  max time  |%varavg| %total
---------------------------------------------------------------
Pair    | 1140.7     | 1148.1     | 1155.5     |  21.9 | 56.08
Neigh   | 781.24     | 787.13     | 793.02     |  21.0 | 38.45
Comm    | 69.21      | 82.891     | 96.573     | 150.3 |  4.05
Output  | 0.041343   | 0.041464   | 0.041586   |   0.1 |  0.00
Modify  | 22.767     | 23.16      | 23.552     |   8.2 |  1.13
Other   |            | 6.029      |            |       |  0.29

Nlocal:    9826 ave 9849 max 9803 min
Histogram: 1 0 0 0 0 0 0 0 0 1
Nghost:    11627.5 ave 11637 max 11618 min
Histogram: 1 0 0 0 0 0 0 0 0 1
Neighs:    577572 ave 584720 max 570424 min
Histogram: 1 0 0 0 0 0 0 0 0 1

Total # of neighbors = 1155144
Ave neighs/atom = 58.78
Neighbor list builds = 19505
Dangerous builds not checked
Setting up Verlet run ...
  Unit style    : metal
  Current step  : 220000
  Time step     : 0.001
Per MPI rank memory allocation (min/avg/max) = 11.33 | 11.33 | 11.33 Mbytes
Step Temp Press TotEng PotEng Enthalpy 
  220000    2002.3202    1022.9323   -42679.275   -47765.351   -42405.824 
  220495    1963.5352   -579.99914   -42827.277   -47814.835   -42982.562 
Loop time of 49.0257 on 2 procs for 495 steps with 19652 atoms

Performance: 0.872 ns/day, 27.512 hours/ns, 10.097 timesteps/s
97.9% CPU use with 2 MPI tasks x no OpenMP threads

MPI task timing breakdown:
Section |  min time  |  avg time  |  max time  |%varavg| %total
---------------------------------------------------------------
Pair    | 27.073     | 27.618     | 28.164     |  10.4 | 56.33
Neigh   | 18.614     | 19.004     | 19.395     |   9.0 | 38.76
Comm    | 1.5458     | 1.7014     | 1.8571     |  11.9 |  3.47
Output  | 0.00015593 | 0.00019944 | 0.00024295 |   0.0 |  0.00
Modify  | 0.54579    | 0.54691    | 0.54803    |   0.2 |  1.12
Other   |            | 0.1544     |            |       |  0.32

Nlocal:    9826 ave 9857 max 9795 min
Histogram: 1 0 0 0 0 0 0 0 0 1
Nghost:    11632 ave 11664 max 11600 min
Histogram: 1 0 0 0 0 0 0 0 0 1
Neighs:    576548 ave 579777 max 573320 min
Histogram: 1 0 0 0 0 0 0 0 0 1

Total # of neighbors = 1153097
Ave neighs/atom = 58.6758
Neighbor list builds = 495
Dangerous builds not checked
Setting up Verlet run ...
  Unit style    : metal
  Current step  : 220495
  Time step     : 0.001
Per MPI rank memory allocation (min/avg/max) = 11.33 | 11.33 | 11.33 Mbytes
Step Temp Press TotEng PotEng Enthalpy 
  220495    1963.5352   -579.99914   -42827.277   -47814.835   -42982.562 
  240000    1936.1725   -725.62058    -42988.83   -47906.884   -43182.253 
Loop time of 1953.16 on 2 procs for 19505 steps with 19652 atoms

Performance: 0.863 ns/day, 27.816 hours/ns, 9.986 timesteps/s
99.0% CPU use with 2 MPI tasks x no OpenMP threads

MPI task timing breakdown:
Section |  min time  |  avg time  |  max time  |%varavg| %total
---------------------------------------------------------------
Pair    | 1088.7     | 1093.3     | 1097.8     |  13.8 | 55.98
Neigh   | 755.78     | 761.54     | 767.3      |  20.9 | 38.99
Comm    | 61.182     | 71.626     | 82.07      | 123.4 |  3.67
Output  | 0.039145   | 0.039224   | 0.039302   |   0.0 |  0.00
Modify  | 20.654     | 20.797     | 20.94      |   3.1 |  1.06
Other   |            | 5.873      |            |       |  0.30

Nlocal:    9826 ave 9836 max 9816 min
Histogram: 1 0 0 0 0 0 0 0 0 1
Nghost:    11649 ave 11713 max 11585 min
Histogram: 1 0 0 0 0 0 0 0 0 1
Neighs:    579209 ave 582838 max 575580 min
Histogram: 1 0 0 0 0 0 0 0 0 1

Total # of neighbors = 1158418
Ave neighs/atom = 58.9466
Neighbor list builds = 19505
Dangerous builds not checked
Setting up Verlet run ...
  Unit style    : metal
  Current step  : 240000
  Time step     : 0.001
Per MPI rank memory allocation (min/avg/max) = 11.33 | 11.33 | 11.33 Mbytes
Step Temp Press TotEng PotEng Enthalpy 
  240000    1936.1725   -725.62058    -42988.83   -47906.884   -43182.253 
  240495     1909.773    112.73382   -43223.976   -48074.974   -43194.148 
Loop time of 47.5455 on 2 procs for 495 steps with 19652 atoms

Performance: 0.900 ns/day, 26.681 hours/ns, 10.411 timesteps/s
98.6% CPU use with 2 MPI tasks x no OpenMP threads

MPI task timing breakdown:
Section |  min time  |  avg time  |  max time  |%varavg| %total
---------------------------------------------------------------
Pair    | 26.185     | 26.582     | 26.979     |   7.7 | 55.91
Neigh   | 18.648     | 18.943     | 19.237     |   6.8 | 39.84
Comm    | 1.2391     | 1.3344     | 1.4296     |   8.2 |  2.81
Output  | 0.00020409 | 0.00043607 | 0.00066805 |   0.0 |  0.00
Modify  | 0.52631    | 0.53077    | 0.53523    |   0.6 |  1.12
Other   |            | 0.1552     |            |       |  0.33

Nlocal:    9826 ave 9829 max 9823 min
Histogram: 1 0 0 0 0 0 0 0 0 1
Nghost:    11669.5 ave 11697 max 11642 min
Histogram: 1 0 0 0 0 0 0 0 0 1
Neighs:    583862 ave 589101 max 578624 min
Histogram: 1 0 0 0 0 0 0 0 0 1

Total # of neighbors = 1167725
Ave neighs/atom = 59.4202
Neighbor list builds = 495
Dangerous builds not checked
Setting up Verlet run ...
  Unit style    : metal
  Current step  : 240495
  Time step     : 0.001
Per MPI rank memory allocation (min/avg/max) = 11.33 | 11.33 | 11.33 Mbytes
Step Temp Press TotEng PotEng Enthalpy 
  240495     1909.773    112.73382   -43223.976   -48074.974   -43194.148 
  260000    1898.9845   -442.56133   -43318.395   -48141.989     -43435.4 
Loop time of 1885.65 on 2 procs for 19505 steps with 19652 atoms

Performance: 0.894 ns/day, 26.854 hours/ns, 10.344 timesteps/s
98.4% CPU use with 2 MPI tasks x no OpenMP threads

MPI task timing breakdown:
Section |  min time  |  avg time  |  max time  |%varavg| %total
---------------------------------------------------------------
Pair    | 1044       | 1049.2     | 1054.4     |  16.2 | 55.64
Neigh   | 733.71     | 739.81     | 745.91     |  22.4 | 39.23
Comm    | 60.159     | 71.674     | 83.188     | 136.0 |  3.80
Output  | 0.04123    | 0.041253   | 0.041277   |   0.0 |  0.00
Modify  | 19.216     | 19.412     | 19.609     |   4.5 |  1.03
Other   |            | 5.516      |            |       |  0.29

Nlocal:    9826 ave 9827 max 9825 min
Histogram: 1 0 0 0 0 0 0 0 0 1
Nghost:    11621.5 ave 11622 max 11621 min
Histogram: 1 0 0 0 0 0 0 0 0 1
Neighs:    584213 ave 589077 max 579349 min
Histogram: 1 0 0 0 0 0 0 0 0 1

Total # of neighbors = 1168426
Ave neighs/atom = 59.4558
Neighbor list builds = 19505
Dangerous builds not checked
Setting up Verlet run ...
  Unit style    : metal
  Current step  : 260000
  Time step     : 0.001
Per MPI rank memory allocation (min/avg/max) = 11.34 | 11.34 | 11.34 Mbytes
Step Temp Press TotEng PotEng Enthalpy 
  260000    1898.9845   -442.56133   -43318.395   -48141.989     -43435.4 
  260495    1869.4648   -428.40807   -43495.403   -48244.014   -43608.274 
Loop time of 45.9389 on 2 procs for 495 steps with 19652 atoms

Performance: 0.931 ns/day, 25.779 hours/ns, 10.775 timesteps/s
98.7% CPU use with 2 MPI tasks x no OpenMP threads

MPI task timing breakdown:
Section |  min time  |  avg time  |  max time  |%varavg| %total
---------------------------------------------------------------
Pair    | 25.047     | 25.512     | 25.976     |   9.2 | 55.53
Neigh   | 18.195     | 18.344     | 18.493     |   3.5 | 39.93
Comm    | 0.83991    | 1.46       | 2.0802     |  51.3 |  3.18
Output  | 0.00013089 | 0.00026143 | 0.00039196 |   0.0 |  0.00
Modify  | 0.47833    | 0.48554    | 0.49275    |   1.0 |  1.06
Other   |            | 0.1374     |            |       |  0.30

Nlocal:    9826 ave 9844 max 9808 min
Histogram: 1 0 0 0 0 0 0 0 0 1
Nghost:    11707.5 ave 11731 max 11684 min
Histogram: 1 0 0 0 0 0 0 0 0 1
Neighs:    586232 ave 592875 max 579589 min
Histogram: 1 0 0 0 0 0 0 0 0 1

Total # of neighbors = 1172464
Ave neighs/atom = 59.6613
Neighbor list builds = 495
Dangerous builds not checked
Setting up Verlet run ...
  Unit style    : metal
  Current step  : 260495
  Time step     : 0.001
Per MPI rank memory allocation (min/avg/max) = 11.34 | 11.34 | 11.34 Mbytes
Step Temp Press TotEng PotEng Enthalpy 
  260495    1869.4648   -428.40807   -43495.403   -48244.014   -43608.274 
  280000    1854.4464   -81.792134   -43591.417    -48301.88   -43612.903 
Loop time of 1863.7 on 2 procs for 19505 steps with 19652 atoms

Performance: 0.904 ns/day, 26.542 hours/ns, 10.466 timesteps/s
98.9% CPU use with 2 MPI tasks x no OpenMP threads

MPI task timing breakdown:
Section |  min time  |  avg time  |  max time  |%varavg| %total
---------------------------------------------------------------
Pair    | 1024.2     | 1034.4     | 1044.7     |  31.9 | 55.50
Neigh   | 745.58     | 746.16     | 746.74     |   2.1 | 40.04
Comm    | 47.504     | 58.455     | 69.407     | 143.2 |  3.14
Output  | 0.037551   | 0.037613   | 0.037676   |   0.0 |  0.00
Modify  | 19.009     | 19.127     | 19.245     |   2.7 |  1.03
Other   |            | 5.483      |            |       |  0.29

Nlocal:    9826 ave 9866 max 9786 min
Histogram: 1 0 0 0 0 0 0 0 0 1
Nghost:    11684 ave 11694 max 11674 min
Histogram: 1 0 0 0 0 0 0 0 0 1
Neighs:    588256 ave 590170 max 586343 min
Histogram: 1 0 0 0 0 0 0 0 0 1

Total # of neighbors = 1176513
Ave neighs/atom = 59.8673
Neighbor list builds = 19505
Dangerous builds not checked
Setting up Verlet run ...
  Unit style    : metal
  Current step  : 280000
  Time step     : 0.001
Per MPI rank memory allocation (min/avg/max) = 11.34 | 11.34 | 11.34 Mbytes
Step Temp Press TotEng PotEng Enthalpy 
  280000    1854.4464   -81.792134   -43591.417    -48301.88   -43612.903 
  280495    1812.4119   -141.15412   -43795.883   -48399.575   -43832.824 
Loop time of 45.2861 on 2 procs for 495 steps with 19652 atoms

Performance: 0.944 ns/day, 25.413 hours/ns, 10.931 timesteps/s
99.7% CPU use with 2 MPI tasks x no OpenMP threads

MPI task timing breakdown:
Section |  min time  |  avg time  |  max time  |%varavg| %total
---------------------------------------------------------------
Pair    | 24.819     | 25.239     | 25.658     |   8.4 | 55.73
Neigh   | 18.019     | 18.188     | 18.357     |   4.0 | 40.16
Comm    | 0.96036    | 1.2094     | 1.4585     |  22.6 |  2.67
Output  | 8.6069e-05 | 0.00020802 | 0.00032997 |   0.0 |  0.00
Modify  | 0.50691    | 0.50724    | 0.50757    |   0.0 |  1.12
Other   |            | 0.1422     |            |       |  0.31

Nlocal:    9826 ave 9833 max 9819 min
Histogram: 1 0 0 0 0 0 0 0 0 1
Nghost:    11725 ave 11734 max 11716 min
Histogram: 1 0 0 0 0 0 0 0 0 1
Neighs:    590450 ave 594574 max 586326 min
Histogram: 1 0 0 0 0 0 0 0 0 1

Total # of neighbors = 1180900
Ave neighs/atom = 60.0906
Neighbor list builds = 495
Dangerous builds not checked
Setting up Verlet run ...
  Unit style    : metal
  Current step  : 280495
  Time step     : 0.001
Per MPI rank memory allocation (min/avg/max) = 11.34 | 11.34 | 11.34 Mbytes
Step Temp Press TotEng PotEng Enthalpy 
  280495    1812.4119   -141.15412   -43795.883   -48399.575   -43832.824 
  300000     1813.143    414.08198   -43938.295   -48543.843   -43830.555 
Loop time of 1863.7 on 2 procs for 19505 steps with 19652 atoms

Performance: 0.904 ns/day, 26.542 hours/ns, 10.466 timesteps/s
99.4% CPU use with 2 MPI tasks x no OpenMP threads

MPI task timing breakdown:
Section |  min time  |  avg time  |  max time  |%varavg| %total
---------------------------------------------------------------
Pair    | 1033.1     | 1036.8     | 1040.4     |  11.3 | 55.63
Neigh   | 742.55     | 746.06     | 749.57     |  12.9 | 40.03
Comm    | 48.849     | 56.105     | 63.36      |  96.9 |  3.01
Output  | 0.037971   | 0.038003   | 0.038036   |   0.0 |  0.00
Modify  | 19.103     | 19.217     | 19.331     |   2.6 |  1.03
Other   |            | 5.516      |            |       |  0.30

Nlocal:    9826 ave 9841 max 9811 min
Histogram: 1 0 0 0 0 0 0 0 0 1
Nghost:    11773.5 ave 11810 max 11737 min
Histogram: 1 0 0 0 0 0 0 0 0 1
Neighs:    593608 ave 601038 max 586178 min
Histogram: 1 0 0 0 0 0 0 0 0 1

Total # of neighbors = 1187216
Ave neighs/atom = 60.412
Neighbor list builds = 19505
Dangerous builds not checked
Setting up Verlet run ...
  Unit style    : metal
  Current step  : 300000
  Time step     : 0.001
Per MPI rank memory allocation (min/avg/max) = 11.34 | 11.34 | 11.34 Mbytes
Step Temp Press TotEng PotEng Enthalpy 
  300000     1813.143    414.08198   -43938.295   -48543.843   -43830.555 
  300495    1774.3363    921.53794   -44127.903   -48634.879   -43889.105 
Loop time of 41.2657 on 2 procs for 495 steps with 19652 atoms

Performance: 1.036 ns/day, 23.157 hours/ns, 11.995 timesteps/s
98.1% CPU use with 2 MPI tasks x no OpenMP threads

MPI task timing breakdown:
Section |  min time  |  avg time  |  max time  |%varavg| %total
---------------------------------------------------------------
Pair    | 22.273     | 22.421     | 22.568     |   3.1 | 54.33
Neigh   | 16.995     | 17.144     | 17.293     |   3.6 | 41.55
Comm    | 0.8494     | 1.1562     | 1.4629     |  28.5 |  2.80
Output  | 8.5831e-05 | 0.00014591 | 0.00020599 |   0.0 |  0.00
Modify  | 0.41216    | 0.42038    | 0.4286     |   1.3 |  1.02
Other   |            | 0.1246     |            |       |  0.30

Nlocal:    9826 ave 9831 max 9821 min
Histogram: 1 0 0 0 0 0 0 0 0 1
Nghost:    11712.5 ave 11716 max 11709 min
Histogram: 1 0 0 0 0 0 0 0 0 1
Neighs:    596394 ave 600850 max 591937 min
Histogram: 1 0 0 0 0 0 0 0 0 1

Total # of neighbors = 1192787
Ave neighs/atom = 60.6955
Neighbor list builds = 495
Dangerous builds not checked
Setting up Verlet run ...
  Unit style    : metal
  Current step  : 300495
  Time step     : 0.001
Per MPI rank memory allocation (min/avg/max) = 11.34 | 11.34 | 11.34 Mbytes
Step Temp Press TotEng PotEng Enthalpy 
  300495    1774.3363    921.53794   -44127.903   -48634.879   -43889.105 
  320000     1746.894   -150.26824   -44209.389   -48646.659   -44248.354 
Loop time of 1758.76 on 2 procs for 19505 steps with 19652 atoms

Performance: 0.958 ns/day, 25.047 hours/ns, 11.090 timesteps/s
99.2% CPU use with 2 MPI tasks x no OpenMP threads

MPI task timing breakdown:
Section |  min time  |  avg time  |  max time  |%varavg| %total
---------------------------------------------------------------
Pair    | 958.51     | 963.83     | 969.16     |  17.2 | 54.80
Neigh   | 717.75     | 722.39     | 727.03     |  17.3 | 41.07
Comm    | 38.608     | 48.745     | 58.882     | 145.2 |  2.77
Output  | 0.038654   | 0.038842   | 0.039031   |   0.1 |  0.00
Modify  | 18.422     | 18.608     | 18.793     |   4.3 |  1.06
Other   |            | 5.143      |            |       |  0.29

Nlocal:    9826 ave 9850 max 9802 min
Histogram: 1 0 0 0 0 0 0 0 0 1
Nghost:    11715 ave 11742 max 11688 min
Histogram: 1 0 0 0 0 0 0 0 0 1
Neighs:    596209 ave 599162 max 593256 min
Histogram: 1 0 0 0 0 0 0 0 0 1

Total # of neighbors = 1192418
Ave neighs/atom = 60.6767
Neighbor list builds = 19505
Dangerous builds not checked
Setting up Verlet run ...
  Unit style    : metal
  Current step  : 320000
  Time step     : 0.001
Per MPI rank memory allocation (min/avg/max) = 11.34 | 11.34 | 11.34 Mbytes
Step Temp Press TotEng PotEng Enthalpy 
  320000     1746.894   -150.26824   -44209.389   -48646.659   -44248.354 
  320495    1723.3023    99.242647   -44430.348   -48807.693   -44404.749 
Loop time of 43.3566 on 2 procs for 495 steps with 19652 atoms

Performance: 0.986 ns/day, 24.330 hours/ns, 11.417 timesteps/s
99.8% CPU use with 2 MPI tasks x no OpenMP threads

MPI task timing breakdown:
Section |  min time  |  avg time  |  max time  |%varavg| %total
---------------------------------------------------------------
Pair    | 23.547     | 23.786     | 24.026     |   4.9 | 54.86
Neigh   | 17.035     | 17.771     | 18.507     |  17.5 | 40.99
Comm    | 0.65309    | 1.1763     | 1.6995     |  48.2 |  2.71
Output  | 8.893e-05  | 0.00020039 | 0.00031185 |   0.0 |  0.00
Modify  | 0.47024    | 0.49153    | 0.51281    |   3.0 |  1.13
Other   |            | 0.1311     |            |       |  0.30

Nlocal:    9826 ave 9829 max 9823 min
Histogram: 1 0 0 0 0 0 0 0 0 1
Nghost:    11752.5 ave 11786 max 11719 min
Histogram: 1 0 0 0 0 0 0 0 0 1
Neighs:    599301 ave 604134 max 594468 min
Histogram: 1 0 0 0 0 0 0 0 0 1

Total # of neighbors = 1198602
Ave neighs/atom = 60.9913
Neighbor list builds = 495
Dangerous builds not checked
Setting up Verlet run ...
  Unit style    : metal
  Current step  : 320495
  Time step     : 0.001
Per MPI rank memory allocation (min/avg/max) = 11.34 | 11.34 | 11.34 Mbytes
Step Temp Press TotEng PotEng Enthalpy 
  320495    1723.3023    99.242647   -44430.348   -48807.693   -44404.749 
  340000    1692.1987    -1018.393   -44549.814   -48848.153   -44812.335 
Loop time of 1788.34 on 2 procs for 19505 steps with 19652 atoms

Performance: 0.942 ns/day, 25.468 hours/ns, 10.907 timesteps/s
99.1% CPU use with 2 MPI tasks x no OpenMP threads

MPI task timing breakdown:
Section |  min time  |  avg time  |  max time  |%varavg| %total
---------------------------------------------------------------
Pair    | 974.89     | 982.67     | 990.45     |  24.8 | 54.95
Neigh   | 716.55     | 718.51     | 720.48     |   7.3 | 40.18
Comm    | 53.112     | 62.968     | 72.823     | 124.2 |  3.52
Output  | 0.036182   | 0.03621    | 0.036238   |   0.0 |  0.00
Modify  | 18.825     | 18.949     | 19.074     |   2.9 |  1.06
Other   |            | 5.197      |            |       |  0.29

Nlocal:    9826 ave 9848 max 9804 min
Histogram: 1 0 0 0 0 0 0 0 0 1
Nghost:    11739.5 ave 11742 max 11737 min
Histogram: 1 0 0 0 0 0 0 0 0 1
Neighs:    599756 ave 608299 max 591214 min
Histogram: 1 0 0 0 0 0 0 0 0 1

Total # of neighbors = 1199513
Ave neighs/atom = 61.0377
Neighbor list builds = 19505
Dangerous builds not checked
Setting up Verlet run ...
  Unit style    : metal
  Current step  : 340000
  Time step     : 0.001
Per MPI rank memory allocation (min/avg/max) = 11.34 | 11.34 | 11.34 Mbytes
Step Temp Press TotEng PotEng Enthalpy 
  340000    1692.1987    -1018.393   -44549.814   -48848.153   -44812.335 
  340495    1651.5538   -803.55346   -44765.718   -48960.815   -44972.002 
Loop time of 44.9133 on 2 procs for 495 steps with 19652 atoms

Performance: 0.952 ns/day, 25.204 hours/ns, 11.021 timesteps/s
99.1% CPU use with 2 MPI tasks x no OpenMP threads

MPI task timing breakdown:
Section |  min time  |  avg time  |  max time  |%varavg| %total
---------------------------------------------------------------
Pair    | 24.782     | 24.927     | 25.072     |   2.9 | 55.50
Neigh   | 17.367     | 17.543     | 17.719     |   4.2 | 39.06
Comm    | 1.5054     | 1.8333     | 2.1612     |  24.2 |  4.08
Output  | 7.7963e-05 | 0.00012255 | 0.00016713 |   0.0 |  0.00
Modify  | 0.47051    | 0.47615    | 0.4818     |   0.8 |  1.06
Other   |            | 0.1339     |            |       |  0.30

Nlocal:    9826 ave 9853 max 9799 min
Histogram: 1 0 0 0 0 0 0 0 0 1
Nghost:    11779 ave 11779 max 11779 min
Histogram: 2 0 0 0 0 0 0 0 0 0
Neighs:    602391 ave 611683 max 593099 min
Histogram: 1 0 0 0 0 0 0 0 0 1

Total # of neighbors = 1204782
Ave neighs/atom = 61.3058
Neighbor list builds = 495
Dangerous builds not checked
Setting up Verlet run ...
  Unit style    : metal
  Current step  : 340495
  Time step     : 0.001
Per MPI rank memory allocation (min/avg/max) = 11.34 | 11.34 | 11.34 Mbytes
Step Temp Press TotEng PotEng Enthalpy 
  340495    1651.5538   -803.55346   -44765.718   -48960.815   -44972.002 
  360000    1656.8159    33.614011    -44889.65   -49098.113   -44881.069 
Loop time of 1981.24 on 2 procs for 19505 steps with 19652 atoms

Performance: 0.851 ns/day, 28.216 hours/ns, 9.845 timesteps/s
90.6% CPU use with 2 MPI tasks x no OpenMP threads

MPI task timing breakdown:
Section |  min time  |  avg time  |  max time  |%varavg| %total
---------------------------------------------------------------
Pair    | 1079.7     | 1088.1     | 1096.6     |  25.6 | 54.92
Neigh   | 757.71     | 759.12     | 760.52     |   5.1 | 38.32
Comm    | 96.284     | 106.14     | 116        |  95.7 |  5.36
Output  | 0.037058   | 0.037076   | 0.037093   |   0.0 |  0.00
Modify  | 22.321     | 22.347     | 22.373     |   0.6 |  1.13
Other   |            | 5.457      |            |       |  0.28

Nlocal:    9826 ave 9846 max 9806 min
Histogram: 1 0 0 0 0 0 0 0 0 1
Nghost:    11818.5 ave 11831 max 11806 min
Histogram: 1 0 0 0 0 0 0 0 0 1
Neighs:    605934 ave 609829 max 602038 min
Histogram: 1 0 0 0 0 0 0 0 0 1

Total # of neighbors = 1211867
Ave neighs/atom = 61.6663
Neighbor list builds = 19505
Dangerous builds not checked
Setting up Verlet run ...
  Unit style    : metal
  Current step  : 360000
  Time step     : 0.001
Per MPI rank memory allocation (min/avg/max) = 11.34 | 11.34 | 11.34 Mbytes
Step Temp Press TotEng PotEng Enthalpy 
  360000    1656.8159    33.614011    -44889.65   -49098.113   -44881.069 
  360495    1602.9379    -320.5539   -45059.463   -49131.072    -45141.18 
Loop time of 52.1143 on 2 procs for 495 steps with 19652 atoms

Performance: 0.821 ns/day, 29.245 hours/ns, 9.498 timesteps/s
82.7% CPU use with 2 MPI tasks x no OpenMP threads

MPI task timing breakdown:
Section |  min time  |  avg time  |  max time  |%varavg| %total
---------------------------------------------------------------
Pair    | 28.155     | 28.396     | 28.638     |   4.5 | 54.49
Neigh   | 19.982     | 20.079     | 20.175     |   2.2 | 38.53
Comm    | 2.8019     | 2.9434     | 3.0848     |   8.2 |  5.65
Output  | 0.00011516 | 0.00020456 | 0.00029397 |   0.0 |  0.00
Modify  | 0.55271    | 0.5602     | 0.56769    |   1.0 |  1.07
Other   |            | 0.1354     |            |       |  0.26

Nlocal:    9826 ave 9844 max 9808 min
Histogram: 1 0 0 0 0 0 0 0 0 1
Nghost:    11805 ave 11835 max 11775 min
Histogram: 1 0 0 0 0 0 0 0 0 1
Neighs:    606882 ave 610506 max 603259 min
Histogram: 1 0 0 0 0 0 0 0 0 1

Total # of neighbors = 1213765
Ave neighs/atom = 61.7629
Neighbor list builds = 495
Dangerous builds not checked
Setting up Verlet run ...
  Unit style    : metal
  Current step  : 360495
  Time step     : 0.001
Per MPI rank memory allocation (min/avg/max) = 11.34 | 11.34 | 11.34 Mbytes
Step Temp Press TotEng PotEng Enthalpy 
  360495    1602.9379    -320.5539   -45059.463   -49131.072    -45141.18 
  380000    1602.9872   -893.41086   -45166.505   -49238.239   -45393.688 
Loop time of 2132.28 on 2 procs for 19505 steps with 19652 atoms

Performance: 0.790 ns/day, 30.367 hours/ns, 9.147 timesteps/s
83.4% CPU use with 2 MPI tasks x no OpenMP threads

MPI task timing breakdown:
Section |  min time  |  avg time  |  max time  |%varavg| %total
---------------------------------------------------------------
Pair    | 1157.6     | 1164.9     | 1172.1     |  21.2 | 54.63
Neigh   | 798.99     | 801.59     | 804.19     |   9.2 | 37.59
Comm    | 125.59     | 135.49     | 145.39     |  85.0 |  6.35
Output  | 0.037045   | 0.037059   | 0.037072   |   0.0 |  0.00
Modify  | 24.674     | 24.785     | 24.896     |   2.2 |  1.16
Other   |            | 5.528      |            |       |  0.26

Nlocal:    9826 ave 9850 max 9802 min
Histogram: 1 0 0 0 0 0 0 0 0 1
Nghost:    11812.5 ave 11842 max 11783 min
Histogram: 1 0 0 0 0 0 0 0 0 1
Neighs:    608353 ave 616000 max 600706 min
Histogram: 1 0 0 0 0 0 0 0 0 1

Total # of neighbors = 1216706
Ave neighs/atom = 61.9126
Neighbor list builds = 19505
Dangerous builds not checked
Setting up Verlet run ...
  Unit style    : metal
  Current step  : 380000
  Time step     : 0.001
Per MPI rank memory allocation (min/avg/max) = 11.34 | 11.34 | 11.34 Mbytes
Step Temp Press TotEng PotEng Enthalpy 
  380000    1602.9872   -893.41086   -45166.505   -49238.239   -45393.688 
  380495    1562.2459   -320.04112    -45429.55   -49397.797    -45510.42 
Loop time of 61.6823 on 2 procs for 495 steps with 19652 atoms

Performance: 0.693 ns/day, 34.614 hours/ns, 8.025 timesteps/s
77.9% CPU use with 2 MPI tasks x no OpenMP threads

MPI task timing breakdown:
Section |  min time  |  avg time  |  max time  |%varavg| %total
---------------------------------------------------------------
Pair    | 33.72      | 34.053     | 34.387     |   5.7 | 55.21
Neigh   | 22.007     | 22.062     | 22.117     |   1.2 | 35.77
Comm    | 4.3191     | 4.6956     | 5.072      |  17.4 |  7.61
Output  | 0.00010085 | 0.0001545  | 0.00020814 |   0.0 |  0.00
Modify  | 0.70132    | 0.71779    | 0.73426    |   1.9 |  1.16
Other   |            | 0.1538     |            |       |  0.25

Nlocal:    9826 ave 9831 max 9821 min
Histogram: 1 0 0 0 0 0 0 0 0 1
Nghost:    11893.5 ave 11912 max 11875 min
Histogram: 1 0 0 0 0 0 0 0 0 1
Neighs:    612276 ave 616829 max 607722 min
Histogram: 1 0 0 0 0 0 0 0 0 1

Total # of neighbors = 1224551
Ave neighs/atom = 62.3118
Neighbor list builds = 495
Dangerous builds not checked
Setting up Verlet run ...
  Unit style    : metal
  Current step  : 380495
  Time step     : 0.001
Per MPI rank memory allocation (min/avg/max) = 11.34 | 11.34 | 11.34 Mbytes
Step Temp Press TotEng PotEng Enthalpy 
  380495    1562.2459   -320.04112    -45429.55   -49397.797    -45510.42 
  400000    1541.5741   -1265.7404   -45461.674   -49377.413   -45781.952 
Loop time of 2255.62 on 2 procs for 19505 steps with 19652 atoms

Performance: 0.747 ns/day, 32.123 hours/ns, 8.647 timesteps/s
82.2% CPU use with 2 MPI tasks x no OpenMP threads

MPI task timing breakdown:
Section |  min time  |  avg time  |  max time  |%varavg| %total
---------------------------------------------------------------
Pair    | 1234.4     | 1242.6     | 1250.8     |  23.3 | 55.09
Neigh   | 830.75     | 835.01     | 839.27     |  14.7 | 37.02
Comm    | 133.75     | 146.25     | 158.75     | 103.4 |  6.48
Output  | 0.075774   | 0.075798   | 0.075822   |   0.0 |  0.00
Modify  | 25.963     | 26.088     | 26.213     |   2.4 |  1.16
Other   |            | 5.593      |            |       |  0.25

Nlocal:    9826 ave 9839 max 9813 min
Histogram: 1 0 0 0 0 0 0 0 0 1
Nghost:    11875 ave 11909 max 11841 min
Histogram: 1 0 0 0 0 0 0 0 0 1
Neighs:    611465 ave 618499 max 604431 min
Histogram: 1 0 0 0 0 0 0 0 0 1

Total # of neighbors = 1222930
Ave neighs/atom = 62.2293
Neighbor list builds = 19505
Dangerous builds not checked
Setting up Verlet run ...
  Unit style    : metal
  Current step  : 400000
  Time step     : 0.001
Per MPI rank memory allocation (min/avg/max) = 11.34 | 11.34 | 11.34 Mbytes
Step Temp Press TotEng PotEng Enthalpy 
  400000    1541.5741   -1265.7404   -45461.674   -49377.413   -45781.952 
  400495    1508.3093    90.292075    -45695.84   -49527.083   -45673.137 
Loop time of 57.438 on 2 procs for 495 steps with 19652 atoms

Performance: 0.745 ns/day, 32.232 hours/ns, 8.618 timesteps/s
80.5% CPU use with 2 MPI tasks x no OpenMP threads

MPI task timing breakdown:
Section |  min time  |  avg time  |  max time  |%varavg| %total
---------------------------------------------------------------
Pair    | 31.407     | 31.607     | 31.807     |   3.6 | 55.03
Neigh   | 21.049     | 21.159     | 21.269     |   2.4 | 36.84
Comm    | 3.5701     | 3.8759     | 4.1817     |  15.5 |  6.75
Output  | 9.4891e-05 | 0.00013149 | 0.00016809 |   0.0 |  0.00
Modify  | 0.65012    | 0.65138    | 0.65263    |   0.2 |  1.13
Other   |            | 0.1445     |            |       |  0.25

Nlocal:    9826 ave 9841 max 9811 min
Histogram: 1 0 0 0 0 0 0 0 0 1
Nghost:    11936.5 ave 11940 max 11933 min
Histogram: 1 0 0 0 0 0 0 0 0 1
Neighs:    615435 ave 620296 max 610574 min
Histogram: 1 0 0 0 0 0 0 0 0 1

Total # of neighbors = 1230870
Ave neighs/atom = 62.6333
Neighbor list builds = 495
Dangerous builds not checked
Setting up Verlet run ...
  Unit style    : metal
  Current step  : 400495
  Time step     : 0.001
Per MPI rank memory allocation (min/avg/max) = 11.34 | 11.34 | 11.34 Mbytes
Step Temp Press TotEng PotEng Enthalpy 
  400495    1508.3093    90.292075    -45695.84   -49527.083   -45673.137 
  420000    1513.7328   -128.79617   -45753.506   -49598.525   -45785.806 
Loop time of 2116.95 on 2 procs for 19505 steps with 19652 atoms

Performance: 0.796 ns/day, 30.148 hours/ns, 9.214 timesteps/s
85.7% CPU use with 2 MPI tasks x no OpenMP threads

MPI task timing breakdown:
Section |  min time  |  avg time  |  max time  |%varavg| %total
---------------------------------------------------------------
Pair    | 1155.8     | 1167.4     | 1178.9     |  33.9 | 55.14
Neigh   | 791.15     | 792.27     | 793.4      |   4.0 | 37.43
Comm    | 115.52     | 128.2      | 140.89     | 112.0 |  6.06
Output  | 0.036827   | 0.03683    | 0.036834   |   0.0 |  0.00
Modify  | 23.535     | 23.564     | 23.593     |   0.6 |  1.11
Other   |            | 5.516      |            |       |  0.26

Nlocal:    9826 ave 9849 max 9803 min
Histogram: 1 0 0 0 0 0 0 0 0 1
Nghost:    11923 ave 11940 max 11906 min
Histogram: 1 0 0 0 0 0 0 0 0 1
Neighs:    617215 ave 621687 max 612743 min
Histogram: 1 0 0 0 0 0 0 0 0 1

Total # of neighbors = 1234430
Ave neighs/atom = 62.8145
Neighbor list builds = 19505
Dangerous builds not checked
Setting up Verlet run ...
  Unit style    : metal
  Current step  : 420000
  Time step     : 0.001
Per MPI rank memory allocation (min/avg/max) = 11.35 | 11.35 | 11.35 Mbytes
Step Temp Press TotEng PotEng Enthalpy 
  420000    1513.7328   -128.79617   -45753.506   -49598.525   -45785.806 
  420495    1471.7334    77.115493   -46005.783    -49744.12   -45986.531 
Loop time of 45.2913 on 2 procs for 495 steps with 19652 atoms

Performance: 0.944 ns/day, 25.416 hours/ns, 10.929 timesteps/s
95.5% CPU use with 2 MPI tasks x no OpenMP threads

MPI task timing breakdown:
Section |  min time  |  avg time  |  max time  |%varavg| %total
---------------------------------------------------------------
Pair    | 24.904     | 25.043     | 25.183     |   2.8 | 55.29
Neigh   | 17.257     | 17.366     | 17.475     |   2.6 | 38.34
Comm    | 2.0434     | 2.2963     | 2.5491     |  16.7 |  5.07
Output  | 0.00015593 | 0.00018454 | 0.00021315 |   0.0 |  0.00
Modify  | 0.45313    | 0.4564     | 0.45968    |   0.5 |  1.01
Other   |            | 0.129      |            |       |  0.28

Nlocal:    9826 ave 9841 max 9811 min
Histogram: 1 0 0 0 0 0 0 0 0 1
Nghost:    11968 ave 11986 max 11950 min
Histogram: 1 0 0 0 0 0 0 0 0 1
Neighs:    620226 ave 627160 max 613292 min
Histogram: 1 0 0 0 0 0 0 0 0 1

Total # of neighbors = 1240452
Ave neighs/atom = 63.1209
Neighbor list builds = 495
Dangerous builds not checked
Setting up Verlet run ...
  Unit style    : metal
  Current step  : 420495
  Time step     : 0.001
Per MPI rank memory allocation (min/avg/max) = 11.35 | 11.35 | 11.35 Mbytes
Step Temp Press TotEng PotEng Enthalpy 
  420495    1471.7334    77.115493   -46005.783    -49744.12   -45986.531 
  440000    1446.0546    18.656479    -46130.32   -49803.431   -46125.673 
Loop time of 1817.51 on 2 procs for 19505 steps with 19652 atoms

Performance: 0.927 ns/day, 25.884 hours/ns, 10.732 timesteps/s
99.0% CPU use with 2 MPI tasks x no OpenMP threads

MPI task timing breakdown:
Section |  min time  |  avg time  |  max time  |%varavg| %total
---------------------------------------------------------------
Pair    | 1005.4     | 1010.7     | 1016       |  16.7 | 55.61
Neigh   | 711.33     | 715.24     | 719.16     |  14.6 | 39.35
Comm    | 58.31      | 67.623     | 76.937     | 113.3 |  3.72
Output  | 0.041065   | 0.041105   | 0.041145   |   0.0 |  0.00
Modify  | 18.612     | 18.723     | 18.833     |   2.6 |  1.03
Other   |            | 5.217      |            |       |  0.29

Nlocal:    9826 ave 9827 max 9825 min
Histogram: 1 0 0 0 0 0 0 0 0 1
Nghost:    11960.5 ave 11990 max 11931 min
Histogram: 1 0 0 0 0 0 0 0 0 1
Neighs:    621910 ave 627570 max 616250 min
Histogram: 1 0 0 0 0 0 0 0 0 1

Total # of neighbors = 1243820
Ave neighs/atom = 63.2923
Neighbor list builds = 19505
Dangerous builds not checked
Setting up Verlet run ...
  Unit style    : metal
  Current step  : 440000
  Time step     : 0.001
Per MPI rank memory allocation (min/avg/max) = 11.35 | 11.35 | 11.35 Mbytes
Step Temp Press TotEng PotEng Enthalpy 
  440000    1446.0546    18.656479    -46130.32   -49803.431   -46125.673 
  440495     1409.781   -46.705045   -46364.622   -49945.594   -46376.203 
Loop time of 45.8044 on 2 procs for 495 steps with 19652 atoms

Performance: 0.934 ns/day, 25.704 hours/ns, 10.807 timesteps/s
98.3% CPU use with 2 MPI tasks x no OpenMP threads

MPI task timing breakdown:
Section |  min time  |  avg time  |  max time  |%varavg| %total
---------------------------------------------------------------
Pair    | 25.219     | 25.356     | 25.493     |   2.7 | 55.36
Neigh   | 17.65      | 17.796     | 17.941     |   3.5 | 38.85
Comm    | 1.7526     | 2.038      | 2.3234     |  20.0 |  4.45
Output  | 0.00012207 | 0.00024652 | 0.00037098 |   0.0 |  0.00
Modify  | 0.4775     | 0.48045    | 0.4834     |   0.4 |  1.05
Other   |            | 0.1338     |            |       |  0.29

Nlocal:    9826 ave 9834 max 9818 min
Histogram: 1 0 0 0 0 0 0 0 0 1
Nghost:    11925 ave 11943 max 11907 min
Histogram: 1 0 0 0 0 0 0 0 0 1
Neighs:    624609 ave 630566 max 618652 min
Histogram: 1 0 0 0 0 0 0 0 0 1

Total # of neighbors = 1249218
Ave neighs/atom = 63.567
Neighbor list builds = 495
Dangerous builds not checked
Setting up Verlet run ...
  Unit style    : metal
  Current step  : 440495
  Time step     : 0.001
Per MPI rank memory allocation (min/avg/max) = 11.35 | 11.35 | 11.35 Mbytes
Step Temp Press TotEng PotEng Enthalpy 
  440495     1409.781   -46.705045   -46364.622   -49945.594   -46376.203 
  460000    1390.2288   -730.74816   -46519.841   -50051.149    -46700.52 
Loop time of 1815.3 on 2 procs for 19505 steps with 19652 atoms

Performance: 0.928 ns/day, 25.852 hours/ns, 10.745 timesteps/s
99.1% CPU use with 2 MPI tasks x no OpenMP threads

MPI task timing breakdown:
Section |  min time  |  avg time  |  max time  |%varavg| %total
---------------------------------------------------------------
Pair    | 1008.8     | 1014.1     | 1019.3     |  16.4 | 55.86
Neigh   | 711.42     | 713.59     | 715.75     |   8.1 | 39.31
Comm    | 55.774     | 63.451     | 71.129     |  96.4 |  3.50
Output  | 0.037307   | 0.037346   | 0.037385   |   0.0 |  0.00
Modify  | 18.683     | 18.966     | 19.249     |   6.5 |  1.04
Other   |            | 5.208      |            |       |  0.29

Nlocal:    9826 ave 9832 max 9820 min
Histogram: 1 0 0 0 0 0 0 0 0 1
Nghost:    11978.5 ave 12006 max 11951 min
Histogram: 1 0 0 0 0 0 0 0 0 1
Neighs:    626572 ave 633104 max 620039 min
Histogram: 1 0 0 0 0 0 0 0 0 1

Total # of neighbors = 1253143
Ave neighs/atom = 63.7667
Neighbor list builds = 19505
Dangerous builds not checked
Setting up Verlet run ...
  Unit style    : metal
  Current step  : 460000
  Time step     : 0.001
Per MPI rank memory allocation (min/avg/max) = 11.35 | 11.35 | 11.35 Mbytes
Step Temp Press TotEng PotEng Enthalpy 
  460000    1390.2288   -730.74816   -46519.841   -50051.149    -46700.52 
  460495    1352.8748   -66.543342     -46657.3   -50093.725   -46673.716 
Loop time of 43.6475 on 2 procs for 495 steps with 19652 atoms

Performance: 0.980 ns/day, 24.494 hours/ns, 11.341 timesteps/s
99.8% CPU use with 2 MPI tasks x no OpenMP threads

MPI task timing breakdown:
Section |  min time  |  avg time  |  max time  |%varavg| %total
---------------------------------------------------------------
Pair    | 24.114     | 24.259     | 24.404     |   2.9 | 55.58
Neigh   | 17.077     | 17.132     | 17.186     |   1.3 | 39.25
Comm    | 1.4666     | 1.6647     | 1.8629     |  15.4 |  3.81
Output  | 9.6798e-05 | 0.00014186 | 0.00018692 |   0.0 |  0.00
Modify  | 0.46099    | 0.462      | 0.463      |   0.1 |  1.06
Other   |            | 0.1298     |            |       |  0.30

Nlocal:    9826 ave 9852 max 9800 min
Histogram: 1 0 0 0 0 0 0 0 0 1
Nghost:    11963.5 ave 11975 max 11952 min
Histogram: 1 0 0 0 0 0 0 0 0 1
Neighs:    628208 ave 631635 max 624781 min
Histogram: 1 0 0 0 0 0 0 0 0 1

Total # of neighbors = 1256416
Ave neighs/atom = 63.9332
Neighbor list builds = 495
Dangerous builds not checked
Setting up Verlet run ...
  Unit style    : metal
  Current step  : 460495
  Time step     : 0.001
Per MPI rank memory allocation (min/avg/max) = 11.35 | 11.35 | 11.35 Mbytes
Step Temp Press TotEng PotEng Enthalpy 
  460495    1352.8748   -66.543342     -46657.3   -50093.725   -46673.716 
  480000    1360.0635     945.4664   -46788.372   -50243.058   -46556.484 
Loop time of 1803.9 on 2 procs for 19505 steps with 19652 atoms

Performance: 0.934 ns/day, 25.690 hours/ns, 10.813 timesteps/s
99.3% CPU use with 2 MPI tasks x no OpenMP threads

MPI task timing breakdown:
Section |  min time  |  avg time  |  max time  |%varavg| %total
---------------------------------------------------------------
Pair    | 1001.7     | 1007       | 1012.4     |  16.8 | 55.83
Neigh   | 702.04     | 703.35     | 704.66     |   4.9 | 38.99
Comm    | 62.963     | 69.602     | 76.24      |  79.6 |  3.86
Output  | 0.038751   | 0.038855   | 0.038958   |   0.1 |  0.00
Modify  | 18.643     | 18.661     | 18.679     |   0.4 |  1.03
Other   |            | 5.209      |            |       |  0.29

Nlocal:    9826 ave 9838 max 9814 min
Histogram: 1 0 0 0 0 0 0 0 0 1
Nghost:    12055 ave 12074 max 12036 min
Histogram: 1 0 0 0 0 0 0 0 0 1
Neighs:    631854 ave 638419 max 625289 min
Histogram: 1 0 0 0 0 0 0 0 0 1

Total # of neighbors = 1263708
Ave neighs/atom = 64.3043
Neighbor list builds = 19505
Dangerous builds not checked
Setting up Verlet run ...
  Unit style    : metal
  Current step  : 480000
  Time step     : 0.001
Per MPI rank memory allocation (min/avg/max) = 11.35 | 11.35 | 11.35 Mbytes
Step Temp Press TotEng PotEng Enthalpy 
  480000    1360.0635     945.4664   -46788.372   -50243.058   -46556.484 
  480495    1310.1472     259.4364   -46967.421   -50295.315   -46903.867 
Loop time of 44.5759 on 2 procs for 495 steps with 19652 atoms

Performance: 0.959 ns/day, 25.015 hours/ns, 11.105 timesteps/s
99.3% CPU use with 2 MPI tasks x no OpenMP threads

MPI task timing breakdown:
Section |  min time  |  avg time  |  max time  |%varavg| %total
---------------------------------------------------------------
Pair    | 24.548     | 24.722     | 24.897     |   3.5 | 55.46
Neigh   | 17.321     | 17.369     | 17.418     |   1.2 | 38.97
Comm    | 1.6527     | 1.8789     | 2.105      |  16.5 |  4.21
Output  | 7.391e-05  | 0.00012445 | 0.000175   |   0.0 |  0.00
Modify  | 0.46927    | 0.4721     | 0.47494    |   0.4 |  1.06
Other   |            | 0.1331     |            |       |  0.30

Nlocal:    9826 ave 9837 max 9815 min
Histogram: 1 0 0 0 0 0 0 0 0 1
Nghost:    11983 ave 11997 max 11969 min
Histogram: 1 0 0 0 0 0 0 0 0 1
Neighs:    632631 ave 636903 max 628359 min
Histogram: 1 0 0 0 0 0 0 0 0 1

Total # of neighbors = 1265262
Ave neighs/atom = 64.3834
Neighbor list builds = 495
Dangerous builds not checked
Setting up Verlet run ...
  Unit style    : metal
  Current step  : 480495
  Time step     : 0.001
Per MPI rank memory allocation (min/avg/max) = 11.35 | 11.35 | 11.35 Mbytes
Step Temp Press TotEng PotEng Enthalpy 
  480495    1310.1472     259.4364   -46967.421   -50295.315   -46903.867 
  500000    1300.5789   -747.59994   -47104.496   -50408.085    -47287.28 
Loop time of 1780.47 on 2 procs for 19505 steps with 19652 atoms

Performance: 0.947 ns/day, 25.356 hours/ns, 10.955 timesteps/s
99.3% CPU use with 2 MPI tasks x no OpenMP threads

MPI task timing breakdown:
Section |  min time  |  avg time  |  max time  |%varavg| %total
---------------------------------------------------------------
Pair    | 980.6      | 986.32     | 992.04     |  18.2 | 55.40
Neigh   | 694.06     | 695.54     | 697.02     |   5.6 | 39.07
Comm    | 66.76      | 74.022     | 81.284     |  84.4 |  4.16
Output  | 0.039241   | 0.039264   | 0.039287   |   0.0 |  0.00
Modify  | 19.343     | 19.423     | 19.503     |   1.8 |  1.09
Other   |            | 5.124      |            |       |  0.29

Nlocal:    9826 ave 9853 max 9799 min
Histogram: 1 0 0 0 0 0 0 0 0 1
Nghost:    12034.5 ave 12052 max 12017 min
Histogram: 1 0 0 0 0 0 0 0 0 1
Neighs:    634086 ave 642910 max 625262 min
Histogram: 1 0 0 0 0 0 0 0 0 1

Total # of neighbors = 1268172
Ave neighs/atom = 64.5314
Neighbor list builds = 19505
Dangerous builds not checked
Setting up Verlet run ...
  Unit style    : metal
  Current step  : 500000
  Time step     : 0.001
Per MPI rank memory allocation (min/avg/max) = 11.35 | 11.35 | 11.35 Mbytes
Step Temp Press TotEng PotEng Enthalpy 
  500000    1300.5789   -747.59994   -47104.496   -50408.085    -47287.28 
  500495    1271.6549   -179.11184   -47314.908   -50545.027   -47358.459 
Loop time of 43.4166 on 2 procs for 495 steps with 19652 atoms

Performance: 0.985 ns/day, 24.364 hours/ns, 11.401 timesteps/s
99.2% CPU use with 2 MPI tasks x no OpenMP threads

MPI task timing breakdown:
Section |  min time  |  avg time  |  max time  |%varavg| %total
---------------------------------------------------------------
Pair    | 23.833     | 23.896     | 23.959     |   1.3 | 55.04
Neigh   | 17.254     | 17.342     | 17.431     |   2.1 | 39.94
Comm    | 1.4292     | 1.5826     | 1.736      |  12.2 |  3.65
Output  | 9.5129e-05 | 0.00011766 | 0.00014019 |   0.0 |  0.00
Modify  | 0.46453    | 0.46717    | 0.46981    |   0.4 |  1.08
Other   |            | 0.1283     |            |       |  0.30

Nlocal:    9826 ave 9834 max 9818 min
Histogram: 1 0 0 0 0 0 0 0 0 1
Nghost:    12078 ave 12084 max 12072 min
Histogram: 1 0 0 0 0 0 0 0 0 1
Neighs:    637638 ave 644028 max 631247 min
Histogram: 1 0 0 0 0 0 0 0 0 1

Total # of neighbors = 1275275
Ave neighs/atom = 64.8929
Neighbor list builds = 495
Dangerous builds not checked
Setting up Verlet run ...
  Unit style    : metal
  Current step  : 500495
  Time step     : 0.001
Per MPI rank memory allocation (min/avg/max) = 11.35 | 11.35 | 11.35 Mbytes
Step Temp Press TotEng PotEng Enthalpy 
  500495    1271.6549   -179.11184   -47314.908   -50545.027   -47358.459 
  520000    1248.1643   -1118.4399   -47432.551   -50603.002   -47704.233 
Loop time of 1790.24 on 2 procs for 19505 steps with 19652 atoms

Performance: 0.941 ns/day, 25.495 hours/ns, 10.895 timesteps/s
99.1% CPU use with 2 MPI tasks x no OpenMP threads

MPI task timing breakdown:
Section |  min time  |  avg time  |  max time  |%varavg| %total
---------------------------------------------------------------
Pair    | 991.9      | 997.56     | 1003.2     |  17.9 | 55.72
Neigh   | 697.56     | 698.03     | 698.51     |   1.8 | 38.99
Comm    | 64.725     | 70.909     | 77.092     |  73.4 |  3.96
Output  | 0.036634   | 0.036669   | 0.036704   |   0.0 |  0.00
Modify  | 18.485     | 18.566     | 18.647     |   1.9 |  1.04
Other   |            | 5.137      |            |       |  0.29

Nlocal:    9826 ave 9830 max 9822 min
Histogram: 1 0 0 0 0 0 0 0 0 1
Nghost:    12042 ave 12043 max 12041 min
Histogram: 1 0 0 0 0 0 0 0 0 1
Neighs:    638313 ave 644836 max 631790 min
Histogram: 1 0 0 0 0 0 0 0 0 1

Total # of neighbors = 1276626
Ave neighs/atom = 64.9616
Neighbor list builds = 19505
Dangerous builds not checked
Setting up Verlet run ...
  Unit style    : metal
  Current step  : 520000
  Time step     : 0.001
Per MPI rank memory allocation (min/avg/max) = 11.35 | 11.35 | 11.35 Mbytes
Step Temp Press TotEng PotEng Enthalpy 
  520000    1248.1643   -1118.4399   -47432.551   -50603.002   -47704.233 
  520495    1216.2052    818.50698   -47606.123   -50695.396   -47408.376 
Loop time of 43.5274 on 2 procs for 495 steps with 19652 atoms

Performance: 0.983 ns/day, 24.426 hours/ns, 11.372 timesteps/s
99.0% CPU use with 2 MPI tasks x no OpenMP threads

MPI task timing breakdown:
Section |  min time  |  avg time  |  max time  |%varavg| %total
---------------------------------------------------------------
Pair    | 23.837     | 24.042     | 24.247     |   4.2 | 55.23
Neigh   | 16.305     | 16.48      | 16.656     |   4.3 | 37.86
Comm    | 2.4049     | 2.4346     | 2.4643     |   1.9 |  5.59
Output  | 0.00010705 | 0.00013697 | 0.00016689 |   0.0 |  0.00
Modify  | 0.44176    | 0.44361    | 0.44545    |   0.3 |  1.02
Other   |            | 0.1269     |            |       |  0.29

Nlocal:    9826 ave 9832 max 9820 min
Histogram: 1 0 0 0 0 0 0 0 0 1
Nghost:    12083 ave 12083 max 12083 min
Histogram: 2 0 0 0 0 0 0 0 0 0
Neighs:    641886 ave 648802 max 634969 min
Histogram: 1 0 0 0 0 0 0 0 0 1

Total # of neighbors = 1283771
Ave neighs/atom = 65.3252
Neighbor list builds = 495
Dangerous builds not checked
Setting up Verlet run ...
  Unit style    : metal
  Current step  : 520495
  Time step     : 0.001
Per MPI rank memory allocation (min/avg/max) = 11.35 | 11.35 | 11.35 Mbytes
Step Temp Press TotEng PotEng Enthalpy 
  520495    1216.2052    818.50698   -47606.123   -50695.396   -47408.376 
  540000    1204.9425    361.49195   -47764.081   -50824.745   -47677.028 
Loop time of 1905.68 on 2 procs for 19505 steps with 19652 atoms

Performance: 0.884 ns/day, 27.139 hours/ns, 10.235 timesteps/s
98.8% CPU use with 2 MPI tasks x no OpenMP threads

MPI task timing breakdown:
Section |  min time  |  avg time  |  max time  |%varavg| %total
---------------------------------------------------------------
Pair    | 1058.2     | 1067.6     | 1076.9     |  28.6 | 56.02
Neigh   | 739.91     | 742.28     | 744.64     |   8.7 | 38.95
Comm    | 57.666     | 69.641     | 81.615     | 143.5 |  3.65
Output  | 0.041244   | 0.041389   | 0.041534   |   0.1 |  0.00
Modify  | 20.19      | 20.471     | 20.752     |   6.2 |  1.07
Other   |            | 5.681      |            |       |  0.30

Nlocal:    9826 ave 9838 max 9814 min
Histogram: 1 0 0 0 0 0 0 0 0 1
Nghost:    12106 ave 12111 max 12101 min
Histogram: 1 0 0 0 0 0 0 0 0 1
Neighs:    644043 ave 650529 max 637557 min
Histogram: 1 0 0 0 0 0 0 0 0 1

Total # of neighbors = 1288086
Ave neighs/atom = 65.5448
Neighbor list builds = 19505
Dangerous builds not checked
Setting up Verlet run ...
  Unit style    : metal
  Current step  : 540000
  Time step     : 0.001
Per MPI rank memory allocation (min/avg/max) = 11.35 | 11.35 | 11.35 Mbytes
Step Temp Press TotEng PotEng Enthalpy 
  540000    1204.9425    361.49195   -47764.081   -50824.745   -47677.028 
  540495    1172.3306    16.912305   -47934.586   -50912.412   -47930.523 
Loop time of 47.4858 on 2 procs for 495 steps with 19652 atoms

Performance: 0.901 ns/day, 26.647 hours/ns, 10.424 timesteps/s
98.9% CPU use with 2 MPI tasks x no OpenMP threads

MPI task timing breakdown:
Section |  min time  |  avg time  |  max time  |%varavg| %total
---------------------------------------------------------------
Pair    | 26.313     | 26.64      | 26.967     |   6.3 | 56.10
Neigh   | 18.273     | 18.366     | 18.459     |   2.2 | 38.68
Comm    | 1.5889     | 1.8234     | 2.0579     |  17.4 |  3.84
Output  | 0.000175   | 0.00039399 | 0.00061297 |   0.0 |  0.00
Modify  | 0.50051    | 0.50481    | 0.5091     |   0.6 |  1.06
Other   |            | 0.151      |            |       |  0.32

Nlocal:    9826 ave 9831 max 9821 min
Histogram: 1 0 0 0 0 0 0 0 0 1
Nghost:    12151.5 ave 12170 max 12133 min
Histogram: 1 0 0 0 0 0 0 0 0 1
Neighs:    645808 ave 651979 max 639636 min
Histogram: 1 0 0 0 0 0 0 0 0 1

Total # of neighbors = 1291615
Ave neighs/atom = 65.7244
Neighbor list builds = 495
Dangerous builds not checked
Setting up Verlet run ...
  Unit style    : metal
  Current step  : 540495
  Time step     : 0.001
Per MPI rank memory allocation (min/avg/max) = 11.35 | 11.35 | 11.35 Mbytes
Step Temp Press TotEng PotEng Enthalpy 
  540495    1172.3306    16.912305   -47934.586   -50912.412   -47930.523 
  560000    1151.7197    166.85856   -48064.934   -50990.407   -48024.951 
Loop time of 1913.42 on 2 procs for 19505 steps with 19652 atoms

Performance: 0.881 ns/day, 27.250 hours/ns, 10.194 timesteps/s
99.2% CPU use with 2 MPI tasks x no OpenMP threads

MPI task timing breakdown:
Section |  min time  |  avg time  |  max time  |%varavg| %total
---------------------------------------------------------------
Pair    | 1067.7     | 1077.3     | 1086.8     |  29.0 | 56.30
Neigh   | 745.22     | 747.5      | 749.79     |   8.4 | 39.07
Comm    | 50.938     | 62.863     | 74.788     | 150.4 |  3.29
Output  | 0.040082   | 0.040105   | 0.040129   |   0.0 |  0.00
Modify  | 19.876     | 20.007     | 20.137     |   2.9 |  1.05
Other   |            | 5.748      |            |       |  0.30

Nlocal:    9826 ave 9827 max 9825 min
Histogram: 1 0 0 0 0 0 0 0 0 1
Nghost:    12136.5 ave 12141 max 12132 min
Histogram: 1 0 0 0 0 0 0 0 0 1
Neighs:    647696 ave 653589 max 641803 min
Histogram: 1 0 0 0 0 0 0 0 0 1

Total # of neighbors = 1295392
Ave neighs/atom = 65.9165
Neighbor list builds = 19505
Dangerous builds not checked
Setting up Verlet run ...
  Unit style    : metal
  Current step  : 560000
  Time step     : 0.001
Per MPI rank memory allocation (min/avg/max) = 11.35 | 11.35 | 11.35 Mbytes
Step Temp Press TotEng PotEng Enthalpy 
[...]
Histogram: 1 0 0 0 0 0 0 0 0 1
Neighs:    710338 ave 710487 max 710190 min
Histogram: 1 0 0 0 0 0 0 0 0 1

Total # of neighbors = 1420677
Ave neighs/atom = 72.2917
Neighbor list builds = 19505
Dangerous builds not checked
Setting up Verlet run ...
  Unit style    : metal
  Current step  : 840000
  Time step     : 0.001
Per MPI rank memory allocation (min/avg/max) = 11.35 | 11.35 | 11.35 Mbytes
Step Temp Press TotEng PotEng Enthalpy 
  840000     453.9235   -339.78367   -52874.466   -54027.473   -52948.911 
  840495    421.47905    66.623421    -53038.16   -54108.755   -53023.601 
Loop time of 42.1062 on 2 procs for 495 steps with 19652 atoms

Performance: 1.016 ns/day, 23.629 hours/ns, 11.756 timesteps/s
95.9% CPU use with 2 MPI tasks x no OpenMP threads

MPI task timing breakdown:
Section |  min time  |  avg time  |  max time  |%varavg| %total
---------------------------------------------------------------
Pair    | 21.716     | 21.934     | 22.151     |   4.7 | 52.09
Neigh   | 16.129     | 16.848     | 17.567     |  17.5 | 40.01
Comm    | 2.2833     | 2.8058     | 3.3283     |  31.2 |  6.66
Output  | 9.2983e-05 | 0.00011897 | 0.00014496 |   0.0 |  0.00
Modify  | 0.39071    | 0.40617    | 0.42163    |   2.4 |  0.96
Other   |            | 0.1122     |            |       |  0.27

Nlocal:    9826 ave 9846 max 9806 min
Histogram: 1 0 0 0 0 0 0 0 0 1
Nghost:    12588 ave 12594 max 12582 min
Histogram: 1 0 0 0 0 0 0 0 0 1
Neighs:    712130 ave 713784 max 710475 min
Histogram: 1 0 0 0 0 0 0 0 0 1

Total # of neighbors = 1424259
Ave neighs/atom = 72.474
Neighbor list builds = 495
Dangerous builds not checked
Setting up Verlet run ...
  Unit style    : metal
  Current step  : 840495
  Time step     : 0.001
Per MPI rank memory allocation (min/avg/max) = 11.35 | 11.35 | 11.35 Mbytes
Step Temp Press TotEng PotEng Enthalpy 
  840495    421.47905    66.623421    -53038.16   -54108.755   -53023.601 
  860000    394.52497   -774.39618   -53197.819   -54199.949   -53366.741 
Loop time of 1556.39 on 2 procs for 19505 steps with 19652 atoms

Performance: 1.083 ns/day, 22.165 hours/ns, 12.532 timesteps/s
99.6% CPU use with 2 MPI tasks x no OpenMP threads

MPI task timing breakdown:
Section |  min time  |  avg time  |  max time  |%varavg| %total
---------------------------------------------------------------
Pair    | 829.15     | 830.46     | 831.76     |   4.5 | 53.36
Neigh   | 660.25     | 663.36     | 666.48     |  12.1 | 42.62
Comm    | 40.803     | 42.682     | 44.561     |  28.8 |  2.74
Output  | 0.03542    | 0.035437   | 0.035455   |   0.0 |  0.00
Modify  | 15.487     | 15.542     | 15.597     |   1.4 |  1.00
Other   |            | 4.306      |            |       |  0.28

Nlocal:    9826 ave 9845 max 9807 min
Histogram: 1 0 0 0 0 0 0 0 0 1
Nghost:    12599 ave 12611 max 12587 min
Histogram: 1 0 0 0 0 0 0 0 0 1
Neighs:    713303 ave 715020 max 711586 min
Histogram: 1 0 0 0 0 0 0 0 0 1

Total # of neighbors = 1426606
Ave neighs/atom = 72.5934
Neighbor list builds = 19505
Dangerous builds not checked
Setting up Verlet run ...
  Unit style    : metal
  Current step  : 860000
  Time step     : 0.001
Per MPI rank memory allocation (min/avg/max) = 11.35 | 11.35 | 11.35 Mbytes
Step Temp Press TotEng PotEng Enthalpy 
  860000    394.52497   -774.39618   -53197.819   -54199.949   -53366.741 
  860495    371.72005    223.90479   -53340.848   -54285.051   -53292.173 
Loop time of 39.1812 on 2 procs for 495 steps with 19652 atoms

Performance: 1.092 ns/day, 21.987 hours/ns, 12.634 timesteps/s
99.9% CPU use with 2 MPI tasks x no OpenMP threads

MPI task timing breakdown:
Section |  min time  |  avg time  |  max time  |%varavg| %total
---------------------------------------------------------------
Pair    | 20.963     | 20.964     | 20.964     |   0.0 | 53.50
Neigh   | 16.67      | 16.683     | 16.695     |   0.3 | 42.58
Comm    | 1.0191     | 1.0278     | 1.0365     |   0.9 |  2.62
Output  | 9.203e-05  | 0.00012553 | 0.00015903 |   0.0 |  0.00
Modify  | 0.39359    | 0.39763    | 0.40168    |   0.6 |  1.01
Other   |            | 0.1091     |            |       |  0.28

Nlocal:    9826 ave 9843 max 9809 min
Histogram: 1 0 0 0 0 0 0 0 0 1
Nghost:    12628.5 ave 12642 max 12615 min
Histogram: 1 0 0 0 0 0 0 0 0 1
Neighs:    715548 ave 716745 max 714352 min
Histogram: 1 0 0 0 0 0 0 0 0 1

Total # of neighbors = 1431097
Ave neighs/atom = 72.822
Neighbor list builds = 495
Dangerous builds not checked
Setting up Verlet run ...
  Unit style    : metal
  Current step  : 860495
  Time step     : 0.001
Per MPI rank memory allocation (min/avg/max) = 11.35 | 11.35 | 11.35 Mbytes
Step Temp Press TotEng PotEng Enthalpy 
  860495    371.72005    223.90479   -53340.848   -54285.051   -53292.173 
  880000    353.75092   -254.28358   -53471.705   -54370.265   -53526.888 
Loop time of 1579.38 on 2 procs for 19505 steps with 19652 atoms

Performance: 1.067 ns/day, 22.493 hours/ns, 12.350 timesteps/s
99.3% CPU use with 2 MPI tasks x no OpenMP threads

MPI task timing breakdown:
Section |  min time  |  avg time  |  max time  |%varavg| %total
---------------------------------------------------------------
Pair    | 838.55     | 839.21     | 839.87     |   2.3 | 53.14
Neigh   | 667.42     | 669.03     | 670.64     |   6.2 | 42.36
Comm    | 48.15      | 50.451     | 52.753     |  32.4 |  3.19
Output  | 0.035252   | 0.035271   | 0.035289   |   0.0 |  0.00
Modify  | 16.242     | 16.286     | 16.331     |   1.1 |  1.03
Other   |            | 4.365      |            |       |  0.28

Nlocal:    9826 ave 9829 max 9823 min
Histogram: 1 0 0 0 0 0 0 0 0 1
Nghost:    12622 ave 12639 max 12605 min
Histogram: 1 0 0 0 0 0 0 0 0 1
Neighs:    716752 ave 717220 max 716284 min
Histogram: 1 0 0 0 0 0 0 0 0 1

Total # of neighbors = 1433504
Ave neighs/atom = 72.9444
Neighbor list builds = 19505
Dangerous builds not checked
Setting up Verlet run ...
  Unit style    : metal
  Current step  : 880000
  Time step     : 0.001
Per MPI rank memory allocation (min/avg/max) = 11.35 | 11.35 | 11.35 Mbytes
Step Temp Press TotEng PotEng Enthalpy 
  880000    353.75092   -254.28358   -53471.705   -54370.265   -53526.888 
  880495    322.21852   -159.96302    -53622.09   -54440.555   -53656.736 
Loop time of 39.4302 on 2 procs for 495 steps with 19652 atoms

Performance: 1.085 ns/day, 22.127 hours/ns, 12.554 timesteps/s
99.9% CPU use with 2 MPI tasks x no OpenMP threads

MPI task timing breakdown:
Section |  min time  |  avg time  |  max time  |%varavg| %total
---------------------------------------------------------------
Pair    | 21.014     | 21.089     | 21.163     |   1.6 | 53.48
Neigh   | 16.76      | 16.809     | 16.857     |   1.2 | 42.63
Comm    | 0.85794    | 0.98001    | 1.1021     |  12.3 |  2.49
Output  | 8.0109e-05 | 0.021772   | 0.043463   |  14.7 |  0.06
Modify  | 0.39814    | 0.39835    | 0.39856    |   0.0 |  1.01
Other   |            | 0.133      |            |       |  0.34

Nlocal:    9826 ave 9840 max 9812 min
Histogram: 1 0 0 0 0 0 0 0 0 1
Nghost:    12618.5 ave 12655 max 12582 min
Histogram: 1 0 0 0 0 0 0 0 0 1
Neighs:    718178 ave 718913 max 717442 min
Histogram: 1 0 0 0 0 0 0 0 0 1

Total # of neighbors = 1436355
Ave neighs/atom = 73.0895
Neighbor list builds = 495
Dangerous builds not checked
Setting up Verlet run ...
  Unit style    : metal
  Current step  : 880495
  Time step     : 0.001
Per MPI rank memory allocation (min/avg/max) = 11.35 | 11.35 | 11.35 Mbytes
Step Temp Press TotEng PotEng Enthalpy 
  880495    322.21852   -159.96302    -53622.09   -54440.555   -53656.736 
  900000    301.01386    276.31296   -53764.998   -54529.601   -53705.325 
Loop time of 1599.15 on 2 procs for 19505 steps with 19652 atoms

Performance: 1.054 ns/day, 22.774 hours/ns, 12.197 timesteps/s
99.6% CPU use with 2 MPI tasks x no OpenMP threads

MPI task timing breakdown:
Section |  min time  |  avg time  |  max time  |%varavg| %total
---------------------------------------------------------------
Pair    | 857.05     | 858.28     | 859.51     |   4.2 | 53.67
Neigh   | 680.95     | 682.66     | 684.37     |   6.6 | 42.69
Comm    | 34.583     | 37.565     | 40.547     |  48.7 |  2.35
Output  | 0.037465   | 0.037531   | 0.037598   |   0.0 |  0.00
Modify  | 16.038     | 16.07      | 16.102     |   0.8 |  1.00
Other   |            | 4.536      |            |       |  0.28

Nlocal:    9826 ave 9836 max 9816 min
Histogram: 1 0 0 0 0 0 0 0 0 1
Nghost:    12660 ave 12673 max 12647 min
Histogram: 1 0 0 0 0 0 0 0 0 1
Neighs:    720069 ave 720494 max 719644 min
Histogram: 1 0 0 0 0 0 0 0 0 1

Total # of neighbors = 1440138
Ave neighs/atom = 73.282
Neighbor list builds = 19505
Dangerous builds not checked
Setting up Verlet run ...
  Unit style    : metal
  Current step  : 900000
  Time step     : 0.001
Per MPI rank memory allocation (min/avg/max) = 11.35 | 11.35 | 11.35 Mbytes
Step Temp Press TotEng PotEng Enthalpy 
  900000    301.01386    276.31296   -53764.998   -54529.601   -53705.325 
  900495    273.35997   -342.01606   -53900.995   -54595.354   -53974.779 
Loop time of 41.9076 on 2 procs for 495 steps with 19652 atoms

Performance: 1.021 ns/day, 23.517 hours/ns, 11.812 timesteps/s
99.3% CPU use with 2 MPI tasks x no OpenMP threads

MPI task timing breakdown:
Section |  min time  |  avg time  |  max time  |%varavg| %total
---------------------------------------------------------------
Pair    | 22.52      | 22.61      | 22.7       |   1.9 | 53.95
Neigh   | 17.051     | 17.428     | 17.804     |   9.0 | 41.59
Comm    | 1.0368     | 1.3315     | 1.6263     |  25.5 |  3.18
Output  | 9.3937e-05 | 0.00014186 | 0.00018978 |   0.0 |  0.00
Modify  | 0.41083    | 0.41791    | 0.42499    |   1.1 |  1.00
Other   |            | 0.1204     |            |       |  0.29

Nlocal:    9826 ave 9845 max 9807 min
Histogram: 1 0 0 0 0 0 0 0 0 1
Nghost:    12675 ave 12693 max 12657 min
Histogram: 1 0 0 0 0 0 0 0 0 1
Neighs:    720790 ave 722041 max 719538 min
Histogram: 1 0 0 0 0 0 0 0 0 1

Total # of neighbors = 1441579
Ave neighs/atom = 73.3553
Neighbor list builds = 495
Dangerous builds not checked
Setting up Verlet run ...
  Unit style    : metal
  Current step  : 900495
  Time step     : 0.001
Per MPI rank memory allocation (min/avg/max) = 11.35 | 11.35 | 11.35 Mbytes
Step Temp Press TotEng PotEng Enthalpy 
  900495    273.35997   -342.01606   -53900.995   -54595.354   -53974.779 
  920000     246.6879   -103.32772   -54038.468   -54665.078   -54060.707 
Loop time of 1650.51 on 2 procs for 19505 steps with 19652 atoms

Performance: 1.021 ns/day, 23.505 hours/ns, 11.818 timesteps/s
99.8% CPU use with 2 MPI tasks x no OpenMP threads

MPI task timing breakdown:
Section |  min time  |  avg time  |  max time  |%varavg| %total
---------------------------------------------------------------
Pair    | 890.4      | 892.96     | 895.51     |   8.6 | 54.10
Neigh   | 699.82     | 699.89     | 699.96     |   0.3 | 42.40
Comm    | 33.784     | 36.312     | 38.839     |  41.9 |  2.20
Output  | 0.03673    | 0.036762   | 0.036793   |   0.0 |  0.00
Modify  | 16.518     | 16.534     | 16.551     |   0.4 |  1.00
Other   |            | 4.775      |            |       |  0.29

Nlocal:    9826 ave 9836 max 9816 min
Histogram: 1 0 0 0 0 0 0 0 0 1
Nghost:    12681 ave 12693 max 12669 min
Histogram: 1 0 0 0 0 0 0 0 0 1
Neighs:    722336 ave 723303 max 721368 min
Histogram: 1 0 0 0 0 0 0 0 0 1

Total # of neighbors = 1444671
Ave neighs/atom = 73.5127
Neighbor list builds = 19505
Dangerous builds not checked
Setting up Verlet run ...
  Unit style    : metal
  Current step  : 920000
  Time step     : 0.001
Per MPI rank memory allocation (min/avg/max) = 11.35 | 11.35 | 11.35 Mbytes
Step Temp Press TotEng PotEng Enthalpy 
  920000     246.6879   -103.32772   -54038.468   -54665.078   -54060.707 
  920495    224.15175    4.7456697   -54166.875   -54736.241   -54165.856 
Loop time of 41.7632 on 2 procs for 495 steps with 19652 atoms

Performance: 1.024 ns/day, 23.436 hours/ns, 11.853 timesteps/s
99.8% CPU use with 2 MPI tasks x no OpenMP threads

MPI task timing breakdown:
Section |  min time  |  avg time  |  max time  |%varavg| %total
---------------------------------------------------------------
Pair    | 22.43      | 22.528     | 22.626     |   2.1 | 53.94
Neigh   | 17.298     | 17.707     | 18.116     |   9.7 | 42.40
Comm    | 0.65423    | 0.97856    | 1.3029     |  32.8 |  2.34
Output  | 9.799e-05  | 0.0001961  | 0.00029421 |   0.0 |  0.00
Modify  | 0.41707    | 0.42781    | 0.43854    |   1.6 |  1.02
Other   |            | 0.1222     |            |       |  0.29

Nlocal:    9826 ave 9835 max 9817 min
Histogram: 1 0 0 0 0 0 0 0 0 1
Nghost:    12670 ave 12676 max 12664 min
Histogram: 1 0 0 0 0 0 0 0 0 1
Neighs:    723563 ave 724641 max 722485 min
Histogram: 1 0 0 0 0 0 0 0 0 1

Total # of neighbors = 1447126
Ave neighs/atom = 73.6376
Neighbor list builds = 495
Dangerous builds not checked
Setting up Verlet run ...
  Unit style    : metal
  Current step  : 920495
  Time step     : 0.001
Per MPI rank memory allocation (min/avg/max) = 11.35 | 11.35 | 11.35 Mbytes
Step Temp Press TotEng PotEng Enthalpy 
  920495    224.15175    4.7456697   -54166.875   -54736.241   -54165.856 
  940000    200.81445   -305.56165   -54293.485   -54803.572   -54359.022 
Loop time of 1659.15 on 2 procs for 19505 steps with 19652 atoms

Performance: 1.016 ns/day, 23.629 hours/ns, 11.756 timesteps/s
99.6% CPU use with 2 MPI tasks x no OpenMP threads

MPI task timing breakdown:
Section |  min time  |  avg time  |  max time  |%varavg| %total
---------------------------------------------------------------
Pair    | 896.56     | 899.03     | 901.5      |   8.2 | 54.19
Neigh   | 698.37     | 700.75     | 703.12     |   9.0 | 42.24
Comm    | 37.595     | 37.679     | 37.762     |   1.4 |  2.27
Output  | 0.036533   | 0.036614   | 0.036695   |   0.0 |  0.00
Modify  | 16.817     | 16.845     | 16.873     |   0.7 |  1.02
Other   |            | 4.814      |            |       |  0.29

Nlocal:    9826 ave 9829 max 9823 min
Histogram: 1 0 0 0 0 0 0 0 0 1
Nghost:    12666 ave 12668 max 12664 min
Histogram: 1 0 0 0 0 0 0 0 0 1
Neighs:    724524 ave 724750 max 724297 min
Histogram: 1 0 0 0 0 0 0 0 0 1

Total # of neighbors = 1449047
Ave neighs/atom = 73.7353
Neighbor list builds = 19505
Dangerous builds not checked
Setting up Verlet run ...
  Unit style    : metal
  Current step  : 940000
  Time step     : 0.001
Per MPI rank memory allocation (min/avg/max) = 11.35 | 11.35 | 11.35 Mbytes
Step Temp Press TotEng PotEng Enthalpy 
  940000    200.81445   -305.56165   -54293.485   -54803.572   -54359.022 
  940495    176.39884    329.83445   -54424.003   -54872.072   -54353.442 
Loop time of 42.205 on 2 procs for 495 steps with 19652 atoms

Performance: 1.013 ns/day, 23.684 hours/ns, 11.728 timesteps/s
99.8% CPU use with 2 MPI tasks x no OpenMP threads

MPI task timing breakdown:
Section |  min time  |  avg time  |  max time  |%varavg| %total
---------------------------------------------------------------
Pair    | 22.761     | 22.774     | 22.787     |   0.3 | 53.96
Neigh   | 17.789     | 18.006     | 18.222     |   5.1 | 42.66
Comm    | 0.62687    | 0.85913    | 1.0914     |  25.1 |  2.04
Output  | 0.00011086 | 0.00025797 | 0.00040507 |   0.0 |  0.00
Modify  | 0.43905    | 0.44179    | 0.44452    |   0.4 |  1.05
Other   |            | 0.1242     |            |       |  0.29

Nlocal:    9826 ave 9829 max 9823 min
Histogram: 1 0 0 0 0 0 0 0 0 1
Nghost:    12701.5 ave 12703 max 12700 min
Histogram: 1 0 0 0 0 0 0 0 0 1
Neighs:    726131 ave 726316 max 725946 min
Histogram: 1 0 0 0 0 0 0 0 0 1

Total # of neighbors = 1452262
Ave neighs/atom = 73.8989
Neighbor list builds = 495
Dangerous builds not checked
Setting up Verlet run ...
  Unit style    : metal
  Current step  : 940495
  Time step     : 0.001
Per MPI rank memory allocation (min/avg/max) = 11.35 | 11.35 | 11.35 Mbytes
Step Temp Press TotEng PotEng Enthalpy 
  940495    176.39884    329.83445   -54424.003   -54872.072   -54353.442 
  960000    150.74791    434.33171   -54563.922   -54946.836   -54471.186 
Loop time of 1648.31 on 2 procs for 19505 steps with 19652 atoms

Performance: 1.022 ns/day, 23.474 hours/ns, 11.833 timesteps/s
99.7% CPU use with 2 MPI tasks x no OpenMP threads

MPI task timing breakdown:
Section |  min time  |  avg time  |  max time  |%varavg| %total
---------------------------------------------------------------
Pair    | 890.37     | 893.28     | 896.18     |   9.7 | 54.19
Neigh   | 695.49     | 697.57     | 699.65     |   7.9 | 42.32
Comm    | 35.107     | 35.93      | 36.752     |  13.7 |  2.18
Output  | 0.036056   | 0.03608    | 0.036104   |   0.0 |  0.00
Modify  | 16.674     | 16.69      | 16.706     |   0.4 |  1.01
Other   |            | 4.804      |            |       |  0.29

Nlocal:    9826 ave 9828 max 9824 min
Histogram: 1 0 0 0 0 0 0 0 0 1
Nghost:    12714 ave 12725 max 12703 min
Histogram: 1 0 0 0 0 0 0 0 0 1
Neighs:    727475 ave 727607 max 727343 min
Histogram: 1 0 0 0 0 0 0 0 0 1

Total # of neighbors = 1454950
Ave neighs/atom = 74.0357
Neighbor list builds = 19505
Dangerous builds not checked
Setting up Verlet run ...
  Unit style    : metal
  Current step  : 960000
  Time step     : 0.001
Per MPI rank memory allocation (min/avg/max) = 11.35 | 11.35 | 11.35 Mbytes
Step Temp Press TotEng PotEng Enthalpy 
  960000    150.74791    434.33171   -54563.922   -54946.836   -54471.186 
  960495    127.07563     159.0373   -54682.444   -55005.227   -54648.534 
Loop time of 41.4913 on 2 procs for 495 steps with 19652 atoms

Performance: 1.031 ns/day, 23.284 hours/ns, 11.930 timesteps/s
100.0% CPU use with 2 MPI tasks x no OpenMP threads

MPI task timing breakdown:
Section |  min time  |  avg time  |  max time  |%varavg| %total
---------------------------------------------------------------
Pair    | 22.319     | 22.421     | 22.524     |   2.2 | 54.04
Neigh   | 17.425     | 17.558     | 17.691     |   3.2 | 42.32
Comm    | 0.91856    | 0.96221    | 1.0059     |   4.5 |  2.32
Output  | 0.00014186 | 0.00023603 | 0.00033021 |   0.0 |  0.00
Modify  | 0.4186     | 0.42889    | 0.43919    |   1.6 |  1.03
Other   |            | 0.1212     |            |       |  0.29

Nlocal:    9826 ave 9828 max 9824 min
Histogram: 1 0 0 0 0 0 0 0 0 1
Nghost:    12722 ave 12733 max 12711 min
Histogram: 1 0 0 0 0 0 0 0 0 1
Neighs:    728520 ave 728737 max 728304 min
Histogram: 1 0 0 0 0 0 0 0 0 1

Total # of neighbors = 1457041
Ave neighs/atom = 74.1421
Neighbor list builds = 495
Dangerous builds not checked
Setting up Verlet run ...
  Unit style    : metal
  Current step  : 960495
  Time step     : 0.001
Per MPI rank memory allocation (min/avg/max) = 11.35 | 11.35 | 11.35 Mbytes
Step Temp Press TotEng PotEng Enthalpy 
  960495    127.07563     159.0373   -54682.444   -55005.227   -54648.534 
  980000     100.1119   -516.77194   -54826.489   -55080.783   -54936.543 
Loop time of 1636.02 on 2 procs for 19505 steps with 19652 atoms

Performance: 1.030 ns/day, 23.299 hours/ns, 11.922 timesteps/s
99.7% CPU use with 2 MPI tasks x no OpenMP threads

MPI task timing breakdown:
Section |  min time  |  avg time  |  max time  |%varavg| %total
---------------------------------------------------------------
Pair    | 883.77     | 886.72     | 889.68     |   9.9 | 54.20
Neigh   | 680.94     | 689.71     | 698.49     |  33.4 | 42.16
Comm    | 32.108     | 38.126     | 44.145     |  97.5 |  2.33
Output  | 0.035276   | 0.035311   | 0.035347   |   0.0 |  0.00
Modify  | 16.46      | 16.606     | 16.751     |   3.6 |  1.01
Other   |            | 4.812      |            |       |  0.29

Nlocal:    9826 ave 9828 max 9824 min
Histogram: 1 0 0 0 0 0 0 0 0 1
Nghost:    12733.5 ave 12739 max 12728 min
Histogram: 1 0 0 0 0 0 0 0 0 1
Neighs:    729324 ave 729611 max 729038 min
Histogram: 1 0 0 0 0 0 0 0 0 1

Total # of neighbors = 1458649
Ave neighs/atom = 74.2239
Neighbor list builds = 19505
Dangerous builds not checked
Total wall time: 25:57:34
