LAMMPS (12 Dec 2018)
Lattice spacing in x,y,z = 4 4 4
Created orthogonal box = (0 0 0) to (68 68 68)
  1 by 1 by 1 MPI processor grid
Created 19652 atoms
  Time spent = 0.00332785 secs
Setting atom values ...
  19281 settings made for type/fraction
Neighbor list info ...
  update every 1 steps, delay 0 steps, check no
  max neighbors/atom: 2000, page size: 100000
  master list distance cutoff = 8.5
  ghost atom cutoff = 8.5
  binsize = 4.25, bins = 16 16 16
  1 neighbor lists, perpetual/occasional/extra = 1 0 0
  (1) pair eam/alloy, perpetual
      attributes: half, newton on
      pair build: half/bin/atomonly/newton
      stencil: half/bin/3d/newton
      bin: standard
Setting up Verlet run ...
  Unit style    : metal
  Current step  : 0
  Time step     : 0.001
Per MPI rank memory allocation (min/avg/max) = 18.19 | 18.19 | 18.19 Mbytes
Step Temp Press TotEng PotEng Enthalpy 
       0          300   -166746.06   -61341.629   -62103.656   -94066.049 
    1000    424.31128   -76916.569   -61341.632   -62419.421   -76436.742 
Loop time of 153.257 on 1 procs for 1000 steps with 19652 atoms

Performance: 0.564 ns/day, 42.571 hours/ns, 6.525 timesteps/s
99.3% CPU use with 1 MPI tasks x no OpenMP threads

MPI task timing breakdown:
Section |  min time  |  avg time  |  max time  |%varavg| %total
---------------------------------------------------------------
Pair    | 84.255     | 84.255     | 84.255     |   0.0 | 54.98
Neigh   | 66.196     | 66.196     | 66.196     |   0.0 | 43.19
Comm    | 1.175      | 1.175      | 1.175      |   0.0 |  0.77
Output  | 0.84846    | 0.84846    | 0.84846    |   0.0 |  0.55
Modify  | 0.40288    | 0.40288    | 0.40288    |   0.0 |  0.26
Other   |            | 0.3795     |            |       |  0.25

Nlocal:    19652 ave 19652 max 19652 min
Histogram: 1 0 0 0 0 0 0 0 0 0
Nghost:    18958 ave 18958 max 18958 min
Histogram: 1 0 0 0 0 0 0 0 0 0
Neighs:    1.57941e+06 ave 1.57941e+06 max 1.57941e+06 min
Histogram: 1 0 0 0 0 0 0 0 0 0

Total # of neighbors = 1579409
Ave neighs/atom = 80.3689
Neighbor list builds = 1000
Dangerous builds not checked
Setting up Verlet run ...
  Unit style    : metal
  Current step  : 1000
  Time step     : 0.001
Per MPI rank memory allocation (min/avg/max) = 18.2 | 18.2 | 18.2 Mbytes
Step Temp Press TotEng PotEng Enthalpy 
    1000    424.31128   -76916.569   -61341.632   -62419.421   -76436.742 
    2000    398.60212   -1575.8127   -65324.449   -66336.934   -65565.235 
Loop time of 180.281 on 1 procs for 1000 steps with 19652 atoms

Performance: 0.479 ns/day, 50.078 hours/ns, 5.547 timesteps/s
99.9% CPU use with 1 MPI tasks x no OpenMP threads

MPI task timing breakdown:
Section |  min time  |  avg time  |  max time  |%varavg| %total
---------------------------------------------------------------
Pair    | 96.863     | 96.863     | 96.863     |   0.0 | 53.73
Neigh   | 80.7       | 80.7       | 80.7       |   0.0 | 44.76
Comm    | 1.0388     | 1.0388     | 1.0388     |   0.0 |  0.58
Output  | 0.00014806 | 0.00014806 | 0.00014806 |   0.0 |  0.00
Modify  | 1.3236     | 1.3236     | 1.3236     |   0.0 |  0.73
Other   |            | 0.356      |            |       |  0.20

Nlocal:    19652 ave 19652 max 19652 min
Histogram: 1 0 0 0 0 0 0 0 0 0
Nghost:    20318 ave 20318 max 20318 min
Histogram: 1 0 0 0 0 0 0 0 0 0
Neighs:    2.00254e+06 ave 2.00254e+06 max 2.00254e+06 min
Histogram: 1 0 0 0 0 0 0 0 0 0

Total # of neighbors = 2002540
Ave neighs/atom = 101.9
Neighbor list builds = 1000
Dangerous builds not checked
Setting up Verlet run ...
  Unit style    : metal
  Current step  : 2000
  Time step     : 0.001
Per MPI rank memory allocation (min/avg/max) = 19.34 | 19.34 | 19.34 Mbytes
Step Temp Press TotEng PotEng Enthalpy 
    2000    398.60212   -1575.8127   -65324.449   -66336.934   -65565.235 
    6667     1489.059    229.52355   -59082.764    -62865.11   -59044.983 
   10000    2435.0499   -102.03517   -52579.738   -58764.986   -52598.676 
Loop time of 1493.39 on 1 procs for 8000 steps with 19652 atoms

Performance: 0.463 ns/day, 51.854 hours/ns, 5.357 timesteps/s
99.8% CPU use with 1 MPI tasks x no OpenMP threads

MPI task timing breakdown:
Section |  min time  |  avg time  |  max time  |%varavg| %total
---------------------------------------------------------------
Pair    | 803.57     | 803.57     | 803.57     |   0.0 | 53.81
Neigh   | 666.94     | 666.94     | 666.94     |   0.0 | 44.66
Comm    | 8.5691     | 8.5691     | 8.5691     |   0.0 |  0.57
Output  | 0.052301   | 0.052301   | 0.052301   |   0.0 |  0.00
Modify  | 11.277     | 11.277     | 11.277     |   0.0 |  0.76
Other   |            | 2.979      |            |       |  0.20

Nlocal:    19652 ave 19652 max 19652 min
Histogram: 1 0 0 0 0 0 0 0 0 0
Nghost:    19172 ave 19172 max 19172 min
Histogram: 1 0 0 0 0 0 0 0 0 0
Neighs:    1.65658e+06 ave 1.65658e+06 max 1.65658e+06 min
Histogram: 1 0 0 0 0 0 0 0 0 0

Total # of neighbors = 1656575
Ave neighs/atom = 84.2955
Neighbor list builds = 8000
Dangerous builds not checked
Setting up Verlet run ...
  Unit style    : metal
  Current step  : 10000
  Time step     : 0.001
Per MPI rank memory allocation (min/avg/max) = 19.34 | 19.34 | 19.34 Mbytes
Step Temp Press TotEng PotEng Enthalpy 
   10000    2435.0499   -102.03517   -52579.738   -58764.986   -52598.676 
   13334    2464.3011    688.51959   -52444.395   -58703.945   -52316.527 
   20001    2454.0472   -435.16563   -52463.153   -58696.656   -52544.103 
   26668    2454.6269    1909.3068   -52500.638   -58735.614   -52146.836 
   33335    2451.5601    67.059163   -52459.462   -58686.648   -52446.991 
   40000    2486.4692     207.0484   -52343.785   -58659.643   -52305.233 
Loop time of 4824.02 on 1 procs for 30000 steps with 19652 atoms

Performance: 0.537 ns/day, 44.667 hours/ns, 6.219 timesteps/s
99.7% CPU use with 1 MPI tasks x no OpenMP threads

MPI task timing breakdown:
Section |  min time  |  avg time  |  max time  |%varavg| %total
---------------------------------------------------------------
Pair    | 2572.5     | 2572.5     | 2572.5     |   0.0 | 53.33
Neigh   | 2173.2     | 2173.2     | 2173.2     |   0.0 | 45.05
Comm    | 29.357     | 29.357     | 29.357     |   0.0 |  0.61
Output  | 1.0665     | 1.0665     | 1.0665     |   0.0 |  0.02
Modify  | 37.867     | 37.867     | 37.867     |   0.0 |  0.78
Other   |            | 10.02      |            |       |  0.21

Nlocal:    19652 ave 19652 max 19652 min
Histogram: 1 0 0 0 0 0 0 0 0 0
Nghost:    19179 ave 19179 max 19179 min
Histogram: 1 0 0 0 0 0 0 0 0 0
Neighs:    1.6515e+06 ave 1.6515e+06 max 1.6515e+06 min
Histogram: 1 0 0 0 0 0 0 0 0 0

Total # of neighbors = 1651497
Ave neighs/atom = 84.0371
Neighbor list builds = 30000
Dangerous builds not checked
Setting up Verlet run ...
  Unit style    : metal
  Current step  : 40000
  Time step     : 0.001
Per MPI rank memory allocation (min/avg/max) = 19.34 | 19.34 | 19.34 Mbytes
Step Temp Press TotEng PotEng Enthalpy 
   40000    2486.4692     207.0484   -52343.785   -58659.643   -52305.233 
   40002    2486.8287    161.41742    -52343.81   -58660.581   -52313.754 
   40495    2418.4043    777.25817   -52709.243    -58852.21   -52565.418 
Loop time of 63.7107 on 1 procs for 495 steps with 19652 atoms

Performance: 0.671 ns/day, 35.752 hours/ns, 7.769 timesteps/s
98.3% CPU use with 1 MPI tasks x no OpenMP threads

MPI task timing breakdown:
Section |  min time  |  avg time  |  max time  |%varavg| %total
---------------------------------------------------------------
Pair    | 33.11      | 33.11      | 33.11      |   0.0 | 51.97
Neigh   | 28.538     | 28.538     | 28.538     |   0.0 | 44.79
Comm    | 0.37559    | 0.37559    | 0.37559    |   0.0 |  0.59
Output  | 1.082      | 1.082      | 1.082      |   0.0 |  1.70
Modify  | 0.47564    | 0.47564    | 0.47564    |   0.0 |  0.75
Other   |            | 0.1299     |            |       |  0.20

Nlocal:    19652 ave 19652 max 19652 min
Histogram: 1 0 0 0 0 0 0 0 0 0
Nghost:    19139 ave 19139 max 19139 min
Histogram: 1 0 0 0 0 0 0 0 0 0
Neighs:    1.66159e+06 ave 1.66159e+06 max 1.66159e+06 min
Histogram: 1 0 0 0 0 0 0 0 0 0

Total # of neighbors = 1661589
Ave neighs/atom = 84.5506
Neighbor list builds = 495
Dangerous builds not checked
Setting up Verlet run ...
  Unit style    : metal
  Current step  : 40495
  Time step     : 0.001
Per MPI rank memory allocation (min/avg/max) = 19.34 | 19.34 | 19.34 Mbytes
Step Temp Press TotEng PotEng Enthalpy 
   40495    2418.4043    777.25817   -52709.243    -58852.21   -52565.418 
   46667    2388.3894    73.319329   -52776.541   -58843.268   -52762.966 
Loop time of 797.931 on 1 procs for 6172 steps with 19652 atoms

Performance: 0.668 ns/day, 35.912 hours/ns, 7.735 timesteps/s
99.8% CPU use with 1 MPI tasks x no OpenMP threads

MPI task timing breakdown:
Section |  min time  |  avg time  |  max time  |%varavg| %total
---------------------------------------------------------------
Pair    | 421.92     | 421.92     | 421.92     |   0.0 | 52.88
Neigh   | 362.79     | 362.79     | 362.79     |   0.0 | 45.47
Comm    | 4.8167     | 4.8167     | 4.8167     |   0.0 |  0.60
Output  | 0.00015807 | 0.00015807 | 0.00015807 |   0.0 |  0.00
Modify  | 6.7659     | 6.7659     | 6.7659     |   0.0 |  0.85
Other   |            | 1.639      |            |       |  0.21

Nlocal:    19652 ave 19652 max 19652 min
Histogram: 1 0 0 0 0 0 0 0 0 0
Nghost:    19199 ave 19199 max 19199 min
Histogram: 1 0 0 0 0 0 0 0 0 0
Neighs:    1.66066e+06 ave 1.66066e+06 max 1.66066e+06 min
Histogram: 1 0 0 0 0 0 0 0 0 0

Total # of neighbors = 1660658
Ave neighs/atom = 84.5033
Neighbor list builds = 6172
Dangerous builds not checked
Setting up Verlet run ...
  Unit style    : metal
  Current step  : 46667
  Time step     : 0.001
Per MPI rank memory allocation (min/avg/max) = 19.34 | 19.34 | 19.34 Mbytes
Step Temp Press TotEng PotEng Enthalpy 
   46667    2388.3894    73.319329   -52776.541   -58843.268   -52762.966 
   46669    2387.7693     131.6579   -52776.529    -58841.68   -52752.153 
   47162    2366.1229    -762.8563   -52952.713   -58962.881   -53093.409 
Loop time of 63.1515 on 1 procs for 495 steps with 19652 atoms

Performance: 0.677 ns/day, 35.439 hours/ns, 7.838 timesteps/s
98.1% CPU use with 1 MPI tasks x no OpenMP threads

MPI task timing breakdown:
Section |  min time  |  avg time  |  max time  |%varavg| %total
---------------------------------------------------------------
Pair    | 32.941     | 32.941     | 32.941     |   0.0 | 52.16
Neigh   | 28.038     | 28.038     | 28.038     |   0.0 | 44.40
Comm    | 0.36906    | 0.36906    | 0.36906    |   0.0 |  0.58
Output  | 1.1974     | 1.1974     | 1.1974     |   0.0 |  1.90
Modify  | 0.47504    | 0.47504    | 0.47504    |   0.0 |  0.75
Other   |            | 0.1319     |            |       |  0.21

Nlocal:    19652 ave 19652 max 19652 min
Histogram: 1 0 0 0 0 0 0 0 0 0
Nghost:    19184 ave 19184 max 19184 min
Histogram: 1 0 0 0 0 0 0 0 0 0
Neighs:    1.66695e+06 ave 1.66695e+06 max 1.66695e+06 min
Histogram: 1 0 0 0 0 0 0 0 0 0

Total # of neighbors = 1666951
Ave neighs/atom = 84.8235
Neighbor list builds = 495
Dangerous builds not checked
Setting up Verlet run ...
  Unit style    : metal
  Current step  : 47162
  Time step     : 0.001
Per MPI rank memory allocation (min/avg/max) = 19.34 | 19.34 | 19.34 Mbytes
Step Temp Press TotEng PotEng Enthalpy 
   47162    2366.1229    -762.8563   -52952.713   -58962.881   -53093.409 
   53334    2336.8066   -1811.5213   -53034.991   -58970.692   -53369.699 
Loop time of 795.514 on 1 procs for 6172 steps with 19652 atoms

Performance: 0.670 ns/day, 35.803 hours/ns, 7.759 timesteps/s
99.8% CPU use with 1 MPI tasks x no OpenMP threads

MPI task timing breakdown:
Section |  min time  |  avg time  |  max time  |%varavg| %total
---------------------------------------------------------------
Pair    | 422        | 422        | 422        |   0.0 | 53.05
Neigh   | 361.13     | 361.13     | 361.13     |   0.0 | 45.40
Comm    | 4.8096     | 4.8096     | 4.8096     |   0.0 |  0.60
Output  | 0.00013995 | 0.00013995 | 0.00013995 |   0.0 |  0.00
Modify  | 5.9421     | 5.9421     | 5.9421     |   0.0 |  0.75
Other   |            | 1.638      |            |       |  0.21

Nlocal:    19652 ave 19652 max 19652 min
Histogram: 1 0 0 0 0 0 0 0 0 0
Nghost:    19174 ave 19174 max 19174 min
Histogram: 1 0 0 0 0 0 0 0 0 0
Neighs:    1.66437e+06 ave 1.66437e+06 max 1.66437e+06 min
Histogram: 1 0 0 0 0 0 0 0 0 0

Total # of neighbors = 1664366
Ave neighs/atom = 84.6919
Neighbor list builds = 6172
Dangerous builds not checked
Setting up Verlet run ...
  Unit style    : metal
  Current step  : 53334
  Time step     : 0.001
Per MPI rank memory allocation (min/avg/max) = 19.34 | 19.34 | 19.34 Mbytes
Step Temp Press TotEng PotEng Enthalpy 
   53334    2336.8066   -1811.5213   -53034.991   -58970.692   -53369.699 
   53336    2336.2216   -1826.1025   -53034.979   -58969.195   -53372.381 
   53829    2307.5052    647.88728    -53274.65   -59135.923   -53155.874 
Loop time of 62.9434 on 1 procs for 495 steps with 19652 atoms

Performance: 0.679 ns/day, 35.322 hours/ns, 7.864 timesteps/s
99.5% CPU use with 1 MPI tasks x no OpenMP threads

MPI task timing breakdown:
Section |  min time  |  avg time  |  max time  |%varavg| %total
---------------------------------------------------------------
Pair    | 33.331     | 33.331     | 33.331     |   0.0 | 52.95
Neigh   | 28.439     | 28.439     | 28.439     |   0.0 | 45.18
Comm    | 0.37623    | 0.37623    | 0.37623    |   0.0 |  0.60
Output  | 0.19266    | 0.19266    | 0.19266    |   0.0 |  0.31
Modify  | 0.47532    | 0.47532    | 0.47532    |   0.0 |  0.76
Other   |            | 0.1299     |            |       |  0.21

Nlocal:    19652 ave 19652 max 19652 min
Histogram: 1 0 0 0 0 0 0 0 0 0
Nghost:    19259 ave 19259 max 19259 min
Histogram: 1 0 0 0 0 0 0 0 0 0
Neighs:    1.67682e+06 ave 1.67682e+06 max 1.67682e+06 min
Histogram: 1 0 0 0 0 0 0 0 0 0

Total # of neighbors = 1676825
Ave neighs/atom = 85.3259
Neighbor list builds = 495
Dangerous builds not checked
Setting up Verlet run ...
  Unit style    : metal
  Current step  : 53829
  Time step     : 0.001
Per MPI rank memory allocation (min/avg/max) = 19.34 | 19.34 | 19.34 Mbytes
Step Temp Press TotEng PotEng Enthalpy 
   53829    2307.5052    647.88728    -53274.65   -59135.923   -53155.874 
   60001    2319.2421   -263.63265   -53230.672   -59121.758   -53279.083 
Loop time of 945.427 on 1 procs for 6172 steps with 19652 atoms

Performance: 0.564 ns/day, 42.550 hours/ns, 6.528 timesteps/s
99.8% CPU use with 1 MPI tasks x no OpenMP threads

MPI task timing breakdown:
Section |  min time  |  avg time  |  max time  |%varavg| %total
---------------------------------------------------------------
Pair    | 511.58     | 511.58     | 511.58     |   0.0 | 54.11
Neigh   | 419.02     | 419.02     | 419.02     |   0.0 | 44.32
Comm    | 5.7575     | 5.7575     | 5.7575     |   0.0 |  0.61
Output  | 0.00023103 | 0.00023103 | 0.00023103 |   0.0 |  0.00
Modify  | 7.1351     | 7.1351     | 7.1351     |   0.0 |  0.75
Other   |            | 1.928      |            |       |  0.20

Nlocal:    19652 ave 19652 max 19652 min
Histogram: 1 0 0 0 0 0 0 0 0 0
Nghost:    19284 ave 19284 max 19284 min
Histogram: 1 0 0 0 0 0 0 0 0 0
Neighs:    1.67415e+06 ave 1.67415e+06 max 1.67415e+06 min
Histogram: 1 0 0 0 0 0 0 0 0 0

Total # of neighbors = 1674151
Ave neighs/atom = 85.1899
Neighbor list builds = 6172
Dangerous builds not checked
Setting up Verlet run ...
  Unit style    : metal
  Current step  : 60001
  Time step     : 0.001
Per MPI rank memory allocation (min/avg/max) = 19.34 | 19.34 | 19.34 Mbytes
Step Temp Press TotEng PotEng Enthalpy 
   60001    2319.2421   -263.63265   -53230.672   -59121.758   -53279.083 
   60003    2319.3386   -272.86864   -53230.696   -59122.028   -53280.804 
   60496    2265.1112    1286.2822   -53516.668   -59270.256   -53281.718 
Loop time of 92.6189 on 1 procs for 495 steps with 19652 atoms

Performance: 0.462 ns/day, 51.975 hours/ns, 5.344 timesteps/s
99.3% CPU use with 1 MPI tasks x no OpenMP threads

MPI task timing breakdown:
Section |  min time  |  avg time  |  max time  |%varavg| %total
---------------------------------------------------------------
Pair    | 50.732     | 50.732     | 50.732     |   0.0 | 54.78
Neigh   | 39.909     | 39.909     | 39.909     |   0.0 | 43.09
Comm    | 0.57442    | 0.57442    | 0.57442    |   0.0 |  0.62
Output  | 0.47733    | 0.47733    | 0.47733    |   0.0 |  0.52
Modify  | 0.73318    | 0.73318    | 0.73318    |   0.0 |  0.79
Other   |            | 0.1928     |            |       |  0.21

Nlocal:    19652 ave 19652 max 19652 min
Histogram: 1 0 0 0 0 0 0 0 0 0
Nghost:    19353 ave 19353 max 19353 min
Histogram: 1 0 0 0 0 0 0 0 0 0
Neighs:    1.6828e+06 ave 1.6828e+06 max 1.6828e+06 min
Histogram: 1 0 0 0 0 0 0 0 0 0

Total # of neighbors = 1682801
Ave neighs/atom = 85.63
Neighbor list builds = 495
Dangerous builds not checked
Setting up Verlet run ...
  Unit style    : metal
  Current step  : 60496
  Time step     : 0.001
Per MPI rank memory allocation (min/avg/max) = 19.34 | 19.34 | 19.34 Mbytes
Step Temp Press TotEng PotEng Enthalpy 
   60496    2265.1112    1286.2822   -53516.668   -59270.256   -53281.718 
   66668     2252.682    1098.9941   -53577.466   -59299.483   -53377.136 
Loop time of 1210.14 on 1 procs for 6172 steps with 19652 atoms

Performance: 0.441 ns/day, 54.464 hours/ns, 5.100 timesteps/s
99.8% CPU use with 1 MPI tasks x no OpenMP threads

MPI task timing breakdown:
Section |  min time  |  avg time  |  max time  |%varavg| %total
---------------------------------------------------------------
Pair    | 669.43     | 669.43     | 669.43     |   0.0 | 55.32
Neigh   | 521.6      | 521.6      | 521.6      |   0.0 | 43.10
Comm    | 7.4152     | 7.4152     | 7.4152     |   0.0 |  0.61
Output  | 0.0002439  | 0.0002439  | 0.0002439  |   0.0 |  0.00
Modify  | 9.2289     | 9.2289     | 9.2289     |   0.0 |  0.76
Other   |            | 2.459      |            |       |  0.20

Nlocal:    19652 ave 19652 max 19652 min
Histogram: 1 0 0 0 0 0 0 0 0 0
Nghost:    19330 ave 19330 max 19330 min
Histogram: 1 0 0 0 0 0 0 0 0 0
Neighs:    1.68662e+06 ave 1.68662e+06 max 1.68662e+06 min
Histogram: 1 0 0 0 0 0 0 0 0 0

Total # of neighbors = 1686618
Ave neighs/atom = 85.8242
Neighbor list builds = 6172
Dangerous builds not checked
Setting up Verlet run ...
  Unit style    : metal
  Current step  : 66668
  Time step     : 0.001
Per MPI rank memory allocation (min/avg/max) = 19.34 | 19.34 | 19.34 Mbytes
Step Temp Press TotEng PotEng Enthalpy 
   66668     2252.682    1098.9941   -53577.466   -59299.483   -53377.136 
   66670    2253.3146    1055.7114   -53577.473   -59301.098   -53385.033 
   67163    2199.5199    861.83169   -53810.507   -59397.488   -53653.951 
Loop time of 102.226 on 1 procs for 495 steps with 19652 atoms

Performance: 0.418 ns/day, 57.366 hours/ns, 4.842 timesteps/s
99.9% CPU use with 1 MPI tasks x no OpenMP threads

MPI task timing breakdown:
Section |  min time  |  avg time  |  max time  |%varavg| %total
---------------------------------------------------------------
Pair    | 56.89      | 56.89      | 56.89      |   0.0 | 55.65
Neigh   | 43.575     | 43.575     | 43.575     |   0.0 | 42.63
Comm    | 0.63981    | 0.63981    | 0.63981    |   0.0 |  0.63
Output  | 0.068759   | 0.068759   | 0.068759   |   0.0 |  0.07
Modify  | 0.83389    | 0.83389    | 0.83389    |   0.0 |  0.82
Other   |            | 0.2181     |            |       |  0.21

Nlocal:    19652 ave 19652 max 19652 min
Histogram: 1 0 0 0 0 0 0 0 0 0
Nghost:    19332 ave 19332 max 19332 min
Histogram: 1 0 0 0 0 0 0 0 0 0
Neighs:    1.69169e+06 ave 1.69169e+06 max 1.69169e+06 min
Histogram: 1 0 0 0 0 0 0 0 0 0

Total # of neighbors = 1691686
Ave neighs/atom = 86.0821
Neighbor list builds = 495
Dangerous builds not checked
Setting up Verlet run ...
  Unit style    : metal
  Current step  : 67163
  Time step     : 0.001
Per MPI rank memory allocation (min/avg/max) = 19.34 | 19.34 | 19.34 Mbytes
Step Temp Press TotEng PotEng Enthalpy 
   67163    2199.5199    861.83169   -53810.507   -59397.488   -53653.951 
   73335    2206.1684   -14.512915   -53849.267   -59453.136   -53851.904 
Loop time of 1388.2 on 1 procs for 6172 steps with 19652 atoms

Performance: 0.384 ns/day, 62.477 hours/ns, 4.446 timesteps/s
99.9% CPU use with 1 MPI tasks x no OpenMP threads

MPI task timing breakdown:
Section |  min time  |  avg time  |  max time  |%varavg| %total
---------------------------------------------------------------
Pair    | 784.51     | 784.51     | 784.51     |   0.0 | 56.51
Neigh   | 581.79     | 581.79     | 581.79     |   0.0 | 41.91
Comm    | 8.6447     | 8.6447     | 8.6447     |   0.0 |  0.62
Output  | 0.00026894 | 0.00026894 | 0.00026894 |   0.0 |  0.00
Modify  | 10.446     | 10.446     | 10.446     |   0.0 |  0.75
Other   |            | 2.811      |            |       |  0.20

Nlocal:    19652 ave 19652 max 19652 min
Histogram: 1 0 0 0 0 0 0 0 0 0
Nghost:    19386 ave 19386 max 19386 min
Histogram: 1 0 0 0 0 0 0 0 0 0
Neighs:    1.69177e+06 ave 1.69177e+06 max 1.69177e+06 min
Histogram: 1 0 0 0 0 0 0 0 0 0

Total # of neighbors = 1691773
Ave neighs/atom = 86.0866
Neighbor list builds = 6172
Dangerous builds not checked
Setting up Verlet run ...
  Unit style    : metal
  Current step  : 73335
  Time step     : 0.001
Per MPI rank memory allocation (min/avg/max) = 19.34 | 19.34 | 19.34 Mbytes
Step Temp Press TotEng PotEng Enthalpy 
   73335    2206.1684   -14.512915   -53849.267   -59453.136   -53851.904 
   73337     2206.324   -14.212509   -53849.277   -59453.541   -53851.859 
   73830    2159.0782    820.08943   -54084.835   -59569.091    -53936.54 
Loop time of 110.519 on 1 procs for 495 steps with 19652 atoms

Performance: 0.387 ns/day, 62.020 hours/ns, 4.479 timesteps/s
99.1% CPU use with 1 MPI tasks x no OpenMP threads

MPI task timing breakdown:
Section |  min time  |  avg time  |  max time  |%varavg| %total
---------------------------------------------------------------
Pair    | 62.557     | 62.557     | 62.557     |   0.0 | 56.60
Neigh   | 46.063     | 46.063     | 46.063     |   0.0 | 41.68
Comm    | 0.70686    | 0.70686    | 0.70686    |   0.0 |  0.64
Output  | 0.086392   | 0.086392   | 0.086392   |   0.0 |  0.08
Modify  | 0.86709    | 0.86709    | 0.86709    |   0.0 |  0.78
Other   |            | 0.238      |            |       |  0.22

Nlocal:    19652 ave 19652 max 19652 min
Histogram: 1 0 0 0 0 0 0 0 0 0
Nghost:    19385 ave 19385 max 19385 min
Histogram: 1 0 0 0 0 0 0 0 0 0
Neighs:    1.7002e+06 ave 1.7002e+06 max 1.7002e+06 min
Histogram: 1 0 0 0 0 0 0 0 0 0

Total # of neighbors = 1700196
Ave neighs/atom = 86.5152
Neighbor list builds = 495
Dangerous builds not checked
Setting up Verlet run ...
  Unit style    : metal
  Current step  : 73830
  Time step     : 0.001
Per MPI rank memory allocation (min/avg/max) = 19.34 | 19.34 | 19.34 Mbytes
Step Temp Press TotEng PotEng Enthalpy 
   73830    2159.0782    820.08943   -54084.835   -59569.091    -53936.54 
   80002    2171.9532   -1132.8408   -54047.097   -59564.056   -54252.441 
Loop time of 1428.4 on 1 procs for 6172 steps with 19652 atoms

Performance: 0.373 ns/day, 64.287 hours/ns, 4.321 timesteps/s
99.7% CPU use with 1 MPI tasks x no OpenMP threads

MPI task timing breakdown:
Section |  min time  |  avg time  |  max time  |%varavg| %total
---------------------------------------------------------------
Pair    | 815.78     | 815.78     | 815.78     |   0.0 | 57.11
Neigh   | 589.7      | 589.7      | 589.7      |   0.0 | 41.28
Comm    | 9.156      | 9.156      | 9.156      |   0.0 |  0.64
Output  | 0.00023508 | 0.00023508 | 0.00023508 |   0.0 |  0.00
Modify  | 10.858     | 10.858     | 10.858     |   0.0 |  0.76
Other   |            | 2.899      |            |       |  0.20

Nlocal:    19652 ave 19652 max 19652 min
Histogram: 1 0 0 0 0 0 0 0 0 0
Nghost:    19266 ave 19266 max 19266 min
Histogram: 1 0 0 0 0 0 0 0 0 0
Neighs:    1.69597e+06 ave 1.69597e+06 max 1.69597e+06 min
Histogram: 1 0 0 0 0 0 0 0 0 0

Total # of neighbors = 1695974
Ave neighs/atom = 86.3003
Neighbor list builds = 6172
Dangerous builds not checked
Setting up Verlet run ...
  Unit style    : metal
  Current step  : 80002
  Time step     : 0.001
Per MPI rank memory allocation (min/avg/max) = 19.34 | 19.34 | 19.34 Mbytes
Step Temp Press TotEng PotEng Enthalpy 
   80002    2171.9532   -1132.8408   -54047.097   -59564.056   -54252.441 
   80004    2170.5367   -1078.1107   -54047.117   -59560.478    -54242.54 
   80497    2109.6668    193.35761    -54380.12   -59738.865   -54345.289 
Loop time of 111.385 on 1 procs for 495 steps with 19652 atoms

Performance: 0.384 ns/day, 62.506 hours/ns, 4.444 timesteps/s
99.8% CPU use with 1 MPI tasks x no OpenMP threads

MPI task timing breakdown:
Section |  min time  |  avg time  |  max time  |%varavg| %total
---------------------------------------------------------------
Pair    | 63.587     | 63.587     | 63.587     |   0.0 | 57.09
Neigh   | 45.883     | 45.883     | 45.883     |   0.0 | 41.19
Comm    | 0.73178    | 0.73178    | 0.73178    |   0.0 |  0.66
Output  | 0.069861   | 0.069861   | 0.069861   |   0.0 |  0.06
Modify  | 0.88128    | 0.88128    | 0.88128    |   0.0 |  0.79
Other   |            | 0.2326     |            |       |  0.21

Nlocal:    19652 ave 19652 max 19652 min
Histogram: 1 0 0 0 0 0 0 0 0 0
Nghost:    19345 ave 19345 max 19345 min
Histogram: 1 0 0 0 0 0 0 0 0 0
Neighs:    1.70557e+06 ave 1.70557e+06 max 1.70557e+06 min
Histogram: 1 0 0 0 0 0 0 0 0 0

Total # of neighbors = 1705566
Ave neighs/atom = 86.7884
Neighbor list builds = 495
Dangerous builds not checked
Setting up Verlet run ...
  Unit style    : metal
  Current step  : 80497
  Time step     : 0.001
Per MPI rank memory allocation (min/avg/max) = 19.34 | 19.34 | 19.34 Mbytes
Step Temp Press TotEng PotEng Enthalpy 
   80497    2109.6668    193.35761    -54380.12   -59738.865   -54345.289 
   86669    2123.8882    2137.4201   -54420.708   -59815.577   -54037.479 
Loop time of 1317.21 on 1 procs for 6172 steps with 19652 atoms

Performance: 0.405 ns/day, 59.282 hours/ns, 4.686 timesteps/s
99.7% CPU use with 1 MPI tasks x no OpenMP threads

MPI task timing breakdown:
Section |  min time  |  avg time  |  max time  |%varavg| %total
---------------------------------------------------------------
Pair    | 745.57     | 745.57     | 745.57     |   0.0 | 56.60
Neigh   | 550.68     | 550.68     | 550.68     |   0.0 | 41.81
Comm    | 8.3175     | 8.3175     | 8.3175     |   0.0 |  0.63
Output  | 0.0002079  | 0.0002079  | 0.0002079  |   0.0 |  0.00
Modify  | 9.9401     | 9.9401     | 9.9401     |   0.0 |  0.75
Other   |            | 2.709      |            |       |  0.21

Nlocal:    19652 ave 19652 max 19652 min
Histogram: 1 0 0 0 0 0 0 0 0 0
Nghost:    19366 ave 19366 max 19366 min
Histogram: 1 0 0 0 0 0 0 0 0 0
Neighs:    1.7144e+06 ave 1.7144e+06 max 1.7144e+06 min
Histogram: 1 0 0 0 0 0 0 0 0 0

Total # of neighbors = 1714401
Ave neighs/atom = 87.238
Neighbor list builds = 6172
Dangerous builds not checked
Setting up Verlet run ...
  Unit style    : metal
  Current step  : 86669
  Time step     : 0.001
Per MPI rank memory allocation (min/avg/max) = 19.34 | 19.34 | 19.34 Mbytes
Step Temp Press TotEng PotEng Enthalpy 
   86669    2123.8882    2137.4201   -54420.708   -59815.577   -54037.479 
   86671    2124.5261    2136.0682   -54420.737   -59817.227    -54037.75 
   87164    2074.6604   -96.021242   -54619.185   -59889.012   -54636.404 
Loop time of 61.5039 on 1 procs for 495 steps with 19652 atoms

Performance: 0.695 ns/day, 34.514 hours/ns, 8.048 timesteps/s
100.0% CPU use with 1 MPI tasks x no OpenMP threads

MPI task timing breakdown:
Section |  min time  |  avg time  |  max time  |%varavg| %total
---------------------------------------------------------------
Pair    | 32.946     | 32.946     | 32.946     |   0.0 | 53.57
Neigh   | 27.556     | 27.556     | 27.556     |   0.0 | 44.80
Comm    | 0.3597     | 0.3597     | 0.3597     |   0.0 |  0.58
Output  | 0.04104    | 0.04104    | 0.04104    |   0.0 |  0.07
Modify  | 0.47162    | 0.47162    | 0.47162    |   0.0 |  0.77
Other   |            | 0.1289     |            |       |  0.21

Nlocal:    19652 ave 19652 max 19652 min
Histogram: 1 0 0 0 0 0 0 0 0 0
Nghost:    19455 ave 19455 max 19455 min
Histogram: 1 0 0 0 0 0 0 0 0 0
Neighs:    1.71412e+06 ave 1.71412e+06 max 1.71412e+06 min
Histogram: 1 0 0 0 0 0 0 0 0 0

Total # of neighbors = 1714122
Ave neighs/atom = 87.2238
Neighbor list builds = 495
Dangerous builds not checked
Setting up Verlet run ...
  Unit style    : metal
  Current step  : 87164
  Time step     : 0.001
Per MPI rank memory allocation (min/avg/max) = 19.34 | 19.34 | 19.34 Mbytes
Step Temp Press TotEng PotEng Enthalpy 
   87164    2074.6604   -96.021242   -54619.185   -59889.012   -54636.404 
   93336    2050.8447   -979.49479   -54781.409   -59990.742   -54956.676 
Loop time of 953.452 on 1 procs for 6172 steps with 19652 atoms

Performance: 0.559 ns/day, 42.911 hours/ns, 6.473 timesteps/s
99.9% CPU use with 1 MPI tasks x no OpenMP threads

MPI task timing breakdown:
Section |  min time  |  avg time  |  max time  |%varavg| %total
---------------------------------------------------------------
Pair    | 524.33     | 524.33     | 524.33     |   0.0 | 54.99
Neigh   | 414.08     | 414.08     | 414.08     |   0.0 | 43.43
Comm    | 5.842      | 5.842      | 5.842      |   0.0 |  0.61
Output  | 0.00030184 | 0.00030184 | 0.00030184 |   0.0 |  0.00
Modify  | 7.1773     | 7.1773     | 7.1773     |   0.0 |  0.75
Other   |            | 2.018      |            |       |  0.21

Nlocal:    19652 ave 19652 max 19652 min
Histogram: 1 0 0 0 0 0 0 0 0 0
Nghost:    19453 ave 19453 max 19453 min
Histogram: 1 0 0 0 0 0 0 0 0 0
Neighs:    1.71665e+06 ave 1.71665e+06 max 1.71665e+06 min
Histogram: 1 0 0 0 0 0 0 0 0 0

Total # of neighbors = 1716653
Ave neighs/atom = 87.3526
Neighbor list builds = 6172
Dangerous builds not checked
Setting up Verlet run ...
  Unit style    : metal
  Current step  : 93336
  Time step     : 0.001
Per MPI rank memory allocation (min/avg/max) = 19.34 | 19.34 | 19.34 Mbytes
Step Temp Press TotEng PotEng Enthalpy 
   93336    2050.8447   -979.49479   -54781.409   -59990.742   -54956.676 
   93338    2051.1003   -1002.6559   -54781.409    -59991.39   -54960.819 
   93831    1999.1088    307.06773   -54970.079   -60047.997   -54915.305 
Loop time of 109.461 on 1 procs for 495 steps with 19652 atoms

Performance: 0.391 ns/day, 61.426 hours/ns, 4.522 timesteps/s
99.8% CPU use with 1 MPI tasks x no OpenMP threads

MPI task timing breakdown:
Section |  min time  |  avg time  |  max time  |%varavg| %total
---------------------------------------------------------------
Pair    | 62.821     | 62.821     | 62.821     |   0.0 | 57.39
Neigh   | 44.754     | 44.754     | 44.754     |   0.0 | 40.89
Comm    | 0.72419    | 0.72419    | 0.72419    |   0.0 |  0.66
Output  | 0.07006    | 0.07006    | 0.07006    |   0.0 |  0.06
Modify  | 0.85801    | 0.85801    | 0.85801    |   0.0 |  0.78
Other   |            | 0.2334     |            |       |  0.21

Nlocal:    19652 ave 19652 max 19652 min
Histogram: 1 0 0 0 0 0 0 0 0 0
Nghost:    19493 ave 19493 max 19493 min
Histogram: 1 0 0 0 0 0 0 0 0 0
Neighs:    1.72256e+06 ave 1.72256e+06 max 1.72256e+06 min
Histogram: 1 0 0 0 0 0 0 0 0 0

Total # of neighbors = 1722558
Ave neighs/atom = 87.6531
Neighbor list builds = 495
Dangerous builds not checked
Setting up Verlet run ...
  Unit style    : metal
  Current step  : 93831
  Time step     : 0.001
Per MPI rank memory allocation (min/avg/max) = 19.34 | 19.34 | 19.34 Mbytes
Step Temp Press TotEng PotEng Enthalpy 
   93831    1999.1088    307.06773   -54970.079   -60047.997   -54915.305 
  100003    2002.0144   -1444.2417   -55058.051    -60143.35   -55315.291 
Loop time of 971.726 on 1 procs for 6172 steps with 19652 atoms

Performance: 0.549 ns/day, 43.734 hours/ns, 6.352 timesteps/s
99.9% CPU use with 1 MPI tasks x no OpenMP threads

MPI task timing breakdown:
Section |  min time  |  avg time  |  max time  |%varavg| %total
---------------------------------------------------------------
Pair    | 536.78     | 536.78     | 536.78     |   0.0 | 55.24
Neigh   | 419.57     | 419.57     | 419.57     |   0.0 | 43.18
Comm    | 6.0936     | 6.0936     | 6.0936     |   0.0 |  0.63
Output  | 0.000139   | 0.000139   | 0.000139   |   0.0 |  0.00
Modify  | 7.2546     | 7.2546     | 7.2546     |   0.0 |  0.75
Other   |            | 2.029      |            |       |  0.21

Nlocal:    19652 ave 19652 max 19652 min
Histogram: 1 0 0 0 0 0 0 0 0 0
Nghost:    19418 ave 19418 max 19418 min
Histogram: 1 0 0 0 0 0 0 0 0 0
Neighs:    1.72556e+06 ave 1.72556e+06 max 1.72556e+06 min
Histogram: 1 0 0 0 0 0 0 0 0 0

Total # of neighbors = 1725556
Ave neighs/atom = 87.8056
Neighbor list builds = 6172
Dangerous builds not checked
Setting up Verlet run ...
  Unit style    : metal
  Current step  : 100003
  Time step     : 0.001
Per MPI rank memory allocation (min/avg/max) = 19.34 | 19.34 | 19.34 Mbytes
Step Temp Press TotEng PotEng Enthalpy 
  100003    2002.0144   -1444.2417   -55058.051    -60143.35   -55315.291 
  100005     2001.849   -1475.2678    -55058.05   -60142.929   -55320.816 
  100498    1952.1545    -95.13795   -55226.042   -60184.692   -55242.937 
Loop time of 69.9762 on 1 procs for 495 steps with 19652 atoms

Performance: 0.611 ns/day, 39.268 hours/ns, 7.074 timesteps/s
99.8% CPU use with 1 MPI tasks x no OpenMP threads

MPI task timing breakdown:
Section |  min time  |  avg time  |  max time  |%varavg| %total
---------------------------------------------------------------
Pair    | 38.054     | 38.054     | 38.054     |   0.0 | 54.38
Neigh   | 30.766     | 30.766     | 30.766     |   0.0 | 43.97
Comm    | 0.42192    | 0.42192    | 0.42192    |   0.0 |  0.60
Output  | 0.063634   | 0.063634   | 0.063634   |   0.0 |  0.09
Modify  | 0.5251     | 0.5251     | 0.5251     |   0.0 |  0.75
Other   |            | 0.1448     |            |       |  0.21

Nlocal:    19652 ave 19652 max 19652 min
Histogram: 1 0 0 0 0 0 0 0 0 0
Nghost:    19571 ave 19571 max 19571 min
Histogram: 1 0 0 0 0 0 0 0 0 0
Neighs:    1.73026e+06 ave 1.73026e+06 max 1.73026e+06 min
Histogram: 1 0 0 0 0 0 0 0 0 0

Total # of neighbors = 1730259
Ave neighs/atom = 88.0449
Neighbor list builds = 495
Dangerous builds not checked
Setting up Verlet run ...
  Unit style    : metal
  Current step  : 100498
  Time step     : 0.001
Per MPI rank memory allocation (min/avg/max) = 19.34 | 19.34 | 19.34 Mbytes
Step Temp Press TotEng PotEng Enthalpy 
  100498    1952.1545    -95.13795   -55226.042   -60184.692   -55242.937 
  106670    1968.8247   -214.08849   -55261.417   -60262.411   -55299.391 
Loop time of 878.451 on 1 procs for 6172 steps with 19652 atoms

Performance: 0.607 ns/day, 39.536 hours/ns, 7.026 timesteps/s
99.9% CPU use with 1 MPI tasks x no OpenMP threads

MPI task timing breakdown:
Section |  min time  |  avg time  |  max time  |%varavg| %total
---------------------------------------------------------------
Pair    | 478.18     | 478.18     | 478.18     |   0.0 | 54.43
Neigh   | 386.71     | 386.71     | 386.71     |   0.0 | 44.02
Comm    | 5.315      | 5.315      | 5.315      |   0.0 |  0.61
Output  | 0.00017405 | 0.00017405 | 0.00017405 |   0.0 |  0.00
Modify  | 6.4654     | 6.4654     | 6.4654     |   0.0 |  0.74
Other   |            | 1.779      |            |       |  0.20

Nlocal:    19652 ave 19652 max 19652 min
Histogram: 1 0 0 0 0 0 0 0 0 0
Nghost:    19575 ave 19575 max 19575 min
Histogram: 1 0 0 0 0 0 0 0 0 0
Neighs:    1.73187e+06 ave 1.73187e+06 max 1.73187e+06 min
Histogram: 1 0 0 0 0 0 0 0 0 0

Total # of neighbors = 1731867
Ave neighs/atom = 88.1268
Neighbor list builds = 6172
Dangerous builds not checked
Setting up Verlet run ...
  Unit style    : metal
  Current step  : 106670
  Time step     : 0.001
Per MPI rank memory allocation (min/avg/max) = 19.34 | 19.34 | 19.34 Mbytes
Step Temp Press TotEng PotEng Enthalpy 
  106670    1968.8247   -214.08849   -55261.417   -60262.411   -55299.391 
  106672    1969.5439   -207.84581   -55261.438   -60264.259   -55298.304 
  107165    1919.6128    354.57904   -55511.328    -60387.32   -55448.687 
Loop time of 66.2957 on 1 procs for 495 steps with 19652 atoms

Performance: 0.645 ns/day, 37.203 hours/ns, 7.467 timesteps/s
99.6% CPU use with 1 MPI tasks x no OpenMP threads

MPI task timing breakdown:
Section |  min time  |  avg time  |  max time  |%varavg| %total
---------------------------------------------------------------
Pair    | 35.812     | 35.812     | 35.812     |   0.0 | 54.02
Neigh   | 29.262     | 29.262     | 29.262     |   0.0 | 44.14
Comm    | 0.39937    | 0.39937    | 0.39937    |   0.0 |  0.60
Output  | 0.18364    | 0.18364    | 0.18364    |   0.0 |  0.28
Modify  | 0.50131    | 0.50131    | 0.50131    |   0.0 |  0.76
Other   |            | 0.1382     |            |       |  0.21

Nlocal:    19652 ave 19652 max 19652 min
Histogram: 1 0 0 0 0 0 0 0 0 0
Nghost:    19571 ave 19571 max 19571 min
Histogram: 1 0 0 0 0 0 0 0 0 0
Neighs:    1.73885e+06 ave 1.73885e+06 max 1.73885e+06 min
Histogram: 1 0 0 0 0 0 0 0 0 0

Total # of neighbors = 1738846
Ave neighs/atom = 88.4819
Neighbor list builds = 495
Dangerous builds not checked
Setting up Verlet run ...
  Unit style    : metal
  Current step  : 107165
  Time step     : 0.001
Per MPI rank memory allocation (min/avg/max) = 19.34 | 19.34 | 19.34 Mbytes
Step Temp Press TotEng PotEng Enthalpy 
  107165    1919.6128    354.57904   -55511.328    -60387.32   -55448.687 
  113337    1898.4985   -1099.9041   -55620.809   -60443.169   -55815.003 
Loop time of 883.722 on 1 procs for 6172 steps with 19652 atoms

Performance: 0.603 ns/day, 39.773 hours/ns, 6.984 timesteps/s
100.0% CPU use with 1 MPI tasks x no OpenMP threads

MPI task timing breakdown:
Section |  min time  |  avg time  |  max time  |%varavg| %total
---------------------------------------------------------------
Pair    | 481.41     | 481.41     | 481.41     |   0.0 | 54.47
Neigh   | 388.67     | 388.67     | 388.67     |   0.0 | 43.98
Comm    | 5.3434     | 5.3434     | 5.3434     |   0.0 |  0.60
Output  | 0.00022912 | 0.00022912 | 0.00022912 |   0.0 |  0.00
Modify  | 6.5266     | 6.5266     | 6.5266     |   0.0 |  0.74
Other   |            | 1.773      |            |       |  0.20

Nlocal:    19652 ave 19652 max 19652 min
Histogram: 1 0 0 0 0 0 0 0 0 0
Nghost:    19580 ave 19580 max 19580 min
Histogram: 1 0 0 0 0 0 0 0 0 0
Neighs:    1.73967e+06 ave 1.73967e+06 max 1.73967e+06 min
Histogram: 1 0 0 0 0 0 0 0 0 0

Total # of neighbors = 1739671
Ave neighs/atom = 88.5239
Neighbor list builds = 6172
Dangerous builds not checked
Setting up Verlet run ...
  Unit style    : metal
  Current step  : 113337
  Time step     : 0.001
Per MPI rank memory allocation (min/avg/max) = 19.34 | 19.34 | 19.34 Mbytes
Step Temp Press TotEng PotEng Enthalpy 
  113337    1898.4985   -1099.9041   -55620.809   -60443.169   -55815.003 
  113339    1898.9199   -1117.9247   -55620.808   -60444.238   -55818.183 
  113832    1866.2662    706.11846   -55845.315   -60585.802    -55721.36 
Loop time of 67.1869 on 1 procs for 495 steps with 19652 atoms

Performance: 0.637 ns/day, 37.703 hours/ns, 7.368 timesteps/s
99.8% CPU use with 1 MPI tasks x no OpenMP threads

MPI task timing breakdown:
Section |  min time  |  avg time  |  max time  |%varavg| %total
---------------------------------------------------------------
Pair    | 36.577     | 36.577     | 36.577     |   0.0 | 54.44
Neigh   | 29.527     | 29.527     | 29.527     |   0.0 | 43.95
Comm    | 0.40448    | 0.40448    | 0.40448    |   0.0 |  0.60
Output  | 0.043875   | 0.043875   | 0.043875   |   0.0 |  0.07
Modify  | 0.4971     | 0.4971     | 0.4971     |   0.0 |  0.74
Other   |            | 0.1372     |            |       |  0.20

Nlocal:    19652 ave 19652 max 19652 min
Histogram: 1 0 0 0 0 0 0 0 0 0
Nghost:    19611 ave 19611 max 19611 min
Histogram: 1 0 0 0 0 0 0 0 0 0
Neighs:    1.74872e+06 ave 1.74872e+06 max 1.74872e+06 min
Histogram: 1 0 0 0 0 0 0 0 0 0

Total # of neighbors = 1748721
Ave neighs/atom = 88.9844
Neighbor list builds = 495
Dangerous builds not checked
Setting up Verlet run ...
  Unit style    : metal
  Current step  : 113832
  Time step     : 0.001
Per MPI rank memory allocation (min/avg/max) = 19.34 | 19.34 | 19.34 Mbytes
Step Temp Press TotEng PotEng Enthalpy 
  113832    1866.2662    706.11846   -55845.315   -60585.802    -55721.36 
  120004    1854.6524   -524.32039   -55918.558   -60629.543   -56010.573 
Loop time of 903.164 on 1 procs for 6172 steps with 19652 atoms

Performance: 0.590 ns/day, 40.648 hours/ns, 6.834 timesteps/s
99.8% CPU use with 1 MPI tasks x no OpenMP threads

MPI task timing breakdown:
Section |  min time  |  avg time  |  max time  |%varavg| %total
---------------------------------------------------------------
Pair    | 493.5      | 493.5      | 493.5      |   0.0 | 54.64
Neigh   | 395.78     | 395.78     | 395.78     |   0.0 | 43.82
Comm    | 5.4442     | 5.4442     | 5.4442     |   0.0 |  0.60
Output  | 0.00022793 | 0.00022793 | 0.00022793 |   0.0 |  0.00
Modify  | 6.6236     | 6.6236     | 6.6236     |   0.0 |  0.73
Other   |            | 1.815      |            |       |  0.20

Nlocal:    19652 ave 19652 max 19652 min
Histogram: 1 0 0 0 0 0 0 0 0 0
Nghost:    19541 ave 19541 max 19541 min
Histogram: 1 0 0 0 0 0 0 0 0 0
Neighs:    1.74962e+06 ave 1.74962e+06 max 1.74962e+06 min
Histogram: 1 0 0 0 0 0 0 0 0 0

Total # of neighbors = 1749616
Ave neighs/atom = 89.0299
Neighbor list builds = 6172
Dangerous builds not checked
Setting up Verlet run ...
  Unit style    : metal
  Current step  : 120004
  Time step     : 0.001
Per MPI rank memory allocation (min/avg/max) = 19.34 | 19.34 | 19.34 Mbytes
Step Temp Press TotEng PotEng Enthalpy 
  120004    1854.6524   -524.32039   -55918.558   -60629.543   -56010.573 
  120006    1852.4678   -447.65113   -55918.555   -60623.992   -55997.116 
  120499    1822.7516    1299.1944   -56151.727   -60781.682   -55925.048 
Loop time of 70.422 on 1 procs for 495 steps with 19652 atoms

Performance: 0.607 ns/day, 39.519 hours/ns, 7.029 timesteps/s
100.0% CPU use with 1 MPI tasks x no OpenMP threads

MPI task timing breakdown:
Section |  min time  |  avg time  |  max time  |%varavg| %total
---------------------------------------------------------------
Pair    | 38.352     | 38.352     | 38.352     |   0.0 | 54.46
Neigh   | 30.899     | 30.899     | 30.899     |   0.0 | 43.88
Comm    | 0.42793    | 0.42793    | 0.42793    |   0.0 |  0.61
Output  | 0.067227   | 0.067227   | 0.067227   |   0.0 |  0.10
Modify  | 0.5329     | 0.5329     | 0.5329     |   0.0 |  0.76
Other   |            | 0.1436     |            |       |  0.20

Nlocal:    19652 ave 19652 max 19652 min
Histogram: 1 0 0 0 0 0 0 0 0 0
Nghost:    19674 ave 19674 max 19674 min
Histogram: 1 0 0 0 0 0 0 0 0 0
Neighs:    1.75963e+06 ave 1.75963e+06 max 1.75963e+06 min
Histogram: 1 0 0 0 0 0 0 0 0 0

Total # of neighbors = 1759630
Ave neighs/atom = 89.5395
Neighbor list builds = 495
Dangerous builds not checked
Setting up Verlet run ...
  Unit style    : metal
  Current step  : 120499
  Time step     : 0.001
Per MPI rank memory allocation (min/avg/max) = 19.34 | 19.34 | 19.34 Mbytes
Step Temp Press TotEng PotEng Enthalpy 
  120499    1822.7516    1299.1944   -56151.727   -60781.682   -55925.048 
  126671      1781.91   -91.302092   -56271.375   -60797.588    -56287.31 
Loop time of 900.119 on 1 procs for 6172 steps with 19652 atoms

Performance: 0.592 ns/day, 40.511 hours/ns, 6.857 timesteps/s
99.8% CPU use with 1 MPI tasks x no OpenMP threads

MPI task timing breakdown:
Section |  min time  |  avg time  |  max time  |%varavg| %total
---------------------------------------------------------------
Pair    | 492.36     | 492.36     | 492.36     |   0.0 | 54.70
Neigh   | 393.9      | 393.9      | 393.9      |   0.0 | 43.76
Comm    | 5.421      | 5.421      | 5.421      |   0.0 |  0.60
Output  | 0.00015998 | 0.00015998 | 0.00015998 |   0.0 |  0.00
Modify  | 6.6239     | 6.6239     | 6.6239     |   0.0 |  0.74
Other   |            | 1.811      |            |       |  0.20

Nlocal:    19652 ave 19652 max 19652 min
Histogram: 1 0 0 0 0 0 0 0 0 0
Nghost:    19712 ave 19712 max 19712 min
Histogram: 1 0 0 0 0 0 0 0 0 0
Neighs:    1.75929e+06 ave 1.75929e+06 max 1.75929e+06 min
Histogram: 1 0 0 0 0 0 0 0 0 0

Total # of neighbors = 1759291
Ave neighs/atom = 89.5222
Neighbor list builds = 6172
Dangerous builds not checked
Setting up Verlet run ...
  Unit style    : metal
  Current step  : 126671
  Time step     : 0.001
Per MPI rank memory allocation (min/avg/max) = 19.34 | 19.34 | 19.34 Mbytes
Step Temp Press TotEng PotEng Enthalpy 
  126671      1781.91   -91.302092   -56271.375   -60797.588    -56287.31 
  126673    1781.9405   -67.767226   -56271.358   -60797.649   -56283.186 
  127166    1758.6157    13.544233   -56405.113   -60872.157   -56402.754 
Loop time of 74.2293 on 1 procs for 495 steps with 19652 atoms

Performance: 0.576 ns/day, 41.655 hours/ns, 6.669 timesteps/s
99.5% CPU use with 1 MPI tasks x no OpenMP threads

MPI task timing breakdown:
Section |  min time  |  avg time  |  max time  |%varavg| %total
---------------------------------------------------------------
Pair    | 40.686     | 40.686     | 40.686     |   0.0 | 54.81
Neigh   | 32.021     | 32.021     | 32.021     |   0.0 | 43.14
Comm    | 0.44482    | 0.44482    | 0.44482    |   0.0 |  0.60
Output  | 0.36205    | 0.36205    | 0.36205    |   0.0 |  0.49
Modify  | 0.56253    | 0.56253    | 0.56253    |   0.0 |  0.76
Other   |            | 0.1528     |            |       |  0.21

Nlocal:    19652 ave 19652 max 19652 min
Histogram: 1 0 0 0 0 0 0 0 0 0
Nghost:    19712 ave 19712 max 19712 min
Histogram: 1 0 0 0 0 0 0 0 0 0
Neighs:    1.76262e+06 ave 1.76262e+06 max 1.76262e+06 min
Histogram: 1 0 0 0 0 0 0 0 0 0

Total # of neighbors = 1762621
Ave neighs/atom = 89.6917
Neighbor list builds = 495
Dangerous builds not checked
Setting up Verlet run ...
  Unit style    : metal
  Current step  : 127166
  Time step     : 0.001
Per MPI rank memory allocation (min/avg/max) = 19.34 | 19.34 | 19.34 Mbytes
Step Temp Press TotEng PotEng Enthalpy 
  127166    1758.6157    13.544233   -56405.113   -60872.157   -56402.754 
  133338    1746.1382    663.59885   -56533.876   -60969.226   -56418.674 
Loop time of 907.798 on 1 procs for 6172 steps with 19652 atoms

Performance: 0.587 ns/day, 40.856 hours/ns, 6.799 timesteps/s
99.9% CPU use with 1 MPI tasks x no OpenMP threads

MPI task timing breakdown:
Section |  min time  |  avg time  |  max time  |%varavg| %total
---------------------------------------------------------------
Pair    | 497.75     | 497.75     | 497.75     |   0.0 | 54.83
Neigh   | 396.08     | 396.08     | 396.08     |   0.0 | 43.63
Comm    | 5.4753     | 5.4753     | 5.4753     |   0.0 |  0.60
Output  | 0.00014496 | 0.00014496 | 0.00014496 |   0.0 |  0.00
Modify  | 6.6672     | 6.6672     | 6.6672     |   0.0 |  0.73
Other   |            | 1.826      |            |       |  0.20

Nlocal:    19652 ave 19652 max 19652 min
Histogram: 1 0 0 0 0 0 0 0 0 0
Nghost:    19642 ave 19642 max 19642 min
Histogram: 1 0 0 0 0 0 0 0 0 0
Neighs:    1.76922e+06 ave 1.76922e+06 max 1.76922e+06 min
Histogram: 1 0 0 0 0 0 0 0 0 0

Total # of neighbors = 1769221
Ave neighs/atom = 90.0275
Neighbor list builds = 6172
Dangerous builds not checked
Setting up Verlet run ...
  Unit style    : metal
  Current step  : 133338
  Time step     : 0.001
Per MPI rank memory allocation (min/avg/max) = 19.34 | 19.34 | 19.34 Mbytes
Step Temp Press TotEng PotEng Enthalpy 
  133338    1746.1382    663.59885   -56533.876   -60969.226   -56418.674 
  133340    1747.0048    624.60023   -56533.875   -60971.426   -56425.443 
  133833    1707.9215    98.668314   -56698.292   -61036.568    -56681.19 
Loop time of 71.6386 on 1 procs for 495 steps with 19652 atoms

Performance: 0.597 ns/day, 40.201 hours/ns, 6.910 timesteps/s
100.0% CPU use with 1 MPI tasks x no OpenMP threads

MPI task timing breakdown:
Section |  min time  |  avg time  |  max time  |%varavg| %total
---------------------------------------------------------------
Pair    | 39.204     | 39.204     | 39.204     |   0.0 | 54.72
Neigh   | 31.279     | 31.279     | 31.279     |   0.0 | 43.66
Comm    | 0.4294     | 0.4294     | 0.4294     |   0.0 |  0.60
Output  | 0.042284   | 0.042284   | 0.042284   |   0.0 |  0.06
Modify  | 0.53851    | 0.53851    | 0.53851    |   0.0 |  0.75
Other   |            | 0.1456     |            |       |  0.20

Nlocal:    19652 ave 19652 max 19652 min
Histogram: 1 0 0 0 0 0 0 0 0 0
Nghost:    19706 ave 19706 max 19706 min
Histogram: 1 0 0 0 0 0 0 0 0 0
Neighs:    1.77119e+06 ave 1.77119e+06 max 1.77119e+06 min
Histogram: 1 0 0 0 0 0 0 0 0 0

Total # of neighbors = 1771190
Ave neighs/atom = 90.1277
Neighbor list builds = 495
Dangerous builds not checked
Setting up Verlet run ...
  Unit style    : metal
  Current step  : 133833
  Time step     : 0.001
Per MPI rank memory allocation (min/avg/max) = 19.34 | 19.34 | 19.34 Mbytes
Step Temp Press TotEng PotEng Enthalpy 
  133833    1707.9215    98.668314   -56698.292   -61036.568    -56681.19 
  140005    1706.1618     1391.288   -56773.238   -61107.045   -56532.775 
Loop time of 904.002 on 1 procs for 6172 steps with 19652 atoms

Performance: 0.590 ns/day, 40.686 hours/ns, 6.827 timesteps/s
99.9% CPU use with 1 MPI tasks x no OpenMP threads

MPI task timing breakdown:
Section |  min time  |  avg time  |  max time  |%varavg| %total
---------------------------------------------------------------
Pair    | 495.84     | 495.84     | 495.84     |   0.0 | 54.85
Neigh   | 394.31     | 394.31     | 394.31     |   0.0 | 43.62
Comm    | 5.4132     | 5.4132     | 5.4132     |   0.0 |  0.60
Output  | 0.00014901 | 0.00014901 | 0.00014901 |   0.0 |  0.00
Modify  | 6.6235     | 6.6235     | 6.6235     |   0.0 |  0.73
Other   |            | 1.812      |            |       |  0.20

Nlocal:    19652 ave 19652 max 19652 min
Histogram: 1 0 0 0 0 0 0 0 0 0
Nghost:    19693 ave 19693 max 19693 min
Histogram: 1 0 0 0 0 0 0 0 0 0
Neighs:    1.77561e+06 ave 1.77561e+06 max 1.77561e+06 min
Histogram: 1 0 0 0 0 0 0 0 0 0

Total # of neighbors = 1775608
Ave neighs/atom = 90.3525
Neighbor list builds = 6172
Dangerous builds not checked
Setting up Verlet run ...
  Unit style    : metal
  Current step  : 140005
  Time step     : 0.001
Per MPI rank memory allocation (min/avg/max) = 19.34 | 19.34 | 19.34 Mbytes
Step Temp Press TotEng PotEng Enthalpy 
  140005    1706.1618     1391.288   -56773.238   -61107.045   -56532.775 
  140007    1705.7072    1431.1105   -56773.244   -61105.896   -56525.898 
  140500    1671.2077    1477.3077   -57002.873   -61247.893   -56748.592 
Loop time of 65.9487 on 1 procs for 495 steps with 19652 atoms

Performance: 0.649 ns/day, 37.008 hours/ns, 7.506 timesteps/s
100.0% CPU use with 1 MPI tasks x no OpenMP threads

MPI task timing breakdown:
Section |  min time  |  avg time  |  max time  |%varavg| %total
---------------------------------------------------------------
Pair    | 35.748     | 35.748     | 35.748     |   0.0 | 54.21
Neigh   | 29.147     | 29.147     | 29.147     |   0.0 | 44.20
Comm    | 0.3899     | 0.3899     | 0.3899     |   0.0 |  0.59
Output  | 0.040119   | 0.040119   | 0.040119   |   0.0 |  0.06
Modify  | 0.48938    | 0.48938    | 0.48938    |   0.0 |  0.74
Other   |            | 0.1336     |            |       |  0.20

Nlocal:    19652 ave 19652 max 19652 min
Histogram: 1 0 0 0 0 0 0 0 0 0
Nghost:    19714 ave 19714 max 19714 min
Histogram: 1 0 0 0 0 0 0 0 0 0
Neighs:    1.78321e+06 ave 1.78321e+06 max 1.78321e+06 min
Histogram: 1 0 0 0 0 0 0 0 0 0

Total # of neighbors = 1783211
Ave neighs/atom = 90.7394
Neighbor list builds = 495
Dangerous builds not checked
Setting up Verlet run ...
  Unit style    : metal
  Current step  : 140500
  Time step     : 0.001
Per MPI rank memory allocation (min/avg/max) = 19.34 | 19.34 | 19.34 Mbytes
Step Temp Press TotEng PotEng Enthalpy 
  140500    1671.2077    1477.3077   -57002.873   -61247.893   -56748.592 
  146672    1663.1334    368.45966   -57046.464   -61270.974   -56983.023 
Loop time of 856.957 on 1 procs for 6172 steps with 19652 atoms

Performance: 0.622 ns/day, 38.568 hours/ns, 7.202 timesteps/s
99.9% CPU use with 1 MPI tasks x no OpenMP threads

MPI task timing breakdown:
Section |  min time  |  avg time  |  max time  |%varavg| %total
---------------------------------------------------------------
Pair    | 469.4      | 469.4      | 469.4      |   0.0 | 54.78
Neigh   | 374.43     | 374.43     | 374.43     |   0.0 | 43.69
Comm    | 5.1317     | 5.1317     | 5.1317     |   0.0 |  0.60
Output  | 0.00016093 | 0.00016093 | 0.00016093 |   0.0 |  0.00
Modify  | 6.2755     | 6.2755     | 6.2755     |   0.0 |  0.73
Other   |            | 1.717      |            |       |  0.20

Nlocal:    19652 ave 19652 max 19652 min
Histogram: 1 0 0 0 0 0 0 0 0 0
Nghost:    19677 ave 19677 max 19677 min
Histogram: 1 0 0 0 0 0 0 0 0 0
Neighs:    1.78226e+06 ave 1.78226e+06 max 1.78226e+06 min
Histogram: 1 0 0 0 0 0 0 0 0 0

Total # of neighbors = 1782264
Ave neighs/atom = 90.6912
Neighbor list builds = 6172
Dangerous builds not checked
Setting up Verlet run ...
  Unit style    : metal
  Current step  : 146672
  Time step     : 0.001
Per MPI rank memory allocation (min/avg/max) = 19.34 | 19.34 | 19.34 Mbytes
Step Temp Press TotEng PotEng Enthalpy 
  146672    1663.1334    368.45966   -57046.464   -61270.974   -56983.023 
  146674    1662.1477    414.62132   -57046.476   -61268.483   -56975.087 
  147167    1612.8188    1488.6828    -57308.06   -61404.766   -57052.973 
Loop time of 65.2486 on 1 procs for 495 steps with 19652 atoms

Performance: 0.655 ns/day, 36.615 hours/ns, 7.586 timesteps/s
100.0% CPU use with 1 MPI tasks x no OpenMP threads

MPI task timing breakdown:
Section |  min time  |  avg time  |  max time  |%varavg| %total
---------------------------------------------------------------
Pair    | 35.566     | 35.566     | 35.566     |   0.0 | 54.51
Neigh   | 28.633     | 28.633     | 28.633     |   0.0 | 43.88
Comm    | 0.39012    | 0.39012    | 0.39012    |   0.0 |  0.60
Output  | 0.040605   | 0.040605   | 0.040605   |   0.0 |  0.06
Modify  | 0.48467    | 0.48467    | 0.48467    |   0.0 |  0.74
Other   |            | 0.1335     |            |       |  0.20

Nlocal:    19652 ave 19652 max 19652 min
Histogram: 1 0 0 0 0 0 0 0 0 0
Nghost:    19864 ave 19864 max 19864 min
Histogram: 1 0 0 0 0 0 0 0 0 0
Neighs:    1.79035e+06 ave 1.79035e+06 max 1.79035e+06 min
Histogram: 1 0 0 0 0 0 0 0 0 0

Total # of neighbors = 1790346
Ave neighs/atom = 91.1025
Neighbor list builds = 495
Dangerous builds not checked
Setting up Verlet run ...
  Unit style    : metal
  Current step  : 147167
  Time step     : 0.001
Per MPI rank memory allocation (min/avg/max) = 19.34 | 19.34 | 19.34 Mbytes
Step Temp Press TotEng PotEng Enthalpy 
  147167    1612.8188    1488.6828    -57308.06   -61404.766   -57052.973 
  153339    1595.6117    -2527.058   -57445.598   -61498.597   -57879.194 
Loop time of 865.242 on 1 procs for 6172 steps with 19652 atoms

Performance: 0.616 ns/day, 38.941 hours/ns, 7.133 timesteps/s
99.9% CPU use with 1 MPI tasks x no OpenMP threads

MPI task timing breakdown:
Section |  min time  |  avg time  |  max time  |%varavg| %total
---------------------------------------------------------------
Pair    | 474.6      | 474.6      | 474.6      |   0.0 | 54.85
Neigh   | 377.43     | 377.43     | 377.43     |   0.0 | 43.62
Comm    | 5.1735     | 5.1735     | 5.1735     |   0.0 |  0.60
Output  | 0.00016212 | 0.00016212 | 0.00016212 |   0.0 |  0.00
Modify  | 6.3124     | 6.3124     | 6.3124     |   0.0 |  0.73
Other   |            | 1.728      |            |       |  0.20

Nlocal:    19652 ave 19652 max 19652 min
Histogram: 1 0 0 0 0 0 0 0 0 0
Nghost:    19785 ave 19785 max 19785 min
Histogram: 1 0 0 0 0 0 0 0 0 0
Neighs:    1.78772e+06 ave 1.78772e+06 max 1.78772e+06 min
Histogram: 1 0 0 0 0 0 0 0 0 0

Total # of neighbors = 1787724
Ave neighs/atom = 90.9691
Neighbor list builds = 6172
Dangerous builds not checked
Setting up Verlet run ...
  Unit style    : metal
  Current step  : 153339
  Time step     : 0.001
Per MPI rank memory allocation (min/avg/max) = 19.34 | 19.34 | 19.34 Mbytes
Step Temp Press TotEng PotEng Enthalpy 
  153339    1595.6117    -2527.058   -57445.598   -61498.597   -57879.194 
  153341    1594.5149   -2448.5981   -57445.591   -61495.804   -57865.725 
  153834    1565.7422   -1097.4442   -57619.247   -61596.375     -57806.7 
Loop time of 68.292 on 1 procs for 495 steps with 19652 atoms

Performance: 0.626 ns/day, 38.323 hours/ns, 7.248 timesteps/s
100.0% CPU use with 1 MPI tasks x no OpenMP threads

MPI task timing breakdown:
Section |  min time  |  avg time  |  max time  |%varavg| %total
---------------------------------------------------------------
Pair    | 37.501     | 37.501     | 37.501     |   0.0 | 54.91
Neigh   | 29.691     | 29.691     | 29.691     |   0.0 | 43.48
Comm    | 0.40754    | 0.40754    | 0.40754    |   0.0 |  0.60
Output  | 0.048024   | 0.048024   | 0.048024   |   0.0 |  0.07
Modify  | 0.50611    | 0.50611    | 0.50611    |   0.0 |  0.74
Other   |            | 0.1384     |            |       |  0.20

Nlocal:    19652 ave 19652 max 19652 min
Histogram: 1 0 0 0 0 0 0 0 0 0
Nghost:    19732 ave 19732 max 19732 min
Histogram: 1 0 0 0 0 0 0 0 0 0
Neighs:    1.79573e+06 ave 1.79573e+06 max 1.79573e+06 min
Histogram: 1 0 0 0 0 0 0 0 0 0

Total # of neighbors = 1795731
Ave neighs/atom = 91.3765
Neighbor list builds = 495
Dangerous builds not checked
Setting up Verlet run ...
  Unit style    : metal
  Current step  : 153834
  Time step     : 0.001
Per MPI rank memory allocation (min/avg/max) = 19.34 | 19.34 | 19.34 Mbytes
Step Temp Press TotEng PotEng Enthalpy 
  153834    1565.7422   -1097.4442   -57619.247   -61596.375     -57806.7 
  160006    1566.6297   -331.26156   -57675.884   -61655.266   -57732.368 
Loop time of 902.52 on 1 procs for 6172 steps with 19652 atoms

Performance: 0.591 ns/day, 40.619 hours/ns, 6.839 timesteps/s
99.9% CPU use with 1 MPI tasks x no OpenMP threads

MPI task timing breakdown:
Section |  min time  |  avg time  |  max time  |%varavg| %total
---------------------------------------------------------------
Pair    | 497.98     | 497.98     | 497.98     |   0.0 | 55.18
Neigh   | 390.78     | 390.78     | 390.78     |   0.0 | 43.30
Comm    | 5.3908     | 5.3908     | 5.3908     |   0.0 |  0.60
Output  | 0.00016212 | 0.00016212 | 0.00016212 |   0.0 |  0.00
Modify  | 6.5566     | 6.5566     | 6.5566     |   0.0 |  0.73
Other   |            | 1.808      |            |       |  0.20

Nlocal:    19652 ave 19652 max 19652 min
Histogram: 1 0 0 0 0 0 0 0 0 0
Nghost:    19819 ave 19819 max 19819 min
Histogram: 1 0 0 0 0 0 0 0 0 0
Neighs:    1.79828e+06 ave 1.79828e+06 max 1.79828e+06 min
Histogram: 1 0 0 0 0 0 0 0 0 0

Total # of neighbors = 1798284
Ave neighs/atom = 91.5064
Neighbor list builds = 6172
Dangerous builds not checked
Setting up Verlet run ...
  Unit style    : metal
  Current step  : 160006
  Time step     : 0.001
Per MPI rank memory allocation (min/avg/max) = 19.34 | 19.34 | 19.34 Mbytes
Step Temp Press TotEng PotEng Enthalpy 
  160006    1566.6297   -331.26156   -57675.884   -61655.266   -57732.368 
  160008    1566.3848   -336.80093     -57675.9    -61654.66   -57733.328 
  160501     1506.741   -515.30994   -57929.016   -61756.275    -58016.62 
Loop time of 70.3522 on 1 procs for 495 steps with 19652 atoms

Performance: 0.608 ns/day, 39.479 hours/ns, 7.036 timesteps/s
100.0% CPU use with 1 MPI tasks x no OpenMP threads

MPI task timing breakdown:
Section |  min time  |  avg time  |  max time  |%varavg| %total
---------------------------------------------------------------
Pair    | 38.701     | 38.701     | 38.701     |   0.0 | 55.01
Neigh   | 30.523     | 30.523     | 30.523     |   0.0 | 43.39
Comm    | 0.41752    | 0.41752    | 0.41752    |   0.0 |  0.59
Output  | 0.051467   | 0.051467   | 0.051467   |   0.0 |  0.07
Modify  | 0.51663    | 0.51663    | 0.51663    |   0.0 |  0.73
Other   |            | 0.1424     |            |       |  0.20

Nlocal:    19652 ave 19652 max 19652 min
Histogram: 1 0 0 0 0 0 0 0 0 0
Nghost:    19861 ave 19861 max 19861 min
Histogram: 1 0 0 0 0 0 0 0 0 0
Neighs:    1.80397e+06 ave 1.80397e+06 max 1.80397e+06 min
Histogram: 1 0 0 0 0 0 0 0 0 0

Total # of neighbors = 1803972
Ave neighs/atom = 91.7958
Neighbor list builds = 495
Dangerous builds not checked
Setting up Verlet run ...
  Unit style    : metal
  Current step  : 160501
  Time step     : 0.001
Per MPI rank memory allocation (min/avg/max) = 19.34 | 19.34 | 19.34 Mbytes
Step Temp Press TotEng PotEng Enthalpy 
  160501     1506.741   -515.30994   -57929.016   -61756.275    -58016.62 
  166673    1502.9032    1227.7223   -58023.881   -61841.392   -57816.072 
Loop time of 912.797 on 1 procs for 6172 steps with 19652 atoms

Performance: 0.584 ns/day, 41.081 hours/ns, 6.762 timesteps/s
99.8% CPU use with 1 MPI tasks x no OpenMP threads

MPI task timing breakdown:
Section |  min time  |  avg time  |  max time  |%varavg| %total
---------------------------------------------------------------
Pair    | 505.42     | 505.42     | 505.42     |   0.0 | 55.37
Neigh   | 393.39     | 393.39     | 393.39     |   0.0 | 43.10
Comm    | 5.4926     | 5.4926     | 5.4926     |   0.0 |  0.60
Output  | 0.00017095 | 0.00017095 | 0.00017095 |   0.0 |  0.00
Modify  | 6.6523     | 6.6523     | 6.6523     |   0.0 |  0.73
Other   |            | 1.843      |            |       |  0.20

Nlocal:    19652 ave 19652 max 19652 min
Histogram: 1 0 0 0 0 0 0 0 0 0
Nghost:    19835 ave 19835 max 19835 min
Histogram: 1 0 0 0 0 0 0 0 0 0
Neighs:    1.81147e+06 ave 1.81147e+06 max 1.81147e+06 min
Histogram: 1 0 0 0 0 0 0 0 0 0

Total # of neighbors = 1811466
Ave neighs/atom = 92.1772
Neighbor list builds = 6172
Dangerous builds not checked
Setting up Verlet run ...
  Unit style    : metal
  Current step  : 166673
  Time step     : 0.001
Per MPI rank memory allocation (min/avg/max) = 19.34 | 19.34 | 19.34 Mbytes
Step Temp Press TotEng PotEng Enthalpy 
  166673    1502.9032    1227.7223   -58023.881   -61841.392   -57816.072 
  166675    1504.2831    1179.6616   -58023.887   -61844.903   -57824.213 
  167168    1459.5865   -476.39139   -58238.823   -61946.305   -58319.368 
Loop time of 71.1891 on 1 procs for 495 steps with 19652 atoms

Performance: 0.601 ns/day, 39.949 hours/ns, 6.953 timesteps/s
100.0% CPU use with 1 MPI tasks x no OpenMP threads

MPI task timing breakdown:
Section |  min time  |  avg time  |  max time  |%varavg| %total
---------------------------------------------------------------
Pair    | 39.375     | 39.375     | 39.375     |   0.0 | 55.31
Neigh   | 30.666     | 30.666     | 30.666     |   0.0 | 43.08
Comm    | 0.42505    | 0.42505    | 0.42505    |   0.0 |  0.60
Output  | 0.048638   | 0.048638   | 0.048638   |   0.0 |  0.07
Modify  | 0.52903    | 0.52903    | 0.52903    |   0.0 |  0.74
Other   |            | 0.1454     |            |       |  0.20

Nlocal:    19652 ave 19652 max 19652 min
Histogram: 1 0 0 0 0 0 0 0 0 0
Nghost:    19910 ave 19910 max 19910 min
Histogram: 1 0 0 0 0 0 0 0 0 0
Neighs:    1.81295e+06 ave 1.81295e+06 max 1.81295e+06 min
Histogram: 1 0 0 0 0 0 0 0 0 0

Total # of neighbors = 1812951
Ave neighs/atom = 92.2527
Neighbor list builds = 495
Dangerous builds not checked
Setting up Verlet run ...
  Unit style    : metal
  Current step  : 167168
  Time step     : 0.001
Per MPI rank memory allocation (min/avg/max) = 19.34 | 19.34 | 19.34 Mbytes
Step Temp Press TotEng PotEng Enthalpy 
  167168    1459.5865   -476.39139   -58238.823   -61946.305   -58319.368 
  173340    1459.9383    66.479157   -58333.761   -62042.138   -58322.552 
Loop time of 943.066 on 1 procs for 6172 steps with 19652 atoms

Performance: 0.565 ns/day, 42.444 hours/ns, 6.545 timesteps/s
99.8% CPU use with 1 MPI tasks x no OpenMP threads

MPI task timing breakdown:
Section |  min time  |  avg time  |  max time  |%varavg| %total
---------------------------------------------------------------
Pair    | 524.53     | 524.53     | 524.53     |   0.0 | 55.62
Neigh   | 404.02     | 404.02     | 404.02     |   0.0 | 42.84
Comm    | 5.6975     | 5.6975     | 5.6975     |   0.0 |  0.60
Output  | 0.00021601 | 0.00021601 | 0.00021601 |   0.0 |  0.00
Modify  | 6.9126     | 6.9126     | 6.9126     |   0.0 |  0.73
Other   |            | 1.906      |            |       |  0.20

Nlocal:    19652 ave 19652 max 19652 min
Histogram: 1 0 0 0 0 0 0 0 0 0
Nghost:    19943 ave 19943 max 19943 min
Histogram: 1 0 0 0 0 0 0 0 0 0
Neighs:    1.81744e+06 ave 1.81744e+06 max 1.81744e+06 min
Histogram: 1 0 0 0 0 0 0 0 0 0

Total # of neighbors = 1817437
Ave neighs/atom = 92.481
Neighbor list builds = 6172
Dangerous builds not checked
Setting up Verlet run ...
  Unit style    : metal
  Current step  : 173340
  Time step     : 0.001
Per MPI rank memory allocation (min/avg/max) = 19.34 | 19.34 | 19.34 Mbytes
Step Temp Press TotEng PotEng Enthalpy 
  173340    1459.9383    66.479157   -58333.761   -62042.138   -58322.552 
  173342    1459.0766    81.076937   -58333.771   -62039.959   -58320.101 
  173835    1404.9228   -134.56584   -58577.745   -62146.377   -58600.355 
Loop time of 69.5258 on 1 procs for 495 steps with 19652 atoms

Performance: 0.615 ns/day, 39.016 hours/ns, 7.120 timesteps/s
99.9% CPU use with 1 MPI tasks x no OpenMP threads

MPI task timing breakdown:
Section |  min time  |  avg time  |  max time  |%varavg| %total
---------------------------------------------------------------
Pair    | 38.311     | 38.311     | 38.311     |   0.0 | 55.10
Neigh   | 30.087     | 30.087     | 30.087     |   0.0 | 43.27
Comm    | 0.41152    | 0.41152    | 0.41152    |   0.0 |  0.59
Output  | 0.065307   | 0.065307   | 0.065307   |   0.0 |  0.09
Modify  | 0.51061    | 0.51061    | 0.51061    |   0.0 |  0.73
Other   |            | 0.1407     |            |       |  0.20

Nlocal:    19652 ave 19652 max 19652 min
Histogram: 1 0 0 0 0 0 0 0 0 0
Nghost:    19991 ave 19991 max 19991 min
Histogram: 1 0 0 0 0 0 0 0 0 0
Neighs:    1.82414e+06 ave 1.82414e+06 max 1.82414e+06 min
Histogram: 1 0 0 0 0 0 0 0 0 0

Total # of neighbors = 1824138
Ave neighs/atom = 92.822
Neighbor list builds = 495
Dangerous builds not checked
Setting up Verlet run ...
  Unit style    : metal
  Current step  : 173835
  Time step     : 0.001
Per MPI rank memory allocation (min/avg/max) = 19.34 | 19.34 | 19.34 Mbytes
Step Temp Press TotEng PotEng Enthalpy 
  173835    1404.9228   -134.56584   -58577.745   -62146.377   -58600.355 
  180007     1394.553    -1061.444   -58679.892   -62222.184   -58858.188 
Loop time of 894.568 on 1 procs for 6172 steps with 19652 atoms

Performance: 0.596 ns/day, 40.261 hours/ns, 6.899 timesteps/s
99.9% CPU use with 1 MPI tasks x no OpenMP threads

MPI task timing breakdown:
Section |  min time  |  avg time  |  max time  |%varavg| %total
---------------------------------------------------------------
Pair    | 495.07     | 495.07     | 495.07     |   0.0 | 55.34
Neigh   | 385.83     | 385.83     | 385.83     |   0.0 | 43.13
Comm    | 5.3762     | 5.3762     | 5.3762     |   0.0 |  0.60
Output  | 0.00013995 | 0.00013995 | 0.00013995 |   0.0 |  0.00
Modify  | 6.4988     | 6.4988     | 6.4988     |   0.0 |  0.73
Other   |            | 1.796      |            |       |  0.20

Nlocal:    19652 ave 19652 max 19652 min
Histogram: 1 0 0 0 0 0 0 0 0 0
Nghost:    19947 ave 19947 max 19947 min
Histogram: 1 0 0 0 0 0 0 0 0 0
Neighs:    1.82451e+06 ave 1.82451e+06 max 1.82451e+06 min
Histogram: 1 0 0 0 0 0 0 0 0 0

Total # of neighbors = 1824510
Ave neighs/atom = 92.8409
Neighbor list builds = 6172
Dangerous builds not checked
Setting up Verlet run ...
  Unit style    : metal
  Current step  : 180007
  Time step     : 0.001
Per MPI rank memory allocation (min/avg/max) = 19.34 | 19.34 | 19.34 Mbytes
Step Temp Press TotEng PotEng Enthalpy 
  180007     1394.553    -1061.444   -58679.892   -62222.184   -58858.188 
  180009    1393.7482   -1041.7743   -58679.884   -62220.132   -58854.876 
  180502    1363.3974   -286.51102    -58885.78   -62348.934   -58933.671 
Loop time of 69.8421 on 1 procs for 495 steps with 19652 atoms

Performance: 0.612 ns/day, 39.193 hours/ns, 7.087 timesteps/s
99.8% CPU use with 1 MPI tasks x no OpenMP threads

MPI task timing breakdown:
Section |  min time  |  avg time  |  max time  |%varavg| %total
---------------------------------------------------------------
Pair    | 38.521     | 38.521     | 38.521     |   0.0 | 55.15
Neigh   | 30.193     | 30.193     | 30.193     |   0.0 | 43.23
Comm    | 0.41145    | 0.41145    | 0.41145    |   0.0 |  0.59
Output  | 0.06403    | 0.06403    | 0.06403    |   0.0 |  0.09
Modify  | 0.5116     | 0.5116     | 0.5116     |   0.0 |  0.73
Other   |            | 0.1409     |            |       |  0.20

Nlocal:    19652 ave 19652 max 19652 min
Histogram: 1 0 0 0 0 0 0 0 0 0
Nghost:    20048 ave 20048 max 20048 min
Histogram: 1 0 0 0 0 0 0 0 0 0
Neighs:    1.83314e+06 ave 1.83314e+06 max 1.83314e+06 min
Histogram: 1 0 0 0 0 0 0 0 0 0

Total # of neighbors = 1833139
Ave neighs/atom = 93.28
Neighbor list builds = 495
Dangerous builds not checked
Setting up Verlet run ...
  Unit style    : metal
  Current step  : 180502
  Time step     : 0.001
Per MPI rank memory allocation (min/avg/max) = 19.34 | 19.34 | 19.34 Mbytes
Step Temp Press TotEng PotEng Enthalpy 
  180502    1363.3974   -286.51102    -58885.78   -62348.934   -58933.671 
  186674    1357.4984    1801.0108   -59026.994   -62475.163   -58727.275 
Loop time of 1138.1 on 1 procs for 6172 steps with 19652 atoms

Performance: 0.469 ns/day, 51.221 hours/ns, 5.423 timesteps/s
100.0% CPU use with 1 MPI tasks x no OpenMP threads

MPI task timing breakdown:
Section |  min time  |  avg time  |  max time  |%varavg| %total
---------------------------------------------------------------
Pair    | 648.76     | 648.76     | 648.76     |   0.0 | 57.00
Neigh   | 471.35     | 471.35     | 471.35     |   0.0 | 41.42
Comm    | 7.1711     | 7.1711     | 7.1711     |   0.0 |  0.63
Output  | 0.00024104 | 0.00024104 | 0.00024104 |   0.0 |  0.00
Modify  | 8.4765     | 8.4765     | 8.4765     |   0.0 |  0.74
Other   |            | 2.352      |            |       |  0.21

Nlocal:    19652 ave 19652 max 19652 min
Histogram: 1 0 0 0 0 0 0 0 0 0
Nghost:    20105 ave 20105 max 20105 min
Histogram: 1 0 0 0 0 0 0 0 0 0
Neighs:    1.84098e+06 ave 1.84098e+06 max 1.84098e+06 min
Histogram: 1 0 0 0 0 0 0 0 0 0

Total # of neighbors = 1840978
Ave neighs/atom = 93.6789
Neighbor list builds = 6172
Dangerous builds not checked
Setting up Verlet run ...
  Unit style    : metal
  Current step  : 186674
  Time step     : 0.001
Per MPI rank memory allocation (min/avg/max) = 19.34 | 19.34 | 19.34 Mbytes
Step Temp Press TotEng PotEng Enthalpy 
  186674    1357.4984    1801.0108   -59026.994   -62475.163   -58727.275 
  186676    1357.1872    1819.6427   -59027.001    -62474.38   -58724.182 
  187169    1317.4999    1308.2324   -59179.344   -62525.914   -58961.925 
Loop time of 109.131 on 1 procs for 495 steps with 19652 atoms

Performance: 0.392 ns/day, 61.241 hours/ns, 4.536 timesteps/s
99.7% CPU use with 1 MPI tasks x no OpenMP threads

MPI task timing breakdown:
Section |  min time  |  avg time  |  max time  |%varavg| %total
---------------------------------------------------------------
Pair    | 64.082     | 64.082     | 64.082     |   0.0 | 58.72
Neigh   | 42.775     | 42.775     | 42.775     |   0.0 | 39.20
Comm    | 0.77974    | 0.77974    | 0.77974    |   0.0 |  0.71
Output  | 0.35208    | 0.35208    | 0.35208    |   0.0 |  0.32
Modify  | 0.89822    | 0.89822    | 0.89822    |   0.0 |  0.82
Other   |            | 0.2439     |            |       |  0.22

Nlocal:    19652 ave 19652 max 19652 min
Histogram: 1 0 0 0 0 0 0 0 0 0
Nghost:    20128 ave 20128 max 20128 min
Histogram: 1 0 0 0 0 0 0 0 0 0
Neighs:    1.84347e+06 ave 1.84347e+06 max 1.84347e+06 min
Histogram: 1 0 0 0 0 0 0 0 0 0

Total # of neighbors = 1843473
Ave neighs/atom = 93.8059
Neighbor list builds = 495
Dangerous builds not checked
Setting up Verlet run ...
  Unit style    : metal
  Current step  : 187169
  Time step     : 0.001
Per MPI rank memory allocation (min/avg/max) = 19.34 | 19.34 | 19.34 Mbytes
Step Temp Press TotEng PotEng Enthalpy 
  187169    1317.4999    1308.2324   -59179.344   -62525.914   -58961.925 
  193341    1300.6054    556.27509    -59317.73   -62621.386   -59225.394 
Loop time of 1434.44 on 1 procs for 6172 steps with 19652 atoms

Performance: 0.372 ns/day, 64.559 hours/ns, 4.303 timesteps/s
99.9% CPU use with 1 MPI tasks x no OpenMP threads

MPI task timing breakdown:
Section |  min time  |  avg time  |  max time  |%varavg| %total
---------------------------------------------------------------
Pair    | 838.06     | 838.06     | 838.06     |   0.0 | 58.42
Neigh   | 572.74     | 572.74     | 572.74     |   0.0 | 39.93
Comm    | 9.5676     | 9.5676     | 9.5676     |   0.0 |  0.67
Output  | 0.00026488 | 0.00026488 | 0.00026488 |   0.0 |  0.00
Modify  | 11.025     | 11.025     | 11.025     |   0.0 |  0.77
Other   |            | 3.039      |            |       |  0.21

Nlocal:    19652 ave 19652 max 19652 min
Histogram: 1 0 0 0 0 0 0 0 0 0
Nghost:    20067 ave 20067 max 20067 min
Histogram: 1 0 0 0 0 0 0 0 0 0
Neighs:    1.84551e+06 ave 1.84551e+06 max 1.84551e+06 min
Histogram: 1 0 0 0 0 0 0 0 0 0

Total # of neighbors = 1845508
Ave neighs/atom = 93.9094
Neighbor list builds = 6172
Dangerous builds not checked
Setting up Verlet run ...
  Unit style    : metal
  Current step  : 193341
  Time step     : 0.001
Per MPI rank memory allocation (min/avg/max) = 19.34 | 19.34 | 19.34 Mbytes
Step Temp Press TotEng PotEng Enthalpy 
  193341    1300.6054    556.27509    -59317.73   -62621.386   -59225.394 
  193343      1300.23    604.70205    -59317.73   -62620.433   -59217.356 
  193836    1267.0962    707.58977   -59504.245   -62722.785   -59387.185 
Loop time of 116.591 on 1 procs for 495 steps with 19652 atoms

Performance: 0.367 ns/day, 65.427 hours/ns, 4.246 timesteps/s
99.9% CPU use with 1 MPI tasks x no OpenMP threads

MPI task timing breakdown:
Section |  min time  |  avg time  |  max time  |%varavg| %total
---------------------------------------------------------------
Pair    | 68.928     | 68.928     | 68.928     |   0.0 | 59.12
Neigh   | 45.65      | 45.65      | 45.65      |   0.0 | 39.15
Comm    | 0.79289    | 0.79289    | 0.79289    |   0.0 |  0.68
Output  | 0.069258   | 0.069258   | 0.069258   |   0.0 |  0.06
Modify  | 0.90587    | 0.90587    | 0.90587    |   0.0 |  0.78
Other   |            | 0.2448     |            |       |  0.21

Nlocal:    19652 ave 19652 max 19652 min
Histogram: 1 0 0 0 0 0 0 0 0 0
Nghost:    20121 ave 20121 max 20121 min
Histogram: 1 0 0 0 0 0 0 0 0 0
Neighs:    1.85112e+06 ave 1.85112e+06 max 1.85112e+06 min
Histogram: 1 0 0 0 0 0 0 0 0 0

Total # of neighbors = 1851117
Ave neighs/atom = 94.1948
Neighbor list builds = 495
Dangerous builds not checked
Setting up Verlet run ...
  Unit style    : metal
  Current step  : 193836
  Time step     : 0.001
Per MPI rank memory allocation (min/avg/max) = 19.34 | 19.34 | 19.34 Mbytes
Step Temp Press TotEng PotEng Enthalpy 
  193836    1267.0962    707.58977   -59504.245   -62722.785   -59387.185 
  200008    1233.6177    267.25759   -59692.596   -62826.098   -59648.497 
Loop time of 1105.81 on 1 procs for 6172 steps with 19652 atoms

Performance: 0.482 ns/day, 49.768 hours/ns, 5.581 timesteps/s
100.0% CPU use with 1 MPI tasks x no OpenMP threads

MPI task timing breakdown:
Section |  min time  |  avg time  |  max time  |%varavg| %total
---------------------------------------------------------------
Pair    | 632.93     | 632.93     | 632.93     |   0.0 | 57.24
Neigh   | 454.81     | 454.81     | 454.81     |   0.0 | 41.13
Comm    | 7.2136     | 7.2136     | 7.2136     |   0.0 |  0.65
Output  | 0.00020099 | 0.00020099 | 0.00020099 |   0.0 |  0.00
Modify  | 8.4307     | 8.4307     | 8.4307     |   0.0 |  0.76
Other   |            | 2.43       |            |       |  0.22

Nlocal:    19652 ave 19652 max 19652 min
Histogram: 1 0 0 0 0 0 0 0 0 0
Nghost:    20121 ave 20121 max 20121 min
Histogram: 1 0 0 0 0 0 0 0 0 0
Neighs:    1.85569e+06 ave 1.85569e+06 max 1.85569e+06 min
Histogram: 1 0 0 0 0 0 0 0 0 0

Total # of neighbors = 1855690
Ave neighs/atom = 94.4275
Neighbor list builds = 6172
Dangerous builds not checked
Setting up Verlet run ...
  Unit style    : metal
  Current step  : 200008
  Time step     : 0.001
Per MPI rank memory allocation (min/avg/max) = 19.34 | 19.34 | 19.34 Mbytes
Step Temp Press TotEng PotEng Enthalpy 
  200008    1233.6177    267.25759   -59692.596   -62826.098   -59648.497 
  200010    1233.1048    290.92056    -59692.58   -62824.779   -59644.576 
  200503    1225.1064    -767.0926   -59842.227   -62954.109   -59968.563 
Loop time of 79.8071 on 1 procs for 495 steps with 19652 atoms

Performance: 0.536 ns/day, 44.785 hours/ns, 6.202 timesteps/s
100.0% CPU use with 1 MPI tasks x no OpenMP threads

MPI task timing breakdown:
Section |  min time  |  avg time  |  max time  |%varavg| %total
---------------------------------------------------------------
Pair    | 45.162     | 45.162     | 45.162     |   0.0 | 56.59
Neigh   | 33.21      | 33.21      | 33.21      |   0.0 | 41.61
Comm    | 0.54754    | 0.54754    | 0.54754    |   0.0 |  0.69
Output  | 0.059386   | 0.059386   | 0.059386   |   0.0 |  0.07
Modify  | 0.63336    | 0.63336    | 0.63336    |   0.0 |  0.79
Other   |            | 0.1945     |            |       |  0.24

Nlocal:    19652 ave 19652 max 19652 min
Histogram: 1 0 0 0 0 0 0 0 0 0
Nghost:    20153 ave 20153 max 20153 min
Histogram: 1 0 0 0 0 0 0 0 0 0
Neighs:    1.85894e+06 ave 1.85894e+06 max 1.85894e+06 min
Histogram: 1 0 0 0 0 0 0 0 0 0

Total # of neighbors = 1858941
Ave neighs/atom = 94.593
Neighbor list builds = 495
Dangerous builds not checked
Setting up Verlet run ...
  Unit style    : metal
  Current step  : 200503
  Time step     : 0.001
Per MPI rank memory allocation (min/avg/max) = 19.34 | 19.34 | 19.34 Mbytes
Step Temp Press TotEng PotEng Enthalpy 
  200503    1225.1064    -767.0926   -59842.227   -62954.109   -59968.563 
  206675    1197.3648   -792.17409   -59934.088   -62975.504   -60064.534 
Loop time of 1239.24 on 1 procs for 6172 steps with 19652 atoms

Performance: 0.430 ns/day, 55.773 hours/ns, 4.980 timesteps/s
100.0% CPU use with 1 MPI tasks x no OpenMP threads

MPI task timing breakdown:
Section |  min time  |  avg time  |  max time  |%varavg| %total
---------------------------------------------------------------
Pair    | 722.26     | 722.26     | 722.26     |   0.0 | 58.28
Neigh   | 494.17     | 494.17     | 494.17     |   0.0 | 39.88
Comm    | 9.1725     | 9.1725     | 9.1725     |   0.0 |  0.74
Output  | 0.00029898 | 0.00029898 | 0.00029898 |   0.0 |  0.00
Modify  | 10.566     | 10.566     | 10.566     |   0.0 |  0.85
Other   |            | 3.063      |            |       |  0.25

Nlocal:    19652 ave 19652 max 19652 min
Histogram: 1 0 0 0 0 0 0 0 0 0
Nghost:    20101 ave 20101 max 20101 min
Histogram: 1 0 0 0 0 0 0 0 0 0
Neighs:    1.85835e+06 ave 1.85835e+06 max 1.85835e+06 min
Histogram: 1 0 0 0 0 0 0 0 0 0

Total # of neighbors = 1858348
Ave neighs/atom = 94.5628
Neighbor list builds = 6172
Dangerous builds not checked
Setting up Verlet run ...
  Unit style    : metal
  Current step  : 206675
  Time step     : 0.001
[...]
98.7% CPU use with 1 MPI tasks x no OpenMP threads

MPI task timing breakdown:
Section |  min time  |  avg time  |  max time  |%varavg| %total
---------------------------------------------------------------
Pair    | 60.856     | 60.856     | 60.856     |   0.0 | 54.78
Neigh   | 48.444     | 48.444     | 48.444     |   0.0 | 43.61
Comm    | 0.64558    | 0.64558    | 0.64558    |   0.0 |  0.58
Output  | 0.065449   | 0.065449   | 0.065449   |   0.0 |  0.06
Modify  | 0.8368     | 0.8368     | 0.8368     |   0.0 |  0.75
Other   |            | 0.2336     |            |       |  0.21

Nlocal:    19652 ave 19652 max 19652 min
Histogram: 1 0 0 0 0 0 0 0 0 0
Nghost:    20828 ave 20828 max 20828 min
Histogram: 1 0 0 0 0 0 0 0 0 0
Neighs:    2.00988e+06 ave 2.00988e+06 max 2.00988e+06 min
Histogram: 1 0 0 0 0 0 0 0 0 0

Total # of neighbors = 2009881
Ave neighs/atom = 102.274
Neighbor list builds = 495
Dangerous builds not checked
Setting up Verlet run ...
  Unit style    : metal
  Current step  : 307175
  Time step     : 0.001
Per MPI rank memory allocation (min/avg/max) = 19.35 | 19.35 | 19.35 Mbytes
Step Temp Press TotEng PotEng Enthalpy 
  307175    419.61236    1037.3686   -65224.349   -66290.203   -65066.937 
  313347    398.84823   -341.97571   -65354.337   -66367.448   -65406.212 
Loop time of 1397.72 on 1 procs for 6172 steps with 19652 atoms

Performance: 0.382 ns/day, 62.906 hours/ns, 4.416 timesteps/s
97.5% CPU use with 1 MPI tasks x no OpenMP threads

MPI task timing breakdown:
Section |  min time  |  avg time  |  max time  |%varavg| %total
---------------------------------------------------------------
Pair    | 767.36     | 767.36     | 767.36     |   0.0 | 54.90
Neigh   | 608.73     | 608.73     | 608.73     |   0.0 | 43.55
Comm    | 8.0628     | 8.0628     | 8.0628     |   0.0 |  0.58
Output  | 0.00032806 | 0.00032806 | 0.00032806 |   0.0 |  0.00
Modify  | 10.574     | 10.574     | 10.574     |   0.0 |  0.76
Other   |            | 2.998      |            |       |  0.21

Nlocal:    19652 ave 19652 max 19652 min
Histogram: 1 0 0 0 0 0 0 0 0 0
Nghost:    20823 ave 20823 max 20823 min
Histogram: 1 0 0 0 0 0 0 0 0 0
Neighs:    2.0105e+06 ave 2.0105e+06 max 2.0105e+06 min
Histogram: 1 0 0 0 0 0 0 0 0 0

Total # of neighbors = 2010496
Ave neighs/atom = 102.305
Neighbor list builds = 6172
Dangerous builds not checked
Setting up Verlet run ...
  Unit style    : metal
  Current step  : 313347
  Time step     : 0.001
Per MPI rank memory allocation (min/avg/max) = 19.35 | 19.35 | 19.35 Mbytes
Step Temp Press TotEng PotEng Enthalpy 
  313347    398.84823   -341.97571   -65354.337   -66367.448   -65406.212 
  313349    398.78806   -349.52633   -65354.336   -66367.294   -65407.356 
  313842    373.72059   -367.13581   -65505.907   -66455.191   -65561.494 
Loop time of 113.575 on 1 procs for 495 steps with 19652 atoms

Performance: 0.377 ns/day, 63.734 hours/ns, 4.358 timesteps/s
96.7% CPU use with 1 MPI tasks x no OpenMP threads

MPI task timing breakdown:
Section |  min time  |  avg time  |  max time  |%varavg| %total
---------------------------------------------------------------
Pair    | 62.372     | 62.372     | 62.372     |   0.0 | 54.92
Neigh   | 49.407     | 49.407     | 49.407     |   0.0 | 43.50
Comm    | 0.63765    | 0.63765    | 0.63765    |   0.0 |  0.56
Output  | 0.064975   | 0.064975   | 0.064975   |   0.0 |  0.06
Modify  | 0.84478    | 0.84478    | 0.84478    |   0.0 |  0.74
Other   |            | 0.2475     |            |       |  0.22

Nlocal:    19652 ave 19652 max 19652 min
Histogram: 1 0 0 0 0 0 0 0 0 0
Nghost:    20801 ave 20801 max 20801 min
Histogram: 1 0 0 0 0 0 0 0 0 0
Neighs:    2.0146e+06 ave 2.0146e+06 max 2.0146e+06 min
Histogram: 1 0 0 0 0 0 0 0 0 0

Total # of neighbors = 2014597
Ave neighs/atom = 102.514
Neighbor list builds = 495
Dangerous builds not checked
Setting up Verlet run ...
  Unit style    : metal
  Current step  : 313842
  Time step     : 0.001
Per MPI rank memory allocation (min/avg/max) = 19.35 | 19.35 | 19.35 Mbytes
Step Temp Press TotEng PotEng Enthalpy 
  313842    373.72059   -367.13581   -65505.907   -66455.191   -65561.494 
  320014    350.28149    206.59305   -65627.808   -66517.555   -65596.588 
Loop time of 1414.61 on 1 procs for 6172 steps with 19652 atoms

Performance: 0.377 ns/day, 63.666 hours/ns, 4.363 timesteps/s
97.1% CPU use with 1 MPI tasks x no OpenMP threads

MPI task timing breakdown:
Section |  min time  |  avg time  |  max time  |%varavg| %total
---------------------------------------------------------------
Pair    | 778.97     | 778.97     | 778.97     |   0.0 | 55.07
Neigh   | 613.54     | 613.54     | 613.54     |   0.0 | 43.37
Comm    | 8.2997     | 8.2997     | 8.2997     |   0.0 |  0.59
Output  | 0.00031495 | 0.00031495 | 0.00031495 |   0.0 |  0.00
Modify  | 10.694     | 10.694     | 10.694     |   0.0 |  0.76
Other   |            | 3.1        |            |       |  0.22

Nlocal:    19652 ave 19652 max 19652 min
Histogram: 1 0 0 0 0 0 0 0 0 0
Nghost:    20836 ave 20836 max 20836 min
Histogram: 1 0 0 0 0 0 0 0 0 0
Neighs:    2.01878e+06 ave 2.01878e+06 max 2.01878e+06 min
Histogram: 1 0 0 0 0 0 0 0 0 0

Total # of neighbors = 2018781
Ave neighs/atom = 102.726
Neighbor list builds = 6172
Dangerous builds not checked
Setting up Verlet run ...
  Unit style    : metal
  Current step  : 320014
  Time step     : 0.001
Per MPI rank memory allocation (min/avg/max) = 19.35 | 19.35 | 19.35 Mbytes
Step Temp Press TotEng PotEng Enthalpy 
  320014    350.28149    206.59305   -65627.808   -66517.555   -65596.588 
  320016    350.47212    199.35537   -65627.809    -66518.04   -65597.683 
  320509    322.85141    423.45371   -65781.202   -66601.274   -65717.336 
Loop time of 118.527 on 1 procs for 495 steps with 19652 atoms

Performance: 0.361 ns/day, 66.514 hours/ns, 4.176 timesteps/s
90.6% CPU use with 1 MPI tasks x no OpenMP threads

MPI task timing breakdown:
Section |  min time  |  avg time  |  max time  |%varavg| %total
---------------------------------------------------------------
Pair    | 65.867     | 65.867     | 65.867     |   0.0 | 55.57
Neigh   | 50.817     | 50.817     | 50.817     |   0.0 | 42.87
Comm    | 0.65927    | 0.65927    | 0.65927    |   0.0 |  0.56
Output  | 0.067704   | 0.067704   | 0.067704   |   0.0 |  0.06
Modify  | 0.85739    | 0.85739    | 0.85739    |   0.0 |  0.72
Other   |            | 0.2593     |            |       |  0.22

Nlocal:    19652 ave 19652 max 19652 min
Histogram: 1 0 0 0 0 0 0 0 0 0
Nghost:    20891 ave 20891 max 20891 min
Histogram: 1 0 0 0 0 0 0 0 0 0
Neighs:    2.02343e+06 ave 2.02343e+06 max 2.02343e+06 min
Histogram: 1 0 0 0 0 0 0 0 0 0

Total # of neighbors = 2023433
Ave neighs/atom = 102.963
Neighbor list builds = 495
Dangerous builds not checked
Setting up Verlet run ...
  Unit style    : metal
  Current step  : 320509
  Time step     : 0.001
Per MPI rank memory allocation (min/avg/max) = 19.35 | 19.35 | 19.35 Mbytes
Step Temp Press TotEng PotEng Enthalpy 
  320509    322.85141    423.45371   -65781.202   -66601.274   -65717.336 
  326681    295.58435    55.148105   -65921.317   -66672.128   -65913.009 
Loop time of 1573.36 on 1 procs for 6172 steps with 19652 atoms

Performance: 0.339 ns/day, 70.811 hours/ns, 3.923 timesteps/s
85.7% CPU use with 1 MPI tasks x no OpenMP threads

MPI task timing breakdown:
Section |  min time  |  avg time  |  max time  |%varavg| %total
---------------------------------------------------------------
Pair    | 867.15     | 867.15     | 867.15     |   0.0 | 55.11
Neigh   | 682.64     | 682.64     | 682.64     |   0.0 | 43.39
Comm    | 8.659      | 8.659      | 8.659      |   0.0 |  0.55
Output  | 0.00029278 | 0.00029278 | 0.00029278 |   0.0 |  0.00
Modify  | 11.738     | 11.738     | 11.738     |   0.0 |  0.75
Other   |            | 3.174      |            |       |  0.20

Nlocal:    19652 ave 19652 max 19652 min
Histogram: 1 0 0 0 0 0 0 0 0 0
Nghost:    20892 ave 20892 max 20892 min
Histogram: 1 0 0 0 0 0 0 0 0 0
Neighs:    2.02538e+06 ave 2.02538e+06 max 2.02538e+06 min
Histogram: 1 0 0 0 0 0 0 0 0 0

Total # of neighbors = 2025385
Ave neighs/atom = 103.063
Neighbor list builds = 6172
Dangerous builds not checked
Setting up Verlet run ...
  Unit style    : metal
  Current step  : 326681
  Time step     : 0.001
Per MPI rank memory allocation (min/avg/max) = 19.35 | 19.35 | 19.35 Mbytes
Step Temp Press TotEng PotEng Enthalpy 
  326681    295.58435    55.148105   -65921.317   -66672.128   -65913.009 
  326683    295.68411    54.045809   -65921.313   -66672.378   -65913.171 
  327176     273.5758   -1.9018012   -66057.257   -66752.165   -66057.543 
Loop time of 127.157 on 1 procs for 495 steps with 19652 atoms

Performance: 0.336 ns/day, 71.356 hours/ns, 3.893 timesteps/s
84.7% CPU use with 1 MPI tasks x no OpenMP threads

MPI task timing breakdown:
Section |  min time  |  avg time  |  max time  |%varavg| %total
---------------------------------------------------------------
Pair    | 69.745     | 69.745     | 69.745     |   0.0 | 54.85
Neigh   | 55.369     | 55.369     | 55.369     |   0.0 | 43.54
Comm    | 0.71655    | 0.71655    | 0.71655    |   0.0 |  0.56
Output  | 0.10109    | 0.10109    | 0.10109    |   0.0 |  0.08
Modify  | 0.94619    | 0.94619    | 0.94619    |   0.0 |  0.74
Other   |            | 0.2795     |            |       |  0.22

Nlocal:    19652 ave 19652 max 19652 min
Histogram: 1 0 0 0 0 0 0 0 0 0
Nghost:    20926 ave 20926 max 20926 min
Histogram: 1 0 0 0 0 0 0 0 0 0
Neighs:    2.02979e+06 ave 2.02979e+06 max 2.02979e+06 min
Histogram: 1 0 0 0 0 0 0 0 0 0

Total # of neighbors = 2029792
Ave neighs/atom = 103.287
Neighbor list builds = 495
Dangerous builds not checked
Setting up Verlet run ...
  Unit style    : metal
  Current step  : 327176
  Time step     : 0.001
Per MPI rank memory allocation (min/avg/max) = 19.35 | 19.35 | 19.35 Mbytes
Step Temp Press TotEng PotEng Enthalpy 
  327176     273.5758   -1.9018012   -66057.257   -66752.165   -66057.543 
  333348    248.88349     641.0517   -66198.849   -66831.036   -66102.653 
Loop time of 1554.25 on 1 procs for 6172 steps with 19652 atoms

Performance: 0.343 ns/day, 69.951 hours/ns, 3.971 timesteps/s
86.4% CPU use with 1 MPI tasks x no OpenMP threads

MPI task timing breakdown:
Section |  min time  |  avg time  |  max time  |%varavg| %total
---------------------------------------------------------------
Pair    | 855.25     | 855.25     | 855.25     |   0.0 | 55.03
Neigh   | 675.43     | 675.43     | 675.43     |   0.0 | 43.46
Comm    | 8.7047     | 8.7047     | 8.7047     |   0.0 |  0.56
Output  | 0.00020599 | 0.00020599 | 0.00020599 |   0.0 |  0.00
Modify  | 11.615     | 11.615     | 11.615     |   0.0 |  0.75
Other   |            | 3.248      |            |       |  0.21

Nlocal:    19652 ave 19652 max 19652 min
Histogram: 1 0 0 0 0 0 0 0 0 0
Nghost:    20891 ave 20891 max 20891 min
Histogram: 1 0 0 0 0 0 0 0 0 0
Neighs:    2.03493e+06 ave 2.03493e+06 max 2.03493e+06 min
Histogram: 1 0 0 0 0 0 0 0 0 0

Total # of neighbors = 2034927
Ave neighs/atom = 103.548
Neighbor list builds = 6172
Dangerous builds not checked
Setting up Verlet run ...
  Unit style    : metal
  Current step  : 333348
  Time step     : 0.001
Per MPI rank memory allocation (min/avg/max) = 19.35 | 19.35 | 19.35 Mbytes
Step Temp Press TotEng PotEng Enthalpy 
  333348    248.88349     641.0517   -66198.849   -66831.036   -66102.653 
  333350    248.85398     633.8455   -66198.848    -66830.96   -66103.734 
  333843    224.84314   -551.44057   -66322.102   -66893.224   -66404.827 
Loop time of 126.819 on 1 procs for 495 steps with 19652 atoms

Performance: 0.337 ns/day, 71.167 hours/ns, 3.903 timesteps/s
85.5% CPU use with 1 MPI tasks x no OpenMP threads

MPI task timing breakdown:
Section |  min time  |  avg time  |  max time  |%varavg| %total
---------------------------------------------------------------
Pair    | 70.349     | 70.349     | 70.349     |   0.0 | 55.47
Neigh   | 54.502     | 54.502     | 54.502     |   0.0 | 42.98
Comm    | 0.70824    | 0.70824    | 0.70824    |   0.0 |  0.56
Output  | 0.065281   | 0.065281   | 0.065281   |   0.0 |  0.05
Modify  | 0.92811    | 0.92811    | 0.92811    |   0.0 |  0.73
Other   |            | 0.2665     |            |       |  0.21

Nlocal:    19652 ave 19652 max 19652 min
Histogram: 1 0 0 0 0 0 0 0 0 0
Nghost:    20919 ave 20919 max 20919 min
Histogram: 1 0 0 0 0 0 0 0 0 0
Neighs:    2.03514e+06 ave 2.03514e+06 max 2.03514e+06 min
Histogram: 1 0 0 0 0 0 0 0 0 0

Total # of neighbors = 2035141
Ave neighs/atom = 103.559
Neighbor list builds = 495
Dangerous builds not checked
Setting up Verlet run ...
  Unit style    : metal
  Current step  : 333843
  Time step     : 0.001
Per MPI rank memory allocation (min/avg/max) = 19.35 | 19.35 | 19.35 Mbytes
Step Temp Press TotEng PotEng Enthalpy 
  333843    224.84314   -551.44057   -66322.102   -66893.224   -66404.827 
  340015    199.63565    183.24941   -66452.918   -66960.011   -66425.481 
Loop time of 1552.5 on 1 procs for 6172 steps with 19652 atoms

Performance: 0.343 ns/day, 69.872 hours/ns, 3.976 timesteps/s
88.4% CPU use with 1 MPI tasks x no OpenMP threads

MPI task timing breakdown:
Section |  min time  |  avg time  |  max time  |%varavg| %total
---------------------------------------------------------------
Pair    | 860.22     | 860.22     | 860.22     |   0.0 | 55.41
Neigh   | 668.32     | 668.32     | 668.32     |   0.0 | 43.05
Comm    | 8.9417     | 8.9417     | 8.9417     |   0.0 |  0.58
Output  | 0.00029516 | 0.00029516 | 0.00029516 |   0.0 |  0.00
Modify  | 11.712     | 11.712     | 11.712     |   0.0 |  0.75
Other   |            | 3.311      |            |       |  0.21

Nlocal:    19652 ave 19652 max 19652 min
Histogram: 1 0 0 0 0 0 0 0 0 0
Nghost:    20926 ave 20926 max 20926 min
Histogram: 1 0 0 0 0 0 0 0 0 0
Neighs:    2.04002e+06 ave 2.04002e+06 max 2.04002e+06 min
Histogram: 1 0 0 0 0 0 0 0 0 0

Total # of neighbors = 2040015
Ave neighs/atom = 103.807
Neighbor list builds = 6172
Dangerous builds not checked
Setting up Verlet run ...
  Unit style    : metal
  Current step  : 340015
  Time step     : 0.001
Per MPI rank memory allocation (min/avg/max) = 19.35 | 19.35 | 19.35 Mbytes
Step Temp Press TotEng PotEng Enthalpy 
  340015    199.63565    183.24941   -66452.918   -66960.011   -66425.481 
  340017    199.70834     171.7555   -66452.918   -66960.195   -66427.202 
  340510    175.12887    124.02188   -66581.857   -67026.701   -66563.311 
Loop time of 120.351 on 1 procs for 495 steps with 19652 atoms

Performance: 0.355 ns/day, 67.537 hours/ns, 4.113 timesteps/s
97.2% CPU use with 1 MPI tasks x no OpenMP threads

MPI task timing breakdown:
Section |  min time  |  avg time  |  max time  |%varavg| %total
---------------------------------------------------------------
Pair    | 67.462     | 67.462     | 67.462     |   0.0 | 56.05
Neigh   | 50.793     | 50.793     | 50.793     |   0.0 | 42.20
Comm    | 0.78967    | 0.78967    | 0.78967    |   0.0 |  0.66
Output  | 0.071939   | 0.071939   | 0.071939   |   0.0 |  0.06
Modify  | 0.94835    | 0.94835    | 0.94835    |   0.0 |  0.79
Other   |            | 0.2872     |            |       |  0.24

Nlocal:    19652 ave 19652 max 19652 min
Histogram: 1 0 0 0 0 0 0 0 0 0
Nghost:    20890 ave 20890 max 20890 min
Histogram: 1 0 0 0 0 0 0 0 0 0
Neighs:    2.04322e+06 ave 2.04322e+06 max 2.04322e+06 min
Histogram: 1 0 0 0 0 0 0 0 0 0

Total # of neighbors = 2043217
Ave neighs/atom = 103.97
Neighbor list builds = 495
Dangerous builds not checked
Setting up Verlet run ...
  Unit style    : metal
  Current step  : 340510
  Time step     : 0.001
Per MPI rank memory allocation (min/avg/max) = 19.35 | 19.35 | 19.35 Mbytes
Step Temp Press TotEng PotEng Enthalpy 
  340510    175.12887    124.02188   -66581.857   -67026.701   -66563.311 
  346682    149.43789   -136.17731   -66722.238   -67101.824   -66742.572 
Loop time of 1537.04 on 1 procs for 6172 steps with 19652 atoms

Performance: 0.347 ns/day, 69.176 hours/ns, 4.016 timesteps/s
96.6% CPU use with 1 MPI tasks x no OpenMP threads

MPI task timing breakdown:
Section |  min time  |  avg time  |  max time  |%varavg| %total
---------------------------------------------------------------
Pair    | 859.19     | 859.19     | 859.19     |   0.0 | 55.90
Neigh   | 652.18     | 652.18     | 652.18     |   0.0 | 42.43
Comm    | 9.9479     | 9.9479     | 9.9479     |   0.0 |  0.65
Output  | 0.016025   | 0.016025   | 0.016025   |   0.0 |  0.00
Modify  | 12.076     | 12.076     | 12.076     |   0.0 |  0.79
Other   |            | 3.629      |            |       |  0.24

Nlocal:    19652 ave 19652 max 19652 min
Histogram: 1 0 0 0 0 0 0 0 0 0
Nghost:    20948 ave 20948 max 20948 min
Histogram: 1 0 0 0 0 0 0 0 0 0
Neighs:    2.0463e+06 ave 2.0463e+06 max 2.0463e+06 min
Histogram: 1 0 0 0 0 0 0 0 0 0

Total # of neighbors = 2046298
Ave neighs/atom = 104.127
Neighbor list builds = 6172
Dangerous builds not checked
Setting up Verlet run ...
  Unit style    : metal
  Current step  : 346682
  Time step     : 0.001
Per MPI rank memory allocation (min/avg/max) = 19.35 | 19.35 | 19.35 Mbytes
Step Temp Press TotEng PotEng Enthalpy 
  346682    149.43789   -136.17731   -66722.238   -67101.824   -66742.572 
  346684    149.49215   -137.45533   -66722.238   -67101.961   -66742.763 
  347177    126.11782    153.78021   -66839.759   -67160.109   -66816.829 
Loop time of 120.643 on 1 procs for 495 steps with 19652 atoms

Performance: 0.354 ns/day, 67.701 hours/ns, 4.103 timesteps/s
99.9% CPU use with 1 MPI tasks x no OpenMP threads

MPI task timing breakdown:
Section |  min time  |  avg time  |  max time  |%varavg| %total
---------------------------------------------------------------
Pair    | 67.971     | 67.971     | 67.971     |   0.0 | 56.34
Neigh   | 50.59      | 50.59      | 50.59      |   0.0 | 41.93
Comm    | 0.78549    | 0.78549    | 0.78549    |   0.0 |  0.65
Output  | 0.06819    | 0.06819    | 0.06819    |   0.0 |  0.06
Modify  | 0.93859    | 0.93859    | 0.93859    |   0.0 |  0.78
Other   |            | 0.2908     |            |       |  0.24

Nlocal:    19652 ave 19652 max 19652 min
Histogram: 1 0 0 0 0 0 0 0 0 0
Nghost:    20935 ave 20935 max 20935 min
Histogram: 1 0 0 0 0 0 0 0 0 0
Neighs:    2.04977e+06 ave 2.04977e+06 max 2.04977e+06 min
Histogram: 1 0 0 0 0 0 0 0 0 0

Total # of neighbors = 2049770
Ave neighs/atom = 104.303
Neighbor list builds = 495
Dangerous builds not checked
Setting up Verlet run ...
  Unit style    : metal
  Current step  : 347177
  Time step     : 0.001
Per MPI rank memory allocation (min/avg/max) = 19.35 | 19.35 | 19.35 Mbytes
Step Temp Press TotEng PotEng Enthalpy 
  347177    126.11782    153.78021   -66839.759   -67160.109   -66816.829 
  353349     100.1928   -780.83056   -66981.003   -67235.502   -67097.332 
Loop time of 1463.25 on 1 procs for 6172 steps with 19652 atoms

Performance: 0.364 ns/day, 65.855 hours/ns, 4.218 timesteps/s
99.7% CPU use with 1 MPI tasks x no OpenMP threads

MPI task timing breakdown:
Section |  min time  |  avg time  |  max time  |%varavg| %total
---------------------------------------------------------------
Pair    | 820.5      | 820.5      | 820.5      |   0.0 | 56.07
Neigh   | 618.25     | 618.25     | 618.25     |   0.0 | 42.25
Comm    | 9.4869     | 9.4869     | 9.4869     |   0.0 |  0.65
Output  | 0.0002172  | 0.0002172  | 0.0002172  |   0.0 |  0.00
Modify  | 11.518     | 11.518     | 11.518     |   0.0 |  0.79
Other   |            | 3.508      |            |       |  0.24

Nlocal:    19652 ave 19652 max 19652 min
Histogram: 1 0 0 0 0 0 0 0 0 0
Nghost:    20975 ave 20975 max 20975 min
Histogram: 1 0 0 0 0 0 0 0 0 0
Neighs:    2.05174e+06 ave 2.05174e+06 max 2.05174e+06 min
Histogram: 1 0 0 0 0 0 0 0 0 0

Total # of neighbors = 2051744
Ave neighs/atom = 104.404
Neighbor list builds = 6172
Dangerous builds not checked
Total wall time: 17:36:02
