LAMMPS (12 Dec 2018)
Lattice spacing in x,y,z = 4 4 4
Created orthogonal box = (0 0 0) to (68 68 68)
  1 by 1 by 1 MPI processor grid
Created 19652 atoms
  Time spent = 0.00369 secs
Setting atom values ...
  0 settings made for type/fraction
Neighbor list info ...
  update every 1 steps, delay 0 steps, check no
  max neighbors/atom: 2000, page size: 100000
  master list distance cutoff = 8.5
  ghost atom cutoff = 8.5
  binsize = 4.25, bins = 16 16 16
  1 neighbor lists, perpetual/occasional/extra = 1 0 0
  (1) pair eam/alloy, perpetual
      attributes: half, newton on
      pair build: half/bin/atomonly/newton
      stencil: half/bin/3d/newton
      bin: standard
Setting up Verlet run ...
  Unit style    : metal
  Current step  : 0
  Time step     : 0.001
Per MPI rank memory allocation (min/avg/max) = 18.19 | 18.19 | 18.19 Mbytes
Step Temp Press TotEng PotEng Enthalpy Volume 
       0          300    269835.24   -20946.227   -21708.254    32009.758       314432 
     667    149.47259    268388.85   -20945.982   -21325.656    31726.144       314432 
    1000    151.65897     268470.6   -20945.986   -21331.214    31742.185       314432 
Loop time of 137.235 on 1 procs for 1000 steps with 19652 atoms

Performance: 0.630 ns/day, 38.121 hours/ns, 7.287 timesteps/s
99.8% CPU use with 1 MPI tasks x no OpenMP threads

MPI task timing breakdown:
Section |  min time  |  avg time  |  max time  |%varavg| %total
---------------------------------------------------------------
Pair    | 78.921     | 78.921     | 78.921     |   0.0 | 57.51
Neigh   | 55.538     | 55.538     | 55.538     |   0.0 | 40.47
Comm    | 1.4674     | 1.4674     | 1.4674     |   0.0 |  1.07
Output  | 0.041267   | 0.041267   | 0.041267   |   0.0 |  0.03
Modify  | 0.63353    | 0.63353    | 0.63353    |   0.0 |  0.46
Other   |            | 0.6341     |            |       |  0.46

Nlocal:    19652 ave 19652 max 19652 min
Histogram: 1 0 0 0 0 0 0 0 0 0
Nghost:    20102 ave 20102 max 20102 min
Histogram: 1 0 0 0 0 0 0 0 0 0
Neighs:    1.57527e+06 ave 1.57527e+06 max 1.57527e+06 min
Histogram: 1 0 0 0 0 0 0 0 0 0

Total # of neighbors = 1575268
Ave neighs/atom = 80.1582
Neighbor list builds = 1000
Dangerous builds not checked
Setting up Verlet run ...
  Unit style    : metal
  Current step  : 1000
  Time step     : 0.001
Per MPI rank memory allocation (min/avg/max) = 18.19 | 18.19 | 18.19 Mbytes
Step Temp Press TotEng PotEng Enthalpy Volume 
    1000    151.65897     268470.6   -20945.986   -21331.214    31742.185       314432 
    1334    147.03602     26642.97   -28802.259   -29175.743   -21772.566    422730.96 
    2000    253.64614    331.25102   -28380.073   -29024.357    -28285.96    455196.87 
Loop time of 116.405 on 1 procs for 1000 steps with 19652 atoms

Performance: 0.742 ns/day, 32.335 hours/ns, 8.591 timesteps/s
99.9% CPU use with 1 MPI tasks x no OpenMP threads

MPI task timing breakdown:
Section |  min time  |  avg time  |  max time  |%varavg| %total
---------------------------------------------------------------
Pair    | 60.958     | 60.958     | 60.958     |   0.0 | 52.37
Neigh   | 52.199     | 52.199     | 52.199     |   0.0 | 44.84
Comm    | 1.0603     | 1.0603     | 1.0603     |   0.0 |  0.91
Output  | 0.04053    | 0.04053    | 0.04053    |   0.0 |  0.03
Modify  | 1.5395     | 1.5395     | 1.5395     |   0.0 |  1.32
Other   |            | 0.6079     |            |       |  0.52

Nlocal:    19652 ave 19652 max 19652 min
Histogram: 1 0 0 0 0 0 0 0 0 0
Nghost:    14808 ave 14808 max 14808 min
Histogram: 1 0 0 0 0 0 0 0 0 0
Neighs:    1.1178e+06 ave 1.1178e+06 max 1.1178e+06 min
Histogram: 1 0 0 0 0 0 0 0 0 0

Total # of neighbors = 1117805
Ave neighs/atom = 56.88
Neighbor list builds = 1000
Dangerous builds not checked
Setting up Verlet run ...
  Unit style    : metal
  Current step  : 2000
  Time step     : 0.001
Per MPI rank memory allocation (min/avg/max) = 18.19 | 18.19 | 18.19 Mbytes
Step Temp Press TotEng PotEng Enthalpy Volume 
    2000    253.64614    331.25102   -28380.073   -29024.357    -28285.96    455196.87 
    2001    253.25184    338.71539   -28380.062   -29023.345   -28283.829    455196.99 
    2668    366.38077    -333.7147   -27782.999    -28713.64   -27878.956    460691.07 
    3335    563.71062    266.14815   -26636.928   -28068.805   -26558.863    469941.29 
    4002    791.70245   -41.242225   -25219.433    -27230.43   -25231.901    484349.51 
    4669    988.54681    -11.73938     -23850.4   -26361.399   -23854.054    498738.16 
    5336    1156.4107    263.28795   -22354.068   -25291.457   -22269.042    517409.54 
    6003    1368.9962   -44.027076   -20560.543   -24037.918   -20575.546    545992.05 
    6670    1558.6385    83.161969   -19475.829   -23434.912   -19446.789    559466.97 
    7337    1721.9963    44.452637    -18450.49   -22824.518   -18434.534    575114.83 
    8004     1904.689   -285.95728   -17449.739   -22287.822    -17555.26    591221.01 
    8671    2098.5612   -64.445024   -16416.495   -21747.031   -16440.917     607176.5 
    9338    2248.1307   -297.35501   -15362.718   -21073.175   -15479.434    628875.22 
   10000    2462.5189    -146.5878   -14138.145   -20393.168   -14197.902    653127.42 
Loop time of 783.584 on 1 procs for 8000 steps with 19652 atoms

Performance: 0.882 ns/day, 27.208 hours/ns, 10.209 timesteps/s
99.9% CPU use with 1 MPI tasks x no OpenMP threads

MPI task timing breakdown:
Section |  min time  |  avg time  |  max time  |%varavg| %total
---------------------------------------------------------------
Pair    | 408.1      | 408.1      | 408.1      |   0.0 | 52.08
Neigh   | 348.95     | 348.95     | 348.95     |   0.0 | 44.53
Comm    | 8.4928     | 8.4928     | 8.4928     |   0.0 |  1.08
Output  | 0.49341    | 0.49341    | 0.49341    |   0.0 |  0.06
Modify  | 12.653     | 12.653     | 12.653     |   0.0 |  1.61
Other   |            | 4.903      |            |       |  0.63

Nlocal:    19652 ave 19652 max 19652 min
Histogram: 1 0 0 0 0 0 0 0 0 0
Nghost:    13953 ave 13953 max 13953 min
Histogram: 1 0 0 0 0 0 0 0 0 0
Neighs:    751265 ave 751265 max 751265 min
Histogram: 1 0 0 0 0 0 0 0 0 0

Total # of neighbors = 751265
Ave neighs/atom = 38.2284
Neighbor list builds = 8000
Dangerous builds not checked
Setting up Verlet run ...
  Unit style    : metal
  Current step  : 10000
  Time step     : 0.001
Per MPI rank memory allocation (min/avg/max) = 18.22 | 18.22 | 18.22 Mbytes
Step Temp Press TotEng PotEng Enthalpy Volume 
   10000    2462.5189    -146.5878   -14138.145   -20393.168   -14197.902    653127.42 
   10005    2461.3326   -110.53163   -14138.219   -20390.229   -14183.278     653127.1 
   10672    2451.7788   -329.60741   -14053.924   -20281.666   -14189.596    659483.66 
   11339    2436.2163    463.15819   -14095.652   -20283.863   -13906.005    656032.29 
   12006    2456.4443    53.853213   -14071.966   -20311.558   -14049.919    655906.91 
   12673     2431.021   -307.74446   -13990.646    -20165.66   -14117.884    662428.96 
   13340    2465.8603    301.23694   -14026.057   -20289.567   -13902.663    656290.27 
   14007     2444.867    83.888798    -14056.17   -20266.355    -14021.68    658721.28 
   14674    2472.6899    295.07512   -13920.142       -20201   -13798.621    659828.05 
   15341    2441.3347   -51.580453   -14102.239   -20303.451   -14123.398    657239.17 
   16008     2452.619     157.5447   -14039.979   -20269.854   -13975.451    656225.38 
   16675    2442.6511    81.258126   -14017.654    -20222.21   -13984.262    658398.05 
   17342    2454.7699   -325.34421   -13895.654   -20130.993   -14030.735    665214.95 
   18009    2442.3767    396.70275   -14088.077   -20291.936   -13925.939    654830.86 
   18676    2448.3137    173.36145   -14025.337   -20244.276   -13954.258    656896.25 
   19343     2448.406   -474.09009   -14040.994   -20260.169    -14236.08    659288.18 
   20010    2455.0368     211.2142   -14052.115   -20288.132   -13965.568    656510.21 
   20677    2404.6471 -0.041784328   -14141.786   -20249.809   -14141.803    656869.62 
   21344    2433.1329   -177.77296   -14107.692   -20288.071   -14180.615    657219.06 
   22011    2456.2968   -231.59797    -14011.72   -20250.937   -14107.056    659527.43 
   22678    2440.5298   -243.16925   -13926.879   -20126.047   -14027.479    662827.03 
   23345    2436.6188    543.95471   -14121.156    -20310.39   -13899.057     654176.5 
   24012    2449.0391   -380.68464   -13883.887   -20104.669   -14041.734    664326.02 
   24679    2464.5139    99.910541   -14000.819   -20260.909   -13959.876    656557.25 
   25346     2458.664    4.0980156   -14038.822   -20284.052   -14037.142    656938.68 
   26013    2444.3441   -162.10523   -14089.492   -20298.349   -14156.059    657921.39 
   26680    2454.3106   -456.49725   -13980.538    -20214.71   -14169.227    662247.68 
   27347    2440.9458    308.75383   -14107.446   -20307.671   -13981.172    655258.21 
   28014    2474.3327   -236.67501   -14016.298   -20301.329   -14113.707    659414.16 
   28681    2448.3194    -26.42687   -13958.782   -20177.736   -13969.698    661796.44 
   29348    2444.1172    118.73626   -14117.306   -20325.586   -14068.777    654826.71 
   30015    2444.3182   -249.08083   -13918.279    -20127.07   -14021.489    663880.96 
   30682    2460.1201    104.12559   -14001.923   -20250.853   -13959.129    658474.44 
   31349    2420.5296   -357.28194   -14078.373   -20226.738   -14225.487    659710.75 
   32016    2436.7109   -228.50354   -13981.421   -20170.889   -14075.932    662672.58 
   32683     2451.392    42.489087   -14115.693   -20342.452   -14098.324    654935.49 
   33350    2454.4069   -304.10187   -13892.123    -20126.54   -14018.261    664567.33 
   34017     2457.491   -290.54394   -13950.899    -20193.15   -14070.822    661304.16 
   34684    2440.6519    266.50215   -14133.132    -20332.61   -14024.308    654233.42 
   35351    2462.6373   -616.32064   -13928.215   -20183.538   -14183.487    663600.52 
   36018    2425.6852   -99.576291   -14208.631   -20370.092   -14249.259    653709.94 
   36685    2429.1984   -35.438795   -14137.482   -20307.867   -14151.987    655759.58 
   37352    2459.6759   -535.82916   -13892.861   -20140.662   -14115.171    664726.11 
   38019    2457.8044    63.593508     -14001.3   -20244.347   -13975.142    659015.35 
   38686    2427.1084    -120.2318   -14163.371   -20328.447   -14212.582    655774.53 
   39353    2472.4211    -247.9657   -13852.692   -20132.867   -13955.357    663347.86 
   40000    2435.6522   -35.926783   -14064.457   -20251.235   -14079.212     658027.9 
Loop time of 2522.63 on 1 procs for 30000 steps with 19652 atoms

Performance: 1.028 ns/day, 23.358 hours/ns, 11.892 timesteps/s
99.7% CPU use with 1 MPI tasks x no OpenMP threads

MPI task timing breakdown:
Section |  min time  |  avg time  |  max time  |%varavg| %total
---------------------------------------------------------------
Pair    | 1231.4     | 1231.4     | 1231.4     |   0.0 | 48.82
Neigh   | 1201.1     | 1201.1     | 1201.1     |   0.0 | 47.61
Comm    | 28.936     | 28.936     | 28.936     |   0.0 |  1.15
Output  | 2.0781     | 2.0781     | 2.0781     |   0.0 |  0.08
Modify  | 43.728     | 43.728     | 43.728     |   0.0 |  1.73
Other   |            | 15.35      |            |       |  0.61

Nlocal:    19652 ave 19652 max 19652 min
Histogram: 1 0 0 0 0 0 0 0 0 0
Nghost:    13824 ave 13824 max 13824 min
Histogram: 1 0 0 0 0 0 0 0 0 0
Neighs:    746264 ave 746264 max 746264 min
Histogram: 1 0 0 0 0 0 0 0 0 0

Total # of neighbors = 746264
Ave neighs/atom = 37.9739
Neighbor list builds = 30000
Dangerous builds not checked
Setting up Verlet run ...
  Unit style    : metal
  Current step  : 40000
  Time step     : 0.001
Per MPI rank memory allocation (min/avg/max) = 18.22 | 18.22 | 18.22 Mbytes
Step Temp Press TotEng PotEng Enthalpy Volume 
   40000    2435.6522   -35.926783   -14064.457   -20251.235   -14079.212     658027.9 
   40020    2436.0938    81.342512    -14063.02    -20250.92   -14029.612    658027.17 
   40495    2417.9095   -355.91546   -14163.456   -20305.167   -14309.524    657533.05 
Loop time of 39.492 on 1 procs for 495 steps with 19652 atoms

Performance: 1.083 ns/day, 22.162 hours/ns, 12.534 timesteps/s
99.8% CPU use with 1 MPI tasks x no OpenMP threads

MPI task timing breakdown:
Section |  min time  |  avg time  |  max time  |%varavg| %total
---------------------------------------------------------------
Pair    | 19.276     | 19.276     | 19.276     |   0.0 | 48.81
Neigh   | 18.78      | 18.78      | 18.78      |   0.0 | 47.55
Comm    | 0.45245    | 0.45245    | 0.45245    |   0.0 |  1.15
Output  | 0.039181   | 0.039181   | 0.039181   |   0.0 |  0.10
Modify  | 0.7069     | 0.7069     | 0.7069     |   0.0 |  1.79
Other   |            | 0.2377     |            |       |  0.60

Nlocal:    19652 ave 19652 max 19652 min
Histogram: 1 0 0 0 0 0 0 0 0 0
Nghost:    13902 ave 13902 max 13902 min
Histogram: 1 0 0 0 0 0 0 0 0 0
Neighs:    746355 ave 746355 max 746355 min
Histogram: 1 0 0 0 0 0 0 0 0 0

Total # of neighbors = 746355
Ave neighs/atom = 37.9786
Neighbor list builds = 495
Dangerous builds not checked
Setting up Verlet run ...
  Unit style    : metal
  Current step  : 40495
  Time step     : 0.001
Per MPI rank memory allocation (min/avg/max) = 18.22 | 18.22 | 18.22 Mbytes
Step Temp Press TotEng PotEng Enthalpy Volume 
   40495    2417.9095   -355.91546   -14163.456   -20305.167   -14309.524    657533.05 
   40667    2394.6646   -329.78906   -14258.516   -20341.182   -14393.691    656705.98 
Loop time of 13.4296 on 1 procs for 172 steps with 19652 atoms

Performance: 1.107 ns/day, 21.689 hours/ns, 12.807 timesteps/s
99.8% CPU use with 1 MPI tasks x no OpenMP threads

MPI task timing breakdown:
Section |  min time  |  avg time  |  max time  |%varavg| %total
---------------------------------------------------------------
Pair    | 6.6082     | 6.6082     | 6.6082     |   0.0 | 49.21
Neigh   | 6.34       | 6.34       | 6.34       |   0.0 | 47.21
Comm    | 0.15281    | 0.15281    | 0.15281    |   0.0 |  1.14
Output  | 0.00017309 | 0.00017309 | 0.00017309 |   0.0 |  0.00
Modify  | 0.2448     | 0.2448     | 0.2448     |   0.0 |  1.82
Other   |            | 0.08363    |            |       |  0.62

Nlocal:    19652 ave 19652 max 19652 min
Histogram: 1 0 0 0 0 0 0 0 0 0
Nghost:    13848 ave 13848 max 13848 min
Histogram: 1 0 0 0 0 0 0 0 0 0
Neighs:    747375 ave 747375 max 747375 min
Histogram: 1 0 0 0 0 0 0 0 0 0

Total # of neighbors = 747375
Ave neighs/atom = 38.0305
Neighbor list builds = 172
Dangerous builds not checked
Setting up Verlet run ...
  Unit style    : metal
  Current step  : 40667
  Time step     : 0.001
Per MPI rank memory allocation (min/avg/max) = 18.22 | 18.22 | 18.22 Mbytes
Step Temp Press TotEng PotEng Enthalpy Volume 
   40667    2394.6646   -329.78906   -14258.516   -20341.182   -14393.691    656705.98 
   40687    2393.8269   -307.71891   -14257.757   -20338.295   -14383.883    656693.23 
   41162    2366.7348    212.23871    -14517.76   -20529.482   -14431.955    647739.42 
Loop time of 38.9402 on 1 procs for 495 steps with 19652 atoms

Performance: 1.098 ns/day, 21.852 hours/ns, 12.712 timesteps/s
99.8% CPU use with 1 MPI tasks x no OpenMP threads

MPI task timing breakdown:
Section |  min time  |  avg time  |  max time  |%varavg| %total
---------------------------------------------------------------
Pair    | 19.122     | 19.122     | 19.122     |   0.0 | 49.10
Neigh   | 18.39      | 18.39      | 18.39      |   0.0 | 47.23
Comm    | 0.44431    | 0.44431    | 0.44431    |   0.0 |  1.14
Output  | 0.041099   | 0.041099   | 0.041099   |   0.0 |  0.11
Modify  | 0.70634    | 0.70634    | 0.70634    |   0.0 |  1.81
Other   |            | 0.2366     |            |       |  0.61

Nlocal:    19652 ave 19652 max 19652 min
Histogram: 1 0 0 0 0 0 0 0 0 0
Nghost:    13892 ave 13892 max 13892 min
Histogram: 1 0 0 0 0 0 0 0 0 0
Neighs:    758148 ave 758148 max 758148 min
Histogram: 1 0 0 0 0 0 0 0 0 0

Total # of neighbors = 758148
Ave neighs/atom = 38.5787
Neighbor list builds = 495
Dangerous builds not checked
Setting up Verlet run ...
  Unit style    : metal
  Current step  : 41162
  Time step     : 0.001
Per MPI rank memory allocation (min/avg/max) = 18.22 | 18.22 | 18.22 Mbytes
Step Temp Press TotEng PotEng Enthalpy Volume 
   41162    2366.7348    212.23871    -14517.76   -20529.482   -14431.955    647739.42 
   41334     2333.437     -158.812   -14619.426   -20546.568   -14683.625    647675.72 
Loop time of 13.4896 on 1 procs for 172 steps with 19652 atoms

Performance: 1.102 ns/day, 21.786 hours/ns, 12.751 timesteps/s
99.8% CPU use with 1 MPI tasks x no OpenMP threads

MPI task timing breakdown:
Section |  min time  |  avg time  |  max time  |%varavg| %total
---------------------------------------------------------------
Pair    | 6.6737     | 6.6737     | 6.6737     |   0.0 | 49.47
Neigh   | 6.3344     | 6.3344     | 6.3344     |   0.0 | 46.96
Comm    | 0.15256    | 0.15256    | 0.15256    |   0.0 |  1.13
Output  | 0.00016689 | 0.00016689 | 0.00016689 |   0.0 |  0.00
Modify  | 0.24535    | 0.24535    | 0.24535    |   0.0 |  1.82
Other   |            | 0.08347    |            |       |  0.62

Nlocal:    19652 ave 19652 max 19652 min
Histogram: 1 0 0 0 0 0 0 0 0 0
Nghost:    13868 ave 13868 max 13868 min
Histogram: 1 0 0 0 0 0 0 0 0 0
Neighs:    758170 ave 758170 max 758170 min
Histogram: 1 0 0 0 0 0 0 0 0 0

Total # of neighbors = 758170
Ave neighs/atom = 38.5798
Neighbor list builds = 172
Dangerous builds not checked
Setting up Verlet run ...
  Unit style    : metal
  Current step  : 41334
  Time step     : 0.001
Per MPI rank memory allocation (min/avg/max) = 18.22 | 18.22 | 18.22 Mbytes
Step Temp Press TotEng PotEng Enthalpy Volume 
   41334     2333.437     -158.812   -14619.426   -20546.568   -14683.625    647675.72 
   41354    2351.2673   -284.31643   -14618.207    -20590.64    -14733.14    647668.62 
   41829    2302.4767   -69.547366    -14844.02   -20692.521   -14871.898    642224.77 
Loop time of 39.7893 on 1 procs for 495 steps with 19652 atoms

Performance: 1.075 ns/day, 22.328 hours/ns, 12.441 timesteps/s
99.9% CPU use with 1 MPI tasks x no OpenMP threads

MPI task timing breakdown:
Section |  min time  |  avg time  |  max time  |%varavg| %total
---------------------------------------------------------------
Pair    | 19.603     | 19.603     | 19.603     |   0.0 | 49.27
Neigh   | 18.746     | 18.746     | 18.746     |   0.0 | 47.11
Comm    | 0.45155    | 0.45155    | 0.45155    |   0.0 |  1.13
Output  | 0.041189   | 0.041189   | 0.041189   |   0.0 |  0.10
Modify  | 0.70738    | 0.70738    | 0.70738    |   0.0 |  1.78
Other   |            | 0.2404     |            |       |  0.60

Nlocal:    19652 ave 19652 max 19652 min
Histogram: 1 0 0 0 0 0 0 0 0 0
Nghost:    14095 ave 14095 max 14095 min
Histogram: 1 0 0 0 0 0 0 0 0 0
Neighs:    764462 ave 764462 max 764462 min
Histogram: 1 0 0 0 0 0 0 0 0 0

Total # of neighbors = 764462
Ave neighs/atom = 38.9
Neighbor list builds = 495
Dangerous builds not checked
Setting up Verlet run ...
  Unit style    : metal
  Current step  : 41829
  Time step     : 0.001
Per MPI rank memory allocation (min/avg/max) = 18.22 | 18.22 | 18.22 Mbytes
Step Temp Press TotEng PotEng Enthalpy Volume 
   41829    2302.4767   -69.547366    -14844.02   -20692.521   -14871.898    642224.77 
   42001    2282.8342   -109.08572    -14935.15   -20733.757   -14978.819    641380.54 
Loop time of 13.45 on 1 procs for 172 steps with 19652 atoms

Performance: 1.105 ns/day, 21.722 hours/ns, 12.788 timesteps/s
99.9% CPU use with 1 MPI tasks x no OpenMP threads

MPI task timing breakdown:
Section |  min time  |  avg time  |  max time  |%varavg| %total
---------------------------------------------------------------
Pair    | 6.6826     | 6.6826     | 6.6826     |   0.0 | 49.68
Neigh   | 6.2905     | 6.2905     | 6.2905     |   0.0 | 46.77
Comm    | 0.15186    | 0.15186    | 0.15186    |   0.0 |  1.13
Output  | 0.00016308 | 0.00016308 | 0.00016308 |   0.0 |  0.00
Modify  | 0.24296    | 0.24296    | 0.24296    |   0.0 |  1.81
Other   |            | 0.08199    |            |       |  0.61

Nlocal:    19652 ave 19652 max 19652 min
Histogram: 1 0 0 0 0 0 0 0 0 0
Nghost:    14006 ave 14006 max 14006 min
Histogram: 1 0 0 0 0 0 0 0 0 0
Neighs:    764949 ave 764949 max 764949 min
Histogram: 1 0 0 0 0 0 0 0 0 0

Total # of neighbors = 764949
Ave neighs/atom = 38.9247
Neighbor list builds = 172
Dangerous builds not checked
Setting up Verlet run ...
  Unit style    : metal
  Current step  : 42001
  Time step     : 0.001
Per MPI rank memory allocation (min/avg/max) = 18.22 | 18.22 | 18.22 Mbytes
Step Temp Press TotEng PotEng Enthalpy Volume 
   42001    2282.8342   -109.08572    -14935.15   -20733.757   -14978.819    641380.54 
   42021    2289.6789   -223.23692   -14933.722   -20749.715   -15023.087    641374.82 
   42496    2272.2137   -122.71369   -15139.677   -20911.307    -15188.34     635361.6 
Loop time of 39.7732 on 1 procs for 495 steps with 19652 atoms

Performance: 1.075 ns/day, 22.319 hours/ns, 12.446 timesteps/s
99.9% CPU use with 1 MPI tasks x no OpenMP threads

MPI task timing breakdown:
Section |  min time  |  avg time  |  max time  |%varavg| %total
---------------------------------------------------------------
Pair    | 19.64      | 19.64      | 19.64      |   0.0 | 49.38
Neigh   | 18.71      | 18.71      | 18.71      |   0.0 | 47.04
Comm    | 0.44613    | 0.44613    | 0.44613    |   0.0 |  1.12
Output  | 0.038704   | 0.038704   | 0.038704   |   0.0 |  0.10
Modify  | 0.70128    | 0.70128    | 0.70128    |   0.0 |  1.76
Other   |            | 0.2364     |            |       |  0.59

Nlocal:    19652 ave 19652 max 19652 min
Histogram: 1 0 0 0 0 0 0 0 0 0
Nghost:    14077 ave 14077 max 14077 min
Histogram: 1 0 0 0 0 0 0 0 0 0
Neighs:    772452 ave 772452 max 772452 min
Histogram: 1 0 0 0 0 0 0 0 0 0

Total # of neighbors = 772452
Ave neighs/atom = 39.3065
Neighbor list builds = 495
Dangerous builds not checked
Setting up Verlet run ...
  Unit style    : metal
  Current step  : 42496
  Time step     : 0.001
Per MPI rank memory allocation (min/avg/max) = 18.22 | 18.22 | 18.22 Mbytes
Step Temp Press TotEng PotEng Enthalpy Volume 
   42496    2272.2137   -122.71369   -15139.677   -20911.307    -15188.34     635361.6 
   42668    2247.1259     -483.144   -15235.302   -20943.206   -15426.599    634370.27 
Loop time of 13.5469 on 1 procs for 172 steps with 19652 atoms

Performance: 1.097 ns/day, 21.878 hours/ns, 12.697 timesteps/s
99.9% CPU use with 1 MPI tasks x no OpenMP threads

MPI task timing breakdown:
Section |  min time  |  avg time  |  max time  |%varavg| %total
---------------------------------------------------------------
Pair    | 6.7496     | 6.7496     | 6.7496     |   0.0 | 49.82
Neigh   | 6.3195     | 6.3195     | 6.3195     |   0.0 | 46.65
Comm    | 0.15176    | 0.15176    | 0.15176    |   0.0 |  1.12
Output  | 0.00016594 | 0.00016594 | 0.00016594 |   0.0 |  0.00
Modify  | 0.24416    | 0.24416    | 0.24416    |   0.0 |  1.80
Other   |            | 0.08174    |            |       |  0.60

Nlocal:    19652 ave 19652 max 19652 min
Histogram: 1 0 0 0 0 0 0 0 0 0
Nghost:    14139 ave 14139 max 14139 min
Histogram: 1 0 0 0 0 0 0 0 0 0
Neighs:    773540 ave 773540 max 773540 min
Histogram: 1 0 0 0 0 0 0 0 0 0

Total # of neighbors = 773540
Ave neighs/atom = 39.3619
Neighbor list builds = 172
Dangerous builds not checked
Setting up Verlet run ...
  Unit style    : metal
  Current step  : 42668
  Time step     : 0.001
Per MPI rank memory allocation (min/avg/max) = 18.22 | 18.22 | 18.22 Mbytes
Step Temp Press TotEng PotEng Enthalpy Volume 
   42668    2247.1259     -483.144   -15235.302   -20943.206   -15426.599    634370.27 
   42688    2251.9884    -544.3009   -15235.132   -20955.388   -15450.637    634350.66 
   43163    2222.4968    27.177862   -15508.392   -21153.736   -15497.779     625600.9 
Loop time of 39.8661 on 1 procs for 495 steps with 19652 atoms

Performance: 1.073 ns/day, 22.372 hours/ns, 12.417 timesteps/s
99.8% CPU use with 1 MPI tasks x no OpenMP threads

MPI task timing breakdown:
Section |  min time  |  avg time  |  max time  |%varavg| %total
---------------------------------------------------------------
Pair    | 19.919     | 19.919     | 19.919     |   0.0 | 49.96
Neigh   | 18.499     | 18.499     | 18.499     |   0.0 | 46.40
Comm    | 0.45176    | 0.45176    | 0.45176    |   0.0 |  1.13
Output  | 0.039261   | 0.039261   | 0.039261   |   0.0 |  0.10
Modify  | 0.71097    | 0.71097    | 0.71097    |   0.0 |  1.78
Other   |            | 0.2463     |            |       |  0.62

Nlocal:    19652 ave 19652 max 19652 min
Histogram: 1 0 0 0 0 0 0 0 0 0
Nghost:    14175 ave 14175 max 14175 min
Histogram: 1 0 0 0 0 0 0 0 0 0
Neighs:    784447 ave 784447 max 784447 min
Histogram: 1 0 0 0 0 0 0 0 0 0

Total # of neighbors = 784447
Ave neighs/atom = 39.9169
Neighbor list builds = 495
Dangerous builds not checked
Setting up Verlet run ...
  Unit style    : metal
  Current step  : 43163
  Time step     : 0.001
Per MPI rank memory allocation (min/avg/max) = 18.22 | 18.22 | 18.22 Mbytes
Step Temp Press TotEng PotEng Enthalpy Volume 
   43163    2222.4968    27.177862   -15508.392   -21153.736   -15497.779     625600.9 
   43335    2191.7991   -133.91345     -15605.6   -21172.969   -15657.852    625156.89 
Loop time of 13.7735 on 1 procs for 172 steps with 19652 atoms

Performance: 1.079 ns/day, 22.244 hours/ns, 12.488 timesteps/s
99.9% CPU use with 1 MPI tasks x no OpenMP threads

MPI task timing breakdown:
Section |  min time  |  avg time  |  max time  |%varavg| %total
---------------------------------------------------------------
Pair    | 6.9184     | 6.9184     | 6.9184     |   0.0 | 50.23
Neigh   | 6.3696     | 6.3696     | 6.3696     |   0.0 | 46.25
Comm    | 0.15493    | 0.15493    | 0.15493    |   0.0 |  1.12
Output  | 0.00015497 | 0.00015497 | 0.00015497 |   0.0 |  0.00
Modify  | 0.24571    | 0.24571    | 0.24571    |   0.0 |  1.78
Other   |            | 0.08471    |            |       |  0.62

Nlocal:    19652 ave 19652 max 19652 min
Histogram: 1 0 0 0 0 0 0 0 0 0
Nghost:    14161 ave 14161 max 14161 min
Histogram: 1 0 0 0 0 0 0 0 0 0
Neighs:    784993 ave 784993 max 784993 min
Histogram: 1 0 0 0 0 0 0 0 0 0

Total # of neighbors = 784993
Ave neighs/atom = 39.9447
Neighbor list builds = 172
Dangerous builds not checked
Setting up Verlet run ...
  Unit style    : metal
  Current step  : 43335
  Time step     : 0.001
Per MPI rank memory allocation (min/avg/max) = 18.22 | 18.22 | 18.22 Mbytes
Step Temp Press TotEng PotEng Enthalpy Volume 
   43335    2191.7991   -133.91345     -15605.6   -21172.969   -15657.852    625156.89 
   43355    2197.2104   -104.74483   -15605.413   -21186.528   -15646.284    625150.69 
   43830    2173.9287    248.68982   -15827.242   -21349.219    -15731.17    618943.53 
Loop time of 40.2846 on 1 procs for 495 steps with 19652 atoms

Performance: 1.062 ns/day, 22.606 hours/ns, 12.288 timesteps/s
99.9% CPU use with 1 MPI tasks x no OpenMP threads

MPI task timing breakdown:
Section |  min time  |  avg time  |  max time  |%varavg| %total
---------------------------------------------------------------
Pair    | 20.139     | 20.139     | 20.139     |   0.0 | 49.99
Neigh   | 18.718     | 18.718     | 18.718     |   0.0 | 46.46
Comm    | 0.44905    | 0.44905    | 0.44905    |   0.0 |  1.11
Output  | 0.0389     | 0.0389     | 0.0389     |   0.0 |  0.10
Modify  | 0.70248    | 0.70248    | 0.70248    |   0.0 |  1.74
Other   |            | 0.2374     |            |       |  0.59

Nlocal:    19652 ave 19652 max 19652 min
Histogram: 1 0 0 0 0 0 0 0 0 0
Nghost:    14309 ave 14309 max 14309 min
Histogram: 1 0 0 0 0 0 0 0 0 0
Neighs:    793196 ave 793196 max 793196 min
Histogram: 1 0 0 0 0 0 0 0 0 0

Total # of neighbors = 793196
Ave neighs/atom = 40.3621
Neighbor list builds = 495
Dangerous builds not checked
Setting up Verlet run ...
  Unit style    : metal
  Current step  : 43830
  Time step     : 0.001
Per MPI rank memory allocation (min/avg/max) = 18.22 | 18.22 | 18.22 Mbytes
Step Temp Press TotEng PotEng Enthalpy Volume 
   43830    2173.9287    248.68982   -15827.242   -21349.219    -15731.17    618943.53 
   44002    2149.8946   -306.21752   -15917.643   -21378.571   -16035.976    619134.64 
Loop time of 13.7003 on 1 procs for 172 steps with 19652 atoms

Performance: 1.085 ns/day, 22.126 hours/ns, 12.554 timesteps/s
99.9% CPU use with 1 MPI tasks x no OpenMP threads

MPI task timing breakdown:
Section |  min time  |  avg time  |  max time  |%varavg| %total
---------------------------------------------------------------
Pair    | 6.8962     | 6.8962     | 6.8962     |   0.0 | 50.34
Neigh   | 6.3245     | 6.3245     | 6.3245     |   0.0 | 46.16
Comm    | 0.15372    | 0.15372    | 0.15372    |   0.0 |  1.12
Output  | 0.00018692 | 0.00018692 | 0.00018692 |   0.0 |  0.00
Modify  | 0.24428    | 0.24428    | 0.24428    |   0.0 |  1.78
Other   |            | 0.0814     |            |       |  0.59

Nlocal:    19652 ave 19652 max 19652 min
Histogram: 1 0 0 0 0 0 0 0 0 0
Nghost:    14183 ave 14183 max 14183 min
Histogram: 1 0 0 0 0 0 0 0 0 0
Neighs:    792217 ave 792217 max 792217 min
Histogram: 1 0 0 0 0 0 0 0 0 0

Total # of neighbors = 792217
Ave neighs/atom = 40.3123
Neighbor list builds = 172
Dangerous builds not checked
Setting up Verlet run ...
  Unit style    : metal
  Current step  : 44002
  Time step     : 0.001
Per MPI rank memory allocation (min/avg/max) = 18.22 | 18.22 | 18.22 Mbytes
Step Temp Press TotEng PotEng Enthalpy Volume 
   44002    2149.8946   -306.21752   -15917.643   -21378.571   -16035.976    619134.64 
   44022    2143.6889   -295.40722   -15917.328   -21362.493   -16031.481    619123.39 
   44497    2113.8256    121.05089   -16183.447   -21552.757   -16137.213    611939.24 
Loop time of 40.9874 on 1 procs for 495 steps with 19652 atoms

Performance: 1.043 ns/day, 23.001 hours/ns, 12.077 timesteps/s
99.9% CPU use with 1 MPI tasks x no OpenMP threads

MPI task timing breakdown:
Section |  min time  |  avg time  |  max time  |%varavg| %total
---------------------------------------------------------------
Pair    | 20.435     | 20.435     | 20.435     |   0.0 | 49.86
Neigh   | 19.113     | 19.113     | 19.113     |   0.0 | 46.63
Comm    | 0.45078    | 0.45078    | 0.45078    |   0.0 |  1.10
Output  | 0.039881   | 0.039881   | 0.039881   |   0.0 |  0.10
Modify  | 0.70558    | 0.70558    | 0.70558    |   0.0 |  1.72
Other   |            | 0.2428     |            |       |  0.59

Nlocal:    19652 ave 19652 max 19652 min
Histogram: 1 0 0 0 0 0 0 0 0 0
Nghost:    14262 ave 14262 max 14262 min
Histogram: 1 0 0 0 0 0 0 0 0 0
Neighs:    801882 ave 801882 max 801882 min
Histogram: 1 0 0 0 0 0 0 0 0 0

Total # of neighbors = 801882
Ave neighs/atom = 40.8041
Neighbor list builds = 495
Dangerous builds not checked
Setting up Verlet run ...
  Unit style    : metal
  Current step  : 44497
  Time step     : 0.001
Per MPI rank memory allocation (min/avg/max) = 18.22 | 18.22 | 18.22 Mbytes
Step Temp Press TotEng PotEng Enthalpy Volume 
   44497    2113.8256    121.05089   -16183.447   -21552.757   -16137.213    611939.24 
   44669    2086.6307   -194.68009   -16262.836   -21563.068   -16337.209    612069.13 
Loop time of 14.447 on 1 procs for 172 steps with 19652 atoms

Performance: 1.029 ns/day, 23.332 hours/ns, 11.906 timesteps/s
99.8% CPU use with 1 MPI tasks x no OpenMP threads

MPI task timing breakdown:
Section |  min time  |  avg time  |  max time  |%varavg| %total
---------------------------------------------------------------
Pair    | 7.0738     | 7.0738     | 7.0738     |   0.0 | 48.96
Neigh   | 6.8794     | 6.8794     | 6.8794     |   0.0 | 47.62
Comm    | 0.15757    | 0.15757    | 0.15757    |   0.0 |  1.09
Output  | 0.00016117 | 0.00016117 | 0.00016117 |   0.0 |  0.00
Modify  | 0.24916    | 0.24916    | 0.24916    |   0.0 |  1.72
Other   |            | 0.08691    |            |       |  0.60

Nlocal:    19652 ave 19652 max 19652 min
Histogram: 1 0 0 0 0 0 0 0 0 0
Nghost:    14266 ave 14266 max 14266 min
Histogram: 1 0 0 0 0 0 0 0 0 0
Neighs:    801927 ave 801927 max 801927 min
Histogram: 1 0 0 0 0 0 0 0 0 0

Total # of neighbors = 801927
Ave neighs/atom = 40.8064
Neighbor list builds = 172
Dangerous builds not checked
Setting up Verlet run ...
  Unit style    : metal
  Current step  : 44669
  Time step     : 0.001
Per MPI rank memory allocation (min/avg/max) = 18.22 | 18.22 | 18.22 Mbytes
Step Temp Press TotEng PotEng Enthalpy Volume 
   44669    2086.6307   -194.68009   -16262.836   -21563.068   -16337.209    612069.13 
   44689    2086.0996   -120.66461   -16261.531   -21560.414   -16307.627    612062.27 
   45164    2059.3806   -248.94981   -16443.737   -21674.751   -16538.384    609126.56 
Loop time of 41.3397 on 1 procs for 495 steps with 19652 atoms

Performance: 1.035 ns/day, 23.198 hours/ns, 11.974 timesteps/s
99.9% CPU use with 1 MPI tasks x no OpenMP threads

MPI task timing breakdown:
Section |  min time  |  avg time  |  max time  |%varavg| %total
---------------------------------------------------------------
Pair    | 20.129     | 20.129     | 20.129     |   0.0 | 48.69
Neigh   | 19.799     | 19.799     | 19.799     |   0.0 | 47.89
Comm    | 0.43893    | 0.43893    | 0.43893    |   0.0 |  1.06
Output  | 0.04111    | 0.04111    | 0.04111    |   0.0 |  0.10
Modify  | 0.69759    | 0.69759    | 0.69759    |   0.0 |  1.69
Other   |            | 0.2348     |            |       |  0.57

Nlocal:    19652 ave 19652 max 19652 min
Histogram: 1 0 0 0 0 0 0 0 0 0
Nghost:    14319 ave 14319 max 14319 min
Histogram: 1 0 0 0 0 0 0 0 0 0
Neighs:    805771 ave 805771 max 805771 min
Histogram: 1 0 0 0 0 0 0 0 0 0

Total # of neighbors = 805771
Ave neighs/atom = 41.002
Neighbor list builds = 495
Dangerous builds not checked
Setting up Verlet run ...
  Unit style    : metal
  Current step  : 45164
  Time step     : 0.001
Per MPI rank memory allocation (min/avg/max) = 18.22 | 18.22 | 18.22 Mbytes
Step Temp Press TotEng PotEng Enthalpy Volume 
   45164    2059.3806   -248.94981   -16443.737   -21674.751   -16538.384    609126.56 
   45336    2046.1697   -224.33484   -16504.277   -21701.735   -16589.456    608337.71 
Loop time of 14.4573 on 1 procs for 172 steps with 19652 atoms

Performance: 1.028 ns/day, 23.348 hours/ns, 11.897 timesteps/s
99.9% CPU use with 1 MPI tasks x no OpenMP threads

MPI task timing breakdown:
Section |  min time  |  avg time  |  max time  |%varavg| %total
---------------------------------------------------------------
Pair    | 7.0945     | 7.0945     | 7.0945     |   0.0 | 49.07
Neigh   | 6.8637     | 6.8637     | 6.8637     |   0.0 | 47.48
Comm    | 0.15989    | 0.15989    | 0.15989    |   0.0 |  1.11
Output  | 0.00016499 | 0.00016499 | 0.00016499 |   0.0 |  0.00
Modify  | 0.25126    | 0.25126    | 0.25126    |   0.0 |  1.74
Other   |            | 0.08783    |            |       |  0.61

Nlocal:    19652 ave 19652 max 19652 min
Histogram: 1 0 0 0 0 0 0 0 0 0
Nghost:    14323 ave 14323 max 14323 min
Histogram: 1 0 0 0 0 0 0 0 0 0
Neighs:    805954 ave 805954 max 805954 min
Histogram: 1 0 0 0 0 0 0 0 0 0

Total # of neighbors = 805954
Ave neighs/atom = 41.0113
Neighbor list builds = 172
Dangerous builds not checked
Setting up Verlet run ...
  Unit style    : metal
  Current step  : 45336
  Time step     : 0.001
Per MPI rank memory allocation (min/avg/max) = 18.22 | 18.22 | 18.22 Mbytes
Step Temp Press TotEng PotEng Enthalpy Volume 
   45336    2046.1697   -224.33484   -16504.277   -21701.735   -16589.456    608337.71 
   45356    2043.6887   -160.82406   -16503.585    -21694.74   -16564.648    608330.26 
   45831    2017.8845    116.67938   -16756.372   -21881.983   -16712.557    601645.88 
Loop time of 42.4037 on 1 procs for 495 steps with 19652 atoms

Performance: 1.009 ns/day, 23.796 hours/ns, 11.674 timesteps/s
99.9% CPU use with 1 MPI tasks x no OpenMP threads

MPI task timing breakdown:
Section |  min time  |  avg time  |  max time  |%varavg| %total
---------------------------------------------------------------
Pair    | 20.682     | 20.682     | 20.682     |   0.0 | 48.77
Neigh   | 20.274     | 20.274     | 20.274     |   0.0 | 47.81
Comm    | 0.45522    | 0.45522    | 0.45522    |   0.0 |  1.07
Output  | 0.041047   | 0.041047   | 0.041047   |   0.0 |  0.10
Modify  | 0.70831    | 0.70831    | 0.70831    |   0.0 |  1.67
Other   |            | 0.2437     |            |       |  0.57

Nlocal:    19652 ave 19652 max 19652 min
Histogram: 1 0 0 0 0 0 0 0 0 0
Nghost:    14384 ave 14384 max 14384 min
Histogram: 1 0 0 0 0 0 0 0 0 0
Neighs:    816040 ave 816040 max 816040 min
Histogram: 1 0 0 0 0 0 0 0 0 0

Total # of neighbors = 816040
Ave neighs/atom = 41.5245
Neighbor list builds = 495
Dangerous builds not checked
Setting up Verlet run ...
  Unit style    : metal
  Current step  : 45831
  Time step     : 0.001
Per MPI rank memory allocation (min/avg/max) = 18.22 | 18.22 | 18.22 Mbytes
Step Temp Press TotEng PotEng Enthalpy Volume 
   45831    2017.8845    116.67938   -16756.372   -21881.983   -16712.557    601645.88 
   46003    1996.1907   -151.14267   -16836.809   -21907.315   -16893.589     601893.9 
Loop time of 14.32 on 1 procs for 172 steps with 19652 atoms

Performance: 1.038 ns/day, 23.127 hours/ns, 12.011 timesteps/s
99.9% CPU use with 1 MPI tasks x no OpenMP threads

MPI task timing breakdown:
Section |  min time  |  avg time  |  max time  |%varavg| %total
---------------------------------------------------------------
Pair    | 7.0448     | 7.0448     | 7.0448     |   0.0 | 49.20
Neigh   | 6.7989     | 6.7989     | 6.7989     |   0.0 | 47.48
Comm    | 0.15215    | 0.15215    | 0.15215    |   0.0 |  1.06
Output  | 0.00018907 | 0.00018907 | 0.00018907 |   0.0 |  0.00
Modify  | 0.24208    | 0.24208    | 0.24208    |   0.0 |  1.69
Other   |            | 0.08179    |            |       |  0.57

Nlocal:    19652 ave 19652 max 19652 min
Histogram: 1 0 0 0 0 0 0 0 0 0
Nghost:    14392 ave 14392 max 14392 min
Histogram: 1 0 0 0 0 0 0 0 0 0
Neighs:    815174 ave 815174 max 815174 min
Histogram: 1 0 0 0 0 0 0 0 0 0

Total # of neighbors = 815174
Ave neighs/atom = 41.4805
Neighbor list builds = 172
Dangerous builds not checked
Setting up Verlet run ...
  Unit style    : metal
  Current step  : 46003
  Time step     : 0.001
Per MPI rank memory allocation (min/avg/max) = 18.22 | 18.22 | 18.22 Mbytes
Step Temp Press TotEng PotEng Enthalpy Volume 
   46003    1996.1907   -151.14267   -16836.809   -21907.315   -16893.589     601893.9 
   46023    1988.3389    -100.3776   -16836.401   -21886.963   -16874.109    601887.79 
   46498    1961.5554     370.5714   -17041.931    -22024.46   -16903.838    597045.66 
Loop time of 42.2717 on 1 procs for 495 steps with 19652 atoms

Performance: 1.012 ns/day, 23.722 hours/ns, 11.710 timesteps/s
99.9% CPU use with 1 MPI tasks x no OpenMP threads

MPI task timing breakdown:
Section |  min time  |  avg time  |  max time  |%varavg| %total
---------------------------------------------------------------
Pair    | 20.683     | 20.683     | 20.683     |   0.0 | 48.93
Neigh   | 20.16      | 20.16      | 20.16      |   0.0 | 47.69
Comm    | 0.44743    | 0.44743    | 0.44743    |   0.0 |  1.06
Output  | 0.03904    | 0.03904    | 0.03904    |   0.0 |  0.09
Modify  | 0.7058     | 0.7058     | 0.7058     |   0.0 |  1.67
Other   |            | 0.2369     |            |       |  0.56

Nlocal:    19652 ave 19652 max 19652 min
Histogram: 1 0 0 0 0 0 0 0 0 0
Nghost:    14394 ave 14394 max 14394 min
Histogram: 1 0 0 0 0 0 0 0 0 0
Neighs:    822226 ave 822226 max 822226 min
Histogram: 1 0 0 0 0 0 0 0 0 0

Total # of neighbors = 822226
Ave neighs/atom = 41.8393
Neighbor list builds = 495
Dangerous builds not checked
Setting up Verlet run ...
  Unit style    : metal
  Current step  : 46498
  Time step     : 0.001
Per MPI rank memory allocation (min/avg/max) = 18.22 | 18.22 | 18.22 Mbytes
Step Temp Press TotEng PotEng Enthalpy Volume 
   46498    1961.5554     370.5714   -17041.931    -22024.46   -16903.838    597045.66 
   46670    1928.7817   -249.94489   -17118.589    -22017.87   -17211.836    597726.82 
Loop time of 14.459 on 1 procs for 172 steps with 19652 atoms

Performance: 1.028 ns/day, 23.351 hours/ns, 11.896 timesteps/s
99.8% CPU use with 1 MPI tasks x no OpenMP threads

MPI task timing breakdown:
Section |  min time  |  avg time  |  max time  |%varavg| %total
---------------------------------------------------------------
Pair    | 7.1424     | 7.1424     | 7.1424     |   0.0 | 49.40
Neigh   | 6.8322     | 6.8322     | 6.8322     |   0.0 | 47.25
Comm    | 0.15519    | 0.15519    | 0.15519    |   0.0 |  1.07
Output  | 0.00016904 | 0.00016904 | 0.00016904 |   0.0 |  0.00
Modify  | 0.24554    | 0.24554    | 0.24554    |   0.0 |  1.70
Other   |            | 0.08346    |            |       |  0.58

Nlocal:    19652 ave 19652 max 19652 min
Histogram: 1 0 0 0 0 0 0 0 0 0
Nghost:    14420 ave 14420 max 14420 min
Histogram: 1 0 0 0 0 0 0 0 0 0
Neighs:    820549 ave 820549 max 820549 min
Histogram: 1 0 0 0 0 0 0 0 0 0

Total # of neighbors = 820549
Ave neighs/atom = 41.754
Neighbor list builds = 172
Dangerous builds not checked
Setting up Verlet run ...
  Unit style    : metal
  Current step  : 46670
  Time step     : 0.001
Per MPI rank memory allocation (min/avg/max) = 18.22 | 18.22 | 18.22 Mbytes
Step Temp Press TotEng PotEng Enthalpy Volume 
   46670    1928.7817   -249.94489   -17118.589    -22017.87   -17211.836    597726.82 
   46690    1947.4859   -471.30224    -17117.51   -22064.302   -17293.335    597711.62 
   47165    1914.6255    111.74559   -17354.552   -22217.875   -17313.292    591575.91 
Loop time of 42.0821 on 1 procs for 495 steps with 19652 atoms

Performance: 1.016 ns/day, 23.615 hours/ns, 11.763 timesteps/s
99.9% CPU use with 1 MPI tasks x no OpenMP threads

MPI task timing breakdown:
Section |  min time  |  avg time  |  max time  |%varavg| %total
---------------------------------------------------------------
Pair    | 20.745     | 20.745     | 20.745     |   0.0 | 49.30
Neigh   | 19.904     | 19.904     | 19.904     |   0.0 | 47.30
Comm    | 0.44725    | 0.44725    | 0.44725    |   0.0 |  1.06
Output  | 0.040762   | 0.040762   | 0.040762   |   0.0 |  0.10
Modify  | 0.70305    | 0.70305    | 0.70305    |   0.0 |  1.67
Other   |            | 0.2423     |            |       |  0.58

Nlocal:    19652 ave 19652 max 19652 min
Histogram: 1 0 0 0 0 0 0 0 0 0
Nghost:    14476 ave 14476 max 14476 min
Histogram: 1 0 0 0 0 0 0 0 0 0
Neighs:    829648 ave 829648 max 829648 min
Histogram: 1 0 0 0 0 0 0 0 0 0

Total # of neighbors = 829648
Ave neighs/atom = 42.217
Neighbor list builds = 495
Dangerous builds not checked
Setting up Verlet run ...
  Unit style    : metal
  Current step  : 47165
  Time step     : 0.001
Per MPI rank memory allocation (min/avg/max) = 18.22 | 18.22 | 18.22 Mbytes
Step Temp Press TotEng PotEng Enthalpy Volume 
   47165    1914.6255    111.74559   -17354.552   -22217.875   -17313.292    591575.91 
   47337    1893.7414   -44.600418   -17428.409   -22238.685   -17444.885    591852.72 
Loop time of 14.6203 on 1 procs for 172 steps with 19652 atoms

Performance: 1.016 ns/day, 23.612 hours/ns, 11.764 timesteps/s
99.9% CPU use with 1 MPI tasks x no OpenMP threads

MPI task timing breakdown:
Section |  min time  |  avg time  |  max time  |%varavg| %total
---------------------------------------------------------------
Pair    | 7.2617     | 7.2617     | 7.2617     |   0.0 | 49.67
Neigh   | 6.8682     | 6.8682     | 6.8682     |   0.0 | 46.98
Comm    | 0.15655    | 0.15655    | 0.15655    |   0.0 |  1.07
Output  | 0.00016809 | 0.00016809 | 0.00016809 |   0.0 |  0.00
Modify  | 0.2475     | 0.2475     | 0.2475     |   0.0 |  1.69
Other   |            | 0.08617    |            |       |  0.59

Nlocal:    19652 ave 19652 max 19652 min
Histogram: 1 0 0 0 0 0 0 0 0 0
Nghost:    14465 ave 14465 max 14465 min
Histogram: 1 0 0 0 0 0 0 0 0 0
Neighs:    828753 ave 828753 max 828753 min
Histogram: 1 0 0 0 0 0 0 0 0 0

Total # of neighbors = 828753
Ave neighs/atom = 42.1714
Neighbor list builds = 172
Dangerous builds not checked
Setting up Verlet run ...
  Unit style    : metal
  Current step  : 47337
  Time step     : 0.001
Per MPI rank memory allocation (min/avg/max) = 18.22 | 18.22 | 18.22 Mbytes
Step Temp Press TotEng PotEng Enthalpy Volume 
   47337    1893.7414   -44.600418   -17428.409   -22238.685   -17444.885    591852.72 
   47357     1893.025    -84.75124   -17427.933   -22236.389   -17459.241    591849.78 
   47832    1869.6971    283.95592   -17645.444   -22394.645   -17541.484    586575.28 
Loop time of 42.7424 on 1 procs for 495 steps with 19652 atoms

Performance: 1.001 ns/day, 23.986 hours/ns, 11.581 timesteps/s
99.9% CPU use with 1 MPI tasks x no OpenMP threads

MPI task timing breakdown:
Section |  min time  |  avg time  |  max time  |%varavg| %total
---------------------------------------------------------------
Pair    | 21.1       | 21.1       | 21.1       |   0.0 | 49.37
Neigh   | 20.212     | 20.212     | 20.212     |   0.0 | 47.29
Comm    | 0.44861    | 0.44861    | 0.44861    |   0.0 |  1.05
Output  | 0.039127   | 0.039127   | 0.039127   |   0.0 |  0.09
Modify  | 0.7014     | 0.7014     | 0.7014     |   0.0 |  1.64
Other   |            | 0.2406     |            |       |  0.56

Nlocal:    19652 ave 19652 max 19652 min
Histogram: 1 0 0 0 0 0 0 0 0 0
Nghost:    14544 ave 14544 max 14544 min
Histogram: 1 0 0 0 0 0 0 0 0 0
Neighs:    837163 ave 837163 max 837163 min
Histogram: 1 0 0 0 0 0 0 0 0 0

Total # of neighbors = 837163
Ave neighs/atom = 42.5994
Neighbor list builds = 495
Dangerous builds not checked
Setting up Verlet run ...
  Unit style    : metal
  Current step  : 47832
  Time step     : 0.001
Per MPI rank memory allocation (min/avg/max) = 18.22 | 18.22 | 18.22 Mbytes
Step Temp Press TotEng PotEng Enthalpy Volume 
   47832    1869.6971    283.95592   -17645.444   -22394.645   -17541.484    586575.28 
   48004     1845.491   -315.98051   -17729.337   -22417.053   -17845.159    587274.39 
Loop time of 14.6708 on 1 procs for 172 steps with 19652 atoms

Performance: 1.013 ns/day, 23.693 hours/ns, 11.724 timesteps/s
99.9% CPU use with 1 MPI tasks x no OpenMP threads

MPI task timing breakdown:
Section |  min time  |  avg time  |  max time  |%varavg| %total
---------------------------------------------------------------
Pair    | 7.3025     | 7.3025     | 7.3025     |   0.0 | 49.78
Neigh   | 6.8787     | 6.8787     | 6.8787     |   0.0 | 46.89
Comm    | 0.1567     | 0.1567     | 0.1567     |   0.0 |  1.07
Output  | 0.00016308 | 0.00016308 | 0.00016308 |   0.0 |  0.00
Modify  | 0.24644    | 0.24644    | 0.24644    |   0.0 |  1.68
Other   |            | 0.08619    |            |       |  0.59

Nlocal:    19652 ave 19652 max 19652 min
Histogram: 1 0 0 0 0 0 0 0 0 0
Nghost:    14634 ave 14634 max 14634 min
Histogram: 1 0 0 0 0 0 0 0 0 0
Neighs:    835546 ave 835546 max 835546 min
Histogram: 1 0 0 0 0 0 0 0 0 0

Total # of neighbors = 835546
Ave neighs/atom = 42.5171
Neighbor list builds = 172
Dangerous builds not checked
Setting up Verlet run ...
  Unit style    : metal
  Current step  : 48004
  Time step     : 0.001
Per MPI rank memory allocation (min/avg/max) = 18.22 | 18.22 | 18.22 Mbytes
Step Temp Press TotEng PotEng Enthalpy Volume 
   48004     1845.491   -315.98051   -17729.337   -22417.053   -17845.159    587274.39 
   48024    1849.6687   -309.90974   -17729.028   -22427.355   -17842.623    587261.51 
   48499     1814.168   -69.329449   -17889.137   -22497.289    -17914.42    584280.41 
Loop time of 43.0207 on 1 procs for 495 steps with 19652 atoms

Performance: 0.994 ns/day, 24.142 hours/ns, 11.506 timesteps/s
99.8% CPU use with 1 MPI tasks x no OpenMP threads

MPI task timing breakdown:
Section |  min time  |  avg time  |  max time  |%varavg| %total
---------------------------------------------------------------
Pair    | 21.309     | 21.309     | 21.309     |   0.0 | 49.53
Neigh   | 20.258     | 20.258     | 20.258     |   0.0 | 47.09
Comm    | 0.45995    | 0.45995    | 0.45995    |   0.0 |  1.07
Output  | 0.03897    | 0.03897    | 0.03897    |   0.0 |  0.09
Modify  | 0.70945    | 0.70945    | 0.70945    |   0.0 |  1.65
Other   |            | 0.2447     |            |       |  0.57

Nlocal:    19652 ave 19652 max 19652 min
Histogram: 1 0 0 0 0 0 0 0 0 0
Nghost:    14607 ave 14607 max 14607 min
Histogram: 1 0 0 0 0 0 0 0 0 0
Neighs:    839757 ave 839757 max 839757 min
Histogram: 1 0 0 0 0 0 0 0 0 0

Total # of neighbors = 839757
Ave neighs/atom = 42.7314
Neighbor list builds = 495
Dangerous builds not checked
Setting up Verlet run ...
  Unit style    : metal
  Current step  : 48499
  Time step     : 0.001
Per MPI rank memory allocation (min/avg/max) = 18.22 | 18.22 | 18.22 Mbytes
Step Temp Press TotEng PotEng Enthalpy Volume 
   48499     1814.168   -69.329449   -17889.137   -22497.289    -17914.42    584280.41 
   48671    1808.1014   -416.71597   -17973.356   -22566.098   -18125.161    583655.47 
Loop time of 14.6121 on 1 procs for 172 steps with 19652 atoms

Performance: 1.017 ns/day, 23.598 hours/ns, 11.771 timesteps/s
99.9% CPU use with 1 MPI tasks x no OpenMP threads

MPI task timing breakdown:
Section |  min time  |  avg time  |  max time  |%varavg| %total
---------------------------------------------------------------
Pair    | 7.288      | 7.288      | 7.288      |   0.0 | 49.88
Neigh   | 6.8444     | 6.8444     | 6.8444     |   0.0 | 46.84
Comm    | 0.15302    | 0.15302    | 0.15302    |   0.0 |  1.05
Output  | 0.00017405 | 0.00017405 | 0.00017405 |   0.0 |  0.00
Modify  | 0.24343    | 0.24343    | 0.24343    |   0.0 |  1.67
Other   |            | 0.08301    |            |       |  0.57

Nlocal:    19652 ave 19652 max 19652 min
Histogram: 1 0 0 0 0 0 0 0 0 0
Nghost:    14599 ave 14599 max 14599 min
Histogram: 1 0 0 0 0 0 0 0 0 0
Neighs:    840663 ave 840663 max 840663 min
Histogram: 1 0 0 0 0 0 0 0 0 0

Total # of neighbors = 840663
Ave neighs/atom = 42.7775
Neighbor list builds = 172
Dangerous builds not checked
Setting up Verlet run ...
  Unit style    : metal
  Current step  : 48671
  Time step     : 0.001
Per MPI rank memory allocation (min/avg/max) = 18.22 | 18.22 | 18.22 Mbytes
Step Temp Press TotEng PotEng Enthalpy Volume 
   48671    1808.1014   -416.71597   -17973.356   -22566.098   -18125.161    583655.47 
   48691    1798.2105   -245.08647    -17973.83   -22541.448    -18063.11    583640.78 
   49166    1768.8861    40.751716    -18186.05   -22679.182    -18171.32    579126.45 
Loop time of 42.5605 on 1 procs for 495 steps with 19652 atoms

Performance: 1.005 ns/day, 23.884 hours/ns, 11.631 timesteps/s
99.9% CPU use with 1 MPI tasks x no OpenMP threads

MPI task timing breakdown:
Section |  min time  |  avg time  |  max time  |%varavg| %total
---------------------------------------------------------------
Pair    | 21.215     | 21.215     | 21.215     |   0.0 | 49.85
Neigh   | 19.911     | 19.911     | 19.911     |   0.0 | 46.78
Comm    | 0.44789    | 0.44789    | 0.44789    |   0.0 |  1.05
Output  | 0.038945   | 0.038945   | 0.038945   |   0.0 |  0.09
Modify  | 0.70382    | 0.70382    | 0.70382    |   0.0 |  1.65
Other   |            | 0.2438     |            |       |  0.57

Nlocal:    19652 ave 19652 max 19652 min
Histogram: 1 0 0 0 0 0 0 0 0 0
Nghost:    14622 ave 14622 max 14622 min
Histogram: 1 0 0 0 0 0 0 0 0 0
Neighs:    847496 ave 847496 max 847496 min
Histogram: 1 0 0 0 0 0 0 0 0 0

Total # of neighbors = 847496
Ave neighs/atom = 43.1252
Neighbor list builds = 495
Dangerous builds not checked
Setting up Verlet run ...
  Unit style    : metal
  Current step  : 49166
  Time step     : 0.001
Per MPI rank memory allocation (min/avg/max) = 18.22 | 18.22 | 18.22 Mbytes
Step Temp Press TotEng PotEng Enthalpy Volume 
   49166    1768.8861    40.751716    -18186.05   -22679.182    -18171.32    579126.45 
   49338    1745.3465   -319.98923   -18266.224   -22699.563   -18381.896    579167.75 
Loop time of 14.7579 on 1 procs for 172 steps with 19652 atoms

Performance: 1.007 ns/day, 23.834 hours/ns, 11.655 timesteps/s
99.8% CPU use with 1 MPI tasks x no OpenMP threads

MPI task timing breakdown:
Section |  min time  |  avg time  |  max time  |%varavg| %total
---------------------------------------------------------------
Pair    | 7.3971     | 7.3971     | 7.3971     |   0.0 | 50.12
Neigh   | 6.8767     | 6.8767     | 6.8767     |   0.0 | 46.60
Comm    | 0.15408    | 0.15408    | 0.15408    |   0.0 |  1.04
Output  | 0.00015903 | 0.00015903 | 0.00015903 |   0.0 |  0.00
Modify  | 0.24463    | 0.24463    | 0.24463    |   0.0 |  1.66
Other   |            | 0.0853     |            |       |  0.58

Nlocal:    19652 ave 19652 max 19652 min
Histogram: 1 0 0 0 0 0 0 0 0 0
Nghost:    14646 ave 14646 max 14646 min
Histogram: 1 0 0 0 0 0 0 0 0 0
Neighs:    847943 ave 847943 max 847943 min
Histogram: 1 0 0 0 0 0 0 0 0 0

Total # of neighbors = 847943
Ave neighs/atom = 43.1479
Neighbor list builds = 172
Dangerous builds not checked
Setting up Verlet run ...
  Unit style    : metal
  Current step  : 49338
  Time step     : 0.001
Per MPI rank memory allocation (min/avg/max) = 18.22 | 18.22 | 18.22 Mbytes
Step Temp Press TotEng PotEng Enthalpy Volume 
   49338    1745.3465   -319.98923   -18266.224   -22699.563   -18381.896    579167.75 
   49358    1743.6434   -215.34564   -18265.961   -22694.975   -18343.804    579154.61 
   49833    1712.1834    53.299405   -18483.341   -22832.443   -18464.218    574845.17 
Loop time of 43.389 on 1 procs for 495 steps with 19652 atoms

Performance: 0.986 ns/day, 24.348 hours/ns, 11.408 timesteps/s
99.8% CPU use with 1 MPI tasks x no OpenMP threads

MPI task timing breakdown:
Section |  min time  |  avg time  |  max time  |%varavg| %total
---------------------------------------------------------------
Pair    | 21.658     | 21.658     | 21.658     |   0.0 | 49.92
Neigh   | 20.279     | 20.279     | 20.279     |   0.0 | 46.74
Comm    | 0.45731    | 0.45731    | 0.45731    |   0.0 |  1.05
Output  | 0.039007   | 0.039007   | 0.039007   |   0.0 |  0.09
Modify  | 0.70941    | 0.70941    | 0.70941    |   0.0 |  1.64
Other   |            | 0.2464     |            |       |  0.57

Nlocal:    19652 ave 19652 max 19652 min
Histogram: 1 0 0 0 0 0 0 0 0 0
Nghost:    14696 ave 14696 max 14696 min
Histogram: 1 0 0 0 0 0 0 0 0 0
Neighs:    854053 ave 854053 max 854053 min
Histogram: 1 0 0 0 0 0 0 0 0 0

Total # of neighbors = 854053
Ave neighs/atom = 43.4588
Neighbor list builds = 495
Dangerous builds not checked
Setting up Verlet run ...
  Unit style    : metal
  Current step  : 49833
  Time step     : 0.001
Per MPI rank memory allocation (min/avg/max) = 18.22 | 18.22 | 18.22 Mbytes
Step Temp Press TotEng PotEng Enthalpy Volume 
   49833    1712.1834    53.299405   -18483.341   -22832.443   -18464.218    574845.17 
   50005    1702.4118    -308.0949   -18557.434   -22881.715   -18667.962    574775.35 
Loop time of 14.7291 on 1 procs for 172 steps with 19652 atoms

Performance: 1.009 ns/day, 23.787 hours/ns, 11.678 timesteps/s
99.9% CPU use with 1 MPI tasks x no OpenMP threads

MPI task timing breakdown:
Section |  min time  |  avg time  |  max time  |%varavg| %total
---------------------------------------------------------------
Pair    | 7.3999     | 7.3999     | 7.3999     |   0.0 | 50.24
Neigh   | 6.8435     | 6.8435     | 6.8435     |   0.0 | 46.46
Comm    | 0.156      | 0.156      | 0.156      |   0.0 |  1.06
Output  | 0.00016212 | 0.00016212 | 0.00016212 |   0.0 |  0.00
Modify  | 0.24543    | 0.24543    | 0.24543    |   0.0 |  1.67
Other   |            | 0.08411    |            |       |  0.57

Nlocal:    19652 ave 19652 max 19652 min
Histogram: 1 0 0 0 0 0 0 0 0 0
Nghost:    14730 ave 14730 max 14730 min
Histogram: 1 0 0 0 0 0 0 0 0 0
Neighs:    854169 ave 854169 max 854169 min
Histogram: 1 0 0 0 0 0 0 0 0 0

Total # of neighbors = 854169
Ave neighs/atom = 43.4647
Neighbor list builds = 172
Dangerous builds not checked
Setting up Verlet run ...
  Unit style    : metal
  Current step  : 50005
  Time step     : 0.001
Per MPI rank memory allocation (min/avg/max) = 18.22 | 18.22 | 18.22 Mbytes
Step Temp Press TotEng PotEng Enthalpy Volume 
   50005    1702.4118    -308.0949   -18557.434   -22881.715   -18667.962    574775.35 
   50025    1708.7093    -361.6425   -18558.002   -22898.279   -18687.736    574761.32 
   50500    1668.3141     449.0269   -18776.676   -23014.345   -18616.968    569853.87 
Loop time of 43.4978 on 1 procs for 495 steps with 19652 atoms

Performance: 0.983 ns/day, 24.410 hours/ns, 11.380 timesteps/s
99.9% CPU use with 1 MPI tasks x no OpenMP threads

MPI task timing breakdown:
Section |  min time  |  avg time  |  max time  |%varavg| %total
---------------------------------------------------------------
Pair    | 21.77      | 21.77      | 21.77      |   0.0 | 50.05
Neigh   | 20.281     | 20.281     | 20.281     |   0.0 | 46.63
Comm    | 0.45485    | 0.45485    | 0.45485    |   0.0 |  1.05
Output  | 0.038921   | 0.038921   | 0.038921   |   0.0 |  0.09
Modify  | 0.70632    | 0.70632    | 0.70632    |   0.0 |  1.62
Other   |            | 0.2459     |            |       |  0.57

Nlocal:    19652 ave 19652 max 19652 min
Histogram: 1 0 0 0 0 0 0 0 0 0
Nghost:    14715 ave 14715 max 14715 min
Histogram: 1 0 0 0 0 0 0 0 0 0
Neighs:    861193 ave 861193 max 861193 min
Histogram: 1 0 0 0 0 0 0 0 0 0

Total # of neighbors = 861193
Ave neighs/atom = 43.8222
Neighbor list builds = 495
Dangerous builds not checked
Setting up Verlet run ...
  Unit style    : metal
  Current step  : 50500
  Time step     : 0.001
Per MPI rank memory allocation (min/avg/max) = 18.22 | 18.22 | 18.22 Mbytes
Step Temp Press TotEng PotEng Enthalpy Volume 
   50500    1668.3141     449.0269   -18776.676   -23014.345   -18616.968    569853.87 
   50672     1645.508   -397.41367   -18844.769   -23024.509   -18986.343     570754.6 
Loop time of 14.776 on 1 procs for 172 steps with 19652 atoms

Performance: 1.006 ns/day, 23.863 hours/ns, 11.640 timesteps/s
99.9% CPU use with 1 MPI tasks x no OpenMP threads

MPI task timing breakdown:
Section |  min time  |  avg time  |  max time  |%varavg| %total
---------------------------------------------------------------
Pair    | 7.4493     | 7.4493     | 7.4493     |   0.0 | 50.42
Neigh   | 6.843      | 6.843      | 6.843      |   0.0 | 46.31
Comm    | 0.15463    | 0.15463    | 0.15463    |   0.0 |  1.05
Output  | 0.00016093 | 0.00016093 | 0.00016093 |   0.0 |  0.00
Modify  | 0.24443    | 0.24443    | 0.24443    |   0.0 |  1.65
Other   |            | 0.08443    |            |       |  0.57

Nlocal:    19652 ave 19652 max 19652 min
Histogram: 1 0 0 0 0 0 0 0 0 0
Nghost:    14779 ave 14779 max 14779 min
Histogram: 1 0 0 0 0 0 0 0 0 0
Neighs:    860311 ave 860311 max 860311 min
Histogram: 1 0 0 0 0 0 0 0 0 0

Total # of neighbors = 860311
Ave neighs/atom = 43.7773
Neighbor list builds = 172
Dangerous builds not checked
Setting up Verlet run ...
  Unit style    : metal
  Current step  : 50672
  Time step     : 0.001
Per MPI rank memory allocation (min/avg/max) = 18.22 | 18.22 | 18.22 Mbytes
Step Temp Press TotEng PotEng Enthalpy Volume 
   50672     1645.508   -397.41367   -18844.769   -23024.509   -18986.343     570754.6 
   50692    1640.0152   -273.22654    -18844.04   -23009.828   -18941.371     570739.4 
   51167    1605.9108    72.447025   -19053.516   -23132.676   -19027.875    567062.37 
Loop time of 43.045 on 1 procs for 495 steps with 19652 atoms

Performance: 0.994 ns/day, 24.155 hours/ns, 11.500 timesteps/s
99.9% CPU use with 1 MPI tasks x no OpenMP threads

MPI task timing breakdown:
Section |  min time  |  avg time  |  max time  |%varavg| %total
---------------------------------------------------------------
Pair    | 21.668     | 21.668     | 21.668     |   0.0 | 50.34
Neigh   | 19.932     | 19.932     | 19.932     |   0.0 | 46.30
Comm    | 0.45185    | 0.45185    | 0.45185    |   0.0 |  1.05
Output  | 0.039059   | 0.039059   | 0.039059   |   0.0 |  0.09
Modify  | 0.70817    | 0.70817    | 0.70817    |   0.0 |  1.65
Other   |            | 0.2458     |            |       |  0.57

Nlocal:    19652 ave 19652 max 19652 min
Histogram: 1 0 0 0 0 0 0 0 0 0
Nghost:    14735 ave 14735 max 14735 min
Histogram: 1 0 0 0 0 0 0 0 0 0
Neighs:    866044 ave 866044 max 866044 min
Histogram: 1 0 0 0 0 0 0 0 0 0

Total # of neighbors = 866044
Ave neighs/atom = 44.069
Neighbor list builds = 495
Dangerous builds not checked
Setting up Verlet run ...
  Unit style    : metal
  Current step  : 51167
  Time step     : 0.001
Per MPI rank memory allocation (min/avg/max) = 18.22 | 18.22 | 18.22 Mbytes
Step Temp Press TotEng PotEng Enthalpy Volume 
   51167    1605.9108    72.447025   -19053.516   -23132.676   -19027.875    567062.37 
   51339    1600.6376   -266.01019   -19118.925    -23184.69   -19213.002    566625.51 
Loop time of 14.8993 on 1 procs for 172 steps with 19652 atoms

Performance: 0.997 ns/day, 24.062 hours/ns, 11.544 timesteps/s
99.9% CPU use with 1 MPI tasks x no OpenMP threads

MPI task timing breakdown:
Section |  min time  |  avg time  |  max time  |%varavg| %total
---------------------------------------------------------------
Pair    | 7.5351     | 7.5351     | 7.5351     |   0.0 | 50.57
Neigh   | 6.8772     | 6.8772     | 6.8772     |   0.0 | 46.16
Comm    | 0.15553    | 0.15553    | 0.15553    |   0.0 |  1.04
Output  | 0.00017285 | 0.00017285 | 0.00017285 |   0.0 |  0.00
Modify  | 0.24503    | 0.24503    | 0.24503    |   0.0 |  1.64
Other   |            | 0.08623    |            |       |  0.58

Nlocal:    19652 ave 19652 max 19652 min
Histogram: 1 0 0 0 0 0 0 0 0 0
Nghost:    14771 ave 14771 max 14771 min
Histogram: 1 0 0 0 0 0 0 0 0 0
Neighs:    866740 ave 866740 max 866740 min
Histogram: 1 0 0 0 0 0 0 0 0 0

Total # of neighbors = 866740
Ave neighs/atom = 44.1044
Neighbor list builds = 172
Dangerous builds not checked
Setting up Verlet run ...
  Unit style    : metal
  Current step  : 51339
  Time step     : 0.001
Per MPI rank memory allocation (min/avg/max) = 18.22 | 18.22 | 18.22 Mbytes
Step Temp Press TotEng PotEng Enthalpy Volume 
   51339    1600.6376   -266.01019   -19118.925    -23184.69   -19213.002    566625.51 
   51359    1605.9855   -256.92088   -19119.124   -23198.473   -19209.984    566614.63 
   51834    1571.6297   -72.573216   -19349.509   -23341.592   -19375.006    562881.54 
Loop time of 44.0515 on 1 procs for 495 steps with 19652 atoms

Performance: 0.971 ns/day, 24.720 hours/ns, 11.237 timesteps/s
99.8% CPU use with 1 MPI tasks x no OpenMP threads

MPI task timing breakdown:
Section |  min time  |  avg time  |  max time  |%varavg| %total
---------------------------------------------------------------
Pair    | 22.214     | 22.214     | 22.214     |   0.0 | 50.43
Neigh   | 20.366     | 20.366     | 20.366     |   0.0 | 46.23
Comm    | 0.46345    | 0.46345    | 0.46345    |   0.0 |  1.05
Output  | 0.041359   | 0.041359   | 0.041359   |   0.0 |  0.09
Modify  | 0.71506    | 0.71506    | 0.71506    |   0.0 |  1.62
Other   |            | 0.2515     |            |       |  0.57

Nlocal:    19652 ave 19652 max 19652 min
Histogram: 1 0 0 0 0 0 0 0 0 0
Nghost:    14874 ave 14874 max 14874 min
Histogram: 1 0 0 0 0 0 0 0 0 0
Neighs:    872773 ave 872773 max 872773 min
Histogram: 1 0 0 0 0 0 0 0 0 0

Total # of neighbors = 872773
Ave neighs/atom = 44.4114
Neighbor list builds = 495
Dangerous builds not checked
Setting up Verlet run ...
  Unit style    : metal
  Current step  : 51834
  Time step     : 0.001
Per MPI rank memory allocation (min/avg/max) = 18.22 | 18.22 | 18.22 Mbytes
Step Temp Press TotEng PotEng Enthalpy Volume 
   51834    1571.6297   -72.573216   -19349.509   -23341.592   -19375.006    562881.54 
   52006     1546.264    -219.7678   -19409.469    -23337.12   -19486.654    562699.68 
Loop time of 14.9615 on 1 procs for 172 steps with 19652 atoms

Performance: 0.993 ns/day, 24.163 hours/ns, 11.496 timesteps/s
99.8% CPU use with 1 MPI tasks x no OpenMP threads

MPI task timing breakdown:
Section |  min time  |  avg time  |  max time  |%varavg| %total
---------------------------------------------------------------
Pair    | 7.6098     | 7.6098     | 7.6098     |   0.0 | 50.86
Neigh   | 6.8595     | 6.8595     | 6.8595     |   0.0 | 45.85
Comm    | 0.15758    | 0.15758    | 0.15758    |   0.0 |  1.05
Output  | 0.00015998 | 0.00015998 | 0.00015998 |   0.0 |  0.00
Modify  | 0.24735    | 0.24735    | 0.24735    |   0.0 |  1.65
Other   |            | 0.08707    |            |       |  0.58

Nlocal:    19652 ave 19652 max 19652 min
Histogram: 1 0 0 0 0 0 0 0 0 0
Nghost:    14834 ave 14834 max 14834 min
Histogram: 1 0 0 0 0 0 0 0 0 0
Neighs:    872747 ave 872747 max 872747 min
Histogram: 1 0 0 0 0 0 0 0 0 0

Total # of neighbors = 872747
Ave neighs/atom = 44.4101
Neighbor list builds = 172
Dangerous builds not checked
Setting up Verlet run ...
  Unit style    : metal
  Current step  : 52006
  Time step     : 0.001
Per MPI rank memory allocation (min/avg/max) = 18.22 | 18.22 | 18.22 Mbytes
Step Temp Press TotEng PotEng Enthalpy Volume 
   52006     1546.264    -219.7678   -19409.469    -23337.12   -19486.654    562699.68 
   52026    1547.2537   -253.37681   -19409.292   -23339.457   -19498.278    562688.61 
   52501     1520.483    138.78814   -19629.677   -23491.842   -19581.294    558535.15 
Loop time of 43.9282 on 1 procs for 495 steps with 19652 atoms

Performance: 0.974 ns/day, 24.651 hours/ns, 11.268 timesteps/s
99.9% CPU use with 1 MPI tasks x no OpenMP threads

MPI task timing breakdown:
Section |  min time  |  avg time  |  max time  |%varavg| %total
---------------------------------------------------------------
Pair    | 22.195     | 22.195     | 22.195     |   0.0 | 50.53
Neigh   | 20.28      | 20.28      | 20.28      |   0.0 | 46.17
Comm    | 0.45763    | 0.45763    | 0.45763    |   0.0 |  1.04
Output  | 0.041067   | 0.041067   | 0.041067   |   0.0 |  0.09
Modify  | 0.70674    | 0.70674    | 0.70674    |   0.0 |  1.61
Other   |            | 0.2476     |            |       |  0.56

Nlocal:    19652 ave 19652 max 19652 min
Histogram: 1 0 0 0 0 0 0 0 0 0
Nghost:    14856 ave 14856 max 14856 min
Histogram: 1 0 0 0 0 0 0 0 0 0
Neighs:    879483 ave 879483 max 879483 min
Histogram: 1 0 0 0 0 0 0 0 0 0

Total # of neighbors = 879483
Ave neighs/atom = 44.7528
Neighbor list builds = 495
Dangerous builds not checked
Setting up Verlet run ...
  Unit style    : metal
  Current step  : 52501
  Time step     : 0.001
Per MPI rank memory allocation (min/avg/max) = 18.22 | 18.22 | 18.22 Mbytes
Step Temp Press TotEng PotEng Enthalpy Volume 
   52501     1520.483    138.78814   -19629.677   -23491.842   -19581.294    558535.15 
   52673    1498.1775   -202.96917   -19704.159   -23509.667   -19774.925    558603.06 
Loop time of 14.978 on 1 procs for 172 steps with 19652 atoms

Performance: 0.992 ns/day, 24.189 hours/ns, 11.483 timesteps/s
99.9% CPU use with 1 MPI tasks x no OpenMP threads

MPI task timing breakdown:
Section |  min time  |  avg time  |  max time  |%varavg| %total
---------------------------------------------------------------
Pair    | 7.631      | 7.631      | 7.631      |   0.0 | 50.95
Neigh   | 6.8612     | 6.8612     | 6.8612     |   0.0 | 45.81
Comm    | 0.15584    | 0.15584    | 0.15584    |   0.0 |  1.04
Output  | 0.00016212 | 0.00016212 | 0.00016212 |   0.0 |  0.00
Modify  | 0.2444     | 0.2444     | 0.2444     |   0.0 |  1.63
Other   |            | 0.08546    |            |       |  0.57

Nlocal:    19652 ave 19652 max 19652 min
Histogram: 1 0 0 0 0 0 0 0 0 0
Nghost:    14898 ave 14898 max 14898 min
Histogram: 1 0 0 0 0 0 0 0 0 0
Neighs:    879634 ave 879634 max 879634 min
Histogram: 1 0 0 0 0 0 0 0 0 0

Total # of neighbors = 879634
Ave neighs/atom = 44.7605
Neighbor list builds = 172
Dangerous builds not checked
Setting up Verlet run ...
  Unit style    : metal
  Current step  : 52673
  Time step     : 0.001
Per MPI rank memory allocation (min/avg/max) = 18.22 | 18.22 | 18.22 Mbytes
Step Temp Press TotEng PotEng Enthalpy Volume 
   52673    1498.1775   -202.96917   -19704.159   -23509.667   -19774.925    558603.06 
   52693    1500.2507   -104.82553   -19704.136   -23514.909   -19740.683    558594.75 
   53168    1465.2126   -178.91206   -19892.781   -23614.555   -19954.871    556024.28 
Loop time of 43.5858 on 1 procs for 495 steps with 19652 atoms

Performance: 0.981 ns/day, 24.459 hours/ns, 11.357 timesteps/s
99.8% CPU use with 1 MPI tasks x no OpenMP threads

MPI task timing breakdown:
Section |  min time  |  avg time  |  max time  |%varavg| %total
---------------------------------------------------------------
Pair    | 22.17      | 22.17      | 22.17      |   0.0 | 50.86
Neigh   | 19.963     | 19.963     | 19.963     |   0.0 | 45.80
Comm    | 0.45436    | 0.45436    | 0.45436    |   0.0 |  1.04
Output  | 0.039038   | 0.039038   | 0.039038   |   0.0 |  0.09
Modify  | 0.70896    | 0.70896    | 0.70896    |   0.0 |  1.63
Other   |            | 0.2509     |            |       |  0.58

Nlocal:    19652 ave 19652 max 19652 min
Histogram: 1 0 0 0 0 0 0 0 0 0
Nghost:    14903 ave 14903 max 14903 min
Histogram: 1 0 0 0 0 0 0 0 0 0
Neighs:    883361 ave 883361 max 883361 min
Histogram: 1 0 0 0 0 0 0 0 0 0

Total # of neighbors = 883361
Ave neighs/atom = 44.9502
Neighbor list builds = 495
Dangerous builds not checked
Setting up Verlet run ...
  Unit style    : metal
  Current step  : 53168
  Time step     : 0.001
Per MPI rank memory allocation (min/avg/max) = 18.22 | 18.22 | 18.22 Mbytes
Step Temp Press TotEng PotEng Enthalpy Volume 
   53168    1465.2126   -178.91206   -19892.781   -23614.555   -19954.871    556024.28 
   53340    1460.1227   -178.76015   -19957.837   -23666.682   -20019.782    555191.76 
Loop time of 15.0404 on 1 procs for 172 steps with 19652 atoms

Performance: 0.988 ns/day, 24.290 hours/ns, 11.436 timesteps/s
99.9% CPU use with 1 MPI tasks x no OpenMP threads

MPI task timing breakdown:
Section |  min time  |  avg time  |  max time  |%varavg| %total
---------------------------------------------------------------
Pair    | 7.6783     | 7.6783     | 7.6783     |   0.0 | 51.05
Neigh   | 6.8731     | 6.8731     | 6.8731     |   0.0 | 45.70
Comm    | 0.15663    | 0.15663    | 0.15663    |   0.0 |  1.04
Output  | 0.00016284 | 0.00016284 | 0.00016284 |   0.0 |  0.00
Modify  | 0.24535    | 0.24535    | 0.24535    |   0.0 |  1.63
Other   |            | 0.08678    |            |       |  0.58

Nlocal:    19652 ave 19652 max 19652 min
Histogram: 1 0 0 0 0 0 0 0 0 0
Nghost:    14878 ave 14878 max 14878 min
Histogram: 1 0 0 0 0 0 0 0 0 0
Neighs:    885329 ave 885329 max 885329 min
Histogram: 1 0 0 0 0 0 0 0 0 0

Total # of neighbors = 885329
Ave neighs/atom = 45.0503
Neighbor list builds = 172
Dangerous builds not checked
Setting up Verlet run ...
  Unit style    : metal
  Current step  : 53340
  Time step     : 0.001
Per MPI rank memory allocation (min/avg/max) = 18.22 | 18.22 | 18.22 Mbytes
Step Temp Press TotEng PotEng Enthalpy Volume 
   53340    1460.1227   -178.76015   -19957.837   -23666.682   -20019.782    555191.76 
   53360    1462.6096   -258.19663   -19959.136   -23674.298   -20048.606     555181.9 
   53835    1414.1747    -90.08115   -20195.587   -23787.719   -20226.599    551580.25 
Loop time of 44.4116 on 1 procs for 495 steps with 19652 atoms

Performance: 0.963 ns/day, 24.922 hours/ns, 11.146 timesteps/s
99.9% CPU use with 1 MPI tasks x no OpenMP threads

MPI task timing breakdown:
Section |  min time  |  avg time  |  max time  |%varavg| %total
---------------------------------------------------------------
Pair    | 22.623     | 22.623     | 22.623     |   0.0 | 50.94
Neigh   | 20.32      | 20.32      | 20.32      |   0.0 | 45.75
Comm    | 0.46063    | 0.46063    | 0.46063    |   0.0 |  1.04
Output  | 0.041712   | 0.041712   | 0.041712   |   0.0 |  0.09
Modify  | 0.71222    | 0.71222    | 0.71222    |   0.0 |  1.60
Other   |            | 0.2541     |            |       |  0.57

Nlocal:    19652 ave 19652 max 19652 min
Histogram: 1 0 0 0 0 0 0 0 0 0
Nghost:    14925 ave 14925 max 14925 min
Histogram: 1 0 0 0 0 0 0 0 0 0
Neighs:    891617 ave 891617 max 891617 min
Histogram: 1 0 0 0 0 0 0 0 0 0

Total # of neighbors = 891617
Ave neighs/atom = 45.3703
Neighbor list builds = 495
Dangerous builds not checked
Setting up Verlet run ...
  Unit style    : metal
  Current step  : 53835
  Time step     : 0.001
Per MPI rank memory allocation (min/avg/max) = 18.22 | 18.22 | 18.22 Mbytes
Step Temp Press TotEng PotEng Enthalpy Volume 
   53835    1414.1747    -90.08115   -20195.587   -23787.719   -20226.599    551580.25 
   54007    1407.2533   -241.28384   -20261.702   -23836.254   -20344.688    551045.28 
Loop time of 15.1751 on 1 procs for 172 steps with 19652 atoms

Performance: 0.979 ns/day, 24.508 hours/ns, 11.334 timesteps/s
99.8% CPU use with 1 MPI tasks x no OpenMP threads

MPI task timing breakdown:
Section |  min time  |  avg time  |  max time  |%varavg| %total
---------------------------------------------------------------
Pair    | 7.7914     | 7.7914     | 7.7914     |   0.0 | 51.34
Neigh   | 6.888      | 6.888      | 6.888      |   0.0 | 45.39
Comm    | 0.15899    | 0.15899    | 0.15899    |   0.0 |  1.05
Output  | 0.00016093 | 0.00016093 | 0.00016093 |   0.0 |  0.00
Modify  | 0.24775    | 0.24775    | 0.24775    |   0.0 |  1.63
Other   |            | 0.08869    |            |       |  0.58

Nlocal:    19652 ave 19652 max 19652 min
Histogram: 1 0 0 0 0 0 0 0 0 0
Nghost:    14984 ave 14984 max 14984 min
Histogram: 1 0 0 0 0 0 0 0 0 0
Neighs:    892017 ave 892017 max 892017 min
Histogram: 1 0 0 0 0 0 0 0 0 0

Total # of neighbors = 892017
Ave neighs/atom = 45.3906
Neighbor list builds = 172
Dangerous builds not checked
Setting up Verlet run ...
  Unit style    : metal
  Current step  : 54007
  Time step     : 0.001
Per MPI rank memory allocation (min/avg/max) = 18.22 | 18.22 | 18.22 Mbytes
Step Temp Press TotEng PotEng Enthalpy Volume 
   54007    1407.2533   -241.28384   -20261.702   -23836.254   -20344.688    551045.28 
   54027    1401.4778   -139.15959   -20262.352   -23822.233   -20310.213    551034.95 
   54502    1362.6878    192.31177   -20481.603   -23942.954   -20415.872    547611.46 
Loop time of 44.2745 on 1 procs for 495 steps with 19652 atoms

Performance: 0.966 ns/day, 24.845 hours/ns, 11.180 timesteps/s
99.9% CPU use with 1 MPI tasks x no OpenMP threads

MPI task timing breakdown:
Section |  min time  |  avg time  |  max time  |%varavg| %total
---------------------------------------------------------------
Pair    | 22.6       | 22.6       | 22.6       |   0.0 | 51.05
Neigh   | 20.223     | 20.223     | 20.223     |   0.0 | 45.68
Comm    | 0.45567    | 0.45567    | 0.45567    |   0.0 |  1.03
Output  | 0.041148   | 0.041148   | 0.041148   |   0.0 |  0.09
Modify  | 0.70592    | 0.70592    | 0.70592    |   0.0 |  1.59
Other   |            | 0.2482     |            |       |  0.56

Nlocal:    19652 ave 19652 max 19652 min
Histogram: 1 0 0 0 0 0 0 0 0 0
Nghost:    14970 ave 14970 max 14970 min
Histogram: 1 0 0 0 0 0 0 0 0 0
Neighs:    898356 ave 898356 max 898356 min
Histogram: 1 0 0 0 0 0 0 0 0 0

Total # of neighbors = 898356
Ave neighs/atom = 45.7132
Neighbor list builds = 495
Dangerous builds not checked
Setting up Verlet run ...
  Unit style    : metal
  Current step  : 54502
  Time step     : 0.001
Per MPI rank memory allocation (min/avg/max) = 18.22 | 18.22 | 18.22 Mbytes
Step Temp Press TotEng PotEng Enthalpy Volume 
   54502    1362.6878    192.31177   -20481.603   -23942.954   -20415.872    547611.46 
   54674    1349.8246   -332.90155   -20548.151   -23976.828   -20662.003     547942.5 
Loop time of 15.1938 on 1 procs for 172 steps with 19652 atoms

Performance: 0.978 ns/day, 24.538 hours/ns, 11.320 timesteps/s
99.8% CPU use with 1 MPI tasks x no OpenMP threads

MPI task timing breakdown:
Section |  min time  |  avg time  |  max time  |%varavg| %total
---------------------------------------------------------------
Pair    | 7.8065     | 7.8065     | 7.8065     |   0.0 | 51.38
Neigh   | 6.8988     | 6.8988     | 6.8988     |   0.0 | 45.41
Comm    | 0.15638    | 0.15638    | 0.15638    |   0.0 |  1.03
Output  | 0.00016618 | 0.00016618 | 0.00016618 |   0.0 |  0.00
Modify  | 0.24503    | 0.24503    | 0.24503    |   0.0 |  1.61
Other   |            | 0.08701    |            |       |  0.57

Nlocal:    19652 ave 19652 max 19652 min
Histogram: 1 0 0 0 0 0 0 0 0 0
Nghost:    14933 ave 14933 max 14933 min
Histogram: 1 0 0 0 0 0 0 0 0 0
Neighs:    896872 ave 896872 max 896872 min
Histogram: 1 0 0 0 0 0 0 0 0 0

Total # of neighbors = 896872
Ave neighs/atom = 45.6377
Neighbor list builds = 172
Dangerous builds not checked
Setting up Verlet run ...
  Unit style    : metal
  Current step  : 54674
  Time step     : 0.001
Per MPI rank memory allocation (min/avg/max) = 18.22 | 18.22 | 18.22 Mbytes
Step Temp Press TotEng PotEng Enthalpy Volume 
   54674    1349.8246   -332.90155   -20548.151   -23976.828   -20662.003     547942.5 
   54694    1356.5272   -413.41243   -20548.384   -23994.086   -20689.766    547924.99 
   55169    1321.6292    124.83971   -20755.219   -24112.278   -20712.818    544163.05 
Loop time of 44.3808 on 1 procs for 495 steps with 19652 atoms

Performance: 0.964 ns/day, 24.905 hours/ns, 11.153 timesteps/s
99.8% CPU use with 1 MPI tasks x no OpenMP threads

MPI task timing breakdown:
Section |  min time  |  avg time  |  max time  |%varavg| %total
---------------------------------------------------------------
Pair    | 22.802     | 22.802     | 22.802     |   0.0 | 51.38
Neigh   | 20.078     | 20.078     | 20.078     |   0.0 | 45.24
Comm    | 0.48226    | 0.48226    | 0.48226    |   0.0 |  1.09
Output  | 0.041223   | 0.041223   | 0.041223   |   0.0 |  0.09
Modify  | 0.71944    | 0.71944    | 0.71944    |   0.0 |  1.62
Other   |            | 0.2575     |            |       |  0.58

Nlocal:    19652 ave 19652 max 19652 min
Histogram: 1 0 0 0 0 0 0 0 0 0
Nghost:    15010 ave 15010 max 15010 min
Histogram: 1 0 0 0 0 0 0 0 0 0
Neighs:    903714 ave 903714 max 903714 min
Histogram: 1 0 0 0 0 0 0 0 0 0

Total # of neighbors = 903714
Ave neighs/atom = 45.9859
Neighbor list builds = 495
Dangerous builds not checked
Setting up Verlet run ...
  Unit style    : metal
  Current step  : 55169
  Time step     : 0.001
Per MPI rank memory allocation (min/avg/max) = 18.22 | 18.22 | 18.22 Mbytes
Step Temp Press TotEng PotEng Enthalpy Volume 
   55169    1321.6292    124.83971   -20755.219   -24112.278   -20712.818    544163.05 
   55341    1302.0367   -348.49784   -20819.637   -24126.929   -20938.034    544314.97 
Loop time of 15.3544 on 1 procs for 172 steps with 19652 atoms

Performance: 0.968 ns/day, 24.797 hours/ns, 11.202 timesteps/s
99.9% CPU use with 1 MPI tasks x no OpenMP threads

MPI task timing breakdown:
Section |  min time  |  avg time  |  max time  |%varavg| %total
---------------------------------------------------------------
Pair    | 7.9288     | 7.9288     | 7.9288     |   0.0 | 51.64
Neigh   | 6.9256     | 6.9256     | 6.9256     |   0.0 | 45.11
Comm    | 0.16098    | 0.16098    | 0.16098    |   0.0 |  1.05
Output  | 0.00018692 | 0.00018692 | 0.00018692 |   0.0 |  0.00
Modify  | 0.24921    | 0.24921    | 0.24921    |   0.0 |  1.62
Other   |            | 0.0896     |            |       |  0.58

Nlocal:    19652 ave 19652 max 19652 min
Histogram: 1 0 0 0 0 0 0 0 0 0
Nghost:    15063 ave 15063 max 15063 min
Histogram: 1 0 0 0 0 0 0 0 0 0
Neighs:    903537 ave 903537 max 903537 min
Histogram: 1 0 0 0 0 0 0 0 0 0

Total # of neighbors = 903537
Ave neighs/atom = 45.9768
Neighbor list builds = 172
Dangerous builds not checked
[...]
Modify  | 0.70953    | 0.70953    | 0.70953    |   0.0 |  1.46
Other   |            | 0.2593     |            |       |  0.53

Nlocal:    19652 ave 19652 max 19652 min
Histogram: 1 0 0 0 0 0 0 0 0 0
Nghost:    15705 ave 15705 max 15705 min
Histogram: 1 0 0 0 0 0 0 0 0 0
Neighs:    1.03389e+06 ave 1.03389e+06 max 1.03389e+06 min
Histogram: 1 0 0 0 0 0 0 0 0 0

Total # of neighbors = 1033887
Ave neighs/atom = 52.6098
Neighbor list builds = 495
Dangerous builds not checked
Setting up Verlet run ...
  Unit style    : metal
  Current step  : 67175
  Time step     : 0.001
Per MPI rank memory allocation (min/avg/max) = 18.22 | 18.22 | 18.22 Mbytes
Step Temp Press TotEng PotEng Enthalpy Volume 
   67175    426.65244    58.840397    -26134.57   -27218.307   -26116.774    484591.62 
   67347    412.93674   -25.409278   -26197.671   -27246.568   -26205.348    484038.84 
Loop time of 16.873 on 1 procs for 172 steps with 19652 atoms

Performance: 0.881 ns/day, 27.250 hours/ns, 10.194 timesteps/s
99.8% CPU use with 1 MPI tasks x no OpenMP threads

MPI task timing breakdown:
Section |  min time  |  avg time  |  max time  |%varavg| %total
---------------------------------------------------------------
Pair    | 8.8904     | 8.8904     | 8.8904     |   0.0 | 52.69
Neigh   | 7.4844     | 7.4844     | 7.4844     |   0.0 | 44.36
Comm    | 0.15942    | 0.15942    | 0.15942    |   0.0 |  0.94
Output  | 0.00016117 | 0.00016117 | 0.00016117 |   0.0 |  0.00
Modify  | 0.24732    | 0.24732    | 0.24732    |   0.0 |  1.47
Other   |            | 0.09126    |            |       |  0.54

Nlocal:    19652 ave 19652 max 19652 min
Histogram: 1 0 0 0 0 0 0 0 0 0
Nghost:    15725 ave 15725 max 15725 min
Histogram: 1 0 0 0 0 0 0 0 0 0
Neighs:    1.03529e+06 ave 1.03529e+06 max 1.03529e+06 min
Histogram: 1 0 0 0 0 0 0 0 0 0

Total # of neighbors = 1035287
Ave neighs/atom = 52.681
Neighbor list builds = 172
Dangerous builds not checked
Setting up Verlet run ...
  Unit style    : metal
  Current step  : 67347
  Time step     : 0.001
Per MPI rank memory allocation (min/avg/max) = 18.22 | 18.22 | 18.22 Mbytes
Step Temp Press TotEng PotEng Enthalpy Volume 
   67347    412.93674   -25.409278   -26197.671   -27246.568   -26205.348    484038.84 
   67367    417.22531   -104.73707   -26199.267   -27259.057   -26230.909    484032.38 
   67842    376.13624   -98.433301   -26437.734   -27393.154   -26467.314    481468.63 
Loop time of 49.7569 on 1 procs for 495 steps with 19652 atoms

Performance: 0.860 ns/day, 27.922 hours/ns, 9.948 timesteps/s
99.8% CPU use with 1 MPI tasks x no OpenMP threads

MPI task timing breakdown:
Section |  min time  |  avg time  |  max time  |%varavg| %total
---------------------------------------------------------------
Pair    | 26.308     | 26.308     | 26.308     |   0.0 | 52.87
Neigh   | 21.886     | 21.886     | 21.886     |   0.0 | 43.99
Comm    | 0.49009    | 0.49009    | 0.49009    |   0.0 |  0.98
Output  | 0.039147   | 0.039147   | 0.039147   |   0.0 |  0.08
Modify  | 0.75501    | 0.75501    | 0.75501    |   0.0 |  1.52
Other   |            | 0.2779     |            |       |  0.56

Nlocal:    19652 ave 19652 max 19652 min
Histogram: 1 0 0 0 0 0 0 0 0 0
Nghost:    15744 ave 15744 max 15744 min
Histogram: 1 0 0 0 0 0 0 0 0 0
Neighs:    1.04242e+06 ave 1.04242e+06 max 1.04242e+06 min
Histogram: 1 0 0 0 0 0 0 0 0 0

Total # of neighbors = 1042425
Ave neighs/atom = 53.0442
Neighbor list builds = 495
Dangerous builds not checked
Setting up Verlet run ...
  Unit style    : metal
  Current step  : 67842
  Time step     : 0.001
Per MPI rank memory allocation (min/avg/max) = 18.22 | 18.22 | 18.22 Mbytes
Step Temp Press TotEng PotEng Enthalpy Volume 
   67842    376.13624   -98.433301   -26437.734   -27393.154   -26467.314    481468.63 
   68014    369.66464    9.4735959   -26500.713   -27439.695   -26497.872     480569.5 
Loop time of 16.9213 on 1 procs for 172 steps with 19652 atoms

Performance: 0.878 ns/day, 27.328 hours/ns, 10.165 timesteps/s
99.9% CPU use with 1 MPI tasks x no OpenMP threads

MPI task timing breakdown:
Section |  min time  |  avg time  |  max time  |%varavg| %total
---------------------------------------------------------------
Pair    | 8.953      | 8.953      | 8.953      |   0.0 | 52.91
Neigh   | 7.4716     | 7.4716     | 7.4716     |   0.0 | 44.16
Comm    | 0.15906    | 0.15906    | 0.15906    |   0.0 |  0.94
Output  | 0.00016308 | 0.00016308 | 0.00016308 |   0.0 |  0.00
Modify  | 0.2468     | 0.2468     | 0.2468     |   0.0 |  1.46
Other   |            | 0.09066    |            |       |  0.54

Nlocal:    19652 ave 19652 max 19652 min
Histogram: 1 0 0 0 0 0 0 0 0 0
Nghost:    15781 ave 15781 max 15781 min
Histogram: 1 0 0 0 0 0 0 0 0 0
Neighs:    1.04492e+06 ave 1.04492e+06 max 1.04492e+06 min
Histogram: 1 0 0 0 0 0 0 0 0 0

Total # of neighbors = 1044918
Ave neighs/atom = 53.1711
Neighbor list builds = 172
Dangerous builds not checked
Setting up Verlet run ...
  Unit style    : metal
  Current step  : 68014
  Time step     : 0.001
Per MPI rank memory allocation (min/avg/max) = 18.22 | 18.22 | 18.22 Mbytes
Step Temp Press TotEng PotEng Enthalpy Volume 
   68014    369.66464    9.4735959   -26500.713   -27439.695   -26497.872     480569.5 
   68034    369.73641   -13.387254    -26502.93   -27442.095   -26506.946    480569.55 
   68509    329.92209   -4.4273722   -26742.301   -27580.333   -26743.622    478173.72 
Loop time of 49.0089 on 1 procs for 495 steps with 19652 atoms

Performance: 0.873 ns/day, 27.502 hours/ns, 10.100 timesteps/s
99.9% CPU use with 1 MPI tasks x no OpenMP threads

MPI task timing breakdown:
Section |  min time  |  avg time  |  max time  |%varavg| %total
---------------------------------------------------------------
Pair    | 25.904     | 25.904     | 25.904     |   0.0 | 52.86
Neigh   | 21.641     | 21.641     | 21.641     |   0.0 | 44.16
Comm    | 0.45651    | 0.45651    | 0.45651    |   0.0 |  0.93
Output  | 0.039159   | 0.039159   | 0.039159   |   0.0 |  0.08
Modify  | 0.70627    | 0.70627    | 0.70627    |   0.0 |  1.44
Other   |            | 0.2618     |            |       |  0.53

Nlocal:    19652 ave 19652 max 19652 min
Histogram: 1 0 0 0 0 0 0 0 0 0
Nghost:    15764 ave 15764 max 15764 min
Histogram: 1 0 0 0 0 0 0 0 0 0
Neighs:    1.05119e+06 ave 1.05119e+06 max 1.05119e+06 min
Histogram: 1 0 0 0 0 0 0 0 0 0

Total # of neighbors = 1051189
Ave neighs/atom = 53.4902
Neighbor list builds = 495
Dangerous builds not checked
Setting up Verlet run ...
  Unit style    : metal
  Current step  : 68509
  Time step     : 0.001
Per MPI rank memory allocation (min/avg/max) = 18.22 | 18.22 | 18.22 Mbytes
Step Temp Press TotEng PotEng Enthalpy Volume 
   68509    329.92209   -4.4273722   -26742.301   -27580.333   -26743.622    478173.72 
   68681    316.82711   -46.316072   -26801.803   -27606.572   -26815.613    477742.26 
Loop time of 17.0103 on 1 procs for 172 steps with 19652 atoms

Performance: 0.874 ns/day, 27.471 hours/ns, 10.112 timesteps/s
99.8% CPU use with 1 MPI tasks x no OpenMP threads

MPI task timing breakdown:
Section |  min time  |  avg time  |  max time  |%varavg| %total
---------------------------------------------------------------
Pair    | 9.0222     | 9.0222     | 9.0222     |   0.0 | 53.04
Neigh   | 7.4891     | 7.4891     | 7.4891     |   0.0 | 44.03
Comm    | 0.1599     | 0.1599     | 0.1599     |   0.0 |  0.94
Output  | 0.00016403 | 0.00016403 | 0.00016403 |   0.0 |  0.00
Modify  | 0.24814    | 0.24814    | 0.24814    |   0.0 |  1.46
Other   |            | 0.09079    |            |       |  0.53

Nlocal:    19652 ave 19652 max 19652 min
Histogram: 1 0 0 0 0 0 0 0 0 0
Nghost:    15773 ave 15773 max 15773 min
Histogram: 1 0 0 0 0 0 0 0 0 0
Neighs:    1.05249e+06 ave 1.05249e+06 max 1.05249e+06 min
Histogram: 1 0 0 0 0 0 0 0 0 0

Total # of neighbors = 1052486
Ave neighs/atom = 53.5562
Neighbor list builds = 172
Dangerous builds not checked
Setting up Verlet run ...
  Unit style    : metal
  Current step  : 68681
  Time step     : 0.001
Per MPI rank memory allocation (min/avg/max) = 18.22 | 18.22 | 18.22 Mbytes
Step Temp Press TotEng PotEng Enthalpy Volume 
   68681    316.82711   -46.316072   -26801.803   -27606.572   -26815.613    477742.26 
   68701     318.8051   -88.108418   -26803.776    -27613.57   -26830.048    477731.81 
   69176    277.00856    287.40758   -27034.488   -27738.115   -26949.311    474829.53 
Loop time of 48.8769 on 1 procs for 495 steps with 19652 atoms

Performance: 0.875 ns/day, 27.428 hours/ns, 10.127 timesteps/s
99.9% CPU use with 1 MPI tasks x no OpenMP threads

MPI task timing breakdown:
Section |  min time  |  avg time  |  max time  |%varavg| %total
---------------------------------------------------------------
Pair    | 25.931     | 25.931     | 25.931     |   0.0 | 53.05
Neigh   | 21.489     | 21.489     | 21.489     |   0.0 | 43.97
Comm    | 0.45409    | 0.45409    | 0.45409    |   0.0 |  0.93
Output  | 0.038908   | 0.038908   | 0.038908   |   0.0 |  0.08
Modify  | 0.70576    | 0.70576    | 0.70576    |   0.0 |  1.44
Other   |            | 0.2579     |            |       |  0.53

Nlocal:    19652 ave 19652 max 19652 min
Histogram: 1 0 0 0 0 0 0 0 0 0
Nghost:    15822 ave 15822 max 15822 min
Histogram: 1 0 0 0 0 0 0 0 0 0
Neighs:    1.06116e+06 ave 1.06116e+06 max 1.06116e+06 min
Histogram: 1 0 0 0 0 0 0 0 0 0

Total # of neighbors = 1061165
Ave neighs/atom = 53.9978
Neighbor list builds = 495
Dangerous builds not checked
Setting up Verlet run ...
  Unit style    : metal
  Current step  : 69176
  Time step     : 0.001
Per MPI rank memory allocation (min/avg/max) = 18.22 | 18.22 | 18.22 Mbytes
Step Temp Press TotEng PotEng Enthalpy Volume 
   69176    277.00856    287.40758   -27034.488   -27738.115   -26949.311    474829.53 
   69348     267.6974     23.36124   -27093.823   -27773.798   -27086.902    474661.32 
Loop time of 17.0729 on 1 procs for 172 steps with 19652 atoms

Performance: 0.870 ns/day, 27.573 hours/ns, 10.074 timesteps/s
99.9% CPU use with 1 MPI tasks x no OpenMP threads

MPI task timing breakdown:
Section |  min time  |  avg time  |  max time  |%varavg| %total
---------------------------------------------------------------
Pair    | 9.0941     | 9.0941     | 9.0941     |   0.0 | 53.27
Neigh   | 7.476      | 7.476      | 7.476      |   0.0 | 43.79
Comm    | 0.1602     | 0.1602     | 0.1602     |   0.0 |  0.94
Output  | 0.00016189 | 0.00016189 | 0.00016189 |   0.0 |  0.00
Modify  | 0.25011    | 0.25011    | 0.25011    |   0.0 |  1.46
Other   |            | 0.09236    |            |       |  0.54

Nlocal:    19652 ave 19652 max 19652 min
Histogram: 1 0 0 0 0 0 0 0 0 0
Nghost:    15806 ave 15806 max 15806 min
Histogram: 1 0 0 0 0 0 0 0 0 0
Neighs:    1.06136e+06 ave 1.06136e+06 max 1.06136e+06 min
Histogram: 1 0 0 0 0 0 0 0 0 0

Total # of neighbors = 1061357
Ave neighs/atom = 54.0076
Neighbor list builds = 172
Dangerous builds not checked
Setting up Verlet run ...
  Unit style    : metal
  Current step  : 69348
  Time step     : 0.001
Per MPI rank memory allocation (min/avg/max) = 18.22 | 18.22 | 18.22 Mbytes
Step Temp Press TotEng PotEng Enthalpy Volume 
   69348     267.6974     23.36124   -27093.823   -27773.798   -27086.902    474661.32 
   69368    268.80466    -14.95764   -27095.868   -27778.656   -27100.299    474664.14 
   69843    230.32379   -45.603211   -27317.833   -27902.877   -27331.288    472690.57 
Loop time of 49.21 on 1 procs for 495 steps with 19652 atoms

Performance: 0.869 ns/day, 27.615 hours/ns, 10.059 timesteps/s
99.9% CPU use with 1 MPI tasks x no OpenMP threads

MPI task timing breakdown:
Section |  min time  |  avg time  |  max time  |%varavg| %total
---------------------------------------------------------------
Pair    | 26.177     | 26.177     | 26.177     |   0.0 | 53.20
Neigh   | 21.567     | 21.567     | 21.567     |   0.0 | 43.83
Comm    | 0.4583     | 0.4583     | 0.4583     |   0.0 |  0.93
Output  | 0.039111   | 0.039111   | 0.039111   |   0.0 |  0.08
Modify  | 0.7078     | 0.7078     | 0.7078     |   0.0 |  1.44
Other   |            | 0.26       |            |       |  0.53

Nlocal:    19652 ave 19652 max 19652 min
Histogram: 1 0 0 0 0 0 0 0 0 0
Nghost:    15851 ave 15851 max 15851 min
Histogram: 1 0 0 0 0 0 0 0 0 0
Neighs:    1.06714e+06 ave 1.06714e+06 max 1.06714e+06 min
Histogram: 1 0 0 0 0 0 0 0 0 0

Total # of neighbors = 1067135
Ave neighs/atom = 54.3016
Neighbor list builds = 495
Dangerous builds not checked
Setting up Verlet run ...
  Unit style    : metal
  Current step  : 69843
  Time step     : 0.001
Per MPI rank memory allocation (min/avg/max) = 18.22 | 18.22 | 18.22 Mbytes
Step Temp Press TotEng PotEng Enthalpy Volume 
   69843    230.32379   -45.603211   -27317.833   -27902.877   -27331.288    472690.57 
   70015    220.11017    85.066025   -27376.081   -27935.181   -27351.022    471969.84 
Loop time of 17.0852 on 1 procs for 172 steps with 19652 atoms

Performance: 0.870 ns/day, 27.592 hours/ns, 10.067 timesteps/s
99.9% CPU use with 1 MPI tasks x no OpenMP threads

MPI task timing breakdown:
Section |  min time  |  avg time  |  max time  |%varavg| %total
---------------------------------------------------------------
Pair    | 9.1328     | 9.1328     | 9.1328     |   0.0 | 53.45
Neigh   | 7.4548     | 7.4548     | 7.4548     |   0.0 | 43.63
Comm    | 0.15906    | 0.15906    | 0.15906    |   0.0 |  0.93
Output  | 0.00018311 | 0.00018311 | 0.00018311 |   0.0 |  0.00
Modify  | 0.24624    | 0.24624    | 0.24624    |   0.0 |  1.44
Other   |            | 0.09215    |            |       |  0.54

Nlocal:    19652 ave 19652 max 19652 min
Histogram: 1 0 0 0 0 0 0 0 0 0
Nghost:    15861 ave 15861 max 15861 min
Histogram: 1 0 0 0 0 0 0 0 0 0
Neighs:    1.06909e+06 ave 1.06909e+06 max 1.06909e+06 min
Histogram: 1 0 0 0 0 0 0 0 0 0

Total # of neighbors = 1069087
Ave neighs/atom = 54.4009
Neighbor list builds = 172
Dangerous builds not checked
Setting up Verlet run ...
  Unit style    : metal
  Current step  : 70015
  Time step     : 0.001
Per MPI rank memory allocation (min/avg/max) = 18.22 | 18.22 | 18.22 Mbytes
Step Temp Press TotEng PotEng Enthalpy Volume 
   70015    220.11017    85.066025   -27376.081   -27935.181   -27351.022    471969.84 
   70035    220.17984    44.737564   -27378.398   -27937.675   -27365.219    471988.82 
   70510    182.14376    7.8430498   -27593.002   -28055.664   -27590.701     469983.1 
Loop time of 49.3653 on 1 procs for 495 steps with 19652 atoms

Performance: 0.866 ns/day, 27.702 hours/ns, 10.027 timesteps/s
99.9% CPU use with 1 MPI tasks x no OpenMP threads

MPI task timing breakdown:
Section |  min time  |  avg time  |  max time  |%varavg| %total
---------------------------------------------------------------
Pair    | 26.338     | 26.338     | 26.338     |   0.0 | 53.35
Neigh   | 21.556     | 21.556     | 21.556     |   0.0 | 43.67
Comm    | 0.45888    | 0.45888    | 0.45888    |   0.0 |  0.93
Output  | 0.038904   | 0.038904   | 0.038904   |   0.0 |  0.08
Modify  | 0.71161    | 0.71161    | 0.71161    |   0.0 |  1.44
Other   |            | 0.2617     |            |       |  0.53

Nlocal:    19652 ave 19652 max 19652 min
Histogram: 1 0 0 0 0 0 0 0 0 0
Nghost:    15860 ave 15860 max 15860 min
Histogram: 1 0 0 0 0 0 0 0 0 0
Neighs:    1.07423e+06 ave 1.07423e+06 max 1.07423e+06 min
Histogram: 1 0 0 0 0 0 0 0 0 0

Total # of neighbors = 1074230
Ave neighs/atom = 54.6626
Neighbor list builds = 495
Dangerous builds not checked
Setting up Verlet run ...
  Unit style    : metal
  Current step  : 70510
  Time step     : 0.001
Per MPI rank memory allocation (min/avg/max) = 18.22 | 18.22 | 18.22 Mbytes
Step Temp Press TotEng PotEng Enthalpy Volume 
   70510    182.14376    7.8430498   -27593.002   -28055.664   -27590.701     469983.1 
   70682    172.18988   -55.282597   -27650.862    -28088.24   -27667.064    469566.98 
Loop time of 17.1351 on 1 procs for 172 steps with 19652 atoms

Performance: 0.867 ns/day, 27.673 hours/ns, 10.038 timesteps/s
99.9% CPU use with 1 MPI tasks x no OpenMP threads

MPI task timing breakdown:
Section |  min time  |  avg time  |  max time  |%varavg| %total
---------------------------------------------------------------
Pair    | 9.1781     | 9.1781     | 9.1781     |   0.0 | 53.56
Neigh   | 7.4607     | 7.4607     | 7.4607     |   0.0 | 43.54
Comm    | 0.1586     | 0.1586     | 0.1586     |   0.0 |  0.93
Output  | 0.00018001 | 0.00018001 | 0.00018001 |   0.0 |  0.00
Modify  | 0.24624    | 0.24624    | 0.24624    |   0.0 |  1.44
Other   |            | 0.09121    |            |       |  0.53

Nlocal:    19652 ave 19652 max 19652 min
Histogram: 1 0 0 0 0 0 0 0 0 0
Nghost:    15921 ave 15921 max 15921 min
Histogram: 1 0 0 0 0 0 0 0 0 0
Neighs:    1.07595e+06 ave 1.07595e+06 max 1.07595e+06 min
Histogram: 1 0 0 0 0 0 0 0 0 0

Total # of neighbors = 1075951
Ave neighs/atom = 54.7502
Neighbor list builds = 172
Dangerous builds not checked
Setting up Verlet run ...
  Unit style    : metal
  Current step  : 70682
  Time step     : 0.001
Per MPI rank memory allocation (min/avg/max) = 18.22 | 18.22 | 18.22 Mbytes
Step Temp Press TotEng PotEng Enthalpy Volume 
   70682    172.18988   -55.282597   -27650.862    -28088.24   -27667.064    469566.98 
   70702    173.09433   -67.726017   -27653.505    -28093.18   -27673.353    469547.03 
   71177    133.94949     11.84982   -27861.791   -28202.035   -27858.332    467630.05 
Loop time of 49.3917 on 1 procs for 495 steps with 19652 atoms

Performance: 0.866 ns/day, 27.717 hours/ns, 10.022 timesteps/s
99.9% CPU use with 1 MPI tasks x no OpenMP threads

MPI task timing breakdown:
Section |  min time  |  avg time  |  max time  |%varavg| %total
---------------------------------------------------------------
Pair    | 26.423     | 26.423     | 26.423     |   0.0 | 53.50
Neigh   | 21.496     | 21.496     | 21.496     |   0.0 | 43.52
Comm    | 0.46144    | 0.46144    | 0.46144    |   0.0 |  0.93
Output  | 0.039118   | 0.039118   | 0.039118   |   0.0 |  0.08
Modify  | 0.71109    | 0.71109    | 0.71109    |   0.0 |  1.44
Other   |            | 0.2608     |            |       |  0.53

Nlocal:    19652 ave 19652 max 19652 min
Histogram: 1 0 0 0 0 0 0 0 0 0
Nghost:    15920 ave 15920 max 15920 min
Histogram: 1 0 0 0 0 0 0 0 0 0
Neighs:    1.08181e+06 ave 1.08181e+06 max 1.08181e+06 min
Histogram: 1 0 0 0 0 0 0 0 0 0

Total # of neighbors = 1081806
Ave neighs/atom = 55.0481
Neighbor list builds = 495
Dangerous builds not checked
Setting up Verlet run ...
  Unit style    : metal
  Current step  : 71177
  Time step     : 0.001
Per MPI rank memory allocation (min/avg/max) = 18.22 | 18.22 | 18.22 Mbytes
Step Temp Press TotEng PotEng Enthalpy Volume 
   71177    133.94949     11.84982   -27861.791   -28202.035   -27858.332    467630.05 
   71349    123.74587    2.5485147   -27918.066   -28232.392   -27917.323    467220.65 
Loop time of 17.2035 on 1 procs for 172 steps with 19652 atoms

Performance: 0.864 ns/day, 27.783 hours/ns, 9.998 timesteps/s
99.8% CPU use with 1 MPI tasks x no OpenMP threads

MPI task timing breakdown:
Section |  min time  |  avg time  |  max time  |%varavg| %total
---------------------------------------------------------------
Pair    | 9.2319     | 9.2319     | 9.2319     |   0.0 | 53.66
Neigh   | 7.4696     | 7.4696     | 7.4696     |   0.0 | 43.42
Comm    | 0.16175    | 0.16175    | 0.16175    |   0.0 |  0.94
Output  | 0.00015998 | 0.00015998 | 0.00015998 |   0.0 |  0.00
Modify  | 0.24783    | 0.24783    | 0.24783    |   0.0 |  1.44
Other   |            | 0.09223    |            |       |  0.54

Nlocal:    19652 ave 19652 max 19652 min
Histogram: 1 0 0 0 0 0 0 0 0 0
Nghost:    15935 ave 15935 max 15935 min
Histogram: 1 0 0 0 0 0 0 0 0 0
Neighs:    1.08282e+06 ave 1.08282e+06 max 1.08282e+06 min
Histogram: 1 0 0 0 0 0 0 0 0 0

Total # of neighbors = 1082823
Ave neighs/atom = 55.0999
Neighbor list builds = 172
Dangerous builds not checked
Total wall time: 1:46:47
