LAMMPS (12 Dec 2018)
Lattice spacing in x,y,z = 4 4 4
Created orthogonal box = (0 0 0) to (68 68 68)
  1 by 1 by 2 MPI processor grid
Created 19652 atoms
  Time spent = 0.00177097 secs
Setting atom values ...
  19480 settings made for type/fraction
Neighbor list info ...
  update every 1 steps, delay 0 steps, check no
  max neighbors/atom: 2000, page size: 100000
  master list distance cutoff = 8.5
  ghost atom cutoff = 8.5
  binsize = 4.25, bins = 16 16 16
  1 neighbor lists, perpetual/occasional/extra = 1 0 0
  (1) pair eam/alloy, perpetual
      attributes: half, newton on
      pair build: half/bin/atomonly/newton
      stencil: half/bin/3d/newton
      bin: standard
Setting up Verlet run ...
  Unit style    : metal
  Current step  : 0
  Time step     : 0.001
Per MPI rank memory allocation (min/avg/max) = 11.15 | 11.15 | 11.15 Mbytes
Step Temp Press TotEng PotEng Enthalpy 
       0          300    15950.205   -65977.094   -66739.122   -62846.818 
    1000    154.55942    22609.728   -65976.911   -66369.506   -61539.683 
Loop time of 104.166 on 2 procs for 1000 steps with 19652 atoms

Performance: 0.829 ns/day, 28.935 hours/ns, 9.600 timesteps/s
99.6% CPU use with 2 MPI tasks x no OpenMP threads

MPI task timing breakdown:
Section |  min time  |  avg time  |  max time  |%varavg| %total
---------------------------------------------------------------
Pair    | 60.434     | 61.164     | 61.894     |   9.3 | 58.72
Neigh   | 38.601     | 38.684     | 38.767     |   1.3 | 37.14
Comm    | 3.0622     | 3.7248     | 4.3875     |  34.3 |  3.58
Output  | 0.00012684 | 0.00033844 | 0.00055003 |   0.0 |  0.00
Modify  | 0.29552    | 0.3083     | 0.32108    |   2.3 |  0.30
Other   |            | 0.2839     |            |       |  0.27

Nlocal:    9826 ave 9836 max 9816 min
Histogram: 1 0 0 0 0 0 0 0 0 1
Nghost:    14211 ave 14221 max 14201 min
Histogram: 1 0 0 0 0 0 0 0 0 1
Neighs:    786526 ave 787154 max 785897 min
Histogram: 1 0 0 0 0 0 0 0 0 1

Total # of neighbors = 1573051
Ave neighs/atom = 80.0453
Neighbor list builds = 1000
Dangerous builds not checked
Setting up Verlet run ...
  Unit style    : metal
  Current step  : 1000
  Time step     : 0.001
Per MPI rank memory allocation (min/avg/max) = 11.15 | 11.15 | 11.15 Mbytes
Step Temp Press TotEng PotEng Enthalpy 
    1000    154.55942    22609.728   -65976.911   -66369.506   -61539.683 
    2000    298.39049   -129.25084   -65220.793   -65978.732   -65247.212 
Loop time of 99.8843 on 2 procs for 1000 steps with 19652 atoms

Performance: 0.865 ns/day, 27.746 hours/ns, 10.012 timesteps/s
99.1% CPU use with 2 MPI tasks x no OpenMP threads

MPI task timing breakdown:
Section |  min time  |  avg time  |  max time  |%varavg| %total
---------------------------------------------------------------
Pair    | 57.598     | 57.817     | 58.036     |   2.9 | 57.88
Neigh   | 37.121     | 37.243     | 37.366     |   2.0 | 37.29
Comm    | 3.5452     | 3.6408     | 3.7364     |   5.0 |  3.65
Output  | 0.00010395 | 0.00023699 | 0.00037003 |   0.0 |  0.00
Modify  | 0.91529    | 0.91648    | 0.91768    |   0.1 |  0.92
Other   |            | 0.2667     |            |       |  0.27

Nlocal:    9826 ave 9829 max 9823 min
Histogram: 1 0 0 0 0 0 0 0 0 1
Nghost:    14210.5 ave 14214 max 14207 min
Histogram: 1 0 0 0 0 0 0 0 0 1
Neighs:    728880 ave 729433 max 728326 min
Histogram: 1 0 0 0 0 0 0 0 0 1

Total # of neighbors = 1457759
Ave neighs/atom = 74.1787
Neighbor list builds = 1000
Dangerous builds not checked
Setting up Verlet run ...
  Unit style    : metal
  Current step  : 2000
  Time step     : 0.001
Per MPI rank memory allocation (min/avg/max) = 11.15 | 11.15 | 11.15 Mbytes
Step Temp Press TotEng PotEng Enthalpy 
    2000    298.39049   -129.25084   -65220.793   -65978.732   -65247.212 
   10000    2442.5864    639.93425   -51015.801   -57220.193   -50837.212 
Loop time of 798.582 on 2 procs for 8000 steps with 19652 atoms

Performance: 0.866 ns/day, 27.729 hours/ns, 10.018 timesteps/s
98.9% CPU use with 2 MPI tasks x no OpenMP threads

MPI task timing breakdown:
Section |  min time  |  avg time  |  max time  |%varavg| %total
---------------------------------------------------------------
Pair    | 444.14     | 448.83     | 453.53     |  22.2 | 56.20
Neigh   | 304.72     | 305.82     | 306.93     |   6.3 | 38.30
Comm    | 28.631     | 34.447     | 40.264     |  99.1 |  4.31
Output  | 0.03934    | 0.0394     | 0.039459   |   0.0 |  0.00
Modify  | 7.3432     | 7.3557     | 7.3681     |   0.5 |  0.92
Other   |            | 2.085      |            |       |  0.26

Nlocal:    9826 ave 9827 max 9825 min
Histogram: 1 0 0 0 0 0 0 0 0 1
Nghost:    11368.5 ave 11371 max 11366 min
Histogram: 1 0 0 0 0 0 0 0 0 1
Neighs:    551794 ave 557537 max 546052 min
Histogram: 1 0 0 0 0 0 0 0 0 1

Total # of neighbors = 1103589
Ave neighs/atom = 56.1566
Neighbor list builds = 8000
Dangerous builds not checked
Setting up Verlet run ...
  Unit style    : metal
  Current step  : 10000
  Time step     : 0.001
Per MPI rank memory allocation (min/avg/max) = 11.19 | 11.19 | 11.19 Mbytes
Step Temp Press TotEng PotEng Enthalpy 
   10000    2442.5864    639.93425   -51015.801   -57220.193   -50837.212 
   20000    2451.9713   -514.33853   -50914.995   -57143.225   -51059.155 
   30000    2444.1042   -60.852136   -50916.006   -57124.253   -50933.057 
   40000    2456.8534   -741.73104   -50885.142   -57125.773   -51093.385 
Loop time of 2589.28 on 2 procs for 30000 steps with 19652 atoms

Performance: 1.001 ns/day, 23.975 hours/ns, 11.586 timesteps/s
97.9% CPU use with 2 MPI tasks x no OpenMP threads

MPI task timing breakdown:
Section |  min time  |  avg time  |  max time  |%varavg| %total
---------------------------------------------------------------
Pair    | 1434.4     | 1438.8     | 1443.1     |  11.6 | 55.57
Neigh   | 978.53     | 981.15     | 983.76     |   8.4 | 37.89
Comm    | 134.68     | 136.43     | 138.18     |  15.0 |  5.27
Output  | 0.094486   | 0.094572   | 0.094658   |   0.0 |  0.00
Modify  | 26.058     | 26.071     | 26.084     |   0.2 |  1.01
Other   |            | 6.778      |            |       |  0.26

Nlocal:    9826 ave 9859 max 9793 min
Histogram: 1 0 0 0 0 0 0 0 0 1
Nghost:    11385.5 ave 11399 max 11372 min
Histogram: 1 0 0 0 0 0 0 0 0 1
Neighs:    548466 ave 551227 max 545705 min
Histogram: 1 0 0 0 0 0 0 0 0 1

Total # of neighbors = 1096932
Ave neighs/atom = 55.8178
Neighbor list builds = 30000
Dangerous builds not checked
Setting up Verlet run ...
  Unit style    : metal
  Current step  : 40000
  Time step     : 0.001
Per MPI rank memory allocation (min/avg/max) = 11.29 | 11.29 | 11.29 Mbytes
Step Temp Press TotEng PotEng Enthalpy 
   40000    2456.8534   -741.73104   -50885.142   -57125.773   -51093.385 
   40495    2411.0831    669.23112   -51160.295   -57284.666   -50974.232 
Loop time of 35.7089 on 2 procs for 495 steps with 19652 atoms

Performance: 1.198 ns/day, 20.039 hours/ns, 13.862 timesteps/s
98.0% CPU use with 2 MPI tasks x no OpenMP threads

MPI task timing breakdown:
Section |  min time  |  avg time  |  max time  |%varavg| %total
---------------------------------------------------------------
Pair    | 18.893     | 18.899     | 18.905     |   0.1 | 52.93
Neigh   | 13.87      | 14.241     | 14.613     |   9.8 | 39.88
Comm    | 1.7255     | 2.1019     | 2.4783     |  26.0 |  5.89
Output  | 9.799e-05  | 0.00013697 | 0.00017595 |   0.0 |  0.00
Modify  | 0.36184    | 0.3706     | 0.37935    |   1.4 |  1.04
Other   |            | 0.09567    |            |       |  0.27

Nlocal:    9826 ave 9826 max 9826 min
Histogram: 2 0 0 0 0 0 0 0 0 0
Nghost:    11414 ave 11414 max 11414 min
Histogram: 2 0 0 0 0 0 0 0 0 0
Neighs:    554157 ave 559950 max 548364 min
Histogram: 1 0 0 0 0 0 0 0 0 1

Total # of neighbors = 1108314
Ave neighs/atom = 56.397
Neighbor list builds = 495
Dangerous builds not checked
Setting up Verlet run ...
  Unit style    : metal
  Current step  : 40495
  Time step     : 0.001
Per MPI rank memory allocation (min/avg/max) = 11.29 | 11.29 | 11.29 Mbytes
Step Temp Press TotEng PotEng Enthalpy 
   40495    2411.0831    669.23112   -51160.295   -57284.666   -50974.232 
   50000    2406.6067    219.79216   -51191.234   -57304.234   -51130.082 
Loop time of 788.024 on 2 procs for 9505 steps with 19652 atoms

Performance: 1.042 ns/day, 23.030 hours/ns, 12.062 timesteps/s
98.1% CPU use with 2 MPI tasks x no OpenMP threads

MPI task timing breakdown:
Section |  min time  |  avg time  |  max time  |%varavg| %total
---------------------------------------------------------------
Pair    | 422.2      | 424.02     | 425.83     |   8.8 | 53.81
Neigh   | 303.43     | 310.54     | 317.65     |  40.4 | 39.41
Comm    | 34.948     | 43.982     | 53.016     | 136.2 |  5.58
Output  | 0.053948   | 0.053979   | 0.05401    |   0.0 |  0.01
Modify  | 7.3651     | 7.4521     | 7.5391     |   3.2 |  0.95
Other   |            | 1.98       |            |       |  0.25

Nlocal:    9826 ave 9834 max 9818 min
Histogram: 1 0 0 0 0 0 0 0 0 1
Nghost:    11390 ave 11405 max 11375 min
Histogram: 1 0 0 0 0 0 0 0 0 1
Neighs:    553550 ave 558265 max 548835 min
Histogram: 1 0 0 0 0 0 0 0 0 1

Total # of neighbors = 1107100
Ave neighs/atom = 56.3352
Neighbor list builds = 9505
Dangerous builds not checked
Setting up Verlet run ...
  Unit style    : metal
  Current step  : 50000
  Time step     : 0.001
Per MPI rank memory allocation (min/avg/max) = 11.3 | 11.3 | 11.3 Mbytes
Step Temp Press TotEng PotEng Enthalpy 
   50000    2406.6067    219.79216   -51191.234   -57304.234   -51130.082 
   50495    2370.0154    427.19894   -51331.793   -57351.848   -51213.189 
Loop time of 39.1868 on 2 procs for 495 steps with 19652 atoms

Performance: 1.091 ns/day, 21.990 hours/ns, 12.632 timesteps/s
99.1% CPU use with 2 MPI tasks x no OpenMP threads

MPI task timing breakdown:
Section |  min time  |  avg time  |  max time  |%varavg| %total
---------------------------------------------------------------
Pair    | 20.783     | 20.891     | 20.999     |   2.4 | 53.31
Neigh   | 15.433     | 15.807     | 16.181     |   9.4 | 40.34
Comm    | 1.7204     | 1.9947     | 2.269      |  19.4 |  5.09
Output  | 8.5115e-05 | 0.00013304 | 0.00018096 |   0.0 |  0.00
Modify  | 0.38379    | 0.38959    | 0.3954     |   0.9 |  0.99
Other   |            | 0.1047     |            |       |  0.27

Nlocal:    9826 ave 9827 max 9825 min
Histogram: 1 0 0 0 0 0 0 0 0 1
Nghost:    11398.5 ave 11446 max 11351 min
Histogram: 1 0 0 0 0 0 0 0 0 1
Neighs:    554710 ave 561339 max 548082 min
Histogram: 1 0 0 0 0 0 0 0 0 1

Total # of neighbors = 1109421
Ave neighs/atom = 56.4533
Neighbor list builds = 495
Dangerous builds not checked
Setting up Verlet run ...
  Unit style    : metal
  Current step  : 50495
  Time step     : 0.001
Per MPI rank memory allocation (min/avg/max) = 11.3 | 11.3 | 11.3 Mbytes
Step Temp Press TotEng PotEng Enthalpy 
   50495    2370.0154    427.19894   -51331.793   -57351.848   -51213.189 
   60000    2350.4283    1757.9924   -51556.077   -57526.379   -51072.605 
Loop time of 795.215 on 2 procs for 9505 steps with 19652 atoms

Performance: 1.033 ns/day, 23.240 hours/ns, 11.953 timesteps/s
98.4% CPU use with 2 MPI tasks x no OpenMP threads

MPI task timing breakdown:
Section |  min time  |  avg time  |  max time  |%varavg| %total
---------------------------------------------------------------
Pair    | 424.27     | 426.63     | 428.99     |  11.4 | 53.65
Neigh   | 305.22     | 313.92     | 322.62     |  49.1 | 39.48
Comm    | 33.729     | 44.912     | 56.094     | 166.9 |  5.65
Output  | 0.037542   | 0.037573   | 0.037604   |   0.0 |  0.00
Modify  | 7.641      | 7.7155     | 7.79       |   2.7 |  0.97
Other   |            | 2.001      |            |       |  0.25

Nlocal:    9826 ave 9836 max 9816 min
Histogram: 1 0 0 0 0 0 0 0 0 1
Nghost:    11445.5 ave 11467 max 11424 min
Histogram: 1 0 0 0 0 0 0 0 0 1
Neighs:    560162 ave 566258 max 554066 min
Histogram: 1 0 0 0 0 0 0 0 0 1

Total # of neighbors = 1120324
Ave neighs/atom = 57.0081
Neighbor list builds = 9505
Dangerous builds not checked
Setting up Verlet run ...
  Unit style    : metal
  Current step  : 60000
  Time step     : 0.001
Per MPI rank memory allocation (min/avg/max) = 11.31 | 11.31 | 11.31 Mbytes
Step Temp Press TotEng PotEng Enthalpy 
   60000    2350.4283    1757.9924   -51556.077   -57526.379   -51072.605 
   60495    2340.0225    -101.3307   -51572.213   -57516.083   -51600.202 
Loop time of 44.5922 on 2 procs for 495 steps with 19652 atoms

Performance: 0.959 ns/day, 25.024 hours/ns, 11.101 timesteps/s
94.8% CPU use with 2 MPI tasks x no OpenMP threads

MPI task timing breakdown:
Section |  min time  |  avg time  |  max time  |%varavg| %total
---------------------------------------------------------------
Pair    | 24.153     | 24.416     | 24.679     |   5.3 | 54.75
Neigh   | 16.62      | 16.982     | 17.344     |   8.8 | 38.08
Comm    | 2.5433     | 2.6384     | 2.7334     |   5.9 |  5.92
Output  | 9.6083e-05 | 0.00014508 | 0.00019407 |   0.0 |  0.00
Modify  | 0.43769    | 0.43817    | 0.43864    |   0.1 |  0.98
Other   |            | 0.1181     |            |       |  0.26

Nlocal:    9826 ave 9836 max 9816 min
Histogram: 1 0 0 0 0 0 0 0 0 1
Nghost:    11433 ave 11456 max 11410 min
Histogram: 1 0 0 0 0 0 0 0 0 1
Neighs:    557618 ave 561444 max 553792 min
Histogram: 1 0 0 0 0 0 0 0 0 1

Total # of neighbors = 1115236
Ave neighs/atom = 56.7492
Neighbor list builds = 495
Dangerous builds not checked
Setting up Verlet run ...
  Unit style    : metal
  Current step  : 60495
  Time step     : 0.001
Per MPI rank memory allocation (min/avg/max) = 11.31 | 11.31 | 11.31 Mbytes
Step Temp Press TotEng PotEng Enthalpy 
   60495    2340.0225    -101.3307   -51572.213   -57516.083   -51600.202 
   70000    2306.7198   -509.28353   -51659.165   -57518.443   -51799.875 
Loop time of 775.548 on 2 procs for 9505 steps with 19652 atoms

Performance: 1.059 ns/day, 22.665 hours/ns, 12.256 timesteps/s
98.8% CPU use with 2 MPI tasks x no OpenMP threads

MPI task timing breakdown:
Section |  min time  |  avg time  |  max time  |%varavg| %total
---------------------------------------------------------------
Pair    | 413.08     | 416.24     | 419.39     |  15.5 | 53.67
Neigh   | 309.51     | 310.06     | 310.61     |   3.1 | 39.98
Comm    | 36.793     | 39.498     | 42.202     |  43.0 |  5.09
Output  | 0.023885   | 0.023909   | 0.023933   |   0.0 |  0.00
Modify  | 7.6497     | 7.7682     | 7.8867     |   4.3 |  1.00
Other   |            | 1.964      |            |       |  0.25

Nlocal:    9826 ave 9844 max 9808 min
Histogram: 1 0 0 0 0 0 0 0 0 1
Nghost:    11440 ave 11503 max 11377 min
Histogram: 1 0 0 0 0 0 0 0 0 1
Neighs:    557434 ave 561184 max 553685 min
Histogram: 1 0 0 0 0 0 0 0 0 1

Total # of neighbors = 1114869
Ave neighs/atom = 56.7306
Neighbor list builds = 9505
Dangerous builds not checked
Setting up Verlet run ...
  Unit style    : metal
  Current step  : 70000
  Time step     : 0.001
Per MPI rank memory allocation (min/avg/max) = 11.32 | 11.32 | 11.32 Mbytes
Step Temp Press TotEng PotEng Enthalpy 
   70000    2306.7198   -509.28353   -51659.165   -57518.443   -51799.875 
   70495    2256.0436    899.81608   -51954.047   -57684.603   -51707.733 
Loop time of 41.9816 on 2 procs for 495 steps with 19652 atoms

Performance: 1.019 ns/day, 23.559 hours/ns, 11.791 timesteps/s
94.5% CPU use with 2 MPI tasks x no OpenMP threads

MPI task timing breakdown:
Section |  min time  |  avg time  |  max time  |%varavg| %total
---------------------------------------------------------------
Pair    | 22.629     | 22.834     | 23.039     |   4.3 | 54.39
Neigh   | 15.015     | 16.048     | 17.082     |  25.8 | 38.23
Comm    | 1.3104     | 2.5706     | 3.8308     |  78.6 |  6.12
Output  | 0.00011015 | 0.00020099 | 0.00029182 |   0.0 |  0.00
Modify  | 0.40304    | 0.41717    | 0.43131    |   2.2 |  0.99
Other   |            | 0.1114     |            |       |  0.27

Nlocal:    9826 ave 9831 max 9821 min
Histogram: 1 0 0 0 0 0 0 0 0 1
Nghost:    11455.5 ave 11456 max 11455 min
Histogram: 1 0 0 0 0 0 0 0 0 1
Neighs:    562553 ave 568509 max 556597 min
Histogram: 1 0 0 0 0 0 0 0 0 1

Total # of neighbors = 1125106
Ave neighs/atom = 57.2515
Neighbor list builds = 495
Dangerous builds not checked
Setting up Verlet run ...
  Unit style    : metal
  Current step  : 70495
  Time step     : 0.001
Per MPI rank memory allocation (min/avg/max) = 11.32 | 11.32 | 11.32 Mbytes
Step Temp Press TotEng PotEng Enthalpy 
   70495    2256.0436    899.81608   -51954.047   -57684.603   -51707.733 
   80000     2252.305   -533.14834   -52007.683   -57728.743   -52153.806 
Loop time of 817.53 on 2 procs for 9505 steps with 19652 atoms

Performance: 1.005 ns/day, 23.892 hours/ns, 11.626 timesteps/s
98.3% CPU use with 2 MPI tasks x no OpenMP threads

MPI task timing breakdown:
Section |  min time  |  avg time  |  max time  |%varavg| %total
---------------------------------------------------------------
Pair    | 439.36     | 442.64     | 445.92     |  15.6 | 54.14
Neigh   | 322.31     | 323.95     | 325.59     |   9.1 | 39.63
Comm    | 39.038     | 40.637     | 42.235     |  25.1 |  4.97
Output  | 0.0345     | 0.03456    | 0.03462    |   0.0 |  0.00
Modify  | 8.1716     | 8.1971     | 8.2226     |   0.9 |  1.00
Other   |            | 2.075      |            |       |  0.25

Nlocal:    9826 ave 9834 max 9818 min
Histogram: 1 0 0 0 0 0 0 0 0 1
Nghost:    11424 ave 11435 max 11413 min
Histogram: 1 0 0 0 0 0 0 0 0 1
Neighs:    561851 ave 566282 max 557420 min
Histogram: 1 0 0 0 0 0 0 0 0 1

Total # of neighbors = 1123702
Ave neighs/atom = 57.18
Neighbor list builds = 9505
Dangerous builds not checked
Setting up Verlet run ...
  Unit style    : metal
  Current step  : 80000
  Time step     : 0.001
Per MPI rank memory allocation (min/avg/max) = 11.33 | 11.33 | 11.33 Mbytes
Step Temp Press TotEng PotEng Enthalpy 
   80000     2252.305   -533.14834   -52007.683   -57728.743   -52153.806 
   80495    2212.2918    309.01915    -52207.19   -57826.612   -52122.966 
Loop time of 38.539 on 2 procs for 495 steps with 19652 atoms

Performance: 1.110 ns/day, 21.627 hours/ns, 12.844 timesteps/s
99.9% CPU use with 2 MPI tasks x no OpenMP threads

MPI task timing breakdown:
Section |  min time  |  avg time  |  max time  |%varavg| %total
---------------------------------------------------------------
Pair    | 20.401     | 20.594     | 20.787     |   4.3 | 53.44
Neigh   | 15.332     | 15.82      | 16.308     |  12.3 | 41.05
Comm    | 1.3161     | 1.6205     | 1.9248     |  23.9 |  4.20
Output  | 7.2002e-05 | 0.000108   | 0.000144   |   0.0 |  0.00
Modify  | 0.39035    | 0.39793    | 0.40552    |   1.2 |  1.03
Other   |            | 0.1067     |            |       |  0.28

Nlocal:    9826 ave 9846 max 9806 min
Histogram: 1 0 0 0 0 0 0 0 0 1
Nghost:    11496 ave 11538 max 11454 min
Histogram: 1 0 0 0 0 0 0 0 0 1
Neighs:    565181 ave 568906 max 561456 min
Histogram: 1 0 0 0 0 0 0 0 0 1

Total # of neighbors = 1130362
Ave neighs/atom = 57.5189
Neighbor list builds = 495
Dangerous builds not checked
Setting up Verlet run ...
  Unit style    : metal
  Current step  : 80495
  Time step     : 0.001
Per MPI rank memory allocation (min/avg/max) = 11.33 | 11.33 | 11.33 Mbytes
Step Temp Press TotEng PotEng Enthalpy 
   80495    2212.2918    309.01915    -52207.19   -57826.612   -52122.966 
   90000     2212.927    297.83135   -52290.605   -57911.641   -52209.711 
Loop time of 841.327 on 2 procs for 9505 steps with 19652 atoms

Performance: 0.976 ns/day, 24.587 hours/ns, 11.298 timesteps/s
97.9% CPU use with 2 MPI tasks x no OpenMP threads

MPI task timing breakdown:
Section |  min time  |  avg time  |  max time  |%varavg| %total
---------------------------------------------------------------
Pair    | 452.76     | 456.09     | 459.43     |  15.6 | 54.21
Neigh   | 329.22     | 329.68     | 330.14     |   2.5 | 39.19
Comm    | 42.464     | 45.316     | 48.169     |  42.4 |  5.39
Output  | 0.070892   | 0.070929   | 0.070965   |   0.0 |  0.01
Modify  | 8.0363     | 8.0452     | 8.0541     |   0.3 |  0.96
Other   |            | 2.124      |            |       |  0.25

Nlocal:    9826 ave 9832 max 9820 min
Histogram: 1 0 0 0 0 0 0 0 0 1
Nghost:    11535.5 ave 11552 max 11519 min
Histogram: 1 0 0 0 0 0 0 0 0 1
Neighs:    567174 ave 572446 max 561901 min
Histogram: 1 0 0 0 0 0 0 0 0 1

Total # of neighbors = 1134347
Ave neighs/atom = 57.7217
Neighbor list builds = 9505
Dangerous builds not checked
Setting up Verlet run ...
  Unit style    : metal
  Current step  : 90000
  Time step     : 0.001
Per MPI rank memory allocation (min/avg/max) = 11.33 | 11.33 | 11.33 Mbytes
Step Temp Press TotEng PotEng Enthalpy 
   90000     2212.927    297.83135   -52290.605   -57911.641   -52209.711 
   90495    2165.5853    -107.0855   -52437.526    -57938.31   -52466.599 
Loop time of 39.9703 on 2 procs for 495 steps with 19652 atoms

Performance: 1.070 ns/day, 22.430 hours/ns, 12.384 timesteps/s
96.4% CPU use with 2 MPI tasks x no OpenMP threads

MPI task timing breakdown:
Section |  min time  |  avg time  |  max time  |%varavg| %total
---------------------------------------------------------------
Pair    | 21.638     | 21.776     | 21.914     |   3.0 | 54.48
Neigh   | 15.246     | 15.658     | 16.07      |  10.4 | 39.17
Comm    | 1.5043     | 2.0568     | 2.6092     |  38.5 |  5.15
Output  | 0.00010896 | 0.00014699 | 0.00018501 |   0.0 |  0.00
Modify  | 0.37725    | 0.37766    | 0.37808    |   0.1 |  0.94
Other   |            | 0.1018     |            |       |  0.25

Nlocal:    9826 ave 9836 max 9816 min
Histogram: 1 0 0 0 0 0 0 0 0 1
Nghost:    11526.5 ave 11551 max 11502 min
Histogram: 1 0 0 0 0 0 0 0 0 1
Neighs:    567626 ave 573324 max 561927 min
Histogram: 1 0 0 0 0 0 0 0 0 1

Total # of neighbors = 1135251
Ave neighs/atom = 57.7677
Neighbor list builds = 495
Dangerous builds not checked
Setting up Verlet run ...
  Unit style    : metal
  Current step  : 90495
  Time step     : 0.001
Per MPI rank memory allocation (min/avg/max) = 11.33 | 11.33 | 11.33 Mbytes
Step Temp Press TotEng PotEng Enthalpy 
   90495    2165.5853    -107.0855   -52437.526    -57938.31   -52466.599 
  100000    2155.5281    135.22594   -52577.494   -58052.732   -52540.971 
Loop time of 738.954 on 2 procs for 9505 steps with 19652 atoms

Performance: 1.111 ns/day, 21.595 hours/ns, 12.863 timesteps/s
98.4% CPU use with 2 MPI tasks x no OpenMP threads

MPI task timing breakdown:
Section |  min time  |  avg time  |  max time  |%varavg| %total
---------------------------------------------------------------
Pair    | 394.96     | 397.34     | 399.72     |  11.9 | 53.77
Neigh   | 294.15     | 296.46     | 298.76     |  13.4 | 40.12
Comm    | 36.266     | 36.269     | 36.271     |   0.0 |  4.91
Output  | 0.02889    | 0.0289     | 0.028909   |   0.0 |  0.00
Modify  | 6.9747     | 7.0253     | 7.0758     |   1.9 |  0.95
Other   |            | 1.837      |            |       |  0.25

Nlocal:    9826 ave 9837 max 9815 min
Histogram: 1 0 0 0 0 0 0 0 0 1
Nghost:    11546.5 ave 11550 max 11543 min
Histogram: 1 0 0 0 0 0 0 0 0 1
Neighs:    570570 ave 577544 max 563595 min
Histogram: 1 0 0 0 0 0 0 0 0 1

Total # of neighbors = 1141139
Ave neighs/atom = 58.0673
Neighbor list builds = 9505
Dangerous builds not checked
Setting up Verlet run ...
  Unit style    : metal
  Current step  : 100000
  Time step     : 0.001
Per MPI rank memory allocation (min/avg/max) = 11.33 | 11.33 | 11.34 Mbytes
Step Temp Press TotEng PotEng Enthalpy 
  100000    2155.5281    135.22594   -52577.494   -58052.732   -52540.971 
  100495     2126.598    603.69155   -52681.711   -58083.464   -52518.931 
Loop time of 40.7916 on 2 procs for 495 steps with 19652 atoms

Performance: 1.048 ns/day, 22.891 hours/ns, 12.135 timesteps/s
98.7% CPU use with 2 MPI tasks x no OpenMP threads

MPI task timing breakdown:
Section |  min time  |  avg time  |  max time  |%varavg| %total
---------------------------------------------------------------
Pair    | 21.582     | 21.706     | 21.831     |   2.7 | 53.21
Neigh   | 16.695     | 16.731     | 16.767     |   0.9 | 41.02
Comm    | 1.6799     | 1.8378     | 1.9957     |  11.6 |  4.51
Output  | 8.6784e-05 | 0.00011683 | 0.00014687 |   0.0 |  0.00
Modify  | 0.4065     | 0.40797    | 0.40943    |   0.2 |  1.00
Other   |            | 0.1083     |            |       |  0.27

Nlocal:    9826 ave 9832 max 9820 min
Histogram: 1 0 0 0 0 0 0 0 0 1
Nghost:    11583.5 ave 11628 max 11539 min
Histogram: 1 0 0 0 0 0 0 0 0 1
Neighs:    571468 ave 577445 max 565492 min
Histogram: 1 0 0 0 0 0 0 0 0 1

Total # of neighbors = 1142937
Ave neighs/atom = 58.1588
Neighbor list builds = 495
Dangerous builds not checked
Setting up Verlet run ...
  Unit style    : metal
  Current step  : 100495
  Time step     : 0.001
Per MPI rank memory allocation (min/avg/max) = 11.33 | 11.33 | 11.34 Mbytes
Step Temp Press TotEng PotEng Enthalpy 
  100495     2126.598    603.69155   -52681.711   -58083.464   -52518.931 
  110000    2119.5581    53.099217   -52765.863   -58149.734   -52751.568 
Loop time of 732.562 on 2 procs for 9505 steps with 19652 atoms

Performance: 1.121 ns/day, 21.409 hours/ns, 12.975 timesteps/s
98.2% CPU use with 2 MPI tasks x no OpenMP threads

MPI task timing breakdown:
Section |  min time  |  avg time  |  max time  |%varavg| %total
---------------------------------------------------------------
Pair    | 388.52     | 391.3      | 394.09     |  14.1 | 53.42
Neigh   | 290.51     | 293.94     | 297.38     |  20.1 | 40.13
Comm    | 37.05      | 37.787     | 38.524     |  12.0 |  5.16
Output  | 0.035259   | 0.035291   | 0.035324   |   0.0 |  0.00
Modify  | 7.6191     | 7.6638     | 7.7085     |   1.6 |  1.05
Other   |            | 1.828      |            |       |  0.25

Nlocal:    9826 ave 9871 max 9781 min
Histogram: 1 0 0 0 0 0 0 0 0 1
Nghost:    11566 ave 11604 max 11528 min
Histogram: 1 0 0 0 0 0 0 0 0 1
Neighs:    572412 ave 572819 max 572006 min
Histogram: 1 0 0 0 0 0 0 0 0 1

Total # of neighbors = 1144825
Ave neighs/atom = 58.2549
Neighbor list builds = 9505
Dangerous builds not checked
Setting up Verlet run ...
  Unit style    : metal
  Current step  : 110000
  Time step     : 0.001
Per MPI rank memory allocation (min/avg/max) = 11.34 | 11.34 | 11.34 Mbytes
Step Temp Press TotEng PotEng Enthalpy 
  110000    2119.5581    53.099217   -52765.863   -58149.734   -52751.568 
  110495    2058.5585    225.91377   -53033.788   -58262.714   -52973.231 
Loop time of 38.4444 on 2 procs for 495 steps with 19652 atoms

Performance: 1.112 ns/day, 21.574 hours/ns, 12.876 timesteps/s
99.0% CPU use with 2 MPI tasks x no OpenMP threads

MPI task timing breakdown:
Section |  min time  |  avg time  |  max time  |%varavg| %total
---------------------------------------------------------------
Pair    | 20.703     | 20.827     | 20.952     |   2.7 | 54.18
Neigh   | 15.122     | 15.37      | 15.618     |   6.3 | 39.98
Comm    | 1.6443     | 1.7713     | 1.8983     |   9.5 |  4.61
Output  | 9.0122e-05 | 0.00013006 | 0.00016999 |   0.0 |  0.00
Modify  | 0.37424    | 0.37705    | 0.37987    |   0.5 |  0.98
Other   |            | 0.09878    |            |       |  0.26

Nlocal:    9826 ave 9852 max 9800 min
Histogram: 1 0 0 0 0 0 0 0 0 1
Nghost:    11602 ave 11669 max 11535 min
Histogram: 1 0 0 0 0 0 0 0 0 1
Neighs:    574863 ave 580785 max 568941 min
Histogram: 1 0 0 0 0 0 0 0 0 1

Total # of neighbors = 1149726
Ave neighs/atom = 58.5043
Neighbor list builds = 495
Dangerous builds not checked
Setting up Verlet run ...
  Unit style    : metal
  Current step  : 110495
  Time step     : 0.001
Per MPI rank memory allocation (min/avg/max) = 11.34 | 11.34 | 11.34 Mbytes
Step Temp Press TotEng PotEng Enthalpy 
  110495    2058.5585    225.91377   -53033.788   -58262.714   -52973.231 
  120000    2034.8077    486.68709   -53153.761   -58322.358   -53023.746 
Loop time of 700.484 on 2 procs for 9505 steps with 19652 atoms

Performance: 1.172 ns/day, 20.471 hours/ns, 13.569 timesteps/s
97.7% CPU use with 2 MPI tasks x no OpenMP threads

MPI task timing breakdown:
Section |  min time  |  avg time  |  max time  |%varavg| %total
---------------------------------------------------------------
Pair    | 369.71     | 372.28     | 374.84     |  13.3 | 53.15
Neigh   | 283.27     | 283.39     | 283.51     |   0.7 | 40.46
Comm    | 33.92      | 36.342     | 38.765     |  40.2 |  5.19
Output  | 0.034319   | 0.034329   | 0.034339   |   0.0 |  0.00
Modify  | 6.6938     | 6.7038     | 6.7138     |   0.4 |  0.96
Other   |            | 1.736      |            |       |  0.25

Nlocal:    9826 ave 9826 max 9826 min
Histogram: 2 0 0 0 0 0 0 0 0 0
Nghost:    11556 ave 11578 max 11534 min
Histogram: 1 0 0 0 0 0 0 0 0 1
Neighs:    576940 ave 582820 max 571060 min
Histogram: 1 0 0 0 0 0 0 0 0 1

Total # of neighbors = 1153880
Ave neighs/atom = 58.7157
Neighbor list builds = 9505
Dangerous builds not checked
Setting up Verlet run ...
  Unit style    : metal
  Current step  : 120000
  Time step     : 0.001
Per MPI rank memory allocation (min/avg/max) = 11.34 | 11.34 | 11.34 Mbytes
Step Temp Press TotEng PotEng Enthalpy 
  120000    2034.8077    486.68709   -53153.761   -58322.358   -53023.746 
  120495    2008.6853    -612.3852   -53283.174   -58385.417   -53446.703 
Loop time of 33.4743 on 2 procs for 495 steps with 19652 atoms

Performance: 1.278 ns/day, 18.785 hours/ns, 14.787 timesteps/s
99.7% CPU use with 2 MPI tasks x no OpenMP threads

MPI task timing breakdown:
Section |  min time  |  avg time  |  max time  |%varavg| %total
---------------------------------------------------------------
Pair    | 17.362     | 17.441     | 17.519     |   1.9 | 52.10
Neigh   | 13.689     | 14.108     | 14.527     |  11.2 | 42.15
Comm    | 1.1418     | 1.4903     | 1.8388     |  28.5 |  4.45
Output  | 6.1989e-05 | 8.4519e-05 | 0.00010705 |   0.0 |  0.00
Modify  | 0.34047    | 0.34646    | 0.35246    |   1.0 |  1.04
Other   |            | 0.08831    |            |       |  0.26

Nlocal:    9826 ave 9840 max 9812 min
Histogram: 1 0 0 0 0 0 0 0 0 1
Nghost:    11589.5 ave 11604 max 11575 min
Histogram: 1 0 0 0 0 0 0 0 0 1
Neighs:    577150 ave 583840 max 570459 min
Histogram: 1 0 0 0 0 0 0 0 0 1

Total # of neighbors = 1154299
Ave neighs/atom = 58.737
Neighbor list builds = 495
Dangerous builds not checked
Setting up Verlet run ...
  Unit style    : metal
  Current step  : 120495
  Time step     : 0.001
Per MPI rank memory allocation (min/avg/max) = 11.34 | 11.34 | 11.34 Mbytes
Step Temp Press TotEng PotEng Enthalpy 
  120495    2008.6853    -612.3852   -53283.174   -58385.417   -53446.703 
  130000    1994.4363    129.03876   -53324.818   -58390.868   -53290.424 
Loop time of 722.203 on 2 procs for 9505 steps with 19652 atoms

Performance: 1.137 ns/day, 21.106 hours/ns, 13.161 timesteps/s
98.6% CPU use with 2 MPI tasks x no OpenMP threads

MPI task timing breakdown:
Section |  min time  |  avg time  |  max time  |%varavg| %total
---------------------------------------------------------------
Pair    | 380.61     | 381.31     | 382        |   3.6 | 52.80
Neigh   | 289.02     | 294.85     | 300.67     |  33.9 | 40.83
Comm    | 30.638     | 37.246     | 43.853     | 108.3 |  5.16
Output  | 0.066603   | 0.066666   | 0.06673    |   0.0 |  0.01
Modify  | 6.8672     | 6.9389     | 7.0107     |   2.7 |  0.96
Other   |            | 1.799      |            |       |  0.25

Nlocal:    9826 ave 9830 max 9822 min
Histogram: 1 0 0 0 0 0 0 0 0 1
Nghost:    11633 ave 11645 max 11621 min
Histogram: 1 0 0 0 0 0 0 0 0 1
Neighs:    578238 ave 584375 max 572101 min
Histogram: 1 0 0 0 0 0 0 0 0 1

Total # of neighbors = 1156476
Ave neighs/atom = 58.8478
Neighbor list builds = 9505
Dangerous builds not checked
Setting up Verlet run ...
  Unit style    : metal
  Current step  : 130000
  Time step     : 0.001
Per MPI rank memory allocation (min/avg/max) = 11.34 | 11.34 | 11.34 Mbytes
Step Temp Press TotEng PotEng Enthalpy 
  130000    1994.4363    129.03876   -53324.818   -58390.868   -53290.424 
  130495    1965.4288    -80.83503   -53548.734   -58541.103   -53570.173 
Loop time of 37.1574 on 2 procs for 495 steps with 19652 atoms

Performance: 1.151 ns/day, 20.852 hours/ns, 13.322 timesteps/s
99.1% CPU use with 2 MPI tasks x no OpenMP threads

MPI task timing breakdown:
Section |  min time  |  avg time  |  max time  |%varavg| %total
---------------------------------------------------------------
Pair    | 19.685     | 19.71      | 19.735     |   0.6 | 53.04
Neigh   | 14.951     | 15.188     | 15.425     |   6.1 | 40.87
Comm    | 1.5725     | 1.7895     | 2.0065     |  16.2 |  4.82
Output  | 0.000103   | 0.000126   | 0.00014901 |   0.0 |  0.00
Modify  | 0.3711     | 0.37211    | 0.37312    |   0.2 |  1.00
Other   |            | 0.09786    |            |       |  0.26

Nlocal:    9826 ave 9840 max 9812 min
Histogram: 1 0 0 0 0 0 0 0 0 1
Nghost:    11646.5 ave 11652 max 11641 min
Histogram: 1 0 0 0 0 0 0 0 0 1
Neighs:    581134 ave 585787 max 576481 min
Histogram: 1 0 0 0 0 0 0 0 0 1

Total # of neighbors = 1162268
Ave neighs/atom = 59.1425
Neighbor list builds = 495
Dangerous builds not checked
Setting up Verlet run ...
  Unit style    : metal
  Current step  : 130495
  Time step     : 0.001
Per MPI rank memory allocation (min/avg/max) = 11.34 | 11.34 | 11.34 Mbytes
Step Temp Press TotEng PotEng Enthalpy 
  130495    1965.4288    -80.83503   -53548.734   -58541.103   -53570.173 
  140000    1961.4825   -988.50469   -53631.295    -58613.64   -53893.199 
Loop time of 661.12 on 2 procs for 9505 steps with 19652 atoms

Performance: 1.242 ns/day, 19.321 hours/ns, 14.377 timesteps/s
98.4% CPU use with 2 MPI tasks x no OpenMP threads

MPI task timing breakdown:
Section |  min time  |  avg time  |  max time  |%varavg| %total
---------------------------------------------------------------
Pair    | 345.74     | 346.31     | 346.87     |   3.0 | 52.38
Neigh   | 269.76     | 272.76     | 275.76     |  18.2 | 41.26
Comm    | 30.459     | 34.08      | 37.702     |  62.0 |  5.15
Output  | 0.033819   | 0.033843   | 0.033866   |   0.0 |  0.01
Modify  | 6.2402     | 6.2846     | 6.3291     |   1.8 |  0.95
Other   |            | 1.653      |            |       |  0.25

Nlocal:    9826 ave 9832 max 9820 min
Histogram: 1 0 0 0 0 0 0 0 0 1
Nghost:    11654 ave 11672 max 11636 min
Histogram: 1 0 0 0 0 0 0 0 0 1
Neighs:    582181 ave 586639 max 577723 min
Histogram: 1 0 0 0 0 0 0 0 0 1

Total # of neighbors = 1164362
Ave neighs/atom = 59.249
Neighbor list builds = 9505
Dangerous builds not checked
Setting up Verlet run ...
  Unit style    : metal
  Current step  : 140000
  Time step     : 0.001
Per MPI rank memory allocation (min/avg/max) = 11.34 | 11.34 | 11.34 Mbytes
Step Temp Press TotEng PotEng Enthalpy 
  140000    1961.4825   -988.50469   -53631.295    -58613.64   -53893.199 
  140495    1913.1144    490.69315   -53896.172   -58755.657   -53767.093 
Loop time of 34.5953 on 2 procs for 495 steps with 19652 atoms

Performance: 1.236 ns/day, 19.414 hours/ns, 14.308 timesteps/s
97.5% CPU use with 2 MPI tasks x no OpenMP threads

MPI task timing breakdown:
Section |  min time  |  avg time  |  max time  |%varavg| %total
---------------------------------------------------------------
Pair    | 18.477     | 18.543     | 18.609     |   1.5 | 53.60
Neigh   | 13.814     | 14.022     | 14.229     |   5.5 | 40.53
Comm    | 1.3279     | 1.6042     | 1.8804     |  21.8 |  4.64
Output  | 6.8188e-05 | 0.000108   | 0.00014782 |   0.0 |  0.00
Modify  | 0.33683    | 0.33891    | 0.341      |   0.4 |  0.98
Other   |            | 0.08743    |            |       |  0.25

Nlocal:    9826 ave 9843 max 9809 min
Histogram: 1 0 0 0 0 0 0 0 0 1
Nghost:    11707.5 ave 11711 max 11704 min
Histogram: 1 0 0 0 0 0 0 0 0 1
Neighs:    586268 ave 593419 max 579116 min
Histogram: 1 0 0 0 0 0 0 0 0 1

Total # of neighbors = 1172535
Ave neighs/atom = 59.6649
Neighbor list builds = 495
Dangerous builds not checked
Setting up Verlet run ...
  Unit style    : metal
  Current step  : 140495
  Time step     : 0.001
Per MPI rank memory allocation (min/avg/max) = 11.34 | 11.34 | 11.34 Mbytes
Step Temp Press TotEng PotEng Enthalpy 
  140495    1913.1144    490.69315   -53896.172   -58755.657   -53767.093 
  150000    1876.3958    4.8008237   -54047.834    -58814.05   -54046.575 
Loop time of 710.017 on 2 procs for 9505 steps with 19652 atoms

Performance: 1.157 ns/day, 20.750 hours/ns, 13.387 timesteps/s
98.0% CPU use with 2 MPI tasks x no OpenMP threads

MPI task timing breakdown:
Section |  min time  |  avg time  |  max time  |%varavg| %total
---------------------------------------------------------------
Pair    | 376.69     | 378.11     | 379.53     |   7.3 | 53.25
Neigh   | 284.49     | 285.65     | 286.81     |   6.9 | 40.23
Comm    | 34.846     | 37.433     | 40.021     |  42.3 |  5.27
Output  | 0.035933   | 0.035955   | 0.035976   |   0.0 |  0.01
Modify  | 7.0369     | 7.049      | 7.0611     |   0.5 |  0.99
Other   |            | 1.736      |            |       |  0.24

Nlocal:    9826 ave 9828 max 9824 min
Histogram: 1 0 0 0 0 0 0 0 0 1
Nghost:    11701.5 ave 11725 max 11678 min
Histogram: 1 0 0 0 0 0 0 0 0 1
Neighs:    588092 ave 594858 max 581325 min
Histogram: 1 0 0 0 0 0 0 0 0 1

Total # of neighbors = 1176183
Ave neighs/atom = 59.8505
Neighbor list builds = 9505
Dangerous builds not checked
Setting up Verlet run ...
  Unit style    : metal
  Current step  : 150000
  Time step     : 0.001
Per MPI rank memory allocation (min/avg/max) = 11.34 | 11.34 | 11.34 Mbytes
Step Temp Press TotEng PotEng Enthalpy 
  150000    1876.3958    4.8008237   -54047.834    -58814.05   -54046.575 
  150495    1869.5676   -876.89036   -54113.319   -58862.191   -54343.486 
Loop time of 37.582 on 2 procs for 495 steps with 19652 atoms

Performance: 1.138 ns/day, 21.090 hours/ns, 13.171 timesteps/s
99.9% CPU use with 2 MPI tasks x no OpenMP threads

MPI task timing breakdown:
Section |  min time  |  avg time  |  max time  |%varavg| %total
---------------------------------------------------------------
Pair    | 19.893     | 20.031     | 20.169     |   3.1 | 53.30
Neigh   | 15.274     | 15.363     | 15.453     |   2.3 | 40.88
Comm    | 1.6694     | 1.7164     | 1.7634     |   3.6 |  4.57
Output  | 7.5102e-05 | 9.656e-05  | 0.00011802 |   0.0 |  0.00
Modify  | 0.37423    | 0.37485    | 0.37547    |   0.1 |  1.00
Other   |            | 0.09656    |            |       |  0.26

Nlocal:    9826 ave 9842 max 9810 min
Histogram: 1 0 0 0 0 0 0 0 0 1
Nghost:    11682.5 ave 11688 max 11677 min
Histogram: 1 0 0 0 0 0 0 0 0 1
Neighs:    587774 ave 594978 max 580571 min
Histogram: 1 0 0 0 0 0 0 0 0 1

Total # of neighbors = 1175549
Ave neighs/atom = 59.8183
Neighbor list builds = 495
Dangerous builds not checked
Setting up Verlet run ...
  Unit style    : metal
  Current step  : 150495
  Time step     : 0.001
Per MPI rank memory allocation (min/avg/max) = 11.34 | 11.34 | 11.34 Mbytes
Step Temp Press TotEng PotEng Enthalpy 
  150495    1869.5676   -876.89036   -54113.319   -58862.191   -54343.486 
  160000    1833.1159    382.12255   -54305.969   -58962.251   -54206.345 
Loop time of 807.505 on 2 procs for 9505 steps with 19652 atoms

Performance: 1.017 ns/day, 23.599 hours/ns, 11.771 timesteps/s
99.2% CPU use with 2 MPI tasks x no OpenMP threads

MPI task timing breakdown:
Section |  min time  |  avg time  |  max time  |%varavg| %total
---------------------------------------------------------------
Pair    | 438.06     | 439.65     | 441.24     |   7.6 | 54.45
Neigh   | 323.22     | 323.79     | 324.36     |   3.2 | 40.10
Comm    | 32.141     | 34.296     | 36.45      |  36.8 |  4.25
Output  | 0.035083   | 0.035173   | 0.035262   |   0.0 |  0.00
Modify  | 7.6784     | 7.6784     | 7.6784     |   0.0 |  0.95
Other   |            | 2.055      |            |       |  0.25

Nlocal:    9826 ave 9840 max 9812 min
Histogram: 1 0 0 0 0 0 0 0 0 1
Nghost:    11750.5 ave 11767 max 11734 min
Histogram: 1 0 0 0 0 0 0 0 0 1
Neighs:    591982 ave 596796 max 587167 min
Histogram: 1 0 0 0 0 0 0 0 0 1

Total # of neighbors = 1183963
Ave neighs/atom = 60.2464
Neighbor list builds = 9505
Dangerous builds not checked
Setting up Verlet run ...
  Unit style    : metal
  Current step  : 160000
  Time step     : 0.001
Per MPI rank memory allocation (min/avg/max) = 11.35 | 11.35 | 11.35 Mbytes
Step Temp Press TotEng PotEng Enthalpy 
  160000    1833.1159    382.12255   -54305.969   -58962.251   -54206.345 
  160495    1804.4003   -865.73279   -54379.382   -58962.723   -54605.645 
Loop time of 41.8319 on 2 procs for 495 steps with 19652 atoms

Performance: 1.022 ns/day, 23.475 hours/ns, 11.833 timesteps/s
98.8% CPU use with 2 MPI tasks x no OpenMP threads

MPI task timing breakdown:
Section |  min time  |  avg time  |  max time  |%varavg| %total
---------------------------------------------------------------
Pair    | 22.914     | 22.937     | 22.961     |   0.5 | 54.83
Neigh   | 16.931     | 17.044     | 17.158     |   2.7 | 40.74
Comm    | 1.1781     | 1.3155     | 1.4529     |  12.0 |  3.14
Output  | 0.00010109 | 0.00016296 | 0.00022483 |   0.0 |  0.00
Modify  | 0.41852    | 0.41952    | 0.42052    |   0.2 |  1.00
Other   |            | 0.1153     |            |       |  0.28

Nlocal:    9826 ave 9833 max 9819 min
Histogram: 1 0 0 0 0 0 0 0 0 1
Nghost:    11735 ave 11756 max 11714 min
Histogram: 1 0 0 0 0 0 0 0 0 1
Neighs:    590030 ave 595198 max 584862 min
Histogram: 1 0 0 0 0 0 0 0 0 1

Total # of neighbors = 1180060
Ave neighs/atom = 60.0478
Neighbor list builds = 495
Dangerous builds not checked
Setting up Verlet run ...
  Unit style    : metal
  Current step  : 160495
  Time step     : 0.001
Per MPI rank memory allocation (min/avg/max) = 11.35 | 11.35 | 11.35 Mbytes
Step Temp Press TotEng PotEng Enthalpy 
  160495    1804.4003   -865.73279   -54379.382   -58962.723   -54605.645 
  170000    1794.6647    424.98633   -54583.546   -59142.157   -54473.484 
Loop time of 829.573 on 2 procs for 9505 steps with 19652 atoms

Performance: 0.990 ns/day, 24.244 hours/ns, 11.458 timesteps/s
98.5% CPU use with 2 MPI tasks x no OpenMP threads

MPI task timing breakdown:
Section |  min time  |  avg time  |  max time  |%varavg| %total
---------------------------------------------------------------
Pair    | 451.59     | 454        | 456.4      |  11.3 | 54.73
Neigh   | 329.63     | 331.49     | 333.35     |  10.2 | 39.96
Comm    | 29.568     | 33.875     | 38.182     |  74.0 |  4.08
Output  | 0.036854   | 0.03688    | 0.036906   |   0.0 |  0.00
Modify  | 7.9757     | 8.0229     | 8.0702     |   1.7 |  0.97
Other   |            | 2.149      |            |       |  0.26

Nlocal:    9826 ave 9838 max 9814 min
Histogram: 1 0 0 0 0 0 0 0 0 1
Nghost:    11730 ave 11758 max 11702 min
Histogram: 1 0 0 0 0 0 0 0 0 1
Neighs:    595568 ave 602249 max 588886 min
Histogram: 1 0 0 0 0 0 0 0 0 1

Total # of neighbors = 1191135
Ave neighs/atom = 60.6114
Neighbor list builds = 9505
Dangerous builds not checked
Setting up Verlet run ...
  Unit style    : metal
  Current step  : 170000
  Time step     : 0.001
Per MPI rank memory allocation (min/avg/max) = 11.35 | 11.35 | 11.35 Mbytes
Step Temp Press TotEng PotEng Enthalpy 
  170000    1794.6647    424.98633   -54583.546   -59142.157   -54473.484 
  170495     1767.908    332.47384   -54711.808   -59202.455   -54625.833 
Loop time of 42.7136 on 2 procs for 495 steps with 19652 atoms

Performance: 1.001 ns/day, 23.969 hours/ns, 11.589 timesteps/s
96.9% CPU use with 2 MPI tasks x no OpenMP threads

MPI task timing breakdown:
Section |  min time  |  avg time  |  max time  |%varavg| %total
---------------------------------------------------------------
Pair    | 22.299     | 22.521     | 22.743     |   4.7 | 52.73
Neigh   | 16.865     | 16.885     | 16.905     |   0.5 | 39.53
Comm    | 2.5664     | 2.7709     | 2.9754     |  12.3 |  6.49
Output  | 8.2016e-05 | 0.00012743 | 0.00017285 |   0.0 |  0.00
Modify  | 0.41837    | 0.4189     | 0.41944    |   0.1 |  0.98
Other   |            | 0.1173     |            |       |  0.27

Nlocal:    9826 ave 9838 max 9814 min
Histogram: 1 0 0 0 0 0 0 0 0 1
Nghost:    11760.5 ave 11778 max 11743 min
Histogram: 1 0 0 0 0 0 0 0 0 1
Neighs:    596488 ave 603304 max 589672 min
Histogram: 1 0 0 0 0 0 0 0 0 1

Total # of neighbors = 1192976
Ave neighs/atom = 60.7051
Neighbor list builds = 495
Dangerous builds not checked
Setting up Verlet run ...
  Unit style    : metal
  Current step  : 170495
  Time step     : 0.001
Per MPI rank memory allocation (min/avg/max) = 11.35 | 11.35 | 11.35 Mbytes
Step Temp Press TotEng PotEng Enthalpy 
  170495     1767.908    332.47384   -54711.808   -59202.455   -54625.833 
  180000    1750.3165   -448.77811   -54775.221   -59221.184   -54891.301 
Loop time of 835.997 on 2 procs for 9505 steps with 19652 atoms

Performance: 0.982 ns/day, 24.432 hours/ns, 11.370 timesteps/s
98.9% CPU use with 2 MPI tasks x no OpenMP threads

MPI task timing breakdown:
Section |  min time  |  avg time  |  max time  |%varavg| %total
---------------------------------------------------------------
Pair    | 455.7      | 458.19     | 460.68     |  11.6 | 54.81
Neigh   | 334.33     | 335.02     | 335.71     |   3.7 | 40.07
Comm    | 29.171     | 32.344     | 35.517     |  55.8 |  3.87
Output  | 0.039208   | 0.039233   | 0.039258   |   0.0 |  0.00
Modify  | 8.2027     | 8.21       | 8.2174     |   0.3 |  0.98
Other   |            | 2.197      |            |       |  0.26

Nlocal:    9826 ave 9852 max 9800 min
Histogram: 1 0 0 0 0 0 0 0 0 1
Nghost:    11729.5 ave 11737 max 11722 min
Histogram: 1 0 0 0 0 0 0 0 0 1
Neighs:    596646 ave 599976 max 593315 min
Histogram: 1 0 0 0 0 0 0 0 0 1

Total # of neighbors = 1193291
Ave neighs/atom = 60.7211
Neighbor list builds = 9505
Dangerous builds not checked
Setting up Verlet run ...
  Unit style    : metal
  Current step  : 180000
  Time step     : 0.001
Per MPI rank memory allocation (min/avg/max) = 11.35 | 11.35 | 11.35 Mbytes
Step Temp Press TotEng PotEng Enthalpy 
  180000    1750.3165   -448.77811   -54775.221   -59221.184   -54891.301 
  180495    1713.0674    596.29698   -55005.311   -59356.658   -54852.125 
Loop time of 42.3326 on 2 procs for 495 steps with 19652 atoms

Performance: 1.010 ns/day, 23.756 hours/ns, 11.693 timesteps/s
97.9% CPU use with 2 MPI tasks x no OpenMP threads

MPI task timing breakdown:
Section |  min time  |  avg time  |  max time  |%varavg| %total
---------------------------------------------------------------
Pair    | 22.389     | 22.591     | 22.793     |   4.3 | 53.37
Neigh   | 17.151     | 17.205     | 17.259     |   1.3 | 40.64
Comm    | 1.8571     | 2.0038     | 2.1506     |  10.4 |  4.73
Output  | 9.6083e-05 | 0.0001266  | 0.00015712 |   0.0 |  0.00
Modify  | 0.41719    | 0.41788    | 0.41857    |   0.1 |  0.99
Other   |            | 0.1144     |            |       |  0.27

Nlocal:    9826 ave 9833 max 9819 min
Histogram: 1 0 0 0 0 0 0 0 0 1
Nghost:    11759 ave 11774 max 11744 min
Histogram: 1 0 0 0 0 0 0 0 0 1
Neighs:    600731 ave 605548 max 595914 min
Histogram: 1 0 0 0 0 0 0 0 0 1

Total # of neighbors = 1201462
Ave neighs/atom = 61.1369
Neighbor list builds = 495
Dangerous builds not checked
Setting up Verlet run ...
  Unit style    : metal
  Current step  : 180495
  Time step     : 0.001
Per MPI rank memory allocation (min/avg/max) = 11.35 | 11.35 | 11.35 Mbytes
Step Temp Press TotEng PotEng Enthalpy 
  180495    1713.0674    596.29698   -55005.311   -59356.658   -54852.125 
  190000    1690.9295   -106.69375   -55100.888   -59396.003    -55128.28 
Loop time of 845.747 on 2 procs for 9505 steps with 19652 atoms

Performance: 0.971 ns/day, 24.716 hours/ns, 11.239 timesteps/s
99.2% CPU use with 2 MPI tasks x no OpenMP threads

MPI task timing breakdown:
Section |  min time  |  avg time  |  max time  |%varavg| %total
---------------------------------------------------------------
Pair    | 462.59     | 464.25     | 465.91     |   7.7 | 54.89
Neigh   | 338.66     | 339.76     | 340.85     |   5.9 | 40.17
Comm    | 28.598     | 31.098     | 33.598     |  44.8 |  3.68
Output  | 0.037305   | 0.037391   | 0.037477   |   0.0 |  0.00
Modify  | 8.1324     | 8.3768     | 8.6213     |   8.4 |  0.99
Other   |            | 2.227      |            |       |  0.26

Nlocal:    9826 ave 9827 max 9825 min
Histogram: 1 0 0 0 0 0 0 0 0 1
Nghost:    11784.5 ave 11834 max 11735 min
Histogram: 1 0 0 0 0 0 0 0 0 1
Neighs:    601150 ave 605985 max 596315 min
Histogram: 1 0 0 0 0 0 0 0 0 1

Total # of neighbors = 1202300
Ave neighs/atom = 61.1795
Neighbor list builds = 9505
Dangerous builds not checked
Setting up Verlet run ...
  Unit style    : metal
  Current step  : 190000
  Time step     : 0.001
Per MPI rank memory allocation (min/avg/max) = 11.35 | 11.35 | 11.35 Mbytes
Step Temp Press TotEng PotEng Enthalpy 
  190000    1690.9295   -106.69375   -55100.888   -59396.003    -55128.28 
  190495    1665.5019    -200.6782   -55261.347   -59491.874   -55312.724 
Loop time of 43.5372 on 2 procs for 495 steps with 19652 atoms

Performance: 0.982 ns/day, 24.432 hours/ns, 11.370 timesteps/s
98.6% CPU use with 2 MPI tasks x no OpenMP threads

MPI task timing breakdown:
Section |  min time  |  avg time  |  max time  |%varavg| %total
---------------------------------------------------------------
Pair    | 24.032     | 24.173     | 24.314     |   2.9 | 55.52
Neigh   | 17.331     | 17.358     | 17.386     |   0.7 | 39.87
Comm    | 1.2765     | 1.4483     | 1.62       |  14.3 |  3.33
Output  | 7.8917e-05 | 0.00012195 | 0.00016499 |   0.0 |  0.00
Modify  | 0.43496    | 0.43537    | 0.43578    |   0.1 |  1.00
Other   |            | 0.122      |            |       |  0.28

Nlocal:    9826 ave 9859 max 9793 min
Histogram: 1 0 0 0 0 0 0 0 0 1
Nghost:    11773.5 ave 11789 max 11758 min
Histogram: 1 0 0 0 0 0 0 0 0 1
Neighs:    602958 ave 605898 max 600018 min
Histogram: 1 0 0 0 0 0 0 0 0 1

Total # of neighbors = 1205916
Ave neighs/atom = 61.3635
Neighbor list builds = 495
Dangerous builds not checked
Setting up Verlet run ...
  Unit style    : metal
  Current step  : 190495
  Time step     : 0.001
Per MPI rank memory allocation (min/avg/max) = 11.35 | 11.35 | 11.35 Mbytes
Step Temp Press TotEng PotEng Enthalpy 
  190495    1665.5019    -200.6782   -55261.347   -59491.874   -55312.724 
  200000    1664.6134     173.0779    -55385.75   -59614.019    -55341.65 
Loop time of 861.786 on 2 procs for 9505 steps with 19652 atoms

Performance: 0.953 ns/day, 25.185 hours/ns, 11.029 timesteps/s
99.1% CPU use with 2 MPI tasks x no OpenMP threads

MPI task timing breakdown:
Section |  min time  |  avg time  |  max time  |%varavg| %total
---------------------------------------------------------------
Pair    | 474.19     | 475.88     | 477.56     |   7.7 | 55.22
Neigh   | 343.61     | 343.65     | 343.69     |   0.2 | 39.88
Comm    | 29.727     | 31.375     | 33.023     |  29.4 |  3.64
Output  | 0.036693   | 0.036715   | 0.036736   |   0.0 |  0.00
Modify  | 8.5298     | 8.5372     | 8.5446     |   0.3 |  0.99
Other   |            | 2.311      |            |       |  0.27

Nlocal:    9826 ave 9834 max 9818 min
Histogram: 1 0 0 0 0 0 0 0 0 1
Nghost:    11856 ave 11867 max 11845 min
Histogram: 1 0 0 0 0 0 0 0 0 1
Neighs:    605800 ave 612493 max 599106 min
Histogram: 1 0 0 0 0 0 0 0 0 1

Total # of neighbors = 1211599
Ave neighs/atom = 61.6527
Neighbor list builds = 9505
Dangerous builds not checked
Setting up Verlet run ...
  Unit style    : metal
  Current step  : 200000
  Time step     : 0.001
Per MPI rank memory allocation (min/avg/max) = 11.35 | 11.35 | 11.35 Mbytes
Step Temp Press TotEng PotEng Enthalpy 
  200000    1664.6134     173.0779    -55385.75   -59614.019    -55341.65 
  200495    1622.7215    828.68857   -55567.932   -59689.792    -55357.81 
Loop time of 42.9822 on 2 procs for 495 steps with 19652 atoms

Performance: 0.995 ns/day, 24.120 hours/ns, 11.516 timesteps/s
98.4% CPU use with 2 MPI tasks x no OpenMP threads

MPI task timing breakdown:
Section |  min time  |  avg time  |  max time  |%varavg| %total
---------------------------------------------------------------
Pair    | 23.944     | 23.96      | 23.976     |   0.3 | 55.74
Neigh   | 17.21      | 17.27      | 17.331     |   1.5 | 40.18
Comm    | 1.1625     | 1.2053     | 1.2481     |   3.9 |  2.80
Output  | 7.9155e-05 | 0.00012505 | 0.00017095 |   0.0 |  0.00
Modify  | 0.42658    | 0.42728    | 0.42798    |   0.1 |  0.99
Other   |            | 0.1196     |            |       |  0.28

Nlocal:    9826 ave 9839 max 9813 min
Histogram: 1 0 0 0 0 0 0 0 0 1
Nghost:    11884.5 ave 11911 max 11858 min
Histogram: 1 0 0 0 0 0 0 0 0 1
Neighs:    608887 ave 615235 max 602539 min
Histogram: 1 0 0 0 0 0 0 0 0 1

Total # of neighbors = 1217774
Ave neighs/atom = 61.9669
Neighbor list builds = 495
Dangerous builds not checked
Setting up Verlet run ...
  Unit style    : metal
  Current step  : 200495
  Time step     : 0.001
Per MPI rank memory allocation (min/avg/max) = 11.35 | 11.35 | 11.35 Mbytes
Step Temp Press TotEng PotEng Enthalpy 
  200495    1622.7215    828.68857   -55567.932   -59689.792    -55357.81 
  210000    1580.2348   -974.61583    -55720.13   -59734.071   -55967.556 
Loop time of 865.144 on 2 procs for 9505 steps with 19652 atoms

Performance: 0.949 ns/day, 25.283 hours/ns, 10.987 timesteps/s
99.0% CPU use with 2 MPI tasks x no OpenMP threads

MPI task timing breakdown:
Section |  min time  |  avg time  |  max time  |%varavg| %total
---------------------------------------------------------------
Pair    | 475.36     | 478.97     | 482.59     |  16.5 | 55.36
Neigh   | 345.13     | 345.64     | 346.16     |   2.8 | 39.95
Comm    | 25.677     | 29.818     | 33.959     |  75.8 |  3.45
Output  | 0.037919   | 0.038014   | 0.03811    |   0.0 |  0.00
Modify  | 8.3233     | 8.3454     | 8.3676     |   0.8 |  0.96
Other   |            | 2.324      |            |       |  0.27

Nlocal:    9826 ave 9829 max 9823 min
Histogram: 1 0 0 0 0 0 0 0 0 1
Nghost:    11844.5 ave 11871 max 11818 min
Histogram: 1 0 0 0 0 0 0 0 0 1
Neighs:    608211 ave 613981 max 602441 min
Histogram: 1 0 0 0 0 0 0 0 0 1

Total # of neighbors = 1216422
Ave neighs/atom = 61.8981
Neighbor list builds = 9505
Dangerous builds not checked
Setting up Verlet run ...
  Unit style    : metal
  Current step  : 210000
  Time step     : 0.001
Per MPI rank memory allocation (min/avg/max) = 11.35 | 11.35 | 11.35 Mbytes
Step Temp Press TotEng PotEng Enthalpy 
  210000    1580.2348   -974.61583    -55720.13   -59734.071   -55967.556 
  210495    1563.9282   -723.60789   -55821.028   -59793.548   -56004.319 
Loop time of 42.9725 on 2 procs for 495 steps with 19652 atoms

Performance: 0.995 ns/day, 24.115 hours/ns, 11.519 timesteps/s
98.4% CPU use with 2 MPI tasks x no OpenMP threads

MPI task timing breakdown:
Section |  min time  |  avg time  |  max time  |%varavg| %total
---------------------------------------------------------------
Pair    | 23.389     | 23.495     | 23.602     |   2.2 | 54.68
Neigh   | 17.282     | 17.308     | 17.334     |   0.6 | 40.28
Comm    | 1.5352     | 1.6169     | 1.6985     |   6.4 |  3.76
Output  | 9.203e-05  | 0.00021052 | 0.00032902 |   0.0 |  0.00
Modify  | 0.43174    | 0.43277    | 0.43379    |   0.2 |  1.01
Other   |            | 0.1196     |            |       |  0.28

Nlocal:    9826 ave 9849 max 9803 min
Histogram: 1 0 0 0 0 0 0 0 0 1
Nghost:    11856.5 ave 11865 max 11848 min
Histogram: 1 0 0 0 0 0 0 0 0 1
Neighs:    609890 ave 613054 max 606725 min
Histogram: 1 0 0 0 0 0 0 0 0 1

Total # of neighbors = 1219779
Ave neighs/atom = 62.0689
Neighbor list builds = 495
Dangerous builds not checked
Setting up Verlet run ...
  Unit style    : metal
  Current step  : 210495
  Time step     : 0.001
Per MPI rank memory allocation (min/avg/max) = 11.35 | 11.35 | 11.35 Mbytes
Step Temp Press TotEng PotEng Enthalpy 
  210495    1563.9282   -723.60789   -55821.028   -59793.548   -56004.319 
  220000    1561.7743    1226.2999   -55905.846   -59872.895   -55597.072 
Loop time of 869.006 on 2 procs for 9505 steps with 19652 atoms

Performance: 0.945 ns/day, 25.396 hours/ns, 10.938 timesteps/s
99.2% CPU use with 2 MPI tasks x no OpenMP threads

MPI task timing breakdown:
Section |  min time  |  avg time  |  max time  |%varavg| %total
---------------------------------------------------------------
Pair    | 480.6      | 481.92     | 483.23     |   6.0 | 55.46
Neigh   | 344.41     | 347.4      | 350.4      |  16.1 | 39.98
Comm    | 24.577     | 28.952     | 33.328     |  81.3 |  3.33
Output  | 0.034779   | 0.034838   | 0.034896   |   0.0 |  0.00
Modify  | 8.2969     | 8.3632     | 8.4295     |   2.3 |  0.96
Other   |            | 2.338      |            |       |  0.27

Nlocal:    9826 ave 9830 max 9822 min
Histogram: 1 0 0 0 0 0 0 0 0 1
Nghost:    11863 ave 11871 max 11855 min
Histogram: 1 0 0 0 0 0 0 0 0 1
Neighs:    613256 ave 618125 max 608386 min
Histogram: 1 0 0 0 0 0 0 0 0 1

Total # of neighbors = 1226511
Ave neighs/atom = 62.4115
Neighbor list builds = 9505
Dangerous builds not checked
Setting up Verlet run ...
  Unit style    : metal
  Current step  : 220000
  Time step     : 0.001
Per MPI rank memory allocation (min/avg/max) = 11.35 | 11.35 | 11.35 Mbytes
Step Temp Press TotEng PotEng Enthalpy 
  220000    1561.7743    1226.2999   -55905.846   -59872.895   -55597.072 
  220495    1517.2416    923.81736   -56139.136   -59993.068     -55907.5 
Loop time of 43.7393 on 2 procs for 495 steps with 19652 atoms

Performance: 0.978 ns/day, 24.545 hours/ns, 11.317 timesteps/s
98.1% CPU use with 2 MPI tasks x no OpenMP threads

MPI task timing breakdown:
Section |  min time  |  avg time  |  max time  |%varavg| %total
---------------------------------------------------------------
Pair    | 23.498     | 23.73      | 23.963     |   4.8 | 54.25
Neigh   | 17.457     | 17.513     | 17.57      |   1.3 | 40.04
Comm    | 1.775      | 1.9099     | 2.0448     |   9.8 |  4.37
Output  | 9.0122e-05 | 0.00017214 | 0.00025415 |   0.0 |  0.00
Modify  | 0.42525    | 0.46527    | 0.50529    |   5.9 |  1.06
Other   |            | 0.1203     |            |       |  0.28

Nlocal:    9826 ave 9829 max 9823 min
Histogram: 1 0 0 0 0 0 0 0 0 1
Nghost:    11880 ave 11887 max 11873 min
Histogram: 1 0 0 0 0 0 0 0 0 1
Neighs:    616126 ave 621454 max 610798 min
Histogram: 1 0 0 0 0 0 0 0 0 1

Total # of neighbors = 1232252
Ave neighs/atom = 62.7036
Neighbor list builds = 495
Dangerous builds not checked
Setting up Verlet run ...
  Unit style    : metal
  Current step  : 220495
  Time step     : 0.001
Per MPI rank memory allocation (min/avg/max) = 11.35 | 11.35 | 11.35 Mbytes
Step Temp Press TotEng PotEng Enthalpy 
  220495    1517.2416    923.81736   -56139.136   -59993.068     -55907.5 
  230000    1503.7046    304.14921   -56215.461   -60035.008   -56139.228 
Loop time of 864.967 on 2 procs for 9505 steps with 19652 atoms

Performance: 0.949 ns/day, 25.278 hours/ns, 10.989 timesteps/s
99.4% CPU use with 2 MPI tasks x no OpenMP threads

MPI task timing breakdown:
Section |  min time  |  avg time  |  max time  |%varavg| %total
---------------------------------------------------------------
Pair    | 480.15     | 480.91     | 481.67     |   3.5 | 55.60
Neigh   | 346.91     | 348.93     | 350.94     |  10.8 | 40.34
Comm    | 21.466     | 24.204     | 26.942     |  55.7 |  2.80
Output  | 0.039001   | 0.039118   | 0.039235   |   0.1 |  0.00
Modify  | 8.5081     | 8.529      | 8.5498     |   0.7 |  0.99
Other   |            | 2.353      |            |       |  0.27

Nlocal:    9826 ave 9851 max 9801 min
Histogram: 1 0 0 0 0 0 0 0 0 1
Nghost:    11955.5 ave 11977 max 11934 min
Histogram: 1 0 0 0 0 0 0 0 0 1
Neighs:    616450 ave 620047 max 612853 min
Histogram: 1 0 0 0 0 0 0 0 0 1

Total # of neighbors = 1232900
Ave neighs/atom = 62.7366
Neighbor list builds = 9505
Dangerous builds not checked
Setting up Verlet run ...
  Unit style    : metal
  Current step  : 230000
  Time step     : 0.001
Per MPI rank memory allocation (min/avg/max) = 11.35 | 11.35 | 11.35 Mbytes
Step Temp Press TotEng PotEng Enthalpy 
  230000    1503.7046    304.14921   -56215.461   -60035.008   -56139.228 
  230495    1466.0265    328.72519   -56424.485   -60148.326   -56342.428 
Loop time of 42.3394 on 2 procs for 495 steps with 19652 atoms

Performance: 1.010 ns/day, 23.759 hours/ns, 11.691 timesteps/s
99.5% CPU use with 2 MPI tasks x no OpenMP threads

MPI task timing breakdown:
Section |  min time  |  avg time  |  max time  |%varavg| %total
---------------------------------------------------------------
Pair    | 23.36      | 23.39      | 23.421     |   0.6 | 55.24
Neigh   | 17.045     | 17.236     | 17.426     |   4.6 | 40.71
Comm    | 0.93705    | 1.1536     | 1.3701     |  20.2 |  2.72
Output  | 8.0109e-05 | 0.00017405 | 0.00026798 |   0.0 |  0.00
Modify  | 0.43111    | 0.4348     | 0.43849    |   0.6 |  1.03
Other   |            | 0.1248     |            |       |  0.29

Nlocal:    9826 ave 9830 max 9822 min
Histogram: 1 0 0 0 0 0 0 0 0 1
Nghost:    11938 ave 11940 max 11936 min
Histogram: 1 0 0 0 0 0 0 0 0 1
Neighs:    618890 ave 624182 max 613599 min
Histogram: 1 0 0 0 0 0 0 0 0 1

Total # of neighbors = 1237781
Ave neighs/atom = 62.985
Neighbor list builds = 495
Dangerous builds not checked
Setting up Verlet run ...
  Unit style    : metal
  Current step  : 230495
  Time step     : 0.001
Per MPI rank memory allocation (min/avg/max) = 11.35 | 11.35 | 11.35 Mbytes
Step Temp Press TotEng PotEng Enthalpy 
  230495    1466.0265    328.72519   -56424.485   -60148.326   -56342.428 
  240000    1464.9443   -896.45724   -56445.317   -60166.409   -56669.363 
Loop time of 853.781 on 2 procs for 9505 steps with 19652 atoms

Performance: 0.962 ns/day, 24.951 hours/ns, 11.133 timesteps/s
98.4% CPU use with 2 MPI tasks x no OpenMP threads

MPI task timing breakdown:
Section |  min time  |  avg time  |  max time  |%varavg| %total
---------------------------------------------------------------
Pair    | 470.8      | 472.12     | 473.45     |   6.1 | 55.30
Neigh   | 341.13     | 342.09     | 343.06     |   5.2 | 40.07
Comm    | 26.185     | 28.551     | 30.918     |  44.3 |  3.34
Output  | 0.036592   | 0.036613   | 0.036633   |   0.0 |  0.00
Modify  | 8.6205     | 8.6965     | 8.7724     |   2.6 |  1.02
Other   |            | 2.279      |            |       |  0.27

Nlocal:    9826 ave 9826 max 9826 min
Histogram: 2 0 0 0 0 0 0 0 0 0
Nghost:    11930 ave 11959 max 11901 min
Histogram: 1 0 0 0 0 0 0 0 0 1
Neighs:    618077 ave 623103 max 613051 min
Histogram: 1 0 0 0 0 0 0 0 0 1

Total # of neighbors = 1236154
Ave neighs/atom = 62.9022
Neighbor list builds = 9505
Dangerous builds not checked
Setting up Verlet run ...
  Unit style    : metal
  Current step  : 240000
  Time step     : 0.001
Per MPI rank memory allocation (min/avg/max) = 11.35 | 11.35 | 11.35 Mbytes
Step Temp Press TotEng PotEng Enthalpy 
  240000    1464.9443   -896.45724   -56445.317   -60166.409   -56669.363 
  240495    1411.8375    -771.3457   -56714.997   -60301.193    -56906.81 
Loop time of 42.7303 on 2 procs for 495 steps with 19652 atoms

Performance: 1.001 ns/day, 23.979 hours/ns, 11.584 timesteps/s
97.5% CPU use with 2 MPI tasks x no OpenMP threads

MPI task timing breakdown:
Section |  min time  |  avg time  |  max time  |%varavg| %total
---------------------------------------------------------------
Pair    | 22.983     | 23.065     | 23.146     |   1.7 | 53.98
Neigh   | 17.125     | 17.18      | 17.235     |   1.3 | 40.21
Comm    | 0.93511    | 1.0716     | 1.208      |  13.2 |  2.51
Output  | 8.3923e-05 | 0.00010943 | 0.00013494 |   0.0 |  0.00
Modify  | 1.2971     | 1.2972     | 1.2974     |   0.0 |  3.04
Other   |            | 0.1168     |            |       |  0.27

Nlocal:    9826 ave 9830 max 9822 min
Histogram: 1 0 0 0 0 0 0 0 0 1
Nghost:    11979 ave 11980 max 11978 min
Histogram: 1 0 0 0 0 0 0 0 0 1
Neighs:    621430 ave 627533 max 615328 min
Histogram: 1 0 0 0 0 0 0 0 0 1

Total # of neighbors = 1242861
Ave neighs/atom = 63.2435
Neighbor list builds = 495
Dangerous builds not checked
Setting up Verlet run ...
  Unit style    : metal
  Current step  : 240495
  Time step     : 0.001
Per MPI rank memory allocation (min/avg/max) = 11.35 | 11.35 | 11.35 Mbytes
Step Temp Press TotEng PotEng Enthalpy 
  240495    1411.8375    -771.3457   -56714.997   -60301.193    -56906.81 
  250000    1398.7296    433.63382   -56844.859    -60397.76   -56737.619 
Loop time of 902.873 on 2 procs for 9505 steps with 19652 atoms

Performance: 0.910 ns/day, 26.386 hours/ns, 10.528 timesteps/s
95.5% CPU use with 2 MPI tasks x no OpenMP threads

MPI task timing breakdown:
Section |  min time  |  avg time  |  max time  |%varavg| %total
---------------------------------------------------------------
Pair    | 500.69     | 503.26     | 505.83     |  11.5 | 55.74
Neigh   | 352.07     | 352.62     | 353.17     |   2.9 | 39.06
Comm    | 32.24      | 35.388     | 38.536     |  52.9 |  3.92
Output  | 0.037521   | 0.037607   | 0.037693   |   0.0 |  0.00
Modify  | 9.2339     | 9.2653     | 9.2966     |   1.0 |  1.03
Other   |            | 2.297      |            |       |  0.25

Nlocal:    9826 ave 9830 max 9822 min
Histogram: 1 0 0 0 0 0 0 0 0 1
Nghost:    11979.5 ave 11999 max 11960 min
Histogram: 1 0 0 0 0 0 0 0 0 1
Neighs:    625072 ave 632724 max 617421 min
Histogram: 1 0 0 0 0 0 0 0 0 1

Total # of neighbors = 1250145
Ave neighs/atom = 63.6141
Neighbor list builds = 9505
Dangerous builds not checked
Setting up Verlet run ...
  Unit style    : metal
  Current step  : 250000
  Time step     : 0.001
Per MPI rank memory allocation (min/avg/max) = 11.35 | 11.35 | 11.35 Mbytes
Step Temp Press TotEng PotEng Enthalpy 
  250000    1398.7296    433.63382   -56844.859    -60397.76   -56737.619 
  250495      1360.02    844.70954   -57020.373   -60474.947   -56812.321 
Loop time of 46.4487 on 2 procs for 495 steps with 19652 atoms

Performance: 0.921 ns/day, 26.065 hours/ns, 10.657 timesteps/s
95.0% CPU use with 2 MPI tasks x no OpenMP threads

MPI task timing breakdown:
Section |  min time  |  avg time  |  max time  |%varavg| %total
---------------------------------------------------------------
Pair    | 25.961     | 25.984     | 26.006     |   0.4 | 55.94
Neigh   | 18.116     | 18.209     | 18.302     |   2.2 | 39.20
Comm    | 1.6099     | 1.6864     | 1.763      |   5.9 |  3.63
Output  | 8.7023e-05 | 0.00021851 | 0.00035    |   0.0 |  0.00
Modify  | 0.44792    | 0.4534     | 0.45888    |   0.8 |  0.98
Other   |            | 0.1159     |            |       |  0.25

Nlocal:    9826 ave 9828 max 9824 min
Histogram: 1 0 0 0 0 0 0 0 0 1
Nghost:    11986.5 ave 12005 max 11968 min
Histogram: 1 0 0 0 0 0 0 0 0 1
Neighs:    627536 ave 633658 max 621414 min
Histogram: 1 0 0 0 0 0 0 0 0 1

Total # of neighbors = 1255072
Ave neighs/atom = 63.8648
Neighbor list builds = 495
Dangerous builds not checked
Setting up Verlet run ...
  Unit style    : metal
  Current step  : 250495
  Time step     : 0.001
Per MPI rank memory allocation (min/avg/max) = 11.35 | 11.35 | 11.35 Mbytes
Step Temp Press TotEng PotEng Enthalpy 
  250495      1360.02    844.70954   -57020.373   -60474.947   -56812.321 
  260000     1370.486    1607.1971   -57082.829   -60563.988   -56688.445 
Loop time of 919.062 on 2 procs for 9505 steps with 19652 atoms

Performance: 0.894 ns/day, 26.859 hours/ns, 10.342 timesteps/s
94.8% CPU use with 2 MPI tasks x no OpenMP threads

MPI task timing breakdown:
Section |  min time  |  avg time  |  max time  |%varavg| %total
---------------------------------------------------------------
Pair    | 507.18     | 508.32     | 509.45     |   5.0 | 55.31
Neigh   | 355.53     | 355.84     | 356.15     |   1.7 | 38.72
Comm    | 42.366     | 43.726     | 45.086     |  20.6 |  4.76
Output  | 0.034942   | 0.034958   | 0.034974   |   0.0 |  0.00
Modify  | 8.7903     | 8.8487     | 8.907      |   2.0 |  0.96
Other   |            | 2.295      |            |       |  0.25

Nlocal:    9826 ave 9864 max 9788 min
Histogram: 1 0 0 0 0 0 0 0 0 1
Nghost:    12031.5 ave 12077 max 11986 min
Histogram: 1 0 0 0 0 0 0 0 0 1
Neighs:    630042 ave 639526 max 620559 min
Histogram: 1 0 0 0 0 0 0 0 0 1

Total # of neighbors = 1260085
Ave neighs/atom = 64.1199
Neighbor list builds = 9505
Dangerous builds not checked
Setting up Verlet run ...
  Unit style    : metal
  Current step  : 260000
  Time step     : 0.001
Per MPI rank memory allocation (min/avg/max) = 11.35 | 11.35 | 11.35 Mbytes
Step Temp Press TotEng PotEng Enthalpy 
  260000     1370.486    1607.1971   -57082.829   -60563.988   -56688.445 
  260495    1333.4122    1027.1429   -57302.524   -60689.512   -57051.287 
Loop time of 46.6706 on 2 procs for 495 steps with 19652 atoms

Performance: 0.916 ns/day, 26.190 hours/ns, 10.606 timesteps/s
93.9% CPU use with 2 MPI tasks x no OpenMP threads

MPI task timing breakdown:
Section |  min time  |  avg time  |  max time  |%varavg| %total
---------------------------------------------------------------
Pair    | 26.316     | 26.394     | 26.472     |   1.5 | 56.55
Neigh   | 17.615     | 17.827     | 18.039     |   5.0 | 38.20
Comm    | 1.6106     | 1.9064     | 2.2022     |  21.4 |  4.08
Output  | 0.00010204 | 0.00012553 | 0.00014901 |   0.0 |  0.00
Modify  | 0.4244     | 0.43002    | 0.43565    |   0.9 |  0.92
Other   |            | 0.1129     |            |       |  0.24

Nlocal:    9826 ave 9839 max 9813 min
Histogram: 1 0 0 0 0 0 0 0 0 1
Nghost:    12018.5 ave 12028 max 12009 min
Histogram: 1 0 0 0 0 0 0 0 0 1
Neighs:    632166 ave 639119 max 625212 min
Histogram: 1 0 0 0 0 0 0 0 0 1

Total # of neighbors = 1264331
Ave neighs/atom = 64.336
Neighbor list builds = 495
Dangerous builds not checked
Setting up Verlet run ...
  Unit style    : metal
  Current step  : 260495
  Time step     : 0.001
Per MPI rank memory allocation (min/avg/max) = 11.35 | 11.35 | 11.35 Mbytes
Step Temp Press TotEng PotEng Enthalpy 
  260495    1333.4122    1027.1429   -57302.524   -60689.512   -57051.287 
  270000    1294.4173    369.50551   -57434.613   -60722.551   -57344.338 
Loop time of 899.915 on 2 procs for 9505 steps with 19652 atoms

Performance: 0.913 ns/day, 26.299 hours/ns, 10.562 timesteps/s
95.1% CPU use with 2 MPI tasks x no OpenMP threads

MPI task timing breakdown:
Section |  min time  |  avg time  |  max time  |%varavg| %total
---------------------------------------------------------------
Pair    | 494.69     | 496.12     | 497.54     |   6.4 | 55.13
Neigh   | 348.12     | 348.23     | 348.33     |   0.6 | 38.70
Comm    | 41.74      | 42.726     | 43.712     |  15.1 |  4.75
Output  | 0.039211   | 0.039311   | 0.03941    |   0.1 |  0.00
Modify  | 10.226     | 10.535     | 10.844     |   9.5 |  1.17
Other   |            | 2.273      |            |       |  0.25

Nlocal:    9826 ave 9838 max 9814 min
Histogram: 1 0 0 0 0 0 0 0 0 1
Nghost:    12049 ave 12050 max 12048 min
Histogram: 1 0 0 0 0 0 0 0 0 1
Neighs:    633082 ave 637285 max 628879 min
Histogram: 1 0 0 0 0 0 0 0 0 1

Total # of neighbors = 1266164
Ave neighs/atom = 64.4293
Neighbor list builds = 9505
Dangerous builds not checked
Setting up Verlet run ...
  Unit style    : metal
  Current step  : 270000
  Time step     : 0.001
Per MPI rank memory allocation (min/avg/max) = 11.35 | 11.35 | 11.35 Mbytes
Step Temp Press TotEng PotEng Enthalpy 
  270000    1294.4173    369.50551   -57434.613   -60722.551   -57344.338 
  270495     1264.173    1346.6378   -57635.184   -60846.299   -57308.129 
Loop time of 45.8353 on 2 procs for 495 steps with 19652 atoms

Performance: 0.933 ns/day, 25.721 hours/ns, 10.800 timesteps/s
94.8% CPU use with 2 MPI tasks x no OpenMP threads

MPI task timing breakdown:
Section |  min time  |  avg time  |  max time  |%varavg| %total
---------------------------------------------------------------
Pair    | 25.524     | 25.562     | 25.599     |   0.7 | 55.77
Neigh   | 17.441     | 17.985     | 18.528     |  12.8 | 39.24
Comm    | 1.1039     | 1.7088     | 2.3136     |  46.3 |  3.73
Output  | 0.00013995 | 0.00019288 | 0.00024581 |   0.0 |  0.00
Modify  | 0.43953    | 0.46173    | 0.48393    |   3.3 |  1.01
Other   |            | 0.1185     |            |       |  0.26

Nlocal:    9826 ave 9851 max 9801 min
Histogram: 1 0 0 0 0 0 0 0 0 1
Nghost:    12060.5 ave 12061 max 12060 min
Histogram: 1 0 0 0 0 0 0 0 0 1
Neighs:    636749 ave 640528 max 632970 min
Histogram: 1 0 0 0 0 0 0 0 0 1

Total # of neighbors = 1273498
Ave neighs/atom = 64.8025
Neighbor list builds = 495
Dangerous builds not checked
Setting up Verlet run ...
  Unit style    : metal
  Current step  : 270495
  Time step     : 0.001
Per MPI rank memory allocation (min/avg/max) = 11.35 | 11.35 | 11.35 Mbytes
Step Temp Press TotEng PotEng Enthalpy 
  270495     1264.173    1346.6378   -57635.184   -60846.299   -57308.129 
  280000    1246.8386    833.73615   -57735.214   -60902.298   -57532.914 
Loop time of 875.704 on 2 procs for 9505 steps with 19652 atoms

Performance: 0.938 ns/day, 25.592 hours/ns, 10.854 timesteps/s
96.4% CPU use with 2 MPI tasks x no OpenMP threads

MPI task timing breakdown:
Section |  min time  |  avg time  |  max time  |%varavg| %total
---------------------------------------------------------------
Pair    | 485.61     | 486.32     | 487.03     |   3.2 | 55.53
Neigh   | 341.43     | 342.67     | 343.91     |   6.7 | 39.13
Comm    | 35.227     | 35.787     | 36.347     |   9.4 |  4.09
Output  | 0.037721   | 0.037753   | 0.037786   |   0.0 |  0.00
Modify  | 8.6131     | 8.6272     | 8.6413     |   0.5 |  0.99
Other   |            | 2.269      |            |       |  0.26

Nlocal:    9826 ave 9840 max 9812 min
Histogram: 1 0 0 0 0 0 0 0 0 1
Nghost:    12052 ave 12057 max 12047 min
Histogram: 1 0 0 0 0 0 0 0 0 1
Neighs:    637724 ave 645160 max 630288 min
Histogram: 1 0 0 0 0 0 0 0 0 1

Total # of neighbors = 1275448
Ave neighs/atom = 64.9017
Neighbor list builds = 9505
Dangerous builds not checked
Setting up Verlet run ...
  Unit style    : metal
  Current step  : 280000
  Time step     : 0.001
Per MPI rank memory allocation (min/avg/max) = 11.35 | 11.35 | 11.35 Mbytes
Step Temp Press TotEng PotEng Enthalpy 
  280000    1246.8386    833.73615   -57735.214   -60902.298   -57532.914 
  280495    1219.6001    690.48723   -57923.693   -61021.588   -57756.849 
Loop time of 43.9888 on 2 procs for 495 steps with 19652 atoms

Performance: 0.972 ns/day, 24.685 hours/ns, 11.253 timesteps/s
96.9% CPU use with 2 MPI tasks x no OpenMP threads

MPI task timing breakdown:
Section |  min time  |  avg time  |  max time  |%varavg| %total
---------------------------------------------------------------
Pair    | 24.164     | 24.509     | 24.855     |   7.0 | 55.72
Neigh   | 16.78      | 17.171     | 17.561     |   9.4 | 39.03
Comm    | 1.014      | 1.7582     | 2.5024     |  56.1 |  4.00
Output  | 0.00010586 | 0.00020337 | 0.00030088 |   0.0 |  0.00
Modify  | 0.42982    | 0.4327     | 0.43559    |   0.4 |  0.98
Other   |            | 0.1177     |            |       |  0.27

Nlocal:    9826 ave 9833 max 9819 min
Histogram: 1 0 0 0 0 0 0 0 0 1
Nghost:    12025.5 ave 12029 max 12022 min
Histogram: 1 0 0 0 0 0 0 0 0 1
Neighs:    640414 ave 646040 max 634787 min
Histogram: 1 0 0 0 0 0 0 0 0 1

Total # of neighbors = 1280827
Ave neighs/atom = 65.1754
Neighbor list builds = 495
Dangerous builds not checked
Setting up Verlet run ...
  Unit style    : metal
  Current step  : 280495
  Time step     : 0.001
Per MPI rank memory allocation (min/avg/max) = 11.35 | 11.35 | 11.35 Mbytes
Step Temp Press TotEng PotEng Enthalpy 
  280495    1219.6001    690.48723   -57923.693   -61021.588   -57756.849 
  290000    1197.4979   -333.19887   -58031.993   -61073.747   -58112.504 
Loop time of 875.094 on 2 procs for 9505 steps with 19652 atoms

Performance: 0.938 ns/day, 25.574 hours/ns, 10.862 timesteps/s
97.0% CPU use with 2 MPI tasks x no OpenMP threads

MPI task timing breakdown:
Section |  min time  |  avg time  |  max time  |%varavg| %total
---------------------------------------------------------------
Pair    | 484.89     | 487.12     | 489.35     |  10.1 | 55.66
Neigh   | 343.85     | 344.31     | 344.77     |   2.5 | 39.34
Comm    | 29.865     | 32.602     | 35.34      |  47.9 |  3.73
Output  | 0.037041   | 0.037061   | 0.037082   |   0.0 |  0.00
Modify  | 8.7392     | 8.7667     | 8.7942     |   0.9 |  1.00
Other   |            | 2.262      |            |       |  0.26

Nlocal:    9826 ave 9854 max 9798 min
Histogram: 1 0 0 0 0 0 0 0 0 1
Nghost:    12071 ave 12072 max 12070 min
Histogram: 1 0 0 0 0 0 0 0 0 1
Neighs:    640682 ave 648845 max 632518 min
Histogram: 1 0 0 0 0 0 0 0 0 1

Total # of neighbors = 1281363
Ave neighs/atom = 65.2027
Neighbor list builds = 9505
Dangerous builds not checked
Setting up Verlet run ...
  Unit style    : metal
  Current step  : 290000
  Time step     : 0.001
Per MPI rank memory allocation (min/avg/max) = 11.35 | 11.35 | 11.35 Mbytes
Step Temp Press TotEng PotEng Enthalpy 
  290000    1197.4979   -333.19887   -58031.993   -61073.747   -58112.504 
  290495    1159.9336   -335.47091   -58240.775   -61187.112     -58321.5 
Loop time of 42.7194 on 2 procs for 495 steps with 19652 atoms

Performance: 1.001 ns/day, 23.973 hours/ns, 11.587 timesteps/s
98.8% CPU use with 2 MPI tasks x no OpenMP threads

MPI task timing breakdown:
Section |  min time  |  avg time  |  max time  |%varavg| %total
---------------------------------------------------------------
Pair    | 23.857     | 23.926     | 23.996     |   1.4 | 56.01
Neigh   | 17.175     | 17.257     | 17.34      |   2.0 | 40.40
Comm    | 0.85478    | 1.0035     | 1.1523     |  14.8 |  2.35
Output  | 8.9884e-05 | 0.0001719  | 0.00025392 |   0.0 |  0.00
Modify  | 0.40991    | 0.41363    | 0.41736    |   0.6 |  0.97
Other   |            | 0.1184     |            |       |  0.28

Nlocal:    9826 ave 9865 max 9787 min
Histogram: 1 0 0 0 0 0 0 0 0 1
Nghost:    12139.5 ave 12157 max 12122 min
Histogram: 1 0 0 0 0 0 0 0 0 1
Neighs:    643112 ave 653425 max 632798 min
Histogram: 1 0 0 0 0 0 0 0 0 1

Total # of neighbors = 1286223
Ave neighs/atom = 65.45
Neighbor list builds = 495
Dangerous builds not checked
Setting up Verlet run ...
  Unit style    : metal
  Current step  : 290495
  Time step     : 0.001
Per MPI rank memory allocation (min/avg/max) = 11.35 | 11.35 | 11.35 Mbytes
Step Temp Press TotEng PotEng Enthalpy 
  290495    1159.9336   -335.47091   -58240.775   -61187.112     -58321.5 
  300000    1149.3906   -107.03471   -58317.099   -61236.656   -58342.797 
Loop time of 862.262 on 2 procs for 9505 steps with 19652 atoms

Performance: 0.952 ns/day, 25.199 hours/ns, 11.023 timesteps/s
98.4% CPU use with 2 MPI tasks x no OpenMP threads

MPI task timing breakdown:
Section |  min time  |  avg time  |  max time  |%varavg| %total
---------------------------------------------------------------
Pair    | 478.02     | 480.17     | 482.32     |   9.8 | 55.69
Neigh   | 341.19     | 341.21     | 341.22     |   0.1 | 39.57
Comm    | 28.079     | 30.226     | 32.374     |  39.1 |  3.51
Output  | 0.037523   | 0.037548   | 0.037573   |   0.0 |  0.00
Modify  | 8.3327     | 8.3446     | 8.3566     |   0.4 |  0.97
Other   |            | 2.273      |            |       |  0.26

Nlocal:    9826 ave 9832 max 9820 min
Histogram: 1 0 0 0 0 0 0 0 0 1
Nghost:    12173 ave 12174 max 12172 min
Histogram: 1 0 0 0 0 0 0 0 0 1
Neighs:    644717 ave 651562 max 637872 min
Histogram: 1 0 0 0 0 0 0 0 0 1

Total # of neighbors = 1289434
Ave neighs/atom = 65.6134
Neighbor list builds = 9505
Dangerous builds not checked
Setting up Verlet run ...
  Unit style    : metal
  Current step  : 300000
  Time step     : 0.001
Per MPI rank memory allocation (min/avg/max) = 11.35 | 11.35 | 11.35 Mbytes
Step Temp Press TotEng PotEng Enthalpy 
[...]
Histogram: 1 0 0 0 0 0 0 0 0 1
Neighs:    719912 ave 720518 max 719305 min
Histogram: 1 0 0 0 0 0 0 0 0 1

Total # of neighbors = 1439823
Ave neighs/atom = 73.266
Neighbor list builds = 9505
Dangerous builds not checked
Setting up Verlet run ...
  Unit style    : metal
  Current step  : 440000
  Time step     : 0.001
Per MPI rank memory allocation (min/avg/max) = 11.35 | 11.35 | 11.35 Mbytes
Step Temp Press TotEng PotEng Enthalpy 
  440000    451.50332    270.24412   -63097.698   -64244.558   -63039.361 
  440495     423.8204    158.04788       -63264   -64340.543   -63229.981 
Loop time of 46.4703 on 2 procs for 495 steps with 19652 atoms

Performance: 0.920 ns/day, 26.078 hours/ns, 10.652 timesteps/s
95.4% CPU use with 2 MPI tasks x no OpenMP threads

MPI task timing breakdown:
Section |  min time  |  avg time  |  max time  |%varavg| %total
---------------------------------------------------------------
Pair    | 25.149     | 25.347     | 25.544     |   3.9 | 54.54
Neigh   | 18.491     | 18.675     | 18.859     |   4.3 | 40.19
Comm    | 1.8561     | 1.8617     | 1.8673     |   0.4 |  4.01
Output  | 8.7023e-05 | 0.00016701 | 0.000247   |   0.0 |  0.00
Modify  | 0.45453    | 0.46278    | 0.47104    |   1.2 |  1.00
Other   |            | 0.124      |            |       |  0.27

Nlocal:    9826 ave 9837 max 9815 min
Histogram: 1 0 0 0 0 0 0 0 0 1
Nghost:    12678.5 ave 12689 max 12668 min
Histogram: 1 0 0 0 0 0 0 0 0 1
Neighs:    722068 ave 723631 max 720504 min
Histogram: 1 0 0 0 0 0 0 0 0 1

Total # of neighbors = 1444135
Ave neighs/atom = 73.4854
Neighbor list builds = 495
Dangerous builds not checked
Setting up Verlet run ...
  Unit style    : metal
  Current step  : 440495
  Time step     : 0.001
Per MPI rank memory allocation (min/avg/max) = 11.35 | 11.35 | 11.35 Mbytes
Step Temp Press TotEng PotEng Enthalpy 
  440495     423.8204    158.04788       -63264   -64340.543   -63229.981 
  450000     402.4857    194.19291   -63452.571   -64474.921   -63410.965 
Loop time of 902.105 on 2 procs for 9505 steps with 19652 atoms

Performance: 0.910 ns/day, 26.363 hours/ns, 10.536 timesteps/s
95.0% CPU use with 2 MPI tasks x no OpenMP threads

MPI task timing breakdown:
Section |  min time  |  avg time  |  max time  |%varavg| %total
---------------------------------------------------------------
Pair    | 492.38     | 493.74     | 495.09     |   6.1 | 54.73
Neigh   | 362.19     | 362.29     | 362.4      |   0.6 | 40.16
Comm    | 33.139     | 34.408     | 35.677     |  21.6 |  3.81
Output  | 0.035335   | 0.035372   | 0.035409   |   0.0 |  0.00
Modify  | 9.1685     | 9.1948     | 9.2211     |   0.9 |  1.02
Other   |            | 2.439      |            |       |  0.27

Nlocal:    9826 ave 9835 max 9817 min
Histogram: 1 0 0 0 0 0 0 0 0 1
Nghost:    12729 ave 12740 max 12718 min
Histogram: 1 0 0 0 0 0 0 0 0 1
Neighs:    725098 ave 726486 max 723710 min
Histogram: 1 0 0 0 0 0 0 0 0 1

Total # of neighbors = 1450196
Ave neighs/atom = 73.7938
Neighbor list builds = 9505
Dangerous builds not checked
Setting up Verlet run ...
  Unit style    : metal
  Current step  : 450000
  Time step     : 0.001
Per MPI rank memory allocation (min/avg/max) = 11.35 | 11.35 | 11.35 Mbytes
Step Temp Press TotEng PotEng Enthalpy 
  450000     402.4857    194.19291   -63452.571   -64474.921   -63410.965 
  450495    372.09977    131.33164     -63604.5   -64549.667    -63576.43 
Loop time of 44.4764 on 2 procs for 495 steps with 19652 atoms

Performance: 0.962 ns/day, 24.959 hours/ns, 11.129 timesteps/s
96.1% CPU use with 2 MPI tasks x no OpenMP threads

MPI task timing breakdown:
Section |  min time  |  avg time  |  max time  |%varavg| %total
---------------------------------------------------------------
Pair    | 24.365     | 24.425     | 24.484     |   1.2 | 54.92
Neigh   | 18.073     | 18.086     | 18.1       |   0.3 | 40.67
Comm    | 1.3208     | 1.3887     | 1.4567     |   5.8 |  3.12
Output  | 8.3923e-05 | 0.00011599 | 0.00014806 |   0.0 |  0.00
Modify  | 0.4513     | 0.45387    | 0.45645    |   0.4 |  1.02
Other   |            | 0.1226     |            |       |  0.28

Nlocal:    9826 ave 9834 max 9818 min
Histogram: 1 0 0 0 0 0 0 0 0 1
Nghost:    12745 ave 12764 max 12726 min
Histogram: 1 0 0 0 0 0 0 0 0 1
Neighs:    726571 ave 727635 max 725507 min
Histogram: 1 0 0 0 0 0 0 0 0 1

Total # of neighbors = 1453142
Ave neighs/atom = 73.9437
Neighbor list builds = 495
Dangerous builds not checked
Setting up Verlet run ...
  Unit style    : metal
  Current step  : 450495
  Time step     : 0.001
Per MPI rank memory allocation (min/avg/max) = 11.35 | 11.35 | 11.35 Mbytes
Step Temp Press TotEng PotEng Enthalpy 
  450495    372.09977    131.33164     -63604.5   -64549.667    -63576.43 
  460000    346.03637     424.8318   -63781.216    -64660.18    -63690.79 
Loop time of 917.018 on 2 procs for 9505 steps with 19652 atoms

Performance: 0.896 ns/day, 26.799 hours/ns, 10.365 timesteps/s
94.1% CPU use with 2 MPI tasks x no OpenMP threads

MPI task timing breakdown:
Section |  min time  |  avg time  |  max time  |%varavg| %total
---------------------------------------------------------------
Pair    | 501.09     | 503.31     | 505.54     |   9.9 | 54.89
Neigh   | 363.64     | 364.54     | 365.44     |   4.7 | 39.75
Comm    | 36.043     | 37.3       | 38.558     |  20.6 |  4.07
Output  | 0.036459   | 0.036495   | 0.036531   |   0.0 |  0.00
Modify  | 9.37       | 9.4033     | 9.4367     |   1.1 |  1.03
Other   |            | 2.421      |            |       |  0.26

Nlocal:    9826 ave 9849 max 9803 min
Histogram: 1 0 0 0 0 0 0 0 0 1
Nghost:    12795.5 ave 12801 max 12790 min
Histogram: 1 0 0 0 0 0 0 0 0 1
Neighs:    729594 ave 731576 max 727611 min
Histogram: 1 0 0 0 0 0 0 0 0 1

Total # of neighbors = 1459187
Ave neighs/atom = 74.2513
Neighbor list builds = 9505
Dangerous builds not checked
Setting up Verlet run ...
  Unit style    : metal
  Current step  : 460000
  Time step     : 0.001
Per MPI rank memory allocation (min/avg/max) = 11.35 | 11.35 | 11.35 Mbytes
Step Temp Press TotEng PotEng Enthalpy 
  460000    346.03637     424.8318   -63781.216    -64660.18    -63690.79 
  460495    323.56736    96.000182   -63923.782   -64745.672   -63903.393 
Loop time of 46.4441 on 2 procs for 495 steps with 19652 atoms

Performance: 0.921 ns/day, 26.063 hours/ns, 10.658 timesteps/s
95.9% CPU use with 2 MPI tasks x no OpenMP threads

MPI task timing breakdown:
Section |  min time  |  avg time  |  max time  |%varavg| %total
---------------------------------------------------------------
Pair    | 25.238     | 25.249     | 25.259     |   0.2 | 54.36
Neigh   | 18.617     | 18.618     | 18.618     |   0.0 | 40.09
Comm    | 1.9969     | 2.0056     | 2.0142     |   0.6 |  4.32
Output  | 9.0122e-05 | 0.00019002 | 0.00028992 |   0.0 |  0.00
Modify  | 0.44365    | 0.44539    | 0.44712    |   0.3 |  0.96
Other   |            | 0.1266     |            |       |  0.27

Nlocal:    9826 ave 9844 max 9808 min
Histogram: 1 0 0 0 0 0 0 0 0 1
Nghost:    12804 ave 12818 max 12790 min
Histogram: 1 0 0 0 0 0 0 0 0 1
Neighs:    731085 ave 733083 max 729087 min
Histogram: 1 0 0 0 0 0 0 0 0 1

Total # of neighbors = 1462170
Ave neighs/atom = 74.4031
Neighbor list builds = 495
Dangerous builds not checked
Setting up Verlet run ...
  Unit style    : metal
  Current step  : 460495
  Time step     : 0.001
Per MPI rank memory allocation (min/avg/max) = 11.35 | 11.35 | 11.35 Mbytes
Step Temp Press TotEng PotEng Enthalpy 
  460495    323.56736    96.000182   -63923.782   -64745.672   -63903.393 
  470000    302.52059    134.67967   -64070.092   -64838.522   -64041.576 
Loop time of 914.354 on 2 procs for 9505 steps with 19652 atoms

Performance: 0.898 ns/day, 26.721 hours/ns, 10.395 timesteps/s
93.1% CPU use with 2 MPI tasks x no OpenMP threads

MPI task timing breakdown:
Section |  min time  |  avg time  |  max time  |%varavg| %total
---------------------------------------------------------------
Pair    | 496.39     | 496.96     | 497.54     |   2.6 | 54.35
Neigh   | 360.52     | 361.34     | 362.16     |   4.3 | 39.52
Comm    | 44.396     | 44.704     | 45.013     |   4.6 |  4.89
Output  | 0.037572   | 0.037592   | 0.037612   |   0.0 |  0.00
Modify  | 8.8774     | 8.9054     | 8.9335     |   0.9 |  0.97
Other   |            | 2.399      |            |       |  0.26

Nlocal:    9826 ave 9848 max 9804 min
Histogram: 1 0 0 0 0 0 0 0 0 1
Nghost:    12778.5 ave 12808 max 12749 min
Histogram: 1 0 0 0 0 0 0 0 0 1
Neighs:    733225 ave 734817 max 731633 min
Histogram: 1 0 0 0 0 0 0 0 0 1

Total # of neighbors = 1466450
Ave neighs/atom = 74.6209
Neighbor list builds = 9505
Dangerous builds not checked
Setting up Verlet run ...
  Unit style    : metal
  Current step  : 470000
  Time step     : 0.001
Per MPI rank memory allocation (min/avg/max) = 11.35 | 11.35 | 11.35 Mbytes
Step Temp Press TotEng PotEng Enthalpy 
  470000    302.52059    134.67967   -64070.092   -64838.522   -64041.576 
  470495    274.54362   -263.12236   -64220.571   -64917.937   -64276.171 
Loop time of 48.4952 on 2 procs for 495 steps with 19652 atoms

Performance: 0.882 ns/day, 27.214 hours/ns, 10.207 timesteps/s
92.6% CPU use with 2 MPI tasks x no OpenMP threads

MPI task timing breakdown:
Section |  min time  |  avg time  |  max time  |%varavg| %total
---------------------------------------------------------------
Pair    | 26.511     | 26.576     | 26.641     |   1.3 | 54.80
Neigh   | 18.831     | 19.129     | 19.428     |   6.8 | 39.45
Comm    | 1.957      | 2.1849     | 2.4128     |  15.4 |  4.51
Output  | 8.893e-05  | 0.00014949 | 0.00021005 |   0.0 |  0.00
Modify  | 0.44928    | 0.46064    | 0.472      |   1.7 |  0.95
Other   |            | 0.1445     |            |       |  0.30

Nlocal:    9826 ave 9853 max 9799 min
Histogram: 1 0 0 0 0 0 0 0 0 1
Nghost:    12815.5 ave 12833 max 12798 min
Histogram: 1 0 0 0 0 0 0 0 0 1
Neighs:    734648 ave 736962 max 732335 min
Histogram: 1 0 0 0 0 0 0 0 0 1

Total # of neighbors = 1469297
Ave neighs/atom = 74.7658
Neighbor list builds = 495
Dangerous builds not checked
Setting up Verlet run ...
  Unit style    : metal
  Current step  : 470495
  Time step     : 0.001
Per MPI rank memory allocation (min/avg/max) = 11.35 | 11.35 | 11.35 Mbytes
Step Temp Press TotEng PotEng Enthalpy 
  470495    274.54362   -263.12236   -64220.571   -64917.937   -64276.171 
  480000     249.2436   -31.850585   -64376.134   -65009.235   -64382.843 
Loop time of 967.204 on 2 procs for 9505 steps with 19652 atoms

Performance: 0.849 ns/day, 28.266 hours/ns, 9.827 timesteps/s
90.4% CPU use with 2 MPI tasks x no OpenMP threads

MPI task timing breakdown:
Section |  min time  |  avg time  |  max time  |%varavg| %total
---------------------------------------------------------------
Pair    | 531.46     | 532.28     | 533.09     |   3.5 | 55.03
Neigh   | 372.27     | 375.33     | 378.39     |  15.8 | 38.81
Comm    | 44.651     | 46.98      | 49.309     |  34.0 |  4.86
Output  | 0.036291   | 0.036386   | 0.036481   |   0.0 |  0.00
Modify  | 9.9828     | 10.056     | 10.13      |   2.3 |  1.04
Other   |            | 2.522      |            |       |  0.26

Nlocal:    9826 ave 9834 max 9818 min
Histogram: 1 0 0 0 0 0 0 0 0 1
Nghost:    12806.5 ave 12816 max 12797 min
Histogram: 1 0 0 0 0 0 0 0 0 1
Neighs:    736583 ave 737357 max 735809 min
Histogram: 1 0 0 0 0 0 0 0 0 1

Total # of neighbors = 1473166
Ave neighs/atom = 74.9627
Neighbor list builds = 9505
Dangerous builds not checked
Setting up Verlet run ...
  Unit style    : metal
  Current step  : 480000
  Time step     : 0.001
Per MPI rank memory allocation (min/avg/max) = 11.35 | 11.35 | 11.35 Mbytes
Step Temp Press TotEng PotEng Enthalpy 
  480000     249.2436   -31.850585   -64376.134   -65009.235   -64382.843 
  480495    224.20303   -70.497531   -64506.078   -65075.574   -64520.896 
Loop time of 52.1928 on 2 procs for 495 steps with 19652 atoms

Performance: 0.819 ns/day, 29.289 hours/ns, 9.484 timesteps/s
88.8% CPU use with 2 MPI tasks x no OpenMP threads

MPI task timing breakdown:
Section |  min time  |  avg time  |  max time  |%varavg| %total
---------------------------------------------------------------
Pair    | 28.499     | 28.859     | 29.218     |   6.7 | 55.29
Neigh   | 18.882     | 20.175     | 21.469     |  28.8 | 38.66
Comm    | 1.5395     | 2.4934     | 3.4473     |  60.4 |  4.78
Output  | 0.009155   | 0.009178   | 0.009201   |   0.0 |  0.02
Modify  | 0.51101    | 0.52153    | 0.53205    |   1.5 |  1.00
Other   |            | 0.1348     |            |       |  0.26

Nlocal:    9826 ave 9848 max 9804 min
Histogram: 1 0 0 0 0 0 0 0 0 1
Nghost:    12854 ave 12891 max 12817 min
Histogram: 1 0 0 0 0 0 0 0 0 1
Neighs:    737845 ave 739674 max 736016 min
Histogram: 1 0 0 0 0 0 0 0 0 1

Total # of neighbors = 1475690
Ave neighs/atom = 75.0911
Neighbor list builds = 495
Dangerous builds not checked
Setting up Verlet run ...
  Unit style    : metal
  Current step  : 480495
  Time step     : 0.001
Per MPI rank memory allocation (min/avg/max) = 11.35 | 11.35 | 11.35 Mbytes
Step Temp Press TotEng PotEng Enthalpy 
  480495    224.20303   -70.497531   -64506.078   -65075.574   -64520.896 
  490000    198.07002    61.417779   -64651.315   -65154.431   -64638.439 
Loop time of 936.997 on 2 procs for 9505 steps with 19652 atoms

Performance: 0.876 ns/day, 27.383 hours/ns, 10.144 timesteps/s
92.4% CPU use with 2 MPI tasks x no OpenMP threads

MPI task timing breakdown:
Section |  min time  |  avg time  |  max time  |%varavg| %total
---------------------------------------------------------------
Pair    | 510.5      | 512.29     | 514.09     |   7.9 | 54.67
Neigh   | 367.14     | 367.74     | 368.34     |   3.1 | 39.25
Comm    | 43.752     | 44.966     | 46.179     |  18.1 |  4.80
Output  | 0.036319   | 0.036347   | 0.036376   |   0.0 |  0.00
Modify  | 9.4383     | 9.4469     | 9.4555     |   0.3 |  1.01
Other   |            | 2.512      |            |       |  0.27

Nlocal:    9826 ave 9841 max 9811 min
Histogram: 1 0 0 0 0 0 0 0 0 1
Nghost:    12844.5 ave 12879 max 12810 min
Histogram: 1 0 0 0 0 0 0 0 0 1
Neighs:    739624 ave 740920 max 738329 min
Histogram: 1 0 0 0 0 0 0 0 0 1

Total # of neighbors = 1479249
Ave neighs/atom = 75.2722
Neighbor list builds = 9505
Dangerous builds not checked
Setting up Verlet run ...
  Unit style    : metal
  Current step  : 490000
  Time step     : 0.001
Per MPI rank memory allocation (min/avg/max) = 11.35 | 11.35 | 11.35 Mbytes
Step Temp Press TotEng PotEng Enthalpy 
  490000    198.07002    61.417779   -64651.315   -65154.431   -64638.439 
  490495    175.38546   -140.52875   -64775.894   -65221.389   -64805.302 
Loop time of 44.4672 on 2 procs for 495 steps with 19652 atoms

Performance: 0.962 ns/day, 24.954 hours/ns, 11.132 timesteps/s
96.3% CPU use with 2 MPI tasks x no OpenMP threads

MPI task timing breakdown:
Section |  min time  |  avg time  |  max time  |%varavg| %total
---------------------------------------------------------------
Pair    | 23.856     | 24.187     | 24.518     |   6.7 | 54.39
Neigh   | 17.455     | 18.235     | 19.015     |  18.3 | 41.01
Comm    | 1.044      | 1.502      | 1.96       |  37.4 |  3.38
Output  | 9.0837e-05 | 0.00016701 | 0.00024319 |   0.0 |  0.00
Modify  | 0.41681    | 0.42505    | 0.43329    |   1.3 |  0.96
Other   |            | 0.1181     |            |       |  0.27

Nlocal:    9826 ave 9851 max 9801 min
Histogram: 1 0 0 0 0 0 0 0 0 1
Nghost:    12856.5 ave 12880 max 12833 min
Histogram: 1 0 0 0 0 0 0 0 0 1
Neighs:    740758 ave 742998 max 738519 min
Histogram: 1 0 0 0 0 0 0 0 0 1

Total # of neighbors = 1481517
Ave neighs/atom = 75.3876
Neighbor list builds = 495
Dangerous builds not checked
Setting up Verlet run ...
  Unit style    : metal
  Current step  : 490495
  Time step     : 0.001
Per MPI rank memory allocation (min/avg/max) = 11.35 | 11.35 | 11.35 Mbytes
Step Temp Press TotEng PotEng Enthalpy 
  490495    175.38546   -140.52875   -64775.894   -65221.389   -64805.302 
  500000    150.77636    360.42631   -64917.958   -65300.944   -64842.774 
Loop time of 887.793 on 2 procs for 9505 steps with 19652 atoms

Performance: 0.925 ns/day, 25.945 hours/ns, 10.706 timesteps/s
94.5% CPU use with 2 MPI tasks x no OpenMP threads

MPI task timing breakdown:
Section |  min time  |  avg time  |  max time  |%varavg| %total
---------------------------------------------------------------
Pair    | 486.19     | 487.53     | 488.87     |   6.1 | 54.91
Neigh   | 354.44     | 354.68     | 354.92     |   1.3 | 39.95
Comm    | 32.62      | 34.189     | 35.757     |  26.8 |  3.85
Output  | 0.076464   | 0.07654    | 0.076616   |   0.0 |  0.01
Modify  | 8.9188     | 8.9254     | 8.932      |   0.2 |  1.01
Other   |            | 2.389      |            |       |  0.27

Nlocal:    9826 ave 9841 max 9811 min
Histogram: 1 0 0 0 0 0 0 0 0 1
Nghost:    12847.5 ave 12866 max 12829 min
Histogram: 1 0 0 0 0 0 0 0 0 1
Neighs:    742773 ave 744031 max 741515 min
Histogram: 1 0 0 0 0 0 0 0 0 1

Total # of neighbors = 1485546
Ave neighs/atom = 75.5926
Neighbor list builds = 9505
Dangerous builds not checked
Setting up Verlet run ...
  Unit style    : metal
  Current step  : 500000
  Time step     : 0.001
Per MPI rank memory allocation (min/avg/max) = 11.35 | 11.35 | 11.35 Mbytes
Step Temp Press TotEng PotEng Enthalpy 
  500000    150.77636    360.42631   -64917.958   -65300.944   -64842.774 
  500495     126.6991   -396.01357   -65038.792    -65360.62   -65121.336 
Loop time of 50.6038 on 2 procs for 495 steps with 19652 atoms

Performance: 0.845 ns/day, 28.397 hours/ns, 9.782 timesteps/s
90.9% CPU use with 2 MPI tasks x no OpenMP threads

MPI task timing breakdown:
Section |  min time  |  avg time  |  max time  |%varavg| %total
---------------------------------------------------------------
Pair    | 27.845     | 27.855     | 27.865     |   0.2 | 55.04
Neigh   | 19.09      | 19.401     | 19.712     |   7.1 | 38.34
Comm    | 2.3281     | 2.6353     | 2.9425     |  18.9 |  5.21
Output  | 0.00013113 | 0.00030708 | 0.00048304 |   0.0 |  0.00
Modify  | 0.5663     | 0.57912    | 0.59195    |   1.7 |  1.14
Other   |            | 0.1334     |            |       |  0.26

Nlocal:    9826 ave 9842 max 9810 min
Histogram: 1 0 0 0 0 0 0 0 0 1
Nghost:    12876.5 ave 12884 max 12869 min
Histogram: 1 0 0 0 0 0 0 0 0 1
Neighs:    743463 ave 744882 max 742044 min
Histogram: 1 0 0 0 0 0 0 0 0 1

Total # of neighbors = 1486926
Ave neighs/atom = 75.6628
Neighbor list builds = 495
Dangerous builds not checked
Setting up Verlet run ...
  Unit style    : metal
  Current step  : 500495
  Time step     : 0.001
Per MPI rank memory allocation (min/avg/max) = 11.35 | 11.35 | 11.35 Mbytes
Step Temp Press TotEng PotEng Enthalpy 
  500495     126.6991   -396.01357   -65038.792    -65360.62   -65121.336 
  510000    99.493481   -426.22557   -65186.996   -65439.718   -65275.627 
Loop time of 911.572 on 2 procs for 9505 steps with 19652 atoms

Performance: 0.901 ns/day, 26.640 hours/ns, 10.427 timesteps/s
93.0% CPU use with 2 MPI tasks x no OpenMP threads

MPI task timing breakdown:
Section |  min time  |  avg time  |  max time  |%varavg| %total
---------------------------------------------------------------
Pair    | 499.16     | 499.93     | 500.71     |   3.5 | 54.84
Neigh   | 359.16     | 359.39     | 359.61     |   1.2 | 39.42
Comm    | 39.45      | 39.937     | 40.424     |   7.7 |  4.38
Output  | 0.035138   | 0.0352     | 0.035262   |   0.0 |  0.00
Modify  | 9.778      | 9.8429     | 9.9077     |   2.1 |  1.08
Other   |            | 2.435      |            |       |  0.27

Nlocal:    9826 ave 9839 max 9813 min
Histogram: 1 0 0 0 0 0 0 0 0 1
Nghost:    12891 ave 12905 max 12877 min
Histogram: 1 0 0 0 0 0 0 0 0 1
Neighs:    744989 ave 746059 max 743919 min
Histogram: 1 0 0 0 0 0 0 0 0 1

Total # of neighbors = 1489978
Ave neighs/atom = 75.8181
Neighbor list builds = 9505
Dangerous builds not checked
Total wall time: 12:41:23
