LAMMPS (12 Dec 2018)
Lattice spacing in x,y,z = 4 4 4
Created orthogonal box = (0 0 0) to (68 68 68)
  1 by 1 by 1 MPI processor grid
Created 19652 atoms
  Time spent = 0.00309896 secs
Setting atom values ...
  417 settings made for type/fraction
Neighbor list info ...
  update every 1 steps, delay 0 steps, check no
  max neighbors/atom: 2000, page size: 100000
  master list distance cutoff = 8.5
  ghost atom cutoff = 8.5
  binsize = 4.25, bins = 16 16 16
  1 neighbor lists, perpetual/occasional/extra = 1 0 0
  (1) pair eam/alloy, perpetual
      attributes: half, newton on
      pair build: half/bin/atomonly/newton
      stencil: half/bin/3d/newton
      bin: standard
Setting up Verlet run ...
  Unit style    : metal
  Current step  : 0
  Time step     : 0.001
Per MPI rank memory allocation (min/avg/max) = 18.19 | 18.19 | 18.19 Mbytes
Step Temp Press TotEng PotEng Enthalpy 
       0          300     281057.6   -21441.367   -22203.394     33717.04 
    1000    164.65197    278746.87   -21441.149    -21859.38    33263.771 
Loop time of 158.019 on 1 procs for 1000 steps with 19652 atoms

Performance: 0.547 ns/day, 43.894 hours/ns, 6.328 timesteps/s
99.7% CPU use with 1 MPI tasks x no OpenMP threads

MPI task timing breakdown:
Section |  min time  |  avg time  |  max time  |%varavg| %total
---------------------------------------------------------------
Pair    | 89.849     | 89.849     | 89.849     |   0.0 | 56.86
Neigh   | 66.25      | 66.25      | 66.25      |   0.0 | 41.93
Comm    | 1.1218     | 1.1218     | 1.1218     |   0.0 |  0.71
Output  | 0.00021887 | 0.00021887 | 0.00021887 |   0.0 |  0.00
Modify  | 0.41898    | 0.41898    | 0.41898    |   0.0 |  0.27
Other   |            | 0.3786     |            |       |  0.24

Nlocal:    19652 ave 19652 max 19652 min
Histogram: 1 0 0 0 0 0 0 0 0 0
Nghost:    20102 ave 20102 max 20102 min
Histogram: 1 0 0 0 0 0 0 0 0 0
Neighs:    1.57221e+06 ave 1.57221e+06 max 1.57221e+06 min
Histogram: 1 0 0 0 0 0 0 0 0 0

Total # of neighbors = 1572210
Ave neighs/atom = 80.0025
Neighbor list builds = 1000
Dangerous builds not checked
Setting up Verlet run ...
  Unit style    : metal
  Current step  : 1000
  Time step     : 0.001
Per MPI rank memory allocation (min/avg/max) = 18.2 | 18.2 | 18.2 Mbytes
Step Temp Press TotEng PotEng Enthalpy 
    1000    164.65197    278746.87   -21441.149    -21859.38    33263.771 
    2000    262.57893    324.34652   -29504.425   -30171.399   -29411.134 
Loop time of 136.184 on 1 procs for 1000 steps with 19652 atoms

Performance: 0.634 ns/day, 37.829 hours/ns, 7.343 timesteps/s
99.5% CPU use with 1 MPI tasks x no OpenMP threads

MPI task timing breakdown:
Section |  min time  |  avg time  |  max time  |%varavg| %total
---------------------------------------------------------------
Pair    | 71.147     | 71.147     | 71.147     |   0.0 | 52.24
Neigh   | 62.045     | 62.045     | 62.045     |   0.0 | 45.56
Comm    | 1.0253     | 1.0253     | 1.0253     |   0.0 |  0.75
Output  | 0.00020099 | 0.00020099 | 0.00020099 |   0.0 |  0.00
Modify  | 1.5824     | 1.5824     | 1.5824     |   0.0 |  1.16
Other   |            | 0.3842     |            |       |  0.28

Nlocal:    19652 ave 19652 max 19652 min
Histogram: 1 0 0 0 0 0 0 0 0 0
Nghost:    14808 ave 14808 max 14808 min
Histogram: 1 0 0 0 0 0 0 0 0 0
Neighs:    1.07747e+06 ave 1.07747e+06 max 1.07747e+06 min
Histogram: 1 0 0 0 0 0 0 0 0 0

Total # of neighbors = 1077471
Ave neighs/atom = 54.8275
Neighbor list builds = 1000
Dangerous builds not checked
Setting up Verlet run ...
  Unit style    : metal
  Current step  : 2000
  Time step     : 0.001
Per MPI rank memory allocation (min/avg/max) = 18.21 | 18.21 | 18.21 Mbytes
Step Temp Press TotEng PotEng Enthalpy 
    2000    262.57893    324.34652   -29504.425   -30171.399   -29411.134 
    6667    1534.7107    307.35445   -20761.702   -24660.007   -20654.084 
   10000    2458.6099    258.05199   -15382.405   -21627.498   -15277.482 
Loop time of 862.738 on 1 procs for 8000 steps with 19652 atoms

Performance: 0.801 ns/day, 29.956 hours/ns, 9.273 timesteps/s
99.6% CPU use with 1 MPI tasks x no OpenMP threads

MPI task timing breakdown:
Section |  min time  |  avg time  |  max time  |%varavg| %total
---------------------------------------------------------------
Pair    | 439.09     | 439.09     | 439.09     |   0.0 | 50.89
Neigh   | 401.72     | 401.72     | 401.72     |   0.0 | 46.56
Comm    | 7.5325     | 7.5325     | 7.5325     |   0.0 |  0.87
Output  | 0.041659   | 0.041659   | 0.041659   |   0.0 |  0.00
Modify  | 11.535     | 11.535     | 11.535     |   0.0 |  1.34
Other   |            | 2.819      |            |       |  0.33

Nlocal:    19652 ave 19652 max 19652 min
Histogram: 1 0 0 0 0 0 0 0 0 0
Nghost:    13936 ave 13936 max 13936 min
Histogram: 1 0 0 0 0 0 0 0 0 0
Neighs:    752577 ave 752577 max 752577 min
Histogram: 1 0 0 0 0 0 0 0 0 0

Total # of neighbors = 752577
Ave neighs/atom = 38.2952
Neighbor list builds = 8000
Dangerous builds not checked
Setting up Verlet run ...
  Unit style    : metal
  Current step  : 10000
  Time step     : 0.001
Per MPI rank memory allocation (min/avg/max) = 18.21 | 18.21 | 18.21 Mbytes
Step Temp Press TotEng PotEng Enthalpy 
   10000    2458.6099    258.05199   -15382.405   -21627.498   -15277.482 
   13334     2425.039   -527.64571   -15349.121   -21508.941   -15565.961 
   20001    2424.2909   -95.201542   -15310.272   -21468.191   -15349.267 
   26668    2454.2128   -458.36337   -15260.578   -21494.502   -15449.077 
   33335    2445.6617   -510.94808   -15211.344   -21423.548   -15422.325 
   40000    2434.7406    488.69362   -15301.606   -21486.068     -15101.7 
Loop time of 2941.4 on 1 procs for 30000 steps with 19652 atoms

Performance: 0.881 ns/day, 27.235 hours/ns, 10.199 timesteps/s
99.4% CPU use with 1 MPI tasks x no OpenMP threads

MPI task timing breakdown:
Section |  min time  |  avg time  |  max time  |%varavg| %total
---------------------------------------------------------------
Pair    | 1443.4     | 1443.4     | 1443.4     |   0.0 | 49.07
Neigh   | 1414.7     | 1414.7     | 1414.7     |   0.0 | 48.10
Comm    | 28.873     | 28.873     | 28.873     |   0.0 |  0.98
Output  | 0.22982    | 0.22982    | 0.22982    |   0.0 |  0.01
Modify  | 43.554     | 43.554     | 43.554     |   0.0 |  1.48
Other   |            | 10.58      |            |       |  0.36

Nlocal:    19652 ave 19652 max 19652 min
Histogram: 1 0 0 0 0 0 0 0 0 0
Nghost:    13976 ave 13976 max 13976 min
Histogram: 1 0 0 0 0 0 0 0 0 0
Neighs:    749083 ave 749083 max 749083 min
Histogram: 1 0 0 0 0 0 0 0 0 0

Total # of neighbors = 749083
Ave neighs/atom = 38.1174
Neighbor list builds = 30000
Dangerous builds not checked
Setting up Verlet run ...
  Unit style    : metal
  Current step  : 40000
  Time step     : 0.001
Per MPI rank memory allocation (min/avg/max) = 18.21 | 18.21 | 18.21 Mbytes
Step Temp Press TotEng PotEng Enthalpy 
   40000    2434.7406    488.69362   -15301.606   -21486.068     -15101.7 
   40002    2435.3351    494.35418   -15301.594   -21487.567   -15099.373 
   40495    2413.0764   -304.25431   -15390.377   -21519.811   -15515.206 
Loop time of 45.9836 on 1 procs for 495 steps with 19652 atoms

Performance: 0.930 ns/day, 25.804 hours/ns, 10.765 timesteps/s
99.9% CPU use with 1 MPI tasks x no OpenMP threads

MPI task timing breakdown:
Section |  min time  |  avg time  |  max time  |%varavg| %total
---------------------------------------------------------------
Pair    | 22.369     | 22.369     | 22.369     |   0.0 | 48.65
Neigh   | 22.236     | 22.236     | 22.236     |   0.0 | 48.36
Comm    | 0.45244    | 0.45244    | 0.45244    |   0.0 |  0.98
Output  | 0.063897   | 0.063897   | 0.063897   |   0.0 |  0.14
Modify  | 0.69498    | 0.69498    | 0.69498    |   0.0 |  1.51
Other   |            | 0.167      |            |       |  0.36

Nlocal:    19652 ave 19652 max 19652 min
Histogram: 1 0 0 0 0 0 0 0 0 0
Nghost:    13940 ave 13940 max 13940 min
Histogram: 1 0 0 0 0 0 0 0 0 0
Neighs:    746287 ave 746287 max 746287 min
Histogram: 1 0 0 0 0 0 0 0 0 0

Total # of neighbors = 746287
Ave neighs/atom = 37.9751
Neighbor list builds = 495
Dangerous builds not checked
Setting up Verlet run ...
  Unit style    : metal
  Current step  : 40495
  Time step     : 0.001
Per MPI rank memory allocation (min/avg/max) = 18.21 | 18.21 | 18.21 Mbytes
Step Temp Press TotEng PotEng Enthalpy 
   40495    2413.0764   -304.25431   -15390.377   -21519.811   -15515.206 
   46667    2420.4792   -128.33056   -15614.023   -21762.261   -15666.007 
Loop time of 585.051 on 1 procs for 6172 steps with 19652 atoms

Performance: 0.911 ns/day, 26.331 hours/ns, 10.550 timesteps/s
99.4% CPU use with 1 MPI tasks x no OpenMP threads

MPI task timing breakdown:
Section |  min time  |  avg time  |  max time  |%varavg| %total
---------------------------------------------------------------
Pair    | 285.76     | 285.76     | 285.76     |   0.0 | 48.84
Neigh   | 282.81     | 282.81     | 282.81     |   0.0 | 48.34
Comm    | 5.7113     | 5.7113     | 5.7113     |   0.0 |  0.98
Output  | 0.00024891 | 0.00024891 | 0.00024891 |   0.0 |  0.00
Modify  | 8.6667     | 8.6667     | 8.6667     |   0.0 |  1.48
Other   |            | 2.104      |            |       |  0.36

Nlocal:    19652 ave 19652 max 19652 min
Histogram: 1 0 0 0 0 0 0 0 0 0
Nghost:    13904 ave 13904 max 13904 min
Histogram: 1 0 0 0 0 0 0 0 0 0
Neighs:    756106 ave 756106 max 756106 min
Histogram: 1 0 0 0 0 0 0 0 0 0

Total # of neighbors = 756106
Ave neighs/atom = 38.4748
Neighbor list builds = 6172
Dangerous builds not checked
Setting up Verlet run ...
  Unit style    : metal
  Current step  : 46667
  Time step     : 0.001
Per MPI rank memory allocation (min/avg/max) = 18.21 | 18.21 | 18.21 Mbytes
Step Temp Press TotEng PotEng Enthalpy 
   46667    2420.4792   -128.33056   -15614.023   -21762.261   -15666.007 
   46669    2421.4412   -142.70479    -15614.05   -21764.732   -15671.857 
   47162    2371.8121   -297.74551   -15773.992   -21798.611    -15894.28 
Loop time of 41.0316 on 1 procs for 495 steps with 19652 atoms

Performance: 1.042 ns/day, 23.026 hours/ns, 12.064 timesteps/s
100.0% CPU use with 1 MPI tasks x no OpenMP threads

MPI task timing breakdown:
Section |  min time  |  avg time  |  max time  |%varavg| %total
---------------------------------------------------------------
Pair    | 19.711     | 19.711     | 19.711     |   0.0 | 48.04
Neigh   | 20.099     | 20.099     | 20.099     |   0.0 | 48.99
Comm    | 0.39364    | 0.39364    | 0.39364    |   0.0 |  0.96
Output  | 0.064798   | 0.064798   | 0.064798   |   0.0 |  0.16
Modify  | 0.61129    | 0.61129    | 0.61129    |   0.0 |  1.49
Other   |            | 0.1512     |            |       |  0.37

Nlocal:    19652 ave 19652 max 19652 min
Histogram: 1 0 0 0 0 0 0 0 0 0
Nghost:    14010 ave 14010 max 14010 min
Histogram: 1 0 0 0 0 0 0 0 0 0
Neighs:    757577 ave 757577 max 757577 min
Histogram: 1 0 0 0 0 0 0 0 0 0

Total # of neighbors = 757577
Ave neighs/atom = 38.5496
Neighbor list builds = 495
Dangerous builds not checked
Setting up Verlet run ...
  Unit style    : metal
  Current step  : 47162
  Time step     : 0.001
Per MPI rank memory allocation (min/avg/max) = 18.21 | 18.21 | 18.21 Mbytes
Step Temp Press TotEng PotEng Enthalpy 
   47162    2371.8121   -297.74551   -15773.992   -21798.611    -15894.28 
   53334    2348.7785    100.66804   -15971.997   -21938.108    -15931.79 
Loop time of 603.268 on 1 procs for 6172 steps with 19652 atoms

Performance: 0.884 ns/day, 27.151 hours/ns, 10.231 timesteps/s
99.3% CPU use with 1 MPI tasks x no OpenMP threads

MPI task timing breakdown:
Section |  min time  |  avg time  |  max time  |%varavg| %total
---------------------------------------------------------------
Pair    | 296.53     | 296.53     | 296.53     |   0.0 | 49.15
Neigh   | 289.74     | 289.74     | 289.74     |   0.0 | 48.03
Comm    | 5.8507     | 5.8507     | 5.8507     |   0.0 |  0.97
Output  | 0.00020289 | 0.00020289 | 0.00020289 |   0.0 |  0.00
Modify  | 8.979      | 8.979      | 8.979      |   0.0 |  1.49
Other   |            | 2.177      |            |       |  0.36

Nlocal:    19652 ave 19652 max 19652 min
Histogram: 1 0 0 0 0 0 0 0 0 0
Nghost:    13962 ave 13962 max 13962 min
Histogram: 1 0 0 0 0 0 0 0 0 0
Neighs:    765971 ave 765971 max 765971 min
Histogram: 1 0 0 0 0 0 0 0 0 0

Total # of neighbors = 765971
Ave neighs/atom = 38.9767
Neighbor list builds = 6172
Dangerous builds not checked
Setting up Verlet run ...
  Unit style    : metal
  Current step  : 53334
  Time step     : 0.001
Per MPI rank memory allocation (min/avg/max) = 18.21 | 18.21 | 18.21 Mbytes
Step Temp Press TotEng PotEng Enthalpy 
   53334    2348.7785    100.66804   -15971.997   -21938.108    -15931.79 
   53336    2349.2259    109.90732   -15971.996   -21939.243   -15928.099 
   53829    2308.0618    117.17148     -16092.6   -21955.287   -16045.764 
Loop time of 44.4495 on 1 procs for 495 steps with 19652 atoms

Performance: 0.962 ns/day, 24.944 hours/ns, 11.136 timesteps/s
100.0% CPU use with 1 MPI tasks x no OpenMP threads

MPI task timing breakdown:
Section |  min time  |  avg time  |  max time  |%varavg| %total
---------------------------------------------------------------
Pair    | 21.747     | 21.747     | 21.747     |   0.0 | 48.92
Neigh   | 21.383     | 21.383     | 21.383     |   0.0 | 48.11
Comm    | 0.43129    | 0.43129    | 0.43129    |   0.0 |  0.97
Output  | 0.065003   | 0.065003   | 0.065003   |   0.0 |  0.15
Modify  | 0.6623     | 0.6623     | 0.6623     |   0.0 |  1.49
Other   |            | 0.1617     |            |       |  0.36

Nlocal:    19652 ave 19652 max 19652 min
Histogram: 1 0 0 0 0 0 0 0 0 0
Nghost:    14000 ave 14000 max 14000 min
Histogram: 1 0 0 0 0 0 0 0 0 0
Neighs:    766089 ave 766089 max 766089 min
Histogram: 1 0 0 0 0 0 0 0 0 0

Total # of neighbors = 766089
Ave neighs/atom = 38.9827
Neighbor list builds = 495
Dangerous builds not checked
Setting up Verlet run ...
  Unit style    : metal
  Current step  : 53829
  Time step     : 0.001
Per MPI rank memory allocation (min/avg/max) = 18.21 | 18.21 | 18.21 Mbytes
Step Temp Press TotEng PotEng Enthalpy 
   53829    2308.0618    117.17148     -16092.6   -21955.287   -16045.764 
   60001    2290.3502     -151.941   -16189.306   -22007.004   -16249.845 
Loop time of 613.436 on 1 procs for 6172 steps with 19652 atoms

Performance: 0.869 ns/day, 27.608 hours/ns, 10.061 timesteps/s
99.4% CPU use with 1 MPI tasks x no OpenMP threads

MPI task timing breakdown:
Section |  min time  |  avg time  |  max time  |%varavg| %total
---------------------------------------------------------------
Pair    | 303.84     | 303.84     | 303.84     |   0.0 | 49.53
Neigh   | 292.42     | 292.42     | 292.42     |   0.0 | 47.67
Comm    | 5.9406     | 5.9406     | 5.9406     |   0.0 |  0.97
Output  | 0.00025105 | 0.00025105 | 0.00025105 |   0.0 |  0.00
Modify  | 9.0522     | 9.0522     | 9.0522     |   0.0 |  1.48
Other   |            | 2.182      |            |       |  0.36

Nlocal:    19652 ave 19652 max 19652 min
Histogram: 1 0 0 0 0 0 0 0 0 0
Nghost:    14065 ave 14065 max 14065 min
Histogram: 1 0 0 0 0 0 0 0 0 0
Neighs:    768382 ave 768382 max 768382 min
Histogram: 1 0 0 0 0 0 0 0 0 0

Total # of neighbors = 768382
Ave neighs/atom = 39.0994
Neighbor list builds = 6172
Dangerous builds not checked
Setting up Verlet run ...
  Unit style    : metal
  Current step  : 60001
  Time step     : 0.001
Per MPI rank memory allocation (min/avg/max) = 18.21 | 18.21 | 18.21 Mbytes
Step Temp Press TotEng PotEng Enthalpy 
   60001    2290.3502     -151.941   -16189.306   -22007.004   -16249.845 
   60003    2288.2564   -126.34724   -16189.291   -22001.671   -16239.632 
   60496    2274.8132   -605.38725   -16403.129   -22181.362   -16642.847 
Loop time of 50.7334 on 1 procs for 495 steps with 19652 atoms

Performance: 0.843 ns/day, 28.470 hours/ns, 9.757 timesteps/s
99.9% CPU use with 1 MPI tasks x no OpenMP threads

MPI task timing breakdown:
Section |  min time  |  avg time  |  max time  |%varavg| %total
---------------------------------------------------------------
Pair    | 25.288     | 25.288     | 25.288     |   0.0 | 49.84
Neigh   | 23.932     | 23.932     | 23.932     |   0.0 | 47.17
Comm    | 0.48822    | 0.48822    | 0.48822    |   0.0 |  0.96
Output  | 0.065527   | 0.065527   | 0.065527   |   0.0 |  0.13
Modify  | 0.77286    | 0.77286    | 0.77286    |   0.0 |  1.52
Other   |            | 0.1868     |            |       |  0.37

Nlocal:    19652 ave 19652 max 19652 min
Histogram: 1 0 0 0 0 0 0 0 0 0
Nghost:    14113 ave 14113 max 14113 min
Histogram: 1 0 0 0 0 0 0 0 0 0
Neighs:    773246 ave 773246 max 773246 min
Histogram: 1 0 0 0 0 0 0 0 0 0

Total # of neighbors = 773246
Ave neighs/atom = 39.3469
Neighbor list builds = 495
Dangerous builds not checked
Setting up Verlet run ...
  Unit style    : metal
  Current step  : 60496
  Time step     : 0.001
Per MPI rank memory allocation (min/avg/max) = 18.21 | 18.21 | 18.21 Mbytes
Step Temp Press TotEng PotEng Enthalpy 
   60496    2274.8132   -605.38725   -16403.129   -22181.362   -16642.847 
   66668    2240.5071   -145.06376   -16558.455   -22249.547   -16615.525 
Loop time of 639.801 on 1 procs for 6172 steps with 19652 atoms

Performance: 0.833 ns/day, 28.795 hours/ns, 9.647 timesteps/s
99.9% CPU use with 1 MPI tasks x no OpenMP threads

MPI task timing breakdown:
Section |  min time  |  avg time  |  max time  |%varavg| %total
---------------------------------------------------------------
Pair    | 319.37     | 319.37     | 319.37     |   0.0 | 49.92
Neigh   | 302.51     | 302.51     | 302.51     |   0.0 | 47.28
Comm    | 6.1509     | 6.1509     | 6.1509     |   0.0 |  0.96
Output  | 0.0002811  | 0.0002811  | 0.0002811  |   0.0 |  0.00
Modify  | 9.4845     | 9.4845     | 9.4845     |   0.0 |  1.48
Other   |            | 2.281      |            |       |  0.36

Nlocal:    19652 ave 19652 max 19652 min
Histogram: 1 0 0 0 0 0 0 0 0 0
Nghost:    14239 ave 14239 max 14239 min
Histogram: 1 0 0 0 0 0 0 0 0 0
Neighs:    778250 ave 778250 max 778250 min
Histogram: 1 0 0 0 0 0 0 0 0 0

Total # of neighbors = 778250
Ave neighs/atom = 39.6016
Neighbor list builds = 6172
Dangerous builds not checked
Setting up Verlet run ...
  Unit style    : metal
  Current step  : 66668
  Time step     : 0.001
Per MPI rank memory allocation (min/avg/max) = 18.21 | 18.21 | 18.21 Mbytes
Step Temp Press TotEng PotEng Enthalpy 
   66668    2240.5071   -145.06376   -16558.455   -22249.547   -16615.525 
   66670    2238.0361   -111.31022   -16558.438   -22243.253   -16602.229 
   67163    2209.3042   -129.12647   -16727.546    -22339.38   -16778.072 
Loop time of 50.7653 on 1 procs for 495 steps with 19652 atoms

Performance: 0.842 ns/day, 28.488 hours/ns, 9.751 timesteps/s
99.9% CPU use with 1 MPI tasks x no OpenMP threads

MPI task timing breakdown:
Section |  min time  |  avg time  |  max time  |%varavg| %total
---------------------------------------------------------------
Pair    | 25.447     | 25.447     | 25.447     |   0.0 | 50.13
Neigh   | 23.789     | 23.789     | 23.789     |   0.0 | 46.86
Comm    | 0.49085    | 0.49085    | 0.49085    |   0.0 |  0.97
Output  | 0.064535   | 0.064535   | 0.064535   |   0.0 |  0.13
Modify  | 0.78556    | 0.78556    | 0.78556    |   0.0 |  1.55
Other   |            | 0.1887     |            |       |  0.37

Nlocal:    19652 ave 19652 max 19652 min
Histogram: 1 0 0 0 0 0 0 0 0 0
Nghost:    14180 ave 14180 max 14180 min
Histogram: 1 0 0 0 0 0 0 0 0 0
Neighs:    781760 ave 781760 max 781760 min
Histogram: 1 0 0 0 0 0 0 0 0 0

Total # of neighbors = 781760
Ave neighs/atom = 39.7802
Neighbor list builds = 495
Dangerous builds not checked
Setting up Verlet run ...
  Unit style    : metal
  Current step  : 67163
  Time step     : 0.001
Per MPI rank memory allocation (min/avg/max) = 18.21 | 18.21 | 18.21 Mbytes
Step Temp Press TotEng PotEng Enthalpy 
   67163    2209.3042   -129.12647   -16727.546    -22339.38   -16778.072 
   73335    2185.7134   -418.32996   -16880.034   -22431.945   -17043.143 
Loop time of 695.509 on 1 procs for 6172 steps with 19652 atoms

Performance: 0.767 ns/day, 31.302 hours/ns, 8.874 timesteps/s
95.5% CPU use with 1 MPI tasks x no OpenMP threads

MPI task timing breakdown:
Section |  min time  |  avg time  |  max time  |%varavg| %total
---------------------------------------------------------------
Pair    | 350.95     | 350.95     | 350.95     |   0.0 | 50.46
Neigh   | 325.13     | 325.13     | 325.13     |   0.0 | 46.75
Comm    | 6.6697     | 6.6697     | 6.6697     |   0.0 |  0.96
Output  | 0.00018692 | 0.00018692 | 0.00018692 |   0.0 |  0.00
Modify  | 10.304     | 10.304     | 10.304     |   0.0 |  1.48
Other   |            | 2.455      |            |       |  0.35

Nlocal:    19652 ave 19652 max 19652 min
Histogram: 1 0 0 0 0 0 0 0 0 0
Nghost:    14216 ave 14216 max 14216 min
Histogram: 1 0 0 0 0 0 0 0 0 0
Neighs:    784761 ave 784761 max 784761 min
Histogram: 1 0 0 0 0 0 0 0 0 0

Total # of neighbors = 784761
Ave neighs/atom = 39.9329
Neighbor list builds = 6172
Dangerous builds not checked
Setting up Verlet run ...
  Unit style    : metal
  Current step  : 73335
  Time step     : 0.001
Per MPI rank memory allocation (min/avg/max) = 18.21 | 18.21 | 18.21 Mbytes
Step Temp Press TotEng PotEng Enthalpy 
   73335    2185.7134   -418.32996   -16880.034   -22431.945   -17043.143 
   73337     2185.467   -432.77464   -16880.016   -22431.301   -17048.757 
   73830    2147.9163    127.83302   -17068.351   -22524.254   -17018.814 
Loop time of 55.5006 on 1 procs for 495 steps with 19652 atoms

Performance: 0.771 ns/day, 31.145 hours/ns, 8.919 timesteps/s
95.3% CPU use with 1 MPI tasks x no OpenMP threads

MPI task timing breakdown:
Section |  min time  |  avg time  |  max time  |%varavg| %total
---------------------------------------------------------------
Pair    | 28.024     | 28.024     | 28.024     |   0.0 | 50.49
Neigh   | 25.792     | 25.792     | 25.792     |   0.0 | 46.47
Comm    | 0.55542    | 0.55542    | 0.55542    |   0.0 |  1.00
Output  | 0.11004    | 0.11004    | 0.11004    |   0.0 |  0.20
Modify  | 0.82462    | 0.82462    | 0.82462    |   0.0 |  1.49
Other   |            | 0.1947     |            |       |  0.35

Nlocal:    19652 ave 19652 max 19652 min
Histogram: 1 0 0 0 0 0 0 0 0 0
Nghost:    14177 ave 14177 max 14177 min
Histogram: 1 0 0 0 0 0 0 0 0 0
Neighs:    790095 ave 790095 max 790095 min
Histogram: 1 0 0 0 0 0 0 0 0 0

Total # of neighbors = 790095
Ave neighs/atom = 40.2043
Neighbor list builds = 495
Dangerous builds not checked
Setting up Verlet run ...
  Unit style    : metal
  Current step  : 73830
  Time step     : 0.001
Per MPI rank memory allocation (min/avg/max) = 18.21 | 18.21 | 18.21 Mbytes
Step Temp Press TotEng PotEng Enthalpy 
   73830    2147.9163    127.83302   -17068.351   -22524.254   -17018.814 
   80002    2164.5636    306.14694   -17145.009   -22643.198   -17027.282 
Loop time of 755.158 on 1 procs for 6172 steps with 19652 atoms

Performance: 0.706 ns/day, 33.987 hours/ns, 8.173 timesteps/s
91.2% CPU use with 1 MPI tasks x no OpenMP threads

MPI task timing breakdown:
Section |  min time  |  avg time  |  max time  |%varavg| %total
---------------------------------------------------------------
Pair    | 382.6      | 382.6      | 382.6      |   0.0 | 50.66
Neigh   | 351.64     | 351.64     | 351.64     |   0.0 | 46.57
Comm    | 7.1759     | 7.1759     | 7.1759     |   0.0 |  0.95
Output  | 0.000211   | 0.000211   | 0.000211   |   0.0 |  0.00
Modify  | 11.074     | 11.074     | 11.074     |   0.0 |  1.47
Other   |            | 2.67       |            |       |  0.35

Nlocal:    19652 ave 19652 max 19652 min
Histogram: 1 0 0 0 0 0 0 0 0 0
Nghost:    14196 ave 14196 max 14196 min
Histogram: 1 0 0 0 0 0 0 0 0 0
Neighs:    796236 ave 796236 max 796236 min
Histogram: 1 0 0 0 0 0 0 0 0 0

Total # of neighbors = 796236
Ave neighs/atom = 40.5168
Neighbor list builds = 6172
Dangerous builds not checked
Setting up Verlet run ...
  Unit style    : metal
  Current step  : 80002
  Time step     : 0.001
Per MPI rank memory allocation (min/avg/max) = 18.23 | 18.23 | 18.23 Mbytes
Step Temp Press TotEng PotEng Enthalpy 
   80002    2164.5636    306.14694   -17145.009   -22643.198   -17027.282 
   80004    2164.5662    309.56171   -17145.024    -22643.22   -17025.984 
   80497    2103.8222   -211.93763    -17316.93    -22660.83   -17398.595 
Loop time of 59.1826 on 1 procs for 495 steps with 19652 atoms

Performance: 0.723 ns/day, 33.211 hours/ns, 8.364 timesteps/s
90.7% CPU use with 1 MPI tasks x no OpenMP threads

MPI task timing breakdown:
Section |  min time  |  avg time  |  max time  |%varavg| %total
---------------------------------------------------------------
Pair    | 30.005     | 30.005     | 30.005     |   0.0 | 50.70
Neigh   | 27.408     | 27.408     | 27.408     |   0.0 | 46.31
Comm    | 0.5844     | 0.5844     | 0.5844     |   0.0 |  0.99
Output  | 0.065642   | 0.065642   | 0.065642   |   0.0 |  0.11
Modify  | 0.89877    | 0.89877    | 0.89877    |   0.0 |  1.52
Other   |            | 0.2211     |            |       |  0.37

Nlocal:    19652 ave 19652 max 19652 min
Histogram: 1 0 0 0 0 0 0 0 0 0
Nghost:    14260 ave 14260 max 14260 min
Histogram: 1 0 0 0 0 0 0 0 0 0
Neighs:    794643 ave 794643 max 794643 min
Histogram: 1 0 0 0 0 0 0 0 0 0

Total # of neighbors = 794643
Ave neighs/atom = 40.4357
Neighbor list builds = 495
Dangerous builds not checked
Setting up Verlet run ...
  Unit style    : metal
  Current step  : 80497
  Time step     : 0.001
Per MPI rank memory allocation (min/avg/max) = 18.23 | 18.23 | 18.23 Mbytes
Step Temp Press TotEng PotEng Enthalpy 
   80497    2103.8222   -211.93763    -17316.93    -22660.83   -17398.595 
   86669     2100.967   -88.160629   -17493.856   -22830.504   -17527.509 
Loop time of 817.356 on 1 procs for 6172 steps with 19652 atoms

Performance: 0.652 ns/day, 36.786 hours/ns, 7.551 timesteps/s
86.0% CPU use with 1 MPI tasks x no OpenMP threads

MPI task timing breakdown:
Section |  min time  |  avg time  |  max time  |%varavg| %total
---------------------------------------------------------------
Pair    | 409.4      | 409.4      | 409.4      |   0.0 | 50.09
Neigh   | 385.81     | 385.81     | 385.81     |   0.0 | 47.20
Comm    | 7.469      | 7.469      | 7.469      |   0.0 |  0.91
Output  | 0.00021696 | 0.00021696 | 0.00021696 |   0.0 |  0.00
Modify  | 11.864     | 11.864     | 11.864     |   0.0 |  1.45
Other   |            | 2.809      |            |       |  0.34

Nlocal:    19652 ave 19652 max 19652 min
Histogram: 1 0 0 0 0 0 0 0 0 0
Nghost:    14215 ave 14215 max 14215 min
Histogram: 1 0 0 0 0 0 0 0 0 0
Neighs:    801645 ave 801645 max 801645 min
Histogram: 1 0 0 0 0 0 0 0 0 0

Total # of neighbors = 801645
Ave neighs/atom = 40.792
Neighbor list builds = 6172
Dangerous builds not checked
Setting up Verlet run ...
  Unit style    : metal
  Current step  : 86669
  Time step     : 0.001
Per MPI rank memory allocation (min/avg/max) = 18.23 | 18.23 | 18.23 Mbytes
Step Temp Press TotEng PotEng Enthalpy 
   86669     2100.967   -88.160629   -17493.856   -22830.504   -17527.509 
   86671    2101.0182   -93.810553   -17493.855   -22830.633   -17529.664 
   87164    2043.9093    364.20848   -17663.325   -22855.041   -17524.935 
Loop time of 63.1218 on 1 procs for 495 steps with 19652 atoms

Performance: 0.678 ns/day, 35.422 hours/ns, 7.842 timesteps/s
86.3% CPU use with 1 MPI tasks x no OpenMP threads

MPI task timing breakdown:
Section |  min time  |  avg time  |  max time  |%varavg| %total
---------------------------------------------------------------
Pair    | 31.171     | 31.171     | 31.171     |   0.0 | 49.38
Neigh   | 30.107     | 30.107     | 30.107     |   0.0 | 47.70
Comm    | 0.5995     | 0.5995     | 0.5995     |   0.0 |  0.95
Output  | 0.071968   | 0.071968   | 0.071968   |   0.0 |  0.11
Modify  | 0.9535     | 0.9535     | 0.9535     |   0.0 |  1.51
Other   |            | 0.2181     |            |       |  0.35

Nlocal:    19652 ave 19652 max 19652 min
Histogram: 1 0 0 0 0 0 0 0 0 0
Nghost:    14433 ave 14433 max 14433 min
Histogram: 1 0 0 0 0 0 0 0 0 0
Neighs:    805496 ave 805496 max 805496 min
Histogram: 1 0 0 0 0 0 0 0 0 0

Total # of neighbors = 805496
Ave neighs/atom = 40.988
Neighbor list builds = 495
Dangerous builds not checked
Setting up Verlet run ...
  Unit style    : metal
  Current step  : 87164
  Time step     : 0.001
Per MPI rank memory allocation (min/avg/max) = 18.23 | 18.23 | 18.23 Mbytes
Step Temp Press TotEng PotEng Enthalpy 
   87164    2043.9093    364.20848   -17663.325   -22855.041   -17524.935 
   93336      2047.22    72.650329   -17795.055    -22995.18   -17767.538 
Loop time of 789.261 on 1 procs for 6172 steps with 19652 atoms

Performance: 0.676 ns/day, 35.522 hours/ns, 7.820 timesteps/s
90.4% CPU use with 1 MPI tasks x no OpenMP threads

MPI task timing breakdown:
Section |  min time  |  avg time  |  max time  |%varavg| %total
---------------------------------------------------------------
Pair    | 391.13     | 391.13     | 391.13     |   0.0 | 49.56
Neigh   | 377.02     | 377.02     | 377.02     |   0.0 | 47.77
Comm    | 7.3086     | 7.3086     | 7.3086     |   0.0 |  0.93
Output  | 0.00020313 | 0.00020313 | 0.00020313 |   0.0 |  0.00
Modify  | 11.124     | 11.124     | 11.124     |   0.0 |  1.41
Other   |            | 2.681      |            |       |  0.34

Nlocal:    19652 ave 19652 max 19652 min
Histogram: 1 0 0 0 0 0 0 0 0 0
Nghost:    14401 ave 14401 max 14401 min
Histogram: 1 0 0 0 0 0 0 0 0 0
Neighs:    808323 ave 808323 max 808323 min
Histogram: 1 0 0 0 0 0 0 0 0 0

Total # of neighbors = 808323
Ave neighs/atom = 41.1318
Neighbor list builds = 6172
Dangerous builds not checked
Setting up Verlet run ...
  Unit style    : metal
  Current step  : 93336
  Time step     : 0.001
Per MPI rank memory allocation (min/avg/max) = 18.23 | 18.23 | 18.23 Mbytes
Step Temp Press TotEng PotEng Enthalpy 
   93336      2047.22    72.650329   -17795.055    -22995.18   -17767.538 
   93338    2048.8365    61.984076   -17795.058    -22999.29   -17771.581 
   93831    2000.8033   -532.97062    -17904.05   -22986.273   -18106.078 
Loop time of 61.4564 on 1 procs for 495 steps with 19652 atoms

Performance: 0.696 ns/day, 34.487 hours/ns, 8.054 timesteps/s
90.9% CPU use with 1 MPI tasks x no OpenMP threads

MPI task timing breakdown:
Section |  min time  |  avg time  |  max time  |%varavg| %total
---------------------------------------------------------------
Pair    | 30.283     | 30.283     | 30.283     |   0.0 | 49.28
Neigh   | 29.449     | 29.449     | 29.449     |   0.0 | 47.92
Comm    | 0.57361    | 0.57361    | 0.57361    |   0.0 |  0.93
Output  | 0.065299   | 0.065299   | 0.065299   |   0.0 |  0.11
Modify  | 0.86833    | 0.86833    | 0.86833    |   0.0 |  1.41
Other   |            | 0.2165     |            |       |  0.35

Nlocal:    19652 ave 19652 max 19652 min
Histogram: 1 0 0 0 0 0 0 0 0 0
Nghost:    14358 ave 14358 max 14358 min
Histogram: 1 0 0 0 0 0 0 0 0 0
Neighs:    807040 ave 807040 max 807040 min
Histogram: 1 0 0 0 0 0 0 0 0 0

Total # of neighbors = 807040
Ave neighs/atom = 41.0666
Neighbor list builds = 495
Dangerous builds not checked
Setting up Verlet run ...
  Unit style    : metal
  Current step  : 93831
  Time step     : 0.001
Per MPI rank memory allocation (min/avg/max) = 18.23 | 18.23 | 18.23 Mbytes
Step Temp Press TotEng PotEng Enthalpy 
   93831    2000.8033   -532.97062    -17904.05   -22986.273   -18106.078 
  100003    1988.5816   -358.61847   -18121.233   -23172.411   -18256.229 
Loop time of 756.115 on 1 procs for 6172 steps with 19652 atoms

Performance: 0.705 ns/day, 34.030 hours/ns, 8.163 timesteps/s
93.7% CPU use with 1 MPI tasks x no OpenMP threads

MPI task timing breakdown:
Section |  min time  |  avg time  |  max time  |%varavg| %total
---------------------------------------------------------------
Pair    | 374.63     | 374.63     | 374.63     |   0.0 | 49.55
Neigh   | 361.41     | 361.41     | 361.41     |   0.0 | 47.80
Comm    | 6.9289     | 6.9289     | 6.9289     |   0.0 |  0.92
Output  | 0.00020385 | 0.00020385 | 0.00020385 |   0.0 |  0.00
Modify  | 10.604     | 10.604     | 10.604     |   0.0 |  1.40
Other   |            | 2.547      |            |       |  0.34

Nlocal:    19652 ave 19652 max 19652 min
Histogram: 1 0 0 0 0 0 0 0 0 0
Nghost:    14433 ave 14433 max 14433 min
Histogram: 1 0 0 0 0 0 0 0 0 0
Neighs:    812983 ave 812983 max 812983 min
Histogram: 1 0 0 0 0 0 0 0 0 0

Total # of neighbors = 812983
Ave neighs/atom = 41.369
Neighbor list builds = 6172
Dangerous builds not checked
Setting up Verlet run ...
  Unit style    : metal
  Current step  : 100003
  Time step     : 0.001
Per MPI rank memory allocation (min/avg/max) = 18.23 | 18.23 | 18.23 Mbytes
Step Temp Press TotEng PotEng Enthalpy 
  100003    1988.5816   -358.61847   -18121.233   -23172.411   -18256.229 
  100005    1988.9427   -371.09678   -18121.221   -23173.316   -18260.915 
  100498    1960.9385   -22.879592   -18235.063   -23216.026   -18243.633 
Loop time of 61.4372 on 1 procs for 495 steps with 19652 atoms

Performance: 0.696 ns/day, 34.477 hours/ns, 8.057 timesteps/s
92.2% CPU use with 1 MPI tasks x no OpenMP threads

MPI task timing breakdown:
Section |  min time  |  avg time  |  max time  |%varavg| %total
---------------------------------------------------------------
Pair    | 30.284     | 30.284     | 30.284     |   0.0 | 49.29
Neigh   | 29.392     | 29.392     | 29.392     |   0.0 | 47.84
Comm    | 0.55195    | 0.55195    | 0.55195    |   0.0 |  0.90
Output  | 0.1018     | 0.1018     | 0.1018     |   0.0 |  0.17
Modify  | 0.88214    | 0.88214    | 0.88214    |   0.0 |  1.44
Other   |            | 0.2251     |            |       |  0.37

Nlocal:    19652 ave 19652 max 19652 min
Histogram: 1 0 0 0 0 0 0 0 0 0
Nghost:    14415 ave 14415 max 14415 min
Histogram: 1 0 0 0 0 0 0 0 0 0
Neighs:    817111 ave 817111 max 817111 min
Histogram: 1 0 0 0 0 0 0 0 0 0

Total # of neighbors = 817111
Ave neighs/atom = 41.579
Neighbor list builds = 495
Dangerous builds not checked
Setting up Verlet run ...
  Unit style    : metal
  Current step  : 100498
  Time step     : 0.001
Per MPI rank memory allocation (min/avg/max) = 18.23 | 18.23 | 18.23 Mbytes
Step Temp Press TotEng PotEng Enthalpy 
  100498    1960.9385   -22.879592   -18235.063   -23216.026   -18243.633 
  106670    1947.3207   -542.56379   -18326.383   -23272.754   -18529.291 
Loop time of 686.645 on 1 procs for 6172 steps with 19652 atoms

Performance: 0.777 ns/day, 30.903 hours/ns, 8.989 timesteps/s
99.4% CPU use with 1 MPI tasks x no OpenMP threads

MPI task timing breakdown:
Section |  min time  |  avg time  |  max time  |%varavg| %total
---------------------------------------------------------------
Pair    | 339.2      | 339.2      | 339.2      |   0.0 | 49.40
Neigh   | 329.21     | 329.21     | 329.21     |   0.0 | 47.94
Comm    | 6.2804     | 6.2804     | 6.2804     |   0.0 |  0.91
Output  | 0.00015306 | 0.00015306 | 0.00015306 |   0.0 |  0.00
Modify  | 9.603      | 9.603      | 9.603      |   0.0 |  1.40
Other   |            | 2.353      |            |       |  0.34

Nlocal:    19652 ave 19652 max 19652 min
Histogram: 1 0 0 0 0 0 0 0 0 0
Nghost:    14458 ave 14458 max 14458 min
Histogram: 1 0 0 0 0 0 0 0 0 0
Neighs:    818809 ave 818809 max 818809 min
Histogram: 1 0 0 0 0 0 0 0 0 0

Total # of neighbors = 818809
Ave neighs/atom = 41.6654
Neighbor list builds = 6172
Dangerous builds not checked
Setting up Verlet run ...
  Unit style    : metal
  Current step  : 106670
  Time step     : 0.001
Per MPI rank memory allocation (min/avg/max) = 18.23 | 18.23 | 18.23 Mbytes
Step Temp Press TotEng PotEng Enthalpy 
  106670    1947.3207   -542.56379   -18326.383   -23272.754   -18529.291 
  106672    1946.9068   -518.30938   -18326.382   -23271.702   -18520.219 
  107165    1914.8193   -19.588122   -18568.865    -23432.68   -18576.123 
Loop time of 52.7046 on 1 procs for 495 steps with 19652 atoms

Performance: 0.811 ns/day, 29.576 hours/ns, 9.392 timesteps/s
99.9% CPU use with 1 MPI tasks x no OpenMP threads

MPI task timing breakdown:
Section |  min time  |  avg time  |  max time  |%varavg| %total
---------------------------------------------------------------
Pair    | 25.909     | 25.909     | 25.909     |   0.0 | 49.16
Neigh   | 25.308     | 25.308     | 25.308     |   0.0 | 48.02
Comm    | 0.47827    | 0.47827    | 0.47827    |   0.0 |  0.91
Output  | 0.064764   | 0.064764   | 0.064764   |   0.0 |  0.12
Modify  | 0.76061    | 0.76061    | 0.76061    |   0.0 |  1.44
Other   |            | 0.1836     |            |       |  0.35

Nlocal:    19652 ave 19652 max 19652 min
Histogram: 1 0 0 0 0 0 0 0 0 0
Nghost:    14413 ave 14413 max 14413 min
Histogram: 1 0 0 0 0 0 0 0 0 0
Neighs:    826216 ave 826216 max 826216 min
Histogram: 1 0 0 0 0 0 0 0 0 0

Total # of neighbors = 826216
Ave neighs/atom = 42.0423
Neighbor list builds = 495
Dangerous builds not checked
Setting up Verlet run ...
  Unit style    : metal
  Current step  : 107165
  Time step     : 0.001
Per MPI rank memory allocation (min/avg/max) = 18.23 | 18.23 | 18.23 Mbytes
Step Temp Press TotEng PotEng Enthalpy 
  107165    1914.8193   -19.588122   -18568.865    -23432.68   -18576.123 
  113337    1909.3471    1103.8022   -18605.626   -23455.542   -18198.596 
Loop time of 671.739 on 1 procs for 6172 steps with 19652 atoms

Performance: 0.794 ns/day, 30.232 hours/ns, 9.188 timesteps/s
99.9% CPU use with 1 MPI tasks x no OpenMP threads

MPI task timing breakdown:
Section |  min time  |  avg time  |  max time  |%varavg| %total
---------------------------------------------------------------
Pair    | 332.93     | 332.93     | 332.93     |   0.0 | 49.56
Neigh   | 321.18     | 321.18     | 321.18     |   0.0 | 47.81
Comm    | 6.1362     | 6.1362     | 6.1362     |   0.0 |  0.91
Output  | 0.00019312 | 0.00019312 | 0.00019312 |   0.0 |  0.00
Modify  | 9.2222     | 9.2222     | 9.2222     |   0.0 |  1.37
Other   |            | 2.265      |            |       |  0.34

Nlocal:    19652 ave 19652 max 19652 min
Histogram: 1 0 0 0 0 0 0 0 0 0
Nghost:    14546 ave 14546 max 14546 min
Histogram: 1 0 0 0 0 0 0 0 0 0
Neighs:    830791 ave 830791 max 830791 min
Histogram: 1 0 0 0 0 0 0 0 0 0

Total # of neighbors = 830791
Ave neighs/atom = 42.2751
Neighbor list builds = 6172
Dangerous builds not checked
Setting up Verlet run ...
  Unit style    : metal
  Current step  : 113337
  Time step     : 0.001
Per MPI rank memory allocation (min/avg/max) = 18.23 | 18.23 | 18.23 Mbytes
Step Temp Press TotEng PotEng Enthalpy 
  113337    1909.3471    1103.8022   -18605.626   -23455.542   -18198.596 
  113339    1909.4561    1099.3019   -18605.637    -23455.83   -18200.266 
  113832    1850.3197   -512.53253   -18793.799   -23493.779   -18983.466 
Loop time of 53.7892 on 1 procs for 495 steps with 19652 atoms

Performance: 0.795 ns/day, 30.185 hours/ns, 9.203 timesteps/s
99.9% CPU use with 1 MPI tasks x no OpenMP threads

MPI task timing breakdown:
Section |  min time  |  avg time  |  max time  |%varavg| %total
---------------------------------------------------------------
Pair    | 26.718     | 26.718     | 26.718     |   0.0 | 49.67
Neigh   | 25.572     | 25.572     | 25.572     |   0.0 | 47.54
Comm    | 0.49515    | 0.49515    | 0.49515    |   0.0 |  0.92
Output  | 0.064564   | 0.064564   | 0.064564   |   0.0 |  0.12
Modify  | 0.75531    | 0.75531    | 0.75531    |   0.0 |  1.40
Other   |            | 0.1841     |            |       |  0.34

Nlocal:    19652 ave 19652 max 19652 min
Histogram: 1 0 0 0 0 0 0 0 0 0
Nghost:    14564 ave 14564 max 14564 min
Histogram: 1 0 0 0 0 0 0 0 0 0
Neighs:    826915 ave 826915 max 826915 min
Histogram: 1 0 0 0 0 0 0 0 0 0

Total # of neighbors = 826915
Ave neighs/atom = 42.0779
Neighbor list builds = 495
Dangerous builds not checked
Setting up Verlet run ...
  Unit style    : metal
  Current step  : 113832
  Time step     : 0.001
Per MPI rank memory allocation (min/avg/max) = 18.23 | 18.23 | 18.23 Mbytes
Step Temp Press TotEng PotEng Enthalpy 
  113832    1850.3197   -512.53253   -18793.799   -23493.779   -18983.466 
  120004    1836.3732   -249.09739   -18971.764    -23636.32   -19063.232 
Loop time of 686.761 on 1 procs for 6172 steps with 19652 atoms

Performance: 0.776 ns/day, 30.908 hours/ns, 8.987 timesteps/s
99.9% CPU use with 1 MPI tasks x no OpenMP threads

MPI task timing breakdown:
Section |  min time  |  avg time  |  max time  |%varavg| %total
---------------------------------------------------------------
Pair    | 342.76     | 342.76     | 342.76     |   0.0 | 49.91
Neigh   | 326.19     | 326.19     | 326.19     |   0.0 | 47.50
Comm    | 6.2221     | 6.2221     | 6.2221     |   0.0 |  0.91
Output  | 0.00028706 | 0.00028706 | 0.00028706 |   0.0 |  0.00
Modify  | 9.3087     | 9.3087     | 9.3087     |   0.0 |  1.36
Other   |            | 2.281      |            |       |  0.33

Nlocal:    19652 ave 19652 max 19652 min
Histogram: 1 0 0 0 0 0 0 0 0 0
Nghost:    14512 ave 14512 max 14512 min
Histogram: 1 0 0 0 0 0 0 0 0 0
Neighs:    834061 ave 834061 max 834061 min
Histogram: 1 0 0 0 0 0 0 0 0 0

Total # of neighbors = 834061
Ave neighs/atom = 42.4415
Neighbor list builds = 6172
Dangerous builds not checked
Setting up Verlet run ...
  Unit style    : metal
  Current step  : 120004
  Time step     : 0.001
Per MPI rank memory allocation (min/avg/max) = 18.23 | 18.23 | 18.23 Mbytes
Step Temp Press TotEng PotEng Enthalpy 
  120004    1836.3732   -249.09739   -18971.764    -23636.32   -19063.232 
  120006     1835.841   -235.62996   -18971.748   -23634.952    -19058.27 
  120499    1797.6681   -22.478886   -19112.928   -23679.169   -19121.163 
Loop time of 56.3052 on 1 procs for 495 steps with 19652 atoms

Performance: 0.760 ns/day, 31.597 hours/ns, 8.791 timesteps/s
99.8% CPU use with 1 MPI tasks x no OpenMP threads

MPI task timing breakdown:
Section |  min time  |  avg time  |  max time  |%varavg| %total
---------------------------------------------------------------
Pair    | 27.961     | 27.961     | 27.961     |   0.0 | 49.66
Neigh   | 26.795     | 26.795     | 26.795     |   0.0 | 47.59
Comm    | 0.50394    | 0.50394    | 0.50394    |   0.0 |  0.90
Output  | 0.061066   | 0.061066   | 0.061066   |   0.0 |  0.11
Modify  | 0.79334    | 0.79334    | 0.79334    |   0.0 |  1.41
Other   |            | 0.1908     |            |       |  0.34

Nlocal:    19652 ave 19652 max 19652 min
Histogram: 1 0 0 0 0 0 0 0 0 0
Nghost:    14588 ave 14588 max 14588 min
Histogram: 1 0 0 0 0 0 0 0 0 0
Neighs:    835672 ave 835672 max 835672 min
Histogram: 1 0 0 0 0 0 0 0 0 0

Total # of neighbors = 835672
Ave neighs/atom = 42.5235
Neighbor list builds = 495
Dangerous builds not checked
Setting up Verlet run ...
  Unit style    : metal
  Current step  : 120499
  Time step     : 0.001
Per MPI rank memory allocation (min/avg/max) = 18.23 | 18.23 | 18.23 Mbytes
Step Temp Press TotEng PotEng Enthalpy 
  120499    1797.6681   -22.478886   -19112.928   -23679.169   -19121.163 
  126671    1812.0497     112.4267   -19222.319    -23825.09   -19181.444 
Loop time of 672.479 on 1 procs for 6172 steps with 19652 atoms

Performance: 0.793 ns/day, 30.266 hours/ns, 9.178 timesteps/s
99.9% CPU use with 1 MPI tasks x no OpenMP threads

MPI task timing breakdown:
Section |  min time  |  avg time  |  max time  |%varavg| %total
---------------------------------------------------------------
Pair    | 332.69     | 332.69     | 332.69     |   0.0 | 49.47
Neigh   | 322.19     | 322.19     | 322.19     |   0.0 | 47.91
Comm    | 6.052      | 6.052      | 6.052      |   0.0 |  0.90
Output  | 0.00019383 | 0.00019383 | 0.00019383 |   0.0 |  0.00
Modify  | 9.295      | 9.295      | 9.295      |   0.0 |  1.38
Other   |            | 2.256      |            |       |  0.34

Nlocal:    19652 ave 19652 max 19652 min
Histogram: 1 0 0 0 0 0 0 0 0 0
Nghost:    14606 ave 14606 max 14606 min
Histogram: 1 0 0 0 0 0 0 0 0 0
Neighs:    841879 ave 841879 max 841879 min
Histogram: 1 0 0 0 0 0 0 0 0 0

Total # of neighbors = 841879
Ave neighs/atom = 42.8394
Neighbor list builds = 6172
Dangerous builds not checked
Setting up Verlet run ...
  Unit style    : metal
  Current step  : 126671
  Time step     : 0.001
Per MPI rank memory allocation (min/avg/max) = 18.23 | 18.23 | 18.23 Mbytes
Step Temp Press TotEng PotEng Enthalpy 
  126671    1812.0497     112.4267   -19222.319    -23825.09   -19181.444 
  126673     1810.965    131.50034   -19222.328   -23822.344   -19174.519 
  127166    1764.1974   -351.03778   -19412.873   -23894.095   -19540.359 
Loop time of 55.3015 on 1 procs for 495 steps with 19652 atoms

Performance: 0.773 ns/day, 31.033 hours/ns, 8.951 timesteps/s
99.9% CPU use with 1 MPI tasks x no OpenMP threads

MPI task timing breakdown:
Section |  min time  |  avg time  |  max time  |%varavg| %total
---------------------------------------------------------------
Pair    | 27.514     | 27.514     | 27.514     |   0.0 | 49.75
Neigh   | 26.25      | 26.25      | 26.25      |   0.0 | 47.47
Comm    | 0.49415    | 0.49415    | 0.49415    |   0.0 |  0.89
Output  | 0.061307   | 0.061307   | 0.061307   |   0.0 |  0.11
Modify  | 0.79208    | 0.79208    | 0.79208    |   0.0 |  1.43
Other   |            | 0.1903     |            |       |  0.34

Nlocal:    19652 ave 19652 max 19652 min
Histogram: 1 0 0 0 0 0 0 0 0 0
Nghost:    14511 ave 14511 max 14511 min
Histogram: 1 0 0 0 0 0 0 0 0 0
Neighs:    842999 ave 842999 max 842999 min
Histogram: 1 0 0 0 0 0 0 0 0 0

Total # of neighbors = 842999
Ave neighs/atom = 42.8963
Neighbor list builds = 495
Dangerous builds not checked
Setting up Verlet run ...
  Unit style    : metal
  Current step  : 127166
  Time step     : 0.001
Per MPI rank memory allocation (min/avg/max) = 18.23 | 18.23 | 18.23 Mbytes
Step Temp Press TotEng PotEng Enthalpy 
  127166    1764.1974   -351.03778   -19412.873   -23894.095   -19540.359 
  133338    1767.2213    -411.6701   -19488.712   -23977.615    -19637.74 
Loop time of 673.443 on 1 procs for 6172 steps with 19652 atoms

Performance: 0.792 ns/day, 30.309 hours/ns, 9.165 timesteps/s
99.9% CPU use with 1 MPI tasks x no OpenMP threads

MPI task timing breakdown:
Section |  min time  |  avg time  |  max time  |%varavg| %total
---------------------------------------------------------------
Pair    | 335        | 335        | 335        |   0.0 | 49.74
Neigh   | 320.91     | 320.91     | 320.91     |   0.0 | 47.65
Comm    | 6.0365     | 6.0365     | 6.0365     |   0.0 |  0.90
Output  | 0.00021601 | 0.00021601 | 0.00021601 |   0.0 |  0.00
Modify  | 9.2483     | 9.2483     | 9.2483     |   0.0 |  1.37
Other   |            | 2.246      |            |       |  0.33

Nlocal:    19652 ave 19652 max 19652 min
Histogram: 1 0 0 0 0 0 0 0 0 0
Nghost:    14623 ave 14623 max 14623 min
Histogram: 1 0 0 0 0 0 0 0 0 0
Neighs:    845676 ave 845676 max 845676 min
Histogram: 1 0 0 0 0 0 0 0 0 0

Total # of neighbors = 845676
Ave neighs/atom = 43.0326
Neighbor list builds = 6172
Dangerous builds not checked
Setting up Verlet run ...
  Unit style    : metal
  Current step  : 133338
  Time step     : 0.001
Per MPI rank memory allocation (min/avg/max) = 18.23 | 18.23 | 18.23 Mbytes
Step Temp Press TotEng PotEng Enthalpy 
  133338    1767.2213    -411.6701   -19488.712   -23977.615    -19637.74 
  133340    1767.9458   -420.51313    -19488.73   -23979.473   -19640.959 
  133833    1707.1779    73.047739   -19726.003   -24062.391   -19699.734 
Loop time of 54.8355 on 1 procs for 495 steps with 19652 atoms

Performance: 0.780 ns/day, 30.772 hours/ns, 9.027 timesteps/s
99.9% CPU use with 1 MPI tasks x no OpenMP threads

MPI task timing breakdown:
Section |  min time  |  avg time  |  max time  |%varavg| %total
---------------------------------------------------------------
Pair    | 27.338     | 27.338     | 27.338     |   0.0 | 49.85
Neigh   | 26.02      | 26.02      | 26.02      |   0.0 | 47.45
Comm    | 0.48627    | 0.48627    | 0.48627    |   0.0 |  0.89
Output  | 0.040729   | 0.040729   | 0.040729   |   0.0 |  0.07
Modify  | 0.76644    | 0.76644    | 0.76644    |   0.0 |  1.40
Other   |            | 0.1847     |            |       |  0.34

Nlocal:    19652 ave 19652 max 19652 min
Histogram: 1 0 0 0 0 0 0 0 0 0
Nghost:    14671 ave 14671 max 14671 min
Histogram: 1 0 0 0 0 0 0 0 0 0
Neighs:    851455 ave 851455 max 851455 min
Histogram: 1 0 0 0 0 0 0 0 0 0

Total # of neighbors = 851455
Ave neighs/atom = 43.3266
Neighbor list builds = 495
Dangerous builds not checked
Setting up Verlet run ...
  Unit style    : metal
  Current step  : 133833
  Time step     : 0.001
Per MPI rank memory allocation (min/avg/max) = 18.23 | 18.23 | 18.23 Mbytes
Step Temp Press TotEng PotEng Enthalpy 
  133833    1707.1779    73.047739   -19726.003   -24062.391   -19699.734 
  140005     1697.992    -743.6816   -19767.181   -24080.235   -20035.519 
Loop time of 675.204 on 1 procs for 6172 steps with 19652 atoms

Performance: 0.790 ns/day, 30.388 hours/ns, 9.141 timesteps/s
99.9% CPU use with 1 MPI tasks x no OpenMP threads

MPI task timing breakdown:
Section |  min time  |  avg time  |  max time  |%varavg| %total
---------------------------------------------------------------
Pair    | 336.63     | 336.63     | 336.63     |   0.0 | 49.86
Neigh   | 321.1      | 321.1      | 321.1      |   0.0 | 47.56
Comm    | 6.0137     | 6.0137     | 6.0137     |   0.0 |  0.89
Output  | 0.00023699 | 0.00023699 | 0.00023699 |   0.0 |  0.00
Modify  | 9.2258     | 9.2258     | 9.2258     |   0.0 |  1.37
Other   |            | 2.239      |            |       |  0.33

Nlocal:    19652 ave 19652 max 19652 min
Histogram: 1 0 0 0 0 0 0 0 0 0
Nghost:    14646 ave 14646 max 14646 min
Histogram: 1 0 0 0 0 0 0 0 0 0
Neighs:    848932 ave 848932 max 848932 min
Histogram: 1 0 0 0 0 0 0 0 0 0

Total # of neighbors = 848932
Ave neighs/atom = 43.1982
Neighbor list builds = 6172
Dangerous builds not checked
Setting up Verlet run ...
  Unit style    : metal
  Current step  : 140005
  Time step     : 0.001
Per MPI rank memory allocation (min/avg/max) = 18.23 | 18.23 | 18.23 Mbytes
Step Temp Press TotEng PotEng Enthalpy 
  140005     1697.992    -743.6816   -19767.181   -24080.235   -20035.519 
  140007    1699.2532   -762.75904   -19767.181    -24083.44   -20042.403 
  140500    1658.3408    226.34032   -20007.269   -24219.606   -19926.458 
Loop time of 54.6814 on 1 procs for 495 steps with 19652 atoms

Performance: 0.782 ns/day, 30.685 hours/ns, 9.052 timesteps/s
99.9% CPU use with 1 MPI tasks x no OpenMP threads

MPI task timing breakdown:
Section |  min time  |  avg time  |  max time  |%varavg| %total
---------------------------------------------------------------
Pair    | 27.276     | 27.276     | 27.276     |   0.0 | 49.88
Neigh   | 25.906     | 25.906     | 25.906     |   0.0 | 47.38
Comm    | 0.4852     | 0.4852     | 0.4852     |   0.0 |  0.89
Output  | 0.065385   | 0.065385   | 0.065385   |   0.0 |  0.12
Modify  | 0.76496    | 0.76496    | 0.76496    |   0.0 |  1.40
Other   |            | 0.1841     |            |       |  0.34

Nlocal:    19652 ave 19652 max 19652 min
Histogram: 1 0 0 0 0 0 0 0 0 0
Nghost:    14665 ave 14665 max 14665 min
Histogram: 1 0 0 0 0 0 0 0 0 0
Neighs:    857769 ave 857769 max 857769 min
Histogram: 1 0 0 0 0 0 0 0 0 0

Total # of neighbors = 857769
Ave neighs/atom = 43.6479
Neighbor list builds = 495
Dangerous builds not checked
Setting up Verlet run ...
  Unit style    : metal
  Current step  : 140500
  Time step     : 0.001
Per MPI rank memory allocation (min/avg/max) = 18.23 | 18.23 | 18.23 Mbytes
Step Temp Press TotEng PotEng Enthalpy 
  140500    1658.3408    226.34032   -20007.269   -24219.606   -19926.458 
  146672    1647.4108    99.608942   -20059.562   -24244.135    -20024.02 
Loop time of 677.728 on 1 procs for 6172 steps with 19652 atoms

Performance: 0.787 ns/day, 30.502 hours/ns, 9.107 timesteps/s
99.8% CPU use with 1 MPI tasks x no OpenMP threads

MPI task timing breakdown:
Section |  min time  |  avg time  |  max time  |%varavg| %total
---------------------------------------------------------------
Pair    | 339.03     | 339.03     | 339.03     |   0.0 | 50.02
Neigh   | 321.15     | 321.15     | 321.15     |   0.0 | 47.39
Comm    | 6.0404     | 6.0404     | 6.0404     |   0.0 |  0.89
Output  | 0.00020289 | 0.00020289 | 0.00020289 |   0.0 |  0.00
Modify  | 9.2503     | 9.2503     | 9.2503     |   0.0 |  1.36
Other   |            | 2.255      |            |       |  0.33

Nlocal:    19652 ave 19652 max 19652 min
Histogram: 1 0 0 0 0 0 0 0 0 0
Nghost:    14763 ave 14763 max 14763 min
Histogram: 1 0 0 0 0 0 0 0 0 0
Neighs:    858844 ave 858844 max 858844 min
Histogram: 1 0 0 0 0 0 0 0 0 0

Total # of neighbors = 858844
Ave neighs/atom = 43.7026
Neighbor list builds = 6172
Dangerous builds not checked
Setting up Verlet run ...
  Unit style    : metal
  Current step  : 146672
  Time step     : 0.001
Per MPI rank memory allocation (min/avg/max) = 18.23 | 18.23 | 18.23 Mbytes
Step Temp Press TotEng PotEng Enthalpy 
  146672    1647.4108    99.608942   -20059.562   -24244.135    -20024.02 
  146674     1648.088     92.20334    -20059.56   -24245.854    -20026.66 
  147167    1633.3279   -166.19815   -20271.295   -24420.097   -20330.264 
Loop time of 54.3666 on 1 procs for 495 steps with 19652 atoms

Performance: 0.787 ns/day, 30.509 hours/ns, 9.105 timesteps/s
99.9% CPU use with 1 MPI tasks x no OpenMP threads

MPI task timing breakdown:
Section |  min time  |  avg time  |  max time  |%varavg| %total
---------------------------------------------------------------
Pair    | 27.185     | 27.185     | 27.185     |   0.0 | 50.00
Neigh   | 25.684     | 25.684     | 25.684     |   0.0 | 47.24
Comm    | 0.4842     | 0.4842     | 0.4842     |   0.0 |  0.89
Output  | 0.064994   | 0.064994   | 0.064994   |   0.0 |  0.12
Modify  | 0.7631     | 0.7631     | 0.7631     |   0.0 |  1.40
Other   |            | 0.1854     |            |       |  0.34

Nlocal:    19652 ave 19652 max 19652 min
Histogram: 1 0 0 0 0 0 0 0 0 0
Nghost:    14785 ave 14785 max 14785 min
Histogram: 1 0 0 0 0 0 0 0 0 0
Neighs:    863457 ave 863457 max 863457 min
Histogram: 1 0 0 0 0 0 0 0 0 0

Total # of neighbors = 863457
Ave neighs/atom = 43.9374
Neighbor list builds = 495
Dangerous builds not checked
Setting up Verlet run ...
  Unit style    : metal
  Current step  : 147167
  Time step     : 0.001
Per MPI rank memory allocation (min/avg/max) = 18.23 | 18.23 | 18.23 Mbytes
Step Temp Press TotEng PotEng Enthalpy 
  147167    1633.3279   -166.19815   -20271.295   -24420.097   -20330.264 
  153339    1596.1012   -388.10454   -20388.298   -24442.541   -20525.954 
Loop time of 689.763 on 1 procs for 6172 steps with 19652 atoms

Performance: 0.773 ns/day, 31.044 hours/ns, 8.948 timesteps/s
99.9% CPU use with 1 MPI tasks x no OpenMP threads

MPI task timing breakdown:
Section |  min time  |  avg time  |  max time  |%varavg| %total
---------------------------------------------------------------
Pair    | 347.14     | 347.14     | 347.14     |   0.0 | 50.33
Neigh   | 324.84     | 324.84     | 324.84     |   0.0 | 47.09
Comm    | 6.1309     | 6.1309     | 6.1309     |   0.0 |  0.89
Output  | 0.00016308 | 0.00016308 | 0.00016308 |   0.0 |  0.00
Modify  | 9.377      | 9.377      | 9.377      |   0.0 |  1.36
Other   |            | 2.28       |            |       |  0.33

Nlocal:    19652 ave 19652 max 19652 min
Histogram: 1 0 0 0 0 0 0 0 0 0
Nghost:    14790 ave 14790 max 14790 min
Histogram: 1 0 0 0 0 0 0 0 0 0
Neighs:    863498 ave 863498 max 863498 min
Histogram: 1 0 0 0 0 0 0 0 0 0

Total # of neighbors = 863498
Ave neighs/atom = 43.9394
Neighbor list builds = 6172
Dangerous builds not checked
Setting up Verlet run ...
  Unit style    : metal
  Current step  : 153339
  Time step     : 0.001
Per MPI rank memory allocation (min/avg/max) = 18.23 | 18.23 | 18.23 Mbytes
Step Temp Press TotEng PotEng Enthalpy 
  153339    1596.1012   -388.10454   -20388.298   -24442.541   -20525.954 
  153341    1595.7715   -387.27248   -20388.294   -24441.699   -20525.654 
  153834      1564.57    2.5603002   -20585.136   -24559.286   -20584.234 
Loop time of 54.6074 on 1 procs for 495 steps with 19652 atoms

Performance: 0.783 ns/day, 30.644 hours/ns, 9.065 timesteps/s
99.9% CPU use with 1 MPI tasks x no OpenMP threads

MPI task timing breakdown:
Section |  min time  |  avg time  |  max time  |%varavg| %total
---------------------------------------------------------------
Pair    | 27.378     | 27.378     | 27.378     |   0.0 | 50.14
Neigh   | 25.731     | 25.731     | 25.731     |   0.0 | 47.12
Comm    | 0.48667    | 0.48667    | 0.48667    |   0.0 |  0.89
Output  | 0.06611    | 0.06611    | 0.06611    |   0.0 |  0.12
Modify  | 0.76078    | 0.76078    | 0.76078    |   0.0 |  1.39
Other   |            | 0.1851     |            |       |  0.34

Nlocal:    19652 ave 19652 max 19652 min
Histogram: 1 0 0 0 0 0 0 0 0 0
Nghost:    14809 ave 14809 max 14809 min
Histogram: 1 0 0 0 0 0 0 0 0 0
Neighs:    869719 ave 869719 max 869719 min
Histogram: 1 0 0 0 0 0 0 0 0 0

Total # of neighbors = 869719
Ave neighs/atom = 44.256
Neighbor list builds = 495
Dangerous builds not checked
Setting up Verlet run ...
  Unit style    : metal
  Current step  : 153834
  Time step     : 0.001
Per MPI rank memory allocation (min/avg/max) = 18.23 | 18.23 | 18.23 Mbytes
Step Temp Press TotEng PotEng Enthalpy 
  153834      1564.57    2.5603002   -20585.136   -24559.286   -20584.234 
  160006    1547.3594    245.36039    -20711.04   -24641.474   -20624.977 
Loop time of 702.86 on 1 procs for 6172 steps with 19652 atoms

Performance: 0.759 ns/day, 31.633 hours/ns, 8.781 timesteps/s
99.9% CPU use with 1 MPI tasks x no OpenMP threads

MPI task timing breakdown:
Section |  min time  |  avg time  |  max time  |%varavg| %total
---------------------------------------------------------------
Pair    | 354.97     | 354.97     | 354.97     |   0.0 | 50.50
Neigh   | 329.75     | 329.75     | 329.75     |   0.0 | 46.92
Comm    | 6.2536     | 6.2536     | 6.2536     |   0.0 |  0.89
Output  | 0.00020599 | 0.00020599 | 0.00020599 |   0.0 |  0.00
Modify  | 9.5671     | 9.5671     | 9.5671     |   0.0 |  1.36
Other   |            | 2.324      |            |       |  0.33

Nlocal:    19652 ave 19652 max 19652 min
Histogram: 1 0 0 0 0 0 0 0 0 0
Nghost:    14844 ave 14844 max 14844 min
Histogram: 1 0 0 0 0 0 0 0 0 0
Neighs:    873771 ave 873771 max 873771 min
Histogram: 1 0 0 0 0 0 0 0 0 0

Total # of neighbors = 873771
Ave neighs/atom = 44.4622
Neighbor list builds = 6172
Dangerous builds not checked
Setting up Verlet run ...
  Unit style    : metal
  Current step  : 160006
  Time step     : 0.001
Per MPI rank memory allocation (min/avg/max) = 18.23 | 18.23 | 18.23 Mbytes
Step Temp Press TotEng PotEng Enthalpy 
  160006    1547.3594    245.36039    -20711.04   -24641.474   -20624.977 
  160008    1547.9363     225.2747   -20711.039   -24642.939   -20632.021 
  160501    1503.5808    120.21902   -20859.608    -24678.84   -20817.521 
Loop time of 55.0689 on 1 procs for 495 steps with 19652 atoms

Performance: 0.777 ns/day, 30.903 hours/ns, 8.989 timesteps/s
99.9% CPU use with 1 MPI tasks x no OpenMP threads

MPI task timing breakdown:
Section |  min time  |  avg time  |  max time  |%varavg| %total
---------------------------------------------------------------
Pair    | 27.836     | 27.836     | 27.836     |   0.0 | 50.55
Neigh   | 25.738     | 25.738     | 25.738     |   0.0 | 46.74
Comm    | 0.48661    | 0.48661    | 0.48661    |   0.0 |  0.88
Output  | 0.064839   | 0.064839   | 0.064839   |   0.0 |  0.12
Modify  | 0.75921    | 0.75921    | 0.75921    |   0.0 |  1.38
Other   |            | 0.1841     |            |       |  0.33

Nlocal:    19652 ave 19652 max 19652 min
Histogram: 1 0 0 0 0 0 0 0 0 0
Nghost:    14871 ave 14871 max 14871 min
Histogram: 1 0 0 0 0 0 0 0 0 0
Neighs:    874785 ave 874785 max 874785 min
Histogram: 1 0 0 0 0 0 0 0 0 0

Total # of neighbors = 874785
Ave neighs/atom = 44.5138
Neighbor list builds = 495
Dangerous builds not checked
Setting up Verlet run ...
  Unit style    : metal
  Current step  : 160501
  Time step     : 0.001
Per MPI rank memory allocation (min/avg/max) = 18.23 | 18.23 | 18.23 Mbytes
Step Temp Press TotEng PotEng Enthalpy 
  160501    1503.5808    120.21902   -20859.608    -24678.84   -20817.521 
  166673    1493.7031    79.449237   -20959.902   -24754.043   -20932.157 
Loop time of 710.729 on 1 procs for 6172 steps with 19652 atoms

Performance: 0.750 ns/day, 31.987 hours/ns, 8.684 timesteps/s
99.9% CPU use with 1 MPI tasks x no OpenMP threads

MPI task timing breakdown:
Section |  min time  |  avg time  |  max time  |%varavg| %total
---------------------------------------------------------------
Pair    | 361.09     | 361.09     | 361.09     |   0.0 | 50.81
Neigh   | 331.31     | 331.31     | 331.31     |   0.0 | 46.62
Comm    | 6.3043     | 6.3043     | 6.3043     |   0.0 |  0.89
Output  | 0.00021815 | 0.00021815 | 0.00021815 |   0.0 |  0.00
Modify  | 9.6722     | 9.6722     | 9.6722     |   0.0 |  1.36
Other   |            | 2.349      |            |       |  0.33

Nlocal:    19652 ave 19652 max 19652 min
Histogram: 1 0 0 0 0 0 0 0 0 0
Nghost:    14828 ave 14828 max 14828 min
Histogram: 1 0 0 0 0 0 0 0 0 0
Neighs:    877847 ave 877847 max 877847 min
Histogram: 1 0 0 0 0 0 0 0 0 0

Total # of neighbors = 877847
Ave neighs/atom = 44.6696
Neighbor list builds = 6172
Dangerous builds not checked
Setting up Verlet run ...
  Unit style    : metal
  Current step  : 166673
  Time step     : 0.001
Per MPI rank memory allocation (min/avg/max) = 18.23 | 18.23 | 18.23 Mbytes
Step Temp Press TotEng PotEng Enthalpy 
  166673    1493.7031    79.449237   -20959.902   -24754.043   -20932.157 
  166675    1493.4296    86.678397   -20959.896   -24753.343   -20929.627 
  167168    1475.2266   -65.150339   -21131.929   -24879.139   -21154.585 
Loop time of 54.8687 on 1 procs for 495 steps with 19652 atoms

Performance: 0.779 ns/day, 30.791 hours/ns, 9.022 timesteps/s
99.9% CPU use with 1 MPI tasks x no OpenMP threads

MPI task timing breakdown:
Section |  min time  |  avg time  |  max time  |%varavg| %total
---------------------------------------------------------------
Pair    | 27.779     | 27.779     | 27.779     |   0.0 | 50.63
Neigh   | 25.589     | 25.589     | 25.589     |   0.0 | 46.64
Comm    | 0.48452    | 0.48452    | 0.48452    |   0.0 |  0.88
Output  | 0.065236   | 0.065236   | 0.065236   |   0.0 |  0.12
Modify  | 0.76554    | 0.76554    | 0.76554    |   0.0 |  1.40
Other   |            | 0.1852     |            |       |  0.34

Nlocal:    19652 ave 19652 max 19652 min
Histogram: 1 0 0 0 0 0 0 0 0 0
Nghost:    14875 ave 14875 max 14875 min
Histogram: 1 0 0 0 0 0 0 0 0 0
Neighs:    881317 ave 881317 max 881317 min
Histogram: 1 0 0 0 0 0 0 0 0 0

Total # of neighbors = 881317
Ave neighs/atom = 44.8462
Neighbor list builds = 495
Dangerous builds not checked
Setting up Verlet run ...
  Unit style    : metal
  Current step  : 167168
  Time step     : 0.001
Per MPI rank memory allocation (min/avg/max) = 18.23 | 18.23 | 18.23 Mbytes
Step Temp Press TotEng PotEng Enthalpy 
  167168    1475.2266   -65.150339   -21131.929   -24879.139   -21154.585 
  173340    1457.4697      272.958   -21235.376   -24937.481   -21140.829 
Loop time of 695.377 on 1 procs for 6172 steps with 19652 atoms

Performance: 0.767 ns/day, 31.296 hours/ns, 8.876 timesteps/s
99.8% CPU use with 1 MPI tasks x no OpenMP threads

MPI task timing breakdown:
Section |  min time  |  avg time  |  max time  |%varavg| %total
---------------------------------------------------------------
Pair    | 353.77     | 353.77     | 353.77     |   0.0 | 50.88
Neigh   | 323.85     | 323.85     | 323.85     |   0.0 | 46.57
Comm    | 6.1299     | 6.1299     | 6.1299     |   0.0 |  0.88
Output  | 0.00018382 | 0.00018382 | 0.00018382 |   0.0 |  0.00
Modify  | 9.3399     | 9.3399     | 9.3399     |   0.0 |  1.34
Other   |            | 2.281      |            |       |  0.33

Nlocal:    19652 ave 19652 max 19652 min
Histogram: 1 0 0 0 0 0 0 0 0 0
Nghost:    14978 ave 14978 max 14978 min
Histogram: 1 0 0 0 0 0 0 0 0 0
Neighs:    884671 ave 884671 max 884671 min
Histogram: 1 0 0 0 0 0 0 0 0 0

Total # of neighbors = 884671
Ave neighs/atom = 45.0168
Neighbor list builds = 6172
Dangerous builds not checked
Setting up Verlet run ...
  Unit style    : metal
  Current step  : 173340
  Time step     : 0.001
Per MPI rank memory allocation (min/avg/max) = 18.23 | 18.23 | 18.23 Mbytes
Step Temp Press TotEng PotEng Enthalpy 
  173340    1457.4697      272.958   -21235.376   -24937.481   -21140.829 
  173342    1458.5125    266.31319   -21235.386    -24940.14   -21143.141 
  173835    1420.9551   -234.31437   -21404.204   -25013.559   -21485.317 
Loop time of 52.6858 on 1 procs for 495 steps with 19652 atoms

Performance: 0.812 ns/day, 29.566 hours/ns, 9.395 timesteps/s
99.9% CPU use with 1 MPI tasks x no OpenMP threads

MPI task timing breakdown:
Section |  min time  |  avg time  |  max time  |%varavg| %total
---------------------------------------------------------------
Pair    | 26.574     | 26.574     | 26.574     |   0.0 | 50.44
Neigh   | 24.711     | 24.711     | 24.711     |   0.0 | 46.90
Comm    | 0.46041    | 0.46041    | 0.46041    |   0.0 |  0.87
Output  | 0.054057   | 0.054057   | 0.054057   |   0.0 |  0.10
Modify  | 0.71223    | 0.71223    | 0.71223    |   0.0 |  1.35
Other   |            | 0.1742     |            |       |  0.33

Nlocal:    19652 ave 19652 max 19652 min
Histogram: 1 0 0 0 0 0 0 0 0 0
Nghost:    14867 ave 14867 max 14867 min
Histogram: 1 0 0 0 0 0 0 0 0 0
Neighs:    886008 ave 886008 max 886008 min
Histogram: 1 0 0 0 0 0 0 0 0 0

Total # of neighbors = 886008
Ave neighs/atom = 45.0849
Neighbor list builds = 495
Dangerous builds not checked
Setting up Verlet run ...
  Unit style    : metal
  Current step  : 173835
  Time step     : 0.001
Per MPI rank memory allocation (min/avg/max) = 18.23 | 18.23 | 18.23 Mbytes
Step Temp Press TotEng PotEng Enthalpy 
  173835    1420.9551   -234.31437   -21404.204   -25013.559   -21485.317 
  180007    1407.4908     352.1899   -21523.302   -25098.457   -21402.086 
Loop time of 710.348 on 1 procs for 6172 steps with 19652 atoms

Performance: 0.751 ns/day, 31.970 hours/ns, 8.689 timesteps/s
99.6% CPU use with 1 MPI tasks x no OpenMP threads

MPI task timing breakdown:
Section |  min time  |  avg time  |  max time  |%varavg| %total
---------------------------------------------------------------
Pair    | 364.68     | 364.68     | 364.68     |   0.0 | 51.34
Neigh   | 327.64     | 327.64     | 327.64     |   0.0 | 46.12
Comm    | 6.2721     | 6.2721     | 6.2721     |   0.0 |  0.88
Output  | 0.0002048  | 0.0002048  | 0.0002048  |   0.0 |  0.00
Modify  | 9.4336     | 9.4336     | 9.4336     |   0.0 |  1.33
Other   |            | 2.318      |            |       |  0.33

Nlocal:    19652 ave 19652 max 19652 min
Histogram: 1 0 0 0 0 0 0 0 0 0
Nghost:    14960 ave 14960 max 14960 min
Histogram: 1 0 0 0 0 0 0 0 0 0
Neighs:    890749 ave 890749 max 890749 min
Histogram: 1 0 0 0 0 0 0 0 0 0

Total # of neighbors = 890749
Ave neighs/atom = 45.3261
Neighbor list builds = 6172
Dangerous builds not checked
Setting up Verlet run ...
  Unit style    : metal
  Current step  : 180007
  Time step     : 0.001
Per MPI rank memory allocation (min/avg/max) = 18.23 | 18.23 | 18.23 Mbytes
Step Temp Press TotEng PotEng Enthalpy 
  180007    1407.4908     352.1899   -21523.302   -25098.457   -21402.086 
  180009    1406.4969    370.29685   -21523.306   -25095.937   -21395.858 
  180502    1366.5862    307.96048   -21715.918   -25187.172    -21610.32 
Loop time of 57.0016 on 1 procs for 495 steps with 19652 atoms

Performance: 0.750 ns/day, 31.987 hours/ns, 8.684 timesteps/s
99.9% CPU use with 1 MPI tasks x no OpenMP threads

MPI task timing breakdown:
Section |  min time  |  avg time  |  max time  |%varavg| %total
---------------------------------------------------------------
Pair    | 29.349     | 29.349     | 29.349     |   0.0 | 51.49
Neigh   | 26.125     | 26.125     | 26.125     |   0.0 | 45.83
Comm    | 0.50414    | 0.50414    | 0.50414    |   0.0 |  0.88
Output  | 0.065582   | 0.065582   | 0.065582   |   0.0 |  0.12
Modify  | 0.7698     | 0.7698     | 0.7698     |   0.0 |  1.35
Other   |            | 0.1884     |            |       |  0.33

Nlocal:    19652 ave 19652 max 19652 min
Histogram: 1 0 0 0 0 0 0 0 0 0
Nghost:    14976 ave 14976 max 14976 min
Histogram: 1 0 0 0 0 0 0 0 0 0
Neighs:    894879 ave 894879 max 894879 min
Histogram: 1 0 0 0 0 0 0 0 0 0

Total # of neighbors = 894879
Ave neighs/atom = 45.5363
Neighbor list builds = 495
Dangerous builds not checked
Setting up Verlet run ...
  Unit style    : metal
  Current step  : 180502
  Time step     : 0.001
Per MPI rank memory allocation (min/avg/max) = 18.23 | 18.23 | 18.23 Mbytes
Step Temp Press TotEng PotEng Enthalpy 
  180502    1366.5862    307.96048   -21715.918   -25187.172    -21610.32 
  186674    1342.8298    288.08508   -21824.565   -25235.475   -21726.048 
Loop time of 719.601 on 1 procs for 6172 steps with 19652 atoms

Performance: 0.741 ns/day, 32.386 hours/ns, 8.577 timesteps/s
99.9% CPU use with 1 MPI tasks x no OpenMP threads

MPI task timing breakdown:
Section |  min time  |  avg time  |  max time  |%varavg| %total
---------------------------------------------------------------
Pair    | 371.07     | 371.07     | 371.07     |   0.0 | 51.57
Neigh   | 330.29     | 330.29     | 330.29     |   0.0 | 45.90
Comm    | 6.3378     | 6.3378     | 6.3378     |   0.0 |  0.88
Output  | 0.00016499 | 0.00016499 | 0.00016499 |   0.0 |  0.00
Modify  | 9.5501     | 9.5501     | 9.5501     |   0.0 |  1.33
Other   |            | 2.35       |            |       |  0.33

Nlocal:    19652 ave 19652 max 19652 min
Histogram: 1 0 0 0 0 0 0 0 0 0
Nghost:    14944 ave 14944 max 14944 min
Histogram: 1 0 0 0 0 0 0 0 0 0
Neighs:    897197 ave 897197 max 897197 min
Histogram: 1 0 0 0 0 0 0 0 0 0

Total # of neighbors = 897197
Ave neighs/atom = 45.6542
Neighbor list builds = 6172
Dangerous builds not checked
Setting up Verlet run ...
  Unit style    : metal
  Current step  : 186674
  Time step     : 0.001
Per MPI rank memory allocation (min/avg/max) = 18.23 | 18.23 | 18.23 Mbytes
Step Temp Press TotEng PotEng Enthalpy 
  186674    1342.8298    288.08508   -21824.565   -25235.475   -21726.048 
  186676    1342.6729    292.39903   -21824.559    -25235.07   -21724.567 
  187169    1317.2384   0.45836743   -21977.804   -25323.709   -21977.647 
Loop time of 55.2688 on 1 procs for 495 steps with 19652 atoms

Performance: 0.774 ns/day, 31.015 hours/ns, 8.956 timesteps/s
99.9% CPU use with 1 MPI tasks x no OpenMP threads

MPI task timing breakdown:
Section |  min time  |  avg time  |  max time  |%varavg| %total
---------------------------------------------------------------
Pair    | 28.339     | 28.339     | 28.339     |   0.0 | 51.28
Neigh   | 25.446     | 25.446     | 25.446     |   0.0 | 46.04
Comm    | 0.48902    | 0.48902    | 0.48902    |   0.0 |  0.88
Output  | 0.055079   | 0.055079   | 0.055079   |   0.0 |  0.10
Modify  | 0.75456    | 0.75456    | 0.75456    |   0.0 |  1.37
Other   |            | 0.1853     |            |       |  0.34

Nlocal:    19652 ave 19652 max 19652 min
Histogram: 1 0 0 0 0 0 0 0 0 0
Nghost:    14968 ave 14968 max 14968 min
Histogram: 1 0 0 0 0 0 0 0 0 0
Neighs:    898307 ave 898307 max 898307 min
Histogram: 1 0 0 0 0 0 0 0 0 0

Total # of neighbors = 898307
Ave neighs/atom = 45.7107
Neighbor list builds = 495
Dangerous builds not checked
Setting up Verlet run ...
  Unit style    : metal
  Current step  : 187169
  Time step     : 0.001
Per MPI rank memory allocation (min/avg/max) = 18.23 | 18.23 | 18.23 Mbytes
Step Temp Press TotEng PotEng Enthalpy 
  187169    1317.2384   0.45836743   -21977.804   -25323.709   -21977.647 
  193341    1313.3641   -2.4495399   -22062.731   -25398.796   -22063.565 
Loop time of 719.32 on 1 procs for 6172 steps with 19652 atoms

Performance: 0.741 ns/day, 32.374 hours/ns, 8.580 timesteps/s
99.9% CPU use with 1 MPI tasks x no OpenMP threads

MPI task timing breakdown:
Section |  min time  |  avg time  |  max time  |%varavg| %total
---------------------------------------------------------------
Pair    | 370.43     | 370.43     | 370.43     |   0.0 | 51.50
Neigh   | 330.63     | 330.63     | 330.63     |   0.0 | 45.96
Comm    | 6.3231     | 6.3231     | 6.3231     |   0.0 |  0.88
Output  | 0.00021315 | 0.00021315 | 0.00021315 |   0.0 |  0.00
Modify  | 9.5817     | 9.5817     | 9.5817     |   0.0 |  1.33
Other   |            | 2.351      |            |       |  0.33

Nlocal:    19652 ave 19652 max 19652 min
Histogram: 1 0 0 0 0 0 0 0 0 0
Nghost:    14988 ave 14988 max 14988 min
Histogram: 1 0 0 0 0 0 0 0 0 0
Neighs:    901147 ave 901147 max 901147 min
Histogram: 1 0 0 0 0 0 0 0 0 0

Total # of neighbors = 901147
Ave neighs/atom = 45.8552
Neighbor list builds = 6172
Dangerous builds not checked
Setting up Verlet run ...
  Unit style    : metal
  Current step  : 193341
  Time step     : 0.001
Per MPI rank memory allocation (min/avg/max) = 18.23 | 18.23 | 18.23 Mbytes
Step Temp Press TotEng PotEng Enthalpy 
  193341    1313.3641   -2.4495399   -22062.731   -25398.796   -22063.565 
  193343    1313.7144   -11.125161   -22062.747   -25399.701   -22066.533 
  193836    1266.1257    26.658462   -22295.782   -25511.857   -22286.755 
Loop time of 56.0858 on 1 procs for 495 steps with 19652 atoms

Performance: 0.763 ns/day, 31.474 hours/ns, 8.826 timesteps/s
99.9% CPU use with 1 MPI tasks x no OpenMP threads

MPI task timing breakdown:
Section |  min time  |  avg time  |  max time  |%varavg| %total
---------------------------------------------------------------
Pair    | 28.625     | 28.625     | 28.625     |   0.0 | 51.04
Neigh   | 25.966     | 25.966     | 25.966     |   0.0 | 46.30
Comm    | 0.48972    | 0.48972    | 0.48972    |   0.0 |  0.87
Output  | 0.051525   | 0.051525   | 0.051525   |   0.0 |  0.09
Modify  | 0.76744    | 0.76744    | 0.76744    |   0.0 |  1.37
Other   |            | 0.186      |            |       |  0.33

Nlocal:    19652 ave 19652 max 19652 min
Histogram: 1 0 0 0 0 0 0 0 0 0
Nghost:    15008 ave 15008 max 15008 min
Histogram: 1 0 0 0 0 0 0 0 0 0
Neighs:    906595 ave 906595 max 906595 min
Histogram: 1 0 0 0 0 0 0 0 0 0

Total # of neighbors = 906595
Ave neighs/atom = 46.1325
Neighbor list builds = 495
Dangerous builds not checked
Setting up Verlet run ...
  Unit style    : metal
  Current step  : 193836
  Time step     : 0.001
Per MPI rank memory allocation (min/avg/max) = 18.23 | 18.23 | 18.23 Mbytes
Step Temp Press TotEng PotEng Enthalpy 
  193836    1266.1257    26.658462   -22295.782   -25511.857   -22286.755 
  200008    1254.3278   -62.653735   -22377.976   -25564.082   -22399.171 
Loop time of 722.205 on 1 procs for 6172 steps with 19652 atoms

Performance: 0.738 ns/day, 32.504 hours/ns, 8.546 timesteps/s
99.9% CPU use with 1 MPI tasks x no OpenMP threads

MPI task timing breakdown:
Section |  min time  |  avg time  |  max time  |%varavg| %total
---------------------------------------------------------------
Pair    | 372.69     | 372.69     | 372.69     |   0.0 | 51.60
Neigh   | 331.15     | 331.15     | 331.15     |   0.0 | 45.85
Comm    | 6.313      | 6.313      | 6.313      |   0.0 |  0.87
Output  | 0.00022888 | 0.00022888 | 0.00022888 |   0.0 |  0.00
Modify  | 9.6887     | 9.6887     | 9.6887     |   0.0 |  1.34
Other   |            | 2.363      |            |       |  0.33

Nlocal:    19652 ave 19652 max 19652 min
Histogram: 1 0 0 0 0 0 0 0 0 0
Nghost:    15058 ave 15058 max 15058 min
Histogram: 1 0 0 0 0 0 0 0 0 0
Neighs:    907036 ave 907036 max 907036 min
Histogram: 1 0 0 0 0 0 0 0 0 0

Total # of neighbors = 907036
Ave neighs/atom = 46.1549
Neighbor list builds = 6172
Dangerous builds not checked
Setting up Verlet run ...
  Unit style    : metal
  Current step  : 200008
  Time step     : 0.001
Per MPI rank memory allocation (min/avg/max) = 18.23 | 18.23 | 18.23 Mbytes
Step Temp Press TotEng PotEng Enthalpy 
  200008    1254.3278   -62.653735   -22377.976   -25564.082   -22399.171 
  200010    1253.6854   -58.455112   -22377.979   -25562.454   -22397.754 
  200503    1222.3961    -115.6897   -22572.899   -25677.897   -22611.854 
Loop time of 56.6734 on 1 procs for 495 steps with 19652 atoms

Performance: 0.755 ns/day, 31.803 hours/ns, 8.734 timesteps/s
100.0% CPU use with 1 MPI tasks x no OpenMP threads

MPI task timing breakdown:
Section |  min time  |  avg time  |  max time  |%varavg| %total
---------------------------------------------------------------
Pair    | 29.104     | 29.104     | 29.104     |   0.0 | 51.35
Neigh   | 26.045     | 26.045     | 26.045     |   0.0 | 45.96
Comm    | 0.49771    | 0.49771    | 0.49771    |   0.0 |  0.88
Output  | 0.065771   | 0.065771   | 0.065771   |   0.0 |  0.12
Modify  | 0.77396    | 0.77396    | 0.77396    |   0.0 |  1.37
Other   |            | 0.1874     |            |       |  0.33

Nlocal:    19652 ave 19652 max 19652 min
Histogram: 1 0 0 0 0 0 0 0 0 0
Nghost:    15170 ave 15170 max 15170 min
Histogram: 1 0 0 0 0 0 0 0 0 0
Neighs:    910990 ave 910990 max 910990 min
Histogram: 1 0 0 0 0 0 0 0 0 0

Total # of neighbors = 910990
Ave neighs/atom = 46.3561
Neighbor list builds = 495
Dangerous builds not checked
Setting up Verlet run ...
  Unit style    : metal
  Current step  : 200503
  Time step     : 0.001
Per MPI rank memory allocation (min/avg/max) = 18.23 | 18.23 | 18.23 Mbytes
Step Temp Press TotEng PotEng Enthalpy 
  200503    1222.3961    -115.6897   -22572.899   -25677.897   -22611.854 
  206675    1206.6194     100.5519   -22664.173   -25729.096   -22630.408 
Loop time of 718.769 on 1 procs for 6172 steps with 19652 atoms

Performance: 0.742 ns/day, 32.349 hours/ns, 8.587 timesteps/s
99.8% CPU use with 1 MPI tasks x no OpenMP threads

MPI task timing breakdown:
Section |  min time  |  avg time  |  max time  |%varavg| %total
---------------------------------------------------------------
Pair    | 370.57     | 370.57     | 370.57     |   0.0 | 51.56
Neigh   | 329.84     | 329.84     | 329.84     |   0.0 | 45.89
Comm    | 6.3043     | 6.3043     | 6.3043     |   0.0 |  0.88
Output  | 0.00029206 | 0.00029206 | 0.00029206 |   0.0 |  0.00
Modify  | 9.6942     | 9.6942     | 9.6942     |   0.0 |  1.35
Other   |            | 2.361      |            |       |  0.33

Nlocal:    19652 ave 19652 max 19652 min
Histogram: 1 0 0 0 0 0 0 0 0 0
Nghost:    15041 ave 15041 max 15041 min
Histogram: 1 0 0 0 0 0 0 0 0 0
Neighs:    914513 ave 914513 max 914513 min
Histogram: 1 0 0 0 0 0 0 0 0 0

Total # of neighbors = 914513
Ave neighs/atom = 46.5354
Neighbor list builds = 6172
Dangerous builds not checked
Setting up Verlet run ...
  Unit style    : metal
  Current step  : 206675
  Time step     : 0.001
Per MPI rank memory allocation (min/avg/max) = 18.23 | 18.23 | 18.23 Mbytes
Step Temp Press TotEng PotEng Enthalpy 
  206675    1206.6194     100.5519   -22664.173   -25729.096   -22630.408 
  206677    1206.2659    100.53925   -22664.179   -25728.204   -22630.418 
  207170    1171.0872   -19.357648    -22862.16   -25836.829   -22868.636 
Loop time of 57.1476 on 1 procs for 495 steps with 19652 atoms

Performance: 0.748 ns/day, 32.069 hours/ns, 8.662 timesteps/s
99.9% CPU use with 1 MPI tasks x no OpenMP threads

MPI task timing breakdown:
Section |  min time  |  avg time  |  max time  |%varavg| %total
---------------------------------------------------------------
Pair    | 29.609     | 29.609     | 29.609     |   0.0 | 51.81
Neigh   | 26.003     | 26.003     | 26.003     |   0.0 | 45.50
[...]

Performance: 0.657 ns/day, 36.532 hours/ns, 7.604 timesteps/s
99.9% CPU use with 1 MPI tasks x no OpenMP threads

MPI task timing breakdown:
Section |  min time  |  avg time  |  max time  |%varavg| %total
---------------------------------------------------------------
Pair    | 34.741     | 34.741     | 34.741     |   0.0 | 53.37
Neigh   | 28.74      | 28.74      | 28.74      |   0.0 | 44.15
Comm    | 0.54878    | 0.54878    | 0.54878    |   0.0 |  0.84
Output  | 0.068084   | 0.068084   | 0.068084   |   0.0 |  0.10
Modify  | 0.80057    | 0.80057    | 0.80057    |   0.0 |  1.23
Other   |            | 0.2016     |            |       |  0.31

Nlocal:    19652 ave 19652 max 19652 min
Histogram: 1 0 0 0 0 0 0 0 0 0
Nghost:    15708 ave 15708 max 15708 min
Histogram: 1 0 0 0 0 0 0 0 0 0
Neighs:    1.03463e+06 ave 1.03463e+06 max 1.03463e+06 min
Histogram: 1 0 0 0 0 0 0 0 0 0

Total # of neighbors = 1034634
Ave neighs/atom = 52.6478
Neighbor list builds = 495
Dangerous builds not checked
Setting up Verlet run ...
  Unit style    : metal
  Current step  : 307175
  Time step     : 0.001
Per MPI rank memory allocation (min/avg/max) = 18.23 | 18.23 | 18.23 Mbytes
Step Temp Press TotEng PotEng Enthalpy 
  307175    421.64774    76.722944    -27616.39   -28687.413   -27593.192 
  313347    397.54167   -34.918035   -27780.598    -28790.39   -27791.119 
Loop time of 771.12 on 1 procs for 6172 steps with 19652 atoms

Performance: 0.692 ns/day, 34.705 hours/ns, 8.004 timesteps/s
99.9% CPU use with 1 MPI tasks x no OpenMP threads

MPI task timing breakdown:
Section |  min time  |  avg time  |  max time  |%varavg| %total
---------------------------------------------------------------
Pair    | 410.11     | 410.11     | 410.11     |   0.0 | 53.18
Neigh   | 342.78     | 342.78     | 342.78     |   0.0 | 44.45
Comm    | 6.5001     | 6.5001     | 6.5001     |   0.0 |  0.84
Output  | 0.00018692 | 0.00018692 | 0.00018692 |   0.0 |  0.00
Modify  | 9.3484     | 9.3484     | 9.3484     |   0.0 |  1.21
Other   |            | 2.381      |            |       |  0.31

Nlocal:    19652 ave 19652 max 19652 min
Histogram: 1 0 0 0 0 0 0 0 0 0
Nghost:    15702 ave 15702 max 15702 min
Histogram: 1 0 0 0 0 0 0 0 0 0
Neighs:    1.03928e+06 ave 1.03928e+06 max 1.03928e+06 min
Histogram: 1 0 0 0 0 0 0 0 0 0

Total # of neighbors = 1039276
Ave neighs/atom = 52.884
Neighbor list builds = 6172
Dangerous builds not checked
Setting up Verlet run ...
  Unit style    : metal
  Current step  : 313347
  Time step     : 0.001
Per MPI rank memory allocation (min/avg/max) = 18.23 | 18.23 | 18.23 Mbytes
Step Temp Press TotEng PotEng Enthalpy 
  313347    397.54167   -34.918035   -27780.598    -28790.39   -27791.119 
  313349    397.45721   -36.239485   -27780.596   -28790.173   -27791.515 
  313842    373.12978   -53.438726   -27930.602   -28878.386   -27946.658 
Loop time of 64.5868 on 1 procs for 495 steps with 19652 atoms

Performance: 0.662 ns/day, 36.244 hours/ns, 7.664 timesteps/s
99.7% CPU use with 1 MPI tasks x no OpenMP threads

MPI task timing breakdown:
Section |  min time  |  avg time  |  max time  |%varavg| %total
---------------------------------------------------------------
Pair    | 34.583     | 34.583     | 34.583     |   0.0 | 53.54
Neigh   | 28.404     | 28.404     | 28.404     |   0.0 | 43.98
Comm    | 0.54454    | 0.54454    | 0.54454    |   0.0 |  0.84
Output  | 0.065304   | 0.065304   | 0.065304   |   0.0 |  0.10
Modify  | 0.79033    | 0.79033    | 0.79033    |   0.0 |  1.22
Other   |            | 0.2002     |            |       |  0.31

Nlocal:    19652 ave 19652 max 19652 min
Histogram: 1 0 0 0 0 0 0 0 0 0
Nghost:    15750 ave 15750 max 15750 min
Histogram: 1 0 0 0 0 0 0 0 0 0
Neighs:    1.04304e+06 ave 1.04304e+06 max 1.04304e+06 min
Histogram: 1 0 0 0 0 0 0 0 0 0

Total # of neighbors = 1043037
Ave neighs/atom = 53.0754
Neighbor list builds = 495
Dangerous builds not checked
Setting up Verlet run ...
  Unit style    : metal
  Current step  : 313842
  Time step     : 0.001
Per MPI rank memory allocation (min/avg/max) = 18.23 | 18.23 | 18.23 Mbytes
Step Temp Press TotEng PotEng Enthalpy 
  313842    373.12978   -53.438726   -27930.602   -28878.386   -27946.658 
  320014    350.11683     392.9254    -28095.12   -28984.449   -27977.654 
Loop time of 785.17 on 1 procs for 6172 steps with 19652 atoms

Performance: 0.679 ns/day, 35.337 hours/ns, 7.861 timesteps/s
99.9% CPU use with 1 MPI tasks x no OpenMP threads

MPI task timing breakdown:
Section |  min time  |  avg time  |  max time  |%varavg| %total
---------------------------------------------------------------
Pair    | 419.11     | 419.11     | 419.11     |   0.0 | 53.38
Neigh   | 347.42     | 347.42     | 347.42     |   0.0 | 44.25
Comm    | 6.6515     | 6.6515     | 6.6515     |   0.0 |  0.85
Output  | 0.00020909 | 0.00020909 | 0.00020909 |   0.0 |  0.00
Modify  | 9.5471     | 9.5471     | 9.5471     |   0.0 |  1.22
Other   |            | 2.448      |            |       |  0.31

Nlocal:    19652 ave 19652 max 19652 min
Histogram: 1 0 0 0 0 0 0 0 0 0
Nghost:    15792 ave 15792 max 15792 min
Histogram: 1 0 0 0 0 0 0 0 0 0
Neighs:    1.05021e+06 ave 1.05021e+06 max 1.05021e+06 min
Histogram: 1 0 0 0 0 0 0 0 0 0

Total # of neighbors = 1050210
Ave neighs/atom = 53.4404
Neighbor list builds = 6172
Dangerous builds not checked
Setting up Verlet run ...
  Unit style    : metal
  Current step  : 320014
  Time step     : 0.001
Per MPI rank memory allocation (min/avg/max) = 18.23 | 18.23 | 18.23 Mbytes
Step Temp Press TotEng PotEng Enthalpy 
  320014    350.11683     392.9254    -28095.12   -28984.449   -27977.654 
  320016    350.05266    397.98966   -28095.121   -28984.287    -27976.14 
  320509    323.15408   -107.10029   -28239.825   -29060.666   -28271.818 
Loop time of 64.4696 on 1 procs for 495 steps with 19652 atoms

Performance: 0.663 ns/day, 36.178 hours/ns, 7.678 timesteps/s
99.9% CPU use with 1 MPI tasks x no OpenMP threads

MPI task timing breakdown:
Section |  min time  |  avg time  |  max time  |%varavg| %total
---------------------------------------------------------------
Pair    | 34.589     | 34.589     | 34.589     |   0.0 | 53.65
Neigh   | 28.273     | 28.273     | 28.273     |   0.0 | 43.85
Comm    | 0.54907    | 0.54907    | 0.54907    |   0.0 |  0.85
Output  | 0.067121   | 0.067121   | 0.067121   |   0.0 |  0.10
Modify  | 0.7883     | 0.7883     | 0.7883     |   0.0 |  1.22
Other   |            | 0.2036     |            |       |  0.32

Nlocal:    19652 ave 19652 max 19652 min
Histogram: 1 0 0 0 0 0 0 0 0 0
Nghost:    15810 ave 15810 max 15810 min
Histogram: 1 0 0 0 0 0 0 0 0 0
Neighs:    1.05133e+06 ave 1.05133e+06 max 1.05133e+06 min
Histogram: 1 0 0 0 0 0 0 0 0 0

Total # of neighbors = 1051326
Ave neighs/atom = 53.4972
Neighbor list builds = 495
Dangerous builds not checked
Setting up Verlet run ...
  Unit style    : metal
  Current step  : 320509
  Time step     : 0.001
Per MPI rank memory allocation (min/avg/max) = 18.23 | 18.23 | 18.23 Mbytes
Step Temp Press TotEng PotEng Enthalpy 
  320509    323.15408   -107.10029   -28239.825   -29060.666   -28271.818 
  326681    300.59638    154.62318   -28384.898    -29148.44   -28338.896 
Loop time of 778.99 on 1 procs for 6172 steps with 19652 atoms

Performance: 0.685 ns/day, 35.059 hours/ns, 7.923 timesteps/s
99.9% CPU use with 1 MPI tasks x no OpenMP threads

MPI task timing breakdown:
Section |  min time  |  avg time  |  max time  |%varavg| %total
---------------------------------------------------------------
Pair    | 416.71     | 416.71     | 416.71     |   0.0 | 53.49
Neigh   | 343.73     | 343.73     | 343.73     |   0.0 | 44.12
Comm    | 6.6468     | 6.6468     | 6.6468     |   0.0 |  0.85
Output  | 0.00023103 | 0.00023103 | 0.00023103 |   0.0 |  0.00
Modify  | 9.4695     | 9.4695     | 9.4695     |   0.0 |  1.22
Other   |            | 2.437      |            |       |  0.31

Nlocal:    19652 ave 19652 max 19652 min
Histogram: 1 0 0 0 0 0 0 0 0 0
Nghost:    15842 ave 15842 max 15842 min
Histogram: 1 0 0 0 0 0 0 0 0 0
Neighs:    1.05594e+06 ave 1.05594e+06 max 1.05594e+06 min
Histogram: 1 0 0 0 0 0 0 0 0 0

Total # of neighbors = 1055940
Ave neighs/atom = 53.7319
Neighbor list builds = 6172
Dangerous builds not checked
Setting up Verlet run ...
  Unit style    : metal
  Current step  : 326681
  Time step     : 0.001
Per MPI rank memory allocation (min/avg/max) = 18.23 | 18.23 | 18.23 Mbytes
Step Temp Press TotEng PotEng Enthalpy 
  326681    300.59638    154.62318   -28384.898    -29148.44   -28338.896 
  326683    300.46575    158.83906   -28384.899   -29148.109   -28337.642 
  327176    274.10258    24.155126   -28527.046   -29223.291   -28519.874 
Loop time of 63.628 on 1 procs for 495 steps with 19652 atoms

Performance: 0.672 ns/day, 35.706 hours/ns, 7.780 timesteps/s
99.4% CPU use with 1 MPI tasks x no OpenMP threads

MPI task timing breakdown:
Section |  min time  |  avg time  |  max time  |%varavg| %total
---------------------------------------------------------------
Pair    | 33.946     | 33.946     | 33.946     |   0.0 | 53.35
Neigh   | 28.08      | 28.08      | 28.08      |   0.0 | 44.13
Comm    | 0.53713    | 0.53713    | 0.53713    |   0.0 |  0.84
Output  | 0.08417    | 0.08417    | 0.08417    |   0.0 |  0.13
Modify  | 0.78134    | 0.78134    | 0.78134    |   0.0 |  1.23
Other   |            | 0.1999     |            |       |  0.31

Nlocal:    19652 ave 19652 max 19652 min
Histogram: 1 0 0 0 0 0 0 0 0 0
Nghost:    15865 ave 15865 max 15865 min
Histogram: 1 0 0 0 0 0 0 0 0 0
Neighs:    1.0597e+06 ave 1.0597e+06 max 1.0597e+06 min
Histogram: 1 0 0 0 0 0 0 0 0 0

Total # of neighbors = 1059695
Ave neighs/atom = 53.923
Neighbor list builds = 495
Dangerous builds not checked
Setting up Verlet run ...
  Unit style    : metal
  Current step  : 327176
  Time step     : 0.001
Per MPI rank memory allocation (min/avg/max) = 18.23 | 18.23 | 18.23 Mbytes
Step Temp Press TotEng PotEng Enthalpy 
  327176    274.10258    24.155126   -28527.046   -29223.291   -28519.874 
  333348    249.60699    148.42063   -28672.661   -29306.686    -28628.77 
Loop time of 803.153 on 1 procs for 6172 steps with 19652 atoms

Performance: 0.664 ns/day, 36.147 hours/ns, 7.685 timesteps/s
99.8% CPU use with 1 MPI tasks x no OpenMP threads

MPI task timing breakdown:
Section |  min time  |  avg time  |  max time  |%varavg| %total
---------------------------------------------------------------
Pair    | 432.24     | 432.24     | 432.24     |   0.0 | 53.82
Neigh   | 351.83     | 351.83     | 351.83     |   0.0 | 43.81
Comm    | 6.7574     | 6.7574     | 6.7574     |   0.0 |  0.84
Output  | 0.00025797 | 0.00025797 | 0.00025797 |   0.0 |  0.00
Modify  | 9.8028     | 9.8028     | 9.8028     |   0.0 |  1.22
Other   |            | 2.516      |            |       |  0.31

Nlocal:    19652 ave 19652 max 19652 min
Histogram: 1 0 0 0 0 0 0 0 0 0
Nghost:    15885 ave 15885 max 15885 min
Histogram: 1 0 0 0 0 0 0 0 0 0
Neighs:    1.06468e+06 ave 1.06468e+06 max 1.06468e+06 min
Histogram: 1 0 0 0 0 0 0 0 0 0

Total # of neighbors = 1064676
Ave neighs/atom = 54.1765
Neighbor list builds = 6172
Dangerous builds not checked
Setting up Verlet run ...
  Unit style    : metal
  Current step  : 333348
  Time step     : 0.001
Per MPI rank memory allocation (min/avg/max) = 18.23 | 18.23 | 18.23 Mbytes
Step Temp Press TotEng PotEng Enthalpy 
  333348    249.60699    148.42063   -28672.661   -29306.686    -28628.77 
  333350    249.42501    151.54156   -28672.661   -29306.223   -28627.846 
  333843    224.41061   -54.198276   -28805.089   -29375.112   -28821.098 
Loop time of 64.1903 on 1 procs for 495 steps with 19652 atoms

Performance: 0.666 ns/day, 36.022 hours/ns, 7.711 timesteps/s
99.9% CPU use with 1 MPI tasks x no OpenMP threads

MPI task timing breakdown:
Section |  min time  |  avg time  |  max time  |%varavg| %total
---------------------------------------------------------------
Pair    | 34.39      | 34.39      | 34.39      |   0.0 | 53.58
Neigh   | 28.192     | 28.192     | 28.192     |   0.0 | 43.92
Comm    | 0.54697    | 0.54697    | 0.54697    |   0.0 |  0.85
Output  | 0.067464   | 0.067464   | 0.067464   |   0.0 |  0.11
Modify  | 0.79072    | 0.79072    | 0.79072    |   0.0 |  1.23
Other   |            | 0.2031     |            |       |  0.32

Nlocal:    19652 ave 19652 max 19652 min
Histogram: 1 0 0 0 0 0 0 0 0 0
Nghost:    15881 ave 15881 max 15881 min
Histogram: 1 0 0 0 0 0 0 0 0 0
Neighs:    1.06664e+06 ave 1.06664e+06 max 1.06664e+06 min
Histogram: 1 0 0 0 0 0 0 0 0 0

Total # of neighbors = 1066637
Ave neighs/atom = 54.2763
Neighbor list builds = 495
Dangerous builds not checked
Setting up Verlet run ...
  Unit style    : metal
  Current step  : 333843
  Time step     : 0.001
Per MPI rank memory allocation (min/avg/max) = 18.23 | 18.23 | 18.23 Mbytes
Step Temp Press TotEng PotEng Enthalpy 
  333843    224.41061   -54.198276   -28805.089   -29375.112   -28821.098 
  340015    199.41582    178.05304   -28946.882   -29453.417   -28894.487 
Loop time of 811.33 on 1 procs for 6172 steps with 19652 atoms

Performance: 0.657 ns/day, 36.515 hours/ns, 7.607 timesteps/s
99.9% CPU use with 1 MPI tasks x no OpenMP threads

MPI task timing breakdown:
Section |  min time  |  avg time  |  max time  |%varavg| %total
---------------------------------------------------------------
Pair    | 437.62     | 437.62     | 437.62     |   0.0 | 53.94
Neigh   | 354.12     | 354.12     | 354.12     |   0.0 | 43.65
Comm    | 6.9793     | 6.9793     | 6.9793     |   0.0 |  0.86
Output  | 0.00024295 | 0.00024295 | 0.00024295 |   0.0 |  0.00
Modify  | 10.026     | 10.026     | 10.026     |   0.0 |  1.24
Other   |            | 2.582      |            |       |  0.32

Nlocal:    19652 ave 19652 max 19652 min
Histogram: 1 0 0 0 0 0 0 0 0 0
Nghost:    15906 ave 15906 max 15906 min
Histogram: 1 0 0 0 0 0 0 0 0 0
Neighs:    1.07144e+06 ave 1.07144e+06 max 1.07144e+06 min
Histogram: 1 0 0 0 0 0 0 0 0 0

Total # of neighbors = 1071438
Ave neighs/atom = 54.5206
Neighbor list builds = 6172
Dangerous builds not checked
Setting up Verlet run ...
  Unit style    : metal
  Current step  : 340015
  Time step     : 0.001
Per MPI rank memory allocation (min/avg/max) = 18.23 | 18.23 | 18.23 Mbytes
Step Temp Press TotEng PotEng Enthalpy 
  340015    199.41582    178.05304   -28946.882   -29453.417   -28894.487 
  340017    199.51113    177.93593   -28946.882   -29453.658   -28894.522 
  340510     176.5908   -55.599374   -29073.419   -29521.976   -29089.754 
Loop time of 64.8906 on 1 procs for 495 steps with 19652 atoms

Performance: 0.659 ns/day, 36.414 hours/ns, 7.628 timesteps/s
99.9% CPU use with 1 MPI tasks x no OpenMP threads

MPI task timing breakdown:
Section |  min time  |  avg time  |  max time  |%varavg| %total
---------------------------------------------------------------
Pair    | 34.976     | 34.976     | 34.976     |   0.0 | 53.90
Neigh   | 28.291     | 28.291     | 28.291     |   0.0 | 43.60
Comm    | 0.54767    | 0.54767    | 0.54767    |   0.0 |  0.84
Output  | 0.065441   | 0.065441   | 0.065441   |   0.0 |  0.10
Modify  | 0.80372    | 0.80372    | 0.80372    |   0.0 |  1.24
Other   |            | 0.2074     |            |       |  0.32

Nlocal:    19652 ave 19652 max 19652 min
Histogram: 1 0 0 0 0 0 0 0 0 0
Nghost:    15953 ave 15953 max 15953 min
Histogram: 1 0 0 0 0 0 0 0 0 0
Neighs:    1.07312e+06 ave 1.07312e+06 max 1.07312e+06 min
Histogram: 1 0 0 0 0 0 0 0 0 0

Total # of neighbors = 1073123
Ave neighs/atom = 54.6063
Neighbor list builds = 495
Dangerous builds not checked
Setting up Verlet run ...
  Unit style    : metal
  Current step  : 340510
  Time step     : 0.001
Per MPI rank memory allocation (min/avg/max) = 18.23 | 18.23 | 18.23 Mbytes
Step Temp Press TotEng PotEng Enthalpy 
  340510     176.5908   -55.599374   -29073.419   -29521.976   -29089.754 
  346682    150.84761    294.46287   -29218.057   -29601.223   -29131.857 
Loop time of 799.745 on 1 procs for 6172 steps with 19652 atoms

Performance: 0.667 ns/day, 35.993 hours/ns, 7.717 timesteps/s
99.9% CPU use with 1 MPI tasks x no OpenMP threads

MPI task timing breakdown:
Section |  min time  |  avg time  |  max time  |%varavg| %total
---------------------------------------------------------------
Pair    | 430.9      | 430.9      | 430.9      |   0.0 | 53.88
Neigh   | 349.7      | 349.7      | 349.7      |   0.0 | 43.73
Comm    | 6.7901     | 6.7901     | 6.7901     |   0.0 |  0.85
Output  | 0.00021887 | 0.00021887 | 0.00021887 |   0.0 |  0.00
Modify  | 9.8099     | 9.8099     | 9.8099     |   0.0 |  1.23
Other   |            | 2.545      |            |       |  0.32

Nlocal:    19652 ave 19652 max 19652 min
Histogram: 1 0 0 0 0 0 0 0 0 0
Nghost:    15919 ave 15919 max 15919 min
Histogram: 1 0 0 0 0 0 0 0 0 0
Neighs:    1.07832e+06 ave 1.07832e+06 max 1.07832e+06 min
Histogram: 1 0 0 0 0 0 0 0 0 0

Total # of neighbors = 1078319
Ave neighs/atom = 54.8707
Neighbor list builds = 6172
Dangerous builds not checked
Setting up Verlet run ...
  Unit style    : metal
  Current step  : 346682
  Time step     : 0.001
Per MPI rank memory allocation (min/avg/max) = 18.23 | 18.23 | 18.23 Mbytes
Step Temp Press TotEng PotEng Enthalpy 
  346682    150.84761    294.46287   -29218.057   -29601.223   -29131.857 
  346684    150.85848    291.95543   -29218.058   -29601.252   -29132.592 
  347177    126.45145   -31.703745   -29333.933   -29655.131   -29343.206 
Loop time of 63.2638 on 1 procs for 495 steps with 19652 atoms

Performance: 0.676 ns/day, 35.502 hours/ns, 7.824 timesteps/s
99.9% CPU use with 1 MPI tasks x no OpenMP threads

MPI task timing breakdown:
Section |  min time  |  avg time  |  max time  |%varavg| %total
---------------------------------------------------------------
Pair    | 33.971     | 33.971     | 33.971     |   0.0 | 53.70
Neigh   | 27.703     | 27.703     | 27.703     |   0.0 | 43.79
Comm    | 0.53919    | 0.53919    | 0.53919    |   0.0 |  0.85
Output  | 0.068074   | 0.068074   | 0.068074   |   0.0 |  0.11
Modify  | 0.78163    | 0.78163    | 0.78163    |   0.0 |  1.24
Other   |            | 0.201      |            |       |  0.32

Nlocal:    19652 ave 19652 max 19652 min
Histogram: 1 0 0 0 0 0 0 0 0 0
Nghost:    15921 ave 15921 max 15921 min
Histogram: 1 0 0 0 0 0 0 0 0 0
Neighs:    1.07975e+06 ave 1.07975e+06 max 1.07975e+06 min
Histogram: 1 0 0 0 0 0 0 0 0 0

Total # of neighbors = 1079753
Ave neighs/atom = 54.9437
Neighbor list builds = 495
Dangerous builds not checked
Setting up Verlet run ...
  Unit style    : metal
  Current step  : 347177
  Time step     : 0.001
Per MPI rank memory allocation (min/avg/max) = 18.23 | 18.23 | 18.23 Mbytes
Step Temp Press TotEng PotEng Enthalpy 
  347177    126.45145   -31.703745   -29333.933   -29655.131   -29343.206 
  353349    99.668398   -224.44721    -29479.83   -29732.997   -29545.354 
Loop time of 776.051 on 1 procs for 6172 steps with 19652 atoms

Performance: 0.687 ns/day, 34.927 hours/ns, 7.953 timesteps/s
99.9% CPU use with 1 MPI tasks x no OpenMP threads

MPI task timing breakdown:
Section |  min time  |  avg time  |  max time  |%varavg| %total
---------------------------------------------------------------
Pair    | 417.32     | 417.32     | 417.32     |   0.0 | 53.77
Neigh   | 340.09     | 340.09     | 340.09     |   0.0 | 43.82
Comm    | 6.6302     | 6.6302     | 6.6302     |   0.0 |  0.85
Output  | 0.00017285 | 0.00017285 | 0.00017285 |   0.0 |  0.00
Modify  | 9.5452     | 9.5452     | 9.5452     |   0.0 |  1.23
Other   |            | 2.462      |            |       |  0.32

Nlocal:    19652 ave 19652 max 19652 min
Histogram: 1 0 0 0 0 0 0 0 0 0
Nghost:    15972 ave 15972 max 15972 min
Histogram: 1 0 0 0 0 0 0 0 0 0
Neighs:    1.0822e+06 ave 1.0822e+06 max 1.0822e+06 min
Histogram: 1 0 0 0 0 0 0 0 0 0

Total # of neighbors = 1082196
Ave neighs/atom = 55.068
Neighbor list builds = 6172
Dangerous builds not checked
Total wall time: 11:39:35
