LAMMPS (12 Dec 2018)
Lattice spacing in x,y,z = 4 4 4
Created orthogonal box = (0 0 0) to (68 68 68)
  1 by 1 by 1 MPI processor grid
Created 19652 atoms
  Time spent = 0.00879502 secs
Setting atom values ...
  0 settings made for type/fraction
Neighbor list info ...
  update every 1 steps, delay 0 steps, check no
  max neighbors/atom: 2000, page size: 100000
  master list distance cutoff = 8.5
  ghost atom cutoff = 8.5
  binsize = 4.25, bins = 16 16 16
  1 neighbor lists, perpetual/occasional/extra = 1 0 0
  (1) pair eam/alloy, perpetual
      attributes: half, newton on
      pair build: half/bin/atomonly/newton
      stencil: half/bin/3d/newton
      bin: standard
Setting up Verlet run ...
  Unit style    : metal
  Current step  : 0
  Time step     : 0.001
Per MPI rank memory allocation (min/avg/max) = 18.19 | 18.19 | 18.19 Mbytes
Step Temp Press TotEng PotEng Enthalpy 
       0          300   -103068.88   -75432.214   -76194.241   -95659.795 
    1000    150.16926   -92818.072   -75432.164   -75813.607   -93647.992 
Loop time of 175.297 on 1 procs for 1000 steps with 19652 atoms

Performance: 0.493 ns/day, 48.694 hours/ns, 5.705 timesteps/s
99.7% CPU use with 1 MPI tasks x no OpenMP threads

MPI task timing breakdown:
Section |  min time  |  avg time  |  max time  |%varavg| %total
---------------------------------------------------------------
Pair    | 107.04     | 107.04     | 107.04     |   0.0 | 61.06
Neigh   | 64.754     | 64.754     | 64.754     |   0.0 | 36.94
Comm    | 1.9999     | 1.9999     | 1.9999     |   0.0 |  1.14
Output  | 0.00025296 | 0.00025296 | 0.00025296 |   0.0 |  0.00
Modify  | 0.91183    | 0.91183    | 0.91183    |   0.0 |  0.52
Other   |            | 0.5875     |            |       |  0.34

Nlocal:    19652 ave 19652 max 19652 min
Histogram: 1 0 0 0 0 0 0 0 0 0
Nghost:    20102 ave 20102 max 20102 min
Histogram: 1 0 0 0 0 0 0 0 0 0
Neighs:    1.57481e+06 ave 1.57481e+06 max 1.57481e+06 min
Histogram: 1 0 0 0 0 0 0 0 0 0

Total # of neighbors = 1574810
Ave neighs/atom = 80.1348
Neighbor list builds = 1000
Dangerous builds not checked
Setting up Verlet run ...
  Unit style    : metal
  Current step  : 1000
  Time step     : 0.001
Per MPI rank memory allocation (min/avg/max) = 18.19 | 18.19 | 18.19 Mbytes
Step Temp Press TotEng PotEng Enthalpy 
    1000    150.16926   -92818.072   -75432.164   -75813.607   -93647.992 
    2000    310.83538   -252.49841   -75321.288   -76110.839   -75368.149 
Loop time of 208.327 on 1 procs for 1000 steps with 19652 atoms

Performance: 0.415 ns/day, 57.869 hours/ns, 4.800 timesteps/s
99.9% CPU use with 1 MPI tasks x no OpenMP threads

MPI task timing breakdown:
Section |  min time  |  avg time  |  max time  |%varavg| %total
---------------------------------------------------------------
Pair    | 122        | 122        | 122        |   0.0 | 58.56
Neigh   | 81.097     | 81.097     | 81.097     |   0.0 | 38.93
Comm    | 2.1482     | 2.1482     | 2.1482     |   0.0 |  1.03
Output  | 0.00024819 | 0.00024819 | 0.00024819 |   0.0 |  0.00
Modify  | 2.4451     | 2.4451     | 2.4451     |   0.0 |  1.17
Other   |            | 0.6349     |            |       |  0.30

Nlocal:    19652 ave 19652 max 19652 min
Histogram: 1 0 0 0 0 0 0 0 0 0
Nghost:    20102 ave 20102 max 20102 min
Histogram: 1 0 0 0 0 0 0 0 0 0
Neighs:    1.7099e+06 ave 1.7099e+06 max 1.7099e+06 min
Histogram: 1 0 0 0 0 0 0 0 0 0

Total # of neighbors = 1709899
Ave neighs/atom = 87.0089
Neighbor list builds = 1000
Dangerous builds not checked
Setting up Verlet run ...
  Unit style    : metal
  Current step  : 2000
  Time step     : 0.001
Per MPI rank memory allocation (min/avg/max) = 18.19 | 18.19 | 18.19 Mbytes
Step Temp Press TotEng PotEng Enthalpy 
    2000    310.83538   -252.49841   -75321.288   -76110.839   -75368.149 
    5000    1093.2588   -525.32565   -70918.288   -73695.265   -71019.413 
   10000    2429.6781   -1409.0763   -59253.573   -65425.177   -59571.972 
Loop time of 1535.82 on 1 procs for 8000 steps with 19652 atoms

Performance: 0.450 ns/day, 53.327 hours/ns, 5.209 timesteps/s
99.7% CPU use with 1 MPI tasks x no OpenMP threads

MPI task timing breakdown:
Section |  min time  |  avg time  |  max time  |%varavg| %total
---------------------------------------------------------------
Pair    | 898.73     | 898.73     | 898.73     |   0.0 | 58.52
Neigh   | 596.82     | 596.82     | 596.82     |   0.0 | 38.86
Comm    | 16.435     | 16.435     | 16.435     |   0.0 |  1.07
Output  | 0.12488    | 0.12488    | 0.12488    |   0.0 |  0.01
Modify  | 18.913     | 18.913     | 18.913     |   0.0 |  1.23
Other   |            | 4.798      |            |       |  0.31

Nlocal:    19652 ave 19652 max 19652 min
Histogram: 1 0 0 0 0 0 0 0 0 0
Nghost:    17677 ave 17677 max 17677 min
Histogram: 1 0 0 0 0 0 0 0 0 0
Neighs:    1.36599e+06 ave 1.36599e+06 max 1.36599e+06 min
Histogram: 1 0 0 0 0 0 0 0 0 0

Total # of neighbors = 1365990
Ave neighs/atom = 69.509
Neighbor list builds = 8000
Dangerous builds not checked
Setting up Verlet run ...
  Unit style    : metal
  Current step  : 10000
  Time step     : 0.001
Per MPI rank memory allocation (min/avg/max) = 18.19 | 18.19 | 18.19 Mbytes
Step Temp Press TotEng PotEng Enthalpy 
   10000    2429.6781   -1409.0763   -59253.573   -65425.177   -59571.972 
   15000    2431.9029    331.32349   -59162.954   -65340.209   -59088.056 
   20000    2444.3097    -1709.275   -59146.338   -65355.107   -59533.434 
   25000    2461.7764    615.21748   -59051.863   -65304.999   -58912.583 
   30000    2453.9502    -2293.426   -59055.718   -65288.975    -59576.54 
   35000    2450.8752   -36.603438    -59100.15   -65325.596   -59108.434 
   40000    2441.0795   -919.04048   -59108.421   -65308.985   -59316.669 
Loop time of 5472.47 on 1 procs for 30000 steps with 19652 atoms

Performance: 0.474 ns/day, 50.671 hours/ns, 5.482 timesteps/s
98.4% CPU use with 1 MPI tasks x no OpenMP threads

MPI task timing breakdown:
Section |  min time  |  avg time  |  max time  |%varavg| %total
---------------------------------------------------------------
Pair    | 3127.2     | 3127.2     | 3127.2     |   0.0 | 57.14
Neigh   | 2195       | 2195       | 2195       |   0.0 | 40.11
Comm    | 59.67      | 59.67      | 59.67      |   0.0 |  1.09
Output  | 0.30756    | 0.30756    | 0.30756    |   0.0 |  0.01
Modify  | 72.526     | 72.526     | 72.526     |   0.0 |  1.33
Other   |            | 17.73      |            |       |  0.32

Nlocal:    19652 ave 19652 max 19652 min
Histogram: 1 0 0 0 0 0 0 0 0 0
Nghost:    17747 ave 17747 max 17747 min
Histogram: 1 0 0 0 0 0 0 0 0 0
Neighs:    1.36288e+06 ave 1.36288e+06 max 1.36288e+06 min
Histogram: 1 0 0 0 0 0 0 0 0 0

Total # of neighbors = 1362883
Ave neighs/atom = 69.3509
Neighbor list builds = 30000
Dangerous builds not checked
Setting up Verlet run ...
  Unit style    : metal
  Current step  : 40000
  Time step     : 0.001
Per MPI rank memory allocation (min/avg/max) = 18.19 | 18.19 | 18.19 Mbytes
Step Temp Press TotEng PotEng Enthalpy 
   40000    2441.0795   -919.04048   -59108.421   -65308.985   -59316.669 
   40495    2413.5596   -262.80357   -59381.223   -65511.884   -59440.403 
Loop time of 81.2982 on 1 procs for 495 steps with 19652 atoms

Performance: 0.526 ns/day, 45.622 hours/ns, 6.089 timesteps/s
99.8% CPU use with 1 MPI tasks x no OpenMP threads

MPI task timing breakdown:
Section |  min time  |  avg time  |  max time  |%varavg| %total
---------------------------------------------------------------
Pair    | 45.78      | 45.78      | 45.78      |   0.0 | 56.31
Neigh   | 33.509     | 33.509     | 33.509     |   0.0 | 41.22
Comm    | 0.7788     | 0.7788     | 0.7788     |   0.0 |  0.96
Output  | 0.00020909 | 0.00020909 | 0.00020909 |   0.0 |  0.00
Modify  | 0.98178    | 0.98178    | 0.98178    |   0.0 |  1.21
Other   |            | 0.2483     |            |       |  0.31

Nlocal:    19652 ave 19652 max 19652 min
Histogram: 1 0 0 0 0 0 0 0 0 0
Nghost:    17702 ave 17702 max 17702 min
Histogram: 1 0 0 0 0 0 0 0 0 0
Neighs:    1.37114e+06 ave 1.37114e+06 max 1.37114e+06 min
Histogram: 1 0 0 0 0 0 0 0 0 0

Total # of neighbors = 1371139
Ave neighs/atom = 69.771
Neighbor list builds = 495
Dangerous builds not checked
Setting up Verlet run ...
  Unit style    : metal
  Current step  : 40495
  Time step     : 0.001
Per MPI rank memory allocation (min/avg/max) = 18.19 | 18.19 | 18.19 Mbytes
Step Temp Press TotEng PotEng Enthalpy 
   40495    2413.5596   -262.80357   -59381.223   -65511.884   -59440.403 
   45000    2389.1413    73.553656   -59475.488   -65544.125   -59458.931 
Loop time of 807.633 on 1 procs for 4505 steps with 19652 atoms

Performance: 0.482 ns/day, 49.799 hours/ns, 5.578 timesteps/s
99.8% CPU use with 1 MPI tasks x no OpenMP threads

MPI task timing breakdown:
Section |  min time  |  avg time  |  max time  |%varavg| %total
---------------------------------------------------------------
Pair    | 463.5      | 463.5      | 463.5      |   0.0 | 57.39
Neigh   | 322.28     | 322.28     | 322.28     |   0.0 | 39.90
Comm    | 8.5624     | 8.5624     | 8.5624     |   0.0 |  1.06
Output  | 0.050408   | 0.050408   | 0.050408   |   0.0 |  0.01
Modify  | 10.593     | 10.593     | 10.593     |   0.0 |  1.31
Other   |            | 2.647      |            |       |  0.33

Nlocal:    19652 ave 19652 max 19652 min
Histogram: 1 0 0 0 0 0 0 0 0 0
Nghost:    17679 ave 17679 max 17679 min
Histogram: 1 0 0 0 0 0 0 0 0 0
Neighs:    1.37172e+06 ave 1.37172e+06 max 1.37172e+06 min
Histogram: 1 0 0 0 0 0 0 0 0 0

Total # of neighbors = 1371716
Ave neighs/atom = 69.8003
Neighbor list builds = 4505
Dangerous builds not checked
Setting up Verlet run ...
  Unit style    : metal
  Current step  : 45000
  Time step     : 0.001
Per MPI rank memory allocation (min/avg/max) = 18.19 | 18.19 | 18.19 Mbytes
Step Temp Press TotEng PotEng Enthalpy 
   45000    2389.1413    73.553656   -59475.488   -65544.125   -59458.931 
   45495    2365.0544    730.37983   -59698.783   -65706.236   -59535.109 
Loop time of 82.7064 on 1 procs for 495 steps with 19652 atoms

Performance: 0.517 ns/day, 46.412 hours/ns, 5.985 timesteps/s
99.5% CPU use with 1 MPI tasks x no OpenMP threads

MPI task timing breakdown:
Section |  min time  |  avg time  |  max time  |%varavg| %total
---------------------------------------------------------------
Pair    | 46.839     | 46.839     | 46.839     |   0.0 | 56.63
Neigh   | 33.769     | 33.769     | 33.769     |   0.0 | 40.83
Comm    | 0.81813    | 0.81813    | 0.81813    |   0.0 |  0.99
Output  | 0.00020504 | 0.00020504 | 0.00020504 |   0.0 |  0.00
Modify  | 1.0275     | 1.0275     | 1.0275     |   0.0 |  1.24
Other   |            | 0.2516     |            |       |  0.30

Nlocal:    19652 ave 19652 max 19652 min
Histogram: 1 0 0 0 0 0 0 0 0 0
Nghost:    17728 ave 17728 max 17728 min
Histogram: 1 0 0 0 0 0 0 0 0 0
Neighs:    1.37813e+06 ave 1.37813e+06 max 1.37813e+06 min
Histogram: 1 0 0 0 0 0 0 0 0 0

Total # of neighbors = 1378132
Ave neighs/atom = 70.1268
Neighbor list builds = 495
Dangerous builds not checked
Setting up Verlet run ...
  Unit style    : metal
  Current step  : 45495
  Time step     : 0.001
Per MPI rank memory allocation (min/avg/max) = 18.19 | 18.19 | 18.19 Mbytes
Step Temp Press TotEng PotEng Enthalpy 
   45495    2365.0544    730.37983   -59698.783   -65706.236   -59535.109 
   50000    2346.2564     1194.771   -59850.577   -65810.282   -59583.487 
Loop time of 786.066 on 1 procs for 4505 steps with 19652 atoms

Performance: 0.495 ns/day, 48.469 hours/ns, 5.731 timesteps/s
99.8% CPU use with 1 MPI tasks x no OpenMP threads

MPI task timing breakdown:
Section |  min time  |  avg time  |  max time  |%varavg| %total
---------------------------------------------------------------
Pair    | 449.65     | 449.65     | 449.65     |   0.0 | 57.20
Neigh   | 316.14     | 316.14     | 316.14     |   0.0 | 40.22
Comm    | 7.9295     | 7.9295     | 7.9295     |   0.0 |  1.01
Output  | 0.04978    | 0.04978    | 0.04978    |   0.0 |  0.01
Modify  | 9.8107     | 9.8107     | 9.8107     |   0.0 |  1.25
Other   |            | 2.485      |            |       |  0.32

Nlocal:    19652 ave 19652 max 19652 min
Histogram: 1 0 0 0 0 0 0 0 0 0
Nghost:    17750 ave 17750 max 17750 min
Histogram: 1 0 0 0 0 0 0 0 0 0
Neighs:    1.38132e+06 ave 1.38132e+06 max 1.38132e+06 min
Histogram: 1 0 0 0 0 0 0 0 0 0

Total # of neighbors = 1381323
Ave neighs/atom = 70.2892
Neighbor list builds = 4505
Dangerous builds not checked
Setting up Verlet run ...
  Unit style    : metal
  Current step  : 50000
  Time step     : 0.001
Per MPI rank memory allocation (min/avg/max) = 18.19 | 18.19 | 18.19 Mbytes
Step Temp Press TotEng PotEng Enthalpy 
   50000    2346.2564     1194.771   -59850.577   -65810.282   -59583.487 
   50495    2315.9415    1115.6907   -60013.474   -65896.177   -59764.669 
Loop time of 80.0429 on 1 procs for 495 steps with 19652 atoms

Performance: 0.534 ns/day, 44.917 hours/ns, 6.184 timesteps/s
99.5% CPU use with 1 MPI tasks x no OpenMP threads

MPI task timing breakdown:
Section |  min time  |  avg time  |  max time  |%varavg| %total
---------------------------------------------------------------
Pair    | 44.894     | 44.894     | 44.894     |   0.0 | 56.09
Neigh   | 33.241     | 33.241     | 33.241     |   0.0 | 41.53
Comm    | 0.75232    | 0.75232    | 0.75232    |   0.0 |  0.94
Output  | 0.00019789 | 0.00019789 | 0.00019789 |   0.0 |  0.00
Modify  | 0.93006    | 0.93006    | 0.93006    |   0.0 |  1.16
Other   |            | 0.2259     |            |       |  0.28

Nlocal:    19652 ave 19652 max 19652 min
Histogram: 1 0 0 0 0 0 0 0 0 0
Nghost:    17791 ave 17791 max 17791 min
Histogram: 1 0 0 0 0 0 0 0 0 0
Neighs:    1.38495e+06 ave 1.38495e+06 max 1.38495e+06 min
Histogram: 1 0 0 0 0 0 0 0 0 0

Total # of neighbors = 1384954
Ave neighs/atom = 70.4739
Neighbor list builds = 495
Dangerous builds not checked
Setting up Verlet run ...
  Unit style    : metal
  Current step  : 50495
  Time step     : 0.001
Per MPI rank memory allocation (min/avg/max) = 18.19 | 18.19 | 18.19 Mbytes
Step Temp Press TotEng PotEng Enthalpy 
   50495    2315.9415    1115.6907   -60013.474   -65896.177   -59764.669 
   55000    2314.0809    138.51713   -60049.615   -65927.591   -60018.712 
Loop time of 799.254 on 1 procs for 4505 steps with 19652 atoms

Performance: 0.487 ns/day, 49.282 hours/ns, 5.637 timesteps/s
99.8% CPU use with 1 MPI tasks x no OpenMP threads

MPI task timing breakdown:
Section |  min time  |  avg time  |  max time  |%varavg| %total
---------------------------------------------------------------
Pair    | 459.61     | 459.61     | 459.61     |   0.0 | 57.50
Neigh   | 318.78     | 318.78     | 318.78     |   0.0 | 39.89
Comm    | 8.1212     | 8.1212     | 8.1212     |   0.0 |  1.02
Output  | 0.051625   | 0.051625   | 0.051625   |   0.0 |  0.01
Modify  | 10.078     | 10.078     | 10.078     |   0.0 |  1.26
Other   |            | 2.608      |            |       |  0.33

Nlocal:    19652 ave 19652 max 19652 min
Histogram: 1 0 0 0 0 0 0 0 0 0
Nghost:    17777 ave 17777 max 17777 min
Histogram: 1 0 0 0 0 0 0 0 0 0
Neighs:    1.38487e+06 ave 1.38487e+06 max 1.38487e+06 min
Histogram: 1 0 0 0 0 0 0 0 0 0

Total # of neighbors = 1384866
Ave neighs/atom = 70.4695
Neighbor list builds = 4505
Dangerous builds not checked
Setting up Verlet run ...
  Unit style    : metal
  Current step  : 55000
  Time step     : 0.001
Per MPI rank memory allocation (min/avg/max) = 18.19 | 18.19 | 18.19 Mbytes
Step Temp Press TotEng PotEng Enthalpy 
   55000    2314.0809    138.51713   -60049.615   -65927.591   -60018.712 
   55495    2265.7623    1035.1646   -60332.406   -66087.649    -60102.47 
Loop time of 88.6216 on 1 procs for 495 steps with 19652 atoms

Performance: 0.483 ns/day, 49.732 hours/ns, 5.586 timesteps/s
99.9% CPU use with 1 MPI tasks x no OpenMP threads

MPI task timing breakdown:
Section |  min time  |  avg time  |  max time  |%varavg| %total
---------------------------------------------------------------
Pair    | 51.243     | 51.243     | 51.243     |   0.0 | 57.82
Neigh   | 34.931     | 34.931     | 34.931     |   0.0 | 39.42
Comm    | 0.93548    | 0.93548    | 0.93548    |   0.0 |  1.06
Output  | 0.00025797 | 0.00025797 | 0.00025797 |   0.0 |  0.00
Modify  | 1.1945     | 1.1945     | 1.1945     |   0.0 |  1.35
Other   |            | 0.3177     |            |       |  0.36

Nlocal:    19652 ave 19652 max 19652 min
Histogram: 1 0 0 0 0 0 0 0 0 0
Nghost:    17818 ave 17818 max 17818 min
Histogram: 1 0 0 0 0 0 0 0 0 0
Neighs:    1.39018e+06 ave 1.39018e+06 max 1.39018e+06 min
Histogram: 1 0 0 0 0 0 0 0 0 0

Total # of neighbors = 1390182
Ave neighs/atom = 70.74
Neighbor list builds = 495
Dangerous builds not checked
Setting up Verlet run ...
  Unit style    : metal
  Current step  : 55495
  Time step     : 0.001
Per MPI rank memory allocation (min/avg/max) = 18.19 | 18.19 | 18.19 Mbytes
Step Temp Press TotEng PotEng Enthalpy 
   55495    2265.7623    1035.1646   -60332.406   -66087.649    -60102.47 
   60000    2281.4304    1323.7164   -60386.611   -66181.652   -60093.347 
Loop time of 800.202 on 1 procs for 4505 steps with 19652 atoms

Performance: 0.486 ns/day, 49.340 hours/ns, 5.630 timesteps/s
99.8% CPU use with 1 MPI tasks x no OpenMP threads

MPI task timing breakdown:
Section |  min time  |  avg time  |  max time  |%varavg| %total
---------------------------------------------------------------
Pair    | 460.39     | 460.39     | 460.39     |   0.0 | 57.53
Neigh   | 318.81     | 318.81     | 318.81     |   0.0 | 39.84
Comm    | 8.1725     | 8.1725     | 8.1725     |   0.0 |  1.02
Output  | 0.050634   | 0.050634   | 0.050634   |   0.0 |  0.01
Modify  | 10.159     | 10.159     | 10.159     |   0.0 |  1.27
Other   |            | 2.622      |            |       |  0.33

Nlocal:    19652 ave 19652 max 19652 min
Histogram: 1 0 0 0 0 0 0 0 0 0
Nghost:    17838 ave 17838 max 17838 min
Histogram: 1 0 0 0 0 0 0 0 0 0
Neighs:    1.39385e+06 ave 1.39385e+06 max 1.39385e+06 min
Histogram: 1 0 0 0 0 0 0 0 0 0

Total # of neighbors = 1393850
Ave neighs/atom = 70.9266
Neighbor list builds = 4505
Dangerous builds not checked
Setting up Verlet run ...
  Unit style    : metal
  Current step  : 60000
  Time step     : 0.001
Per MPI rank memory allocation (min/avg/max) = 18.19 | 18.19 | 18.19 Mbytes
Step Temp Press TotEng PotEng Enthalpy 
   60000    2281.4304    1323.7164   -60386.611   -66181.652   -60093.347 
   60495    2230.5808   -5.8950631    -60662.46   -66328.338   -60663.764 
Loop time of 82.9344 on 1 procs for 495 steps with 19652 atoms

Performance: 0.516 ns/day, 46.540 hours/ns, 5.969 timesteps/s
99.4% CPU use with 1 MPI tasks x no OpenMP threads

MPI task timing breakdown:
Section |  min time  |  avg time  |  max time  |%varavg| %total
---------------------------------------------------------------
Pair    | 47.168     | 47.168     | 47.168     |   0.0 | 56.87
Neigh   | 33.697     | 33.697     | 33.697     |   0.0 | 40.63
Comm    | 0.81269    | 0.81269    | 0.81269    |   0.0 |  0.98
Output  | 0.00022912 | 0.00022912 | 0.00022912 |   0.0 |  0.00
Modify  | 1.0077     | 1.0077     | 1.0077     |   0.0 |  1.22
Other   |            | 0.2488     |            |       |  0.30

Nlocal:    19652 ave 19652 max 19652 min
Histogram: 1 0 0 0 0 0 0 0 0 0
Nghost:    17846 ave 17846 max 17846 min
Histogram: 1 0 0 0 0 0 0 0 0 0
Neighs:    1.39568e+06 ave 1.39568e+06 max 1.39568e+06 min
Histogram: 1 0 0 0 0 0 0 0 0 0

Total # of neighbors = 1395681
Ave neighs/atom = 71.0198
Neighbor list builds = 495
Dangerous builds not checked
Setting up Verlet run ...
  Unit style    : metal
  Current step  : 60495
  Time step     : 0.001
Per MPI rank memory allocation (min/avg/max) = 18.19 | 18.19 | 18.19 Mbytes
Step Temp Press TotEng PotEng Enthalpy 
   60495    2230.5808   -5.8950631    -60662.46   -66328.338   -60663.764 
   65000    2210.5365   -832.23912   -60795.887   -66410.851   -60979.709 
Loop time of 792.65 on 1 procs for 4505 steps with 19652 atoms

Performance: 0.491 ns/day, 48.875 hours/ns, 5.683 timesteps/s
99.7% CPU use with 1 MPI tasks x no OpenMP threads

MPI task timing breakdown:
Section |  min time  |  avg time  |  max time  |%varavg| %total
---------------------------------------------------------------
Pair    | 453.72     | 453.72     | 453.72     |   0.0 | 57.24
Neigh   | 318        | 318        | 318        |   0.0 | 40.12
Comm    | 8.2269     | 8.2269     | 8.2269     |   0.0 |  1.04
Output  | 0.053209   | 0.053209   | 0.053209   |   0.0 |  0.01
Modify  | 10.125     | 10.125     | 10.125     |   0.0 |  1.28
Other   |            | 2.523      |            |       |  0.32

Nlocal:    19652 ave 19652 max 19652 min
Histogram: 1 0 0 0 0 0 0 0 0 0
Nghost:    17919 ave 17919 max 17919 min
Histogram: 1 0 0 0 0 0 0 0 0 0
Neighs:    1.39838e+06 ave 1.39838e+06 max 1.39838e+06 min
Histogram: 1 0 0 0 0 0 0 0 0 0

Total # of neighbors = 1398383
Ave neighs/atom = 71.1573
Neighbor list builds = 4505
Dangerous builds not checked
Setting up Verlet run ...
  Unit style    : metal
  Current step  : 65000
  Time step     : 0.001
Per MPI rank memory allocation (min/avg/max) = 18.19 | 18.19 | 18.19 Mbytes
Step Temp Press TotEng PotEng Enthalpy 
   65000    2210.5365   -832.23912   -60795.887   -66410.851   -60979.709 
   65495    2155.0979    228.59981   -61070.784   -66544.929   -61020.493 
Loop time of 84.9159 on 1 procs for 495 steps with 19652 atoms

Performance: 0.504 ns/day, 47.652 hours/ns, 5.829 timesteps/s
99.6% CPU use with 1 MPI tasks x no OpenMP threads

MPI task timing breakdown:
Section |  min time  |  avg time  |  max time  |%varavg| %total
---------------------------------------------------------------
Pair    | 48.44      | 48.44      | 48.44      |   0.0 | 57.04
Neigh   | 34.215     | 34.215     | 34.215     |   0.0 | 40.29
Comm    | 0.88889    | 0.88889    | 0.88889    |   0.0 |  1.05
Output  | 0.0002079  | 0.0002079  | 0.0002079  |   0.0 |  0.00
Modify  | 1.1005     | 1.1005     | 1.1005     |   0.0 |  1.30
Other   |            | 0.2708     |            |       |  0.32

Nlocal:    19652 ave 19652 max 19652 min
Histogram: 1 0 0 0 0 0 0 0 0 0
Nghost:    17890 ave 17890 max 17890 min
Histogram: 1 0 0 0 0 0 0 0 0 0
Neighs:    1.40322e+06 ave 1.40322e+06 max 1.40322e+06 min
Histogram: 1 0 0 0 0 0 0 0 0 0

Total # of neighbors = 1403219
Ave neighs/atom = 71.4034
Neighbor list builds = 495
Dangerous builds not checked
Setting up Verlet run ...
  Unit style    : metal
  Current step  : 65495
  Time step     : 0.001
Per MPI rank memory allocation (min/avg/max) = 18.19 | 18.19 | 18.19 Mbytes
Step Temp Press TotEng PotEng Enthalpy 
   65495    2155.0979    228.59981   -61070.784   -66544.929   -61020.493 
   70000    2144.2965   -1359.1277   -61121.922    -66568.63   -61421.248 
Loop time of 768.553 on 1 procs for 4505 steps with 19652 atoms

Performance: 0.506 ns/day, 47.389 hours/ns, 5.862 timesteps/s
99.7% CPU use with 1 MPI tasks x no OpenMP threads

MPI task timing breakdown:
Section |  min time  |  avg time  |  max time  |%varavg| %total
---------------------------------------------------------------
Pair    | 436.46     | 436.46     | 436.46     |   0.0 | 56.79
Neigh   | 312.55     | 312.55     | 312.55     |   0.0 | 40.67
Comm    | 7.7004     | 7.7004     | 7.7004     |   0.0 |  1.00
Output  | 0.051873   | 0.051873   | 0.051873   |   0.0 |  0.01
Modify  | 9.4452     | 9.4452     | 9.4452     |   0.0 |  1.23
Other   |            | 2.338      |            |       |  0.30

Nlocal:    19652 ave 19652 max 19652 min
Histogram: 1 0 0 0 0 0 0 0 0 0
Nghost:    17878 ave 17878 max 17878 min
Histogram: 1 0 0 0 0 0 0 0 0 0
Neighs:    1.40247e+06 ave 1.40247e+06 max 1.40247e+06 min
Histogram: 1 0 0 0 0 0 0 0 0 0

Total # of neighbors = 1402467
Ave neighs/atom = 71.3651
Neighbor list builds = 4505
Dangerous builds not checked
Setting up Verlet run ...
  Unit style    : metal
  Current step  : 70000
  Time step     : 0.001
Per MPI rank memory allocation (min/avg/max) = 18.19 | 18.19 | 18.19 Mbytes
Step Temp Press TotEng PotEng Enthalpy 
   70000    2144.2965   -1359.1277   -61121.922    -66568.63   -61421.248 
   70495    2106.5189   -417.40899   -61373.783   -66724.532   -61465.296 
Loop time of 81.7548 on 1 procs for 495 steps with 19652 atoms

Performance: 0.523 ns/day, 45.878 hours/ns, 6.055 timesteps/s
99.7% CPU use with 1 MPI tasks x no OpenMP threads

MPI task timing breakdown:
Section |  min time  |  avg time  |  max time  |%varavg| %total
---------------------------------------------------------------
Pair    | 46.29      | 46.29      | 46.29      |   0.0 | 56.62
Neigh   | 33.463     | 33.463     | 33.463     |   0.0 | 40.93
Comm    | 0.78605    | 0.78605    | 0.78605    |   0.0 |  0.96
Output  | 0.00022602 | 0.00022602 | 0.00022602 |   0.0 |  0.00
Modify  | 0.97588    | 0.97588    | 0.97588    |   0.0 |  1.19
Other   |            | 0.2396     |            |       |  0.29

Nlocal:    19652 ave 19652 max 19652 min
Histogram: 1 0 0 0 0 0 0 0 0 0
Nghost:    17927 ave 17927 max 17927 min
Histogram: 1 0 0 0 0 0 0 0 0 0
Neighs:    1.40856e+06 ave 1.40856e+06 max 1.40856e+06 min
Histogram: 1 0 0 0 0 0 0 0 0 0

Total # of neighbors = 1408564
Ave neighs/atom = 71.6754
Neighbor list builds = 495
Dangerous builds not checked
Setting up Verlet run ...
  Unit style    : metal
  Current step  : 70495
  Time step     : 0.001
Per MPI rank memory allocation (min/avg/max) = 18.19 | 18.19 | 18.19 Mbytes
Step Temp Press TotEng PotEng Enthalpy 
   70495    2106.5189   -417.40899   -61373.783   -66724.532   -61465.296 
   75000    2073.4351   -526.63603   -61486.475   -66753.189   -61601.828 
Loop time of 771.612 on 1 procs for 4505 steps with 19652 atoms

Performance: 0.504 ns/day, 47.578 hours/ns, 5.838 timesteps/s
99.8% CPU use with 1 MPI tasks x no OpenMP threads

MPI task timing breakdown:
Section |  min time  |  avg time  |  max time  |%varavg| %total
---------------------------------------------------------------
Pair    | 439.43     | 439.43     | 439.43     |   0.0 | 56.95
Neigh   | 312.66     | 312.66     | 312.66     |   0.0 | 40.52
Comm    | 7.6725     | 7.6725     | 7.6725     |   0.0 |  0.99
Output  | 0.052113   | 0.052113   | 0.052113   |   0.0 |  0.01
Modify  | 9.442      | 9.442      | 9.442      |   0.0 |  1.22
Other   |            | 2.354      |            |       |  0.31

Nlocal:    19652 ave 19652 max 19652 min
Histogram: 1 0 0 0 0 0 0 0 0 0
Nghost:    17949 ave 17949 max 17949 min
Histogram: 1 0 0 0 0 0 0 0 0 0
Neighs:    1.40967e+06 ave 1.40967e+06 max 1.40967e+06 min
Histogram: 1 0 0 0 0 0 0 0 0 0

Total # of neighbors = 1409669
Ave neighs/atom = 71.7316
Neighbor list builds = 4505
Dangerous builds not checked
Setting up Verlet run ...
  Unit style    : metal
  Current step  : 75000
  Time step     : 0.001
Per MPI rank memory allocation (min/avg/max) = 18.19 | 18.19 | 18.19 Mbytes
Step Temp Press TotEng PotEng Enthalpy 
   75000    2073.4351   -526.63603   -61486.475   -66753.189   -61601.828 
   75495    2048.3385   -106.19453    -61721.63   -66924.596   -61744.793 
Loop time of 86.635 on 1 procs for 495 steps with 19652 atoms

Performance: 0.494 ns/day, 48.617 hours/ns, 5.714 timesteps/s
99.8% CPU use with 1 MPI tasks x no OpenMP threads

MPI task timing breakdown:
Section |  min time  |  avg time  |  max time  |%varavg| %total
---------------------------------------------------------------
Pair    | 49.936     | 49.936     | 49.936     |   0.0 | 57.64
Neigh   | 34.408     | 34.408     | 34.408     |   0.0 | 39.72
Comm    | 0.88749    | 0.88749    | 0.88749    |   0.0 |  1.02
Output  | 0.00019002 | 0.00019002 | 0.00019002 |   0.0 |  0.00
Modify  | 1.12       | 1.12       | 1.12       |   0.0 |  1.29
Other   |            | 0.2832     |            |       |  0.33

Nlocal:    19652 ave 19652 max 19652 min
Histogram: 1 0 0 0 0 0 0 0 0 0
Nghost:    17954 ave 17954 max 17954 min
Histogram: 1 0 0 0 0 0 0 0 0 0
Neighs:    1.41646e+06 ave 1.41646e+06 max 1.41646e+06 min
Histogram: 1 0 0 0 0 0 0 0 0 0

Total # of neighbors = 1416459
Ave neighs/atom = 72.0771
Neighbor list builds = 495
Dangerous builds not checked
Setting up Verlet run ...
  Unit style    : metal
  Current step  : 75495
  Time step     : 0.001
Per MPI rank memory allocation (min/avg/max) = 18.19 | 18.19 | 18.19 Mbytes
Step Temp Press TotEng PotEng Enthalpy 
   75495    2048.3385   -106.19453    -61721.63   -66924.596   -61744.793 
   80000    2039.6645   -684.98005   -61805.053   -66985.986   -61954.425 
Loop time of 767.755 on 1 procs for 4505 steps with 19652 atoms

Performance: 0.507 ns/day, 47.340 hours/ns, 5.868 timesteps/s
99.8% CPU use with 1 MPI tasks x no OpenMP threads

MPI task timing breakdown:
Section |  min time  |  avg time  |  max time  |%varavg| %total
---------------------------------------------------------------
Pair    | 437.09     | 437.09     | 437.09     |   0.0 | 56.93
Neigh   | 311.48     | 311.48     | 311.48     |   0.0 | 40.57
Comm    | 7.5558     | 7.5558     | 7.5558     |   0.0 |  0.98
Output  | 0.051848   | 0.051848   | 0.051848   |   0.0 |  0.01
Modify  | 9.2647     | 9.2647     | 9.2647     |   0.0 |  1.21
Other   |            | 2.315      |            |       |  0.30

Nlocal:    19652 ave 19652 max 19652 min
Histogram: 1 0 0 0 0 0 0 0 0 0
Nghost:    17935 ave 17935 max 17935 min
Histogram: 1 0 0 0 0 0 0 0 0 0
Neighs:    1.41608e+06 ave 1.41608e+06 max 1.41608e+06 min
Histogram: 1 0 0 0 0 0 0 0 0 0

Total # of neighbors = 1416085
Ave neighs/atom = 72.0581
Neighbor list builds = 4505
Dangerous builds not checked
Setting up Verlet run ...
  Unit style    : metal
  Current step  : 80000
  Time step     : 0.001
Per MPI rank memory allocation (min/avg/max) = 18.19 | 18.19 | 18.19 Mbytes
Step Temp Press TotEng PotEng Enthalpy 
   80000    2039.6645   -684.98005   -61805.053   -66985.986   -61954.425 
   80495    2007.3986    939.15104   -61993.997   -67092.973   -61790.016 
Loop time of 84.2871 on 1 procs for 495 steps with 19652 atoms

Performance: 0.507 ns/day, 47.299 hours/ns, 5.873 timesteps/s
99.8% CPU use with 1 MPI tasks x no OpenMP threads

MPI task timing breakdown:
Section |  min time  |  avg time  |  max time  |%varavg| %total
---------------------------------------------------------------
Pair    | 48.198     | 48.198     | 48.198     |   0.0 | 57.18
Neigh   | 33.927     | 33.927     | 33.927     |   0.0 | 40.25
Comm    | 0.84291    | 0.84291    | 0.84291    |   0.0 |  1.00
Output  | 0.00021696 | 0.00021696 | 0.00021696 |   0.0 |  0.00
Modify  | 1.0555     | 1.0555     | 1.0555     |   0.0 |  1.25
Other   |            | 0.2643     |            |       |  0.31

Nlocal:    19652 ave 19652 max 19652 min
Histogram: 1 0 0 0 0 0 0 0 0 0
Nghost:    17964 ave 17964 max 17964 min
Histogram: 1 0 0 0 0 0 0 0 0 0
Neighs:    1.42202e+06 ave 1.42202e+06 max 1.42202e+06 min
Histogram: 1 0 0 0 0 0 0 0 0 0

Total # of neighbors = 1422021
Ave neighs/atom = 72.3601
Neighbor list builds = 495
Dangerous builds not checked
Setting up Verlet run ...
  Unit style    : metal
  Current step  : 80495
  Time step     : 0.001
Per MPI rank memory allocation (min/avg/max) = 18.19 | 18.19 | 18.19 Mbytes
Step Temp Press TotEng PotEng Enthalpy 
   80495    2007.3986    939.15104   -61993.997   -67092.973   -61790.016 
   85000    2020.6007   -380.06268   -62145.668   -67278.178   -62228.051 
Loop time of 789.762 on 1 procs for 4505 steps with 19652 atoms

Performance: 0.493 ns/day, 48.697 hours/ns, 5.704 timesteps/s
99.8% CPU use with 1 MPI tasks x no OpenMP threads

MPI task timing breakdown:
Section |  min time  |  avg time  |  max time  |%varavg| %total
---------------------------------------------------------------
Pair    | 453.72     | 453.72     | 453.72     |   0.0 | 57.45
Neigh   | 315.62     | 315.62     | 315.62     |   0.0 | 39.96
Comm    | 8.0785     | 8.0785     | 8.0785     |   0.0 |  1.02
Output  | 0.051015   | 0.051015   | 0.051015   |   0.0 |  0.01
Modify  | 9.8813     | 9.8813     | 9.8813     |   0.0 |  1.25
Other   |            | 2.409      |            |       |  0.31

Nlocal:    19652 ave 19652 max 19652 min
Histogram: 1 0 0 0 0 0 0 0 0 0
Nghost:    17935 ave 17935 max 17935 min
Histogram: 1 0 0 0 0 0 0 0 0 0
Neighs:    1.42491e+06 ave 1.42491e+06 max 1.42491e+06 min
Histogram: 1 0 0 0 0 0 0 0 0 0

Total # of neighbors = 1424914
Ave neighs/atom = 72.5073
Neighbor list builds = 4505
Dangerous builds not checked
Setting up Verlet run ...
  Unit style    : metal
  Current step  : 85000
  Time step     : 0.001
Per MPI rank memory allocation (min/avg/max) = 18.19 | 18.19 | 18.19 Mbytes
Step Temp Press TotEng PotEng Enthalpy 
   85000    2020.6007   -380.06268   -62145.668   -67278.178   -62228.051 
   85495    1955.8016   -361.95289    -62359.07   -67326.985   -62437.433 
Loop time of 88.0826 on 1 procs for 495 steps with 19652 atoms

Performance: 0.486 ns/day, 49.429 hours/ns, 5.620 timesteps/s
99.9% CPU use with 1 MPI tasks x no OpenMP threads

MPI task timing breakdown:
Section |  min time  |  avg time  |  max time  |%varavg| %total
---------------------------------------------------------------
Pair    | 51.286     | 51.286     | 51.286     |   0.0 | 58.23
Neigh   | 34.495     | 34.495     | 34.495     |   0.0 | 39.16
Comm    | 0.89012    | 0.89012    | 0.89012    |   0.0 |  1.01
Output  | 0.00027609 | 0.00027609 | 0.00027609 |   0.0 |  0.00
Modify  | 1.1219     | 1.1219     | 1.1219     |   0.0 |  1.27
Other   |            | 0.289      |            |       |  0.33

Nlocal:    19652 ave 19652 max 19652 min
Histogram: 1 0 0 0 0 0 0 0 0 0
Nghost:    17931 ave 17931 max 17931 min
Histogram: 1 0 0 0 0 0 0 0 0 0
Neighs:    1.4266e+06 ave 1.4266e+06 max 1.4266e+06 min
Histogram: 1 0 0 0 0 0 0 0 0 0

Total # of neighbors = 1426597
Ave neighs/atom = 72.593
Neighbor list builds = 495
Dangerous builds not checked
Setting up Verlet run ...
  Unit style    : metal
  Current step  : 85495
  Time step     : 0.001
Per MPI rank memory allocation (min/avg/max) = 18.19 | 18.19 | 18.19 Mbytes
Step Temp Press TotEng PotEng Enthalpy 
   85495    1955.8016   -361.95289    -62359.07   -67326.985   -62437.433 
   90000    1936.4501   -1902.5217   -62491.403   -67410.163   -62902.986 
Loop time of 811.845 on 1 procs for 4505 steps with 19652 atoms

Performance: 0.479 ns/day, 50.058 hours/ns, 5.549 timesteps/s
99.8% CPU use with 1 MPI tasks x no OpenMP threads

MPI task timing breakdown:
Section |  min time  |  avg time  |  max time  |%varavg| %total
---------------------------------------------------------------
Pair    | 470.4      | 470.4      | 470.4      |   0.0 | 57.94
Neigh   | 319.59     | 319.59     | 319.59     |   0.0 | 39.37
Comm    | 8.6757     | 8.6757     | 8.6757     |   0.0 |  1.07
Output  | 0.053514   | 0.053514   | 0.053514   |   0.0 |  0.01
Modify  | 10.575     | 10.575     | 10.575     |   0.0 |  1.30
Other   |            | 2.554      |            |       |  0.31

Nlocal:    19652 ave 19652 max 19652 min
Histogram: 1 0 0 0 0 0 0 0 0 0
Nghost:    18002 ave 18002 max 18002 min
Histogram: 1 0 0 0 0 0 0 0 0 0
Neighs:    1.4279e+06 ave 1.4279e+06 max 1.4279e+06 min
Histogram: 1 0 0 0 0 0 0 0 0 0

Total # of neighbors = 1427903
Ave neighs/atom = 72.6594
Neighbor list builds = 4505
Dangerous builds not checked
Setting up Verlet run ...
  Unit style    : metal
  Current step  : 90000
  Time step     : 0.001
Per MPI rank memory allocation (min/avg/max) = 18.19 | 18.19 | 18.19 Mbytes
Step Temp Press TotEng PotEng Enthalpy 
   90000    1936.4501   -1902.5217   -62491.403   -67410.163   -62902.986 
   90495    1893.7878   -1369.1005   -62714.845   -67525.239   -63009.996 
Loop time of 85.5243 on 1 procs for 495 steps with 19652 atoms

Performance: 0.500 ns/day, 47.993 hours/ns, 5.788 timesteps/s
99.9% CPU use with 1 MPI tasks x no OpenMP threads

MPI task timing breakdown:
Section |  min time  |  avg time  |  max time  |%varavg| %total
---------------------------------------------------------------
Pair    | 49.247     | 49.247     | 49.247     |   0.0 | 57.58
Neigh   | 34.055     | 34.055     | 34.055     |   0.0 | 39.82
Comm    | 0.87178    | 0.87178    | 0.87178    |   0.0 |  1.02
Output  | 0.00023794 | 0.00023794 | 0.00023794 |   0.0 |  0.00
Modify  | 1.0769     | 1.0769     | 1.0769     |   0.0 |  1.26
Other   |            | 0.2729     |            |       |  0.32

Nlocal:    19652 ave 19652 max 19652 min
Histogram: 1 0 0 0 0 0 0 0 0 0
Nghost:    17994 ave 17994 max 17994 min
Histogram: 1 0 0 0 0 0 0 0 0 0
Neighs:    1.43254e+06 ave 1.43254e+06 max 1.43254e+06 min
Histogram: 1 0 0 0 0 0 0 0 0 0

Total # of neighbors = 1432543
Ave neighs/atom = 72.8955
Neighbor list builds = 495
Dangerous builds not checked
Setting up Verlet run ...
  Unit style    : metal
  Current step  : 90495
  Time step     : 0.001
Per MPI rank memory allocation (min/avg/max) = 18.19 | 18.19 | 18.19 Mbytes
Step Temp Press TotEng PotEng Enthalpy 
   90495    1893.7878   -1369.1005   -62714.845   -67525.239   -63009.996 
   95000    1901.3403    806.15119   -62753.955   -67583.533   -62580.643 
Loop time of 811.191 on 1 procs for 4505 steps with 19652 atoms

Performance: 0.480 ns/day, 50.018 hours/ns, 5.554 timesteps/s
99.8% CPU use with 1 MPI tasks x no OpenMP threads

MPI task timing breakdown:
Section |  min time  |  avg time  |  max time  |%varavg| %total
---------------------------------------------------------------
Pair    | 470.81     | 470.81     | 470.81     |   0.0 | 58.04
Neigh   | 319.26     | 319.26     | 319.26     |   0.0 | 39.36
Comm    | 8.3314     | 8.3314     | 8.3314     |   0.0 |  1.03
Output  | 0.051975   | 0.051975   | 0.051975   |   0.0 |  0.01
Modify  | 10.159     | 10.159     | 10.159     |   0.0 |  1.25
Other   |            | 2.579      |            |       |  0.32

Nlocal:    19652 ave 19652 max 19652 min
Histogram: 1 0 0 0 0 0 0 0 0 0
Nghost:    18067 ave 18067 max 18067 min
Histogram: 1 0 0 0 0 0 0 0 0 0
Neighs:    1.43611e+06 ave 1.43611e+06 max 1.43611e+06 min
Histogram: 1 0 0 0 0 0 0 0 0 0

Total # of neighbors = 1436109
Ave neighs/atom = 73.077
Neighbor list builds = 4505
Dangerous builds not checked
Setting up Verlet run ...
  Unit style    : metal
  Current step  : 95000
  Time step     : 0.001
Per MPI rank memory allocation (min/avg/max) = 18.19 | 18.19 | 18.19 Mbytes
Step Temp Press TotEng PotEng Enthalpy 
   95000    1901.3403    806.15119   -62753.955   -67583.533   -62580.643 
   95495    1858.5344    976.12926   -63023.446   -67744.293    -62814.28 
Loop time of 90.8346 on 1 procs for 495 steps with 19652 atoms

Performance: 0.471 ns/day, 50.973 hours/ns, 5.449 timesteps/s
99.8% CPU use with 1 MPI tasks x no OpenMP threads

MPI task timing breakdown:
Section |  min time  |  avg time  |  max time  |%varavg| %total
---------------------------------------------------------------
Pair    | 53.022     | 53.022     | 53.022     |   0.0 | 58.37
Neigh   | 35.252     | 35.252     | 35.252     |   0.0 | 38.81
Comm    | 1.0098     | 1.0098     | 1.0098     |   0.0 |  1.11
Output  | 0.000247   | 0.000247   | 0.000247   |   0.0 |  0.00
Modify  | 1.24       | 1.24       | 1.24       |   0.0 |  1.37
Other   |            | 0.3106     |            |       |  0.34

Nlocal:    19652 ave 19652 max 19652 min
Histogram: 1 0 0 0 0 0 0 0 0 0
Nghost:    18169 ave 18169 max 18169 min
Histogram: 1 0 0 0 0 0 0 0 0 0
Neighs:    1.44094e+06 ave 1.44094e+06 max 1.44094e+06 min
Histogram: 1 0 0 0 0 0 0 0 0 0

Total # of neighbors = 1440942
Ave neighs/atom = 73.3229
Neighbor list builds = 495
Dangerous builds not checked
Setting up Verlet run ...
  Unit style    : metal
  Current step  : 95495
  Time step     : 0.001
Per MPI rank memory allocation (min/avg/max) = 18.19 | 18.19 | 18.19 Mbytes
Step Temp Press TotEng PotEng Enthalpy 
   95495    1858.5344    976.12926   -63023.446   -67744.293    -62814.28 
  100000    1838.2633    1582.4498    -63193.23   -67862.586   -62855.052 
Loop time of 811.974 on 1 procs for 4505 steps with 19652 atoms

Performance: 0.479 ns/day, 50.066 hours/ns, 5.548 timesteps/s
99.8% CPU use with 1 MPI tasks x no OpenMP threads

MPI task timing breakdown:
Section |  min time  |  avg time  |  max time  |%varavg| %total
---------------------------------------------------------------
Pair    | 470.16     | 470.16     | 470.16     |   0.0 | 57.90
Neigh   | 320.23     | 320.23     | 320.23     |   0.0 | 39.44
Comm    | 8.5883     | 8.5883     | 8.5883     |   0.0 |  1.06
Output  | 0.050906   | 0.050906   | 0.050906   |   0.0 |  0.01
Modify  | 10.357     | 10.357     | 10.357     |   0.0 |  1.28
Other   |            | 2.59       |            |       |  0.32

Nlocal:    19652 ave 19652 max 19652 min
Histogram: 1 0 0 0 0 0 0 0 0 0
Nghost:    18059 ave 18059 max 18059 min
Histogram: 1 0 0 0 0 0 0 0 0 0
Neighs:    1.44502e+06 ave 1.44502e+06 max 1.44502e+06 min
Histogram: 1 0 0 0 0 0 0 0 0 0

Total # of neighbors = 1445022
Ave neighs/atom = 73.5305
Neighbor list builds = 4505
Dangerous builds not checked
Setting up Verlet run ...
  Unit style    : metal
  Current step  : 100000
  Time step     : 0.001
Per MPI rank memory allocation (min/avg/max) = 18.19 | 18.19 | 18.19 Mbytes
Step Temp Press TotEng PotEng Enthalpy 
  100000    1838.2633    1582.4498    -63193.23   -67862.586   -62855.052 
  100495      1824.49     249.7019    -63262.19   -67896.561   -63208.806 
Loop time of 82.9637 on 1 procs for 495 steps with 19652 atoms

Performance: 0.516 ns/day, 46.556 hours/ns, 5.966 timesteps/s
99.7% CPU use with 1 MPI tasks x no OpenMP threads

MPI task timing breakdown:
Section |  min time  |  avg time  |  max time  |%varavg| %total
---------------------------------------------------------------
Pair    | 47.434     | 47.434     | 47.434     |   0.0 | 57.17
Neigh   | 33.521     | 33.521     | 33.521     |   0.0 | 40.40
Comm    | 0.79633    | 0.79633    | 0.79633    |   0.0 |  0.96
Output  | 0.00022602 | 0.00022602 | 0.00022602 |   0.0 |  0.00
Modify  | 0.9742     | 0.9742     | 0.9742     |   0.0 |  1.17
Other   |            | 0.2379     |            |       |  0.29

Nlocal:    19652 ave 19652 max 19652 min
Histogram: 1 0 0 0 0 0 0 0 0 0
Nghost:    18013 ave 18013 max 18013 min
Histogram: 1 0 0 0 0 0 0 0 0 0
Neighs:    1.44432e+06 ave 1.44432e+06 max 1.44432e+06 min
Histogram: 1 0 0 0 0 0 0 0 0 0

Total # of neighbors = 1444317
Ave neighs/atom = 73.4947
Neighbor list builds = 495
Dangerous builds not checked
Setting up Verlet run ...
  Unit style    : metal
  Current step  : 100495
  Time step     : 0.001
Per MPI rank memory allocation (min/avg/max) = 18.19 | 18.19 | 18.19 Mbytes
Step Temp Press TotEng PotEng Enthalpy 
  100495      1824.49     249.7019    -63262.19   -67896.561   -63208.806 
  105000     1793.508    -71.08181   -63463.985   -68019.659   -63479.139 
Loop time of 821.263 on 1 procs for 4505 steps with 19652 atoms

Performance: 0.474 ns/day, 50.639 hours/ns, 5.485 timesteps/s
99.8% CPU use with 1 MPI tasks x no OpenMP threads

MPI task timing breakdown:
Section |  min time  |  avg time  |  max time  |%varavg| %total
---------------------------------------------------------------
Pair    | 477.67     | 477.67     | 477.67     |   0.0 | 58.16
Neigh   | 321.67     | 321.67     | 321.67     |   0.0 | 39.17
Comm    | 8.6711     | 8.6711     | 8.6711     |   0.0 |  1.06
Output  | 0.051165   | 0.051165   | 0.051165   |   0.0 |  0.01
Modify  | 10.51      | 10.51      | 10.51      |   0.0 |  1.28
Other   |            | 2.697      |            |       |  0.33

Nlocal:    19652 ave 19652 max 19652 min
Histogram: 1 0 0 0 0 0 0 0 0 0
Nghost:    18100 ave 18100 max 18100 min
Histogram: 1 0 0 0 0 0 0 0 0 0
Neighs:    1.44883e+06 ave 1.44883e+06 max 1.44883e+06 min
Histogram: 1 0 0 0 0 0 0 0 0 0

Total # of neighbors = 1448829
Ave neighs/atom = 73.7243
Neighbor list builds = 4505
Dangerous builds not checked
Setting up Verlet run ...
  Unit style    : metal
  Current step  : 105000
  Time step     : 0.001
Per MPI rank memory allocation (min/avg/max) = 18.19 | 18.19 | 18.19 Mbytes
Step Temp Press TotEng PotEng Enthalpy 
  105000     1793.508    -71.08181   -63463.985   -68019.659   -63479.139 
  105495    1753.2207    473.67841   -63709.409   -68162.749   -63608.758 
Loop time of 81.47 on 1 procs for 495 steps with 19652 atoms

Performance: 0.525 ns/day, 45.718 hours/ns, 6.076 timesteps/s
99.9% CPU use with 1 MPI tasks x no OpenMP threads

MPI task timing breakdown:
Section |  min time  |  avg time  |  max time  |%varavg| %total
---------------------------------------------------------------
Pair    | 46.363     | 46.363     | 46.363     |   0.0 | 56.91
Neigh   | 33.182     | 33.182     | 33.182     |   0.0 | 40.73
Comm    | 0.75742    | 0.75742    | 0.75742    |   0.0 |  0.93
Output  | 0.00021505 | 0.00021505 | 0.00021505 |   0.0 |  0.00
Modify  | 0.93187    | 0.93187    | 0.93187    |   0.0 |  1.14
Other   |            | 0.2359     |            |       |  0.29

Nlocal:    19652 ave 19652 max 19652 min
Histogram: 1 0 0 0 0 0 0 0 0 0
Nghost:    18098 ave 18098 max 18098 min
Histogram: 1 0 0 0 0 0 0 0 0 0
Neighs:    1.45339e+06 ave 1.45339e+06 max 1.45339e+06 min
Histogram: 1 0 0 0 0 0 0 0 0 0

Total # of neighbors = 1453393
Ave neighs/atom = 73.9565
Neighbor list builds = 495
Dangerous builds not checked
Setting up Verlet run ...
  Unit style    : metal
  Current step  : 105495
  Time step     : 0.001
Per MPI rank memory allocation (min/avg/max) = 18.19 | 18.19 | 18.19 Mbytes
Step Temp Press TotEng PotEng Enthalpy 
  105495    1753.2207    473.67841   -63709.409   -68162.749   -63608.758 
  110000     1744.911   -1486.8166   -63844.396   -68276.629   -64160.059 
Loop time of 775.701 on 1 procs for 4505 steps with 19652 atoms

Performance: 0.502 ns/day, 47.830 hours/ns, 5.808 timesteps/s
99.7% CPU use with 1 MPI tasks x no OpenMP threads

MPI task timing breakdown:
Section |  min time  |  avg time  |  max time  |%varavg| %total
---------------------------------------------------------------
Pair    | 444.62     | 444.62     | 444.62     |   0.0 | 57.32
Neigh   | 311.88     | 311.88     | 311.88     |   0.0 | 40.21
Comm    | 7.5993     | 7.5993     | 7.5993     |   0.0 |  0.98
Output  | 0.052221   | 0.052221   | 0.052221   |   0.0 |  0.01
Modify  | 9.2237     | 9.2237     | 9.2237     |   0.0 |  1.19
Other   |            | 2.328      |            |       |  0.30

Nlocal:    19652 ave 19652 max 19652 min
Histogram: 1 0 0 0 0 0 0 0 0 0
Nghost:    18149 ave 18149 max 18149 min
Histogram: 1 0 0 0 0 0 0 0 0 0
Neighs:    1.45469e+06 ave 1.45469e+06 max 1.45469e+06 min
Histogram: 1 0 0 0 0 0 0 0 0 0

Total # of neighbors = 1454692
Ave neighs/atom = 74.0226
Neighbor list builds = 4505
Dangerous builds not checked
Setting up Verlet run ...
  Unit style    : metal
  Current step  : 110000
  Time step     : 0.001
Per MPI rank memory allocation (min/avg/max) = 18.19 | 18.19 | 18.19 Mbytes
Step Temp Press TotEng PotEng Enthalpy 
  110000     1744.911   -1486.8166   -63844.396   -68276.629   -64160.059 
  110495    1706.3308     12.57572   -64034.581   -68368.817    -64031.92 
Loop time of 91.7528 on 1 procs for 495 steps with 19652 atoms

Performance: 0.466 ns/day, 51.489 hours/ns, 5.395 timesteps/s
99.8% CPU use with 1 MPI tasks x no OpenMP threads

MPI task timing breakdown:
Section |  min time  |  avg time  |  max time  |%varavg| %total
---------------------------------------------------------------
Pair    | 53.689     | 53.689     | 53.689     |   0.0 | 58.52
Neigh   | 35.453     | 35.453     | 35.453     |   0.0 | 38.64
Comm    | 1.028      | 1.028      | 1.028      |   0.0 |  1.12
Output  | 0.00026321 | 0.00026321 | 0.00026321 |   0.0 |  0.00
Modify  | 1.2648     | 1.2648     | 1.2648     |   0.0 |  1.38
Other   |            | 0.317      |            |       |  0.35

Nlocal:    19652 ave 19652 max 19652 min
Histogram: 1 0 0 0 0 0 0 0 0 0
Nghost:    18213 ave 18213 max 18213 min
Histogram: 1 0 0 0 0 0 0 0 0 0
Neighs:    1.45889e+06 ave 1.45889e+06 max 1.45889e+06 min
Histogram: 1 0 0 0 0 0 0 0 0 0

Total # of neighbors = 1458890
Ave neighs/atom = 74.2362
Neighbor list builds = 495
Dangerous builds not checked
Setting up Verlet run ...
  Unit style    : metal
  Current step  : 110495
  Time step     : 0.001
Per MPI rank memory allocation (min/avg/max) = 18.19 | 18.19 | 18.19 Mbytes
Step Temp Press TotEng PotEng Enthalpy 
  110495    1706.3308     12.57572   -64034.581   -68368.817    -64031.92 
  115000    1714.9432    23.347328   -64118.211   -68474.323   -64113.276 
Loop time of 826 on 1 procs for 4505 steps with 19652 atoms

Performance: 0.471 ns/day, 50.931 hours/ns, 5.454 timesteps/s
99.6% CPU use with 1 MPI tasks x no OpenMP threads

MPI task timing breakdown:
Section |  min time  |  avg time  |  max time  |%varavg| %total
---------------------------------------------------------------
Pair    | 481.31     | 481.31     | 481.31     |   0.0 | 58.27
Neigh   | 322.25     | 322.25     | 322.25     |   0.0 | 39.01
Comm    | 8.9067     | 8.9067     | 8.9067     |   0.0 |  1.08
Output  | 0.051152   | 0.051152   | 0.051152   |   0.0 |  0.01
Modify  | 10.789     | 10.789     | 10.789     |   0.0 |  1.31
Other   |            | 2.689      |            |       |  0.33

Nlocal:    19652 ave 19652 max 19652 min
Histogram: 1 0 0 0 0 0 0 0 0 0
Nghost:    18194 ave 18194 max 18194 min
Histogram: 1 0 0 0 0 0 0 0 0 0
Neighs:    1.46072e+06 ave 1.46072e+06 max 1.46072e+06 min
Histogram: 1 0 0 0 0 0 0 0 0 0

Total # of neighbors = 1460715
Ave neighs/atom = 74.3291
Neighbor list builds = 4505
Dangerous builds not checked
Setting up Verlet run ...
  Unit style    : metal
  Current step  : 115000
  Time step     : 0.001
Per MPI rank memory allocation (min/avg/max) = 18.19 | 18.19 | 18.19 Mbytes
Step Temp Press TotEng PotEng Enthalpy 
  115000    1714.9432    23.347328   -64118.211   -68474.323   -64113.276 
  115495    1673.3638   -430.14568   -64364.477   -68614.973   -64455.151 
Loop time of 81.7741 on 1 procs for 495 steps with 19652 atoms

Performance: 0.523 ns/day, 45.889 hours/ns, 6.053 timesteps/s
99.6% CPU use with 1 MPI tasks x no OpenMP threads

MPI task timing breakdown:
Section |  min time  |  avg time  |  max time  |%varavg| %total
---------------------------------------------------------------
Pair    | 46.711     | 46.711     | 46.711     |   0.0 | 57.12
Neigh   | 33.137     | 33.137     | 33.137     |   0.0 | 40.52
Comm    | 0.75666    | 0.75666    | 0.75666    |   0.0 |  0.93
Output  | 0.00019407 | 0.00019407 | 0.00019407 |   0.0 |  0.00
Modify  | 0.93184    | 0.93184    | 0.93184    |   0.0 |  1.14
Other   |            | 0.2374     |            |       |  0.29

Nlocal:    19652 ave 19652 max 19652 min
Histogram: 1 0 0 0 0 0 0 0 0 0
Nghost:    18173 ave 18173 max 18173 min
Histogram: 1 0 0 0 0 0 0 0 0 0
Neighs:    1.46447e+06 ave 1.46447e+06 max 1.46447e+06 min
Histogram: 1 0 0 0 0 0 0 0 0 0

Total # of neighbors = 1464472
Ave neighs/atom = 74.5203
Neighbor list builds = 495
Dangerous builds not checked
Setting up Verlet run ...
  Unit style    : metal
  Current step  : 115495
  Time step     : 0.001
Per MPI rank memory allocation (min/avg/max) = 18.19 | 18.19 | 18.19 Mbytes
Step Temp Press TotEng PotEng Enthalpy 
  115495    1673.3638   -430.14568   -64364.477   -68614.973   -64455.151 
  120000    1650.5524   -1061.2018   -64505.139   -68697.692   -64728.505 
Loop time of 765.356 on 1 procs for 4505 steps with 19652 atoms

Performance: 0.509 ns/day, 47.192 hours/ns, 5.886 timesteps/s
99.8% CPU use with 1 MPI tasks x no OpenMP threads

MPI task timing breakdown:
Section |  min time  |  avg time  |  max time  |%varavg| %total
---------------------------------------------------------------
Pair    | 439.73     | 439.73     | 439.73     |   0.0 | 57.45
Neigh   | 307.37     | 307.37     | 307.37     |   0.0 | 40.16
Comm    | 7.209      | 7.209      | 7.209      |   0.0 |  0.94
Output  | 0.050664   | 0.050664   | 0.050664   |   0.0 |  0.01
Modify  | 8.7701     | 8.7701     | 8.7701     |   0.0 |  1.15
Other   |            | 2.226      |            |       |  0.29

Nlocal:    19652 ave 19652 max 19652 min
Histogram: 1 0 0 0 0 0 0 0 0 0
Nghost:    18195 ave 18195 max 18195 min
Histogram: 1 0 0 0 0 0 0 0 0 0
Neighs:    1.46741e+06 ave 1.46741e+06 max 1.46741e+06 min
Histogram: 1 0 0 0 0 0 0 0 0 0

Total # of neighbors = 1467410
Ave neighs/atom = 74.6698
Neighbor list builds = 4505
Dangerous builds not checked
Setting up Verlet run ...
  Unit style    : metal
  Current step  : 120000
  Time step     : 0.001
Per MPI rank memory allocation (min/avg/max) = 18.19 | 18.19 | 18.19 Mbytes
Step Temp Press TotEng PotEng Enthalpy 
  120000    1650.5524   -1061.2018   -64505.139   -68697.692   -64728.505 
  120495    1611.8094    684.58071   -64718.728   -68812.871   -64575.112 
Loop time of 84.6764 on 1 procs for 495 steps with 19652 atoms

Performance: 0.505 ns/day, 47.518 hours/ns, 5.846 timesteps/s
99.9% CPU use with 1 MPI tasks x no OpenMP threads

MPI task timing breakdown:
Section |  min time  |  avg time  |  max time  |%varavg| %total
---------------------------------------------------------------
Pair    | 48.896     | 48.896     | 48.896     |   0.0 | 57.74
Neigh   | 33.682     | 33.682     | 33.682     |   0.0 | 39.78
Comm    | 0.82703    | 0.82703    | 0.82703    |   0.0 |  0.98
Output  | 0.00021601 | 0.00021601 | 0.00021601 |   0.0 |  0.00
Modify  | 1.0158     | 1.0158     | 1.0158     |   0.0 |  1.20
Other   |            | 0.2551     |            |       |  0.30

Nlocal:    19652 ave 19652 max 19652 min
Histogram: 1 0 0 0 0 0 0 0 0 0
Nghost:    18212 ave 18212 max 18212 min
Histogram: 1 0 0 0 0 0 0 0 0 0
Neighs:    1.47199e+06 ave 1.47199e+06 max 1.47199e+06 min
Histogram: 1 0 0 0 0 0 0 0 0 0

Total # of neighbors = 1471988
Ave neighs/atom = 74.9027
Neighbor list builds = 495
Dangerous builds not checked
Setting up Verlet run ...
  Unit style    : metal
  Current step  : 120495
  Time step     : 0.001
Per MPI rank memory allocation (min/avg/max) = 18.19 | 18.19 | 18.19 Mbytes
Step Temp Press TotEng PotEng Enthalpy 
  120495    1611.8094    684.58071   -64718.728   -68812.871   -64575.112 
  125000     1612.348   -92.284226   -64784.438   -68879.949   -64803.782 
Loop time of 810.823 on 1 procs for 4505 steps with 19652 atoms

Performance: 0.480 ns/day, 49.995 hours/ns, 5.556 timesteps/s
99.8% CPU use with 1 MPI tasks x no OpenMP threads

MPI task timing breakdown:
Section |  min time  |  avg time  |  max time  |%varavg| %total
---------------------------------------------------------------
Pair    | 472.28     | 472.28     | 472.28     |   0.0 | 58.25
Neigh   | 317.38     | 317.38     | 317.38     |   0.0 | 39.14
Comm    | 8.3899     | 8.3899     | 8.3899     |   0.0 |  1.03
Output  | 0.051728   | 0.051728   | 0.051728   |   0.0 |  0.01
Modify  | 10.17      | 10.17      | 10.17      |   0.0 |  1.25
Other   |            | 2.548      |            |       |  0.31

Nlocal:    19652 ave 19652 max 19652 min
Histogram: 1 0 0 0 0 0 0 0 0 0
Nghost:    18237 ave 18237 max 18237 min
Histogram: 1 0 0 0 0 0 0 0 0 0
Neighs:    1.47246e+06 ave 1.47246e+06 max 1.47246e+06 min
Histogram: 1 0 0 0 0 0 0 0 0 0

Total # of neighbors = 1472463
Ave neighs/atom = 74.9269
Neighbor list builds = 4505
Dangerous builds not checked
Setting up Verlet run ...
  Unit style    : metal
  Current step  : 125000
  Time step     : 0.001
Per MPI rank memory allocation (min/avg/max) = 18.19 | 18.19 | 18.19 Mbytes
Step Temp Press TotEng PotEng Enthalpy 
  125000     1612.348   -92.284226   -64784.438   -68879.949   -64803.782 
  125495    1566.3728    23.942995   -65037.093   -69015.822   -65032.089 
Loop time of 84.3181 on 1 procs for 495 steps with 19652 atoms

Performance: 0.507 ns/day, 47.317 hours/ns, 5.871 timesteps/s
99.8% CPU use with 1 MPI tasks x no OpenMP threads

MPI task timing breakdown:
Section |  min time  |  avg time  |  max time  |%varavg| %total
---------------------------------------------------------------
Pair    | 48.524     | 48.524     | 48.524     |   0.0 | 57.55
Neigh   | 33.706     | 33.706     | 33.706     |   0.0 | 39.98
Comm    | 0.8187     | 0.8187     | 0.8187     |   0.0 |  0.97
Output  | 0.00020313 | 0.00020313 | 0.00020313 |   0.0 |  0.00
Modify  | 1.0079     | 1.0079     | 1.0079     |   0.0 |  1.20
Other   |            | 0.2609     |            |       |  0.31

Nlocal:    19652 ave 19652 max 19652 min
Histogram: 1 0 0 0 0 0 0 0 0 0
Nghost:    18251 ave 18251 max 18251 min
Histogram: 1 0 0 0 0 0 0 0 0 0
Neighs:    1.47802e+06 ave 1.47802e+06 max 1.47802e+06 min
Histogram: 1 0 0 0 0 0 0 0 0 0

Total # of neighbors = 1478016
Ave neighs/atom = 75.2094
Neighbor list builds = 495
Dangerous builds not checked
Setting up Verlet run ...
  Unit style    : metal
  Current step  : 125495
  Time step     : 0.001
Per MPI rank memory allocation (min/avg/max) = 18.19 | 18.19 | 18.19 Mbytes
Step Temp Press TotEng PotEng Enthalpy 
  125495    1566.3728    23.942995   -65037.093   -69015.822   -65032.089 
  130000    1565.3217    2091.0893   -65201.186   -69177.245   -64766.043 
Loop time of 801.712 on 1 procs for 4505 steps with 19652 atoms

Performance: 0.486 ns/day, 49.433 hours/ns, 5.619 timesteps/s
99.8% CPU use with 1 MPI tasks x no OpenMP threads

MPI task timing breakdown:
Section |  min time  |  avg time  |  max time  |%varavg| %total
---------------------------------------------------------------
Pair    | 466.34     | 466.34     | 466.34     |   0.0 | 58.17
Neigh   | 314.73     | 314.73     | 314.73     |   0.0 | 39.26
Comm    | 8.1647     | 8.1647     | 8.1647     |   0.0 |  1.02
Output  | 0.052752   | 0.052752   | 0.052752   |   0.0 |  0.01
Modify  | 9.9036     | 9.9036     | 9.9036     |   0.0 |  1.24
Other   |            | 2.519      |            |       |  0.31

Nlocal:    19652 ave 19652 max 19652 min
Histogram: 1 0 0 0 0 0 0 0 0 0
Nghost:    18302 ave 18302 max 18302 min
Histogram: 1 0 0 0 0 0 0 0 0 0
Neighs:    1.48307e+06 ave 1.48307e+06 max 1.48307e+06 min
Histogram: 1 0 0 0 0 0 0 0 0 0

Total # of neighbors = 1483068
Ave neighs/atom = 75.4665
Neighbor list builds = 4505
Dangerous builds not checked
Setting up Verlet run ...
  Unit style    : metal
  Current step  : 130000
  Time step     : 0.001
Per MPI rank memory allocation (min/avg/max) = 18.19 | 18.19 | 18.19 Mbytes
Step Temp Press TotEng PotEng Enthalpy 
  130000    1565.3217    2091.0893   -65201.186   -69177.245   -64766.043 
  130495    1517.7032    -506.7942   -65373.938   -69229.042   -65479.478 
Loop time of 94.3659 on 1 procs for 495 steps with 19652 atoms

Performance: 0.453 ns/day, 52.955 hours/ns, 5.246 timesteps/s
99.8% CPU use with 1 MPI tasks x no OpenMP threads

MPI task timing breakdown:
Section |  min time  |  avg time  |  max time  |%varavg| %total
---------------------------------------------------------------
Pair    | 55.789     | 55.789     | 55.789     |   0.0 | 59.12
Neigh   | 35.775     | 35.775     | 35.775     |   0.0 | 37.91
Comm    | 1.1195     | 1.1195     | 1.1195     |   0.0 |  1.19
Output  | 0.00025606 | 0.00025606 | 0.00025606 |   0.0 |  0.00
Modify  | 1.3499     | 1.3499     | 1.3499     |   0.0 |  1.43
Other   |            | 0.3314     |            |       |  0.35

Nlocal:    19652 ave 19652 max 19652 min
Histogram: 1 0 0 0 0 0 0 0 0 0
Nghost:    18300 ave 18300 max 18300 min
Histogram: 1 0 0 0 0 0 0 0 0 0
Neighs:    1.48237e+06 ave 1.48237e+06 max 1.48237e+06 min
Histogram: 1 0 0 0 0 0 0 0 0 0

Total # of neighbors = 1482370
Ave neighs/atom = 75.431
Neighbor list builds = 495
Dangerous builds not checked
Setting up Verlet run ...
  Unit style    : metal
  Current step  : 130495
  Time step     : 0.001
Per MPI rank memory allocation (min/avg/max) = 18.19 | 18.19 | 18.19 Mbytes
Step Temp Press TotEng PotEng Enthalpy 
  130495    1517.7032    -506.7942   -65373.938   -69229.042   -65479.478 
  135000    1505.8414    1175.2202   -65506.378   -69331.352   -65262.389 
Loop time of 819.409 on 1 procs for 4505 steps with 19652 atoms

Performance: 0.475 ns/day, 50.525 hours/ns, 5.498 timesteps/s
99.8% CPU use with 1 MPI tasks x no OpenMP threads

MPI task timing breakdown:
Section |  min time  |  avg time  |  max time  |%varavg| %total
---------------------------------------------------------------
Pair    | 479.09     | 479.09     | 479.09     |   0.0 | 58.47
Neigh   | 318.49     | 318.49     | 318.49     |   0.0 | 38.87
Comm    | 8.65       | 8.65       | 8.65       |   0.0 |  1.06
Output  | 0.051866   | 0.051866   | 0.051866   |   0.0 |  0.01
Modify  | 10.482     | 10.482     | 10.482     |   0.0 |  1.28
Other   |            | 2.644      |            |       |  0.32

Nlocal:    19652 ave 19652 max 19652 min
Histogram: 1 0 0 0 0 0 0 0 0 0
Nghost:    18347 ave 18347 max 18347 min
Histogram: 1 0 0 0 0 0 0 0 0 0
Neighs:    1.48636e+06 ave 1.48636e+06 max 1.48636e+06 min
Histogram: 1 0 0 0 0 0 0 0 0 0

Total # of neighbors = 1486359
Ave neighs/atom = 75.634
Neighbor list builds = 4505
Dangerous builds not checked
Setting up Verlet run ...
  Unit style    : metal
  Current step  : 135000
  Time step     : 0.001
Per MPI rank memory allocation (min/avg/max) = 18.19 | 18.19 | 18.19 Mbytes
Step Temp Press TotEng PotEng Enthalpy 
  135000    1505.8414    1175.2202   -65506.378   -69331.352   -65262.389 
  135495    1464.5089   -906.32736    -65731.79   -69451.776   -65919.831 
Loop time of 86.5599 on 1 procs for 495 steps with 19652 atoms

Performance: 0.494 ns/day, 48.575 hours/ns, 5.719 timesteps/s
99.4% CPU use with 1 MPI tasks x no OpenMP threads

MPI task timing breakdown:
Section |  min time  |  avg time  |  max time  |%varavg| %total
---------------------------------------------------------------
Pair    | 50.14      | 50.14      | 50.14      |   0.0 | 57.93
Neigh   | 34.194     | 34.194     | 34.194     |   0.0 | 39.50
Comm    | 0.87891    | 0.87891    | 0.87891    |   0.0 |  1.02
Output  | 0.00020409 | 0.00020409 | 0.00020409 |   0.0 |  0.00
Modify  | 1.0716     | 1.0716     | 1.0716     |   0.0 |  1.24
Other   |            | 0.2748     |            |       |  0.32

Nlocal:    19652 ave 19652 max 19652 min
Histogram: 1 0 0 0 0 0 0 0 0 0
Nghost:    18440 ave 18440 max 18440 min
Histogram: 1 0 0 0 0 0 0 0 0 0
Neighs:    1.48718e+06 ave 1.48718e+06 max 1.48718e+06 min
Histogram: 1 0 0 0 0 0 0 0 0 0

Total # of neighbors = 1487179
Ave neighs/atom = 75.6757
Neighbor list builds = 495
Dangerous builds not checked
Setting up Verlet run ...
  Unit style    : metal
  Current step  : 135495
  Time step     : 0.001
Per MPI rank memory allocation (min/avg/max) = 18.19 | 18.19 | 18.19 Mbytes
Step Temp Press TotEng PotEng Enthalpy 
  135495    1464.5089   -906.32736    -65731.79   -69451.776   -65919.831 
  140000    1441.4504   -623.66328   -65867.163   -69528.578   -65996.316 
Loop time of 815.715 on 1 procs for 4505 steps with 19652 atoms

Performance: 0.477 ns/day, 50.297 hours/ns, 5.523 timesteps/s
99.8% CPU use with 1 MPI tasks x no OpenMP threads

MPI task timing breakdown:
Section |  min time  |  avg time  |  max time  |%varavg| %total
---------------------------------------------------------------
Pair    | 476.66     | 476.66     | 476.66     |   0.0 | 58.43
Neigh   | 317.31     | 317.31     | 317.31     |   0.0 | 38.90
Comm    | 8.6412     | 8.6412     | 8.6412     |   0.0 |  1.06
Output  | 0.052413   | 0.052413   | 0.052413   |   0.0 |  0.01
Modify  | 10.446     | 10.446     | 10.446     |   0.0 |  1.28
Other   |            | 2.61       |            |       |  0.32

Nlocal:    19652 ave 19652 max 19652 min
Histogram: 1 0 0 0 0 0 0 0 0 0
Nghost:    18367 ave 18367 max 18367 min
Histogram: 1 0 0 0 0 0 0 0 0 0
Neighs:    1.48985e+06 ave 1.48985e+06 max 1.48985e+06 min
Histogram: 1 0 0 0 0 0 0 0 0 0

Total # of neighbors = 1489853
Ave neighs/atom = 75.8118
Neighbor list builds = 4505
Dangerous builds not checked
Setting up Verlet run ...
  Unit style    : metal
  Current step  : 140000
  Time step     : 0.001
Per MPI rank memory allocation (min/avg/max) = 18.19 | 18.19 | 18.19 Mbytes
Step Temp Press TotEng PotEng Enthalpy 
  140000    1441.4504   -623.66328   -65867.163   -69528.578   -65996.316 
  140495    1420.9007    773.28679   -66090.726   -69699.943   -65931.235 
Loop time of 91.71 on 1 procs for 495 steps with 19652 atoms

Performance: 0.466 ns/day, 51.465 hours/ns, 5.397 timesteps/s
99.8% CPU use with 1 MPI tasks x no OpenMP threads

MPI task timing breakdown:
Section |  min time  |  avg time  |  max time  |%varavg| %total
---------------------------------------------------------------
Pair    | 53.86      | 53.86      | 53.86      |   0.0 | 58.73
Neigh   | 35.204     | 35.204     | 35.204     |   0.0 | 38.39
Comm    | 1.056      | 1.056      | 1.056      |   0.0 |  1.15
Output  | 0.00022602 | 0.00022602 | 0.00022602 |   0.0 |  0.00
Modify  | 1.2786     | 1.2786     | 1.2786     |   0.0 |  1.39
Other   |            | 0.3111     |            |       |  0.34

Nlocal:    19652 ave 19652 max 19652 min
Histogram: 1 0 0 0 0 0 0 0 0 0
Nghost:    18315 ave 18315 max 18315 min
Histogram: 1 0 0 0 0 0 0 0 0 0
Neighs:    1.49658e+06 ave 1.49658e+06 max 1.49658e+06 min
Histogram: 1 0 0 0 0 0 0 0 0 0

Total # of neighbors = 1496580
Ave neighs/atom = 76.1541
Neighbor list builds = 495
Dangerous builds not checked
Setting up Verlet run ...
  Unit style    : metal
  Current step  : 140495
  Time step     : 0.001
Per MPI rank memory allocation (min/avg/max) = 18.19 | 18.19 | 18.19 Mbytes
Step Temp Press TotEng PotEng Enthalpy 
  140495    1420.9007    773.28679   -66090.726   -69699.943   -65931.235 
  145000     1412.757    422.52596   -66217.759    -69806.29   -66130.768 
Loop time of 802.849 on 1 procs for 4505 steps with 19652 atoms

Performance: 0.485 ns/day, 49.504 hours/ns, 5.611 timesteps/s
99.8% CPU use with 1 MPI tasks x no OpenMP threads

MPI task timing breakdown:
Section |  min time  |  avg time  |  max time  |%varavg| %total
---------------------------------------------------------------
Pair    | 468.13     | 468.13     | 468.13     |   0.0 | 58.31
Neigh   | 314.02     | 314.02     | 314.02     |   0.0 | 39.11
Comm    | 8.1874     | 8.1874     | 8.1874     |   0.0 |  1.02
Output  | 0.052024   | 0.052024   | 0.052024   |   0.0 |  0.01
Modify  | 9.9456     | 9.9456     | 9.9456     |   0.0 |  1.24
Other   |            | 2.52       |            |       |  0.31

Nlocal:    19652 ave 19652 max 19652 min
Histogram: 1 0 0 0 0 0 0 0 0 0
Nghost:    18395 ave 18395 max 18395 min
Histogram: 1 0 0 0 0 0 0 0 0 0
Neighs:    1.49852e+06 ave 1.49852e+06 max 1.49852e+06 min
Histogram: 1 0 0 0 0 0 0 0 0 0

Total # of neighbors = 1498519
Ave neighs/atom = 76.2527
Neighbor list builds = 4505
Dangerous builds not checked
Setting up Verlet run ...
  Unit style    : metal
  Current step  : 145000
  Time step     : 0.001
Per MPI rank memory allocation (min/avg/max) = 18.19 | 18.19 | 18.19 Mbytes
Step Temp Press TotEng PotEng Enthalpy 
  145000     1412.757    422.52596   -66217.759    -69806.29   -66130.768 
  145495    1373.4907   -1397.6657   -66415.779   -69904.571   -66703.396 
Loop time of 87.226 on 1 procs for 495 steps with 19652 atoms

Performance: 0.490 ns/day, 48.948 hours/ns, 5.675 timesteps/s
99.8% CPU use with 1 MPI tasks x no OpenMP threads

MPI task timing breakdown:
Section |  min time  |  avg time  |  max time  |%varavg| %total
---------------------------------------------------------------
Pair    | 50.898     | 50.898     | 50.898     |   0.0 | 58.35
Neigh   | 34.087     | 34.087     | 34.087     |   0.0 | 39.08
Comm    | 0.88372    | 0.88372    | 0.88372    |   0.0 |  1.01
Output  | 0.00023484 | 0.00023484 | 0.00023484 |   0.0 |  0.00
Modify  | 1.0836     | 1.0836     | 1.0836     |   0.0 |  1.24
Other   |            | 0.2733     |            |       |  0.31

Nlocal:    19652 ave 19652 max 19652 min
Histogram: 1 0 0 0 0 0 0 0 0 0
Nghost:    18449 ave 18449 max 18449 min
Histogram: 1 0 0 0 0 0 0 0 0 0
Neighs:    1.49967e+06 ave 1.49967e+06 max 1.49967e+06 min
Histogram: 1 0 0 0 0 0 0 0 0 0

Total # of neighbors = 1499672
Ave neighs/atom = 76.3114
Neighbor list builds = 495
Dangerous builds not checked
Setting up Verlet run ...
  Unit style    : metal
  Current step  : 145495
  Time step     : 0.001
Per MPI rank memory allocation (min/avg/max) = 18.19 | 18.19 | 18.19 Mbytes
Step Temp Press TotEng PotEng Enthalpy 
  145495    1373.4907   -1397.6657   -66415.779   -69904.571   -66703.396 
  150000    1343.1706   -263.99413   -66626.674    -70038.45   -66680.809 
Loop time of 821.975 on 1 procs for 4505 steps with 19652 atoms

Performance: 0.474 ns/day, 50.683 hours/ns, 5.481 timesteps/s
99.9% CPU use with 1 MPI tasks x no OpenMP threads

MPI task timing breakdown:
Section |  min time  |  avg time  |  max time  |%varavg| %total
---------------------------------------------------------------
Pair    | 482.27     | 482.27     | 482.27     |   0.0 | 58.67
Neigh   | 317.83     | 317.83     | 317.83     |   0.0 | 38.67
Comm    | 8.684      | 8.684      | 8.684      |   0.0 |  1.06
Output  | 0.052126   | 0.052126   | 0.052126   |   0.0 |  0.01
Modify  | 10.49      | 10.49      | 10.49      |   0.0 |  1.28
Other   |            | 2.656      |            |       |  0.32

Nlocal:    19652 ave 19652 max 19652 min
Histogram: 1 0 0 0 0 0 0 0 0 0
Nghost:    18297 ave 18297 max 18297 min
Histogram: 1 0 0 0 0 0 0 0 0 0
Neighs:    1.50436e+06 ave 1.50436e+06 max 1.50436e+06 min
Histogram: 1 0 0 0 0 0 0 0 0 0

Total # of neighbors = 1504356
Ave neighs/atom = 76.5498
Neighbor list builds = 4505
Dangerous builds not checked
Setting up Verlet run ...
  Unit style    : metal
  Current step  : 150000
  Time step     : 0.001
Per MPI rank memory allocation (min/avg/max) = 18.19 | 18.19 | 18.19 Mbytes
Step Temp Press TotEng PotEng Enthalpy 
  150000    1343.1706   -263.99413   -66626.674    -70038.45   -66680.809 
  150495    1318.1791    827.25099    -66796.38   -70144.675   -66627.168 
Loop time of 90.1889 on 1 procs for 495 steps with 19652 atoms

Performance: 0.474 ns/day, 50.611 hours/ns, 5.488 timesteps/s
99.9% CPU use with 1 MPI tasks x no OpenMP threads

MPI task timing breakdown:
Section |  min time  |  avg time  |  max time  |%varavg| %total
---------------------------------------------------------------
Pair    | 53.091     | 53.091     | 53.091     |   0.0 | 58.87
Neigh   | 34.651     | 34.651     | 34.651     |   0.0 | 38.42
Comm    | 0.97296    | 0.97296    | 0.97296    |   0.0 |  1.08
Output  | 0.00024295 | 0.00024295 | 0.00024295 |   0.0 |  0.00
Modify  | 1.1805     | 1.1805     | 1.1805     |   0.0 |  1.31
Other   |            | 0.2932     |            |       |  0.33

Nlocal:    19652 ave 19652 max 19652 min
Histogram: 1 0 0 0 0 0 0 0 0 0
Nghost:    18347 ave 18347 max 18347 min
Histogram: 1 0 0 0 0 0 0 0 0 0
Neighs:    1.50765e+06 ave 1.50765e+06 max 1.50765e+06 min
Histogram: 1 0 0 0 0 0 0 0 0 0

Total # of neighbors = 1507654
Ave neighs/atom = 76.7176
Neighbor list builds = 495
Dangerous builds not checked
Setting up Verlet run ...
  Unit style    : metal
  Current step  : 150495
  Time step     : 0.001
Per MPI rank memory allocation (min/avg/max) = 18.19 | 18.19 | 18.19 Mbytes
Step Temp Press TotEng PotEng Enthalpy 
  150495    1318.1791    827.25099    -66796.38   -70144.675   -66627.168 
  155000    1289.3874   -1598.2908   -66974.843   -70250.005   -67301.679 
Loop time of 807.49 on 1 procs for 4505 steps with 19652 atoms

Performance: 0.482 ns/day, 49.790 hours/ns, 5.579 timesteps/s
99.8% CPU use with 1 MPI tasks x no OpenMP threads

MPI task timing breakdown:
Section |  min time  |  avg time  |  max time  |%varavg| %total
---------------------------------------------------------------
Pair    | 473.65     | 473.65     | 473.65     |   0.0 | 58.66
Neigh   | 313.13     | 313.13     | 313.13     |   0.0 | 38.78
Comm    | 8.2037     | 8.2037     | 8.2037     |   0.0 |  1.02
Output  | 0.051758   | 0.051758   | 0.051758   |   0.0 |  0.01
Modify  | 9.9398     | 9.9398     | 9.9398     |   0.0 |  1.23
Other   |            | 2.517      |            |       |  0.31

Nlocal:    19652 ave 19652 max 19652 min
Histogram: 1 0 0 0 0 0 0 0 0 0
Nghost:    18390 ave 18390 max 18390 min
Histogram: 1 0 0 0 0 0 0 0 0 0
Neighs:    1.50872e+06 ave 1.50872e+06 max 1.50872e+06 min
Histogram: 1 0 0 0 0 0 0 0 0 0

Total # of neighbors = 1508725
Ave neighs/atom = 76.7721
Neighbor list builds = 4505
Dangerous builds not checked
Setting up Verlet run ...
  Unit style    : metal
  Current step  : 155000
  Time step     : 0.001
Per MPI rank memory allocation (min/avg/max) = 18.19 | 18.19 | 18.19 Mbytes
Step Temp Press TotEng PotEng Enthalpy 
  155000    1289.3874   -1598.2908   -66974.843   -70250.005   -67301.679 
  155495    1271.1896    1532.3545   -67141.595   -70370.532   -66829.678 
Loop time of 88.0326 on 1 procs for 495 steps with 19652 atoms

Performance: 0.486 ns/day, 49.401 hours/ns, 5.623 timesteps/s
99.8% CPU use with 1 MPI tasks x no OpenMP threads

MPI task timing breakdown:
Section |  min time  |  avg time  |  max time  |%varavg| %total
---------------------------------------------------------------
Pair    | 51.638     | 51.638     | 51.638     |   0.0 | 58.66
Neigh   | 34.112     | 34.112     | 34.112     |   0.0 | 38.75
Comm    | 0.90229    | 0.90229    | 0.90229    |   0.0 |  1.02
Output  | 0.00022912 | 0.00022912 | 0.00022912 |   0.0 |  0.00
Modify  | 1.1048     | 1.1048     | 1.1048     |   0.0 |  1.25
Other   |            | 0.2757     |            |       |  0.31

Nlocal:    19652 ave 19652 max 19652 min
Histogram: 1 0 0 0 0 0 0 0 0 0
Nghost:    18414 ave 18414 max 18414 min
Histogram: 1 0 0 0 0 0 0 0 0 0
Neighs:    1.51469e+06 ave 1.51469e+06 max 1.51469e+06 min
Histogram: 1 0 0 0 0 0 0 0 0 0

Total # of neighbors = 1514689
Ave neighs/atom = 77.0756
Neighbor list builds = 495
Dangerous builds not checked
Setting up Verlet run ...
  Unit style    : metal
  Current step  : 155495
  Time step     : 0.001
Per MPI rank memory allocation (min/avg/max) = 18.19 | 18.19 | 18.19 Mbytes
Step Temp Press TotEng PotEng Enthalpy 
  155495    1271.1896    1532.3545   -67141.595   -70370.532   -66829.678 
  160000    1248.8201     -579.484   -67274.216   -70446.333   -67392.245 
Loop time of 792.319 on 1 procs for 4505 steps with 19652 atoms

Performance: 0.491 ns/day, 48.854 hours/ns, 5.686 timesteps/s
99.9% CPU use with 1 MPI tasks x no OpenMP threads

MPI task timing breakdown:
Section |  min time  |  avg time  |  max time  |%varavg| %total
---------------------------------------------------------------
Pair    | 463.31     | 463.31     | 463.31     |   0.0 | 58.48
Neigh   | 309.26     | 309.26     | 309.26     |   0.0 | 39.03
Comm    | 7.7894     | 7.7894     | 7.7894     |   0.0 |  0.98
Output  | 0.050419   | 0.050419   | 0.050419   |   0.0 |  0.01
Modify  | 9.463      | 9.463      | 9.463      |   0.0 |  1.19
Other   |            | 2.443      |            |       |  0.31

Nlocal:    19652 ave 19652 max 19652 min
Histogram: 1 0 0 0 0 0 0 0 0 0
Nghost:    18460 ave 18460 max 18460 min
Histogram: 1 0 0 0 0 0 0 0 0 0
Neighs:    1.51364e+06 ave 1.51364e+06 max 1.51364e+06 min
Histogram: 1 0 0 0 0 0 0 0 0 0

Total # of neighbors = 1513641
Ave neighs/atom = 77.0222
Neighbor list builds = 4505
Dangerous builds not checked
Setting up Verlet run ...
  Unit style    : metal
  Current step  : 160000
  Time step     : 0.001
Per MPI rank memory allocation (min/avg/max) = 18.19 | 18.19 | 18.19 Mbytes
Step Temp Press TotEng PotEng Enthalpy 
  160000    1248.8201     -579.484   -67274.216   -70446.333   -67392.245 
  160495    1212.7757    178.93875   -67508.077   -70588.638   -67471.755 
Loop time of 83.5721 on 1 procs for 495 steps with 19652 atoms

Performance: 0.512 ns/day, 46.898 hours/ns, 5.923 timesteps/s
99.9% CPU use with 1 MPI tasks x no OpenMP threads

MPI task timing breakdown:
Section |  min time  |  avg time  |  max time  |%varavg| %total
---------------------------------------------------------------
Pair    | 48.473     | 48.473     | 48.473     |   0.0 | 58.00
Neigh   | 33.15      | 33.15      | 33.15      |   0.0 | 39.67
Comm    | 0.77447    | 0.77447    | 0.77447    |   0.0 |  0.93
Output  | 0.00019407 | 0.00019407 | 0.00019407 |   0.0 |  0.00
Modify  | 0.94351    | 0.94351    | 0.94351    |   0.0 |  1.13
Other   |            | 0.2305     |            |       |  0.28

Nlocal:    19652 ave 19652 max 19652 min
Histogram: 1 0 0 0 0 0 0 0 0 0
Nghost:    18567 ave 18567 max 18567 min
Histogram: 1 0 0 0 0 0 0 0 0 0
Neighs:    1.51861e+06 ave 1.51861e+06 max 1.51861e+06 min
Histogram: 1 0 0 0 0 0 0 0 0 0

Total # of neighbors = 1518611
Ave neighs/atom = 77.2751
Neighbor list builds = 495
Dangerous builds not checked
Setting up Verlet run ...
  Unit style    : metal
  Current step  : 160495
  Time step     : 0.001
Per MPI rank memory allocation (min/avg/max) = 18.19 | 18.19 | 18.19 Mbytes
Step Temp Press TotEng PotEng Enthalpy 
  160495    1212.7757    178.93875   -67508.077   -70588.638   -67471.755 
  165000    1204.3406    385.58416   -67640.606   -70699.741   -67562.487 
Loop time of 778.169 on 1 procs for 4505 steps with 19652 atoms

Performance: 0.500 ns/day, 47.982 hours/ns, 5.789 timesteps/s
99.9% CPU use with 1 MPI tasks x no OpenMP threads

MPI task timing breakdown:
Section |  min time  |  avg time  |  max time  |%varavg| %total
---------------------------------------------------------------
Pair    | 453.14     | 453.14     | 453.14     |   0.0 | 58.23
Neigh   | 306.12     | 306.12     | 306.12     |   0.0 | 39.34
Comm    | 7.4902     | 7.4902     | 7.4902     |   0.0 |  0.96
Output  | 0.050147   | 0.050147   | 0.050147   |   0.0 |  0.01
Modify  | 9.0851     | 9.0851     | 9.0851     |   0.0 |  1.17
Other   |            | 2.285      |            |       |  0.29

Nlocal:    19652 ave 19652 max 19652 min
Histogram: 1 0 0 0 0 0 0 0 0 0
Nghost:    18546 ave 18546 max 18546 min
Histogram: 1 0 0 0 0 0 0 0 0 0
Neighs:    1.52121e+06 ave 1.52121e+06 max 1.52121e+06 min
Histogram: 1 0 0 0 0 0 0 0 0 0

Total # of neighbors = 1521213
Ave neighs/atom = 77.4075
Neighbor list builds = 4505
Dangerous builds not checked
Setting up Verlet run ...
  Unit style    : metal
  Current step  : 165000
  Time step     : 0.001
Per MPI rank memory allocation (min/avg/max) = 18.19 | 18.19 | 18.19 Mbytes
Step Temp Press TotEng PotEng Enthalpy 
  165000    1204.3406    385.58416   -67640.606   -70699.741   -67562.487 
  165495    1169.4902   -1226.4106    -67851.03   -70821.642   -68099.214 
Loop time of 83.6487 on 1 procs for 495 steps with 19652 atoms

Performance: 0.511 ns/day, 46.941 hours/ns, 5.918 timesteps/s
99.9% CPU use with 1 MPI tasks x no OpenMP threads

MPI task timing breakdown:
Section |  min time  |  avg time  |  max time  |%varavg| %total
---------------------------------------------------------------
Pair    | 48.636     | 48.636     | 48.636     |   0.0 | 58.14
Neigh   | 33.043     | 33.043     | 33.043     |   0.0 | 39.50
Comm    | 0.77411    | 0.77411    | 0.77411    |   0.0 |  0.93
Output  | 0.00021815 | 0.00021815 | 0.00021815 |   0.0 |  0.00
Modify  | 0.95187    | 0.95187    | 0.95187    |   0.0 |  1.14
Other   |            | 0.2433     |            |       |  0.29

Nlocal:    19652 ave 19652 max 19652 min
Histogram: 1 0 0 0 0 0 0 0 0 0
Nghost:    18586 ave 18586 max 18586 min
Histogram: 1 0 0 0 0 0 0 0 0 0
Neighs:    1.52343e+06 ave 1.52343e+06 max 1.52343e+06 min
Histogram: 1 0 0 0 0 0 0 0 0 0

Total # of neighbors = 1523433
Ave neighs/atom = 77.5205
Neighbor list builds = 495
Dangerous builds not checked
Setting up Verlet run ...
  Unit style    : metal
  Current step  : 165495
  Time step     : 0.001
Per MPI rank memory allocation (min/avg/max) = 18.19 | 18.19 | 18.19 Mbytes
Step Temp Press TotEng PotEng Enthalpy 
  165495    1169.4902   -1226.4106    -67851.03   -70821.642   -68099.214 
  170000    1145.4408    795.63632   -68054.143   -70963.667   -67893.752 
Loop time of 788.139 on 1 procs for 4505 steps with 19652 atoms

Performance: 0.494 ns/day, 48.597 hours/ns, 5.716 timesteps/s
[...]
Setting up Verlet run ...
  Unit style    : metal
  Current step  : 240000
  Time step     : 0.001
Per MPI rank memory allocation (min/avg/max) = 18.19 | 18.19 | 18.19 Mbytes
Step Temp Press TotEng PotEng Enthalpy 
  240000    449.52801    487.53087    -72910.95   -74052.792   -72817.426 
  240495    423.40153   -684.82666    -73062.59   -74138.069   -73193.897 
Loop time of 98.0671 on 1 procs for 495 steps with 19652 atoms

Performance: 0.436 ns/day, 55.032 hours/ns, 5.048 timesteps/s
99.4% CPU use with 1 MPI tasks x no OpenMP threads

MPI task timing breakdown:
Section |  min time  |  avg time  |  max time  |%varavg| %total
---------------------------------------------------------------
Pair    | 56.726     | 56.726     | 56.726     |   0.0 | 57.84
Neigh   | 38.377     | 38.377     | 38.377     |   0.0 | 39.13
Comm    | 1.1835     | 1.1835     | 1.1835     |   0.0 |  1.21
Output  | 0.000247   | 0.000247   | 0.000247   |   0.0 |  0.00
Modify  | 1.4239     | 1.4239     | 1.4239     |   0.0 |  1.45
Other   |            | 0.3556     |            |       |  0.36

Nlocal:    19652 ave 19652 max 19652 min
Histogram: 1 0 0 0 0 0 0 0 0 0
Nghost:    18890 ave 18890 max 18890 min
Histogram: 1 0 0 0 0 0 0 0 0 0
Neighs:    1.59133e+06 ave 1.59133e+06 max 1.59133e+06 min
Histogram: 1 0 0 0 0 0 0 0 0 0

Total # of neighbors = 1591327
Ave neighs/atom = 80.9753
Neighbor list builds = 495
Dangerous builds not checked
Setting up Verlet run ...
  Unit style    : metal
  Current step  : 240495
  Time step     : 0.001
Per MPI rank memory allocation (min/avg/max) = 18.19 | 18.19 | 18.19 Mbytes
Step Temp Press TotEng PotEng Enthalpy 
  240495    423.40153   -684.82666    -73062.59   -74138.069   -73193.897 
  245000     401.0379      371.804   -73188.152   -74206.825   -73116.987 
Loop time of 822.692 on 1 procs for 4505 steps with 19652 atoms

Performance: 0.473 ns/day, 50.727 hours/ns, 5.476 timesteps/s
99.6% CPU use with 1 MPI tasks x no OpenMP threads

MPI task timing breakdown:
Section |  min time  |  avg time  |  max time  |%varavg| %total
---------------------------------------------------------------
Pair    | 466.48     | 466.48     | 466.48     |   0.0 | 56.70
Neigh   | 335.86     | 335.86     | 335.86     |   0.0 | 40.82
Comm    | 7.9526     | 7.9526     | 7.9526     |   0.0 |  0.97
Output  | 0.052171   | 0.052171   | 0.052171   |   0.0 |  0.01
Modify  | 9.7801     | 9.7801     | 9.7801     |   0.0 |  1.19
Other   |            | 2.569      |            |       |  0.31

Nlocal:    19652 ave 19652 max 19652 min
Histogram: 1 0 0 0 0 0 0 0 0 0
Nghost:    18928 ave 18928 max 18928 min
Histogram: 1 0 0 0 0 0 0 0 0 0
Neighs:    1.59373e+06 ave 1.59373e+06 max 1.59373e+06 min
Histogram: 1 0 0 0 0 0 0 0 0 0

Total # of neighbors = 1593731
Ave neighs/atom = 81.0976
Neighbor list builds = 4505
Dangerous builds not checked
Setting up Verlet run ...
  Unit style    : metal
  Current step  : 245000
  Time step     : 0.001
Per MPI rank memory allocation (min/avg/max) = 18.19 | 18.19 | 18.19 Mbytes
Step Temp Press TotEng PotEng Enthalpy 
  245000     401.0379      371.804   -73188.152   -74206.825   -73116.987 
  245495    369.63959    751.22352   -73342.762    -74281.68   -73199.163 
Loop time of 98.3358 on 1 procs for 495 steps with 19652 atoms

Performance: 0.435 ns/day, 55.183 hours/ns, 5.034 timesteps/s
99.6% CPU use with 1 MPI tasks x no OpenMP threads

MPI task timing breakdown:
Section |  min time  |  avg time  |  max time  |%varavg| %total
---------------------------------------------------------------
Pair    | 56.653     | 56.653     | 56.653     |   0.0 | 57.61
Neigh   | 38.613     | 38.613     | 38.613     |   0.0 | 39.27
Comm    | 1.2408     | 1.2408     | 1.2408     |   0.0 |  1.26
Output  | 0.00027514 | 0.00027514 | 0.00027514 |   0.0 |  0.00
Modify  | 1.469      | 1.469      | 1.469      |   0.0 |  1.49
Other   |            | 0.3598     |            |       |  0.37

Nlocal:    19652 ave 19652 max 19652 min
Histogram: 1 0 0 0 0 0 0 0 0 0
Nghost:    18927 ave 18927 max 18927 min
Histogram: 1 0 0 0 0 0 0 0 0 0
Neighs:    1.59551e+06 ave 1.59551e+06 max 1.59551e+06 min
Histogram: 1 0 0 0 0 0 0 0 0 0

Total # of neighbors = 1595514
Ave neighs/atom = 81.1884
Neighbor list builds = 495
Dangerous builds not checked
Setting up Verlet run ...
  Unit style    : metal
  Current step  : 245495
  Time step     : 0.001
Per MPI rank memory allocation (min/avg/max) = 18.19 | 18.19 | 18.19 Mbytes
Step Temp Press TotEng PotEng Enthalpy 
  245495    369.63959    751.22352   -73342.762    -74281.68   -73199.163 
  250000    350.44399   -528.35285   -73473.123   -74363.283   -73574.084 
Loop time of 884.079 on 1 procs for 4505 steps with 19652 atoms

Performance: 0.440 ns/day, 54.512 hours/ns, 5.096 timesteps/s
99.8% CPU use with 1 MPI tasks x no OpenMP threads

MPI task timing breakdown:
Section |  min time  |  avg time  |  max time  |%varavg| %total
---------------------------------------------------------------
Pair    | 509.4      | 509.4      | 509.4      |   0.0 | 57.62
Neigh   | 348.25     | 348.25     | 348.25     |   0.0 | 39.39
Comm    | 10.524     | 10.524     | 10.524     |   0.0 |  1.19
Output  | 0.054445   | 0.054445   | 0.054445   |   0.0 |  0.01
Modify  | 12.687     | 12.687     | 12.687     |   0.0 |  1.44
Other   |            | 3.16       |            |       |  0.36

Nlocal:    19652 ave 19652 max 19652 min
Histogram: 1 0 0 0 0 0 0 0 0 0
Nghost:    18928 ave 18928 max 18928 min
Histogram: 1 0 0 0 0 0 0 0 0 0
Neighs:    1.59545e+06 ave 1.59545e+06 max 1.59545e+06 min
Histogram: 1 0 0 0 0 0 0 0 0 0

Total # of neighbors = 1595448
Ave neighs/atom = 81.185
Neighbor list builds = 4505
Dangerous builds not checked
Setting up Verlet run ...
  Unit style    : metal
  Current step  : 250000
  Time step     : 0.001
Per MPI rank memory allocation (min/avg/max) = 18.19 | 18.19 | 18.19 Mbytes
Step Temp Press TotEng PotEng Enthalpy 
  250000    350.44399   -528.35285   -73473.123   -74363.283   -73574.084 
  250495    319.93058   -384.93321   -73619.869   -74432.522   -73693.334 
Loop time of 92.9506 on 1 procs for 495 steps with 19652 atoms

Performance: 0.460 ns/day, 52.161 hours/ns, 5.325 timesteps/s
98.9% CPU use with 1 MPI tasks x no OpenMP threads

MPI task timing breakdown:
Section |  min time  |  avg time  |  max time  |%varavg| %total
---------------------------------------------------------------
Pair    | 53.221     | 53.221     | 53.221     |   0.0 | 57.26
Neigh   | 37.264     | 37.264     | 37.264     |   0.0 | 40.09
Comm    | 0.97118    | 0.97118    | 0.97118    |   0.0 |  1.04
Output  | 0.00023198 | 0.00023198 | 0.00023198 |   0.0 |  0.00
Modify  | 1.1959     | 1.1959     | 1.1959     |   0.0 |  1.29
Other   |            | 0.2983     |            |       |  0.32

Nlocal:    19652 ave 19652 max 19652 min
Histogram: 1 0 0 0 0 0 0 0 0 0
Nghost:    18940 ave 18940 max 18940 min
Histogram: 1 0 0 0 0 0 0 0 0 0
Neighs:    1.59701e+06 ave 1.59701e+06 max 1.59701e+06 min
Histogram: 1 0 0 0 0 0 0 0 0 0

Total # of neighbors = 1597011
Ave neighs/atom = 81.2646
Neighbor list builds = 495
Dangerous builds not checked
Setting up Verlet run ...
  Unit style    : metal
  Current step  : 250495
  Time step     : 0.001
Per MPI rank memory allocation (min/avg/max) = 18.19 | 18.19 | 18.19 Mbytes
Step Temp Press TotEng PotEng Enthalpy 
  250495    319.93058   -384.93321   -73619.869   -74432.522   -73693.334 
  255000    297.77926    344.33821   -73762.534    -74518.92   -73696.929 
Loop time of 844.815 on 1 procs for 4505 steps with 19652 atoms

Performance: 0.461 ns/day, 52.091 hours/ns, 5.333 timesteps/s
99.7% CPU use with 1 MPI tasks x no OpenMP threads

MPI task timing breakdown:
Section |  min time  |  avg time  |  max time  |%varavg| %total
---------------------------------------------------------------
Pair    | 483.13     | 483.13     | 483.13     |   0.0 | 57.19
Neigh   | 339.23     | 339.23     | 339.23     |   0.0 | 40.15
Comm    | 8.8177     | 8.8177     | 8.8177     |   0.0 |  1.04
Output  | 0.053789   | 0.053789   | 0.053789   |   0.0 |  0.01
Modify  | 10.794     | 10.794     | 10.794     |   0.0 |  1.28
Other   |            | 2.788      |            |       |  0.33

Nlocal:    19652 ave 19652 max 19652 min
Histogram: 1 0 0 0 0 0 0 0 0 0
Nghost:    18973 ave 18973 max 18973 min
Histogram: 1 0 0 0 0 0 0 0 0 0
Neighs:    1.59967e+06 ave 1.59967e+06 max 1.59967e+06 min
Histogram: 1 0 0 0 0 0 0 0 0 0

Total # of neighbors = 1599667
Ave neighs/atom = 81.3997
Neighbor list builds = 4505
Dangerous builds not checked
Setting up Verlet run ...
  Unit style    : metal
  Current step  : 255000
  Time step     : 0.001
Per MPI rank memory allocation (min/avg/max) = 18.19 | 18.19 | 18.19 Mbytes
Step Temp Press TotEng PotEng Enthalpy 
  255000    297.77926    344.33821   -73762.534    -74518.92   -73696.929 
  255495    271.19401    50.346858   -73894.384   -74583.242     -73884.8 
Loop time of 95.3217 on 1 procs for 495 steps with 19652 atoms

Performance: 0.449 ns/day, 53.491 hours/ns, 5.193 timesteps/s
99.8% CPU use with 1 MPI tasks x no OpenMP threads

MPI task timing breakdown:
Section |  min time  |  avg time  |  max time  |%varavg| %total
---------------------------------------------------------------
Pair    | 54.929     | 54.929     | 54.929     |   0.0 | 57.62
Neigh   | 37.711     | 37.711     | 37.711     |   0.0 | 39.56
Comm    | 1.0563     | 1.0563     | 1.0563     |   0.0 |  1.11
Output  | 0.00027299 | 0.00027299 | 0.00027299 |   0.0 |  0.00
Modify  | 1.2973     | 1.2973     | 1.2973     |   0.0 |  1.36
Other   |            | 0.3282     |            |       |  0.34

Nlocal:    19652 ave 19652 max 19652 min
Histogram: 1 0 0 0 0 0 0 0 0 0
Nghost:    18953 ave 18953 max 18953 min
Histogram: 1 0 0 0 0 0 0 0 0 0
Neighs:    1.60046e+06 ave 1.60046e+06 max 1.60046e+06 min
Histogram: 1 0 0 0 0 0 0 0 0 0

Total # of neighbors = 1600463
Ave neighs/atom = 81.4402
Neighbor list builds = 495
Dangerous builds not checked
Setting up Verlet run ...
  Unit style    : metal
  Current step  : 255495
  Time step     : 0.001
Per MPI rank memory allocation (min/avg/max) = 18.19 | 18.19 | 18.19 Mbytes
Step Temp Press TotEng PotEng Enthalpy 
  255495    271.19401    50.346858   -73894.384   -74583.242     -73884.8 
  260000    251.27284    -882.2019   -74023.903   -74662.159   -74191.772 
Loop time of 867.765 on 1 procs for 4505 steps with 19652 atoms

Performance: 0.449 ns/day, 53.506 hours/ns, 5.191 timesteps/s
99.5% CPU use with 1 MPI tasks x no OpenMP threads

MPI task timing breakdown:
Section |  min time  |  avg time  |  max time  |%varavg| %total
---------------------------------------------------------------
Pair    | 499.33     | 499.33     | 499.33     |   0.0 | 57.54
Neigh   | 343.66     | 343.66     | 343.66     |   0.0 | 39.60
Comm    | 9.7887     | 9.7887     | 9.7887     |   0.0 |  1.13
Output  | 0.054048   | 0.054048   | 0.054048   |   0.0 |  0.01
Modify  | 11.921     | 11.921     | 11.921     |   0.0 |  1.37
Other   |            | 3.014      |            |       |  0.35

Nlocal:    19652 ave 19652 max 19652 min
Histogram: 1 0 0 0 0 0 0 0 0 0
Nghost:    18990 ave 18990 max 18990 min
Histogram: 1 0 0 0 0 0 0 0 0 0
Neighs:    1.60065e+06 ave 1.60065e+06 max 1.60065e+06 min
Histogram: 1 0 0 0 0 0 0 0 0 0

Total # of neighbors = 1600651
Ave neighs/atom = 81.4498
Neighbor list builds = 4505
Dangerous builds not checked
Setting up Verlet run ...
  Unit style    : metal
  Current step  : 260000
  Time step     : 0.001
Per MPI rank memory allocation (min/avg/max) = 18.19 | 18.19 | 18.19 Mbytes
Step Temp Press TotEng PotEng Enthalpy 
  260000    251.27284    -882.2019   -74023.903   -74662.159   -74191.772 
  260495    224.40951    -21.89403   -74158.006   -74728.027   -74162.166 
Loop time of 96.4772 on 1 procs for 495 steps with 19652 atoms

Performance: 0.443 ns/day, 54.140 hours/ns, 5.131 timesteps/s
99.7% CPU use with 1 MPI tasks x no OpenMP threads

MPI task timing breakdown:
Section |  min time  |  avg time  |  max time  |%varavg| %total
---------------------------------------------------------------
Pair    | 55.953     | 55.953     | 55.953     |   0.0 | 58.00
Neigh   | 37.726     | 37.726     | 37.726     |   0.0 | 39.10
Comm    | 1.0981     | 1.0981     | 1.0981     |   0.0 |  1.14
Output  | 0.00029302 | 0.00029302 | 0.00029302 |   0.0 |  0.00
Modify  | 1.3619     | 1.3619     | 1.3619     |   0.0 |  1.41
Other   |            | 0.3375     |            |       |  0.35

Nlocal:    19652 ave 19652 max 19652 min
Histogram: 1 0 0 0 0 0 0 0 0 0
Nghost:    19017 ave 19017 max 19017 min
Histogram: 1 0 0 0 0 0 0 0 0 0
Neighs:    1.60273e+06 ave 1.60273e+06 max 1.60273e+06 min
Histogram: 1 0 0 0 0 0 0 0 0 0

Total # of neighbors = 1602730
Ave neighs/atom = 81.5556
Neighbor list builds = 495
Dangerous builds not checked
Setting up Verlet run ...
  Unit style    : metal
  Current step  : 260495
  Time step     : 0.001
Per MPI rank memory allocation (min/avg/max) = 18.19 | 18.19 | 18.19 Mbytes
Step Temp Press TotEng PotEng Enthalpy 
  260495    224.40951    -21.89403   -74158.006   -74728.027   -74162.166 
  265000    199.47073   -503.94757   -74295.741   -74802.415   -74391.415 
Loop time of 844.35 on 1 procs for 4505 steps with 19652 atoms

Performance: 0.461 ns/day, 52.063 hours/ns, 5.335 timesteps/s
99.8% CPU use with 1 MPI tasks x no OpenMP threads

MPI task timing breakdown:
Section |  min time  |  avg time  |  max time  |%varavg| %total
---------------------------------------------------------------
Pair    | 483.73     | 483.73     | 483.73     |   0.0 | 57.29
Neigh   | 338.03     | 338.03     | 338.03     |   0.0 | 40.03
Comm    | 8.8717     | 8.8717     | 8.8717     |   0.0 |  1.05
Output  | 0.054166   | 0.054166   | 0.054166   |   0.0 |  0.01
Modify  | 10.861     | 10.861     | 10.861     |   0.0 |  1.29
Other   |            | 2.797      |            |       |  0.33

Nlocal:    19652 ave 19652 max 19652 min
Histogram: 1 0 0 0 0 0 0 0 0 0
Nghost:    19029 ave 19029 max 19029 min
Histogram: 1 0 0 0 0 0 0 0 0 0
Neighs:    1.60347e+06 ave 1.60347e+06 max 1.60347e+06 min
Histogram: 1 0 0 0 0 0 0 0 0 0

Total # of neighbors = 1603471
Ave neighs/atom = 81.5933
Neighbor list builds = 4505
Dangerous builds not checked
Setting up Verlet run ...
  Unit style    : metal
  Current step  : 265000
  Time step     : 0.001
Per MPI rank memory allocation (min/avg/max) = 18.19 | 18.19 | 18.19 Mbytes
Step Temp Press TotEng PotEng Enthalpy 
  265000    199.47073   -503.94757   -74295.741   -74802.415   -74391.415 
  265495    175.46782   -473.30521   -74417.629   -74863.334   -74507.402 
Loop time of 99.1743 on 1 procs for 495 steps with 19652 atoms

Performance: 0.431 ns/day, 55.653 hours/ns, 4.991 timesteps/s
99.8% CPU use with 1 MPI tasks x no OpenMP threads

MPI task timing breakdown:
Section |  min time  |  avg time  |  max time  |%varavg| %total
---------------------------------------------------------------
Pair    | 57.884     | 57.884     | 57.884     |   0.0 | 58.37
Neigh   | 38.268     | 38.268     | 38.268     |   0.0 | 38.59
Comm    | 1.21       | 1.21       | 1.21       |   0.0 |  1.22
Output  | 0.00027299 | 0.00027299 | 0.00027299 |   0.0 |  0.00
Modify  | 1.4524     | 1.4524     | 1.4524     |   0.0 |  1.46
Other   |            | 0.3591     |            |       |  0.36

Nlocal:    19652 ave 19652 max 19652 min
Histogram: 1 0 0 0 0 0 0 0 0 0
Nghost:    19019 ave 19019 max 19019 min
Histogram: 1 0 0 0 0 0 0 0 0 0
Neighs:    1.60475e+06 ave 1.60475e+06 max 1.60475e+06 min
Histogram: 1 0 0 0 0 0 0 0 0 0

Total # of neighbors = 1604754
Ave neighs/atom = 81.6586
Neighbor list builds = 495
Dangerous builds not checked
Setting up Verlet run ...
  Unit style    : metal
  Current step  : 265495
  Time step     : 0.001
Per MPI rank memory allocation (min/avg/max) = 18.19 | 18.19 | 18.19 Mbytes
Step Temp Press TotEng PotEng Enthalpy 
  265495    175.46782   -473.30521   -74417.629   -74863.334   -74507.402 
  270000    148.69545   -972.83666    -74554.97    -74932.67   -74739.378 
Loop time of 906.701 on 1 procs for 4505 steps with 19652 atoms

Performance: 0.429 ns/day, 55.907 hours/ns, 4.969 timesteps/s
99.6% CPU use with 1 MPI tasks x no OpenMP threads

MPI task timing breakdown:
Section |  min time  |  avg time  |  max time  |%varavg| %total
---------------------------------------------------------------
Pair    | 527.45     | 527.45     | 527.45     |   0.0 | 58.17
Neigh   | 350.05     | 350.05     | 350.05     |   0.0 | 38.61
Comm    | 11.751     | 11.751     | 11.751     |   0.0 |  1.30
Output  | 0.053563   | 0.053563   | 0.053563   |   0.0 |  0.01
Modify  | 13.988     | 13.988     | 13.988     |   0.0 |  1.54
Other   |            | 3.41       |            |       |  0.38

Nlocal:    19652 ave 19652 max 19652 min
Histogram: 1 0 0 0 0 0 0 0 0 0
Nghost:    18975 ave 18975 max 18975 min
Histogram: 1 0 0 0 0 0 0 0 0 0
Neighs:    1.60536e+06 ave 1.60536e+06 max 1.60536e+06 min
Histogram: 1 0 0 0 0 0 0 0 0 0

Total # of neighbors = 1605363
Ave neighs/atom = 81.6895
Neighbor list builds = 4505
Dangerous builds not checked
Setting up Verlet run ...
  Unit style    : metal
  Current step  : 270000
  Time step     : 0.001
Per MPI rank memory allocation (min/avg/max) = 18.19 | 18.19 | 18.19 Mbytes
Step Temp Press TotEng PotEng Enthalpy 
  270000    148.69545   -972.83666    -74554.97    -74932.67   -74739.378 
  270495     126.3821    298.20256   -74670.857   -74991.879   -74614.424 
Loop time of 97.3606 on 1 procs for 495 steps with 19652 atoms

Performance: 0.439 ns/day, 54.636 hours/ns, 5.084 timesteps/s
99.7% CPU use with 1 MPI tasks x no OpenMP threads

MPI task timing breakdown:
Section |  min time  |  avg time  |  max time  |%varavg| %total
---------------------------------------------------------------
Pair    | 56.528     | 56.528     | 56.528     |   0.0 | 58.06
Neigh   | 37.922     | 37.922     | 37.922     |   0.0 | 38.95
Comm    | 1.1532     | 1.1532     | 1.1532     |   0.0 |  1.18
Output  | 0.00029397 | 0.00029397 | 0.00029397 |   0.0 |  0.00
Modify  | 1.4058     | 1.4058     | 1.4058     |   0.0 |  1.44
Other   |            | 0.3518     |            |       |  0.36

Nlocal:    19652 ave 19652 max 19652 min
Histogram: 1 0 0 0 0 0 0 0 0 0
Nghost:    19015 ave 19015 max 19015 min
Histogram: 1 0 0 0 0 0 0 0 0 0
Neighs:    1.60764e+06 ave 1.60764e+06 max 1.60764e+06 min
Histogram: 1 0 0 0 0 0 0 0 0 0

Total # of neighbors = 1607645
Ave neighs/atom = 81.8057
Neighbor list builds = 495
Dangerous builds not checked
Setting up Verlet run ...
  Unit style    : metal
  Current step  : 270495
  Time step     : 0.001
Per MPI rank memory allocation (min/avg/max) = 18.19 | 18.19 | 18.19 Mbytes
Step Temp Press TotEng PotEng Enthalpy 
  270495     126.3821    298.20256   -74670.857   -74991.879   -74614.424 
  275000    99.969698    307.06492   -74810.362   -75064.294   -74752.311 
Loop time of 876.047 on 1 procs for 4505 steps with 19652 atoms

Performance: 0.444 ns/day, 54.017 hours/ns, 5.142 timesteps/s
99.8% CPU use with 1 MPI tasks x no OpenMP threads

MPI task timing breakdown:
Section |  min time  |  avg time  |  max time  |%varavg| %total
---------------------------------------------------------------
Pair    | 507.64     | 507.64     | 507.64     |   0.0 | 57.95
Neigh   | 342.5      | 342.5      | 342.5      |   0.0 | 39.10
Comm    | 10.251     | 10.251     | 10.251     |   0.0 |  1.17
Output  | 0.055758   | 0.055758   | 0.055758   |   0.0 |  0.01
Modify  | 12.49      | 12.49      | 12.49      |   0.0 |  1.43
Other   |            | 3.117      |            |       |  0.36

Nlocal:    19652 ave 19652 max 19652 min
Histogram: 1 0 0 0 0 0 0 0 0 0
Nghost:    19042 ave 19042 max 19042 min
Histogram: 1 0 0 0 0 0 0 0 0 0
Neighs:    1.60867e+06 ave 1.60867e+06 max 1.60867e+06 min
Histogram: 1 0 0 0 0 0 0 0 0 0

Total # of neighbors = 1608674
Ave neighs/atom = 81.858
Neighbor list builds = 4505
Dangerous builds not checked
Total wall time: 13:52:50
