LAMMPS (12 Dec 2018)
Lattice spacing in x,y,z = 4 4 4
Created orthogonal box = (0 0 0) to (68 68 68)
  1 by 1 by 1 MPI processor grid
Created 19652 atoms
  Time spent = 0.00831795 secs
Setting atom values ...
  19652 settings made for type/fraction
Neighbor list info ...
  update every 1 steps, delay 0 steps, check no
  max neighbors/atom: 2000, page size: 100000
  master list distance cutoff = 8.5
  ghost atom cutoff = 8.5
  binsize = 4.25, bins = 16 16 16
  1 neighbor lists, perpetual/occasional/extra = 1 0 0
  (1) pair eam/alloy, perpetual
      attributes: half, newton on
      pair build: half/bin/atomonly/newton
      stencil: half/bin/3d/newton
      bin: standard
Setting up Verlet run ...
  Unit style    : metal
  Current step  : 0
  Time step     : 0.001
Per MPI rank memory allocation (min/avg/max) = 18.19 | 18.19 | 18.19 Mbytes
Step Temp Press TotEng PotEng Enthalpy Volume 
       0          300    36704.835   -65035.333    -65797.36   -57831.898       314432 
     667     149.9952    41471.721   -65035.172   -65416.173   -56896.221       314432 
    1000    150.61299    41438.505   -65035.172   -65417.742   -56902.739       314432 
Loop time of 170.505 on 1 procs for 1000 steps with 19652 atoms

Performance: 0.507 ns/day, 47.363 hours/ns, 5.865 timesteps/s
99.4% CPU use with 1 MPI tasks x no OpenMP threads

MPI task timing breakdown:
Section |  min time  |  avg time  |  max time  |%varavg| %total
---------------------------------------------------------------
Pair    | 103.06     | 103.06     | 103.06     |   0.0 | 60.45
Neigh   | 64.393     | 64.393     | 64.393     |   0.0 | 37.77
Comm    | 1.7219     | 1.7219     | 1.7219     |   0.0 |  1.01
Output  | 0.13932    | 0.13932    | 0.13932    |   0.0 |  0.08
Modify  | 0.69534    | 0.69534    | 0.69534    |   0.0 |  0.41
Other   |            | 0.4911     |            |       |  0.29

Nlocal:    19652 ave 19652 max 19652 min
Histogram: 1 0 0 0 0 0 0 0 0 0
Nghost:    20102 ave 20102 max 20102 min
Histogram: 1 0 0 0 0 0 0 0 0 0
Neighs:    1.57258e+06 ave 1.57258e+06 max 1.57258e+06 min
Histogram: 1 0 0 0 0 0 0 0 0 0

Total # of neighbors = 1572578
Ave neighs/atom = 80.0213
Neighbor list builds = 1000
Dangerous builds not checked
Setting up Verlet run ...
  Unit style    : metal
  Current step  : 1000
  Time step     : 0.001
Per MPI rank memory allocation (min/avg/max) = 18.19 | 18.19 | 18.19 Mbytes
Step Temp Press TotEng PotEng Enthalpy Volume 
    1000    150.61299    41438.505   -65035.172   -65417.742   -56902.739       314432 
    1334    173.41767   -4.0656519   -65010.733   -65451.229   -65011.572    330551.99 
    2000     295.9072   -29.867379    -64389.34   -65140.972   -64395.555    333360.61 
Loop time of 166.514 on 1 procs for 1000 steps with 19652 atoms

Performance: 0.519 ns/day, 46.254 hours/ns, 6.005 timesteps/s
99.6% CPU use with 1 MPI tasks x no OpenMP threads

MPI task timing breakdown:
Section |  min time  |  avg time  |  max time  |%varavg| %total
---------------------------------------------------------------
Pair    | 97.915     | 97.915     | 97.915     |   0.0 | 58.80
Neigh   | 64.508     | 64.508     | 64.508     |   0.0 | 38.74
Comm    | 1.6645     | 1.6645     | 1.6645     |   0.0 |  1.00
Output  | 0.05553    | 0.05553    | 0.05553    |   0.0 |  0.03
Modify  | 1.8912     | 1.8912     | 1.8912     |   0.0 |  1.14
Other   |            | 0.4802     |            |       |  0.29

Nlocal:    19652 ave 19652 max 19652 min
Histogram: 1 0 0 0 0 0 0 0 0 0
Nghost:    20097 ave 20097 max 20097 min
Histogram: 1 0 0 0 0 0 0 0 0 0
Neighs:    1.43262e+06 ave 1.43262e+06 max 1.43262e+06 min
Histogram: 1 0 0 0 0 0 0 0 0 0

Total # of neighbors = 1432622
Ave neighs/atom = 72.8996
Neighbor list builds = 1000
Dangerous builds not checked
Setting up Verlet run ...
  Unit style    : metal
  Current step  : 2000
  Time step     : 0.001
Per MPI rank memory allocation (min/avg/max) = 18.19 | 18.19 | 18.19 Mbytes
Step Temp Press TotEng PotEng Enthalpy Volume 
    2000     295.9072   -29.867379    -64389.34   -65140.972   -64395.555    333360.61 
    2001    295.85712   -27.229351   -64389.339   -65140.843   -64395.005    333360.61 
    2668     386.1059    219.69783   -63904.505   -64885.249   -63858.493    335547.44 
    3335    574.90056    519.32333   -62865.683   -64325.982   -62755.286    340587.22 
    4002     795.8127    65.590929   -61586.206   -63607.643   -61571.965    347859.77 
    4669    993.33275    27.396828    -60341.34   -62864.496   -60335.251       356069 
    5336     1154.292    99.493344   -58953.614   -61885.621   -58930.738    368385.88 
    6003    1319.7805    786.86568   -57053.532   -60405.895   -56862.037     389913.1 
    6670     1551.789   -60.646594   -55649.563   -59591.248   -55664.787    402193.98 
    7337     1727.291     -174.974   -54648.844    -59036.32    -54693.65    410272.51 
    8004    1899.9154   -438.27078   -53669.196   -58495.154   -53783.723    418674.13 
    8671    2091.6263   -83.435389   -52633.577   -57946.498   -52655.823    427188.13 
    9338    2274.9745    493.24704    -51660.61   -57439.252   -51526.556     435437.1 
   10000    2441.4407    547.33022   -50666.674   -56868.156   -50514.678    444931.69 
Loop time of 1244.49 on 1 procs for 8000 steps with 19652 atoms

Performance: 0.555 ns/day, 43.211 hours/ns, 6.428 timesteps/s
99.4% CPU use with 1 MPI tasks x no OpenMP threads

MPI task timing breakdown:
Section |  min time  |  avg time  |  max time  |%varavg| %total
---------------------------------------------------------------
Pair    | 697.42     | 697.42     | 697.42     |   0.0 | 56.04
Neigh   | 515.09     | 515.09     | 515.09     |   0.0 | 41.39
Comm    | 12.738     | 12.738     | 12.738     |   0.0 |  1.02
Output  | 0.6592     | 0.6592     | 0.6592     |   0.0 |  0.05
Modify  | 14.86      | 14.86      | 14.86      |   0.0 |  1.19
Other   |            | 3.72       |            |       |  0.30

Nlocal:    19652 ave 19652 max 19652 min
Histogram: 1 0 0 0 0 0 0 0 0 0
Nghost:    16427 ave 16427 max 16427 min
Histogram: 1 0 0 0 0 0 0 0 0 0
Neighs:    1.1073e+06 ave 1.1073e+06 max 1.1073e+06 min
Histogram: 1 0 0 0 0 0 0 0 0 0

Total # of neighbors = 1107303
Ave neighs/atom = 56.3456
Neighbor list builds = 8000
Dangerous builds not checked
Setting up Verlet run ...
  Unit style    : metal
  Current step  : 10000
  Time step     : 0.001
Per MPI rank memory allocation (min/avg/max) = 18.2 | 18.2 | 18.2 Mbytes
Step Temp Press TotEng PotEng Enthalpy Volume 
   10000    2441.4407    547.33022   -50666.674   -56868.156   -50514.678    444931.69 
   10005    2442.4738    581.55704   -50666.662   -56870.768   -50505.161    444932.31 
   10672     2436.479   -475.25034   -50609.545   -56798.424   -50742.225    447295.21 
   11339    2447.0748    226.22607   -50585.936   -56801.729   -50522.928    446237.78 
   12006    2459.5546    757.41155   -50630.927    -56878.42   -50420.658    444789.58 
   12673    2438.5972   -681.37257   -50554.325   -56748.584   -50745.017    448392.24 
   13340      2454.27    496.51231    -50599.49   -56833.559    -50461.39    445627.55 
   14007    2450.8621    228.94024   -50598.323   -56823.736   -50534.568    446172.17 
   14674    2433.7732   -785.34118   -50636.396   -56818.401   -50855.569    447136.67 
   15341    2449.0938    204.55722    -50642.86   -56863.782   -50585.974    445557.41 
   16008    2418.8772   -497.09178   -50710.556   -56854.725   -50849.063    446422.18 
   16675      2446.86    259.99052   -50598.298   -56813.545   -50525.876    446294.55 
   17342    2449.3477     763.0132   -50636.278   -56857.845   -50424.098    445536.03 
   18009    2440.7791   -1234.6753   -50598.076   -56797.877   -50943.447    448170.35 
   18676    2452.8608    376.00353   -50640.173   -56870.663   -50535.633    445452.86 
   19343    2452.2584   -417.34067   -50648.558   -56877.518   -50764.709     445906.1 
   20010    2451.6828    39.183582   -50597.181   -56824.679   -50586.266    446321.96 
   20677    2437.8802   -908.18361   -50620.488   -56812.926   -50873.921    447095.94 
   21344     2456.803    105.70515   -50635.308   -56875.812   -50605.933    445244.01 
   22011    2451.4713   -8.0219969   -50644.613   -56871.574   -50646.845    445806.79 
   22678    2456.8387    107.38876   -50652.011   -56892.605   -50622.157    445408.24 
   23345    2473.4495    -210.8127   -50624.643    -56907.43   -50683.258    445476.08 
   24012    2445.4103   -269.73849   -50621.806   -56833.371   -50696.994    446598.67 
   24679    2473.2395    481.14664   -50656.004   -56938.258   -50522.566    444336.39 
   25346    2456.0064   -1082.5977   -50559.362   -56797.842   -50862.031    447931.11 
   26013    2433.9829    -168.0938   -50649.671   -56832.209   -50696.496     446305.7 
   26680    2460.2991    560.96103    -50606.43   -56855.814   -50450.487    445393.03 
   27347    2447.4822   -4.2094541   -50617.256   -56834.083   -50618.428    446172.66 
   28014    2433.2296   -802.89196   -50657.278   -56837.903   -50881.419    447275.31 
   28681    2443.1648   -148.79493   -50633.672   -56839.533   -50675.134    446450.29 
   29348    2432.3508    413.81601   -50786.902   -56965.294   -50672.365    443454.74 
   30015    2446.7439   -542.60077   -50524.653   -56739.606   -50676.542    448490.96 
   30682    2445.0708    443.79825   -50683.114   -56893.816   -50559.868    444936.58 
   31349    2449.6317    385.52921   -50622.488   -56844.775   -50515.308    445415.24 
   32016     2443.717   -910.92096   -50558.521   -56765.785   -50813.533    448528.88 
   32683    2441.8973     517.6777   -50700.127   -56902.769   -50556.391    444852.24 
   33350    2459.9271    1537.8931   -50489.324   -56737.763   -50060.861    446373.16 
   34017    2469.2359   -986.86534   -50576.752   -56848.836   -50852.325     447393.8 
   34684    2428.5967   -335.25444   -50682.713    -56851.57   -50776.046    446039.32 
   35351    2449.5184   -9.0486093   -50668.965   -56890.965   -50671.482    445670.88 
   36018    2452.3973   -429.36767   -50583.733   -56813.045   -50703.632     447401.5 
   36685    2443.7858     773.6082   -50712.666   -56920.104   -50498.351    443854.73 
   37352    2440.2048   -892.27712   -50502.483   -56700.826   -50752.929    449701.72 
   38019    2455.4085    126.59933   -50647.397   -56884.358   -50612.176    445733.78 
   38686    2462.5268    1170.8141   -50602.174   -56857.217   -50277.211    444689.86 
   39353    2437.5729    505.43166   -50700.588   -56892.246   -50560.223    444947.54 
   40000    2433.8569   -434.40398   -50613.323   -56795.541   -50734.656    447504.46 
Loop time of 4371.66 on 1 procs for 30000 steps with 19652 atoms

Performance: 0.593 ns/day, 40.478 hours/ns, 6.862 timesteps/s
99.3% CPU use with 1 MPI tasks x no OpenMP threads

MPI task timing breakdown:
Section |  min time  |  avg time  |  max time  |%varavg| %total
---------------------------------------------------------------
Pair    | 2358       | 2358       | 2358       |   0.0 | 53.94
Neigh   | 1894.5     | 1894.5     | 1894.5     |   0.0 | 43.34
Comm    | 46.323     | 46.323     | 46.323     |   0.0 |  1.06
Output  | 2.5132     | 2.5132     | 2.5132     |   0.0 |  0.06
Modify  | 56.312     | 56.312     | 56.312     |   0.0 |  1.29
Other   |            | 13.97      |            |       |  0.32

Nlocal:    19652 ave 19652 max 19652 min
Histogram: 1 0 0 0 0 0 0 0 0 0
Nghost:    16269 ave 16269 max 16269 min
Histogram: 1 0 0 0 0 0 0 0 0 0
Neighs:    1.10082e+06 ave 1.10082e+06 max 1.10082e+06 min
Histogram: 1 0 0 0 0 0 0 0 0 0

Total # of neighbors = 1100823
Ave neighs/atom = 56.0158
Neighbor list builds = 30000
Dangerous builds not checked
Setting up Verlet run ...
  Unit style    : metal
  Current step  : 40000
  Time step     : 0.001
Per MPI rank memory allocation (min/avg/max) = 18.2 | 18.2 | 18.2 Mbytes
Step Temp Press TotEng PotEng Enthalpy Volume 
   40000    2433.8569   -434.40398   -50613.323   -56795.541   -50734.656    447504.46 
   40020    2446.1198   -679.07063   -50611.936   -56825.303   -50801.604    447495.95 
   40495    2411.0029   -111.80531   -50837.572   -56961.739   -50868.568     444177.6 
Loop time of 71.0862 on 1 procs for 495 steps with 19652 atoms

Performance: 0.602 ns/day, 39.891 hours/ns, 6.963 timesteps/s
99.3% CPU use with 1 MPI tasks x no OpenMP threads

MPI task timing breakdown:
Section |  min time  |  avg time  |  max time  |%varavg| %total
---------------------------------------------------------------
Pair    | 38.424     | 38.424     | 38.424     |   0.0 | 54.05
Neigh   | 30.666     | 30.666     | 30.666     |   0.0 | 43.14
Comm    | 0.74889    | 0.74889    | 0.74889    |   0.0 |  1.05
Output  | 0.055181   | 0.055181   | 0.055181   |   0.0 |  0.08
Modify  | 0.95536    | 0.95536    | 0.95536    |   0.0 |  1.34
Other   |            | 0.2362     |            |       |  0.33

Nlocal:    19652 ave 19652 max 19652 min
Histogram: 1 0 0 0 0 0 0 0 0 0
Nghost:    16230 ave 16230 max 16230 min
Histogram: 1 0 0 0 0 0 0 0 0 0
Neighs:    1.10941e+06 ave 1.10941e+06 max 1.10941e+06 min
Histogram: 1 0 0 0 0 0 0 0 0 0

Total # of neighbors = 1109411
Ave neighs/atom = 56.4528
Neighbor list builds = 495
Dangerous builds not checked
Setting up Verlet run ...
  Unit style    : metal
  Current step  : 40495
  Time step     : 0.001
Per MPI rank memory allocation (min/avg/max) = 18.2 | 18.2 | 18.2 Mbytes
Step Temp Press TotEng PotEng Enthalpy Volume 
   40495    2411.0029   -111.80531   -50837.572   -56961.739   -50868.568     444177.6 
   40667    2383.8616     18.25576   -50924.436   -56979.662   -50919.378     443881.6 
Loop time of 24.0684 on 1 procs for 172 steps with 19652 atoms

Performance: 0.617 ns/day, 38.870 hours/ns, 7.146 timesteps/s
99.4% CPU use with 1 MPI tasks x no OpenMP threads

MPI task timing breakdown:
Section |  min time  |  avg time  |  max time  |%varavg| %total
---------------------------------------------------------------
Pair    | 13.055     | 13.055     | 13.055     |   0.0 | 54.24
Neigh   | 10.351     | 10.351     | 10.351     |   0.0 | 43.01
Comm    | 0.25375    | 0.25375    | 0.25375    |   0.0 |  1.05
Output  | 0.00028706 | 0.00028706 | 0.00028706 |   0.0 |  0.00
Modify  | 0.32627    | 0.32627    | 0.32627    |   0.0 |  1.36
Other   |            | 0.08228    |            |       |  0.34

Nlocal:    19652 ave 19652 max 19652 min
Histogram: 1 0 0 0 0 0 0 0 0 0
Nghost:    16233 ave 16233 max 16233 min
Histogram: 1 0 0 0 0 0 0 0 0 0
Neighs:    1.10935e+06 ave 1.10935e+06 max 1.10935e+06 min
Histogram: 1 0 0 0 0 0 0 0 0 0

Total # of neighbors = 1109348
Ave neighs/atom = 56.4496
Neighbor list builds = 172
Dangerous builds not checked
Setting up Verlet run ...
  Unit style    : metal
  Current step  : 40667
  Time step     : 0.001
Per MPI rank memory allocation (min/avg/max) = 18.2 | 18.2 | 18.2 Mbytes
Step Temp Press TotEng PotEng Enthalpy Volume 
   40667    2383.8616     18.25576   -50924.436   -56979.662   -50919.378     443881.6 
   40687    2398.9898   -231.21697   -50923.543   -57017.195   -50987.601    443879.59 
   41162    2350.9935   -31.275054   -51115.384   -57087.122   -51124.001    441409.26 
Loop time of 70.3412 on 1 procs for 495 steps with 19652 atoms

Performance: 0.608 ns/day, 39.473 hours/ns, 7.037 timesteps/s
99.1% CPU use with 1 MPI tasks x no OpenMP threads

MPI task timing breakdown:
Section |  min time  |  avg time  |  max time  |%varavg| %total
---------------------------------------------------------------
Pair    | 37.976     | 37.976     | 37.976     |   0.0 | 53.99
Neigh   | 30.352     | 30.352     | 30.352     |   0.0 | 43.15
Comm    | 0.74591    | 0.74591    | 0.74591    |   0.0 |  1.06
Output  | 0.055143   | 0.055143   | 0.055143   |   0.0 |  0.08
Modify  | 0.94883    | 0.94883    | 0.94883    |   0.0 |  1.35
Other   |            | 0.2636     |            |       |  0.37

Nlocal:    19652 ave 19652 max 19652 min
Histogram: 1 0 0 0 0 0 0 0 0 0
Nghost:    16244 ave 16244 max 16244 min
Histogram: 1 0 0 0 0 0 0 0 0 0
Neighs:    1.11616e+06 ave 1.11616e+06 max 1.11616e+06 min
Histogram: 1 0 0 0 0 0 0 0 0 0

Total # of neighbors = 1116156
Ave neighs/atom = 56.7961
Neighbor list builds = 495
Dangerous builds not checked
Setting up Verlet run ...
  Unit style    : metal
  Current step  : 41162
  Time step     : 0.001
Per MPI rank memory allocation (min/avg/max) = 18.2 | 18.2 | 18.2 Mbytes
Step Temp Press TotEng PotEng Enthalpy Volume 
   41162    2350.9935   -31.275054   -51115.384   -57087.122   -51124.001    441409.26 
   41334    2338.8563   -493.34297   -51197.716   -57138.624   -51333.561    441170.17 
Loop time of 24.5613 on 1 procs for 172 steps with 19652 atoms

Performance: 0.605 ns/day, 39.666 hours/ns, 7.003 timesteps/s
97.8% CPU use with 1 MPI tasks x no OpenMP threads

MPI task timing breakdown:
Section |  min time  |  avg time  |  max time  |%varavg| %total
---------------------------------------------------------------
Pair    | 13.37      | 13.37      | 13.37      |   0.0 | 54.44
Neigh   | 10.511     | 10.511     | 10.511     |   0.0 | 42.80
Comm    | 0.26915    | 0.26915    | 0.26915    |   0.0 |  1.10
Output  | 0.00033092 | 0.00033092 | 0.00033092 |   0.0 |  0.00
Modify  | 0.3304     | 0.3304     | 0.3304     |   0.0 |  1.35
Other   |            | 0.08012    |            |       |  0.33

Nlocal:    19652 ave 19652 max 19652 min
Histogram: 1 0 0 0 0 0 0 0 0 0
Nghost:    16361 ave 16361 max 16361 min
Histogram: 1 0 0 0 0 0 0 0 0 0
Neighs:    1.11704e+06 ave 1.11704e+06 max 1.11704e+06 min
Histogram: 1 0 0 0 0 0 0 0 0 0

Total # of neighbors = 1117043
Ave neighs/atom = 56.8412
Neighbor list builds = 172
Dangerous builds not checked
Setting up Verlet run ...
  Unit style    : metal
  Current step  : 41334
  Time step     : 0.001
Per MPI rank memory allocation (min/avg/max) = 18.2 | 18.2 | 18.2 Mbytes
Step Temp Press TotEng PotEng Enthalpy Volume 
   41334    2338.8563   -493.34297   -51197.716   -57138.624   -51333.561    441170.17 
   41354    2344.8838   -509.09772   -51197.015   -57153.234   -51337.196    441160.62 
   41829    2296.7463   -74.055999     -51408.8   -57242.745   -51429.105    439285.46 
Loop time of 72.0892 on 1 procs for 495 steps with 19652 atoms

Performance: 0.593 ns/day, 40.454 hours/ns, 6.866 timesteps/s
98.3% CPU use with 1 MPI tasks x no OpenMP threads

MPI task timing breakdown:
Section |  min time  |  avg time  |  max time  |%varavg| %total
---------------------------------------------------------------
Pair    | 39.241     | 39.241     | 39.241     |   0.0 | 54.43
Neigh   | 30.87      | 30.87      | 30.87      |   0.0 | 42.82
Comm    | 0.7559     | 0.7559     | 0.7559     |   0.0 |  1.05
Output  | 0.055266   | 0.055266   | 0.055266   |   0.0 |  0.08
Modify  | 0.93847    | 0.93847    | 0.93847    |   0.0 |  1.30
Other   |            | 0.2295     |            |       |  0.32

Nlocal:    19652 ave 19652 max 19652 min
Histogram: 1 0 0 0 0 0 0 0 0 0
Nghost:    16354 ave 16354 max 16354 min
Histogram: 1 0 0 0 0 0 0 0 0 0
Neighs:    1.12189e+06 ave 1.12189e+06 max 1.12189e+06 min
Histogram: 1 0 0 0 0 0 0 0 0 0

Total # of neighbors = 1121888
Ave neighs/atom = 57.0877
Neighbor list builds = 495
Dangerous builds not checked
Setting up Verlet run ...
  Unit style    : metal
  Current step  : 41829
  Time step     : 0.001
Per MPI rank memory allocation (min/avg/max) = 18.2 | 18.2 | 18.2 Mbytes
Step Temp Press TotEng PotEng Enthalpy Volume 
   41829    2296.7463   -74.055999     -51408.8   -57242.745   -51429.105    439285.46 
   42001    2301.7437   -170.78225   -51434.668   -57281.307   -51481.442    438800.95 
Loop time of 24.0072 on 1 procs for 172 steps with 19652 atoms

Performance: 0.619 ns/day, 38.771 hours/ns, 7.165 timesteps/s
98.6% CPU use with 1 MPI tasks x no OpenMP threads

MPI task timing breakdown:
Section |  min time  |  avg time  |  max time  |%varavg| %total
---------------------------------------------------------------
Pair    | 13.075     | 13.075     | 13.075     |   0.0 | 54.46
Neigh   | 10.292     | 10.292     | 10.292     |   0.0 | 42.87
Comm    | 0.24738    | 0.24738    | 0.24738    |   0.0 |  1.03
Output  | 0.00030994 | 0.00030994 | 0.00030994 |   0.0 |  0.00
Modify  | 0.31523    | 0.31523    | 0.31523    |   0.0 |  1.31
Other   |            | 0.07727    |            |       |  0.32

Nlocal:    19652 ave 19652 max 19652 min
Histogram: 1 0 0 0 0 0 0 0 0 0
Nghost:    16338 ave 16338 max 16338 min
Histogram: 1 0 0 0 0 0 0 0 0 0
Neighs:    1.12286e+06 ave 1.12286e+06 max 1.12286e+06 min
Histogram: 1 0 0 0 0 0 0 0 0 0

Total # of neighbors = 1122859
Ave neighs/atom = 57.1371
Neighbor list builds = 172
Dangerous builds not checked
Setting up Verlet run ...
  Unit style    : metal
  Current step  : 42001
  Time step     : 0.001
Per MPI rank memory allocation (min/avg/max) = 18.2 | 18.2 | 18.2 Mbytes
Step Temp Press TotEng PotEng Enthalpy Volume 
   42001    2301.7437   -170.78225   -51434.668   -57281.307   -51481.442    438800.95 
   42021    2287.7493    133.59236   -51434.117   -57245.209   -51397.529    438800.31 
   42496    2271.4942    309.00664   -51682.142   -57451.945   -51598.169    435394.24 
Loop time of 69.6665 on 1 procs for 495 steps with 19652 atoms

Performance: 0.614 ns/day, 39.095 hours/ns, 7.105 timesteps/s
99.4% CPU use with 1 MPI tasks x no OpenMP threads

MPI task timing breakdown:
Section |  min time  |  avg time  |  max time  |%varavg| %total
---------------------------------------------------------------
Pair    | 37.609     | 37.609     | 37.609     |   0.0 | 53.98
Neigh   | 30.162     | 30.162     | 30.162     |   0.0 | 43.29
Comm    | 0.71959    | 0.71959    | 0.71959    |   0.0 |  1.03
Output  | 0.054993   | 0.054993   | 0.054993   |   0.0 |  0.08
Modify  | 0.90439    | 0.90439    | 0.90439    |   0.0 |  1.30
Other   |            | 0.2166     |            |       |  0.31

Nlocal:    19652 ave 19652 max 19652 min
Histogram: 1 0 0 0 0 0 0 0 0 0
Nghost:    16501 ave 16501 max 16501 min
Histogram: 1 0 0 0 0 0 0 0 0 0
Neighs:    1.13142e+06 ave 1.13142e+06 max 1.13142e+06 min
Histogram: 1 0 0 0 0 0 0 0 0 0

Total # of neighbors = 1131424
Ave neighs/atom = 57.573
Neighbor list builds = 495
Dangerous builds not checked
Setting up Verlet run ...
  Unit style    : metal
  Current step  : 42496
  Time step     : 0.001
Per MPI rank memory allocation (min/avg/max) = 18.2 | 18.2 | 18.2 Mbytes
Step Temp Press TotEng PotEng Enthalpy Volume 
   42496    2271.4942    309.00664   -51682.142   -57451.945   -51598.169    435394.24 
   42668    2224.3288    86.633332   -51752.598   -57402.596   -51729.033    435821.03 
Loop time of 23.7275 on 1 procs for 172 steps with 19652 atoms

Performance: 0.626 ns/day, 38.320 hours/ns, 7.249 timesteps/s
99.8% CPU use with 1 MPI tasks x no OpenMP threads

MPI task timing breakdown:
Section |  min time  |  avg time  |  max time  |%varavg| %total
---------------------------------------------------------------
Pair    | 12.922     | 12.922     | 12.922     |   0.0 | 54.46
Neigh   | 10.173     | 10.173     | 10.173     |   0.0 | 42.88
Comm    | 0.24162    | 0.24162    | 0.24162    |   0.0 |  1.02
Output  | 0.00028396 | 0.00028396 | 0.00028396 |   0.0 |  0.00
Modify  | 0.31442    | 0.31442    | 0.31442    |   0.0 |  1.33
Other   |            | 0.07585    |            |       |  0.32

Nlocal:    19652 ave 19652 max 19652 min
Histogram: 1 0 0 0 0 0 0 0 0 0
Nghost:    16487 ave 16487 max 16487 min
Histogram: 1 0 0 0 0 0 0 0 0 0
Neighs:    1.13013e+06 ave 1.13013e+06 max 1.13013e+06 min
Histogram: 1 0 0 0 0 0 0 0 0 0

Total # of neighbors = 1130129
Ave neighs/atom = 57.5071
Neighbor list builds = 172
Dangerous builds not checked
Setting up Verlet run ...
  Unit style    : metal
  Current step  : 42668
  Time step     : 0.001
Per MPI rank memory allocation (min/avg/max) = 18.2 | 18.2 | 18.2 Mbytes
Step Temp Press TotEng PotEng Enthalpy Volume 
   42668    2224.3288    86.633332   -51752.598   -57402.596   -51729.033    435821.03 
   42688    2240.3278   -474.40404   -51750.595   -57441.232   -51879.641    435819.44 
   43163    2194.0663    172.47601   -51922.527   -57495.655   -51875.754    434484.25 
Loop time of 69.3516 on 1 procs for 495 steps with 19652 atoms

Performance: 0.617 ns/day, 38.918 hours/ns, 7.138 timesteps/s
99.4% CPU use with 1 MPI tasks x no OpenMP threads

MPI task timing breakdown:
Section |  min time  |  avg time  |  max time  |%varavg| %total
---------------------------------------------------------------
Pair    | 37.659     | 37.659     | 37.659     |   0.0 | 54.30
Neigh   | 29.805     | 29.805     | 29.805     |   0.0 | 42.98
Comm    | 0.70285    | 0.70285    | 0.70285    |   0.0 |  1.01
Output  | 0.055164   | 0.055164   | 0.055164   |   0.0 |  0.08
Modify  | 0.91264    | 0.91264    | 0.91264    |   0.0 |  1.32
Other   |            | 0.2177     |            |       |  0.31

Nlocal:    19652 ave 19652 max 19652 min
Histogram: 1 0 0 0 0 0 0 0 0 0
Nghost:    16439 ave 16439 max 16439 min
Histogram: 1 0 0 0 0 0 0 0 0 0
Neighs:    1.134e+06 ave 1.134e+06 max 1.134e+06 min
Histogram: 1 0 0 0 0 0 0 0 0 0

Total # of neighbors = 1134000
Ave neighs/atom = 57.7041
Neighbor list builds = 495
Dangerous builds not checked
Setting up Verlet run ...
  Unit style    : metal
  Current step  : 43163
  Time step     : 0.001
Per MPI rank memory allocation (min/avg/max) = 18.2 | 18.2 | 18.2 Mbytes
Step Temp Press TotEng PotEng Enthalpy Volume 
   43163    2194.0663    172.47601   -51922.527   -57495.655   -51875.754    434484.25 
   43335    2191.9536   -444.59075   -51997.901   -57565.663   -52118.297    433870.43 
Loop time of 24.0718 on 1 procs for 172 steps with 19652 atoms

Performance: 0.617 ns/day, 38.876 hours/ns, 7.145 timesteps/s
99.2% CPU use with 1 MPI tasks x no OpenMP threads

MPI task timing breakdown:
Section |  min time  |  avg time  |  max time  |%varavg| %total
---------------------------------------------------------------
Pair    | 13.183     | 13.183     | 13.183     |   0.0 | 54.76
Neigh   | 10.228     | 10.228     | 10.228     |   0.0 | 42.49
Comm    | 0.25915    | 0.25915    | 0.25915    |   0.0 |  1.08
Output  | 0.00031185 | 0.00031185 | 0.00031185 |   0.0 |  0.00
Modify  | 0.32369    | 0.32369    | 0.32369    |   0.0 |  1.34
Other   |            | 0.07745    |            |       |  0.32

Nlocal:    19652 ave 19652 max 19652 min
Histogram: 1 0 0 0 0 0 0 0 0 0
Nghost:    16435 ave 16435 max 16435 min
Histogram: 1 0 0 0 0 0 0 0 0 0
Neighs:    1.13583e+06 ave 1.13583e+06 max 1.13583e+06 min
Histogram: 1 0 0 0 0 0 0 0 0 0

Total # of neighbors = 1135834
Ave neighs/atom = 57.7974
Neighbor list builds = 172
Dangerous builds not checked
Setting up Verlet run ...
  Unit style    : metal
  Current step  : 43335
  Time step     : 0.001
Per MPI rank memory allocation (min/avg/max) = 18.2 | 18.2 | 18.2 Mbytes
Step Temp Press TotEng PotEng Enthalpy Volume 
   43335    2191.9536   -444.59075   -51997.901   -57565.663   -52118.297    433870.43 
   43355    2194.8813   -267.41338   -51997.312   -57572.511   -52069.727    433863.41 
   43830    2156.5981    908.47163   -52211.686   -57689.641   -51967.508    430630.29 
Loop time of 70.9539 on 1 procs for 495 steps with 19652 atoms

Performance: 0.603 ns/day, 39.817 hours/ns, 6.976 timesteps/s
99.3% CPU use with 1 MPI tasks x no OpenMP threads

MPI task timing breakdown:
Section |  min time  |  avg time  |  max time  |%varavg| %total
---------------------------------------------------------------
Pair    | 38.547     | 38.547     | 38.547     |   0.0 | 54.33
Neigh   | 30.497     | 30.497     | 30.497     |   0.0 | 42.98
Comm    | 0.71764    | 0.71764    | 0.71764    |   0.0 |  1.01
Output  | 0.055401   | 0.055401   | 0.055401   |   0.0 |  0.08
Modify  | 0.91444    | 0.91444    | 0.91444    |   0.0 |  1.29
Other   |            | 0.2228     |            |       |  0.31

Nlocal:    19652 ave 19652 max 19652 min
Histogram: 1 0 0 0 0 0 0 0 0 0
Nghost:    16540 ave 16540 max 16540 min
Histogram: 1 0 0 0 0 0 0 0 0 0
Neighs:    1.14416e+06 ave 1.14416e+06 max 1.14416e+06 min
Histogram: 1 0 0 0 0 0 0 0 0 0

Total # of neighbors = 1144160
Ave neighs/atom = 58.221
Neighbor list builds = 495
Dangerous builds not checked
Setting up Verlet run ...
  Unit style    : metal
  Current step  : 43830
  Time step     : 0.001
Per MPI rank memory allocation (min/avg/max) = 18.2 | 18.2 | 18.2 Mbytes
Step Temp Press TotEng PotEng Enthalpy Volume 
   43830    2156.5981    908.47163   -52211.686   -57689.641   -51967.508    430630.29 
   44002    2154.9112    -465.8981   -52307.905   -57781.576   -52433.227    430970.42 
Loop time of 23.906 on 1 procs for 172 steps with 19652 atoms

Performance: 0.622 ns/day, 38.608 hours/ns, 7.195 timesteps/s
99.4% CPU use with 1 MPI tasks x no OpenMP threads

MPI task timing breakdown:
Section |  min time  |  avg time  |  max time  |%varavg| %total
---------------------------------------------------------------
Pair    | 13.041     | 13.041     | 13.041     |   0.0 | 54.55
Neigh   | 10.232     | 10.232     | 10.232     |   0.0 | 42.80
Comm    | 0.24303    | 0.24303    | 0.24303    |   0.0 |  1.02
Output  | 0.00032496 | 0.00032496 | 0.00032496 |   0.0 |  0.00
Modify  | 0.31466    | 0.31466    | 0.31466    |   0.0 |  1.32
Other   |            | 0.07576    |            |       |  0.32

Nlocal:    19652 ave 19652 max 19652 min
Histogram: 1 0 0 0 0 0 0 0 0 0
Nghost:    16461 ave 16461 max 16461 min
Histogram: 1 0 0 0 0 0 0 0 0 0
Neighs:    1.1437e+06 ave 1.1437e+06 max 1.1437e+06 min
Histogram: 1 0 0 0 0 0 0 0 0 0

Total # of neighbors = 1143702
Ave neighs/atom = 58.1977
Neighbor list builds = 172
Dangerous builds not checked
Setting up Verlet run ...
  Unit style    : metal
  Current step  : 44002
  Time step     : 0.001
Per MPI rank memory allocation (min/avg/max) = 18.2 | 18.2 | 18.2 Mbytes
Step Temp Press TotEng PotEng Enthalpy Volume 
   44002    2154.9112    -465.8981   -52307.905   -57781.576   -52433.227    430970.42 
   44022     2137.549   -35.600403   -52308.286   -57737.855   -52317.862    430963.55 
   44497    2113.8177    44.972022   -52504.365   -57873.654   -52492.339    428409.13 
Loop time of 70.6182 on 1 procs for 495 steps with 19652 atoms

Performance: 0.606 ns/day, 39.629 hours/ns, 7.010 timesteps/s
99.4% CPU use with 1 MPI tasks x no OpenMP threads

MPI task timing breakdown:
Section |  min time  |  avg time  |  max time  |%varavg| %total
---------------------------------------------------------------
Pair    | 38.366     | 38.366     | 38.366     |   0.0 | 54.33
Neigh   | 30.326     | 30.326     | 30.326     |   0.0 | 42.94
Comm    | 0.71946    | 0.71946    | 0.71946    |   0.0 |  1.02
Output  | 0.055187   | 0.055187   | 0.055187   |   0.0 |  0.08
Modify  | 0.93192    | 0.93192    | 0.93192    |   0.0 |  1.32
Other   |            | 0.2205     |            |       |  0.31

Nlocal:    19652 ave 19652 max 19652 min
Histogram: 1 0 0 0 0 0 0 0 0 0
Nghost:    16566 ave 16566 max 16566 min
Histogram: 1 0 0 0 0 0 0 0 0 0
Neighs:    1.15032e+06 ave 1.15032e+06 max 1.15032e+06 min
Histogram: 1 0 0 0 0 0 0 0 0 0

Total # of neighbors = 1150318
Ave neighs/atom = 58.5344
Neighbor list builds = 495
Dangerous builds not checked
Setting up Verlet run ...
  Unit style    : metal
  Current step  : 44497
  Time step     : 0.001
Per MPI rank memory allocation (min/avg/max) = 18.2 | 18.2 | 18.2 Mbytes
Step Temp Press TotEng PotEng Enthalpy Volume 
   44497    2113.8177    44.972022   -52504.365   -57873.654   -52492.339    428409.13 
   44669    2085.1692   -242.80505     -52584.4    -57880.92   -52649.348    428567.27 
Loop time of 24.0039 on 1 procs for 172 steps with 19652 atoms

Performance: 0.619 ns/day, 38.766 hours/ns, 7.166 timesteps/s
99.9% CPU use with 1 MPI tasks x no OpenMP threads

MPI task timing breakdown:
Section |  min time  |  avg time  |  max time  |%varavg| %total
---------------------------------------------------------------
Pair    | 13.177     | 13.177     | 13.177     |   0.0 | 54.90
Neigh   | 10.193     | 10.193     | 10.193     |   0.0 | 42.47
Comm    | 0.24228    | 0.24228    | 0.24228    |   0.0 |  1.01
Output  | 0.00029588 | 0.00029588 | 0.00029588 |   0.0 |  0.00
Modify  | 0.31412    | 0.31412    | 0.31412    |   0.0 |  1.31
Other   |            | 0.07674    |            |       |  0.32

Nlocal:    19652 ave 19652 max 19652 min
Histogram: 1 0 0 0 0 0 0 0 0 0
Nghost:    16490 ave 16490 max 16490 min
Histogram: 1 0 0 0 0 0 0 0 0 0
Neighs:    1.15043e+06 ave 1.15043e+06 max 1.15043e+06 min
Histogram: 1 0 0 0 0 0 0 0 0 0

Total # of neighbors = 1150432
Ave neighs/atom = 58.5402
Neighbor list builds = 172
Dangerous builds not checked
Setting up Verlet run ...
  Unit style    : metal
  Current step  : 44669
  Time step     : 0.001
Per MPI rank memory allocation (min/avg/max) = 18.2 | 18.2 | 18.2 Mbytes
Step Temp Press TotEng PotEng Enthalpy Volume 
   44669    2085.1692   -242.80505     -52584.4    -57880.92   -52649.348    428567.27 
   44689    2087.0251   -292.89234   -52582.641   -57883.875   -52660.986    428563.58 
   45164    2043.8427    735.50943   -52771.495   -57963.041   -52575.802    426281.49 
Loop time of 69.5982 on 1 procs for 495 steps with 19652 atoms

Performance: 0.614 ns/day, 39.056 hours/ns, 7.112 timesteps/s
99.6% CPU use with 1 MPI tasks x no OpenMP threads

MPI task timing breakdown:
Section |  min time  |  avg time  |  max time  |%varavg| %total
---------------------------------------------------------------
Pair    | 38.03      | 38.03      | 38.03      |   0.0 | 54.64
Neigh   | 29.689     | 29.689     | 29.689     |   0.0 | 42.66
Comm    | 0.70255    | 0.70255    | 0.70255    |   0.0 |  1.01
Output  | 0.055111   | 0.055111   | 0.055111   |   0.0 |  0.08
Modify  | 0.90182    | 0.90182    | 0.90182    |   0.0 |  1.30
Other   |            | 0.2195     |            |       |  0.32

Nlocal:    19652 ave 19652 max 19652 min
Histogram: 1 0 0 0 0 0 0 0 0 0
Nghost:    16522 ave 16522 max 16522 min
Histogram: 1 0 0 0 0 0 0 0 0 0
Neighs:    1.1559e+06 ave 1.1559e+06 max 1.1559e+06 min
Histogram: 1 0 0 0 0 0 0 0 0 0

Total # of neighbors = 1155905
Ave neighs/atom = 58.8187
Neighbor list builds = 495
Dangerous builds not checked
Setting up Verlet run ...
  Unit style    : metal
  Current step  : 45164
  Time step     : 0.001
Per MPI rank memory allocation (min/avg/max) = 18.2 | 18.2 | 18.2 Mbytes
Step Temp Press TotEng PotEng Enthalpy Volume 
   45164    2043.8427    735.50943   -52771.495   -57963.041   -52575.802    426281.49 
   45336    2043.0917   -617.24831   -52827.626   -58017.265   -52991.911    426431.52 
Loop time of 24.0636 on 1 procs for 172 steps with 19652 atoms

Performance: 0.618 ns/day, 38.862 hours/ns, 7.148 timesteps/s
99.6% CPU use with 1 MPI tasks x no OpenMP threads

MPI task timing breakdown:
Section |  min time  |  avg time  |  max time  |%varavg| %total
---------------------------------------------------------------
Pair    | 13.197     | 13.197     | 13.197     |   0.0 | 54.84
Neigh   | 10.229     | 10.229     | 10.229     |   0.0 | 42.51
Comm    | 0.24238    | 0.24238    | 0.24238    |   0.0 |  1.01
Output  | 0.00024104 | 0.00024104 | 0.00024104 |   0.0 |  0.00
Modify  | 0.31804    | 0.31804    | 0.31804    |   0.0 |  1.32
Other   |            | 0.07765    |            |       |  0.32

Nlocal:    19652 ave 19652 max 19652 min
Histogram: 1 0 0 0 0 0 0 0 0 0
Nghost:    16552 ave 16552 max 16552 min
Histogram: 1 0 0 0 0 0 0 0 0 0
Neighs:    1.15573e+06 ave 1.15573e+06 max 1.15573e+06 min
Histogram: 1 0 0 0 0 0 0 0 0 0

Total # of neighbors = 1155731
Ave neighs/atom = 58.8098
Neighbor list builds = 172
Dangerous builds not checked
Setting up Verlet run ...
  Unit style    : metal
  Current step  : 45336
  Time step     : 0.001
Per MPI rank memory allocation (min/avg/max) = 18.2 | 18.2 | 18.2 Mbytes
Step Temp Press TotEng PotEng Enthalpy Volume 
   45336    2043.0917   -617.24831   -52827.626   -58017.265   -52991.911    426431.52 
   45356    2048.6241   -395.41671   -52827.275   -58030.967   -52932.516    426420.88 
   45831    1994.1507    510.45658   -53061.664   -58126.988   -52926.758       423431 
Loop time of 71.155 on 1 procs for 495 steps with 19652 atoms

Performance: 0.601 ns/day, 39.930 hours/ns, 6.957 timesteps/s
98.9% CPU use with 1 MPI tasks x no OpenMP threads

MPI task timing breakdown:
Section |  min time  |  avg time  |  max time  |%varavg| %total
---------------------------------------------------------------
Pair    | 38.883     | 38.883     | 38.883     |   0.0 | 54.65
Neigh   | 30.335     | 30.335     | 30.335     |   0.0 | 42.63
Comm    | 0.72886    | 0.72886    | 0.72886    |   0.0 |  1.02
Output  | 0.055069   | 0.055069   | 0.055069   |   0.0 |  0.08
Modify  | 0.93108    | 0.93108    | 0.93108    |   0.0 |  1.31
Other   |            | 0.2221     |            |       |  0.31

Nlocal:    19652 ave 19652 max 19652 min
Histogram: 1 0 0 0 0 0 0 0 0 0
Nghost:    16627 ave 16627 max 16627 min
Histogram: 1 0 0 0 0 0 0 0 0 0
Neighs:    1.16397e+06 ave 1.16397e+06 max 1.16397e+06 min
Histogram: 1 0 0 0 0 0 0 0 0 0

Total # of neighbors = 1163968
Ave neighs/atom = 59.229
Neighbor list builds = 495
Dangerous builds not checked
Setting up Verlet run ...
  Unit style    : metal
  Current step  : 45831
  Time step     : 0.001
Per MPI rank memory allocation (min/avg/max) = 18.2 | 18.2 | 18.2 Mbytes
Step Temp Press TotEng PotEng Enthalpy Volume 
   45831    1994.1507    510.45658   -53061.664   -58126.988   -52926.758       423431 
   46003    1983.7237    3.7799239    -53122.35   -58161.189    -53121.35    423610.24 
Loop time of 24.6763 on 1 procs for 172 steps with 19652 atoms

Performance: 0.602 ns/day, 39.852 hours/ns, 6.970 timesteps/s
97.8% CPU use with 1 MPI tasks x no OpenMP threads

MPI task timing breakdown:
Section |  min time  |  avg time  |  max time  |%varavg| %total
---------------------------------------------------------------
Pair    | 13.678     | 13.678     | 13.678     |   0.0 | 55.43
Neigh   | 10.327     | 10.327     | 10.327     |   0.0 | 41.85
Comm    | 0.26939    | 0.26939    | 0.26939    |   0.0 |  1.09
Output  | 0.00031996 | 0.00031996 | 0.00031996 |   0.0 |  0.00
Modify  | 0.32354    | 0.32354    | 0.32354    |   0.0 |  1.31
Other   |            | 0.07762    |            |       |  0.31

Nlocal:    19652 ave 19652 max 19652 min
Histogram: 1 0 0 0 0 0 0 0 0 0
Nghost:    16607 ave 16607 max 16607 min
Histogram: 1 0 0 0 0 0 0 0 0 0
Neighs:    1.16406e+06 ave 1.16406e+06 max 1.16406e+06 min
Histogram: 1 0 0 0 0 0 0 0 0 0

Total # of neighbors = 1164059
Ave neighs/atom = 59.2336
Neighbor list builds = 172
Dangerous builds not checked
Setting up Verlet run ...
  Unit style    : metal
  Current step  : 46003
  Time step     : 0.001
Per MPI rank memory allocation (min/avg/max) = 18.2 | 18.2 | 18.2 Mbytes
Step Temp Press TotEng PotEng Enthalpy Volume 
   46003    1983.7237    3.7799239    -53122.35   -58161.189    -53121.35    423610.24 
   46023    1976.1571    181.76074    -53120.47   -58140.089   -53072.413    423611.67 
   46498     1961.778   -77.369576   -53305.135    -58288.23   -53325.492    421538.25 
Loop time of 71.2067 on 1 procs for 495 steps with 19652 atoms

Performance: 0.601 ns/day, 39.959 hours/ns, 6.952 timesteps/s
99.2% CPU use with 1 MPI tasks x no OpenMP threads

MPI task timing breakdown:
Section |  min time  |  avg time  |  max time  |%varavg| %total
---------------------------------------------------------------
Pair    | 38.969     | 38.969     | 38.969     |   0.0 | 54.73
Neigh   | 30.332     | 30.332     | 30.332     |   0.0 | 42.60
Comm    | 0.71601    | 0.71601    | 0.71601    |   0.0 |  1.01
Output  | 0.05409    | 0.05409    | 0.05409    |   0.0 |  0.08
Modify  | 0.90267    | 0.90267    | 0.90267    |   0.0 |  1.27
Other   |            | 0.2328     |            |       |  0.33

Nlocal:    19652 ave 19652 max 19652 min
Histogram: 1 0 0 0 0 0 0 0 0 0
Nghost:    16577 ave 16577 max 16577 min
Histogram: 1 0 0 0 0 0 0 0 0 0
Neighs:    1.16955e+06 ave 1.16955e+06 max 1.16955e+06 min
Histogram: 1 0 0 0 0 0 0 0 0 0

Total # of neighbors = 1169549
Ave neighs/atom = 59.513
Neighbor list builds = 495
Dangerous builds not checked
Setting up Verlet run ...
  Unit style    : metal
  Current step  : 46498
  Time step     : 0.001
Per MPI rank memory allocation (min/avg/max) = 18.2 | 18.2 | 18.2 Mbytes
Step Temp Press TotEng PotEng Enthalpy Volume 
   46498     1961.778   -77.369576   -53305.135    -58288.23   -53325.492    421538.25 
   46670    1942.1954    -306.5163    -53387.89   -58321.243   -53468.499    421351.62 
Loop time of 24.239 on 1 procs for 172 steps with 19652 atoms

Performance: 0.613 ns/day, 39.146 hours/ns, 7.096 timesteps/s
99.8% CPU use with 1 MPI tasks x no OpenMP threads

MPI task timing breakdown:
Section |  min time  |  avg time  |  max time  |%varavg| %total
---------------------------------------------------------------
Pair    | 13.404     | 13.404     | 13.404     |   0.0 | 55.30
Neigh   | 10.204     | 10.204     | 10.204     |   0.0 | 42.10
Comm    | 0.24119    | 0.24119    | 0.24119    |   0.0 |  1.00
Output  | 0.00032902 | 0.00032902 | 0.00032902 |   0.0 |  0.00
Modify  | 0.31321    | 0.31321    | 0.31321    |   0.0 |  1.29
Other   |            | 0.07638    |            |       |  0.32

Nlocal:    19652 ave 19652 max 19652 min
Histogram: 1 0 0 0 0 0 0 0 0 0
Nghost:    16525 ave 16525 max 16525 min
Histogram: 1 0 0 0 0 0 0 0 0 0
Neighs:    1.17024e+06 ave 1.17024e+06 max 1.17024e+06 min
Histogram: 1 0 0 0 0 0 0 0 0 0

Total # of neighbors = 1170240
Ave neighs/atom = 59.5481
Neighbor list builds = 172
Dangerous builds not checked
Setting up Verlet run ...
  Unit style    : metal
  Current step  : 46670
  Time step     : 0.001
Per MPI rank memory allocation (min/avg/max) = 18.2 | 18.2 | 18.2 Mbytes
Step Temp Press TotEng PotEng Enthalpy Volume 
   46670    1942.1954    -306.5163    -53387.89   -58321.243   -53468.499    421351.62 
   46690    1928.8512   -64.175477   -53386.811   -58286.269   -53403.689    421347.19 
   47165    1910.9466    96.071326   -53612.249   -58466.228   -53587.149    418591.77 
Loop time of 70.8921 on 1 procs for 495 steps with 19652 atoms

Performance: 0.603 ns/day, 39.782 hours/ns, 6.982 timesteps/s
99.4% CPU use with 1 MPI tasks x no OpenMP threads

MPI task timing breakdown:
Section |  min time  |  avg time  |  max time  |%varavg| %total
---------------------------------------------------------------
Pair    | 39.263     | 39.263     | 39.263     |   0.0 | 55.38
Neigh   | 29.717     | 29.717     | 29.717     |   0.0 | 41.92
Comm    | 0.71061    | 0.71061    | 0.71061    |   0.0 |  1.00
Output  | 0.054692   | 0.054692   | 0.054692   |   0.0 |  0.08
Modify  | 0.9137     | 0.9137     | 0.9137     |   0.0 |  1.29
Other   |            | 0.2335     |            |       |  0.33

Nlocal:    19652 ave 19652 max 19652 min
Histogram: 1 0 0 0 0 0 0 0 0 0
Nghost:    16656 ave 16656 max 16656 min
Histogram: 1 0 0 0 0 0 0 0 0 0
Neighs:    1.17766e+06 ave 1.17766e+06 max 1.17766e+06 min
Histogram: 1 0 0 0 0 0 0 0 0 0

Total # of neighbors = 1177656
Ave neighs/atom = 59.9255
Neighbor list builds = 495
Dangerous builds not checked
Setting up Verlet run ...
  Unit style    : metal
  Current step  : 47165
  Time step     : 0.001
Per MPI rank memory allocation (min/avg/max) = 18.2 | 18.2 | 18.2 Mbytes
Step Temp Press TotEng PotEng Enthalpy Volume 
   47165    1910.9466    96.071326   -53612.249   -58466.228   -53587.149    418591.77 
   47337    1895.9089   -400.01445     -53683.2   -58498.982   -53787.725    418652.28 
Loop time of 24.2199 on 1 procs for 172 steps with 19652 atoms

Performance: 0.614 ns/day, 39.115 hours/ns, 7.102 timesteps/s
99.8% CPU use with 1 MPI tasks x no OpenMP threads

MPI task timing breakdown:
Section |  min time  |  avg time  |  max time  |%varavg| %total
---------------------------------------------------------------
Pair    | 13.378     | 13.378     | 13.378     |   0.0 | 55.24
Neigh   | 10.202     | 10.202     | 10.202     |   0.0 | 42.12
Comm    | 0.24356    | 0.24356    | 0.24356    |   0.0 |  1.01
Output  | 0.00026393 | 0.00026393 | 0.00026393 |   0.0 |  0.00
Modify  | 0.31742    | 0.31742    | 0.31742    |   0.0 |  1.31
Other   |            | 0.07826    |            |       |  0.32

Nlocal:    19652 ave 19652 max 19652 min
Histogram: 1 0 0 0 0 0 0 0 0 0
Nghost:    16588 ave 16588 max 16588 min
Histogram: 1 0 0 0 0 0 0 0 0 0
Neighs:    1.17801e+06 ave 1.17801e+06 max 1.17801e+06 min
Histogram: 1 0 0 0 0 0 0 0 0 0

Total # of neighbors = 1178012
Ave neighs/atom = 59.9436
Neighbor list builds = 172
Dangerous builds not checked
Setting up Verlet run ...
  Unit style    : metal
  Current step  : 47337
  Time step     : 0.001
Per MPI rank memory allocation (min/avg/max) = 18.2 | 18.2 | 18.2 Mbytes
Step Temp Press TotEng PotEng Enthalpy Volume 
   47337    1895.9089   -400.01445     -53683.2   -58498.982   -53787.725    418652.28 
   47357    1896.0582   -227.55345   -53682.493   -58498.654   -53741.953    418646.48 
   47832     1856.836   -427.42374   -53837.653   -58554.186    -53949.18    418051.91 
Loop time of 71.9184 on 1 procs for 495 steps with 19652 atoms

Performance: 0.595 ns/day, 40.358 hours/ns, 6.883 timesteps/s
99.0% CPU use with 1 MPI tasks x no OpenMP threads

MPI task timing breakdown:
Section |  min time  |  avg time  |  max time  |%varavg| %total
---------------------------------------------------------------
Pair    | 39.674     | 39.674     | 39.674     |   0.0 | 55.17
Neigh   | 30.292     | 30.292     | 30.292     |   0.0 | 42.12
Comm    | 0.71698    | 0.71698    | 0.71698    |   0.0 |  1.00
Output  | 0.055268   | 0.055268   | 0.055268   |   0.0 |  0.08
Modify  | 0.95534    | 0.95534    | 0.95534    |   0.0 |  1.33
Other   |            | 0.2254     |            |       |  0.31

Nlocal:    19652 ave 19652 max 19652 min
Histogram: 1 0 0 0 0 0 0 0 0 0
Nghost:    16731 ave 16731 max 16731 min
Histogram: 1 0 0 0 0 0 0 0 0 0
Neighs:    1.17946e+06 ave 1.17946e+06 max 1.17946e+06 min
Histogram: 1 0 0 0 0 0 0 0 0 0

Total # of neighbors = 1179455
Ave neighs/atom = 60.017
Neighbor list builds = 495
Dangerous builds not checked
Setting up Verlet run ...
  Unit style    : metal
  Current step  : 47832
  Time step     : 0.001
Per MPI rank memory allocation (min/avg/max) = 18.2 | 18.2 | 18.2 Mbytes
Step Temp Press TotEng PotEng Enthalpy Volume 
   47832     1856.836   -427.42374   -53837.653   -58554.186    -53949.18    418051.91 
   48004    1844.7646    -431.9671   -53908.048   -58593.919   -54020.584    417399.13 
Loop time of 25.1182 on 1 procs for 172 steps with 19652 atoms

Performance: 0.592 ns/day, 40.566 hours/ns, 6.848 timesteps/s
96.7% CPU use with 1 MPI tasks x no OpenMP threads

MPI task timing breakdown:
Section |  min time  |  avg time  |  max time  |%varavg| %total
---------------------------------------------------------------
Pair    | 13.896     | 13.896     | 13.896     |   0.0 | 55.32
Neigh   | 10.552     | 10.552     | 10.552     |   0.0 | 42.01
Comm    | 0.2453     | 0.2453     | 0.2453     |   0.0 |  0.98
Output  | 0.00032687 | 0.00032687 | 0.00032687 |   0.0 |  0.00
Modify  | 0.33714    | 0.33714    | 0.33714    |   0.0 |  1.34
Other   |            | 0.0865     |            |       |  0.34

Nlocal:    19652 ave 19652 max 19652 min
Histogram: 1 0 0 0 0 0 0 0 0 0
Nghost:    16710 ave 16710 max 16710 min
Histogram: 1 0 0 0 0 0 0 0 0 0
Neighs:    1.18145e+06 ave 1.18145e+06 max 1.18145e+06 min
Histogram: 1 0 0 0 0 0 0 0 0 0

Total # of neighbors = 1181452
Ave neighs/atom = 60.1187
Neighbor list builds = 172
Dangerous builds not checked
Setting up Verlet run ...
  Unit style    : metal
  Current step  : 48004
  Time step     : 0.001
Per MPI rank memory allocation (min/avg/max) = 18.2 | 18.2 | 18.2 Mbytes
Step Temp Press TotEng PotEng Enthalpy Volume 
   48004    1844.7646    -431.9671   -53908.048   -58593.919   -54020.584    417399.13 
   48024    1860.9023   -843.77042   -53908.346   -58635.207   -54128.158    417386.44 
   48499    1800.9443    584.49059   -54139.092   -58713.655    -53987.87     414523.4 
Loop time of 72.3226 on 1 procs for 495 steps with 19652 atoms

Performance: 0.591 ns/day, 40.585 hours/ns, 6.844 timesteps/s
98.9% CPU use with 1 MPI tasks x no OpenMP threads

MPI task timing breakdown:
Section |  min time  |  avg time  |  max time  |%varavg| %total
---------------------------------------------------------------
Pair    | 39.827     | 39.827     | 39.827     |   0.0 | 55.07
Neigh   | 30.547     | 30.547     | 30.547     |   0.0 | 42.24
Comm    | 0.72992    | 0.72992    | 0.72992    |   0.0 |  1.01
Output  | 0.054547   | 0.054547   | 0.054547   |   0.0 |  0.08
Modify  | 0.93149    | 0.93149    | 0.93149    |   0.0 |  1.29
Other   |            | 0.2325     |            |       |  0.32

Nlocal:    19652 ave 19652 max 19652 min
Histogram: 1 0 0 0 0 0 0 0 0 0
Nghost:    16767 ave 16767 max 16767 min
Histogram: 1 0 0 0 0 0 0 0 0 0
Neighs:    1.18978e+06 ave 1.18978e+06 max 1.18978e+06 min
Histogram: 1 0 0 0 0 0 0 0 0 0

Total # of neighbors = 1189783
Ave neighs/atom = 60.5426
Neighbor list builds = 495
Dangerous builds not checked
Setting up Verlet run ...
  Unit style    : metal
  Current step  : 48499
  Time step     : 0.001
Per MPI rank memory allocation (min/avg/max) = 18.2 | 18.2 | 18.2 Mbytes
Step Temp Press TotEng PotEng Enthalpy Volume 
   48499    1800.9443    584.49059   -54139.092   -58713.655    -53987.87     414523.4 
   48671    1796.6513    -449.0847   -54214.429   -58778.087   -54330.606    414481.25 
Loop time of 24.6583 on 1 procs for 172 steps with 19652 atoms

Performance: 0.603 ns/day, 39.823 hours/ns, 6.975 timesteps/s
99.4% CPU use with 1 MPI tasks x no OpenMP threads

MPI task timing breakdown:
Section |  min time  |  avg time  |  max time  |%varavg| %total
---------------------------------------------------------------
Pair    | 13.659     | 13.659     | 13.659     |   0.0 | 55.39
Neigh   | 10.348     | 10.348     | 10.348     |   0.0 | 41.96
Comm    | 0.24574    | 0.24574    | 0.24574    |   0.0 |  1.00
Output  | 0.000283   | 0.000283   | 0.000283   |   0.0 |  0.00
Modify  | 0.3268     | 0.3268     | 0.3268     |   0.0 |  1.33
Other   |            | 0.07933    |            |       |  0.32

Nlocal:    19652 ave 19652 max 19652 min
Histogram: 1 0 0 0 0 0 0 0 0 0
Nghost:    16715 ave 16715 max 16715 min
Histogram: 1 0 0 0 0 0 0 0 0 0
Neighs:    1.1893e+06 ave 1.1893e+06 max 1.1893e+06 min
Histogram: 1 0 0 0 0 0 0 0 0 0

Total # of neighbors = 1189300
Ave neighs/atom = 60.518
Neighbor list builds = 172
Dangerous builds not checked
Setting up Verlet run ...
  Unit style    : metal
  Current step  : 48671
  Time step     : 0.001
Per MPI rank memory allocation (min/avg/max) = 18.2 | 18.2 | 18.2 Mbytes
Step Temp Press TotEng PotEng Enthalpy Volume 
   48671    1796.6513    -449.0847   -54214.429   -58778.087   -54330.606    414481.25 
   48691    1798.3867   -503.51474   -54214.256   -58782.322   -54344.512    414471.35 
   49166    1765.7026    272.00805   -54436.267   -58921.313   -54366.363    411748.95 
Loop time of 71.2863 on 1 procs for 495 steps with 19652 atoms

Performance: 0.600 ns/day, 40.004 hours/ns, 6.944 timesteps/s
99.3% CPU use with 1 MPI tasks x no OpenMP threads

MPI task timing breakdown:
Section |  min time  |  avg time  |  max time  |%varavg| %total
---------------------------------------------------------------
Pair    | 39.392     | 39.392     | 39.392     |   0.0 | 55.26
Neigh   | 29.979     | 29.979     | 29.979     |   0.0 | 42.05
Comm    | 0.71308    | 0.71308    | 0.71308    |   0.0 |  1.00
Output  | 0.055109   | 0.055109   | 0.055109   |   0.0 |  0.08
Modify  | 0.91974    | 0.91974    | 0.91974    |   0.0 |  1.29
Other   |            | 0.2276     |            |       |  0.32

Nlocal:    19652 ave 19652 max 19652 min
Histogram: 1 0 0 0 0 0 0 0 0 0
Nghost:    16706 ave 16706 max 16706 min
Histogram: 1 0 0 0 0 0 0 0 0 0
Neighs:    1.19769e+06 ave 1.19769e+06 max 1.19769e+06 min
Histogram: 1 0 0 0 0 0 0 0 0 0

Total # of neighbors = 1197693
Ave neighs/atom = 60.9451
Neighbor list builds = 495
Dangerous builds not checked
Setting up Verlet run ...
  Unit style    : metal
  Current step  : 49166
  Time step     : 0.001
Per MPI rank memory allocation (min/avg/max) = 18.2 | 18.2 | 18.2 Mbytes
Step Temp Press TotEng PotEng Enthalpy Volume 
   49166    1765.7026    272.00805   -54436.267   -58921.313   -54366.363    411748.95 
   49338    1741.5778   -254.42756   -54501.657   -58925.423   -54567.115    412202.61 
Loop time of 24.3637 on 1 procs for 172 steps with 19652 atoms

Performance: 0.610 ns/day, 39.347 hours/ns, 7.060 timesteps/s
99.9% CPU use with 1 MPI tasks x no OpenMP threads

MPI task timing breakdown:
Section |  min time  |  avg time  |  max time  |%varavg| %total
---------------------------------------------------------------
Pair    | 13.543     | 13.543     | 13.543     |   0.0 | 55.59
Neigh   | 10.186     | 10.186     | 10.186     |   0.0 | 41.81
Comm    | 0.24145    | 0.24145    | 0.24145    |   0.0 |  0.99
Output  | 0.0002811  | 0.0002811  | 0.0002811  |   0.0 |  0.00
Modify  | 0.31485    | 0.31485    | 0.31485    |   0.0 |  1.29
Other   |            | 0.07784    |            |       |  0.32

Nlocal:    19652 ave 19652 max 19652 min
Histogram: 1 0 0 0 0 0 0 0 0 0
Nghost:    16707 ave 16707 max 16707 min
Histogram: 1 0 0 0 0 0 0 0 0 0
Neighs:    1.19656e+06 ave 1.19656e+06 max 1.19656e+06 min
Histogram: 1 0 0 0 0 0 0 0 0 0

Total # of neighbors = 1196557
Ave neighs/atom = 60.8873
Neighbor list builds = 172
Dangerous builds not checked
Setting up Verlet run ...
  Unit style    : metal
  Current step  : 49338
  Time step     : 0.001
Per MPI rank memory allocation (min/avg/max) = 18.2 | 18.2 | 18.2 Mbytes
Step Temp Press TotEng PotEng Enthalpy Volume 
   49338    1741.5778   -254.42756   -54501.657   -58925.423   -54567.115    412202.61 
   49358    1728.9879   -119.48783    -54500.56   -58892.347   -54531.301    412197.41 
   49833    1703.8839    60.516103   -54662.523   -58990.543   -54647.002    410922.64 
Loop time of 71.7697 on 1 procs for 495 steps with 19652 atoms

Performance: 0.596 ns/day, 40.275 hours/ns, 6.897 timesteps/s
99.5% CPU use with 1 MPI tasks x no OpenMP threads

MPI task timing breakdown:
Section |  min time  |  avg time  |  max time  |%varavg| %total
---------------------------------------------------------------
Pair    | 39.704     | 39.704     | 39.704     |   0.0 | 55.32
Neigh   | 30.161     | 30.161     | 30.161     |   0.0 | 42.03
Comm    | 0.71823    | 0.71823    | 0.71823    |   0.0 |  1.00
Output  | 0.054138   | 0.054138   | 0.054138   |   0.0 |  0.08
Modify  | 0.9078     | 0.9078     | 0.9078     |   0.0 |  1.26
Other   |            | 0.2246     |            |       |  0.31

Nlocal:    19652 ave 19652 max 19652 min
Histogram: 1 0 0 0 0 0 0 0 0 0
Nghost:    16742 ave 16742 max 16742 min
Histogram: 1 0 0 0 0 0 0 0 0 0
Neighs:    1.19989e+06 ave 1.19989e+06 max 1.19989e+06 min
Histogram: 1 0 0 0 0 0 0 0 0 0

Total # of neighbors = 1199888
Ave neighs/atom = 61.0568
Neighbor list builds = 495
Dangerous builds not checked
Setting up Verlet run ...
  Unit style    : metal
  Current step  : 49833
  Time step     : 0.001
Per MPI rank memory allocation (min/avg/max) = 18.2 | 18.2 | 18.2 Mbytes
Step Temp Press TotEng PotEng Enthalpy Volume 
   49833    1703.8839    60.516103   -54662.523   -58990.543   -54647.002    410922.64 
   50005    1709.0436   -854.83573   -54739.766   -59080.893    -54958.64     410223.7 
Loop time of 24.6979 on 1 procs for 172 steps with 19652 atoms

Performance: 0.602 ns/day, 39.887 hours/ns, 6.964 timesteps/s
99.4% CPU use with 1 MPI tasks x no OpenMP threads

MPI task timing breakdown:
Section |  min time  |  avg time  |  max time  |%varavg| %total
---------------------------------------------------------------
Pair    | 13.704     | 13.704     | 13.704     |   0.0 | 55.49
Neigh   | 10.344     | 10.344     | 10.344     |   0.0 | 41.88
Comm    | 0.25015    | 0.25015    | 0.25015    |   0.0 |  1.01
Output  | 0.0003252  | 0.0003252  | 0.0003252  |   0.0 |  0.00
Modify  | 0.321      | 0.321      | 0.321      |   0.0 |  1.30
Other   |            | 0.07788    |            |       |  0.32

Nlocal:    19652 ave 19652 max 19652 min
Histogram: 1 0 0 0 0 0 0 0 0 0
Nghost:    16830 ave 16830 max 16830 min
Histogram: 1 0 0 0 0 0 0 0 0 0
Neighs:    1.20178e+06 ave 1.20178e+06 max 1.20178e+06 min
Histogram: 1 0 0 0 0 0 0 0 0 0

Total # of neighbors = 1201780
Ave neighs/atom = 61.1531
Neighbor list builds = 172
Dangerous builds not checked
Setting up Verlet run ...
  Unit style    : metal
  Current step  : 50005
  Time step     : 0.001
Per MPI rank memory allocation (min/avg/max) = 18.2 | 18.2 | 18.2 Mbytes
Step Temp Press TotEng PotEng Enthalpy Volume 
   50005    1709.0436   -854.83573   -54739.766   -59080.893    -54958.64     410223.7 
   50025    1714.5201   -1150.1362   -54741.139   -59096.176   -55035.606    410201.79 
   50500     1668.773    353.57807   -54988.763   -59227.598   -54898.908    407163.44 
Loop time of 72.3492 on 1 procs for 495 steps with 19652 atoms

Performance: 0.591 ns/day, 40.600 hours/ns, 6.842 timesteps/s
99.3% CPU use with 1 MPI tasks x no OpenMP threads

MPI task timing breakdown:
Section |  min time  |  avg time  |  max time  |%varavg| %total
---------------------------------------------------------------
Pair    | 40.165     | 40.165     | 40.165     |   0.0 | 55.52
Neigh   | 30.265     | 30.265     | 30.265     |   0.0 | 41.83
Comm    | 0.72488    | 0.72488    | 0.72488    |   0.0 |  1.00
Output  | 0.0543     | 0.0543     | 0.0543     |   0.0 |  0.08
Modify  | 0.91508    | 0.91508    | 0.91508    |   0.0 |  1.26
Other   |            | 0.2252     |            |       |  0.31

Nlocal:    19652 ave 19652 max 19652 min
Histogram: 1 0 0 0 0 0 0 0 0 0
Nghost:    16844 ave 16844 max 16844 min
Histogram: 1 0 0 0 0 0 0 0 0 0
Neighs:    1.21118e+06 ave 1.21118e+06 max 1.21118e+06 min
Histogram: 1 0 0 0 0 0 0 0 0 0

Total # of neighbors = 1211178
Ave neighs/atom = 61.6313
Neighbor list builds = 495
Dangerous builds not checked
Setting up Verlet run ...
  Unit style    : metal
  Current step  : 50500
  Time step     : 0.001
Per MPI rank memory allocation (min/avg/max) = 18.2 | 18.2 | 18.2 Mbytes
Step Temp Press TotEng PotEng Enthalpy Volume 
   50500     1668.773    353.57807   -54988.763   -59227.598   -54898.908    407163.44 
   50672    1654.7767   -370.74534   -55054.545   -59257.828   -55148.871    407629.23 
Loop time of 24.7122 on 1 procs for 172 steps with 19652 atoms

Performance: 0.601 ns/day, 39.910 hours/ns, 6.960 timesteps/s
99.5% CPU use with 1 MPI tasks x no OpenMP threads

MPI task timing breakdown:
Section |  min time  |  avg time  |  max time  |%varavg| %total
---------------------------------------------------------------
Pair    | 13.762     | 13.762     | 13.762     |   0.0 | 55.69
Neigh   | 10.293     | 10.293     | 10.293     |   0.0 | 41.65
Comm    | 0.25354    | 0.25354    | 0.25354    |   0.0 |  1.03
Output  | 0.00028801 | 0.00028801 | 0.00028801 |   0.0 |  0.00
Modify  | 0.32398    | 0.32398    | 0.32398    |   0.0 |  1.31
Other   |            | 0.08003    |            |       |  0.32

Nlocal:    19652 ave 19652 max 19652 min
Histogram: 1 0 0 0 0 0 0 0 0 0
Nghost:    16769 ave 16769 max 16769 min
Histogram: 1 0 0 0 0 0 0 0 0 0
Neighs:    1.21041e+06 ave 1.21041e+06 max 1.21041e+06 min
Histogram: 1 0 0 0 0 0 0 0 0 0

Total # of neighbors = 1210409
Ave neighs/atom = 61.5922
Neighbor list builds = 172
Dangerous builds not checked
Setting up Verlet run ...
  Unit style    : metal
  Current step  : 50672
  Time step     : 0.001
Per MPI rank memory allocation (min/avg/max) = 18.2 | 18.2 | 18.2 Mbytes
Step Temp Press TotEng PotEng Enthalpy Volume 
   50672    1654.7767   -370.74534   -55054.545   -59257.828   -55148.871    407629.23 
   50692    1640.9073     -201.538   -55054.469   -59222.523   -55105.744    407623.22 
   51167    1614.2588   -39.659533   -55264.583   -59364.948    -55274.62    405466.66 
Loop time of 72.1355 on 1 procs for 495 steps with 19652 atoms

Performance: 0.593 ns/day, 40.480 hours/ns, 6.862 timesteps/s
98.9% CPU use with 1 MPI tasks x no OpenMP threads

MPI task timing breakdown:
Section |  min time  |  avg time  |  max time  |%varavg| %total
---------------------------------------------------------------
Pair    | 40.255     | 40.255     | 40.255     |   0.0 | 55.80
Neigh   | 29.959     | 29.959     | 29.959     |   0.0 | 41.53
Comm    | 0.71871    | 0.71871    | 0.71871    |   0.0 |  1.00
Output  | 0.055102   | 0.055102   | 0.055102   |   0.0 |  0.08
Modify  | 0.92243    | 0.92243    | 0.92243    |   0.0 |  1.28
Other   |            | 0.2255     |            |       |  0.31

Nlocal:    19652 ave 19652 max 19652 min
Histogram: 1 0 0 0 0 0 0 0 0 0
Nghost:    16874 ave 16874 max 16874 min
Histogram: 1 0 0 0 0 0 0 0 0 0
Neighs:    1.21692e+06 ave 1.21692e+06 max 1.21692e+06 min
Histogram: 1 0 0 0 0 0 0 0 0 0

Total # of neighbors = 1216917
Ave neighs/atom = 61.9233
Neighbor list builds = 495
Dangerous builds not checked
Setting up Verlet run ...
  Unit style    : metal
  Current step  : 51167
  Time step     : 0.001
Per MPI rank memory allocation (min/avg/max) = 18.2 | 18.2 | 18.2 Mbytes
Step Temp Press TotEng PotEng Enthalpy Volume 
   51167    1614.2588   -39.659533   -55264.583   -59364.948    -55274.62    405466.66 
   51339     1606.969   -452.91782   -55326.557   -59408.405   -55441.137    405320.48 
Loop time of 24.6819 on 1 procs for 172 steps with 19652 atoms

Performance: 0.602 ns/day, 39.861 hours/ns, 6.969 timesteps/s
99.6% CPU use with 1 MPI tasks x no OpenMP threads

MPI task timing breakdown:
Section |  min time  |  avg time  |  max time  |%varavg| %total
---------------------------------------------------------------
Pair    | 13.814     | 13.814     | 13.814     |   0.0 | 55.97
Neigh   | 10.23      | 10.23      | 10.23      |   0.0 | 41.45
Comm    | 0.24324    | 0.24324    | 0.24324    |   0.0 |  0.99
Output  | 0.00034499 | 0.00034499 | 0.00034499 |   0.0 |  0.00
Modify  | 0.31558    | 0.31558    | 0.31558    |   0.0 |  1.28
Other   |            | 0.07877    |            |       |  0.32

Nlocal:    19652 ave 19652 max 19652 min
Histogram: 1 0 0 0 0 0 0 0 0 0
Nghost:    16877 ave 16877 max 16877 min
Histogram: 1 0 0 0 0 0 0 0 0 0
Neighs:    1.21762e+06 ave 1.21762e+06 max 1.21762e+06 min
Histogram: 1 0 0 0 0 0 0 0 0 0

Total # of neighbors = 1217616
Ave neighs/atom = 61.9589
Neighbor list builds = 172
Dangerous builds not checked
Setting up Verlet run ...
  Unit style    : metal
  Current step  : 51339
  Time step     : 0.001
Per MPI rank memory allocation (min/avg/max) = 18.2 | 18.2 | 18.2 Mbytes
Step Temp Press TotEng PotEng Enthalpy Volume 
   51339     1606.969   -452.91782   -55326.557   -59408.405   -55441.137    405320.48 
   51359    1601.3262   -376.44971    -55327.34   -59394.854   -55422.572    405309.78 
   51834    1556.3647    73.635842   -55564.613   -59517.921   -55546.097    402857.41 
Loop time of 72.4772 on 1 procs for 495 steps with 19652 atoms

Performance: 0.590 ns/day, 40.672 hours/ns, 6.830 timesteps/s
99.3% CPU use with 1 MPI tasks x no OpenMP threads

MPI task timing breakdown:
Section |  min time  |  avg time  |  max time  |%varavg| %total
---------------------------------------------------------------
Pair    | 40.36      | 40.36      | 40.36      |   0.0 | 55.69
Neigh   | 30.221     | 30.221     | 30.221     |   0.0 | 41.70
Comm    | 0.713      | 0.713      | 0.713      |   0.0 |  0.98
Output  | 0.054418   | 0.054418   | 0.054418   |   0.0 |  0.08
Modify  | 0.90427    | 0.90427    | 0.90427    |   0.0 |  1.25
Other   |            | 0.2238     |            |       |  0.31

Nlocal:    19652 ave 19652 max 19652 min
Histogram: 1 0 0 0 0 0 0 0 0 0
Nghost:    16950 ave 16950 max 16950 min
Histogram: 1 0 0 0 0 0 0 0 0 0
Neighs:    1.22521e+06 ave 1.22521e+06 max 1.22521e+06 min
Histogram: 1 0 0 0 0 0 0 0 0 0

Total # of neighbors = 1225206
Ave neighs/atom = 62.3451
Neighbor list builds = 495
Dangerous builds not checked
Setting up Verlet run ...
  Unit style    : metal
  Current step  : 51834
  Time step     : 0.001
Per MPI rank memory allocation (min/avg/max) = 18.2 | 18.2 | 18.2 Mbytes
Step Temp Press TotEng PotEng Enthalpy Volume 
   51834    1556.3647    73.635842   -55564.613   -59517.921   -55546.097    402857.41 
   52006    1541.2194   -347.44842   -55627.371   -59542.208   -55714.749     402923.1 
Loop time of 24.7725 on 1 procs for 172 steps with 19652 atoms

Performance: 0.600 ns/day, 40.007 hours/ns, 6.943 timesteps/s
99.5% CPU use with 1 MPI tasks x no OpenMP threads

MPI task timing breakdown:
Section |  min time  |  avg time  |  max time  |%varavg| %total
---------------------------------------------------------------
Pair    | 13.877     | 13.877     | 13.877     |   0.0 | 56.02
Neigh   | 10.247     | 10.247     | 10.247     |   0.0 | 41.36
Comm    | 0.24649    | 0.24649    | 0.24649    |   0.0 |  1.00
Output  | 0.00033402 | 0.00033402 | 0.00033402 |   0.0 |  0.00
Modify  | 0.32205    | 0.32205    | 0.32205    |   0.0 |  1.30
Other   |            | 0.07972    |            |       |  0.32

Nlocal:    19652 ave 19652 max 19652 min
Histogram: 1 0 0 0 0 0 0 0 0 0
Nghost:    16910 ave 16910 max 16910 min
Histogram: 1 0 0 0 0 0 0 0 0 0
Neighs:    1.22443e+06 ave 1.22443e+06 max 1.22443e+06 min
Histogram: 1 0 0 0 0 0 0 0 0 0

Total # of neighbors = 1224426
Ave neighs/atom = 62.3054
Neighbor list builds = 172
Dangerous builds not checked
Setting up Verlet run ...
  Unit style    : metal
  Current step  : 52006
  Time step     : 0.001
Per MPI rank memory allocation (min/avg/max) = 18.2 | 18.2 | 18.2 Mbytes
Step Temp Press TotEng PotEng Enthalpy Volume 
   52006    1541.2194   -347.44842   -55627.371   -59542.208   -55714.749     402923.1 
   52026    1541.2156   -438.33801   -55626.616   -59541.444   -55736.849    402913.81 
   52501    1514.0143    47.699587   -55841.233   -59686.967   -55829.302     400757.2 
Loop time of 73.0103 on 1 procs for 495 steps with 19652 atoms

Performance: 0.586 ns/day, 40.971 hours/ns, 6.780 timesteps/s
98.9% CPU use with 1 MPI tasks x no OpenMP threads

MPI task timing breakdown:
Section |  min time  |  avg time  |  max time  |%varavg| %total
---------------------------------------------------------------
Pair    | 40.757     | 40.757     | 40.757     |   0.0 | 55.82
Neigh   | 30.326     | 30.326     | 30.326     |   0.0 | 41.54
Comm    | 0.7252     | 0.7252     | 0.7252     |   0.0 |  0.99
Output  | 0.054755   | 0.054755   | 0.054755   |   0.0 |  0.07
Modify  | 0.92216    | 0.92216    | 0.92216    |   0.0 |  1.26
Other   |            | 0.2246     |            |       |  0.31

Nlocal:    19652 ave 19652 max 19652 min
Histogram: 1 0 0 0 0 0 0 0 0 0
Nghost:    16978 ave 16978 max 16978 min
Histogram: 1 0 0 0 0 0 0 0 0 0
Neighs:    1.23169e+06 ave 1.23169e+06 max 1.23169e+06 min
Histogram: 1 0 0 0 0 0 0 0 0 0

Total # of neighbors = 1231689
Ave neighs/atom = 62.675
Neighbor list builds = 495
Dangerous builds not checked
Setting up Verlet run ...
  Unit style    : metal
  Current step  : 52501
  Time step     : 0.001
Per MPI rank memory allocation (min/avg/max) = 18.2 | 18.2 | 18.2 Mbytes
Step Temp Press TotEng PotEng Enthalpy Volume 
   52501    1514.0143    47.699587   -55841.233   -59686.967   -55829.302     400757.2 
   52673    1488.4759    30.590787   -55899.838   -59680.702   -55892.184    400857.18 
Loop time of 25.0053 on 1 procs for 172 steps with 19652 atoms

Performance: 0.594 ns/day, 40.383 hours/ns, 6.879 timesteps/s
99.2% CPU use with 1 MPI tasks x no OpenMP threads

MPI task timing breakdown:
Section |  min time  |  avg time  |  max time  |%varavg| %total
---------------------------------------------------------------
Pair    | 14.115     | 14.115     | 14.115     |   0.0 | 56.45
Neigh   | 10.248     | 10.248     | 10.248     |   0.0 | 40.98
Comm    | 0.24656    | 0.24656    | 0.24656    |   0.0 |  0.99
Output  | 0.0002861  | 0.0002861  | 0.0002861  |   0.0 |  0.00
Modify  | 0.31773    | 0.31773    | 0.31773    |   0.0 |  1.27
Other   |            | 0.07792    |            |       |  0.31

Nlocal:    19652 ave 19652 max 19652 min
Histogram: 1 0 0 0 0 0 0 0 0 0
Nghost:    16994 ave 16994 max 16994 min
Histogram: 1 0 0 0 0 0 0 0 0 0
Neighs:    1.23088e+06 ave 1.23088e+06 max 1.23088e+06 min
Histogram: 1 0 0 0 0 0 0 0 0 0

Total # of neighbors = 1230882
Ave neighs/atom = 62.6339
Neighbor list builds = 172
Dangerous builds not checked
Setting up Verlet run ...
  Unit style    : metal
  Current step  : 52673
  Time step     : 0.001
Per MPI rank memory allocation (min/avg/max) = 18.2 | 18.2 | 18.2 Mbytes
Step Temp Press TotEng PotEng Enthalpy Volume 
   52673    1488.4759    30.590787   -55899.838   -59680.702   -55892.184    400857.18 
   52693    1495.1561   -67.243255   -55898.941   -59696.774   -55915.765    400856.88 
   53168    1458.7205   -8.5155367    -56109.17   -59814.453   -56111.289    398808.31 
Loop time of 72.2675 on 1 procs for 495 steps with 19652 atoms

Performance: 0.592 ns/day, 40.554 hours/ns, 6.850 timesteps/s
99.2% CPU use with 1 MPI tasks x no OpenMP threads

MPI task timing breakdown:
Section |  min time  |  avg time  |  max time  |%varavg| %total
---------------------------------------------------------------
Pair    | 40.483     | 40.483     | 40.483     |   0.0 | 56.02
Neigh   | 29.879     | 29.879     | 29.879     |   0.0 | 41.35
Comm    | 0.71254    | 0.71254    | 0.71254    |   0.0 |  0.99
Output  | 0.054625   | 0.054625   | 0.054625   |   0.0 |  0.08
Modify  | 0.91099    | 0.91099    | 0.91099    |   0.0 |  1.26
Other   |            | 0.227      |            |       |  0.31

Nlocal:    19652 ave 19652 max 19652 min
Histogram: 1 0 0 0 0 0 0 0 0 0
Nghost:    17002 ave 17002 max 17002 min
Histogram: 1 0 0 0 0 0 0 0 0 0
Neighs:    1.23701e+06 ave 1.23701e+06 max 1.23701e+06 min
Histogram: 1 0 0 0 0 0 0 0 0 0

Total # of neighbors = 1237011
Ave neighs/atom = 62.9458
Neighbor list builds = 495
Dangerous builds not checked
Setting up Verlet run ...
  Unit style    : metal
  Current step  : 53168
  Time step     : 0.001
Per MPI rank memory allocation (min/avg/max) = 18.2 | 18.2 | 18.2 Mbytes
Step Temp Press TotEng PotEng Enthalpy Volume 
   53168    1458.7205   -8.5155367    -56109.17   -59814.453   -56111.289    398808.31 
   53340    1448.6953   -576.97618   -56167.699   -59847.517   -56311.325     398828.6 
Loop time of 25.0138 on 1 procs for 172 steps with 19652 atoms

Performance: 0.594 ns/day, 40.397 hours/ns, 6.876 timesteps/s
99.3% CPU use with 1 MPI tasks x no OpenMP threads

MPI task timing breakdown:
Section |  min time  |  avg time  |  max time  |%varavg| %total
---------------------------------------------------------------
Pair    | 14.014     | 14.014     | 14.014     |   0.0 | 56.03
Neigh   | 10.347     | 10.347     | 10.347     |   0.0 | 41.36
Comm    | 0.24592    | 0.24592    | 0.24592    |   0.0 |  0.98
Output  | 0.00022912 | 0.00022912 | 0.00022912 |   0.0 |  0.00
Modify  | 0.3267     | 0.3267     | 0.3267     |   0.0 |  1.31
Other   |            | 0.07998    |            |       |  0.32

Nlocal:    19652 ave 19652 max 19652 min
Histogram: 1 0 0 0 0 0 0 0 0 0
Nghost:    17059 ave 17059 max 17059 min
Histogram: 1 0 0 0 0 0 0 0 0 0
Neighs:    1.23801e+06 ave 1.23801e+06 max 1.23801e+06 min
Histogram: 1 0 0 0 0 0 0 0 0 0

Total # of neighbors = 1238007
Ave neighs/atom = 62.9965
Neighbor list builds = 172
Dangerous builds not checked
Setting up Verlet run ...
  Unit style    : metal
  Current step  : 53340
  Time step     : 0.001
Per MPI rank memory allocation (min/avg/max) = 18.2 | 18.2 | 18.2 Mbytes
Step Temp Press TotEng PotEng Enthalpy Volume 
   53340    1448.6953   -576.97618   -56167.699   -59847.517   -56311.325     398828.6 
   53360    1455.6545   -621.11759   -56167.939   -59865.435   -56322.548    398813.67 
   53835    1418.7034    223.42946   -56388.518   -59992.154   -56333.225    396500.36 
Loop time of 72.7942 on 1 procs for 495 steps with 19652 atoms

Performance: 0.588 ns/day, 40.850 hours/ns, 6.800 timesteps/s
99.7% CPU use with 1 MPI tasks x no OpenMP threads

MPI task timing breakdown:
Section |  min time  |  avg time  |  max time  |%varavg| %total
---------------------------------------------------------------
Pair    | 40.858     | 40.858     | 40.858     |   0.0 | 56.13
Neigh   | 30.014     | 30.014     | 30.014     |   0.0 | 41.23
Comm    | 0.72092    | 0.72092    | 0.72092    |   0.0 |  0.99
Output  | 0.055769   | 0.055769   | 0.055769   |   0.0 |  0.08
Modify  | 0.91863    | 0.91863    | 0.91863    |   0.0 |  1.26
Other   |            | 0.2269     |            |       |  0.31

Nlocal:    19652 ave 19652 max 19652 min
Histogram: 1 0 0 0 0 0 0 0 0 0
Nghost:    17006 ave 17006 max 17006 min
Histogram: 1 0 0 0 0 0 0 0 0 0
Neighs:    1.24543e+06 ave 1.24543e+06 max 1.24543e+06 min
Histogram: 1 0 0 0 0 0 0 0 0 0

Total # of neighbors = 1245427
Ave neighs/atom = 63.3741
Neighbor list builds = 495
Dangerous builds not checked
Setting up Verlet run ...
  Unit style    : metal
  Current step  : 53835
  Time step     : 0.001
Per MPI rank memory allocation (min/avg/max) = 18.2 | 18.2 | 18.2 Mbytes
Step Temp Press TotEng PotEng Enthalpy Volume 
   53835    1418.7034    223.42946   -56388.518   -59992.154   -56333.225    396500.36 
   54007    1403.3265    -89.92905   -56450.415   -60014.992   -56472.666    396435.13 
Loop time of 24.9313 on 1 procs for 172 steps with 19652 atoms

Performance: 0.596 ns/day, 40.264 hours/ns, 6.899 timesteps/s
99.4% CPU use with 1 MPI tasks x no OpenMP threads

MPI task timing breakdown:
Section |  min time  |  avg time  |  max time  |%varavg| %total
---------------------------------------------------------------
Pair    | 14.067     | 14.067     | 14.067     |   0.0 | 56.42
Neigh   | 10.222     | 10.222     | 10.222     |   0.0 | 41.00
Comm    | 0.24637    | 0.24637    | 0.24637    |   0.0 |  0.99
Output  | 0.00028086 | 0.00028086 | 0.00028086 |   0.0 |  0.00
Modify  | 0.31705    | 0.31705    | 0.31705    |   0.0 |  1.27
Other   |            | 0.07861    |            |       |  0.32

Nlocal:    19652 ave 19652 max 19652 min
Histogram: 1 0 0 0 0 0 0 0 0 0
Nghost:    17066 ave 17066 max 17066 min
Histogram: 1 0 0 0 0 0 0 0 0 0
Neighs:    1.24552e+06 ave 1.24552e+06 max 1.24552e+06 min
Histogram: 1 0 0 0 0 0 0 0 0 0

Total # of neighbors = 1245520
Ave neighs/atom = 63.3788
Neighbor list builds = 172
Dangerous builds not checked
Setting up Verlet run ...
  Unit style    : metal
  Current step  : 54007
  Time step     : 0.001
Per MPI rank memory allocation (min/avg/max) = 18.2 | 18.2 | 18.2 Mbytes
Step Temp Press TotEng PotEng Enthalpy Volume 
   54007    1403.3265    -89.92905   -56450.415   -60014.992   -56472.666    396435.13 
   54027    1397.6427    13.664227   -56450.532   -60000.672   -56447.151    396434.95 
   54502    1363.3706    493.46708   -56676.129   -60139.215   -56554.777    394004.33 
Loop time of 73.5135 on 1 procs for 495 steps with 19652 atoms

Performance: 0.582 ns/day, 41.253 hours/ns, 6.733 timesteps/s
99.0% CPU use with 1 MPI tasks x no OpenMP threads

MPI task timing breakdown:
Section |  min time  |  avg time  |  max time  |%varavg| %total
---------------------------------------------------------------
Pair    | 41.191     | 41.191     | 41.191     |   0.0 | 56.03
Neigh   | 30.381     | 30.381     | 30.381     |   0.0 | 41.33
Comm    | 0.73773    | 0.73773    | 0.73773    |   0.0 |  1.00
Output  | 0.054299   | 0.054299   | 0.054299   |   0.0 |  0.07
Modify  | 0.91729    | 0.91729    | 0.91729    |   0.0 |  1.25
Other   |            | 0.2329     |            |       |  0.32

Nlocal:    19652 ave 19652 max 19652 min
Histogram: 1 0 0 0 0 0 0 0 0 0
Nghost:    17096 ave 17096 max 17096 min
Histogram: 1 0 0 0 0 0 0 0 0 0
Neighs:    1.25344e+06 ave 1.25344e+06 max 1.25344e+06 min
Histogram: 1 0 0 0 0 0 0 0 0 0

Total # of neighbors = 1253441
Ave neighs/atom = 63.7819
Neighbor list builds = 495
Dangerous builds not checked
Setting up Verlet run ...
  Unit style    : metal
  Current step  : 54502
  Time step     : 0.001
Per MPI rank memory allocation (min/avg/max) = 18.2 | 18.2 | 18.2 Mbytes
Step Temp Press TotEng PotEng Enthalpy Volume 
   54502    1363.3706    493.46708   -56676.129   -60139.215   -56554.777    394004.33 
   54674    1355.2757   -652.75296   -56732.018   -60174.542   -56892.732    394471.35 
Loop time of 25.4049 on 1 procs for 172 steps with 19652 atoms

Performance: 0.585 ns/day, 41.029 hours/ns, 6.770 timesteps/s
99.3% CPU use with 1 MPI tasks x no OpenMP threads

MPI task timing breakdown:
Section |  min time  |  avg time  |  max time  |%varavg| %total
---------------------------------------------------------------
Pair    | 14.324     | 14.324     | 14.324     |   0.0 | 56.38
Neigh   | 10.413     | 10.413     | 10.413     |   0.0 | 40.99
Comm    | 0.25173    | 0.25173    | 0.25173    |   0.0 |  0.99
Output  | 0.0019329  | 0.0019329  | 0.0019329  |   0.0 |  0.01
Modify  | 0.33345    | 0.33345    | 0.33345    |   0.0 |  1.31
Other   |            | 0.08025    |            |       |  0.32

Nlocal:    19652 ave 19652 max 19652 min
Histogram: 1 0 0 0 0 0 0 0 0 0
Nghost:    17071 ave 17071 max 17071 min
Histogram: 1 0 0 0 0 0 0 0 0 0
Neighs:    1.25241e+06 ave 1.25241e+06 max 1.25241e+06 min
Histogram: 1 0 0 0 0 0 0 0 0 0

Total # of neighbors = 1252406
Ave neighs/atom = 63.7292
Neighbor list builds = 172
Dangerous builds not checked
Setting up Verlet run ...
  Unit style    : metal
  Current step  : 54674
  Time step     : 0.001
Per MPI rank memory allocation (min/avg/max) = 18.2 | 18.2 | 18.2 Mbytes
Step Temp Press TotEng PotEng Enthalpy Volume 
   54674    1355.2757   -652.75296   -56732.018   -60174.542   -56892.732    394471.35 
   54694    1342.9221   -413.00484   -56732.097   -60143.241   -56833.779    394457.29 
   55169    1308.7771    43.493933    -56959.92   -60284.333   -56949.267    392427.96 
Loop time of 73.4334 on 1 procs for 495 steps with 19652 atoms

Performance: 0.582 ns/day, 41.208 hours/ns, 6.741 timesteps/s
99.1% CPU use with 1 MPI tasks x no OpenMP threads

MPI task timing breakdown:
Section |  min time  |  avg time  |  max time  |%varavg| %total
---------------------------------------------------------------
Pair    | 41.471     | 41.471     | 41.471     |   0.0 | 56.47
Neigh   | 30.024     | 30.024     | 30.024     |   0.0 | 40.89
Comm    | 0.7247     | 0.7247     | 0.7247     |   0.0 |  0.99
Output  | 0.054873   | 0.054873   | 0.054873   |   0.0 |  0.07
Modify  | 0.92478    | 0.92478    | 0.92478    |   0.0 |  1.26
Other   |            | 0.2348     |            |       |  0.32

Nlocal:    19652 ave 19652 max 19652 min
Histogram: 1 0 0 0 0 0 0 0 0 0
Nghost:    17086 ave 17086 max 17086 min
Histogram: 1 0 0 0 0 0 0 0 0 0
Neighs:    1.25895e+06 ave 1.25895e+06 max 1.25895e+06 min
Histogram: 1 0 0 0 0 0 0 0 0 0

Total # of neighbors = 1258949
Ave neighs/atom = 64.0621
Neighbor list builds = 495
Dangerous builds not checked
Setting up Verlet run ...
  Unit style    : metal
  Current step  : 55169
  Time step     : 0.001
Per MPI rank memory allocation (min/avg/max) = 18.2 | 18.2 | 18.2 Mbytes
Step Temp Press TotEng PotEng Enthalpy Volume 
   55169    1308.7771    43.493933    -56959.92   -60284.333   -56949.267    392427.96 
   55341    1310.2437   -404.25498   -57020.189   -60348.327   -57119.143    392183.91 
Loop time of 25.4151 on 1 procs for 172 steps with 19652 atoms

Performance: 0.585 ns/day, 41.045 hours/ns, 6.768 timesteps/s
99.5% CPU use with 1 MPI tasks x no OpenMP threads

MPI task timing breakdown:
Section |  min time  |  avg time  |  max time  |%varavg| %total
---------------------------------------------------------------
Pair    | 14.432     | 14.432     | 14.432     |   0.0 | 56.78
Neigh   | 10.327     | 10.327     | 10.327     |   0.0 | 40.63
[...]
Output  | 0.05606    | 0.05606    | 0.05606    |   0.0 |  0.07
Modify  | 1.0806     | 1.0806     | 1.0806     |   0.0 |  1.29
Other   |            | 0.251      |            |       |  0.30

Nlocal:    19652 ave 19652 max 19652 min
Histogram: 1 0 0 0 0 0 0 0 0 0
Nghost:    17874 ave 17874 max 17874 min
Histogram: 1 0 0 0 0 0 0 0 0 0
Neighs:    1.40135e+06 ave 1.40135e+06 max 1.40135e+06 min
Histogram: 1 0 0 0 0 0 0 0 0 0

Total # of neighbors = 1401346
Ave neighs/atom = 71.3081
Neighbor list builds = 495
Dangerous builds not checked
Setting up Verlet run ...
  Unit style    : metal
  Current step  : 67175
  Time step     : 0.001
Per MPI rank memory allocation (min/avg/max) = 18.2 | 18.2 | 18.2 Mbytes
Step Temp Press TotEng PotEng Enthalpy Volume 
   67175    427.00959    144.57042   -62480.465   -63565.108     -62448.6    353133.63 
   67347    416.74865    73.134478   -62543.776   -63602.355   -62527.662    353007.94 
Loop time of 28.8679 on 1 procs for 172 steps with 19652 atoms

Performance: 0.515 ns/day, 46.621 hours/ns, 5.958 timesteps/s
99.7% CPU use with 1 MPI tasks x no OpenMP threads

MPI task timing breakdown:
Section |  min time  |  avg time  |  max time  |%varavg| %total
---------------------------------------------------------------
Pair    | 16.431     | 16.431     | 16.431     |   0.0 | 56.92
Neigh   | 11.675     | 11.675     | 11.675     |   0.0 | 40.44
Comm    | 0.29966    | 0.29966    | 0.29966    |   0.0 |  1.04
Output  | 0.00035191 | 0.00035191 | 0.00035191 |   0.0 |  0.00
Modify  | 0.37595    | 0.37595    | 0.37595    |   0.0 |  1.30
Other   |            | 0.08652    |            |       |  0.30

Nlocal:    19652 ave 19652 max 19652 min
Histogram: 1 0 0 0 0 0 0 0 0 0
Nghost:    17859 ave 17859 max 17859 min
Histogram: 1 0 0 0 0 0 0 0 0 0
Neighs:    1.40189e+06 ave 1.40189e+06 max 1.40189e+06 min
Histogram: 1 0 0 0 0 0 0 0 0 0

Total # of neighbors = 1401894
Ave neighs/atom = 71.3359
Neighbor list builds = 172
Dangerous builds not checked
Setting up Verlet run ...
  Unit style    : metal
  Current step  : 67347
  Time step     : 0.001
Per MPI rank memory allocation (min/avg/max) = 18.2 | 18.2 | 18.2 Mbytes
Step Temp Press TotEng PotEng Enthalpy Volume 
   67347    416.74865    73.134478   -62543.776   -63602.355   -62527.662    353007.94 
   67367    417.49016    4.0486012   -62545.716   -63606.179   -62544.824    353010.69 
   67842    374.79039    175.13878   -62786.495   -63738.497    -62748.08    351422.96 
Loop time of 84.2366 on 1 procs for 495 steps with 19652 atoms

Performance: 0.508 ns/day, 47.271 hours/ns, 5.876 timesteps/s
99.0% CPU use with 1 MPI tasks x no OpenMP threads

MPI task timing breakdown:
Section |  min time  |  avg time  |  max time  |%varavg| %total
---------------------------------------------------------------
Pair    | 47.89      | 47.89      | 47.89      |   0.0 | 56.85
Neigh   | 34.081     | 34.081     | 34.081     |   0.0 | 40.46
Comm    | 0.87541    | 0.87541    | 0.87541    |   0.0 |  1.04
Output  | 0.055867   | 0.055867   | 0.055867   |   0.0 |  0.07
Modify  | 1.083      | 1.083      | 1.083      |   0.0 |  1.29
Other   |            | 0.2514     |            |       |  0.30

Nlocal:    19652 ave 19652 max 19652 min
Histogram: 1 0 0 0 0 0 0 0 0 0
Nghost:    17936 ave 17936 max 17936 min
Histogram: 1 0 0 0 0 0 0 0 0 0
Neighs:    1.40825e+06 ave 1.40825e+06 max 1.40825e+06 min
Histogram: 1 0 0 0 0 0 0 0 0 0

Total # of neighbors = 1408251
Ave neighs/atom = 71.6594
Neighbor list builds = 495
Dangerous builds not checked
Setting up Verlet run ...
  Unit style    : metal
  Current step  : 67842
  Time step     : 0.001
Per MPI rank memory allocation (min/avg/max) = 18.2 | 18.2 | 18.2 Mbytes
Step Temp Press TotEng PotEng Enthalpy Volume 
   67842    374.79039    175.13878   -62786.495   -63738.497    -62748.08    351422.96 
   68014    366.21366    86.847509   -62848.537   -63778.753   -62829.497    351252.46 
Loop time of 28.5433 on 1 procs for 172 steps with 19652 atoms

Performance: 0.521 ns/day, 46.097 hours/ns, 6.026 timesteps/s
99.8% CPU use with 1 MPI tasks x no OpenMP threads

MPI task timing breakdown:
Section |  min time  |  avg time  |  max time  |%varavg| %total
---------------------------------------------------------------
Pair    | 16.277     | 16.277     | 16.277     |   0.0 | 57.03
Neigh   | 11.502     | 11.502     | 11.502     |   0.0 | 40.30
Comm    | 0.30549    | 0.30549    | 0.30549    |   0.0 |  1.07
Output  | 0.00033617 | 0.00033617 | 0.00033617 |   0.0 |  0.00
Modify  | 0.37201    | 0.37201    | 0.37201    |   0.0 |  1.30
Other   |            | 0.08686    |            |       |  0.30

Nlocal:    19652 ave 19652 max 19652 min
Histogram: 1 0 0 0 0 0 0 0 0 0
Nghost:    17954 ave 17954 max 17954 min
Histogram: 1 0 0 0 0 0 0 0 0 0
Neighs:    1.40842e+06 ave 1.40842e+06 max 1.40842e+06 min
Histogram: 1 0 0 0 0 0 0 0 0 0

Total # of neighbors = 1408418
Ave neighs/atom = 71.6679
Neighbor list builds = 172
Dangerous builds not checked
Setting up Verlet run ...
  Unit style    : metal
  Current step  : 68014
  Time step     : 0.001
Per MPI rank memory allocation (min/avg/max) = 18.2 | 18.2 | 18.2 Mbytes
Step Temp Press TotEng PotEng Enthalpy Volume 
   68014    366.21366    86.847509   -62848.537   -63778.753   -62829.497    351252.46 
   68034    367.89953   -47.691965   -62850.452    -63784.95   -62860.908    351255.35 
   68509    326.99634    15.938006   -63082.131   -63912.732   -63078.649    350013.26 
Loop time of 82.2426 on 1 procs for 495 steps with 19652 atoms

Performance: 0.520 ns/day, 46.152 hours/ns, 6.019 timesteps/s
99.8% CPU use with 1 MPI tasks x no OpenMP threads

MPI task timing breakdown:
Section |  min time  |  avg time  |  max time  |%varavg| %total
---------------------------------------------------------------
Pair    | 46.681     | 46.681     | 46.681     |   0.0 | 56.76
Neigh   | 33.349     | 33.349     | 33.349     |   0.0 | 40.55
Comm    | 0.84615    | 0.84615    | 0.84615    |   0.0 |  1.03
Output  | 0.055538   | 0.055538   | 0.055538   |   0.0 |  0.07
Modify  | 1.0611     | 1.0611     | 1.0611     |   0.0 |  1.29
Other   |            | 0.249      |            |       |  0.30

Nlocal:    19652 ave 19652 max 19652 min
Histogram: 1 0 0 0 0 0 0 0 0 0
Nghost:    17940 ave 17940 max 17940 min
Histogram: 1 0 0 0 0 0 0 0 0 0
Neighs:    1.41355e+06 ave 1.41355e+06 max 1.41355e+06 min
Histogram: 1 0 0 0 0 0 0 0 0 0

Total # of neighbors = 1413548
Ave neighs/atom = 71.929
Neighbor list builds = 495
Dangerous builds not checked
Setting up Verlet run ...
  Unit style    : metal
  Current step  : 68509
  Time step     : 0.001
Per MPI rank memory allocation (min/avg/max) = 18.2 | 18.2 | 18.2 Mbytes
Step Temp Press TotEng PotEng Enthalpy Volume 
   68509    326.99634    15.938006   -63082.131   -63912.732   -63078.649    350013.26 
   68681    319.79356    205.34457   -63141.205    -63953.51   -63096.392    349647.92 
Loop time of 28.2544 on 1 procs for 172 steps with 19652 atoms

Performance: 0.526 ns/day, 45.630 hours/ns, 6.088 timesteps/s
99.9% CPU use with 1 MPI tasks x no OpenMP threads

MPI task timing breakdown:
Section |  min time  |  avg time  |  max time  |%varavg| %total
---------------------------------------------------------------
Pair    | 16.061     | 16.061     | 16.061     |   0.0 | 56.84
Neigh   | 11.442     | 11.442     | 11.442     |   0.0 | 40.49
Comm    | 0.29331    | 0.29331    | 0.29331    |   0.0 |  1.04
Output  | 0.00034213 | 0.00034213 | 0.00034213 |   0.0 |  0.00
Modify  | 0.37134    | 0.37134    | 0.37134    |   0.0 |  1.31
Other   |            | 0.08718    |            |       |  0.31

Nlocal:    19652 ave 19652 max 19652 min
Histogram: 1 0 0 0 0 0 0 0 0 0
Nghost:    17922 ave 17922 max 17922 min
Histogram: 1 0 0 0 0 0 0 0 0 0
Neighs:    1.415e+06 ave 1.415e+06 max 1.415e+06 min
Histogram: 1 0 0 0 0 0 0 0 0 0

Total # of neighbors = 1415000
Ave neighs/atom = 72.0028
Neighbor list builds = 172
Dangerous builds not checked
Setting up Verlet run ...
  Unit style    : metal
  Current step  : 68681
  Time step     : 0.001
Per MPI rank memory allocation (min/avg/max) = 18.2 | 18.2 | 18.2 Mbytes
Step Temp Press TotEng PotEng Enthalpy Volume 
   68681    319.79356    205.34457   -63141.205    -63953.51   -63096.392    349647.92 
   68701    318.38588    127.33733   -63143.392   -63952.121   -63115.601    349664.93 
   69176    276.80408    25.281017   -63368.131   -64071.238   -63362.629    348647.28 
Loop time of 82.089 on 1 procs for 495 steps with 19652 atoms

Performance: 0.521 ns/day, 46.066 hours/ns, 6.030 timesteps/s
99.5% CPU use with 1 MPI tasks x no OpenMP threads

MPI task timing breakdown:
Section |  min time  |  avg time  |  max time  |%varavg| %total
---------------------------------------------------------------
Pair    | 46.743     | 46.743     | 46.743     |   0.0 | 56.94
Neigh   | 33.131     | 33.131     | 33.131     |   0.0 | 40.36
Comm    | 0.84498    | 0.84498    | 0.84498    |   0.0 |  1.03
Output  | 0.055449   | 0.055449   | 0.055449   |   0.0 |  0.07
Modify  | 1.0664     | 1.0664     | 1.0664     |   0.0 |  1.30
Other   |            | 0.2489     |            |       |  0.30

Nlocal:    19652 ave 19652 max 19652 min
Histogram: 1 0 0 0 0 0 0 0 0 0
Nghost:    18016 ave 18016 max 18016 min
Histogram: 1 0 0 0 0 0 0 0 0 0
Neighs:    1.41854e+06 ave 1.41854e+06 max 1.41854e+06 min
Histogram: 1 0 0 0 0 0 0 0 0 0

Total # of neighbors = 1418538
Ave neighs/atom = 72.1829
Neighbor list builds = 495
Dangerous builds not checked
Setting up Verlet run ...
  Unit style    : metal
  Current step  : 69176
  Time step     : 0.001
Per MPI rank memory allocation (min/avg/max) = 18.2 | 18.2 | 18.2 Mbytes
Step Temp Press TotEng PotEng Enthalpy Volume 
   69176    276.80408    25.281017   -63368.131   -64071.238   -63362.629    348647.28 
   69348    267.58358   -147.46495   -63425.285   -64104.972   -63457.365    348544.35 
Loop time of 28.2873 on 1 procs for 172 steps with 19652 atoms

Performance: 0.525 ns/day, 45.684 hours/ns, 6.080 timesteps/s
99.7% CPU use with 1 MPI tasks x no OpenMP threads

MPI task timing breakdown:
Section |  min time  |  avg time  |  max time  |%varavg| %total
---------------------------------------------------------------
Pair    | 16.1       | 16.1       | 16.1       |   0.0 | 56.92
Neigh   | 11.436     | 11.436     | 11.436     |   0.0 | 40.43
Comm    | 0.29287    | 0.29287    | 0.29287    |   0.0 |  1.04
Output  | 0.000386   | 0.000386   | 0.000386   |   0.0 |  0.00
Modify  | 0.37036    | 0.37036    | 0.37036    |   0.0 |  1.31
Other   |            | 0.08728    |            |       |  0.31

Nlocal:    19652 ave 19652 max 19652 min
Histogram: 1 0 0 0 0 0 0 0 0 0
Nghost:    17989 ave 17989 max 17989 min
Histogram: 1 0 0 0 0 0 0 0 0 0
Neighs:    1.41923e+06 ave 1.41923e+06 max 1.41923e+06 min
Histogram: 1 0 0 0 0 0 0 0 0 0

Total # of neighbors = 1419233
Ave neighs/atom = 72.2182
Neighbor list builds = 172
Dangerous builds not checked
Setting up Verlet run ...
  Unit style    : metal
  Current step  : 69348
  Time step     : 0.001
Per MPI rank memory allocation (min/avg/max) = 18.2 | 18.2 | 18.2 Mbytes
Step Temp Press TotEng PotEng Enthalpy Volume 
   69348    267.58358   -147.46495   -63425.285   -64104.972   -63457.365    348544.35 
   69368    266.86488   -122.29084   -63427.249   -64105.111   -63453.852    348529.22 
   69843    228.23865   -9.6934122   -63643.399   -64223.146   -63645.501    347439.81 
Loop time of 82.3847 on 1 procs for 495 steps with 19652 atoms

Performance: 0.519 ns/day, 46.232 hours/ns, 6.008 timesteps/s
99.5% CPU use with 1 MPI tasks x no OpenMP threads

MPI task timing breakdown:
Section |  min time  |  avg time  |  max time  |%varavg| %total
---------------------------------------------------------------
Pair    | 46.769     | 46.769     | 46.769     |   0.0 | 56.77
Neigh   | 33.38      | 33.38      | 33.38      |   0.0 | 40.52
Comm    | 0.84962    | 0.84962    | 0.84962    |   0.0 |  1.03
Output  | 0.055145   | 0.055145   | 0.055145   |   0.0 |  0.07
Modify  | 1.0758     | 1.0758     | 1.0758     |   0.0 |  1.31
Other   |            | 0.255      |            |       |  0.31

Nlocal:    19652 ave 19652 max 19652 min
Histogram: 1 0 0 0 0 0 0 0 0 0
Nghost:    18008 ave 18008 max 18008 min
Histogram: 1 0 0 0 0 0 0 0 0 0
Neighs:    1.42387e+06 ave 1.42387e+06 max 1.42387e+06 min
Histogram: 1 0 0 0 0 0 0 0 0 0

Total # of neighbors = 1423870
Ave neighs/atom = 72.4542
Neighbor list builds = 495
Dangerous builds not checked
Setting up Verlet run ...
  Unit style    : metal
  Current step  : 69843
  Time step     : 0.001
Per MPI rank memory allocation (min/avg/max) = 18.2 | 18.2 | 18.2 Mbytes
Step Temp Press TotEng PotEng Enthalpy Volume 
   69843    228.23865   -9.6934122   -63643.399   -64223.146   -63645.501    347439.81 
   70015    220.04328    4.0570866   -63699.575   -64258.505   -63698.696    347184.21 
Loop time of 28.228 on 1 procs for 172 steps with 19652 atoms

Performance: 0.526 ns/day, 45.588 hours/ns, 6.093 timesteps/s
99.8% CPU use with 1 MPI tasks x no OpenMP threads

MPI task timing breakdown:
Section |  min time  |  avg time  |  max time  |%varavg| %total
---------------------------------------------------------------
Pair    | 16.038     | 16.038     | 16.038     |   0.0 | 56.82
Neigh   | 11.437     | 11.437     | 11.437     |   0.0 | 40.52
Comm    | 0.29526    | 0.29526    | 0.29526    |   0.0 |  1.05
Output  | 0.00033593 | 0.00033593 | 0.00033593 |   0.0 |  0.00
Modify  | 0.37008    | 0.37008    | 0.37008    |   0.0 |  1.31
Other   |            | 0.08725    |            |       |  0.31

Nlocal:    19652 ave 19652 max 19652 min
Histogram: 1 0 0 0 0 0 0 0 0 0
Nghost:    18000 ave 18000 max 18000 min
Histogram: 1 0 0 0 0 0 0 0 0 0
Neighs:    1.42441e+06 ave 1.42441e+06 max 1.42441e+06 min
Histogram: 1 0 0 0 0 0 0 0 0 0

Total # of neighbors = 1424413
Ave neighs/atom = 72.4818
Neighbor list builds = 172
Dangerous builds not checked
Setting up Verlet run ...
  Unit style    : metal
  Current step  : 70015
  Time step     : 0.001
Per MPI rank memory allocation (min/avg/max) = 18.2 | 18.2 | 18.2 Mbytes
Step Temp Press TotEng PotEng Enthalpy Volume 
   70015    220.04328    4.0570866   -63699.575   -64258.505   -63698.696    347184.21 
   70035    220.21188    -48.05601   -63701.945   -64261.303   -63712.359    347181.27 
   70510    180.54566        64.13   -63912.597     -64371.2   -63898.737    346265.53 
Loop time of 81.9103 on 1 procs for 495 steps with 19652 atoms

Performance: 0.522 ns/day, 45.965 hours/ns, 6.043 timesteps/s
99.6% CPU use with 1 MPI tasks x no OpenMP threads

MPI task timing breakdown:
Section |  min time  |  avg time  |  max time  |%varavg| %total
---------------------------------------------------------------
Pair    | 46.544     | 46.544     | 46.544     |   0.0 | 56.82
Neigh   | 33.143     | 33.143     | 33.143     |   0.0 | 40.46
Comm    | 0.84881    | 0.84881    | 0.84881    |   0.0 |  1.04
Output  | 0.055167   | 0.055167   | 0.055167   |   0.0 |  0.07
Modify  | 1.0685     | 1.0685     | 1.0685     |   0.0 |  1.30
Other   |            | 0.2507     |            |       |  0.31

Nlocal:    19652 ave 19652 max 19652 min
Histogram: 1 0 0 0 0 0 0 0 0 0
Nghost:    18032 ave 18032 max 18032 min
Histogram: 1 0 0 0 0 0 0 0 0 0
Neighs:    1.42811e+06 ave 1.42811e+06 max 1.42811e+06 min
Histogram: 1 0 0 0 0 0 0 0 0 0

Total # of neighbors = 1428106
Ave neighs/atom = 72.6698
Neighbor list builds = 495
Dangerous builds not checked
Setting up Verlet run ...
  Unit style    : metal
  Current step  : 70510
  Time step     : 0.001
Per MPI rank memory allocation (min/avg/max) = 18.2 | 18.2 | 18.2 Mbytes
Step Temp Press TotEng PotEng Enthalpy Volume 
   70510    180.54566        64.13   -63912.597     -64371.2   -63898.737    346265.53 
   70682    171.21241    -110.8693   -63967.542   -64402.437   -63991.493    346114.68 
Loop time of 28.2987 on 1 procs for 172 steps with 19652 atoms

Performance: 0.525 ns/day, 45.702 hours/ns, 6.078 timesteps/s
99.7% CPU use with 1 MPI tasks x no OpenMP threads

MPI task timing breakdown:
Section |  min time  |  avg time  |  max time  |%varavg| %total
---------------------------------------------------------------
Pair    | 16.108     | 16.108     | 16.108     |   0.0 | 56.92
Neigh   | 11.435     | 11.435     | 11.435     |   0.0 | 40.41
Comm    | 0.29376    | 0.29376    | 0.29376    |   0.0 |  1.04
Output  | 0.00033116 | 0.00033116 | 0.00033116 |   0.0 |  0.00
Modify  | 0.373      | 0.373      | 0.373      |   0.0 |  1.32
Other   |            | 0.08856    |            |       |  0.31

Nlocal:    19652 ave 19652 max 19652 min
Histogram: 1 0 0 0 0 0 0 0 0 0
Nghost:    17994 ave 17994 max 17994 min
Histogram: 1 0 0 0 0 0 0 0 0 0
Neighs:    1.42904e+06 ave 1.42904e+06 max 1.42904e+06 min
Histogram: 1 0 0 0 0 0 0 0 0 0

Total # of neighbors = 1429044
Ave neighs/atom = 72.7175
Neighbor list builds = 172
Dangerous builds not checked
Setting up Verlet run ...
  Unit style    : metal
  Current step  : 70682
  Time step     : 0.001
Per MPI rank memory allocation (min/avg/max) = 18.2 | 18.2 | 18.2 Mbytes
Step Temp Press TotEng PotEng Enthalpy Volume 
   70682    171.21241    -110.8693   -63967.542   -64402.437   -63991.493    346114.68 
   70702    171.70633   -98.049448   -63970.081   -64406.231   -63991.261    346092.98 
   71177    132.61719    80.439263   -64172.782   -64509.642   -64155.447    345282.22 
Loop time of 81.6053 on 1 procs for 495 steps with 19652 atoms

Performance: 0.524 ns/day, 45.794 hours/ns, 6.066 timesteps/s
99.5% CPU use with 1 MPI tasks x no OpenMP threads

MPI task timing breakdown:
Section |  min time  |  avg time  |  max time  |%varavg| %total
---------------------------------------------------------------
Pair    | 46.427     | 46.427     | 46.427     |   0.0 | 56.89
Neigh   | 32.966     | 32.966     | 32.966     |   0.0 | 40.40
Comm    | 0.84506    | 0.84506    | 0.84506    |   0.0 |  1.04
Output  | 0.055006   | 0.055006   | 0.055006   |   0.0 |  0.07
Modify  | 1.0606     | 1.0606     | 1.0606     |   0.0 |  1.30
Other   |            | 0.2519     |            |       |  0.31

Nlocal:    19652 ave 19652 max 19652 min
Histogram: 1 0 0 0 0 0 0 0 0 0
Nghost:    18076 ave 18076 max 18076 min
Histogram: 1 0 0 0 0 0 0 0 0 0
Neighs:    1.43205e+06 ave 1.43205e+06 max 1.43205e+06 min
Histogram: 1 0 0 0 0 0 0 0 0 0

Total # of neighbors = 1432052
Ave neighs/atom = 72.8705
Neighbor list builds = 495
Dangerous builds not checked
Setting up Verlet run ...
  Unit style    : metal
  Current step  : 71177
  Time step     : 0.001
Per MPI rank memory allocation (min/avg/max) = 18.2 | 18.2 | 18.2 Mbytes
Step Temp Press TotEng PotEng Enthalpy Volume 
   71177    132.61719    80.439263   -64172.782   -64509.642   -64155.447    345282.22 
   71349    121.47889   -174.72127    -64227.09   -64535.657   -64264.733    345183.01 
Loop time of 28.5311 on 1 procs for 172 steps with 19652 atoms

Performance: 0.521 ns/day, 46.077 hours/ns, 6.029 timesteps/s
98.7% CPU use with 1 MPI tasks x no OpenMP threads

MPI task timing breakdown:
Section |  min time  |  avg time  |  max time  |%varavg| %total
---------------------------------------------------------------
Pair    | 16.369     | 16.369     | 16.369     |   0.0 | 57.37
Neigh   | 11.413     | 11.413     | 11.413     |   0.0 | 40.00
Comm    | 0.29289    | 0.29289    | 0.29289    |   0.0 |  1.03
Output  | 0.00032306 | 0.00032306 | 0.00032306 |   0.0 |  0.00
Modify  | 0.36858    | 0.36858    | 0.36858    |   0.0 |  1.29
Other   |            | 0.08731    |            |       |  0.31

Nlocal:    19652 ave 19652 max 19652 min
Histogram: 1 0 0 0 0 0 0 0 0 0
Nghost:    18025 ave 18025 max 18025 min
Histogram: 1 0 0 0 0 0 0 0 0 0
Neighs:    1.43268e+06 ave 1.43268e+06 max 1.43268e+06 min
Histogram: 1 0 0 0 0 0 0 0 0 0

Total # of neighbors = 1432682
Ave neighs/atom = 72.9026
Neighbor list builds = 172
Dangerous builds not checked
Total wall time: 2:59:02
