LAMMPS (12 Dec 2018)
Lattice spacing in x,y,z = 4 4 4
Created orthogonal box = (0 0 0) to (68 68 68)
  1 by 1 by 1 MPI processor grid
Created 19652 atoms
  Time spent = 0.00408006 secs
Setting atom values ...
  0 settings made for type/fraction
Neighbor list info ...
  update every 1 steps, delay 0 steps, check no
  max neighbors/atom: 2000, page size: 100000
  master list distance cutoff = 8.5
  ghost atom cutoff = 8.5
  binsize = 4.25, bins = 16 16 16
  1 neighbor lists, perpetual/occasional/extra = 1 0 0
  (1) pair eam/alloy, perpetual
      attributes: half, newton on
      pair build: half/bin/atomonly/newton
      stencil: half/bin/3d/newton
      bin: standard
Setting up Verlet run ...
  Unit style    : metal
  Current step  : 0
  Time step     : 0.001
Per MPI rank memory allocation (min/avg/max) = 18.19 | 18.19 | 18.19 Mbytes
Step Temp Press TotEng PotEng Enthalpy 
       0          300   -290122.37   -72710.881   -73472.908   -129648.28 
    1000    1241.0948   -60617.933    -72711.13   -75863.624   -84607.583 
Loop time of 163.911 on 1 procs for 1000 steps with 19652 atoms

Performance: 0.527 ns/day, 45.531 hours/ns, 6.101 timesteps/s
97.9% CPU use with 1 MPI tasks x no OpenMP threads

MPI task timing breakdown:
Section |  min time  |  avg time  |  max time  |%varavg| %total
---------------------------------------------------------------
Pair    | 91.727     | 91.727     | 91.727     |   0.0 | 55.96
Neigh   | 70.194     | 70.194     | 70.194     |   0.0 | 42.82
Comm    | 1.1964     | 1.1964     | 1.1964     |   0.0 |  0.73
Output  | 0.00016499 | 0.00016499 | 0.00016499 |   0.0 |  0.00
Modify  | 0.40683    | 0.40683    | 0.40683    |   0.0 |  0.25
Other   |            | 0.3869     |            |       |  0.24

Nlocal:    19652 ave 19652 max 19652 min
Histogram: 1 0 0 0 0 0 0 0 0 0
Nghost:    19092 ave 19092 max 19092 min
Histogram: 1 0 0 0 0 0 0 0 0 0
Neighs:    1.60513e+06 ave 1.60513e+06 max 1.60513e+06 min
Histogram: 1 0 0 0 0 0 0 0 0 0

Total # of neighbors = 1605133
Ave neighs/atom = 81.6778
Neighbor list builds = 1000
Dangerous builds not checked
Setting up Verlet run ...
  Unit style    : metal
  Current step  : 1000
  Time step     : 0.001
Per MPI rank memory allocation (min/avg/max) = 18.19 | 18.19 | 18.19 Mbytes
Step Temp Press TotEng PotEng Enthalpy 
    1000    1241.0948   -60617.933    -72711.13   -75863.624   -84607.583 
    2000    414.38282   -3734.4369   -81579.543   -82632.113   -82133.842 
Loop time of 213.759 on 1 procs for 1000 steps with 19652 atoms

Performance: 0.404 ns/day, 59.377 hours/ns, 4.678 timesteps/s
97.5% CPU use with 1 MPI tasks x no OpenMP threads

MPI task timing breakdown:
Section |  min time  |  avg time  |  max time  |%varavg| %total
---------------------------------------------------------------
Pair    | 117.99     | 117.99     | 117.99     |   0.0 | 55.20
Neigh   | 92.63      | 92.63      | 92.63      |   0.0 | 43.33
Comm    | 1.2004     | 1.2004     | 1.2004     |   0.0 |  0.56
Output  | 0.077007   | 0.077007   | 0.077007   |   0.0 |  0.04
Modify  | 1.4626     | 1.4626     | 1.4626     |   0.0 |  0.68
Other   |            | 0.4028     |            |       |  0.19

Nlocal:    19652 ave 19652 max 19652 min
Histogram: 1 0 0 0 0 0 0 0 0 0
Nghost:    21309 ave 21309 max 21309 min
Histogram: 1 0 0 0 0 0 0 0 0 0
Neighs:    2.10013e+06 ave 2.10013e+06 max 2.10013e+06 min
Histogram: 1 0 0 0 0 0 0 0 0 0

Total # of neighbors = 2100134
Ave neighs/atom = 106.866
Neighbor list builds = 1000
Dangerous builds not checked
Setting up Verlet run ...
  Unit style    : metal
  Current step  : 2000
  Time step     : 0.001
Per MPI rank memory allocation (min/avg/max) = 19.73 | 19.73 | 19.73 Mbytes
Step Temp Press TotEng PotEng Enthalpy 
    2000    414.38282   -3734.4369   -81579.543   -82632.113   -82133.842 
    4000    813.19839   -60.705103   -80946.506   -83012.104   -80955.131 
    6000    1350.3475   -3004.4071   -77741.909   -81171.915   -78183.696 
    8000    1886.2974    787.55027   -73860.082   -78651.449   -73739.051 
   10000    2433.1129    1160.3724   -70393.411   -76573.739   -70207.729 
Loop time of 1784.92 on 1 procs for 8000 steps with 19652 atoms

Performance: 0.387 ns/day, 61.976 hours/ns, 4.482 timesteps/s
98.7% CPU use with 1 MPI tasks x no OpenMP threads

MPI task timing breakdown:
Section |  min time  |  avg time  |  max time  |%varavg| %total
---------------------------------------------------------------
Pair    | 996.36     | 996.36     | 996.36     |   0.0 | 55.82
Neigh   | 763.44     | 763.44     | 763.44     |   0.0 | 42.77
Comm    | 9.4183     | 9.4183     | 9.4183     |   0.0 |  0.53
Output  | 0.51111    | 0.51111    | 0.51111    |   0.0 |  0.03
Modify  | 11.813     | 11.813     | 11.813     |   0.0 |  0.66
Other   |            | 3.37       |            |       |  0.19

Nlocal:    19652 ave 19652 max 19652 min
Histogram: 1 0 0 0 0 0 0 0 0 0
Nghost:    20446 ave 20446 max 20446 min
Histogram: 1 0 0 0 0 0 0 0 0 0
Neighs:    1.9243e+06 ave 1.9243e+06 max 1.9243e+06 min
Histogram: 1 0 0 0 0 0 0 0 0 0

Total # of neighbors = 1924305
Ave neighs/atom = 97.919
Neighbor list builds = 8000
Dangerous builds not checked
Setting up Verlet run ...
  Unit style    : metal
  Current step  : 10000
  Time step     : 0.001
Per MPI rank memory allocation (min/avg/max) = 20.11 | 20.11 | 20.11 Mbytes
Step Temp Press TotEng PotEng Enthalpy 
   10000    2433.1129    1160.3724   -70393.411   -76573.739   -70207.729 
   12000    2469.0789   -736.91623   -70264.669   -76536.354   -70382.836 
   14000    2463.4345   -99.558964   -70361.861   -76619.209   -70377.788 
   16000    2463.8571    660.56136   -70328.652   -76587.074   -70223.007 
   18000    2442.3065    1821.1698   -70426.017   -76629.698   -70135.231 
   20000    2451.7067     3509.155     -70414.1   -76641.659   -69854.295 
   22000    2459.8219    1147.4042   -70371.196   -76619.368    -70187.79 
   24000    2464.7798    147.81959   -70273.094   -76533.859   -70249.421 
   26000    2450.0579    1404.0331   -70376.998   -76600.368   -70152.618 
   28000    2447.2205    508.06726   -70404.486   -76620.649   -70323.266 
   30000    2438.2811   -1949.2013   -70376.703   -76570.159   -70689.173 
   32000    2457.6272    606.35302   -70315.908   -76558.506   -70218.845 
   34000    2451.6972   -2261.5492   -70254.918   -76482.452   -70617.966 
   36000    2472.6883    3592.7443   -70297.491   -76578.345   -69723.961 
   38000    2437.4264   -424.59416   -70408.836   -76600.122   -70476.771 
   40000    2441.9432    1723.3257   -70364.765   -76567.523    -70089.28 
Loop time of 6356.59 on 1 procs for 30000 steps with 19652 atoms

Performance: 0.408 ns/day, 58.857 hours/ns, 4.720 timesteps/s
99.2% CPU use with 1 MPI tasks x no OpenMP threads

MPI task timing breakdown:
Section |  min time  |  avg time  |  max time  |%varavg| %total
---------------------------------------------------------------
Pair    | 3401.4     | 3401.4     | 3401.4     |   0.0 | 53.51
Neigh   | 2864.2     | 2864.2     | 2864.2     |   0.0 | 45.06
Comm    | 34.654     | 34.654     | 34.654     |   0.0 |  0.55
Output  | 1.2868     | 1.2868     | 1.2868     |   0.0 |  0.02
Modify  | 42.983     | 42.983     | 42.983     |   0.0 |  0.68
Other   |            | 12.02      |            |       |  0.19

Nlocal:    19652 ave 19652 max 19652 min
Histogram: 1 0 0 0 0 0 0 0 0 0
Nghost:    20414 ave 20414 max 20414 min
Histogram: 1 0 0 0 0 0 0 0 0 0
Neighs:    1.9263e+06 ave 1.9263e+06 max 1.9263e+06 min
Histogram: 1 0 0 0 0 0 0 0 0 0

Total # of neighbors = 1926305
Ave neighs/atom = 98.0208
Neighbor list builds = 30000
Dangerous builds not checked
Setting up Verlet run ...
  Unit style    : metal
  Current step  : 40000
  Time step     : 0.001
Per MPI rank memory allocation (min/avg/max) = 20.11 | 20.11 | 20.11 Mbytes
Step Temp Press TotEng PotEng Enthalpy 
   40000    2441.9432    1723.3257   -70364.765   -76567.523    -70089.28 
   40495     2423.145    1369.9727   -70563.938   -76718.947   -70345.509 
Loop time of 100.613 on 1 procs for 495 steps with 19652 atoms

Performance: 0.425 ns/day, 56.461 hours/ns, 4.920 timesteps/s
99.3% CPU use with 1 MPI tasks x no OpenMP threads

MPI task timing breakdown:
Section |  min time  |  avg time  |  max time  |%varavg| %total
---------------------------------------------------------------
Pair    | 53.98      | 53.98      | 53.98      |   0.0 | 53.65
Neigh   | 45.128     | 45.128     | 45.128     |   0.0 | 44.85
Comm    | 0.60358    | 0.60358    | 0.60358    |   0.0 |  0.60
Output  | 0.00016904 | 0.00016904 | 0.00016904 |   0.0 |  0.00
Modify  | 0.70407    | 0.70407    | 0.70407    |   0.0 |  0.70
Other   |            | 0.1982     |            |       |  0.20

Nlocal:    19652 ave 19652 max 19652 min
Histogram: 1 0 0 0 0 0 0 0 0 0
Nghost:    20401 ave 20401 max 20401 min
Histogram: 1 0 0 0 0 0 0 0 0 0
Neighs:    1.9312e+06 ave 1.9312e+06 max 1.9312e+06 min
Histogram: 1 0 0 0 0 0 0 0 0 0

Total # of neighbors = 1931203
Ave neighs/atom = 98.27
Neighbor list builds = 495
Dangerous builds not checked
Setting up Verlet run ...
  Unit style    : metal
  Current step  : 40495
  Time step     : 0.001
Per MPI rank memory allocation (min/avg/max) = 20.11 | 20.11 | 20.11 Mbytes
Step Temp Press TotEng PotEng Enthalpy 
   40495     2423.145    1369.9727   -70563.938   -76718.947   -70345.509 
   42000    2387.9431   -2324.7675   -70692.665   -76758.258   -71064.108 
Loop time of 338.796 on 1 procs for 1505 steps with 19652 atoms

Performance: 0.384 ns/day, 62.532 hours/ns, 4.442 timesteps/s
99.0% CPU use with 1 MPI tasks x no OpenMP threads

MPI task timing breakdown:
Section |  min time  |  avg time  |  max time  |%varavg| %total
---------------------------------------------------------------
Pair    | 182.9      | 182.9      | 182.9      |   0.0 | 53.99
Neigh   | 150.99     | 150.99     | 150.99     |   0.0 | 44.57
Comm    | 1.9179     | 1.9179     | 1.9179     |   0.0 |  0.57
Output  | 0.079483   | 0.079483   | 0.079483   |   0.0 |  0.02
Modify  | 2.2721     | 2.2721     | 2.2721     |   0.0 |  0.67
Other   |            | 0.639      |            |       |  0.19

Nlocal:    19652 ave 19652 max 19652 min
Histogram: 1 0 0 0 0 0 0 0 0 0
Nghost:    20416 ave 20416 max 20416 min
Histogram: 1 0 0 0 0 0 0 0 0 0
Neighs:    1.9272e+06 ave 1.9272e+06 max 1.9272e+06 min
Histogram: 1 0 0 0 0 0 0 0 0 0

Total # of neighbors = 1927198
Ave neighs/atom = 98.0663
Neighbor list builds = 1505
Dangerous builds not checked
Setting up Verlet run ...
  Unit style    : metal
  Current step  : 42000
  Time step     : 0.001
Per MPI rank memory allocation (min/avg/max) = 20.11 | 20.11 | 20.11 Mbytes
Step Temp Press TotEng PotEng Enthalpy 
   42000    2387.9431   -2324.7675   -70692.665   -76758.258   -71064.108 
   42495    2344.3202   -444.05098   -70850.233    -76805.02   -70921.012 
Loop time of 104.303 on 1 procs for 495 steps with 19652 atoms

Performance: 0.410 ns/day, 58.532 hours/ns, 4.746 timesteps/s
99.9% CPU use with 1 MPI tasks x no OpenMP threads

MPI task timing breakdown:
Section |  min time  |  avg time  |  max time  |%varavg| %total
---------------------------------------------------------------
Pair    | 56.781     | 56.781     | 56.781     |   0.0 | 54.44
Neigh   | 46.047     | 46.047     | 46.047     |   0.0 | 44.15
Comm    | 0.57589    | 0.57589    | 0.57589    |   0.0 |  0.55
Output  | 0.00016093 | 0.00016093 | 0.00016093 |   0.0 |  0.00
Modify  | 0.69906    | 0.69906    | 0.69906    |   0.0 |  0.67
Other   |            | 0.2        |            |       |  0.19

Nlocal:    19652 ave 19652 max 19652 min
Histogram: 1 0 0 0 0 0 0 0 0 0
Nghost:    20427 ave 20427 max 20427 min
Histogram: 1 0 0 0 0 0 0 0 0 0
Neighs:    1.93118e+06 ave 1.93118e+06 max 1.93118e+06 min
Histogram: 1 0 0 0 0 0 0 0 0 0

Total # of neighbors = 1931182
Ave neighs/atom = 98.269
Neighbor list builds = 495
Dangerous builds not checked
Setting up Verlet run ...
  Unit style    : metal
  Current step  : 42495
  Time step     : 0.001
Per MPI rank memory allocation (min/avg/max) = 20.11 | 20.11 | 20.11 Mbytes
Step Temp Press TotEng PotEng Enthalpy 
   42495    2344.3202   -444.05098   -70850.233    -76805.02   -70921.012 
   44000    2337.4065     2286.071   -70938.101   -76875.327    -70575.01 
Loop time of 327.634 on 1 procs for 1505 steps with 19652 atoms

Performance: 0.397 ns/day, 60.471 hours/ns, 4.594 timesteps/s
99.1% CPU use with 1 MPI tasks x no OpenMP threads

MPI task timing breakdown:
Section |  min time  |  avg time  |  max time  |%varavg| %total
---------------------------------------------------------------
Pair    | 178.55     | 178.55     | 178.55     |   0.0 | 54.50
Neigh   | 144.46     | 144.46     | 144.46     |   0.0 | 44.09
Comm    | 1.7795     | 1.7795     | 1.7795     |   0.0 |  0.54
Output  | 0.062124   | 0.062124   | 0.062124   |   0.0 |  0.02
Modify  | 2.1629     | 2.1629     | 2.1629     |   0.0 |  0.66
Other   |            | 0.6279     |            |       |  0.19

Nlocal:    19652 ave 19652 max 19652 min
Histogram: 1 0 0 0 0 0 0 0 0 0
Nghost:    20463 ave 20463 max 20463 min
Histogram: 1 0 0 0 0 0 0 0 0 0
Neighs:    1.93808e+06 ave 1.93808e+06 max 1.93808e+06 min
Histogram: 1 0 0 0 0 0 0 0 0 0

Total # of neighbors = 1938080
Ave neighs/atom = 98.62
Neighbor list builds = 1505
Dangerous builds not checked
Setting up Verlet run ...
  Unit style    : metal
  Current step  : 44000
  Time step     : 0.001
Per MPI rank memory allocation (min/avg/max) = 20.11 | 20.11 | 20.11 Mbytes
Step Temp Press TotEng PotEng Enthalpy 
   44000    2337.4065     2286.071   -70938.101   -76875.327    -70575.01 
   44495    2313.2313    1270.2471   -71218.809   -77094.627   -71017.668 
Loop time of 107.116 on 1 procs for 495 steps with 19652 atoms

Performance: 0.399 ns/day, 60.110 hours/ns, 4.621 timesteps/s
99.4% CPU use with 1 MPI tasks x no OpenMP threads

MPI task timing breakdown:
Section |  min time  |  avg time  |  max time  |%varavg| %total
---------------------------------------------------------------
Pair    | 58.473     | 58.473     | 58.473     |   0.0 | 54.59
Neigh   | 47.139     | 47.139     | 47.139     |   0.0 | 44.01
Comm    | 0.57793    | 0.57793    | 0.57793    |   0.0 |  0.54
Output  | 0.00017118 | 0.00017118 | 0.00017118 |   0.0 |  0.00
Modify  | 0.72252    | 0.72252    | 0.72252    |   0.0 |  0.67
Other   |            | 0.2032     |            |       |  0.19

Nlocal:    19652 ave 19652 max 19652 min
Histogram: 1 0 0 0 0 0 0 0 0 0
Nghost:    20478 ave 20478 max 20478 min
Histogram: 1 0 0 0 0 0 0 0 0 0
Neighs:    1.94512e+06 ave 1.94512e+06 max 1.94512e+06 min
Histogram: 1 0 0 0 0 0 0 0 0 0

Total # of neighbors = 1945124
Ave neighs/atom = 98.9784
Neighbor list builds = 495
Dangerous builds not checked
Setting up Verlet run ...
  Unit style    : metal
  Current step  : 44495
  Time step     : 0.001
Per MPI rank memory allocation (min/avg/max) = 20.11 | 20.11 | 20.11 Mbytes
Step Temp Press TotEng PotEng Enthalpy 
   44495    2313.2313    1270.2471   -71218.809   -77094.627   -71017.668 
   46000    2280.6466   -1156.1445   -71309.276   -77102.326   -71492.528 
Loop time of 331.453 on 1 procs for 1505 steps with 19652 atoms

Performance: 0.392 ns/day, 61.176 hours/ns, 4.541 timesteps/s
99.4% CPU use with 1 MPI tasks x no OpenMP threads

MPI task timing breakdown:
Section |  min time  |  avg time  |  max time  |%varavg| %total
---------------------------------------------------------------
Pair    | 180.33     | 180.33     | 180.33     |   0.0 | 54.41
Neigh   | 146.39     | 146.39     | 146.39     |   0.0 | 44.16
Comm    | 1.8291     | 1.8291     | 1.8291     |   0.0 |  0.55
Output  | 0.080493   | 0.080493   | 0.080493   |   0.0 |  0.02
Modify  | 2.2069     | 2.2069     | 2.2069     |   0.0 |  0.67
Other   |            | 0.6194     |            |       |  0.19

Nlocal:    19652 ave 19652 max 19652 min
Histogram: 1 0 0 0 0 0 0 0 0 0
Nghost:    20470 ave 20470 max 20470 min
Histogram: 1 0 0 0 0 0 0 0 0 0
Neighs:    1.94185e+06 ave 1.94185e+06 max 1.94185e+06 min
Histogram: 1 0 0 0 0 0 0 0 0 0

Total # of neighbors = 1941846
Ave neighs/atom = 98.8116
Neighbor list builds = 1505
Dangerous builds not checked
Setting up Verlet run ...
  Unit style    : metal
  Current step  : 46000
  Time step     : 0.001
Per MPI rank memory allocation (min/avg/max) = 20.11 | 20.11 | 20.11 Mbytes
Step Temp Press TotEng PotEng Enthalpy 
   46000    2280.6466   -1156.1445   -71309.276   -77102.326   -71492.528 
   46495    2261.5853    49.032426   -71464.032   -77208.664   -71456.277 
Loop time of 104.019 on 1 procs for 495 steps with 19652 atoms

Performance: 0.411 ns/day, 58.372 hours/ns, 4.759 timesteps/s
98.8% CPU use with 1 MPI tasks x no OpenMP threads

MPI task timing breakdown:
Section |  min time  |  avg time  |  max time  |%varavg| %total
---------------------------------------------------------------
Pair    | 56.28      | 56.28      | 56.28      |   0.0 | 54.11
Neigh   | 46.252     | 46.252     | 46.252     |   0.0 | 44.46
Comm    | 0.57438    | 0.57438    | 0.57438    |   0.0 |  0.55
Output  | 0.00023913 | 0.00023913 | 0.00023913 |   0.0 |  0.00
Modify  | 0.70973    | 0.70973    | 0.70973    |   0.0 |  0.68
Other   |            | 0.2026     |            |       |  0.19

Nlocal:    19652 ave 19652 max 19652 min
Histogram: 1 0 0 0 0 0 0 0 0 0
Nghost:    20612 ave 20612 max 20612 min
Histogram: 1 0 0 0 0 0 0 0 0 0
Neighs:    1.94666e+06 ave 1.94666e+06 max 1.94666e+06 min
Histogram: 1 0 0 0 0 0 0 0 0 0

Total # of neighbors = 1946656
Ave neighs/atom = 99.0564
Neighbor list builds = 495
Dangerous builds not checked
Setting up Verlet run ...
  Unit style    : metal
  Current step  : 46495
  Time step     : 0.001
Per MPI rank memory allocation (min/avg/max) = 20.11 | 20.11 | 20.11 Mbytes
Step Temp Press TotEng PotEng Enthalpy 
   46495    2261.5853    49.032426   -71464.032   -77208.664   -71456.277 
   48000    2245.9755     1348.303   -71590.317   -77295.299   -71377.754 
Loop time of 306.278 on 1 procs for 1505 steps with 19652 atoms

Performance: 0.425 ns/day, 56.530 hours/ns, 4.914 timesteps/s
99.6% CPU use with 1 MPI tasks x no OpenMP threads

MPI task timing breakdown:
Section |  min time  |  avg time  |  max time  |%varavg| %total
---------------------------------------------------------------
Pair    | 164.71     | 164.71     | 164.71     |   0.0 | 53.78
Neigh   | 137.14     | 137.14     | 137.14     |   0.0 | 44.78
Comm    | 1.6921     | 1.6921     | 1.6921     |   0.0 |  0.55
Output  | 0.085143   | 0.085143   | 0.085143   |   0.0 |  0.03
Modify  | 2.0607     | 2.0607     | 2.0607     |   0.0 |  0.67
Other   |            | 0.5904     |            |       |  0.19

Nlocal:    19652 ave 19652 max 19652 min
Histogram: 1 0 0 0 0 0 0 0 0 0
Nghost:    20516 ave 20516 max 20516 min
Histogram: 1 0 0 0 0 0 0 0 0 0
Neighs:    1.95205e+06 ave 1.95205e+06 max 1.95205e+06 min
Histogram: 1 0 0 0 0 0 0 0 0 0

Total # of neighbors = 1952053
Ave neighs/atom = 99.331
Neighbor list builds = 1505
Dangerous builds not checked
Setting up Verlet run ...
  Unit style    : metal
  Current step  : 48000
  Time step     : 0.001
Per MPI rank memory allocation (min/avg/max) = 20.11 | 20.11 | 20.11 Mbytes
Step Temp Press TotEng PotEng Enthalpy 
   48000    2245.9755     1348.303   -71590.317   -77295.299   -71377.754 
   48495     2215.921    368.80994   -71778.339    -77406.98   -71720.253 
Loop time of 103.077 on 1 procs for 495 steps with 19652 atoms

Performance: 0.415 ns/day, 57.843 hours/ns, 4.802 timesteps/s
99.6% CPU use with 1 MPI tasks x no OpenMP threads

MPI task timing breakdown:
Section |  min time  |  avg time  |  max time  |%varavg| %total
---------------------------------------------------------------
Pair    | 55.657     | 55.657     | 55.657     |   0.0 | 54.00
Neigh   | 45.948     | 45.948     | 45.948     |   0.0 | 44.58
Comm    | 0.57042    | 0.57042    | 0.57042    |   0.0 |  0.55
Output  | 0.00014687 | 0.00014687 | 0.00014687 |   0.0 |  0.00
Modify  | 0.7023     | 0.7023     | 0.7023     |   0.0 |  0.68
Other   |            | 0.1989     |            |       |  0.19

Nlocal:    19652 ave 19652 max 19652 min
Histogram: 1 0 0 0 0 0 0 0 0 0
Nghost:    20507 ave 20507 max 20507 min
Histogram: 1 0 0 0 0 0 0 0 0 0
Neighs:    1.95459e+06 ave 1.95459e+06 max 1.95459e+06 min
Histogram: 1 0 0 0 0 0 0 0 0 0

Total # of neighbors = 1954588
Ave neighs/atom = 99.46
Neighbor list builds = 495
Dangerous builds not checked
Setting up Verlet run ...
  Unit style    : metal
  Current step  : 48495
  Time step     : 0.001
Per MPI rank memory allocation (min/avg/max) = 20.11 | 20.11 | 20.11 Mbytes
Step Temp Press TotEng PotEng Enthalpy 
   48495     2215.921    368.80994   -71778.339    -77406.98   -71720.253 
   50000    2201.2659    2452.0516   -71859.954    -77451.37   -71474.766 
Loop time of 311.484 on 1 procs for 1505 steps with 19652 atoms

Performance: 0.417 ns/day, 57.491 hours/ns, 4.832 timesteps/s
99.5% CPU use with 1 MPI tasks x no OpenMP threads

MPI task timing breakdown:
Section |  min time  |  avg time  |  max time  |%varavg| %total
---------------------------------------------------------------
Pair    | 167.81     | 167.81     | 167.81     |   0.0 | 53.88
Neigh   | 138.99     | 138.99     | 138.99     |   0.0 | 44.62
Comm    | 1.7377     | 1.7377     | 1.7377     |   0.0 |  0.56
Output  | 0.24285    | 0.24285    | 0.24285    |   0.0 |  0.08
Modify  | 2.1021     | 2.1021     | 2.1021     |   0.0 |  0.67
Other   |            | 0.5963     |            |       |  0.19

Nlocal:    19652 ave 19652 max 19652 min
Histogram: 1 0 0 0 0 0 0 0 0 0
Nghost:    20545 ave 20545 max 20545 min
Histogram: 1 0 0 0 0 0 0 0 0 0
Neighs:    1.95989e+06 ave 1.95989e+06 max 1.95989e+06 min
Histogram: 1 0 0 0 0 0 0 0 0 0

Total # of neighbors = 1959894
Ave neighs/atom = 99.73
Neighbor list builds = 1505
Dangerous builds not checked
Setting up Verlet run ...
  Unit style    : metal
  Current step  : 50000
  Time step     : 0.001
Per MPI rank memory allocation (min/avg/max) = 20.11 | 20.11 | 20.11 Mbytes
Step Temp Press TotEng PotEng Enthalpy 
   50000    2201.2659    2452.0516   -71859.954    -77451.37   -71474.766 
   50495    2178.1699    1837.1528   -72053.198   -77585.948   -71765.315 
Loop time of 101.194 on 1 procs for 495 steps with 19652 atoms

Performance: 0.423 ns/day, 56.786 hours/ns, 4.892 timesteps/s
99.2% CPU use with 1 MPI tasks x no OpenMP threads

MPI task timing breakdown:
Section |  min time  |  avg time  |  max time  |%varavg| %total
---------------------------------------------------------------
Pair    | 54.586     | 54.586     | 54.586     |   0.0 | 53.94
Neigh   | 45.131     | 45.131     | 45.131     |   0.0 | 44.60
Comm    | 0.574      | 0.574      | 0.574      |   0.0 |  0.57
Output  | 0.00015807 | 0.00015807 | 0.00015807 |   0.0 |  0.00
Modify  | 0.69824    | 0.69824    | 0.69824    |   0.0 |  0.69
Other   |            | 0.2042     |            |       |  0.20

Nlocal:    19652 ave 19652 max 19652 min
Histogram: 1 0 0 0 0 0 0 0 0 0
Nghost:    20563 ave 20563 max 20563 min
Histogram: 1 0 0 0 0 0 0 0 0 0
Neighs:    1.96478e+06 ave 1.96478e+06 max 1.96478e+06 min
Histogram: 1 0 0 0 0 0 0 0 0 0

Total # of neighbors = 1964777
Ave neighs/atom = 99.9785
Neighbor list builds = 495
Dangerous builds not checked
Setting up Verlet run ...
  Unit style    : metal
  Current step  : 50495
  Time step     : 0.001
Per MPI rank memory allocation (min/avg/max) = 20.11 | 20.11 | 20.11 Mbytes
Step Temp Press TotEng PotEng Enthalpy 
   50495    2178.1699    1837.1528   -72053.198   -77585.948   -71765.315 
   52000    2132.4148    -2941.786   -72152.538   -77569.066   -72614.966 
Loop time of 311.962 on 1 procs for 1505 steps with 19652 atoms

Performance: 0.417 ns/day, 57.579 hours/ns, 4.824 timesteps/s
98.6% CPU use with 1 MPI tasks x no OpenMP threads

MPI task timing breakdown:
Section |  min time  |  avg time  |  max time  |%varavg| %total
---------------------------------------------------------------
Pair    | 168.07     | 168.07     | 168.07     |   0.0 | 53.88
Neigh   | 139.29     | 139.29     | 139.29     |   0.0 | 44.65
Comm    | 1.7886     | 1.7886     | 1.7886     |   0.0 |  0.57
Output  | 0.09063    | 0.09063    | 0.09063    |   0.0 |  0.03
Modify  | 2.103      | 2.103      | 2.103      |   0.0 |  0.67
Other   |            | 0.6171     |            |       |  0.20

Nlocal:    19652 ave 19652 max 19652 min
Histogram: 1 0 0 0 0 0 0 0 0 0
Nghost:    20504 ave 20504 max 20504 min
Histogram: 1 0 0 0 0 0 0 0 0 0
Neighs:    1.95829e+06 ave 1.95829e+06 max 1.95829e+06 min
Histogram: 1 0 0 0 0 0 0 0 0 0

Total # of neighbors = 1958290
Ave neighs/atom = 99.6484
Neighbor list builds = 1505
Dangerous builds not checked
Setting up Verlet run ...
  Unit style    : metal
  Current step  : 52000
  Time step     : 0.001
Per MPI rank memory allocation (min/avg/max) = 20.11 | 20.11 | 20.11 Mbytes
Step Temp Press TotEng PotEng Enthalpy 
   52000    2132.4148    -2941.786   -72152.538   -77569.066   -72614.966 
   52495    2106.6702    -857.0709   -72429.364   -77780.498   -72563.448 
Loop time of 104.089 on 1 procs for 495 steps with 19652 atoms

Performance: 0.411 ns/day, 58.411 hours/ns, 4.756 timesteps/s
99.6% CPU use with 1 MPI tasks x no OpenMP threads

MPI task timing breakdown:
Section |  min time  |  avg time  |  max time  |%varavg| %total
---------------------------------------------------------------
Pair    | 56.344     | 56.344     | 56.344     |   0.0 | 54.13
Neigh   | 46.183     | 46.183     | 46.183     |   0.0 | 44.37
Comm    | 0.64617    | 0.64617    | 0.64617    |   0.0 |  0.62
Output  | 0.00016117 | 0.00016117 | 0.00016117 |   0.0 |  0.00
Modify  | 0.71661    | 0.71661    | 0.71661    |   0.0 |  0.69
Other   |            | 0.1988     |            |       |  0.19

Nlocal:    19652 ave 19652 max 19652 min
Histogram: 1 0 0 0 0 0 0 0 0 0
Nghost:    20571 ave 20571 max 20571 min
Histogram: 1 0 0 0 0 0 0 0 0 0
Neighs:    1.96772e+06 ave 1.96772e+06 max 1.96772e+06 min
Histogram: 1 0 0 0 0 0 0 0 0 0

Total # of neighbors = 1967716
Ave neighs/atom = 100.128
Neighbor list builds = 495
Dangerous builds not checked
Setting up Verlet run ...
  Unit style    : metal
  Current step  : 52495
  Time step     : 0.001
Per MPI rank memory allocation (min/avg/max) = 20.11 | 20.11 | 20.11 Mbytes
Step Temp Press TotEng PotEng Enthalpy 
   52495    2106.6702    -857.0709   -72429.364   -77780.498   -72563.448 
   54000    2095.5615    448.50852   -72488.464   -77811.381   -72418.398 
Loop time of 317.562 on 1 procs for 1505 steps with 19652 atoms

Performance: 0.409 ns/day, 58.612 hours/ns, 4.739 timesteps/s
99.1% CPU use with 1 MPI tasks x no OpenMP threads

MPI task timing breakdown:
Section |  min time  |  avg time  |  max time  |%varavg| %total
---------------------------------------------------------------
Pair    | 171.56     | 171.56     | 171.56     |   0.0 | 54.02
Neigh   | 141.35     | 141.35     | 141.35     |   0.0 | 44.51
Comm    | 1.7595     | 1.7595     | 1.7595     |   0.0 |  0.55
Output  | 0.12565    | 0.12565    | 0.12565    |   0.0 |  0.04
Modify  | 2.1487     | 2.1487     | 2.1487     |   0.0 |  0.68
Other   |            | 0.618      |            |       |  0.19

Nlocal:    19652 ave 19652 max 19652 min
Histogram: 1 0 0 0 0 0 0 0 0 0
Nghost:    20594 ave 20594 max 20594 min
Histogram: 1 0 0 0 0 0 0 0 0 0
Neighs:    1.97062e+06 ave 1.97062e+06 max 1.97062e+06 min
Histogram: 1 0 0 0 0 0 0 0 0 0

Total # of neighbors = 1970617
Ave neighs/atom = 100.276
Neighbor list builds = 1505
Dangerous builds not checked
Setting up Verlet run ...
  Unit style    : metal
  Current step  : 54000
  Time step     : 0.001
Per MPI rank memory allocation (min/avg/max) = 20.11 | 20.11 | 20.11 Mbytes
Step Temp Press TotEng PotEng Enthalpy 
   54000    2095.5615    448.50852   -72488.464   -77811.381   -72418.398 
   54495    2064.8464    1661.1976   -72755.227   -78000.125   -72496.962 
Loop time of 102.586 on 1 procs for 495 steps with 19652 atoms

Performance: 0.417 ns/day, 57.568 hours/ns, 4.825 timesteps/s
97.6% CPU use with 1 MPI tasks x no OpenMP threads

MPI task timing breakdown:
Section |  min time  |  avg time  |  max time  |%varavg| %total
---------------------------------------------------------------
Pair    | 55.789     | 55.789     | 55.789     |   0.0 | 54.38
Neigh   | 45.334     | 45.334     | 45.334     |   0.0 | 44.19
Comm    | 0.55879    | 0.55879    | 0.55879    |   0.0 |  0.54
Output  | 0.00015807 | 0.00015807 | 0.00015807 |   0.0 |  0.00
Modify  | 0.70727    | 0.70727    | 0.70727    |   0.0 |  0.69
Other   |            | 0.1972     |            |       |  0.19

Nlocal:    19652 ave 19652 max 19652 min
Histogram: 1 0 0 0 0 0 0 0 0 0
Nghost:    20551 ave 20551 max 20551 min
Histogram: 1 0 0 0 0 0 0 0 0 0
Neighs:    1.98e+06 ave 1.98e+06 max 1.98e+06 min
Histogram: 1 0 0 0 0 0 0 0 0 0

Total # of neighbors = 1980004
Ave neighs/atom = 100.753
Neighbor list builds = 495
Dangerous builds not checked
Setting up Verlet run ...
  Unit style    : metal
  Current step  : 54495
  Time step     : 0.001
Per MPI rank memory allocation (min/avg/max) = 20.11 | 20.11 | 20.11 Mbytes
Step Temp Press TotEng PotEng Enthalpy 
   54495    2064.8464    1661.1976   -72755.227   -78000.125   -72496.962 
   56000    2048.6756   -602.50877   -72794.244   -77998.066   -72888.046 
Loop time of 299.757 on 1 procs for 1505 steps with 19652 atoms

Performance: 0.434 ns/day, 55.326 hours/ns, 5.021 timesteps/s
99.4% CPU use with 1 MPI tasks x no OpenMP threads

MPI task timing breakdown:
Section |  min time  |  avg time  |  max time  |%varavg| %total
---------------------------------------------------------------
Pair    | 161.55     | 161.55     | 161.55     |   0.0 | 53.89
Neigh   | 133.71     | 133.71     | 133.71     |   0.0 | 44.61
Comm    | 1.6863     | 1.6863     | 1.6863     |   0.0 |  0.56
Output  | 0.17178    | 0.17178    | 0.17178    |   0.0 |  0.06
Modify  | 2.0387     | 2.0387     | 2.0387     |   0.0 |  0.68
Other   |            | 0.5952     |            |       |  0.20

Nlocal:    19652 ave 19652 max 19652 min
Histogram: 1 0 0 0 0 0 0 0 0 0
Nghost:    20606 ave 20606 max 20606 min
Histogram: 1 0 0 0 0 0 0 0 0 0
Neighs:    1.9761e+06 ave 1.9761e+06 max 1.9761e+06 min
Histogram: 1 0 0 0 0 0 0 0 0 0

Total # of neighbors = 1976103
Ave neighs/atom = 100.555
Neighbor list builds = 1505
Dangerous builds not checked
Setting up Verlet run ...
  Unit style    : metal
  Current step  : 56000
  Time step     : 0.001
Per MPI rank memory allocation (min/avg/max) = 20.11 | 20.11 | 20.11 Mbytes
Step Temp Press TotEng PotEng Enthalpy 
   56000    2048.6756   -602.50877   -72794.244   -77998.066   -72888.046 
   56495    1996.4565   -400.80329   -73049.128    -78120.31   -73111.384 
Loop time of 99.2563 on 1 procs for 495 steps with 19652 atoms

Performance: 0.431 ns/day, 55.699 hours/ns, 4.987 timesteps/s
99.2% CPU use with 1 MPI tasks x no OpenMP threads

MPI task timing breakdown:
Section |  min time  |  avg time  |  max time  |%varavg| %total
---------------------------------------------------------------
Pair    | 53.57      | 53.57      | 53.57      |   0.0 | 53.97
Neigh   | 44.241     | 44.241     | 44.241     |   0.0 | 44.57
Comm    | 0.55803    | 0.55803    | 0.55803    |   0.0 |  0.56
Output  | 0.00015187 | 0.00015187 | 0.00015187 |   0.0 |  0.00
Modify  | 0.68777    | 0.68777    | 0.68777    |   0.0 |  0.69
Other   |            | 0.1987     |            |       |  0.20

Nlocal:    19652 ave 19652 max 19652 min
Histogram: 1 0 0 0 0 0 0 0 0 0
Nghost:    20686 ave 20686 max 20686 min
Histogram: 1 0 0 0 0 0 0 0 0 0
Neighs:    1.98184e+06 ave 1.98184e+06 max 1.98184e+06 min
Histogram: 1 0 0 0 0 0 0 0 0 0

Total # of neighbors = 1981844
Ave neighs/atom = 100.847
Neighbor list builds = 495
Dangerous builds not checked
Setting up Verlet run ...
  Unit style    : metal
  Current step  : 56495
  Time step     : 0.001
Per MPI rank memory allocation (min/avg/max) = 20.11 | 20.11 | 20.11 Mbytes
Step Temp Press TotEng PotEng Enthalpy 
   56495    1996.4565   -400.80329   -73049.128    -78120.31   -73111.384 
   58000    1997.5352   -154.14554   -73139.072   -78212.993   -73162.972 
Loop time of 304 on 1 procs for 1505 steps with 19652 atoms

Performance: 0.428 ns/day, 56.109 hours/ns, 4.951 timesteps/s
99.7% CPU use with 1 MPI tasks x no OpenMP threads

MPI task timing breakdown:
Section |  min time  |  avg time  |  max time  |%varavg| %total
---------------------------------------------------------------
Pair    | 163.77     | 163.77     | 163.77     |   0.0 | 53.87
Neigh   | 135.72     | 135.72     | 135.72     |   0.0 | 44.64
Comm    | 1.7664     | 1.7664     | 1.7664     |   0.0 |  0.58
Output  | 0.069384   | 0.069384   | 0.069384   |   0.0 |  0.02
Modify  | 2.065      | 2.065      | 2.065      |   0.0 |  0.68
Other   |            | 0.6079     |            |       |  0.20

Nlocal:    19652 ave 19652 max 19652 min
Histogram: 1 0 0 0 0 0 0 0 0 0
Nghost:    20633 ave 20633 max 20633 min
Histogram: 1 0 0 0 0 0 0 0 0 0
Neighs:    1.9855e+06 ave 1.9855e+06 max 1.9855e+06 min
Histogram: 1 0 0 0 0 0 0 0 0 0

Total # of neighbors = 1985501
Ave neighs/atom = 101.033
Neighbor list builds = 1505
Dangerous builds not checked
Setting up Verlet run ...
  Unit style    : metal
  Current step  : 58000
  Time step     : 0.001
Per MPI rank memory allocation (min/avg/max) = 20.11 | 20.11 | 20.11 Mbytes
Step Temp Press TotEng PotEng Enthalpy 
   58000    1997.5352   -154.14554   -73139.072   -78212.993   -73162.972 
   58495    1972.6828     253.6153   -73344.294   -78355.088    -73305.09 
Loop time of 88.7993 on 1 procs for 495 steps with 19652 atoms

Performance: 0.482 ns/day, 49.831 hours/ns, 5.574 timesteps/s
99.8% CPU use with 1 MPI tasks x no OpenMP threads

MPI task timing breakdown:
Section |  min time  |  avg time  |  max time  |%varavg| %total
---------------------------------------------------------------
Pair    | 47.775     | 47.775     | 47.775     |   0.0 | 53.80
Neigh   | 39.754     | 39.754     | 39.754     |   0.0 | 44.77
Comm    | 0.48528    | 0.48528    | 0.48528    |   0.0 |  0.55
Output  | 0.00014186 | 0.00014186 | 0.00014186 |   0.0 |  0.00
Modify  | 0.6041     | 0.6041     | 0.6041     |   0.0 |  0.68
Other   |            | 0.1803     |            |       |  0.20

Nlocal:    19652 ave 19652 max 19652 min
Histogram: 1 0 0 0 0 0 0 0 0 0
Nghost:    20655 ave 20655 max 20655 min
Histogram: 1 0 0 0 0 0 0 0 0 0
Neighs:    1.99145e+06 ave 1.99145e+06 max 1.99145e+06 min
Histogram: 1 0 0 0 0 0 0 0 0 0

Total # of neighbors = 1991446
Ave neighs/atom = 101.336
Neighbor list builds = 495
Dangerous builds not checked
Setting up Verlet run ...
  Unit style    : metal
  Current step  : 58495
  Time step     : 0.001
Per MPI rank memory allocation (min/avg/max) = 20.11 | 20.11 | 20.11 Mbytes
Step Temp Press TotEng PotEng Enthalpy 
   58495    1972.6828     253.6153   -73344.294   -78355.088    -73305.09 
   60000    1952.9306   -2196.7394    -73515.64   -78476.262   -73855.114 
Loop time of 266.113 on 1 procs for 1505 steps with 19652 atoms

Performance: 0.489 ns/day, 49.116 hours/ns, 5.655 timesteps/s
99.2% CPU use with 1 MPI tasks x no OpenMP threads

MPI task timing breakdown:
Section |  min time  |  avg time  |  max time  |%varavg| %total
---------------------------------------------------------------
Pair    | 142.46     | 142.46     | 142.46     |   0.0 | 53.54
Neigh   | 119.23     | 119.23     | 119.23     |   0.0 | 44.80
Comm    | 1.4659     | 1.4659     | 1.4659     |   0.0 |  0.55
Output  | 0.62551    | 0.62551    | 0.62551    |   0.0 |  0.24
Modify  | 1.7936     | 1.7936     | 1.7936     |   0.0 |  0.67
Other   |            | 0.5369     |            |       |  0.20

Nlocal:    19652 ave 19652 max 19652 min
Histogram: 1 0 0 0 0 0 0 0 0 0
Nghost:    20695 ave 20695 max 20695 min
Histogram: 1 0 0 0 0 0 0 0 0 0
Neighs:    1.99174e+06 ave 1.99174e+06 max 1.99174e+06 min
Histogram: 1 0 0 0 0 0 0 0 0 0

Total # of neighbors = 1991736
Ave neighs/atom = 101.35
Neighbor list builds = 1505
Dangerous builds not checked
Setting up Verlet run ...
  Unit style    : metal
  Current step  : 60000
  Time step     : 0.001
Per MPI rank memory allocation (min/avg/max) = 20.11 | 20.11 | 20.11 Mbytes
Step Temp Press TotEng PotEng Enthalpy 
   60000    1952.9306   -2196.7394    -73515.64   -78476.262   -73855.114 
   60495    1903.4065    695.08251   -73639.543   -78474.369   -73532.403 
Loop time of 87.2534 on 1 procs for 495 steps with 19652 atoms

Performance: 0.490 ns/day, 48.964 hours/ns, 5.673 timesteps/s
99.8% CPU use with 1 MPI tasks x no OpenMP threads

MPI task timing breakdown:
Section |  min time  |  avg time  |  max time  |%varavg| %total
---------------------------------------------------------------
Pair    | 46.861     | 46.861     | 46.861     |   0.0 | 53.71
Neigh   | 39.134     | 39.134     | 39.134     |   0.0 | 44.85
Comm    | 0.4772     | 0.4772     | 0.4772     |   0.0 |  0.55
Output  | 0.00012994 | 0.00012994 | 0.00012994 |   0.0 |  0.00
Modify  | 0.59747    | 0.59747    | 0.59747    |   0.0 |  0.68
Other   |            | 0.1839     |            |       |  0.21

Nlocal:    19652 ave 19652 max 19652 min
Histogram: 1 0 0 0 0 0 0 0 0 0
Nghost:    20698 ave 20698 max 20698 min
Histogram: 1 0 0 0 0 0 0 0 0 0
Neighs:    1.99685e+06 ave 1.99685e+06 max 1.99685e+06 min
Histogram: 1 0 0 0 0 0 0 0 0 0

Total # of neighbors = 1996854
Ave neighs/atom = 101.611
Neighbor list builds = 495
Dangerous builds not checked
Setting up Verlet run ...
  Unit style    : metal
  Current step  : 60495
  Time step     : 0.001
Per MPI rank memory allocation (min/avg/max) = 20.11 | 20.11 | 20.11 Mbytes
Step Temp Press TotEng PotEng Enthalpy 
   60495    1903.4065    695.08251   -73639.543   -78474.369   -73532.403 
   62000    1890.9247   -248.86401   -73775.639    -78578.76   -73813.973 
Loop time of 280.885 on 1 procs for 1505 steps with 19652 atoms

Performance: 0.463 ns/day, 51.843 hours/ns, 5.358 timesteps/s
99.3% CPU use with 1 MPI tasks x no OpenMP threads

MPI task timing breakdown:
Section |  min time  |  avg time  |  max time  |%varavg| %total
---------------------------------------------------------------
Pair    | 150.8      | 150.8      | 150.8      |   0.0 | 53.69
Neigh   | 125.99     | 125.99     | 125.99     |   0.0 | 44.85
Comm    | 1.5354     | 1.5354     | 1.5354     |   0.0 |  0.55
Output  | 0.08867    | 0.08867    | 0.08867    |   0.0 |  0.03
Modify  | 1.9089     | 1.9089     | 1.9089     |   0.0 |  0.68
Other   |            | 0.5658     |            |       |  0.20

Nlocal:    19652 ave 19652 max 19652 min
Histogram: 1 0 0 0 0 0 0 0 0 0
Nghost:    20700 ave 20700 max 20700 min
Histogram: 1 0 0 0 0 0 0 0 0 0
Neighs:    1.99791e+06 ave 1.99791e+06 max 1.99791e+06 min
Histogram: 1 0 0 0 0 0 0 0 0 0

Total # of neighbors = 1997911
Ave neighs/atom = 101.665
Neighbor list builds = 1505
Dangerous builds not checked
Setting up Verlet run ...
  Unit style    : metal
  Current step  : 62000
  Time step     : 0.001
Per MPI rank memory allocation (min/avg/max) = 20.11 | 20.11 | 20.11 Mbytes
Step Temp Press TotEng PotEng Enthalpy 
   62000    1890.9247   -248.86401   -73775.639    -78578.76   -73813.973 
   62495    1876.6347   -1297.8085   -74003.792   -78770.615   -74203.162 
Loop time of 91.7277 on 1 procs for 495 steps with 19652 atoms

Performance: 0.466 ns/day, 51.475 hours/ns, 5.396 timesteps/s
99.9% CPU use with 1 MPI tasks x no OpenMP threads

MPI task timing breakdown:
Section |  min time  |  avg time  |  max time  |%varavg| %total
---------------------------------------------------------------
Pair    | 49.524     | 49.524     | 49.524     |   0.0 | 53.99
Neigh   | 40.882     | 40.882     | 40.882     |   0.0 | 44.57
Comm    | 0.50595    | 0.50595    | 0.50595    |   0.0 |  0.55
Output  | 0.00013781 | 0.00013781 | 0.00013781 |   0.0 |  0.00
Modify  | 0.62504    | 0.62504    | 0.62504    |   0.0 |  0.68
Other   |            | 0.1905     |            |       |  0.21

Nlocal:    19652 ave 19652 max 19652 min
Histogram: 1 0 0 0 0 0 0 0 0 0
Nghost:    20694 ave 20694 max 20694 min
Histogram: 1 0 0 0 0 0 0 0 0 0
Neighs:    2.00362e+06 ave 2.00362e+06 max 2.00362e+06 min
Histogram: 1 0 0 0 0 0 0 0 0 0

Total # of neighbors = 2003620
Ave neighs/atom = 101.955
Neighbor list builds = 495
Dangerous builds not checked
Setting up Verlet run ...
  Unit style    : metal
  Current step  : 62495
  Time step     : 0.001
Per MPI rank memory allocation (min/avg/max) = 20.11 | 20.11 | 20.11 Mbytes
Step Temp Press TotEng PotEng Enthalpy 
   62495    1876.6347   -1297.8085   -74003.792   -78770.615   -74203.162 
   64000    1880.0666    1378.5716   -74051.356   -78826.897    -73840.22 
Loop time of 272.546 on 1 procs for 1505 steps with 19652 atoms

Performance: 0.477 ns/day, 50.304 hours/ns, 5.522 timesteps/s
99.9% CPU use with 1 MPI tasks x no OpenMP threads

MPI task timing breakdown:
Section |  min time  |  avg time  |  max time  |%varavg| %total
---------------------------------------------------------------
Pair    | 146.76     | 146.76     | 146.76     |   0.0 | 53.85
Neigh   | 121.85     | 121.85     | 121.85     |   0.0 | 44.71
Comm    | 1.4878     | 1.4878     | 1.4878     |   0.0 |  0.55
Output  | 0.061787   | 0.061787   | 0.061787   |   0.0 |  0.02
Modify  | 1.8379     | 1.8379     | 1.8379     |   0.0 |  0.67
Other   |            | 0.544      |            |       |  0.20

Nlocal:    19652 ave 19652 max 19652 min
Histogram: 1 0 0 0 0 0 0 0 0 0
Nghost:    20836 ave 20836 max 20836 min
Histogram: 1 0 0 0 0 0 0 0 0 0
Neighs:    2.01007e+06 ave 2.01007e+06 max 2.01007e+06 min
Histogram: 1 0 0 0 0 0 0 0 0 0

Total # of neighbors = 2010071
Ave neighs/atom = 102.283
Neighbor list builds = 1505
Dangerous builds not checked
Setting up Verlet run ...
  Unit style    : metal
  Current step  : 64000
  Time step     : 0.001
Per MPI rank memory allocation (min/avg/max) = 20.11 | 20.11 | 20.11 Mbytes
Step Temp Press TotEng PotEng Enthalpy 
   64000    1880.0666    1378.5716   -74051.356   -78826.897    -73840.22 
   64495    1804.2503    1259.9679   -74328.392   -78911.352    -74135.85 
Loop time of 89.5468 on 1 procs for 495 steps with 19652 atoms

Performance: 0.478 ns/day, 50.251 hours/ns, 5.528 timesteps/s
99.9% CPU use with 1 MPI tasks x no OpenMP threads

MPI task timing breakdown:
Section |  min time  |  avg time  |  max time  |%varavg| %total
---------------------------------------------------------------
Pair    | 48.223     | 48.223     | 48.223     |   0.0 | 53.85
Neigh   | 40.052     | 40.052     | 40.052     |   0.0 | 44.73
Comm    | 0.48079    | 0.48079    | 0.48079    |   0.0 |  0.54
Output  | 0.00011492 | 0.00011492 | 0.00011492 |   0.0 |  0.00
Modify  | 0.61064    | 0.61064    | 0.61064    |   0.0 |  0.68
Other   |            | 0.1804     |            |       |  0.20

Nlocal:    19652 ave 19652 max 19652 min
Histogram: 1 0 0 0 0 0 0 0 0 0
Nghost:    20707 ave 20707 max 20707 min
Histogram: 1 0 0 0 0 0 0 0 0 0
Neighs:    2.01439e+06 ave 2.01439e+06 max 2.01439e+06 min
Histogram: 1 0 0 0 0 0 0 0 0 0

Total # of neighbors = 2014389
Ave neighs/atom = 102.503
Neighbor list builds = 495
Dangerous builds not checked
Setting up Verlet run ...
  Unit style    : metal
  Current step  : 64495
  Time step     : 0.001
Per MPI rank memory allocation (min/avg/max) = 20.11 | 20.11 | 20.11 Mbytes
Step Temp Press TotEng PotEng Enthalpy 
   64495    1804.2503    1259.9679   -74328.392   -78911.352    -74135.85 
   66000    1798.5627    231.05583   -74429.723   -78998.236   -74394.427 
Loop time of 287.853 on 1 procs for 1505 steps with 19652 atoms

Performance: 0.452 ns/day, 53.129 hours/ns, 5.228 timesteps/s
99.7% CPU use with 1 MPI tasks x no OpenMP threads

MPI task timing breakdown:
Section |  min time  |  avg time  |  max time  |%varavg| %total
---------------------------------------------------------------
Pair    | 155.24     | 155.24     | 155.24     |   0.0 | 53.93
Neigh   | 128.45     | 128.45     | 128.45     |   0.0 | 44.62
Comm    | 1.5714     | 1.5714     | 1.5714     |   0.0 |  0.55
Output  | 0.091682   | 0.091682   | 0.091682   |   0.0 |  0.03
Modify  | 1.9346     | 1.9346     | 1.9346     |   0.0 |  0.67
Other   |            | 0.5694     |            |       |  0.20

Nlocal:    19652 ave 19652 max 19652 min
Histogram: 1 0 0 0 0 0 0 0 0 0
Nghost:    20788 ave 20788 max 20788 min
Histogram: 1 0 0 0 0 0 0 0 0 0
Neighs:    2.01522e+06 ave 2.01522e+06 max 2.01522e+06 min
Histogram: 1 0 0 0 0 0 0 0 0 0

Total # of neighbors = 2015216
Ave neighs/atom = 102.545
Neighbor list builds = 1505
Dangerous builds not checked
Setting up Verlet run ...
  Unit style    : metal
  Current step  : 66000
  Time step     : 0.001
Per MPI rank memory allocation (min/avg/max) = 20.11 | 20.11 | 20.11 Mbytes
Step Temp Press TotEng PotEng Enthalpy 
   66000    1798.5627    231.05583   -74429.723   -78998.236   -74394.427 
   66495    1768.8993     1465.922    -74605.76   -79098.925   -74382.373 
Loop time of 94.1938 on 1 procs for 495 steps with 19652 atoms

Performance: 0.454 ns/day, 52.858 hours/ns, 5.255 timesteps/s
99.6% CPU use with 1 MPI tasks x no OpenMP threads

MPI task timing breakdown:
Section |  min time  |  avg time  |  max time  |%varavg| %total
---------------------------------------------------------------
Pair    | 50.939     | 50.939     | 50.939     |   0.0 | 54.08
Neigh   | 41.92      | 41.92      | 41.92      |   0.0 | 44.50
Comm    | 0.51548    | 0.51548    | 0.51548    |   0.0 |  0.55
Output  | 0.00012493 | 0.00012493 | 0.00012493 |   0.0 |  0.00
Modify  | 0.64366    | 0.64366    | 0.64366    |   0.0 |  0.68
Other   |            | 0.1763     |            |       |  0.19

Nlocal:    19652 ave 19652 max 19652 min
Histogram: 1 0 0 0 0 0 0 0 0 0
Nghost:    20776 ave 20776 max 20776 min
Histogram: 1 0 0 0 0 0 0 0 0 0
Neighs:    2.02022e+06 ave 2.02022e+06 max 2.02022e+06 min
Histogram: 1 0 0 0 0 0 0 0 0 0

Total # of neighbors = 2020223
Ave neighs/atom = 102.8
Neighbor list builds = 495
Dangerous builds not checked
Setting up Verlet run ...
  Unit style    : metal
  Current step  : 66495
  Time step     : 0.001
Per MPI rank memory allocation (min/avg/max) = 20.11 | 20.11 | 20.11 Mbytes
Step Temp Press TotEng PotEng Enthalpy 
   66495    1768.8993     1465.922    -74605.76   -79098.925   -74382.373 
   68000    1758.1695    2146.4454   -74777.286   -79243.197   -74451.251 
Loop time of 274.625 on 1 procs for 1505 steps with 19652 atoms

Performance: 0.473 ns/day, 50.687 hours/ns, 5.480 timesteps/s
99.6% CPU use with 1 MPI tasks x no OpenMP threads

MPI task timing breakdown:
Section |  min time  |  avg time  |  max time  |%varavg| %total
---------------------------------------------------------------
Pair    | 148.34     | 148.34     | 148.34     |   0.0 | 54.02
Neigh   | 122.43     | 122.43     | 122.43     |   0.0 | 44.58
Comm    | 1.4447     | 1.4447     | 1.4447     |   0.0 |  0.53
Output  | 0.060183   | 0.060183   | 0.060183   |   0.0 |  0.02
Modify  | 1.8583     | 1.8583     | 1.8583     |   0.0 |  0.68
Other   |            | 0.4926     |            |       |  0.18

Nlocal:    19652 ave 19652 max 19652 min
Histogram: 1 0 0 0 0 0 0 0 0 0
Nghost:    20848 ave 20848 max 20848 min
Histogram: 1 0 0 0 0 0 0 0 0 0
Neighs:    2.02617e+06 ave 2.02617e+06 max 2.02617e+06 min
Histogram: 1 0 0 0 0 0 0 0 0 0

Total # of neighbors = 2026173
Ave neighs/atom = 103.103
Neighbor list builds = 1505
Dangerous builds not checked
Setting up Verlet run ...
  Unit style    : metal
  Current step  : 68000
  Time step     : 0.001
Per MPI rank memory allocation (min/avg/max) = 20.11 | 20.11 | 20.11 Mbytes
Step Temp Press TotEng PotEng Enthalpy 
   68000    1758.1695    2146.4454   -74777.286   -79243.197   -74451.251 
   68495    1725.8449   -882.93792   -74979.494   -79363.297   -75113.504 
Loop time of 87.4916 on 1 procs for 495 steps with 19652 atoms

Performance: 0.489 ns/day, 49.097 hours/ns, 5.658 timesteps/s
99.8% CPU use with 1 MPI tasks x no OpenMP threads

MPI task timing breakdown:
Section |  min time  |  avg time  |  max time  |%varavg| %total
---------------------------------------------------------------
Pair    | 47.226     | 47.226     | 47.226     |   0.0 | 53.98
Neigh   | 39.037     | 39.037     | 39.037     |   0.0 | 44.62
Comm    | 0.47143    | 0.47143    | 0.47143    |   0.0 |  0.54
Output  | 0.0001061  | 0.0001061  | 0.0001061  |   0.0 |  0.00
Modify  | 0.59696    | 0.59696    | 0.59696    |   0.0 |  0.68
Other   |            | 0.1597     |            |       |  0.18

Nlocal:    19652 ave 19652 max 19652 min
Histogram: 1 0 0 0 0 0 0 0 0 0
Nghost:    20816 ave 20816 max 20816 min
Histogram: 1 0 0 0 0 0 0 0 0 0
Neighs:    2.0268e+06 ave 2.0268e+06 max 2.0268e+06 min
Histogram: 1 0 0 0 0 0 0 0 0 0

Total # of neighbors = 2026804
Ave neighs/atom = 103.135
Neighbor list builds = 495
Dangerous builds not checked
Setting up Verlet run ...
  Unit style    : metal
  Current step  : 68495
  Time step     : 0.001
Per MPI rank memory allocation (min/avg/max) = 20.11 | 20.11 | 20.11 Mbytes
Step Temp Press TotEng PotEng Enthalpy 
   68495    1725.8449   -882.93792   -74979.494   -79363.297   -75113.504 
   70000    1709.9527    644.64542   -75085.964   -79429.399   -74988.328 
Loop time of 295.788 on 1 procs for 1505 steps with 19652 atoms

Performance: 0.440 ns/day, 54.594 hours/ns, 5.088 timesteps/s
99.1% CPU use with 1 MPI tasks x no OpenMP threads

MPI task timing breakdown:
Section |  min time  |  avg time  |  max time  |%varavg| %total
---------------------------------------------------------------
Pair    | 160.46     | 160.46     | 160.46     |   0.0 | 54.25
Neigh   | 130.99     | 130.99     | 130.99     |   0.0 | 44.28
Comm    | 1.5707     | 1.5707     | 1.5707     |   0.0 |  0.53
Output  | 0.21019    | 0.21019    | 0.21019    |   0.0 |  0.07
Modify  | 1.9981     | 1.9981     | 1.9981     |   0.0 |  0.68
Other   |            | 0.5642     |            |       |  0.19

Nlocal:    19652 ave 19652 max 19652 min
Histogram: 1 0 0 0 0 0 0 0 0 0
Nghost:    20866 ave 20866 max 20866 min
Histogram: 1 0 0 0 0 0 0 0 0 0
Neighs:    2.03176e+06 ave 2.03176e+06 max 2.03176e+06 min
Histogram: 1 0 0 0 0 0 0 0 0 0

Total # of neighbors = 2031757
Ave neighs/atom = 103.387
Neighbor list builds = 1505
Dangerous builds not checked
Setting up Verlet run ...
  Unit style    : metal
  Current step  : 70000
  Time step     : 0.001
Per MPI rank memory allocation (min/avg/max) = 20.11 | 20.11 | 20.11 Mbytes
Step Temp Press TotEng PotEng Enthalpy 
   70000    1709.9527    644.64542   -75085.964   -79429.399   -74988.328 
   70495    1654.8221    167.95641   -75339.211    -79542.61   -75313.813 
Loop time of 92.6763 on 1 procs for 495 steps with 19652 atoms

Performance: 0.461 ns/day, 52.007 hours/ns, 5.341 timesteps/s
99.1% CPU use with 1 MPI tasks x no OpenMP threads

MPI task timing breakdown:
Section |  min time  |  avg time  |  max time  |%varavg| %total
---------------------------------------------------------------
Pair    | 50.351     | 50.351     | 50.351     |   0.0 | 54.33
Neigh   | 40.994     | 40.994     | 40.994     |   0.0 | 44.23
Comm    | 0.49858    | 0.49858    | 0.49858    |   0.0 |  0.54
Output  | 0.00012398 | 0.00012398 | 0.00012398 |   0.0 |  0.00
Modify  | 0.64266    | 0.64266    | 0.64266    |   0.0 |  0.69
Other   |            | 0.1897     |            |       |  0.20

Nlocal:    19652 ave 19652 max 19652 min
Histogram: 1 0 0 0 0 0 0 0 0 0
Nghost:    20836 ave 20836 max 20836 min
Histogram: 1 0 0 0 0 0 0 0 0 0
Neighs:    2.03622e+06 ave 2.03622e+06 max 2.03622e+06 min
Histogram: 1 0 0 0 0 0 0 0 0 0

Total # of neighbors = 2036220
Ave neighs/atom = 103.614
Neighbor list builds = 495
Dangerous builds not checked
Setting up Verlet run ...
  Unit style    : metal
  Current step  : 70495
  Time step     : 0.001
Per MPI rank memory allocation (min/avg/max) = 20.11 | 20.11 | 20.11 Mbytes
Step Temp Press TotEng PotEng Enthalpy 
   70495    1654.8221    167.95641   -75339.211    -79542.61   -75313.813 
   72000    1666.9548    1740.4107   -75395.952   -79630.169   -75133.408 
Loop time of 294.851 on 1 procs for 1505 steps with 19652 atoms

Performance: 0.441 ns/day, 54.421 hours/ns, 5.104 timesteps/s
99.4% CPU use with 1 MPI tasks x no OpenMP threads

MPI task timing breakdown:
Section |  min time  |  avg time  |  max time  |%varavg| %total
---------------------------------------------------------------
Pair    | 160.19     | 160.19     | 160.19     |   0.0 | 54.33
Neigh   | 130.41     | 130.41     | 130.41     |   0.0 | 44.23
Comm    | 1.6124     | 1.6124     | 1.6124     |   0.0 |  0.55
Output  | 0.080193   | 0.080193   | 0.080193   |   0.0 |  0.03
Modify  | 1.988      | 1.988      | 1.988      |   0.0 |  0.67
Other   |            | 0.5721     |            |       |  0.19

Nlocal:    19652 ave 19652 max 19652 min
Histogram: 1 0 0 0 0 0 0 0 0 0
Nghost:    20912 ave 20912 max 20912 min
Histogram: 1 0 0 0 0 0 0 0 0 0
Neighs:    2.0408e+06 ave 2.0408e+06 max 2.0408e+06 min
Histogram: 1 0 0 0 0 0 0 0 0 0

Total # of neighbors = 2040802
Ave neighs/atom = 103.847
Neighbor list builds = 1505
Dangerous builds not checked
Setting up Verlet run ...
  Unit style    : metal
  Current step  : 72000
  Time step     : 0.001
Per MPI rank memory allocation (min/avg/max) = 20.11 | 20.11 | 20.11 Mbytes
Step Temp Press TotEng PotEng Enthalpy 
   72000    1666.9548    1740.4107   -75395.952   -79630.169   -75133.408 
   72495    1623.7219    -128.5051   -75630.262   -79754.663   -75649.615 
Loop time of 96.1114 on 1 procs for 495 steps with 19652 atoms

Performance: 0.445 ns/day, 53.935 hours/ns, 5.150 timesteps/s
98.4% CPU use with 1 MPI tasks x no OpenMP threads

MPI task timing breakdown:
Section |  min time  |  avg time  |  max time  |%varavg| %total
---------------------------------------------------------------
Pair    | 52.325     | 52.325     | 52.325     |   0.0 | 54.44
Neigh   | 42.424     | 42.424     | 42.424     |   0.0 | 44.14
Comm    | 0.5275     | 0.5275     | 0.5275     |   0.0 |  0.55
Output  | 0.000139   | 0.000139   | 0.000139   |   0.0 |  0.00
Modify  | 0.64779    | 0.64779    | 0.64779    |   0.0 |  0.67
Other   |            | 0.1868     |            |       |  0.19

Nlocal:    19652 ave 19652 max 19652 min
Histogram: 1 0 0 0 0 0 0 0 0 0
Nghost:    20923 ave 20923 max 20923 min
Histogram: 1 0 0 0 0 0 0 0 0 0
Neighs:    2.0437e+06 ave 2.0437e+06 max 2.0437e+06 min
Histogram: 1 0 0 0 0 0 0 0 0 0

Total # of neighbors = 2043699
Ave neighs/atom = 103.994
Neighbor list builds = 495
Dangerous builds not checked
Setting up Verlet run ...
  Unit style    : metal
  Current step  : 72495
  Time step     : 0.001
Per MPI rank memory allocation (min/avg/max) = 20.11 | 20.11 | 20.11 Mbytes
Step Temp Press TotEng PotEng Enthalpy 
   72495    1623.7219    -128.5051   -75630.262   -79754.663   -75649.615 
   74000    1608.9386    775.17636   -75725.898   -79812.749   -75609.373 
Loop time of 310.049 on 1 procs for 1505 steps with 19652 atoms

Performance: 0.419 ns/day, 57.226 hours/ns, 4.854 timesteps/s
99.7% CPU use with 1 MPI tasks x no OpenMP threads

MPI task timing breakdown:
Section |  min time  |  avg time  |  max time  |%varavg| %total
---------------------------------------------------------------
Pair    | 169.15     | 169.15     | 169.15     |   0.0 | 54.55
Neigh   | 136.35     | 136.35     | 136.35     |   0.0 | 43.98
Comm    | 1.704      | 1.704      | 1.704      |   0.0 |  0.55
Output  | 0.14576    | 0.14576    | 0.14576    |   0.0 |  0.05
Modify  | 2.0989     | 2.0989     | 2.0989     |   0.0 |  0.68
Other   |            | 0.6004     |            |       |  0.19

Nlocal:    19652 ave 19652 max 19652 min
Histogram: 1 0 0 0 0 0 0 0 0 0
Nghost:    20909 ave 20909 max 20909 min
Histogram: 1 0 0 0 0 0 0 0 0 0
Neighs:    2.0477e+06 ave 2.0477e+06 max 2.0477e+06 min
Histogram: 1 0 0 0 0 0 0 0 0 0

Total # of neighbors = 2047704
Ave neighs/atom = 104.198
Neighbor list builds = 1505
Dangerous builds not checked
Setting up Verlet run ...
  Unit style    : metal
  Current step  : 74000
  Time step     : 0.001
Per MPI rank memory allocation (min/avg/max) = 20.11 | 20.11 | 20.11 Mbytes
Step Temp Press TotEng PotEng Enthalpy 
   74000    1608.9386    775.17636   -75725.898   -79812.749   -75609.373 
   74495    1560.2125   -31.931014   -75979.562   -79942.644   -75984.354 
Loop time of 101.214 on 1 procs for 495 steps with 19652 atoms

Performance: 0.423 ns/day, 56.798 hours/ns, 4.891 timesteps/s
99.4% CPU use with 1 MPI tasks x no OpenMP threads

MPI task timing breakdown:
Section |  min time  |  avg time  |  max time  |%varavg| %total
---------------------------------------------------------------
Pair    | 55.536     | 55.536     | 55.536     |   0.0 | 54.87
Neigh   | 44.238     | 44.238     | 44.238     |   0.0 | 43.71
Comm    | 0.55316    | 0.55316    | 0.55316    |   0.0 |  0.55
Output  | 0.00017715 | 0.00017715 | 0.00017715 |   0.0 |  0.00
Modify  | 0.69014    | 0.69014    | 0.69014    |   0.0 |  0.68
Other   |            | 0.1958     |            |       |  0.19

Nlocal:    19652 ave 19652 max 19652 min
Histogram: 1 0 0 0 0 0 0 0 0 0
Nghost:    20916 ave 20916 max 20916 min
Histogram: 1 0 0 0 0 0 0 0 0 0
Neighs:    2.05124e+06 ave 2.05124e+06 max 2.05124e+06 min
Histogram: 1 0 0 0 0 0 0 0 0 0

Total # of neighbors = 2051239
Ave neighs/atom = 104.378
Neighbor list builds = 495
Dangerous builds not checked
Setting up Verlet run ...
  Unit style    : metal
  Current step  : 74495
  Time step     : 0.001
Per MPI rank memory allocation (min/avg/max) = 20.11 | 20.11 | 20.11 Mbytes
Step Temp Press TotEng PotEng Enthalpy 
   74495    1560.2125   -31.931014   -75979.562   -79942.644   -75984.354 
   76000    1555.2536    967.11524   -76053.864    -80004.35   -75908.955 
Loop time of 300.897 on 1 procs for 1505 steps with 19652 atoms

Performance: 0.432 ns/day, 55.537 hours/ns, 5.002 timesteps/s
99.5% CPU use with 1 MPI tasks x no OpenMP threads

MPI task timing breakdown:
Section |  min time  |  avg time  |  max time  |%varavg| %total
---------------------------------------------------------------
Pair    | 164.42     | 164.42     | 164.42     |   0.0 | 54.64
Neigh   | 132.09     | 132.09     | 132.09     |   0.0 | 43.90
Comm    | 1.6954     | 1.6954     | 1.6954     |   0.0 |  0.56
Output  | 0.077173   | 0.077173   | 0.077173   |   0.0 |  0.03
Modify  | 2.0219     | 2.0219     | 2.0219     |   0.0 |  0.67
Other   |            | 0.592      |            |       |  0.20

Nlocal:    19652 ave 19652 max 19652 min
Histogram: 1 0 0 0 0 0 0 0 0 0
Nghost:    20985 ave 20985 max 20985 min
Histogram: 1 0 0 0 0 0 0 0 0 0
Neighs:    2.05461e+06 ave 2.05461e+06 max 2.05461e+06 min
Histogram: 1 0 0 0 0 0 0 0 0 0

Total # of neighbors = 2054607
Ave neighs/atom = 104.55
Neighbor list builds = 1505
Dangerous builds not checked
Setting up Verlet run ...
  Unit style    : metal
  Current step  : 76000
  Time step     : 0.001
Per MPI rank memory allocation (min/avg/max) = 20.11 | 20.11 | 20.11 Mbytes
Step Temp Press TotEng PotEng Enthalpy 
   76000    1555.2536    967.11524   -76053.864    -80004.35   -75908.955 
   76495    1524.2344   -1282.9105   -76310.025   -80181.719   -76501.889 
Loop time of 87.6338 on 1 procs for 495 steps with 19652 atoms

Performance: 0.488 ns/day, 49.177 hours/ns, 5.649 timesteps/s
100.0% CPU use with 1 MPI tasks x no OpenMP threads

MPI task timing breakdown:
Section |  min time  |  avg time  |  max time  |%varavg| %total
---------------------------------------------------------------
Pair    | 47.671     | 47.671     | 47.671     |   0.0 | 54.40
Neigh   | 38.706     | 38.706     | 38.706     |   0.0 | 44.17
Comm    | 0.48626    | 0.48626    | 0.48626    |   0.0 |  0.55
Output  | 0.0001421  | 0.0001421  | 0.0001421  |   0.0 |  0.00
Modify  | 0.59318    | 0.59318    | 0.59318    |   0.0 |  0.68
Other   |            | 0.178      |            |       |  0.20

Nlocal:    19652 ave 19652 max 19652 min
Histogram: 1 0 0 0 0 0 0 0 0 0
Nghost:    20985 ave 20985 max 20985 min
Histogram: 1 0 0 0 0 0 0 0 0 0
Neighs:    2.05826e+06 ave 2.05826e+06 max 2.05826e+06 min
Histogram: 1 0 0 0 0 0 0 0 0 0

Total # of neighbors = 2058257
Ave neighs/atom = 104.735
Neighbor list builds = 495
Dangerous builds not checked
Setting up Verlet run ...
  Unit style    : metal
  Current step  : 76495
  Time step     : 0.001
Per MPI rank memory allocation (min/avg/max) = 20.11 | 20.11 | 20.11 Mbytes
Step Temp Press TotEng PotEng Enthalpy 
   76495    1524.2344   -1282.9105   -76310.025   -80181.719   -76501.889 
   78000    1503.6971   -3565.6333    -76390.65   -80210.178   -76924.293 
Loop time of 308.81 on 1 procs for 1505 steps with 19652 atoms

Performance: 0.421 ns/day, 56.997 hours/ns, 4.874 timesteps/s
99.5% CPU use with 1 MPI tasks x no OpenMP threads

MPI task timing breakdown:
Section |  min time  |  avg time  |  max time  |%varavg| %total
---------------------------------------------------------------
Pair    | 169.33     | 169.33     | 169.33     |   0.0 | 54.83
Neigh   | 135.03     | 135.03     | 135.03     |   0.0 | 43.73
Comm    | 1.7107     | 1.7107     | 1.7107     |   0.0 |  0.55
Output  | 0.061036   | 0.061036   | 0.061036   |   0.0 |  0.02
Modify  | 2.0776     | 2.0776     | 2.0776     |   0.0 |  0.67
Other   |            | 0.5944     |            |       |  0.19

Nlocal:    19652 ave 19652 max 19652 min
Histogram: 1 0 0 0 0 0 0 0 0 0
Nghost:    20992 ave 20992 max 20992 min
Histogram: 1 0 0 0 0 0 0 0 0 0
Neighs:    2.05702e+06 ave 2.05702e+06 max 2.05702e+06 min
Histogram: 1 0 0 0 0 0 0 0 0 0

Total # of neighbors = 2057016
Ave neighs/atom = 104.672
Neighbor list builds = 1505
Dangerous builds not checked
Setting up Verlet run ...
  Unit style    : metal
  Current step  : 78000
  Time step     : 0.001
Per MPI rank memory allocation (min/avg/max) = 20.11 | 20.11 | 20.11 Mbytes
Step Temp Press TotEng PotEng Enthalpy 
   78000    1503.6971   -3565.6333    -76390.65   -80210.178   -76924.293 
   78495    1454.0904     746.5666   -76629.635   -80323.157   -76518.442 
Loop time of 100.029 on 1 procs for 495 steps with 19652 atoms

Performance: 0.428 ns/day, 56.133 hours/ns, 4.949 timesteps/s
100.0% CPU use with 1 MPI tasks x no OpenMP threads

MPI task timing breakdown:
Section |  min time  |  avg time  |  max time  |%varavg| %total
---------------------------------------------------------------
Pair    | 54.929     | 54.929     | 54.929     |   0.0 | 54.91
Neigh   | 43.682     | 43.682     | 43.682     |   0.0 | 43.67
Comm    | 0.55328    | 0.55328    | 0.55328    |   0.0 |  0.55
Output  | 0.00016713 | 0.00016713 | 0.00016713 |   0.0 |  0.00
Modify  | 0.67426    | 0.67426    | 0.67426    |   0.0 |  0.67
Other   |            | 0.1909     |            |       |  0.19

Nlocal:    19652 ave 19652 max 19652 min
Histogram: 1 0 0 0 0 0 0 0 0 0
Nghost:    20959 ave 20959 max 20959 min
Histogram: 1 0 0 0 0 0 0 0 0 0
Neighs:    2.06756e+06 ave 2.06756e+06 max 2.06756e+06 min
Histogram: 1 0 0 0 0 0 0 0 0 0

Total # of neighbors = 2067557
Ave neighs/atom = 105.208
Neighbor list builds = 495
Dangerous builds not checked
Setting up Verlet run ...
  Unit style    : metal
  Current step  : 78495
  Time step     : 0.001
Per MPI rank memory allocation (min/avg/max) = 20.11 | 20.11 | 20.11 Mbytes
Step Temp Press TotEng PotEng Enthalpy 
   78495    1454.0904     746.5666   -76629.635   -80323.157   -76518.442 
   80000    1443.0044   -277.37196     -76775.4   -80440.762   -76816.651 
Loop time of 298.227 on 1 procs for 1505 steps with 19652 atoms

Performance: 0.436 ns/day, 55.044 hours/ns, 5.046 timesteps/s
99.4% CPU use with 1 MPI tasks x no OpenMP threads

MPI task timing breakdown:
Section |  min time  |  avg time  |  max time  |%varavg| %total
---------------------------------------------------------------
Pair    | 163.31     | 163.31     | 163.31     |   0.0 | 54.76
Neigh   | 130.62     | 130.62     | 130.62     |   0.0 | 43.80
Comm    | 1.6586     | 1.6586     | 1.6586     |   0.0 |  0.56
Output  | 0.068628   | 0.068628   | 0.068628   |   0.0 |  0.02
Modify  | 1.9929     | 1.9929     | 1.9929     |   0.0 |  0.67
Other   |            | 0.5798     |            |       |  0.19

Nlocal:    19652 ave 19652 max 19652 min
Histogram: 1 0 0 0 0 0 0 0 0 0
Nghost:    21039 ave 21039 max 21039 min
Histogram: 1 0 0 0 0 0 0 0 0 0
Neighs:    2.07061e+06 ave 2.07061e+06 max 2.07061e+06 min
Histogram: 1 0 0 0 0 0 0 0 0 0

Total # of neighbors = 2070607
Ave neighs/atom = 105.364
Neighbor list builds = 1505
Dangerous builds not checked
Setting up Verlet run ...
  Unit style    : metal
  Current step  : 80000
  Time step     : 0.001
Per MPI rank memory allocation (min/avg/max) = 20.11 | 20.11 | 20.11 Mbytes
Step Temp Press TotEng PotEng Enthalpy 
   80000    1443.0044   -277.37196     -76775.4   -80440.762   -76816.651 
   80495    1412.6009   -1204.0646    -76993.11   -80581.245   -77171.842 
Loop time of 92.628 on 1 procs for 495 steps with 19652 atoms

Performance: 0.462 ns/day, 51.980 hours/ns, 5.344 timesteps/s
99.9% CPU use with 1 MPI tasks x no OpenMP threads

MPI task timing breakdown:
Section |  min time  |  avg time  |  max time  |%varavg| %total
---------------------------------------------------------------
Pair    | 50.683     | 50.683     | 50.683     |   0.0 | 54.72
Neigh   | 40.624     | 40.624     | 40.624     |   0.0 | 43.86
Comm    | 0.50807    | 0.50807    | 0.50807    |   0.0 |  0.55
Output  | 0.00015998 | 0.00015998 | 0.00015998 |   0.0 |  0.00
Modify  | 0.62536    | 0.62536    | 0.62536    |   0.0 |  0.68
Other   |            | 0.1871     |            |       |  0.20

Nlocal:    19652 ave 19652 max 19652 min
Histogram: 1 0 0 0 0 0 0 0 0 0
Nghost:    21006 ave 21006 max 21006 min
Histogram: 1 0 0 0 0 0 0 0 0 0
Neighs:    2.0744e+06 ave 2.0744e+06 max 2.0744e+06 min
Histogram: 1 0 0 0 0 0 0 0 0 0

Total # of neighbors = 2074400
Ave neighs/atom = 105.557
Neighbor list builds = 495
Dangerous builds not checked
Setting up Verlet run ...
  Unit style    : metal
  Current step  : 80495
  Time step     : 0.001
Per MPI rank memory allocation (min/avg/max) = 20.11 | 20.11 | 20.11 Mbytes
Step Temp Press TotEng PotEng Enthalpy 
   80495    1412.6009   -1204.0646    -76993.11   -80581.245   -77171.842 
   82000    1394.9195   -2148.9957   -77141.252   -80684.474   -77459.859 
Loop time of 310.608 on 1 procs for 1505 steps with 19652 atoms

Performance: 0.419 ns/day, 57.329 hours/ns, 4.845 timesteps/s
99.5% CPU use with 1 MPI tasks x no OpenMP threads

MPI task timing breakdown:
Section |  min time  |  avg time  |  max time  |%varavg| %total
---------------------------------------------------------------
Pair    | 171.15     | 171.15     | 171.15     |   0.0 | 55.10
Neigh   | 134.94     | 134.94     | 134.94     |   0.0 | 43.45
Comm    | 1.7193     | 1.7193     | 1.7193     |   0.0 |  0.55
Output  | 0.088273   | 0.088273   | 0.088273   |   0.0 |  0.03
Modify  | 2.0989     | 2.0989     | 2.0989     |   0.0 |  0.68
Other   |            | 0.609      |            |       |  0.20

Nlocal:    19652 ave 19652 max 19652 min
Histogram: 1 0 0 0 0 0 0 0 0 0
Nghost:    20945 ave 20945 max 20945 min
Histogram: 1 0 0 0 0 0 0 0 0 0
Neighs:    2.07666e+06 ave 2.07666e+06 max 2.07666e+06 min
Histogram: 1 0 0 0 0 0 0 0 0 0

Total # of neighbors = 2076663
Ave neighs/atom = 105.672
Neighbor list builds = 1505
Dangerous builds not checked
Setting up Verlet run ...
  Unit style    : metal
  Current step  : 82000
  Time step     : 0.001
Per MPI rank memory allocation (min/avg/max) = 20.11 | 20.11 | 20.11 Mbytes
Step Temp Press TotEng PotEng Enthalpy 
   82000    1394.9195   -2148.9957   -77141.252   -80684.474   -77459.859 
   82495    1373.2825    1086.1582   -77355.052   -80843.314   -77194.762 
Loop time of 117.859 on 1 procs for 495 steps with 19652 atoms

Performance: 0.363 ns/day, 66.138 hours/ns, 4.200 timesteps/s
95.4% CPU use with 1 MPI tasks x no OpenMP threads

MPI task timing breakdown:
Section |  min time  |  avg time  |  max time  |%varavg| %total
---------------------------------------------------------------
Pair    | 64.918     | 64.918     | 64.918     |   0.0 | 55.08
Neigh   | 51.246     | 51.246     | 51.246     |   0.0 | 43.48
Comm    | 0.64848    | 0.64848    | 0.64848    |   0.0 |  0.55
Output  | 0.00015306 | 0.00015306 | 0.00015306 |   0.0 |  0.00
Modify  | 0.80983    | 0.80983    | 0.80983    |   0.0 |  0.69
Other   |            | 0.2357     |            |       |  0.20

Nlocal:    19652 ave 19652 max 19652 min
Histogram: 1 0 0 0 0 0 0 0 0 0
Nghost:    20976 ave 20976 max 20976 min
Histogram: 1 0 0 0 0 0 0 0 0 0
Neighs:    2.08716e+06 ave 2.08716e+06 max 2.08716e+06 min
Histogram: 1 0 0 0 0 0 0 0 0 0

Total # of neighbors = 2087158
Ave neighs/atom = 106.206
Neighbor list builds = 495
Dangerous builds not checked
Setting up Verlet run ...
  Unit style    : metal
  Current step  : 82495
  Time step     : 0.001
Per MPI rank memory allocation (min/avg/max) = 20.11 | 20.11 | 20.11 Mbytes
Step Temp Press TotEng PotEng Enthalpy 
   82495    1373.2825    1086.1582   -77355.052   -80843.314   -77194.762 
   84000    1352.2499   -467.54768   -77477.524   -80912.362   -77546.497 
Loop time of 339.236 on 1 procs for 1505 steps with 19652 atoms

Performance: 0.383 ns/day, 62.613 hours/ns, 4.436 timesteps/s
96.4% CPU use with 1 MPI tasks x no OpenMP threads

MPI task timing breakdown:
Section |  min time  |  avg time  |  max time  |%varavg| %total
---------------------------------------------------------------
Pair    | 184.34     | 184.34     | 184.34     |   0.0 | 54.34
Neigh   | 144.65     | 144.65     | 144.65     |   0.0 | 42.64
Comm    | 1.8014     | 1.8014     | 1.8014     |   0.0 |  0.53
Output  | 5.549      | 5.549      | 5.549      |   0.0 |  1.64
Modify  | 2.2538     | 2.2538     | 2.2538     |   0.0 |  0.66
Other   |            | 0.6452     |            |       |  0.19

Nlocal:    19652 ave 19652 max 19652 min
Histogram: 1 0 0 0 0 0 0 0 0 0
Nghost:    21052 ave 21052 max 21052 min
Histogram: 1 0 0 0 0 0 0 0 0 0
Neighs:    2.0879e+06 ave 2.0879e+06 max 2.0879e+06 min
Histogram: 1 0 0 0 0 0 0 0 0 0

Total # of neighbors = 2087896
Ave neighs/atom = 106.243
Neighbor list builds = 1505
Dangerous builds not checked
Setting up Verlet run ...
  Unit style    : metal
  Current step  : 84000
  Time step     : 0.001
Per MPI rank memory allocation (min/avg/max) = 20.11 | 20.11 | 20.11 Mbytes
Step Temp Press TotEng PotEng Enthalpy 
   84000    1352.2499   -467.54768   -77477.524   -80912.362   -77546.497 
   84495    1305.1089    213.15651   -77665.031   -80980.126   -77633.652 
Loop time of 123.488 on 1 procs for 495 steps with 19652 atoms

Performance: 0.346 ns/day, 69.297 hours/ns, 4.008 timesteps/s
89.9% CPU use with 1 MPI tasks x no OpenMP threads

MPI task timing breakdown:
Section |  min time  |  avg time  |  max time  |%varavg| %total
---------------------------------------------------------------
Pair    | 68.219     | 68.219     | 68.219     |   0.0 | 55.24
Neigh   | 53.536     | 53.536     | 53.536     |   0.0 | 43.35
Comm    | 0.65167    | 0.65167    | 0.65167    |   0.0 |  0.53
Output  | 0.00014901 | 0.00014901 | 0.00014901 |   0.0 |  0.00
Modify  | 0.83463    | 0.83463    | 0.83463    |   0.0 |  0.68
Other   |            | 0.247      |            |       |  0.20

Nlocal:    19652 ave 19652 max 19652 min
Histogram: 1 0 0 0 0 0 0 0 0 0
Nghost:    21046 ave 21046 max 21046 min
Histogram: 1 0 0 0 0 0 0 0 0 0
Neighs:    2.09276e+06 ave 2.09276e+06 max 2.09276e+06 min
Histogram: 1 0 0 0 0 0 0 0 0 0

Total # of neighbors = 2092755
Ave neighs/atom = 106.491
Neighbor list builds = 495
Dangerous builds not checked
Setting up Verlet run ...
  Unit style    : metal
  Current step  : 84495
  Time step     : 0.001
Per MPI rank memory allocation (min/avg/max) = 20.11 | 20.11 | 20.11 Mbytes
Step Temp Press TotEng PotEng Enthalpy 
   84495    1305.1089    213.15651   -77665.031   -80980.126   -77633.652 
   86000    1294.7284     184.7354   -77794.539   -81083.268    -77767.39 
Loop time of 347.616 on 1 procs for 1505 steps with 19652 atoms

Performance: 0.374 ns/day, 64.159 hours/ns, 4.329 timesteps/s
95.3% CPU use with 1 MPI tasks x no OpenMP threads

MPI task timing breakdown:
Section |  min time  |  avg time  |  max time  |%varavg| %total
---------------------------------------------------------------
Pair    | 192.46     | 192.46     | 192.46     |   0.0 | 55.36
Neigh   | 150.09     | 150.09     | 150.09     |   0.0 | 43.18
Comm    | 1.8776     | 1.8776     | 1.8776     |   0.0 |  0.54
Output  | 0.10923    | 0.10923    | 0.10923    |   0.0 |  0.03
Modify  | 2.402      | 2.402      | 2.402      |   0.0 |  0.69
Other   |            | 0.6831     |            |       |  0.20

Nlocal:    19652 ave 19652 max 19652 min
Histogram: 1 0 0 0 0 0 0 0 0 0
Nghost:    21126 ave 21126 max 21126 min
Histogram: 1 0 0 0 0 0 0 0 0 0
Neighs:    2.09569e+06 ave 2.09569e+06 max 2.09569e+06 min
Histogram: 1 0 0 0 0 0 0 0 0 0

Total # of neighbors = 2095688
Ave neighs/atom = 106.64
Neighbor list builds = 1505
Dangerous builds not checked
Setting up Verlet run ...
  Unit style    : metal
  Current step  : 86000
  Time step     : 0.001
Per MPI rank memory allocation (min/avg/max) = 20.11 | 20.11 | 20.11 Mbytes
Step Temp Press TotEng PotEng Enthalpy 
   86000    1294.7284     184.7354   -77794.539   -81083.268    -77767.39 
   86495    1262.5031    78.722493   -78023.125   -81229.998   -78011.582 
Loop time of 109.35 on 1 procs for 495 steps with 19652 atoms

Performance: 0.391 ns/day, 61.364 hours/ns, 4.527 timesteps/s
98.9% CPU use with 1 MPI tasks x no OpenMP threads

MPI task timing breakdown:
Section |  min time  |  avg time  |  max time  |%varavg| %total
---------------------------------------------------------------
Pair    | 60.773     | 60.773     | 60.773     |   0.0 | 55.58
Neigh   | 47.012     | 47.012     | 47.012     |   0.0 | 42.99
Comm    | 0.61229    | 0.61229    | 0.61229    |   0.0 |  0.56
Output  | 0.00013709 | 0.00013709 | 0.00013709 |   0.0 |  0.00
Modify  | 0.74102    | 0.74102    | 0.74102    |   0.0 |  0.68
Other   |            | 0.2122     |            |       |  0.19

Nlocal:    19652 ave 19652 max 19652 min
Histogram: 1 0 0 0 0 0 0 0 0 0
Nghost:    21106 ave 21106 max 21106 min
Histogram: 1 0 0 0 0 0 0 0 0 0
Neighs:    2.10133e+06 ave 2.10133e+06 max 2.10133e+06 min
Histogram: 1 0 0 0 0 0 0 0 0 0

Total # of neighbors = 2101326
Ave neighs/atom = 106.927
Neighbor list builds = 495
Dangerous builds not checked
Setting up Verlet run ...
  Unit style    : metal
  Current step  : 86495
  Time step     : 0.001
Per MPI rank memory allocation (min/avg/max) = 20.11 | 20.11 | 20.11 Mbytes
Step Temp Press TotEng PotEng Enthalpy 
   86495    1262.5031    78.722493   -78023.125   -81229.998   -78011.582 
   88000    1259.5029   -286.84714    -78144.59   -81343.842    -78186.56 
Loop time of 337.712 on 1 procs for 1505 steps with 19652 atoms

Performance: 0.385 ns/day, 62.332 hours/ns, 4.456 timesteps/s
95.5% CPU use with 1 MPI tasks x no OpenMP threads

MPI task timing breakdown:
Section |  min time  |  avg time  |  max time  |%varavg| %total
---------------------------------------------------------------
Pair    | 185.52     | 185.52     | 185.52     |   0.0 | 54.93
Neigh   | 145.55     | 145.55     | 145.55     |   0.0 | 43.10
Comm    | 1.7728     | 1.7728     | 1.7728     |   0.0 |  0.52
Output  | 1.943      | 1.943      | 1.943      |   0.0 |  0.58
Modify  | 2.2523     | 2.2523     | 2.2523     |   0.0 |  0.67
Other   |            | 0.6771     |            |       |  0.20

Nlocal:    19652 ave 19652 max 19652 min
Histogram: 1 0 0 0 0 0 0 0 0 0
Nghost:    21110 ave 21110 max 21110 min
Histogram: 1 0 0 0 0 0 0 0 0 0
Neighs:    2.10632e+06 ave 2.10632e+06 max 2.10632e+06 min
Histogram: 1 0 0 0 0 0 0 0 0 0

Total # of neighbors = 2106315
Ave neighs/atom = 107.181
Neighbor list builds = 1505
Dangerous builds not checked
Setting up Verlet run ...
  Unit style    : metal
  Current step  : 88000
  Time step     : 0.001
Per MPI rank memory allocation (min/avg/max) = 20.11 | 20.11 | 20.11 Mbytes
Step Temp Press TotEng PotEng Enthalpy 
   88000    1259.5029   -286.84714    -78144.59   -81343.842    -78186.56 
   88495    1228.7345   -1761.0402    -78378.78   -81499.877   -78635.993 
Loop time of 102.114 on 1 procs for 495 steps with 19652 atoms

Performance: 0.419 ns/day, 57.303 hours/ns, 4.848 timesteps/s
99.1% CPU use with 1 MPI tasks x no OpenMP threads

MPI task timing breakdown:
Section |  min time  |  avg time  |  max time  |%varavg| %total
---------------------------------------------------------------
Pair    | 56.291     | 56.291     | 56.291     |   0.0 | 55.13
Neigh   | 44.353     | 44.353     | 44.353     |   0.0 | 43.44
Comm    | 0.54744    | 0.54744    | 0.54744    |   0.0 |  0.54
Output  | 0.00015903 | 0.00015903 | 0.00015903 |   0.0 |  0.00
Modify  | 0.7007     | 0.7007     | 0.7007     |   0.0 |  0.69
Other   |            | 0.2214     |            |       |  0.22

Nlocal:    19652 ave 19652 max 19652 min
Histogram: 1 0 0 0 0 0 0 0 0 0
Nghost:    21191 ave 21191 max 21191 min
Histogram: 1 0 0 0 0 0 0 0 0 0
Neighs:    2.11018e+06 ave 2.11018e+06 max 2.11018e+06 min
Histogram: 1 0 0 0 0 0 0 0 0 0

Total # of neighbors = 2110175
Ave neighs/atom = 107.377
Neighbor list builds = 495
Dangerous builds not checked
Setting up Verlet run ...
  Unit style    : metal
  Current step  : 88495
  Time step     : 0.001
Per MPI rank memory allocation (min/avg/max) = 20.11 | 20.11 | 20.11 Mbytes
Step Temp Press TotEng PotEng Enthalpy 
   88495    1228.7345   -1761.0402    -78378.78   -81499.877   -78635.993 
   90000    1203.7129   -726.14486   -78496.502   -81554.043   -78602.407 
Loop time of 314.462 on 1 procs for 1505 steps with 19652 atoms

Performance: 0.414 ns/day, 58.040 hours/ns, 4.786 timesteps/s
96.9% CPU use with 1 MPI tasks x no OpenMP threads

MPI task timing breakdown:
Section |  min time  |  avg time  |  max time  |%varavg| %total
---------------------------------------------------------------
Pair    | 173.29     | 173.29     | 173.29     |   0.0 | 55.11
Neigh   | 136.53     | 136.53     | 136.53     |   0.0 | 43.42
Comm    | 1.6811     | 1.6811     | 1.6811     |   0.0 |  0.53
Output  | 0.22035    | 0.22035    | 0.22035    |   0.0 |  0.07
Modify  | 2.1315     | 2.1315     | 2.1315     |   0.0 |  0.68
Other   |            | 0.6032     |            |       |  0.19

Nlocal:    19652 ave 19652 max 19652 min
Histogram: 1 0 0 0 0 0 0 0 0 0
Nghost:    21208 ave 21208 max 21208 min
Histogram: 1 0 0 0 0 0 0 0 0 0
Neighs:    2.11313e+06 ave 2.11313e+06 max 2.11313e+06 min
Histogram: 1 0 0 0 0 0 0 0 0 0

Total # of neighbors = 2113129
Ave neighs/atom = 107.527
Neighbor list builds = 1505
Dangerous builds not checked
Setting up Verlet run ...
  Unit style    : metal
  Current step  : 90000
  Time step     : 0.001
Per MPI rank memory allocation (min/avg/max) = 20.11 | 20.11 | 20.11 Mbytes
Step Temp Press TotEng PotEng Enthalpy 
   90000    1203.7129   -726.14486   -78496.502   -81554.043   -78602.407 
   90495    1159.6953    1695.2558   -78747.218    -81692.95   -78500.952 
Loop time of 107.788 on 1 procs for 495 steps with 19652 atoms

Performance: 0.397 ns/day, 60.487 hours/ns, 4.592 timesteps/s
99.1% CPU use with 1 MPI tasks x no OpenMP threads

MPI task timing breakdown:
Section |  min time  |  avg time  |  max time  |%varavg| %total
---------------------------------------------------------------
Pair    | 59.49      | 59.49      | 59.49      |   0.0 | 55.19
Neigh   | 46.751     | 46.751     | 46.751     |   0.0 | 43.37
Comm    | 0.5858     | 0.5858     | 0.5858     |   0.0 |  0.54
Output  | 0.00015211 | 0.00015211 | 0.00015211 |   0.0 |  0.00
Modify  | 0.74366    | 0.74366    | 0.74366    |   0.0 |  0.69
Other   |            | 0.218      |            |       |  0.20

Nlocal:    19652 ave 19652 max 19652 min
Histogram: 1 0 0 0 0 0 0 0 0 0
[...]
Dangerous builds not checked
Setting up Verlet run ...
  Unit style    : metal
  Current step  : 120000
  Time step     : 0.001
Per MPI rank memory allocation (min/avg/max) = 20.11 | 20.11 | 20.11 Mbytes
Step Temp Press TotEng PotEng Enthalpy 
  120000    451.77135    1602.4688   -83303.377   -84450.918   -83081.327 
  120495    421.20214   -1996.3967   -83472.646   -84542.538   -83749.354 
Loop time of 115.155 on 1 procs for 495 steps with 19652 atoms

Performance: 0.371 ns/day, 64.621 hours/ns, 4.299 timesteps/s
97.8% CPU use with 1 MPI tasks x no OpenMP threads

MPI task timing breakdown:
Section |  min time  |  avg time  |  max time  |%varavg| %total
---------------------------------------------------------------
Pair    | 65.694     | 65.694     | 65.694     |   0.0 | 57.05
Neigh   | 47.826     | 47.826     | 47.826     |   0.0 | 41.53
Comm    | 0.64927    | 0.64927    | 0.64927    |   0.0 |  0.56
Output  | 0.00016785 | 0.00016785 | 0.00016785 |   0.0 |  0.00
Modify  | 0.76089    | 0.76089    | 0.76089    |   0.0 |  0.66
Other   |            | 0.2249     |            |       |  0.20

Nlocal:    19652 ave 19652 max 19652 min
Histogram: 1 0 0 0 0 0 0 0 0 0
Nghost:    21630 ave 21630 max 21630 min
Histogram: 1 0 0 0 0 0 0 0 0 0
Neighs:    2.23849e+06 ave 2.23849e+06 max 2.23849e+06 min
Histogram: 1 0 0 0 0 0 0 0 0 0

Total # of neighbors = 2238489
Ave neighs/atom = 113.906
Neighbor list builds = 495
Dangerous builds not checked
Setting up Verlet run ...
  Unit style    : metal
  Current step  : 120495
  Time step     : 0.001
Per MPI rank memory allocation (min/avg/max) = 20.11 | 20.11 | 20.11 Mbytes
Step Temp Press TotEng PotEng Enthalpy 
  120495    421.20214   -1996.3967   -83472.646   -84542.538   -83749.354 
  122000    399.18318   -899.53021   -83586.106   -84600.068   -83710.619 
Loop time of 320.635 on 1 procs for 1505 steps with 19652 atoms

Performance: 0.406 ns/day, 59.180 hours/ns, 4.694 timesteps/s
91.9% CPU use with 1 MPI tasks x no OpenMP threads

MPI task timing breakdown:
Section |  min time  |  avg time  |  max time  |%varavg| %total
---------------------------------------------------------------
Pair    | 182.69     | 182.69     | 182.69     |   0.0 | 56.98
Neigh   | 133.42     | 133.42     | 133.42     |   0.0 | 41.61
Comm    | 1.7054     | 1.7054     | 1.7054     |   0.0 |  0.53
Output  | 0.10883    | 0.10883    | 0.10883    |   0.0 |  0.03
Modify  | 2.0979     | 2.0979     | 2.0979     |   0.0 |  0.65
Other   |            | 0.6157     |            |       |  0.19

Nlocal:    19652 ave 19652 max 19652 min
Histogram: 1 0 0 0 0 0 0 0 0 0
Nghost:    21688 ave 21688 max 21688 min
Histogram: 1 0 0 0 0 0 0 0 0 0
Neighs:    2.24191e+06 ave 2.24191e+06 max 2.24191e+06 min
Histogram: 1 0 0 0 0 0 0 0 0 0

Total # of neighbors = 2241906
Ave neighs/atom = 114.08
Neighbor list builds = 1505
Dangerous builds not checked
Setting up Verlet run ...
  Unit style    : metal
  Current step  : 122000
  Time step     : 0.001
Per MPI rank memory allocation (min/avg/max) = 20.11 | 20.11 | 20.11 Mbytes
Step Temp Press TotEng PotEng Enthalpy 
  122000    399.18318   -899.53021   -83586.106   -84600.068   -83710.619 
  122495     370.5665    851.12822   -83743.849   -84685.122   -83626.323 
Loop time of 93.0105 on 1 procs for 495 steps with 19652 atoms

Performance: 0.460 ns/day, 52.194 hours/ns, 5.322 timesteps/s
99.4% CPU use with 1 MPI tasks x no OpenMP threads

MPI task timing breakdown:
Section |  min time  |  avg time  |  max time  |%varavg| %total
---------------------------------------------------------------
Pair    | 52.761     | 52.761     | 52.761     |   0.0 | 56.73
Neigh   | 38.988     | 38.988     | 38.988     |   0.0 | 41.92
Comm    | 0.47813    | 0.47813    | 0.47813    |   0.0 |  0.51
Output  | 0.00014687 | 0.00014687 | 0.00014687 |   0.0 |  0.00
Modify  | 0.61575    | 0.61575    | 0.61575    |   0.0 |  0.66
Other   |            | 0.1676     |            |       |  0.18

Nlocal:    19652 ave 19652 max 19652 min
Histogram: 1 0 0 0 0 0 0 0 0 0
Nghost:    21690 ave 21690 max 21690 min
Histogram: 1 0 0 0 0 0 0 0 0 0
Neighs:    2.24806e+06 ave 2.24806e+06 max 2.24806e+06 min
Histogram: 1 0 0 0 0 0 0 0 0 0

Total # of neighbors = 2248065
Ave neighs/atom = 114.394
Neighbor list builds = 495
Dangerous builds not checked
Setting up Verlet run ...
  Unit style    : metal
  Current step  : 122495
  Time step     : 0.001
Per MPI rank memory allocation (min/avg/max) = 20.11 | 20.11 | 20.11 Mbytes
Step Temp Press TotEng PotEng Enthalpy 
  122495     370.5665    851.12822   -83743.849   -84685.122   -83626.323 
  124000    351.59195   -1093.7168   -83855.305   -84748.381    -84006.33 
Loop time of 339.335 on 1 procs for 1505 steps with 19652 atoms

Performance: 0.383 ns/day, 62.631 hours/ns, 4.435 timesteps/s
96.1% CPU use with 1 MPI tasks x no OpenMP threads

MPI task timing breakdown:
Section |  min time  |  avg time  |  max time  |%varavg| %total
---------------------------------------------------------------
Pair    | 193.31     | 193.31     | 193.31     |   0.0 | 56.97
Neigh   | 141.16     | 141.16     | 141.16     |   0.0 | 41.60
Comm    | 1.817      | 1.817      | 1.817      |   0.0 |  0.54
Output  | 0.12398    | 0.12398    | 0.12398    |   0.0 |  0.04
Modify  | 2.266      | 2.266      | 2.266      |   0.0 |  0.67
Other   |            | 0.6599     |            |       |  0.19

Nlocal:    19652 ave 19652 max 19652 min
Histogram: 1 0 0 0 0 0 0 0 0 0
Nghost:    21648 ave 21648 max 21648 min
Histogram: 1 0 0 0 0 0 0 0 0 0
Neighs:    2.24901e+06 ave 2.24901e+06 max 2.24901e+06 min
Histogram: 1 0 0 0 0 0 0 0 0 0

Total # of neighbors = 2249013
Ave neighs/atom = 114.442
Neighbor list builds = 1505
Dangerous builds not checked
Setting up Verlet run ...
  Unit style    : metal
  Current step  : 124000
  Time step     : 0.001
Per MPI rank memory allocation (min/avg/max) = 20.11 | 20.11 | 20.11 Mbytes
Step Temp Press TotEng PotEng Enthalpy 
  124000    351.59195   -1093.7168   -83855.305   -84748.381    -84006.33 
  124495    324.85188   -839.58129   -84007.264   -84832.417    -84123.01 
Loop time of 104.607 on 1 procs for 495 steps with 19652 atoms

Performance: 0.409 ns/day, 58.702 hours/ns, 4.732 timesteps/s
99.3% CPU use with 1 MPI tasks x no OpenMP threads

MPI task timing breakdown:
Section |  min time  |  avg time  |  max time  |%varavg| %total
---------------------------------------------------------------
Pair    | 59.749     | 59.749     | 59.749     |   0.0 | 57.12
Neigh   | 43.413     | 43.413     | 43.413     |   0.0 | 41.50
Comm    | 0.56621    | 0.56621    | 0.56621    |   0.0 |  0.54
Output  | 0.00015903 | 0.00015903 | 0.00015903 |   0.0 |  0.00
Modify  | 0.67542    | 0.67542    | 0.67542    |   0.0 |  0.65
Other   |            | 0.202      |            |       |  0.19

Nlocal:    19652 ave 19652 max 19652 min
Histogram: 1 0 0 0 0 0 0 0 0 0
Nghost:    21689 ave 21689 max 21689 min
Histogram: 1 0 0 0 0 0 0 0 0 0
Neighs:    2.25256e+06 ave 2.25256e+06 max 2.25256e+06 min
Histogram: 1 0 0 0 0 0 0 0 0 0

Total # of neighbors = 2252557
Ave neighs/atom = 114.622
Neighbor list builds = 495
Dangerous builds not checked
Setting up Verlet run ...
  Unit style    : metal
  Current step  : 124495
  Time step     : 0.001
Per MPI rank memory allocation (min/avg/max) = 20.11 | 20.11 | 20.11 Mbytes
Step Temp Press TotEng PotEng Enthalpy 
  124495    324.85188   -839.58129   -84007.264   -84832.417    -84123.01 
  126000    300.59484    1097.6957   -84123.854   -84887.392   -83972.811 
Loop time of 331.642 on 1 procs for 1505 steps with 19652 atoms

Performance: 0.392 ns/day, 61.211 hours/ns, 4.538 timesteps/s
97.2% CPU use with 1 MPI tasks x no OpenMP threads

MPI task timing breakdown:
Section |  min time  |  avg time  |  max time  |%varavg| %total
---------------------------------------------------------------
Pair    | 188.33     | 188.33     | 188.33     |   0.0 | 56.79
Neigh   | 137.22     | 137.22     | 137.22     |   0.0 | 41.38
Comm    | 1.7858     | 1.7858     | 1.7858     |   0.0 |  0.54
Output  | 1.4502     | 1.4502     | 1.4502     |   0.0 |  0.44
Modify  | 2.1895     | 2.1895     | 2.1895     |   0.0 |  0.66
Other   |            | 0.6623     |            |       |  0.20

Nlocal:    19652 ave 19652 max 19652 min
Histogram: 1 0 0 0 0 0 0 0 0 0
Nghost:    21679 ave 21679 max 21679 min
Histogram: 1 0 0 0 0 0 0 0 0 0
Neighs:    2.25818e+06 ave 2.25818e+06 max 2.25818e+06 min
Histogram: 1 0 0 0 0 0 0 0 0 0

Total # of neighbors = 2258180
Ave neighs/atom = 114.908
Neighbor list builds = 1505
Dangerous builds not checked
Setting up Verlet run ...
  Unit style    : metal
  Current step  : 126000
  Time step     : 0.001
Per MPI rank memory allocation (min/avg/max) = 20.5 | 20.5 | 20.5 Mbytes
Step Temp Press TotEng PotEng Enthalpy 
  126000    300.59484    1097.6957   -84123.854   -84887.392   -83972.811 
  126495    274.12687    428.18962     -84268.4   -84964.707   -84209.535 
Loop time of 116.719 on 1 procs for 495 steps with 19652 atoms

Performance: 0.366 ns/day, 65.499 hours/ns, 4.241 timesteps/s
93.6% CPU use with 1 MPI tasks x no OpenMP threads

MPI task timing breakdown:
Section |  min time  |  avg time  |  max time  |%varavg| %total
---------------------------------------------------------------
Pair    | 67.111     | 67.111     | 67.111     |   0.0 | 57.50
Neigh   | 47.961     | 47.961     | 47.961     |   0.0 | 41.09
Comm    | 0.6279     | 0.6279     | 0.6279     |   0.0 |  0.54
Output  | 0.00012398 | 0.00012398 | 0.00012398 |   0.0 |  0.00
Modify  | 0.78925    | 0.78925    | 0.78925    |   0.0 |  0.68
Other   |            | 0.2295     |            |       |  0.20

Nlocal:    19652 ave 19652 max 19652 min
Histogram: 1 0 0 0 0 0 0 0 0 0
Nghost:    21688 ave 21688 max 21688 min
Histogram: 1 0 0 0 0 0 0 0 0 0
Neighs:    2.26041e+06 ave 2.26041e+06 max 2.26041e+06 min
Histogram: 1 0 0 0 0 0 0 0 0 0

Total # of neighbors = 2260414
Ave neighs/atom = 115.022
Neighbor list builds = 495
Dangerous builds not checked
Setting up Verlet run ...
  Unit style    : metal
  Current step  : 126495
  Time step     : 0.001
Per MPI rank memory allocation (min/avg/max) = 20.5 | 20.5 | 20.5 Mbytes
Step Temp Press TotEng PotEng Enthalpy 
  126495    274.12687    428.18962     -84268.4   -84964.707   -84209.535 
  128000    252.24742   -188.96958   -84385.229   -85025.961   -84411.191 
Loop time of 319.769 on 1 procs for 1505 steps with 19652 atoms

Performance: 0.407 ns/day, 59.020 hours/ns, 4.707 timesteps/s
98.6% CPU use with 1 MPI tasks x no OpenMP threads

MPI task timing breakdown:
Section |  min time  |  avg time  |  max time  |%varavg| %total
---------------------------------------------------------------
Pair    | 182.58     | 182.58     | 182.58     |   0.0 | 57.10
Neigh   | 132.51     | 132.51     | 132.51     |   0.0 | 41.44
Comm    | 1.7419     | 1.7419     | 1.7419     |   0.0 |  0.54
Output  | 0.14434    | 0.14434    | 0.14434    |   0.0 |  0.05
Modify  | 2.1583     | 2.1583     | 2.1583     |   0.0 |  0.67
Other   |            | 0.6377     |            |       |  0.20

Nlocal:    19652 ave 19652 max 19652 min
Histogram: 1 0 0 0 0 0 0 0 0 0
Nghost:    21723 ave 21723 max 21723 min
Histogram: 1 0 0 0 0 0 0 0 0 0
Neighs:    2.26258e+06 ave 2.26258e+06 max 2.26258e+06 min
Histogram: 1 0 0 0 0 0 0 0 0 0

Total # of neighbors = 2262585
Ave neighs/atom = 115.133
Neighbor list builds = 1505
Dangerous builds not checked
Setting up Verlet run ...
  Unit style    : metal
  Current step  : 128000
  Time step     : 0.001
Per MPI rank memory allocation (min/avg/max) = 20.5 | 20.5 | 20.5 Mbytes
Step Temp Press TotEng PotEng Enthalpy 
  128000    252.24742   -188.96958   -84385.229   -85025.961   -84411.191 
  128495    223.14529   -456.99809   -84523.364   -85090.173   -84586.083 
Loop time of 107.18 on 1 procs for 495 steps with 19652 atoms

Performance: 0.399 ns/day, 60.146 hours/ns, 4.618 timesteps/s
99.5% CPU use with 1 MPI tasks x no OpenMP threads

MPI task timing breakdown:
Section |  min time  |  avg time  |  max time  |%varavg| %total
---------------------------------------------------------------
Pair    | 61.216     | 61.216     | 61.216     |   0.0 | 57.12
Neigh   | 44.434     | 44.434     | 44.434     |   0.0 | 41.46
Comm    | 0.58487    | 0.58487    | 0.58487    |   0.0 |  0.55
Output  | 0.00013709 | 0.00013709 | 0.00013709 |   0.0 |  0.00
Modify  | 0.73049    | 0.73049    | 0.73049    |   0.0 |  0.68
Other   |            | 0.2147     |            |       |  0.20

Nlocal:    19652 ave 19652 max 19652 min
Histogram: 1 0 0 0 0 0 0 0 0 0
Nghost:    21732 ave 21732 max 21732 min
Histogram: 1 0 0 0 0 0 0 0 0 0
Neighs:    2.26508e+06 ave 2.26508e+06 max 2.26508e+06 min
Histogram: 1 0 0 0 0 0 0 0 0 0

Total # of neighbors = 2265076
Ave neighs/atom = 115.259
Neighbor list builds = 495
Dangerous builds not checked
Setting up Verlet run ...
  Unit style    : metal
  Current step  : 128495
  Time step     : 0.001
Per MPI rank memory allocation (min/avg/max) = 20.5 | 20.5 | 20.5 Mbytes
Step Temp Press TotEng PotEng Enthalpy 
  128495    223.14529   -456.99809   -84523.364   -85090.173   -84586.083 
  130000    200.41661    813.06685   -84650.714    -85159.79   -84539.325 
Loop time of 317.383 on 1 procs for 1505 steps with 19652 atoms

Performance: 0.410 ns/day, 58.579 hours/ns, 4.742 timesteps/s
95.1% CPU use with 1 MPI tasks x no OpenMP threads

MPI task timing breakdown:
Section |  min time  |  avg time  |  max time  |%varavg| %total
---------------------------------------------------------------
Pair    | 178.85     | 178.85     | 178.85     |   0.0 | 56.35
Neigh   | 130.07     | 130.07     | 130.07     |   0.0 | 40.98
Comm    | 1.6645     | 1.6645     | 1.6645     |   0.0 |  0.52
Output  | 4.1621     | 4.1621     | 4.1621     |   0.0 |  1.31
Modify  | 2.0431     | 2.0431     | 2.0431     |   0.0 |  0.64
Other   |            | 0.5943     |            |       |  0.19

Nlocal:    19652 ave 19652 max 19652 min
Histogram: 1 0 0 0 0 0 0 0 0 0
Nghost:    21739 ave 21739 max 21739 min
Histogram: 1 0 0 0 0 0 0 0 0 0
Neighs:    2.27022e+06 ave 2.27022e+06 max 2.27022e+06 min
Histogram: 1 0 0 0 0 0 0 0 0 0

Total # of neighbors = 2270223
Ave neighs/atom = 115.521
Neighbor list builds = 1505
Dangerous builds not checked
Setting up Verlet run ...
  Unit style    : metal
  Current step  : 130000
  Time step     : 0.001
Per MPI rank memory allocation (min/avg/max) = 20.5 | 20.5 | 20.5 Mbytes
Step Temp Press TotEng PotEng Enthalpy 
  130000    200.41661    813.06685   -84650.714    -85159.79   -84539.325 
  130495    174.51811   -277.16552   -84777.906   -85221.198   -84815.859 
Loop time of 98.74 on 1 procs for 495 steps with 19652 atoms

Performance: 0.433 ns/day, 55.410 hours/ns, 5.013 timesteps/s
98.3% CPU use with 1 MPI tasks x no OpenMP threads

MPI task timing breakdown:
Section |  min time  |  avg time  |  max time  |%varavg| %total
---------------------------------------------------------------
Pair    | 56.332     | 56.332     | 56.332     |   0.0 | 57.05
Neigh   | 41.06      | 41.06      | 41.06      |   0.0 | 41.58
Comm    | 0.5171     | 0.5171     | 0.5171     |   0.0 |  0.52
Output  | 0.00012398 | 0.00012398 | 0.00012398 |   0.0 |  0.00
Modify  | 0.64365    | 0.64365    | 0.64365    |   0.0 |  0.65
Other   |            | 0.1869     |            |       |  0.19

Nlocal:    19652 ave 19652 max 19652 min
Histogram: 1 0 0 0 0 0 0 0 0 0
Nghost:    21750 ave 21750 max 21750 min
Histogram: 1 0 0 0 0 0 0 0 0 0
Neighs:    2.27134e+06 ave 2.27134e+06 max 2.27134e+06 min
Histogram: 1 0 0 0 0 0 0 0 0 0

Total # of neighbors = 2271340
Ave neighs/atom = 115.578
Neighbor list builds = 495
Dangerous builds not checked
Setting up Verlet run ...
  Unit style    : metal
  Current step  : 130495
  Time step     : 0.001
Per MPI rank memory allocation (min/avg/max) = 20.5 | 20.5 | 20.5 Mbytes
Step Temp Press TotEng PotEng Enthalpy 
  130495    174.51811   -277.16552   -84777.906   -85221.198   -84815.859 
  132000      150.253   -519.57588   -84909.393    -85291.05   -84980.465 
Loop time of 280.478 on 1 procs for 1505 steps with 19652 atoms

Performance: 0.464 ns/day, 51.768 hours/ns, 5.366 timesteps/s
98.5% CPU use with 1 MPI tasks x no OpenMP threads

MPI task timing breakdown:
Section |  min time  |  avg time  |  max time  |%varavg| %total
---------------------------------------------------------------
Pair    | 159.7      | 159.7      | 159.7      |   0.0 | 56.94
Neigh   | 116.81     | 116.81     | 116.81     |   0.0 | 41.65
Comm    | 1.4567     | 1.4567     | 1.4567     |   0.0 |  0.52
Output  | 0.18004    | 0.18004    | 0.18004    |   0.0 |  0.06
Modify  | 1.8202     | 1.8202     | 1.8202     |   0.0 |  0.65
Other   |            | 0.5059     |            |       |  0.18

Nlocal:    19652 ave 19652 max 19652 min
Histogram: 1 0 0 0 0 0 0 0 0 0
Nghost:    21756 ave 21756 max 21756 min
Histogram: 1 0 0 0 0 0 0 0 0 0
Neighs:    2.27456e+06 ave 2.27456e+06 max 2.27456e+06 min
Histogram: 1 0 0 0 0 0 0 0 0 0

Total # of neighbors = 2274563
Ave neighs/atom = 115.742
Neighbor list builds = 1505
Dangerous builds not checked
Setting up Verlet run ...
  Unit style    : metal
  Current step  : 132000
  Time step     : 0.001
Per MPI rank memory allocation (min/avg/max) = 20.5 | 20.5 | 20.5 Mbytes
Step Temp Press TotEng PotEng Enthalpy 
  132000      150.253   -519.57588   -84909.393    -85291.05   -84980.465 
  132495    126.80264    236.23657   -85029.297   -85351.387   -84997.026 
Loop time of 99.6305 on 1 procs for 495 steps with 19652 atoms

Performance: 0.429 ns/day, 55.909 hours/ns, 4.968 timesteps/s
96.2% CPU use with 1 MPI tasks x no OpenMP threads

MPI task timing breakdown:
Section |  min time  |  avg time  |  max time  |%varavg| %total
---------------------------------------------------------------
Pair    | 56.618     | 56.618     | 56.618     |   0.0 | 56.83
Neigh   | 41.653     | 41.653     | 41.653     |   0.0 | 41.81
Comm    | 0.51355    | 0.51355    | 0.51355    |   0.0 |  0.52
Output  | 0.00014901 | 0.00014901 | 0.00014901 |   0.0 |  0.00
Modify  | 0.66269    | 0.66269    | 0.66269    |   0.0 |  0.67
Other   |            | 0.1827     |            |       |  0.18

Nlocal:    19652 ave 19652 max 19652 min
Histogram: 1 0 0 0 0 0 0 0 0 0
Nghost:    21783 ave 21783 max 21783 min
Histogram: 1 0 0 0 0 0 0 0 0 0
Neighs:    2.27823e+06 ave 2.27823e+06 max 2.27823e+06 min
Histogram: 1 0 0 0 0 0 0 0 0 0

Total # of neighbors = 2278229
Ave neighs/atom = 115.929
Neighbor list builds = 495
Dangerous builds not checked
Setting up Verlet run ...
  Unit style    : metal
  Current step  : 132495
  Time step     : 0.001
Per MPI rank memory allocation (min/avg/max) = 20.5 | 20.5 | 20.5 Mbytes
Step Temp Press TotEng PotEng Enthalpy 
  132495    126.80264    236.23657   -85029.297   -85351.387   -84997.026 
  134000    99.682426     521.9841   -85172.174   -85425.377   -85100.967 
Loop time of 324.664 on 1 procs for 1505 steps with 19652 atoms

Performance: 0.401 ns/day, 59.923 hours/ns, 4.636 timesteps/s
98.5% CPU use with 1 MPI tasks x no OpenMP threads

MPI task timing breakdown:
Section |  min time  |  avg time  |  max time  |%varavg| %total
---------------------------------------------------------------
Pair    | 186.04     | 186.04     | 186.04     |   0.0 | 57.30
Neigh   | 133.9      | 133.9      | 133.9      |   0.0 | 41.24
Comm    | 1.7898     | 1.7898     | 1.7898     |   0.0 |  0.55
Output  | 0.15773    | 0.15773    | 0.15773    |   0.0 |  0.05
Modify  | 2.1341     | 2.1341     | 2.1341     |   0.0 |  0.66
Other   |            | 0.6474     |            |       |  0.20

Nlocal:    19652 ave 19652 max 19652 min
Histogram: 1 0 0 0 0 0 0 0 0 0
Nghost:    21749 ave 21749 max 21749 min
Histogram: 1 0 0 0 0 0 0 0 0 0
Neighs:    2.2819e+06 ave 2.2819e+06 max 2.2819e+06 min
Histogram: 1 0 0 0 0 0 0 0 0 0

Total # of neighbors = 2281902
Ave neighs/atom = 116.116
Neighbor list builds = 1505
Dangerous builds not checked
Total wall time: 7:42:23
