LAMMPS (12 Dec 2018)
Lattice spacing in x,y,z = 4 4 4
Created orthogonal box = (0 0 0) to (68 68 68)
  1 by 1 by 1 MPI processor grid
Created 19652 atoms
  Time spent = 0.00514913 secs
Setting atom values ...
  19281 settings made for type/fraction
Neighbor list info ...
  update every 1 steps, delay 0 steps, check no
  max neighbors/atom: 2000, page size: 100000
  master list distance cutoff = 8.5
  ghost atom cutoff = 8.5
  binsize = 4.25, bins = 16 16 16
  1 neighbor lists, perpetual/occasional/extra = 1 0 0
  (1) pair eam/alloy, perpetual
      attributes: half, newton on
      pair build: half/bin/atomonly/newton
      stencil: half/bin/3d/newton
      bin: standard
Setting up Verlet run ...
  Unit style    : metal
  Current step  : 0
  Time step     : 0.001
Per MPI rank memory allocation (min/avg/max) = 18.19 | 18.19 | 18.19 Mbytes
Step Temp Press TotEng PotEng Enthalpy Volume 
       0          300    641874.75   -38489.165   -39251.192    87480.703       314432 
    1000    862.04901    631668.36   -38489.361   -40679.044    85477.472       314432 
Loop time of 173.404 on 1 procs for 1000 steps with 19652 atoms

Performance: 0.498 ns/day, 48.168 hours/ns, 5.767 timesteps/s
99.8% CPU use with 1 MPI tasks x no OpenMP threads

MPI task timing breakdown:
Section |  min time  |  avg time  |  max time  |%varavg| %total
---------------------------------------------------------------
Pair    | 103.39     | 103.39     | 103.39     |   0.0 | 59.62
Neigh   | 67.058     | 67.058     | 67.058     |   0.0 | 38.67
Comm    | 1.696      | 1.696      | 1.696      |   0.0 |  0.98
Output  | 0.051064   | 0.051064   | 0.051064   |   0.0 |  0.03
Modify  | 0.71897    | 0.71897    | 0.71897    |   0.0 |  0.41
Other   |            | 0.4933     |            |       |  0.28

Nlocal:    19652 ave 19652 max 19652 min
Histogram: 1 0 0 0 0 0 0 0 0 0
Nghost:    18845 ave 18845 max 18845 min
Histogram: 1 0 0 0 0 0 0 0 0 0
Neighs:    1.58307e+06 ave 1.58307e+06 max 1.58307e+06 min
Histogram: 1 0 0 0 0 0 0 0 0 0

Total # of neighbors = 1583070
Ave neighs/atom = 80.5552
Neighbor list builds = 1000
Dangerous builds not checked
Setting up Verlet run ...
  Unit style    : metal
  Current step  : 1000
  Time step     : 0.001
Per MPI rank memory allocation (min/avg/max) = 18.19 | 18.19 | 18.19 Mbytes
Step Temp Press TotEng PotEng Enthalpy Volume 
    1000    862.04901    631668.36   -38489.361   -40679.044    85477.472       314432 
    2000    346.73363   -188.49705   -80707.458   -81588.193   -80783.648    647594.59 
Loop time of 120.488 on 1 procs for 1000 steps with 19652 atoms

Performance: 0.717 ns/day, 33.469 hours/ns, 8.300 timesteps/s
99.9% CPU use with 1 MPI tasks x no OpenMP threads

MPI task timing breakdown:
Section |  min time  |  avg time  |  max time  |%varavg| %total
---------------------------------------------------------------
Pair    | 66.212     | 66.212     | 66.212     |   0.0 | 54.95
Neigh   | 50.459     | 50.459     | 50.459     |   0.0 | 41.88
Comm    | 1.421      | 1.421      | 1.421      |   0.0 |  1.18
Output  | 0.049115   | 0.049115   | 0.049115   |   0.0 |  0.04
Modify  | 1.8856     | 1.8856     | 1.8856     |   0.0 |  1.56
Other   |            | 0.461      |            |       |  0.38

Nlocal:    19652 ave 19652 max 19652 min
Histogram: 1 0 0 0 0 0 0 0 0 0
Nghost:    14026 ave 14026 max 14026 min
Histogram: 1 0 0 0 0 0 0 0 0 0
Neighs:    724415 ave 724415 max 724415 min
Histogram: 1 0 0 0 0 0 0 0 0 0

Total # of neighbors = 724415
Ave neighs/atom = 36.8622
Neighbor list builds = 1000
Dangerous builds not checked
Setting up Verlet run ...
  Unit style    : metal
  Current step  : 2000
  Time step     : 0.001
Per MPI rank memory allocation (min/avg/max) = 18.2 | 18.2 | 18.2 Mbytes
Step Temp Press TotEng PotEng Enthalpy Volume 
    2000    346.73363   -188.49705   -80707.458   -81588.193   -80783.648    647594.59 
    3000    512.42762   -451.54118    -80278.56   -81580.173    -80461.94    650677.67 
    4000    801.19514   -252.99459   -78842.553   -80877.661   -78946.144    656028.67 
    5000    1087.6204      364.272   -77276.498   -80039.153   -77126.135    661340.58 
    6000    1353.3075    777.27461   -75631.724   -79069.248   -75307.875    667541.34 
    7000    1625.0836    -530.9395   -73807.232   -77935.093   -74032.002    678270.17 
    8000    1900.3767    87.519464   -71988.541   -76815.671   -71951.061    686130.23 
    9000    2178.0764    280.83978   -70200.739   -75733.251   -70078.941     694851.1 
   10000    2437.6017   -70.790419   -68574.228   -74765.958   -68605.331    703958.13 
Loop time of 833.61 on 1 procs for 8000 steps with 19652 atoms

Performance: 0.829 ns/day, 28.945 hours/ns, 9.597 timesteps/s
99.8% CPU use with 1 MPI tasks x no OpenMP threads

MPI task timing breakdown:
Section |  min time  |  avg time  |  max time  |%varavg| %total
---------------------------------------------------------------
Pair    | 443.62     | 443.62     | 443.62     |   0.0 | 53.22
Neigh   | 357.23     | 357.23     | 357.23     |   0.0 | 42.85
Comm    | 11.679     | 11.679     | 11.679     |   0.0 |  1.40
Output  | 0.39655    | 0.39655    | 0.39655    |   0.0 |  0.05
Modify  | 16.56      | 16.56      | 16.56      |   0.0 |  1.99
Other   |            | 4.127      |            |       |  0.50

Nlocal:    19652 ave 19652 max 19652 min
Histogram: 1 0 0 0 0 0 0 0 0 0
Nghost:    13605 ave 13605 max 13605 min
Histogram: 1 0 0 0 0 0 0 0 0 0
Neighs:    685833 ave 685833 max 685833 min
Histogram: 1 0 0 0 0 0 0 0 0 0

Total # of neighbors = 685833
Ave neighs/atom = 34.8989
Neighbor list builds = 8000
Dangerous builds not checked
Setting up Verlet run ...
  Unit style    : metal
  Current step  : 10000
  Time step     : 0.001
Per MPI rank memory allocation (min/avg/max) = 18.2 | 18.2 | 18.2 Mbytes
Step Temp Press TotEng PotEng Enthalpy Volume 
   10000    2437.6017   -70.790419   -68574.228   -74765.958   -68605.331    703958.13 
   11000    2435.8713   -468.95663   -68425.289   -74612.624   -68631.904    705892.96 
   12000    2452.0245    875.16783   -68495.113   -74723.478   -68111.362    702535.54 
   13000    2461.4063   -853.20356   -68358.307   -74610.503    -68734.92     707216.7 
   14000    2450.3059    226.24848   -68420.397   -74644.397   -68320.979    704025.61 
   15000    2444.0988   -296.52793   -68470.695   -74678.929   -68601.181    705034.45 
   16000    2451.3384    -130.9814   -68406.423   -74633.046   -68464.064    705077.78 
   17000    2457.7485    729.57409   -68498.572   -74741.477    -68178.51    702870.72 
   18000    2472.3827   -645.33464   -68342.737   -74622.814   -68627.314    706522.23 
   19000     2443.645    -185.2465   -68474.802   -74681.883     -68556.3    704866.94 
   20000    2443.9021    192.92071   -68437.935   -74645.669   -68353.138    704225.82 
   21000    2450.8658   -34.482467   -68468.123   -74693.545    -68483.28    704278.46 
   22000    2429.5618   -477.90487   -68526.852    -74698.16   -68737.251    705362.27 
   23000    2452.3432    410.64679   -68452.464   -74681.639   -68272.086    703759.52 
   24000    2450.0006     189.4053   -68457.294   -74680.519   -68374.073    703969.12 
   25000    2463.6265    -541.7237   -68322.628   -74580.464    -68561.56    706655.49 
   26000    2441.0909    57.089991   -68380.532   -74581.126   -68355.418    704822.98 
   27000     2474.061    356.85904   -68411.981   -74696.321   -68255.186    703954.67 
   28000     2453.698   -258.02306   -68477.718   -74710.335   -68591.261     705040.7 
   29000    2452.0205    242.43918   -68428.409   -74656.764   -68321.935    703640.54 
   30000    2445.7887   -443.83986   -68391.407   -74603.933    -68587.07    706303.66 
   31000    2458.4462   -307.62899   -68379.361   -74624.039   -68514.825    705515.73 
   32000    2449.1266    210.10597   -68506.525    -74727.53    -68414.22     703879.8 
   33000    2455.2182    255.57107    -68446.38   -74682.858   -68334.071    704064.31 
   34000    2453.9716   -464.27775   -68442.735   -74676.046   -68647.284    705876.78 
   35000    2419.4223    220.04849   -68421.262   -74566.815   -68324.494    704566.95 
   36000    2435.7873   -487.49695   -68477.061   -74664.183    -68691.88    706009.94 
   37000     2441.253   -1.8005552   -68426.345    -74627.35   -68427.137    704513.13 
   38000    2447.8367   -195.75647   -68369.608   -74587.336   -68455.858    705912.68 
   39000    2458.8954    496.19966    -68392.87   -74638.689   -68175.104       703143 
   40000     2472.673   -629.64668   -68375.685     -74656.5    -68653.32    706460.21 
Loop time of 2969.31 on 1 procs for 30000 steps with 19652 atoms

Performance: 0.873 ns/day, 27.494 hours/ns, 10.103 timesteps/s
99.6% CPU use with 1 MPI tasks x no OpenMP threads

MPI task timing breakdown:
Section |  min time  |  avg time  |  max time  |%varavg| %total
---------------------------------------------------------------
Pair    | 1520.3     | 1520.3     | 1520.3     |   0.0 | 51.20
Neigh   | 1334.4     | 1334.4     | 1334.4     |   0.0 | 44.94
Comm    | 40.613     | 40.613     | 40.613     |   0.0 |  1.37
Output  | 4.1568     | 4.1568     | 4.1568     |   0.0 |  0.14
Modify  | 56.981     | 56.981     | 56.981     |   0.0 |  1.92
Other   |            | 12.88      |            |       |  0.43

Nlocal:    19652 ave 19652 max 19652 min
Histogram: 1 0 0 0 0 0 0 0 0 0
Nghost:    13512 ave 13512 max 13512 min
Histogram: 1 0 0 0 0 0 0 0 0 0
Neighs:    683437 ave 683437 max 683437 min
Histogram: 1 0 0 0 0 0 0 0 0 0

Total # of neighbors = 683437
Ave neighs/atom = 34.777
Neighbor list builds = 30000
Dangerous builds not checked
Setting up Verlet run ...
  Unit style    : metal
  Current step  : 40000
  Time step     : 0.001
Per MPI rank memory allocation (min/avg/max) = 18.2 | 18.2 | 18.2 Mbytes
Step Temp Press TotEng PotEng Enthalpy Volume 
   40000     2472.673   -629.64668   -68375.685     -74656.5    -68653.32    706460.21 
   40495    2397.2711   -120.14828   -68654.522   -74743.809     -68707.3     703791.7 
Loop time of 48.4314 on 1 procs for 495 steps with 19652 atoms

Performance: 0.883 ns/day, 27.178 hours/ns, 10.221 timesteps/s
99.6% CPU use with 1 MPI tasks x no OpenMP threads

MPI task timing breakdown:
Section |  min time  |  avg time  |  max time  |%varavg| %total
---------------------------------------------------------------
Pair    | 24.858     | 24.858     | 24.858     |   0.0 | 51.33
Neigh   | 21.758     | 21.758     | 21.758     |   0.0 | 44.93
Comm    | 0.66326    | 0.66326    | 0.66326    |   0.0 |  1.37
Output  | 0.00018787 | 0.00018787 | 0.00018787 |   0.0 |  0.00
Modify  | 0.96872    | 0.96872    | 0.96872    |   0.0 |  2.00
Other   |            | 0.1835     |            |       |  0.38

Nlocal:    19652 ave 19652 max 19652 min
Histogram: 1 0 0 0 0 0 0 0 0 0
Nghost:    13525 ave 13525 max 13525 min
Histogram: 1 0 0 0 0 0 0 0 0 0
Neighs:    686069 ave 686069 max 686069 min
Histogram: 1 0 0 0 0 0 0 0 0 0

Total # of neighbors = 686069
Ave neighs/atom = 34.9109
Neighbor list builds = 495
Dangerous builds not checked
Setting up Verlet run ...
  Unit style    : metal
  Current step  : 40495
  Time step     : 0.001
Per MPI rank memory allocation (min/avg/max) = 18.2 | 18.2 | 18.2 Mbytes
Step Temp Press TotEng PotEng Enthalpy Volume 
   40495    2397.2711   -120.14828   -68654.522   -74743.809     -68707.3     703791.7 
   41000    2393.3312    604.72229   -68766.444   -74845.723   -68501.661    701526.31 
Loop time of 49.4949 on 1 procs for 505 steps with 19652 atoms

Performance: 0.882 ns/day, 27.225 hours/ns, 10.203 timesteps/s
99.7% CPU use with 1 MPI tasks x no OpenMP threads

MPI task timing breakdown:
Section |  min time  |  avg time  |  max time  |%varavg| %total
---------------------------------------------------------------
Pair    | 25.4       | 25.4       | 25.4       |   0.0 | 51.32
Neigh   | 22.205     | 22.205     | 22.205     |   0.0 | 44.86
Comm    | 0.67721    | 0.67721    | 0.67721    |   0.0 |  1.37
Output  | 0.048808   | 0.048808   | 0.048808   |   0.0 |  0.10
Modify  | 0.97266    | 0.97266    | 0.97266    |   0.0 |  1.97
Other   |            | 0.1905     |            |       |  0.38

Nlocal:    19652 ave 19652 max 19652 min
Histogram: 1 0 0 0 0 0 0 0 0 0
Nghost:    13545 ave 13545 max 13545 min
Histogram: 1 0 0 0 0 0 0 0 0 0
Neighs:    688412 ave 688412 max 688412 min
Histogram: 1 0 0 0 0 0 0 0 0 0

Total # of neighbors = 688412
Ave neighs/atom = 35.0301
Neighbor list builds = 505
Dangerous builds not checked
Setting up Verlet run ...
  Unit style    : metal
  Current step  : 41000
  Time step     : 0.001
Per MPI rank memory allocation (min/avg/max) = 18.2 | 18.2 | 18.2 Mbytes
Step Temp Press TotEng PotEng Enthalpy Volume 
   41000    2393.3312    604.72229   -68766.444   -74845.723   -68501.661    701526.31 
   41495    2348.6081   -279.40503   -68877.284   -74842.963   -68999.905    703139.53 
Loop time of 48.4775 on 1 procs for 495 steps with 19652 atoms

Performance: 0.882 ns/day, 27.204 hours/ns, 10.211 timesteps/s
99.6% CPU use with 1 MPI tasks x no OpenMP threads

MPI task timing breakdown:
Section |  min time  |  avg time  |  max time  |%varavg| %total
---------------------------------------------------------------
Pair    | 24.921     | 24.921     | 24.921     |   0.0 | 51.41
Neigh   | 21.749     | 21.749     | 21.749     |   0.0 | 44.86
Comm    | 0.6583     | 0.6583     | 0.6583     |   0.0 |  1.36
Output  | 0.00019002 | 0.00019002 | 0.00019002 |   0.0 |  0.00
Modify  | 0.95032    | 0.95032    | 0.95032    |   0.0 |  1.96
Other   |            | 0.1984     |            |       |  0.41

Nlocal:    19652 ave 19652 max 19652 min
Histogram: 1 0 0 0 0 0 0 0 0 0
Nghost:    13566 ave 13566 max 13566 min
Histogram: 1 0 0 0 0 0 0 0 0 0
Neighs:    686367 ave 686367 max 686367 min
Histogram: 1 0 0 0 0 0 0 0 0 0

Total # of neighbors = 686367
Ave neighs/atom = 34.9261
Neighbor list builds = 495
Dangerous builds not checked
Setting up Verlet run ...
  Unit style    : metal
  Current step  : 41495
  Time step     : 0.001
Per MPI rank memory allocation (min/avg/max) = 18.2 | 18.2 | 18.2 Mbytes
Step Temp Press TotEng PotEng Enthalpy Volume 
   41495    2348.6081   -279.40503   -68877.284   -74842.963   -68999.905    703139.53 
   42000    2335.9759    289.85896   -69078.388    -75011.98   -68951.635    700621.46 
Loop time of 49.5216 on 1 procs for 505 steps with 19652 atoms

Performance: 0.881 ns/day, 27.240 hours/ns, 10.198 timesteps/s
99.7% CPU use with 1 MPI tasks x no OpenMP threads

MPI task timing breakdown:
Section |  min time  |  avg time  |  max time  |%varavg| %total
---------------------------------------------------------------
Pair    | 25.409     | 25.409     | 25.409     |   0.0 | 51.31
Neigh   | 22.223     | 22.223     | 22.223     |   0.0 | 44.88
Comm    | 0.67608    | 0.67608    | 0.67608    |   0.0 |  1.37
Output  | 0.049315   | 0.049315   | 0.049315   |   0.0 |  0.10
Modify  | 0.97514    | 0.97514    | 0.97514    |   0.0 |  1.97
Other   |            | 0.1891     |            |       |  0.38

Nlocal:    19652 ave 19652 max 19652 min
Histogram: 1 0 0 0 0 0 0 0 0 0
Nghost:    13566 ave 13566 max 13566 min
Histogram: 1 0 0 0 0 0 0 0 0 0
Neighs:    688814 ave 688814 max 688814 min
Histogram: 1 0 0 0 0 0 0 0 0 0

Total # of neighbors = 688814
Ave neighs/atom = 35.0506
Neighbor list builds = 505
Dangerous builds not checked
Setting up Verlet run ...
  Unit style    : metal
  Current step  : 42000
  Time step     : 0.001
Per MPI rank memory allocation (min/avg/max) = 18.2 | 18.2 | 18.2 Mbytes
Step Temp Press TotEng PotEng Enthalpy Volume 
   42000    2335.9759    289.85896   -69078.388    -75011.98   -68951.635    700621.46 
   42495    2307.8909    102.78472   -69210.888   -75073.141   -69165.956     700380.4 
Loop time of 48.9769 on 1 procs for 495 steps with 19652 atoms

Performance: 0.873 ns/day, 27.484 hours/ns, 10.107 timesteps/s
98.8% CPU use with 1 MPI tasks x no OpenMP threads

MPI task timing breakdown:
Section |  min time  |  avg time  |  max time  |%varavg| %total
---------------------------------------------------------------
Pair    | 25.195     | 25.195     | 25.195     |   0.0 | 51.44
Neigh   | 21.906     | 21.906     | 21.906     |   0.0 | 44.73
Comm    | 0.67549    | 0.67549    | 0.67549    |   0.0 |  1.38
Output  | 0.00019217 | 0.00019217 | 0.00019217 |   0.0 |  0.00
Modify  | 1.0173     | 1.0173     | 1.0173     |   0.0 |  2.08
Other   |            | 0.182      |            |       |  0.37

Nlocal:    19652 ave 19652 max 19652 min
Histogram: 1 0 0 0 0 0 0 0 0 0
Nghost:    13626 ave 13626 max 13626 min
Histogram: 1 0 0 0 0 0 0 0 0 0
Neighs:    688986 ave 688986 max 688986 min
Histogram: 1 0 0 0 0 0 0 0 0 0

Total # of neighbors = 688986
Ave neighs/atom = 35.0593
Neighbor list builds = 495
Dangerous builds not checked
Setting up Verlet run ...
  Unit style    : metal
  Current step  : 42495
  Time step     : 0.001
Per MPI rank memory allocation (min/avg/max) = 18.2 | 18.2 | 18.2 Mbytes
Step Temp Press TotEng PotEng Enthalpy Volume 
   42495    2307.8909    102.78472   -69210.888   -75073.141   -69165.956     700380.4 
   43000    2311.2168    146.18213   -69282.583   -75153.284   -69218.668    700513.18 
Loop time of 49.6224 on 1 procs for 505 steps with 19652 atoms

Performance: 0.879 ns/day, 27.295 hours/ns, 10.177 timesteps/s
99.9% CPU use with 1 MPI tasks x no OpenMP threads

MPI task timing breakdown:
Section |  min time  |  avg time  |  max time  |%varavg| %total
---------------------------------------------------------------
Pair    | 25.561     | 25.561     | 25.561     |   0.0 | 51.51
Neigh   | 22.168     | 22.168     | 22.168     |   0.0 | 44.67
Comm    | 0.68161    | 0.68161    | 0.68161    |   0.0 |  1.37
Output  | 0.049517   | 0.049517   | 0.049517   |   0.0 |  0.10
Modify  | 0.97568    | 0.97568    | 0.97568    |   0.0 |  1.97
Other   |            | 0.1874     |            |       |  0.38

Nlocal:    19652 ave 19652 max 19652 min
Histogram: 1 0 0 0 0 0 0 0 0 0
Nghost:    13592 ave 13592 max 13592 min
Histogram: 1 0 0 0 0 0 0 0 0 0
Neighs:    688373 ave 688373 max 688373 min
Histogram: 1 0 0 0 0 0 0 0 0 0

Total # of neighbors = 688373
Ave neighs/atom = 35.0281
Neighbor list builds = 505
Dangerous builds not checked
Setting up Verlet run ...
  Unit style    : metal
  Current step  : 43000
  Time step     : 0.001
Per MPI rank memory allocation (min/avg/max) = 18.2 | 18.2 | 18.2 Mbytes
Step Temp Press TotEng PotEng Enthalpy Volume 
   43000    2311.2168    146.18213   -69282.583   -75153.284   -69218.668    700513.18 
   43495    2249.8263     328.9605   -69544.085   -75258.849   -69400.699    698349.28 
Loop time of 48.4799 on 1 procs for 495 steps with 19652 atoms

Performance: 0.882 ns/day, 27.205 hours/ns, 10.210 timesteps/s
99.9% CPU use with 1 MPI tasks x no OpenMP threads

MPI task timing breakdown:
Section |  min time  |  avg time  |  max time  |%varavg| %total
---------------------------------------------------------------
Pair    | 25.038     | 25.038     | 25.038     |   0.0 | 51.65
Neigh   | 21.651     | 21.651     | 21.651     |   0.0 | 44.66
Comm    | 0.66066    | 0.66066    | 0.66066    |   0.0 |  1.36
Output  | 0.00019217 | 0.00019217 | 0.00019217 |   0.0 |  0.00
Modify  | 0.94751    | 0.94751    | 0.94751    |   0.0 |  1.95
Other   |            | 0.1831     |            |       |  0.38

Nlocal:    19652 ave 19652 max 19652 min
Histogram: 1 0 0 0 0 0 0 0 0 0
Nghost:    13612 ave 13612 max 13612 min
Histogram: 1 0 0 0 0 0 0 0 0 0
Neighs:    690450 ave 690450 max 690450 min
Histogram: 1 0 0 0 0 0 0 0 0 0

Total # of neighbors = 690450
Ave neighs/atom = 35.1338
Neighbor list builds = 495
Dangerous builds not checked
Setting up Verlet run ...
  Unit style    : metal
  Current step  : 43495
  Time step     : 0.001
Per MPI rank memory allocation (min/avg/max) = 18.2 | 18.2 | 18.2 Mbytes
Step Temp Press TotEng PotEng Enthalpy Volume 
   43495    2249.8263     328.9605   -69544.085   -75258.849   -69400.699    698349.28 
   44000    2259.7798    337.86643   -69595.297   -75335.344   -69448.209     697498.5 
Loop time of 49.5004 on 1 procs for 505 steps with 19652 atoms

Performance: 0.881 ns/day, 27.228 hours/ns, 10.202 timesteps/s
99.9% CPU use with 1 MPI tasks x no OpenMP threads

MPI task timing breakdown:
Section |  min time  |  avg time  |  max time  |%varavg| %total
---------------------------------------------------------------
Pair    | 25.494     | 25.494     | 25.494     |   0.0 | 51.50
Neigh   | 22.13      | 22.13      | 22.13      |   0.0 | 44.71
Comm    | 0.67315    | 0.67315    | 0.67315    |   0.0 |  1.36
Output  | 0.04977    | 0.04977    | 0.04977    |   0.0 |  0.10
Modify  | 0.96712    | 0.96712    | 0.96712    |   0.0 |  1.95
Other   |            | 0.1859     |            |       |  0.38

Nlocal:    19652 ave 19652 max 19652 min
Histogram: 1 0 0 0 0 0 0 0 0 0
Nghost:    13538 ave 13538 max 13538 min
Histogram: 1 0 0 0 0 0 0 0 0 0
Neighs:    691358 ave 691358 max 691358 min
Histogram: 1 0 0 0 0 0 0 0 0 0

Total # of neighbors = 691358
Ave neighs/atom = 35.18
Neighbor list builds = 505
Dangerous builds not checked
Setting up Verlet run ...
  Unit style    : metal
  Current step  : 44000
  Time step     : 0.001
Per MPI rank memory allocation (min/avg/max) = 18.2 | 18.2 | 18.2 Mbytes
Step Temp Press TotEng PotEng Enthalpy Volume 
   44000    2259.7798    337.86643   -69595.297   -75335.344   -69448.209     697498.5 
   44495    2214.1995    307.86503    -69839.36   -75463.629   -69705.388    697209.41 
Loop time of 48.6973 on 1 procs for 495 steps with 19652 atoms

Performance: 0.878 ns/day, 27.327 hours/ns, 10.165 timesteps/s
99.9% CPU use with 1 MPI tasks x no OpenMP threads

MPI task timing breakdown:
Section |  min time  |  avg time  |  max time  |%varavg| %total
---------------------------------------------------------------
Pair    | 25.161     | 25.161     | 25.161     |   0.0 | 51.67
Neigh   | 21.735     | 21.735     | 21.735     |   0.0 | 44.63
Comm    | 0.66221    | 0.66221    | 0.66221    |   0.0 |  1.36
Output  | 0.00019002 | 0.00019002 | 0.00019002 |   0.0 |  0.00
Modify  | 0.95665    | 0.95665    | 0.95665    |   0.0 |  1.96
Other   |            | 0.1818     |            |       |  0.37

Nlocal:    19652 ave 19652 max 19652 min
Histogram: 1 0 0 0 0 0 0 0 0 0
Nghost:    13625 ave 13625 max 13625 min
Histogram: 1 0 0 0 0 0 0 0 0 0
Neighs:    690902 ave 690902 max 690902 min
Histogram: 1 0 0 0 0 0 0 0 0 0

Total # of neighbors = 690902
Ave neighs/atom = 35.1568
Neighbor list builds = 495
Dangerous builds not checked
Setting up Verlet run ...
  Unit style    : metal
  Current step  : 44495
  Time step     : 0.001
Per MPI rank memory allocation (min/avg/max) = 18.2 | 18.2 | 18.2 Mbytes
Step Temp Press TotEng PotEng Enthalpy Volume 
   44495    2214.1995    307.86503    -69839.36   -75463.629   -69705.388    697209.41 
   45000    2212.1257    603.51169   -69933.105   -75552.106   -69670.971    695902.08 
Loop time of 49.4708 on 1 procs for 505 steps with 19652 atoms

Performance: 0.882 ns/day, 27.212 hours/ns, 10.208 timesteps/s
99.9% CPU use with 1 MPI tasks x no OpenMP threads

MPI task timing breakdown:
Section |  min time  |  avg time  |  max time  |%varavg| %total
---------------------------------------------------------------
Pair    | 25.498     | 25.498     | 25.498     |   0.0 | 51.54
Neigh   | 22.085     | 22.085     | 22.085     |   0.0 | 44.64
Comm    | 0.67803    | 0.67803    | 0.67803    |   0.0 |  1.37
Output  | 0.049029   | 0.049029   | 0.049029   |   0.0 |  0.10
Modify  | 0.97552    | 0.97552    | 0.97552    |   0.0 |  1.97
Other   |            | 0.185      |            |       |  0.37

Nlocal:    19652 ave 19652 max 19652 min
Histogram: 1 0 0 0 0 0 0 0 0 0
Nghost:    13660 ave 13660 max 13660 min
Histogram: 1 0 0 0 0 0 0 0 0 0
Neighs:    691903 ave 691903 max 691903 min
Histogram: 1 0 0 0 0 0 0 0 0 0

Total # of neighbors = 691903
Ave neighs/atom = 35.2078
Neighbor list builds = 505
Dangerous builds not checked
Setting up Verlet run ...
  Unit style    : metal
  Current step  : 45000
  Time step     : 0.001
Per MPI rank memory allocation (min/avg/max) = 18.2 | 18.2 | 18.2 Mbytes
Step Temp Press TotEng PotEng Enthalpy Volume 
   45000    2212.1257    603.51169   -69933.105   -75552.106   -69670.971    695902.08 
   45495    2161.3438    587.68529   -70121.699   -75611.709   -69866.809     694895.3 
Loop time of 48.4393 on 1 procs for 495 steps with 19652 atoms

Performance: 0.883 ns/day, 27.183 hours/ns, 10.219 timesteps/s
99.9% CPU use with 1 MPI tasks x no OpenMP threads

MPI task timing breakdown:
Section |  min time  |  avg time  |  max time  |%varavg| %total
---------------------------------------------------------------
Pair    | 25.015     | 25.015     | 25.015     |   0.0 | 51.64
Neigh   | 21.632     | 21.632     | 21.632     |   0.0 | 44.66
Comm    | 0.65994    | 0.65994    | 0.65994    |   0.0 |  1.36
Output  | 0.00021291 | 0.00021291 | 0.00021291 |   0.0 |  0.00
Modify  | 0.93657    | 0.93657    | 0.93657    |   0.0 |  1.93
Other   |            | 0.1951     |            |       |  0.40

Nlocal:    19652 ave 19652 max 19652 min
Histogram: 1 0 0 0 0 0 0 0 0 0
Nghost:    13654 ave 13654 max 13654 min
Histogram: 1 0 0 0 0 0 0 0 0 0
Neighs:    692764 ave 692764 max 692764 min
Histogram: 1 0 0 0 0 0 0 0 0 0

Total # of neighbors = 692764
Ave neighs/atom = 35.2516
Neighbor list builds = 495
Dangerous builds not checked
Setting up Verlet run ...
  Unit style    : metal
  Current step  : 45495
  Time step     : 0.001
Per MPI rank memory allocation (min/avg/max) = 18.2 | 18.2 | 18.2 Mbytes
Step Temp Press TotEng PotEng Enthalpy Volume 
   45495    2161.3438    587.68529   -70121.699   -75611.709   -69866.809     694895.3 
   46000     2144.356    528.33566   -70268.845   -75715.705   -70039.925    694199.25 
Loop time of 49.1154 on 1 procs for 505 steps with 19652 atoms

Performance: 0.888 ns/day, 27.016 hours/ns, 10.282 timesteps/s
99.9% CPU use with 1 MPI tasks x no OpenMP threads

MPI task timing breakdown:
Section |  min time  |  avg time  |  max time  |%varavg| %total
---------------------------------------------------------------
Pair    | 25.521     | 25.521     | 25.521     |   0.0 | 51.96
Neigh   | 21.787     | 21.787     | 21.787     |   0.0 | 44.36
Comm    | 0.64208    | 0.64208    | 0.64208    |   0.0 |  1.31
Output  | 0.049118   | 0.049118   | 0.049118   |   0.0 |  0.10
Modify  | 0.89515    | 0.89515    | 0.89515    |   0.0 |  1.82
Other   |            | 0.2204     |            |       |  0.45

Nlocal:    19652 ave 19652 max 19652 min
Histogram: 1 0 0 0 0 0 0 0 0 0
Nghost:    13688 ave 13688 max 13688 min
Histogram: 1 0 0 0 0 0 0 0 0 0
Neighs:    693188 ave 693188 max 693188 min
Histogram: 1 0 0 0 0 0 0 0 0 0

Total # of neighbors = 693188
Ave neighs/atom = 35.2732
Neighbor list builds = 505
Dangerous builds not checked
Setting up Verlet run ...
  Unit style    : metal
  Current step  : 46000
  Time step     : 0.001
Per MPI rank memory allocation (min/avg/max) = 18.2 | 18.2 | 18.2 Mbytes
Step Temp Press TotEng PotEng Enthalpy Volume 
   46000     2144.356    528.33566   -70268.845   -75715.705   -70039.925    694199.25 
   46495    2104.8375    316.58762   -70466.374   -75812.853   -70329.312    693637.36 
Loop time of 48.5803 on 1 procs for 495 steps with 19652 atoms

Performance: 0.880 ns/day, 27.262 hours/ns, 10.189 timesteps/s
99.8% CPU use with 1 MPI tasks x no OpenMP threads

MPI task timing breakdown:
Section |  min time  |  avg time  |  max time  |%varavg| %total
---------------------------------------------------------------
Pair    | 25.076     | 25.076     | 25.076     |   0.0 | 51.62
Neigh   | 21.705     | 21.705     | 21.705     |   0.0 | 44.68
Comm    | 0.65937    | 0.65937    | 0.65937    |   0.0 |  1.36
Output  | 0.00019407 | 0.00019407 | 0.00019407 |   0.0 |  0.00
Modify  | 0.94012    | 0.94012    | 0.94012    |   0.0 |  1.94
Other   |            | 0.1993     |            |       |  0.41

Nlocal:    19652 ave 19652 max 19652 min
Histogram: 1 0 0 0 0 0 0 0 0 0
Nghost:    13621 ave 13621 max 13621 min
Histogram: 1 0 0 0 0 0 0 0 0 0
Neighs:    693624 ave 693624 max 693624 min
Histogram: 1 0 0 0 0 0 0 0 0 0

Total # of neighbors = 693624
Ave neighs/atom = 35.2953
Neighbor list builds = 495
Dangerous builds not checked
Setting up Verlet run ...
  Unit style    : metal
  Current step  : 46495
  Time step     : 0.001
Per MPI rank memory allocation (min/avg/max) = 18.2 | 18.2 | 18.2 Mbytes
Step Temp Press TotEng PotEng Enthalpy Volume 
   46495    2104.8375    316.58762   -70466.374   -75812.853   -70329.312    693637.36 
   47000     2101.183    176.74215   -70542.502   -75879.698   -70465.939    694048.07 
Loop time of 50.2351 on 1 procs for 505 steps with 19652 atoms

Performance: 0.869 ns/day, 27.632 hours/ns, 10.053 timesteps/s
99.8% CPU use with 1 MPI tasks x no OpenMP threads

MPI task timing breakdown:
Section |  min time  |  avg time  |  max time  |%varavg| %total
---------------------------------------------------------------
Pair    | 25.975     | 25.975     | 25.975     |   0.0 | 51.71
Neigh   | 22.315     | 22.315     | 22.315     |   0.0 | 44.42
Comm    | 0.6986     | 0.6986     | 0.6986     |   0.0 |  1.39
Output  | 0.049169   | 0.049169   | 0.049169   |   0.0 |  0.10
Modify  | 0.99869    | 0.99869    | 0.99869    |   0.0 |  1.99
Other   |            | 0.1993     |            |       |  0.40

Nlocal:    19652 ave 19652 max 19652 min
Histogram: 1 0 0 0 0 0 0 0 0 0
Nghost:    13635 ave 13635 max 13635 min
Histogram: 1 0 0 0 0 0 0 0 0 0
Neighs:    692989 ave 692989 max 692989 min
Histogram: 1 0 0 0 0 0 0 0 0 0

Total # of neighbors = 692989
Ave neighs/atom = 35.263
Neighbor list builds = 505
Dangerous builds not checked
Setting up Verlet run ...
  Unit style    : metal
  Current step  : 47000
  Time step     : 0.001
Per MPI rank memory allocation (min/avg/max) = 18.2 | 18.2 | 18.2 Mbytes
Step Temp Press TotEng PotEng Enthalpy Volume 
   47000     2101.183    176.74215   -70542.502   -75879.698   -70465.939    694048.07 
   47495    2059.4321    328.72541   -70728.229   -75959.374   -70586.103     692707.1 
Loop time of 47.6073 on 1 procs for 495 steps with 19652 atoms

Performance: 0.898 ns/day, 26.716 hours/ns, 10.398 timesteps/s
99.8% CPU use with 1 MPI tasks x no OpenMP threads

MPI task timing breakdown:
Section |  min time  |  avg time  |  max time  |%varavg| %total
---------------------------------------------------------------
Pair    | 24.471     | 24.471     | 24.471     |   0.0 | 51.40
Neigh   | 21.399     | 21.399     | 21.399     |   0.0 | 44.95
Comm    | 0.63372    | 0.63372    | 0.63372    |   0.0 |  1.33
Output  | 0.00021791 | 0.00021791 | 0.00021791 |   0.0 |  0.00
Modify  | 0.88668    | 0.88668    | 0.88668    |   0.0 |  1.86
Other   |            | 0.2165     |            |       |  0.45

Nlocal:    19652 ave 19652 max 19652 min
Histogram: 1 0 0 0 0 0 0 0 0 0
Nghost:    13649 ave 13649 max 13649 min
Histogram: 1 0 0 0 0 0 0 0 0 0
Neighs:    694265 ave 694265 max 694265 min
Histogram: 1 0 0 0 0 0 0 0 0 0

Total # of neighbors = 694265
Ave neighs/atom = 35.328
Neighbor list builds = 495
Dangerous builds not checked
Setting up Verlet run ...
  Unit style    : metal
  Current step  : 47495
  Time step     : 0.001
Per MPI rank memory allocation (min/avg/max) = 18.2 | 18.2 | 18.2 Mbytes
Step Temp Press TotEng PotEng Enthalpy Volume 
   47495    2059.4321    328.72541   -70728.229   -75959.374   -70586.103     692707.1 
   48000     2065.828    420.85928   -70788.712   -76036.103    -70607.04    691608.05 
Loop time of 48.4817 on 1 procs for 505 steps with 19652 atoms

Performance: 0.900 ns/day, 26.668 hours/ns, 10.416 timesteps/s
99.9% CPU use with 1 MPI tasks x no OpenMP threads

MPI task timing breakdown:
Section |  min time  |  avg time  |  max time  |%varavg| %total
---------------------------------------------------------------
Pair    | 24.919     | 24.919     | 24.919     |   0.0 | 51.40
Neigh   | 21.758     | 21.758     | 21.758     |   0.0 | 44.88
Comm    | 0.64145    | 0.64145    | 0.64145    |   0.0 |  1.32
Output  | 0.050275   | 0.050275   | 0.050275   |   0.0 |  0.10
Modify  | 0.89256    | 0.89256    | 0.89256    |   0.0 |  1.84
Other   |            | 0.2202     |            |       |  0.45

Nlocal:    19652 ave 19652 max 19652 min
Histogram: 1 0 0 0 0 0 0 0 0 0
Nghost:    13570 ave 13570 max 13570 min
Histogram: 1 0 0 0 0 0 0 0 0 0
Neighs:    695209 ave 695209 max 695209 min
Histogram: 1 0 0 0 0 0 0 0 0 0

Total # of neighbors = 695209
Ave neighs/atom = 35.376
Neighbor list builds = 505
Dangerous builds not checked
Setting up Verlet run ...
  Unit style    : metal
  Current step  : 48000
  Time step     : 0.001
Per MPI rank memory allocation (min/avg/max) = 18.2 | 18.2 | 18.2 Mbytes
Step Temp Press TotEng PotEng Enthalpy Volume 
   48000     2065.828    420.85928   -70788.712   -76036.103    -70607.04    691608.05 
   48495    2011.6105    79.177632   -71033.915   -76143.588   -70999.728    691776.68 
Loop time of 47.5101 on 1 procs for 495 steps with 19652 atoms

Performance: 0.900 ns/day, 26.661 hours/ns, 10.419 timesteps/s
99.9% CPU use with 1 MPI tasks x no OpenMP threads

MPI task timing breakdown:
Section |  min time  |  avg time  |  max time  |%varavg| %total
---------------------------------------------------------------
Pair    | 24.444     | 24.444     | 24.444     |   0.0 | 51.45
Neigh   | 21.333     | 21.333     | 21.333     |   0.0 | 44.90
Comm    | 0.63264    | 0.63264    | 0.63264    |   0.0 |  1.33
Output  | 0.00022101 | 0.00022101 | 0.00022101 |   0.0 |  0.00
Modify  | 0.88374    | 0.88374    | 0.88374    |   0.0 |  1.86
Other   |            | 0.2169     |            |       |  0.46

Nlocal:    19652 ave 19652 max 19652 min
Histogram: 1 0 0 0 0 0 0 0 0 0
Nghost:    13590 ave 13590 max 13590 min
Histogram: 1 0 0 0 0 0 0 0 0 0
Neighs:    694513 ave 694513 max 694513 min
Histogram: 1 0 0 0 0 0 0 0 0 0

Total # of neighbors = 694513
Ave neighs/atom = 35.3406
Neighbor list builds = 495
Dangerous builds not checked
Setting up Verlet run ...
  Unit style    : metal
  Current step  : 48495
  Time step     : 0.001
Per MPI rank memory allocation (min/avg/max) = 18.2 | 18.2 | 18.2 Mbytes
Step Temp Press TotEng PotEng Enthalpy Volume 
   48495    2011.6105    79.177632   -71033.915   -76143.588   -70999.728    691776.68 
   49000    2010.9995    41.958457   -71093.701   -76201.823   -71075.611     690790.4 
Loop time of 49.3725 on 1 procs for 505 steps with 19652 atoms

Performance: 0.884 ns/day, 27.158 hours/ns, 10.228 timesteps/s
99.9% CPU use with 1 MPI tasks x no OpenMP threads

MPI task timing breakdown:
Section |  min time  |  avg time  |  max time  |%varavg| %total
---------------------------------------------------------------
Pair    | 25.488     | 25.488     | 25.488     |   0.0 | 51.62
Neigh   | 22         | 22         | 22         |   0.0 | 44.56
Comm    | 0.67178    | 0.67178    | 0.67178    |   0.0 |  1.36
Output  | 0.049127   | 0.049127   | 0.049127   |   0.0 |  0.10
Modify  | 0.94058    | 0.94058    | 0.94058    |   0.0 |  1.91
Other   |            | 0.2228     |            |       |  0.45

Nlocal:    19652 ave 19652 max 19652 min
Histogram: 1 0 0 0 0 0 0 0 0 0
Nghost:    13601 ave 13601 max 13601 min
Histogram: 1 0 0 0 0 0 0 0 0 0
Neighs:    695684 ave 695684 max 695684 min
Histogram: 1 0 0 0 0 0 0 0 0 0

Total # of neighbors = 695684
Ave neighs/atom = 35.4002
Neighbor list builds = 505
Dangerous builds not checked
Setting up Verlet run ...
  Unit style    : metal
  Current step  : 49000
  Time step     : 0.001
Per MPI rank memory allocation (min/avg/max) = 18.2 | 18.2 | 18.2 Mbytes
Step Temp Press TotEng PotEng Enthalpy Volume 
   49000    2010.9995    41.958457   -71093.701   -76201.823   -71075.611     690790.4 
   49495    1977.9691    191.26327   -71349.974   -76374.196   -71267.663    689503.59 
Loop time of 48.191 on 1 procs for 495 steps with 19652 atoms

Performance: 0.887 ns/day, 27.043 hours/ns, 10.272 timesteps/s
99.9% CPU use with 1 MPI tasks x no OpenMP threads

MPI task timing breakdown:
Section |  min time  |  avg time  |  max time  |%varavg| %total
---------------------------------------------------------------
Pair    | 24.89      | 24.89      | 24.89      |   0.0 | 51.65
Neigh   | 21.514     | 21.514     | 21.514     |   0.0 | 44.64
Comm    | 0.65265    | 0.65265    | 0.65265    |   0.0 |  1.35
Output  | 0.0002141  | 0.0002141  | 0.0002141  |   0.0 |  0.00
Modify  | 0.91514    | 0.91514    | 0.91514    |   0.0 |  1.90
Other   |            | 0.2187     |            |       |  0.45

Nlocal:    19652 ave 19652 max 19652 min
Histogram: 1 0 0 0 0 0 0 0 0 0
Nghost:    13631 ave 13631 max 13631 min
Histogram: 1 0 0 0 0 0 0 0 0 0
Neighs:    696409 ave 696409 max 696409 min
Histogram: 1 0 0 0 0 0 0 0 0 0

Total # of neighbors = 696409
Ave neighs/atom = 35.4371
Neighbor list builds = 495
Dangerous builds not checked
Setting up Verlet run ...
  Unit style    : metal
  Current step  : 49495
  Time step     : 0.001
Per MPI rank memory allocation (min/avg/max) = 18.2 | 18.2 | 18.2 Mbytes
Step Temp Press TotEng PotEng Enthalpy Volume 
   49495    1977.9691    191.26327   -71349.974   -76374.196   -71267.663    689503.59 
   50000    1942.5888    107.92544   -71504.644   -76438.997   -71458.266    688504.33 
Loop time of 49.5012 on 1 procs for 505 steps with 19652 atoms

Performance: 0.881 ns/day, 27.228 hours/ns, 10.202 timesteps/s
99.9% CPU use with 1 MPI tasks x no OpenMP threads

MPI task timing breakdown:
Section |  min time  |  avg time  |  max time  |%varavg| %total
---------------------------------------------------------------
Pair    | 25.609     | 25.609     | 25.609     |   0.0 | 51.73
Neigh   | 21.995     | 21.995     | 21.995     |   0.0 | 44.43
Comm    | 0.67425    | 0.67425    | 0.67425    |   0.0 |  1.36
Output  | 0.049256   | 0.049256   | 0.049256   |   0.0 |  0.10
Modify  | 0.94935    | 0.94935    | 0.94935    |   0.0 |  1.92
Other   |            | 0.2244     |            |       |  0.45

Nlocal:    19652 ave 19652 max 19652 min
Histogram: 1 0 0 0 0 0 0 0 0 0
Nghost:    13709 ave 13709 max 13709 min
Histogram: 1 0 0 0 0 0 0 0 0 0
Neighs:    697187 ave 697187 max 697187 min
Histogram: 1 0 0 0 0 0 0 0 0 0

Total # of neighbors = 697187
Ave neighs/atom = 35.4766
Neighbor list builds = 505
Dangerous builds not checked
Setting up Verlet run ...
  Unit style    : metal
  Current step  : 50000
  Time step     : 0.001
Per MPI rank memory allocation (min/avg/max) = 18.2 | 18.2 | 18.2 Mbytes
Step Temp Press TotEng PotEng Enthalpy Volume 
   50000    1942.5888    107.92544   -71504.644   -76438.997   -71458.266    688504.33 
   50495    1925.2359    252.06662   -71694.486   -76584.761   -71586.303    687634.26 
Loop time of 47.9726 on 1 procs for 495 steps with 19652 atoms

Performance: 0.892 ns/day, 26.921 hours/ns, 10.318 timesteps/s
99.9% CPU use with 1 MPI tasks x no OpenMP threads

MPI task timing breakdown:
Section |  min time  |  avg time  |  max time  |%varavg| %total
---------------------------------------------------------------
Pair    | 24.768     | 24.768     | 24.768     |   0.0 | 51.63
Neigh   | 21.444     | 21.444     | 21.444     |   0.0 | 44.70
Comm    | 0.6439     | 0.6439     | 0.6439     |   0.0 |  1.34
Output  | 0.00021291 | 0.00021291 | 0.00021291 |   0.0 |  0.00
Modify  | 0.89843    | 0.89843    | 0.89843    |   0.0 |  1.87
Other   |            | 0.2184     |            |       |  0.46

Nlocal:    19652 ave 19652 max 19652 min
Histogram: 1 0 0 0 0 0 0 0 0 0
Nghost:    13680 ave 13680 max 13680 min
Histogram: 1 0 0 0 0 0 0 0 0 0
Neighs:    697370 ave 697370 max 697370 min
Histogram: 1 0 0 0 0 0 0 0 0 0

Total # of neighbors = 697370
Ave neighs/atom = 35.486
Neighbor list builds = 495
Dangerous builds not checked
Setting up Verlet run ...
  Unit style    : metal
  Current step  : 50495
  Time step     : 0.001
Per MPI rank memory allocation (min/avg/max) = 18.2 | 18.2 | 18.2 Mbytes
Step Temp Press TotEng PotEng Enthalpy Volume 
   50495    1925.2359    252.06662   -71694.486   -76584.761   -71586.303    687634.26 
   51000    1907.0905    140.43667   -71795.647   -76639.831   -71735.408    687232.73 
Loop time of 48.7809 on 1 procs for 505 steps with 19652 atoms

Performance: 0.894 ns/day, 26.832 hours/ns, 10.352 timesteps/s
99.9% CPU use with 1 MPI tasks x no OpenMP threads

MPI task timing breakdown:
Section |  min time  |  avg time  |  max time  |%varavg| %total
---------------------------------------------------------------
Pair    | 25.166     | 25.166     | 25.166     |   0.0 | 51.59
Neigh   | 21.796     | 21.796     | 21.796     |   0.0 | 44.68
Comm    | 0.64719    | 0.64719    | 0.64719    |   0.0 |  1.33
Output  | 0.049068   | 0.049068   | 0.049068   |   0.0 |  0.10
Modify  | 0.89987    | 0.89987    | 0.89987    |   0.0 |  1.84
Other   |            | 0.2225     |            |       |  0.46

Nlocal:    19652 ave 19652 max 19652 min
Histogram: 1 0 0 0 0 0 0 0 0 0
Nghost:    13656 ave 13656 max 13656 min
Histogram: 1 0 0 0 0 0 0 0 0 0
Neighs:    697554 ave 697554 max 697554 min
Histogram: 1 0 0 0 0 0 0 0 0 0

Total # of neighbors = 697554
Ave neighs/atom = 35.4953
Neighbor list builds = 505
Dangerous builds not checked
Setting up Verlet run ...
  Unit style    : metal
  Current step  : 51000
  Time step     : 0.001
Per MPI rank memory allocation (min/avg/max) = 18.2 | 18.2 | 18.2 Mbytes
Step Temp Press TotEng PotEng Enthalpy Volume 
   51000    1907.0905    140.43667   -71795.647   -76639.831   -71735.408    687232.73 
   51495    1868.8407     106.5282   -71998.019   -76745.045   -71952.379    686422.92 
Loop time of 47.8288 on 1 procs for 495 steps with 19652 atoms

Performance: 0.894 ns/day, 26.840 hours/ns, 10.349 timesteps/s
99.9% CPU use with 1 MPI tasks x no OpenMP threads

MPI task timing breakdown:
Section |  min time  |  avg time  |  max time  |%varavg| %total
---------------------------------------------------------------
Pair    | 24.714     | 24.714     | 24.714     |   0.0 | 51.67
Neigh   | 21.371     | 21.371     | 21.371     |   0.0 | 44.68
Comm    | 0.63543    | 0.63543    | 0.63543    |   0.0 |  1.33
Output  | 0.00021911 | 0.00021911 | 0.00021911 |   0.0 |  0.00
Modify  | 0.89038    | 0.89038    | 0.89038    |   0.0 |  1.86
Other   |            | 0.2181     |            |       |  0.46

Nlocal:    19652 ave 19652 max 19652 min
Histogram: 1 0 0 0 0 0 0 0 0 0
Nghost:    13609 ave 13609 max 13609 min
Histogram: 1 0 0 0 0 0 0 0 0 0
Neighs:    698019 ave 698019 max 698019 min
Histogram: 1 0 0 0 0 0 0 0 0 0

Total # of neighbors = 698019
Ave neighs/atom = 35.519
Neighbor list builds = 495
Dangerous builds not checked
Setting up Verlet run ...
  Unit style    : metal
  Current step  : 51495
  Time step     : 0.001
Per MPI rank memory allocation (min/avg/max) = 18.2 | 18.2 | 18.2 Mbytes
Step Temp Press TotEng PotEng Enthalpy Volume 
   51495    1868.8407     106.5282   -71998.019   -76745.045   -71952.379    686422.92 
   52000    1867.6171    92.279401   -72037.395   -76781.313   -71997.865    686322.04 
Loop time of 48.8568 on 1 procs for 505 steps with 19652 atoms

Performance: 0.893 ns/day, 26.874 hours/ns, 10.336 timesteps/s
99.9% CPU use with 1 MPI tasks x no OpenMP threads

MPI task timing breakdown:
Section |  min time  |  avg time  |  max time  |%varavg| %total
---------------------------------------------------------------
Pair    | 25.217     | 25.217     | 25.217     |   0.0 | 51.61
Neigh   | 21.814     | 21.814     | 21.814     |   0.0 | 44.65
Comm    | 0.64843    | 0.64843    | 0.64843    |   0.0 |  1.33
Output  | 0.049226   | 0.049226   | 0.049226   |   0.0 |  0.10
Modify  | 0.90603    | 0.90603    | 0.90603    |   0.0 |  1.85
Other   |            | 0.2219     |            |       |  0.45

Nlocal:    19652 ave 19652 max 19652 min
Histogram: 1 0 0 0 0 0 0 0 0 0
Nghost:    13696 ave 13696 max 13696 min
Histogram: 1 0 0 0 0 0 0 0 0 0
Neighs:    698247 ave 698247 max 698247 min
Histogram: 1 0 0 0 0 0 0 0 0 0

Total # of neighbors = 698247
Ave neighs/atom = 35.5306
Neighbor list builds = 505
Dangerous builds not checked
Setting up Verlet run ...
  Unit style    : metal
  Current step  : 52000
  Time step     : 0.001
Per MPI rank memory allocation (min/avg/max) = 18.2 | 18.2 | 18.2 Mbytes
Step Temp Press TotEng PotEng Enthalpy Volume 
   52000    1867.6171    92.279401   -72037.395   -76781.313   -71997.865    686322.04 
   52495    1814.9178    267.73772   -72272.631   -76882.688   -72158.181    684887.42 
Loop time of 47.9731 on 1 procs for 495 steps with 19652 atoms

Performance: 0.891 ns/day, 26.921 hours/ns, 10.318 timesteps/s
99.9% CPU use with 1 MPI tasks x no OpenMP threads

MPI task timing breakdown:
Section |  min time  |  avg time  |  max time  |%varavg| %total
---------------------------------------------------------------
Pair    | 24.8       | 24.8       | 24.8       |   0.0 | 51.69
Neigh   | 21.413     | 21.413     | 21.413     |   0.0 | 44.64
Comm    | 0.64116    | 0.64116    | 0.64116    |   0.0 |  1.34
Output  | 0.00021195 | 0.00021195 | 0.00021195 |   0.0 |  0.00
Modify  | 0.90095    | 0.90095    | 0.90095    |   0.0 |  1.88
Other   |            | 0.2184     |            |       |  0.46

Nlocal:    19652 ave 19652 max 19652 min
Histogram: 1 0 0 0 0 0 0 0 0 0
Nghost:    13680 ave 13680 max 13680 min
Histogram: 1 0 0 0 0 0 0 0 0 0
Neighs:    699757 ave 699757 max 699757 min
Histogram: 1 0 0 0 0 0 0 0 0 0

Total # of neighbors = 699757
Ave neighs/atom = 35.6074
Neighbor list builds = 495
Dangerous builds not checked
Setting up Verlet run ...
  Unit style    : metal
  Current step  : 52495
  Time step     : 0.001
Per MPI rank memory allocation (min/avg/max) = 18.2 | 18.2 | 18.2 Mbytes
Step Temp Press TotEng PotEng Enthalpy Volume 
   52495    1814.9178    267.73772   -72272.631   -76882.688   -72158.181    684887.42 
   53000    1799.7408    74.638849   -72444.884    -77016.39   -72413.004    684341.26 
Loop time of 48.8149 on 1 procs for 505 steps with 19652 atoms

Performance: 0.894 ns/day, 26.851 hours/ns, 10.345 timesteps/s
99.9% CPU use with 1 MPI tasks x no OpenMP threads

MPI task timing breakdown:
Section |  min time  |  avg time  |  max time  |%varavg| %total
---------------------------------------------------------------
Pair    | 25.215     | 25.215     | 25.215     |   0.0 | 51.65
Neigh   | 21.782     | 21.782     | 21.782     |   0.0 | 44.62
Comm    | 0.64557    | 0.64557    | 0.64557    |   0.0 |  1.32
Output  | 0.049425   | 0.049425   | 0.049425   |   0.0 |  0.10
Modify  | 0.90145    | 0.90145    | 0.90145    |   0.0 |  1.85
Other   |            | 0.2217     |            |       |  0.45

Nlocal:    19652 ave 19652 max 19652 min
Histogram: 1 0 0 0 0 0 0 0 0 0
Nghost:    13693 ave 13693 max 13693 min
Histogram: 1 0 0 0 0 0 0 0 0 0
Neighs:    699177 ave 699177 max 699177 min
Histogram: 1 0 0 0 0 0 0 0 0 0

Total # of neighbors = 699177
Ave neighs/atom = 35.5779
Neighbor list builds = 505
Dangerous builds not checked
Setting up Verlet run ...
  Unit style    : metal
  Current step  : 53000
  Time step     : 0.001
Per MPI rank memory allocation (min/avg/max) = 18.2 | 18.2 | 18.2 Mbytes
Step Temp Press TotEng PotEng Enthalpy Volume 
   53000    1799.7408    74.638849   -72444.884    -77016.39   -72413.004    684341.26 
   53495    1754.0333    219.29912   -72657.641   -77113.045    -72564.14    683106.82 
Loop time of 48.157 on 1 procs for 495 steps with 19652 atoms

Performance: 0.888 ns/day, 27.024 hours/ns, 10.279 timesteps/s
99.6% CPU use with 1 MPI tasks x no OpenMP threads

MPI task timing breakdown:
Section |  min time  |  avg time  |  max time  |%varavg| %total
---------------------------------------------------------------
Pair    | 24.928     | 24.928     | 24.928     |   0.0 | 51.76
Neigh   | 21.454     | 21.454     | 21.454     |   0.0 | 44.55
Comm    | 0.65349    | 0.65349    | 0.65349    |   0.0 |  1.36
Output  | 0.0002141  | 0.0002141  | 0.0002141  |   0.0 |  0.00
Modify  | 0.90725    | 0.90725    | 0.90725    |   0.0 |  1.88
Other   |            | 0.2138     |            |       |  0.44

Nlocal:    19652 ave 19652 max 19652 min
Histogram: 1 0 0 0 0 0 0 0 0 0
Nghost:    13729 ave 13729 max 13729 min
Histogram: 1 0 0 0 0 0 0 0 0 0
Neighs:    700511 ave 700511 max 700511 min
Histogram: 1 0 0 0 0 0 0 0 0 0

Total # of neighbors = 700511
Ave neighs/atom = 35.6458
Neighbor list builds = 495
Dangerous builds not checked
Setting up Verlet run ...
  Unit style    : metal
  Current step  : 53495
  Time step     : 0.001
Per MPI rank memory allocation (min/avg/max) = 18.2 | 18.2 | 18.2 Mbytes
Step Temp Press TotEng PotEng Enthalpy Volume 
   53495    1754.0333    219.29912   -72657.641   -77113.045    -72564.14    683106.82 
   54000    1743.3374    239.48152   -72788.243   -77216.479   -72686.306    681980.98 
Loop time of 48.9349 on 1 procs for 505 steps with 19652 atoms

Performance: 0.892 ns/day, 26.917 hours/ns, 10.320 timesteps/s
99.9% CPU use with 1 MPI tasks x no OpenMP threads

MPI task timing breakdown:
Section |  min time  |  avg time  |  max time  |%varavg| %total
---------------------------------------------------------------
Pair    | 25.306     | 25.306     | 25.306     |   0.0 | 51.71
Neigh   | 21.795     | 21.795     | 21.795     |   0.0 | 44.54
Comm    | 0.64397    | 0.64397    | 0.64397    |   0.0 |  1.32
Output  | 0.048916   | 0.048916   | 0.048916   |   0.0 |  0.10
Modify  | 0.91888    | 0.91888    | 0.91888    |   0.0 |  1.88
Other   |            | 0.2228     |            |       |  0.46

Nlocal:    19652 ave 19652 max 19652 min
Histogram: 1 0 0 0 0 0 0 0 0 0
Nghost:    13714 ave 13714 max 13714 min
Histogram: 1 0 0 0 0 0 0 0 0 0
Neighs:    701149 ave 701149 max 701149 min
Histogram: 1 0 0 0 0 0 0 0 0 0

Total # of neighbors = 701149
Ave neighs/atom = 35.6783
Neighbor list builds = 505
Dangerous builds not checked
Setting up Verlet run ...
  Unit style    : metal
  Current step  : 54000
  Time step     : 0.001
Per MPI rank memory allocation (min/avg/max) = 18.2 | 18.2 | 18.2 Mbytes
Step Temp Press TotEng PotEng Enthalpy Volume 
   54000    1743.3374    239.48152   -72788.243   -77216.479   -72686.306    681980.98 
   54495    1715.4254    617.61602   -72966.131   -77323.468   -72703.769    680600.48 
Loop time of 48.168 on 1 procs for 495 steps with 19652 atoms

Performance: 0.888 ns/day, 27.030 hours/ns, 10.277 timesteps/s
99.9% CPU use with 1 MPI tasks x no OpenMP threads

MPI task timing breakdown:
Section |  min time  |  avg time  |  max time  |%varavg| %total
---------------------------------------------------------------
Pair    | 24.977     | 24.977     | 24.977     |   0.0 | 51.85
Neigh   | 21.435     | 21.435     | 21.435     |   0.0 | 44.50
Comm    | 0.63788    | 0.63788    | 0.63788    |   0.0 |  1.32
Output  | 0.000211   | 0.000211   | 0.000211   |   0.0 |  0.00
Modify  | 0.899      | 0.899      | 0.899      |   0.0 |  1.87
Other   |            | 0.2189     |            |       |  0.45

Nlocal:    19652 ave 19652 max 19652 min
Histogram: 1 0 0 0 0 0 0 0 0 0
Nghost:    13766 ave 13766 max 13766 min
Histogram: 1 0 0 0 0 0 0 0 0 0
Neighs:    702339 ave 702339 max 702339 min
Histogram: 1 0 0 0 0 0 0 0 0 0

Total # of neighbors = 702339
Ave neighs/atom = 35.7388
Neighbor list builds = 495
Dangerous builds not checked
Setting up Verlet run ...
  Unit style    : metal
  Current step  : 54495
  Time step     : 0.001
Per MPI rank memory allocation (min/avg/max) = 18.2 | 18.2 | 18.2 Mbytes
Step Temp Press TotEng PotEng Enthalpy Volume 
   54495    1715.4254    617.61602   -72966.131   -77323.468   -72703.769    680600.48 
   55000    1704.4018    634.24138   -73064.223   -77393.559   -72795.058    679945.89 
Loop time of 48.852 on 1 procs for 505 steps with 19652 atoms

Performance: 0.893 ns/day, 26.871 hours/ns, 10.337 timesteps/s
99.9% CPU use with 1 MPI tasks x no OpenMP threads

MPI task timing breakdown:
Section |  min time  |  avg time  |  max time  |%varavg| %total
---------------------------------------------------------------
Pair    | 25.281     | 25.281     | 25.281     |   0.0 | 51.75
Neigh   | 21.755     | 21.755     | 21.755     |   0.0 | 44.53
Comm    | 0.64283    | 0.64283    | 0.64283    |   0.0 |  1.32
Output  | 0.049252   | 0.049252   | 0.049252   |   0.0 |  0.10
Modify  | 0.90221    | 0.90221    | 0.90221    |   0.0 |  1.85
Other   |            | 0.221      |            |       |  0.45

Nlocal:    19652 ave 19652 max 19652 min
Histogram: 1 0 0 0 0 0 0 0 0 0
Nghost:    13754 ave 13754 max 13754 min
Histogram: 1 0 0 0 0 0 0 0 0 0
Neighs:    702939 ave 702939 max 702939 min
Histogram: 1 0 0 0 0 0 0 0 0 0

Total # of neighbors = 702939
Ave neighs/atom = 35.7693
Neighbor list builds = 505
Dangerous builds not checked
Setting up Verlet run ...
  Unit style    : metal
  Current step  : 55000
  Time step     : 0.001
Per MPI rank memory allocation (min/avg/max) = 18.2 | 18.2 | 18.2 Mbytes
Step Temp Press TotEng PotEng Enthalpy Volume 
   55000    1704.4018    634.24138   -73064.223   -77393.559   -72795.058    679945.89 
   55495    1661.0181    338.45785   -73262.475   -77481.613   -73118.831    679977.64 
Loop time of 47.7371 on 1 procs for 495 steps with 19652 atoms

Performance: 0.896 ns/day, 26.789 hours/ns, 10.369 timesteps/s
99.9% CPU use with 1 MPI tasks x no OpenMP threads

MPI task timing breakdown:
Section |  min time  |  avg time  |  max time  |%varavg| %total
---------------------------------------------------------------
Pair    | 24.722     | 24.722     | 24.722     |   0.0 | 51.79
Neigh   | 21.285     | 21.285     | 21.285     |   0.0 | 44.59
Comm    | 0.63048    | 0.63048    | 0.63048    |   0.0 |  1.32
Output  | 0.00022602 | 0.00022602 | 0.00022602 |   0.0 |  0.00
Modify  | 0.88321    | 0.88321    | 0.88321    |   0.0 |  1.85
Other   |            | 0.2165     |            |       |  0.45

Nlocal:    19652 ave 19652 max 19652 min
Histogram: 1 0 0 0 0 0 0 0 0 0
Nghost:    13705 ave 13705 max 13705 min
Histogram: 1 0 0 0 0 0 0 0 0 0
Neighs:    702737 ave 702737 max 702737 min
Histogram: 1 0 0 0 0 0 0 0 0 0

Total # of neighbors = 702737
Ave neighs/atom = 35.7591
Neighbor list builds = 495
Dangerous builds not checked
Setting up Verlet run ...
  Unit style    : metal
  Current step  : 55495
  Time step     : 0.001
Per MPI rank memory allocation (min/avg/max) = 18.2 | 18.2 | 18.2 Mbytes
Step Temp Press TotEng PotEng Enthalpy Volume 
   55495    1661.0181    338.45785   -73262.475   -77481.613   -73118.831    679977.64 
   56000    1661.6968    275.58109   -73290.421   -77511.282   -73173.501    679747.24 
Loop time of 49.1481 on 1 procs for 505 steps with 19652 atoms

Performance: 0.888 ns/day, 27.034 hours/ns, 10.275 timesteps/s
99.9% CPU use with 1 MPI tasks x no OpenMP threads

MPI task timing breakdown:
Section |  min time  |  avg time  |  max time  |%varavg| %total
---------------------------------------------------------------
Pair    | 25.46      | 25.46      | 25.46      |   0.0 | 51.80
Neigh   | 21.844     | 21.844     | 21.844     |   0.0 | 44.45
Comm    | 0.65691    | 0.65691    | 0.65691    |   0.0 |  1.34
Output  | 0.049551   | 0.049551   | 0.049551   |   0.0 |  0.10
Modify  | 0.91494    | 0.91494    | 0.91494    |   0.0 |  1.86
Other   |            | 0.2223     |            |       |  0.45

Nlocal:    19652 ave 19652 max 19652 min
Histogram: 1 0 0 0 0 0 0 0 0 0
Nghost:    13747 ave 13747 max 13747 min
Histogram: 1 0 0 0 0 0 0 0 0 0
Neighs:    702543 ave 702543 max 702543 min
Histogram: 1 0 0 0 0 0 0 0 0 0

Total # of neighbors = 702543
Ave neighs/atom = 35.7492
Neighbor list builds = 505
Dangerous builds not checked
Setting up Verlet run ...
  Unit style    : metal
  Current step  : 56000
  Time step     : 0.001
Per MPI rank memory allocation (min/avg/max) = 18.2 | 18.2 | 18.2 Mbytes
Step Temp Press TotEng PotEng Enthalpy Volume 
   56000    1661.6968    275.58109   -73290.421   -77511.282   -73173.501    679747.24 
   56495    1609.7298    156.10477   -73559.822   -77648.682   -73493.682     678825.1 
Loop time of 48.7313 on 1 procs for 495 steps with 19652 atoms

Performance: 0.878 ns/day, 27.346 hours/ns, 10.158 timesteps/s
99.9% CPU use with 1 MPI tasks x no OpenMP threads

MPI task timing breakdown:
Section |  min time  |  avg time  |  max time  |%varavg| %total
---------------------------------------------------------------
Pair    | 25.383     | 25.383     | 25.383     |   0.0 | 52.09
Neigh   | 21.536     | 21.536     | 21.536     |   0.0 | 44.19
Comm    | 0.65908    | 0.65908    | 0.65908    |   0.0 |  1.35
Output  | 0.00021291 | 0.00021291 | 0.00021291 |   0.0 |  0.00
Modify  | 0.93081    | 0.93081    | 0.93081    |   0.0 |  1.91
Other   |            | 0.2222     |            |       |  0.46

Nlocal:    19652 ave 19652 max 19652 min
Histogram: 1 0 0 0 0 0 0 0 0 0
Nghost:    13757 ave 13757 max 13757 min
Histogram: 1 0 0 0 0 0 0 0 0 0
Neighs:    703083 ave 703083 max 703083 min
Histogram: 1 0 0 0 0 0 0 0 0 0

Total # of neighbors = 703083
Ave neighs/atom = 35.7767
Neighbor list builds = 495
Dangerous builds not checked
Setting up Verlet run ...
  Unit style    : metal
  Current step  : 56495
  Time step     : 0.001
Per MPI rank memory allocation (min/avg/max) = 18.2 | 18.2 | 18.2 Mbytes
Step Temp Press TotEng PotEng Enthalpy Volume 
   56495    1609.7298    156.10477   -73559.822   -77648.682   -73493.682     678825.1 
   57000    1594.5823    54.864949    -73739.61   -77789.994   -73716.391    678038.28 
Loop time of 49.3171 on 1 procs for 505 steps with 19652 atoms

Performance: 0.885 ns/day, 27.127 hours/ns, 10.240 timesteps/s
99.9% CPU use with 1 MPI tasks x no OpenMP threads

MPI task timing breakdown:
Section |  min time  |  avg time  |  max time  |%varavg| %total
---------------------------------------------------------------
Pair    | 25.637     | 25.637     | 25.637     |   0.0 | 51.98
Neigh   | 21.821     | 21.821     | 21.821     |   0.0 | 44.25
Comm    | 0.66239    | 0.66239    | 0.66239    |   0.0 |  1.34
Output  | 0.04948    | 0.04948    | 0.04948    |   0.0 |  0.10
Modify  | 0.9221     | 0.9221     | 0.9221     |   0.0 |  1.87
Other   |            | 0.2247     |            |       |  0.46

Nlocal:    19652 ave 19652 max 19652 min
Histogram: 1 0 0 0 0 0 0 0 0 0
Nghost:    13785 ave 13785 max 13785 min
Histogram: 1 0 0 0 0 0 0 0 0 0
Neighs:    703095 ave 703095 max 703095 min
Histogram: 1 0 0 0 0 0 0 0 0 0

Total # of neighbors = 703095
Ave neighs/atom = 35.7773
Neighbor list builds = 505
Dangerous builds not checked
Setting up Verlet run ...
  Unit style    : metal
  Current step  : 57000
  Time step     : 0.001
Per MPI rank memory allocation (min/avg/max) = 18.2 | 18.2 | 18.2 Mbytes
Step Temp Press TotEng PotEng Enthalpy Volume 
   57000    1594.5823    54.864949    -73739.61   -77789.994   -73716.391    678038.28 
   57495    1569.6914    210.10312   -73913.448   -77900.607   -73824.662    677055.91 
Loop time of 48.346 on 1 procs for 495 steps with 19652 atoms

Performance: 0.885 ns/day, 27.130 hours/ns, 10.239 timesteps/s
99.9% CPU use with 1 MPI tasks x no OpenMP threads

MPI task timing breakdown:
Section |  min time  |  avg time  |  max time  |%varavg| %total
---------------------------------------------------------------
Pair    | 25.172     | 25.172     | 25.172     |   0.0 | 52.07
Neigh   | 21.398     | 21.398     | 21.398     |   0.0 | 44.26
Comm    | 0.65116    | 0.65116    | 0.65116    |   0.0 |  1.35
Output  | 0.00022697 | 0.00022697 | 0.00022697 |   0.0 |  0.00
Modify  | 0.90397    | 0.90397    | 0.90397    |   0.0 |  1.87
Other   |            | 0.2208     |            |       |  0.46

Nlocal:    19652 ave 19652 max 19652 min
Histogram: 1 0 0 0 0 0 0 0 0 0
Nghost:    13755 ave 13755 max 13755 min
Histogram: 1 0 0 0 0 0 0 0 0 0
Neighs:    703548 ave 703548 max 703548 min
Histogram: 1 0 0 0 0 0 0 0 0 0

Total # of neighbors = 703548
Ave neighs/atom = 35.8003
Neighbor list builds = 495
Dangerous builds not checked
Setting up Verlet run ...
  Unit style    : metal
  Current step  : 57495
  Time step     : 0.001
Per MPI rank memory allocation (min/avg/max) = 18.2 | 18.2 | 18.2 Mbytes
Step Temp Press TotEng PotEng Enthalpy Volume 
   57495    1569.6914    210.10312   -73913.448   -77900.607   -73824.662    677055.91 
   58000    1551.7512    348.48658   -74084.568   -78026.158   -73937.621    675594.87 
Loop time of 50.8891 on 1 procs for 505 steps with 19652 atoms

Performance: 0.857 ns/day, 27.992 hours/ns, 9.924 timesteps/s
99.8% CPU use with 1 MPI tasks x no OpenMP threads

MPI task timing breakdown:
Section |  min time  |  avg time  |  max time  |%varavg| %total
---------------------------------------------------------------
Pair    | 26.666     | 26.666     | 26.666     |   0.0 | 52.40
Neigh   | 22.241     | 22.241     | 22.241     |   0.0 | 43.70
Comm    | 0.70806    | 0.70806    | 0.70806    |   0.0 |  1.39
Output  | 0.04965    | 0.04965    | 0.04965    |   0.0 |  0.10
Modify  | 1.0254     | 1.0254     | 1.0254     |   0.0 |  2.02
Other   |            | 0.1995     |            |       |  0.39

Nlocal:    19652 ave 19652 max 19652 min
Histogram: 1 0 0 0 0 0 0 0 0 0
Nghost:    13800 ave 13800 max 13800 min
Histogram: 1 0 0 0 0 0 0 0 0 0
Neighs:    704933 ave 704933 max 704933 min
Histogram: 1 0 0 0 0 0 0 0 0 0

Total # of neighbors = 704933
Ave neighs/atom = 35.8708
Neighbor list builds = 505
Dangerous builds not checked
Setting up Verlet run ...
  Unit style    : metal
  Current step  : 58000
  Time step     : 0.001
Per MPI rank memory allocation (min/avg/max) = 18.2 | 18.2 | 18.2 Mbytes
Step Temp Press TotEng PotEng Enthalpy Volume 
   58000    1551.7512    348.48658   -74084.568   -78026.158   -73937.621    675594.87 
   58495    1526.5626     356.5511   -74236.138   -78113.746   -74085.925    674989.99 
Loop time of 49.3254 on 1 procs for 495 steps with 19652 atoms

Performance: 0.867 ns/day, 27.680 hours/ns, 10.035 timesteps/s
99.9% CPU use with 1 MPI tasks x no OpenMP threads

MPI task timing breakdown:
Section |  min time  |  avg time  |  max time  |%varavg| %total
---------------------------------------------------------------
Pair    | 25.877     | 25.877     | 25.877     |   0.0 | 52.46
Neigh   | 21.615     | 21.615     | 21.615     |   0.0 | 43.82
Comm    | 0.67217    | 0.67217    | 0.67217    |   0.0 |  1.36
Output  | 0.00019479 | 0.00019479 | 0.00019479 |   0.0 |  0.00
Modify  | 0.97523    | 0.97523    | 0.97523    |   0.0 |  1.98
Other   |            | 0.1857     |            |       |  0.38

Nlocal:    19652 ave 19652 max 19652 min
Histogram: 1 0 0 0 0 0 0 0 0 0
Nghost:    13803 ave 13803 max 13803 min
Histogram: 1 0 0 0 0 0 0 0 0 0
Neighs:    705308 ave 705308 max 705308 min
Histogram: 1 0 0 0 0 0 0 0 0 0

Total # of neighbors = 705308
Ave neighs/atom = 35.8899
Neighbor list builds = 495
Dangerous builds not checked
Setting up Verlet run ...
  Unit style    : metal
  Current step  : 58495
  Time step     : 0.001
Per MPI rank memory allocation (min/avg/max) = 18.2 | 18.2 | 18.2 Mbytes
Step Temp Press TotEng PotEng Enthalpy Volume 
   58495    1526.5626     356.5511   -74236.138   -78113.746   -74085.925    674989.99 
   59000    1505.5792     300.2645   -74399.704   -78224.013   -74273.323    674355.39 
Loop time of 50.0248 on 1 procs for 505 steps with 19652 atoms

Performance: 0.872 ns/day, 27.516 hours/ns, 10.095 timesteps/s
99.9% CPU use with 1 MPI tasks x no OpenMP threads

MPI task timing breakdown:
Section |  min time  |  avg time  |  max time  |%varavg| %total
---------------------------------------------------------------
Pair    | 26.164     | 26.164     | 26.164     |   0.0 | 52.30
Neigh   | 21.952     | 21.952     | 21.952     |   0.0 | 43.88
Comm    | 0.67783    | 0.67783    | 0.67783    |   0.0 |  1.35
Output  | 0.049481   | 0.049481   | 0.049481   |   0.0 |  0.10
Modify  | 0.99338    | 0.99338    | 0.99338    |   0.0 |  1.99
Other   |            | 0.1884     |            |       |  0.38

Nlocal:    19652 ave 19652 max 19652 min
Histogram: 1 0 0 0 0 0 0 0 0 0
Nghost:    13766 ave 13766 max 13766 min
Histogram: 1 0 0 0 0 0 0 0 0 0
Neighs:    705484 ave 705484 max 705484 min
Histogram: 1 0 0 0 0 0 0 0 0 0

Total # of neighbors = 705484
Ave neighs/atom = 35.8988
Neighbor list builds = 505
Dangerous builds not checked
Setting up Verlet run ...
  Unit style    : metal
  Current step  : 59000
  Time step     : 0.001
Per MPI rank memory allocation (min/avg/max) = 18.2 | 18.2 | 18.2 Mbytes
Step Temp Press TotEng PotEng Enthalpy Volume 
   59000    1505.5792     300.2645   -74399.704   -78224.013   -74273.323    674355.39 
   59495    1462.4715    364.89145   -74603.928   -78318.739   -74450.596    673257.17 
Loop time of 49.0629 on 1 procs for 495 steps with 19652 atoms

Performance: 0.872 ns/day, 27.532 hours/ns, 10.089 timesteps/s
99.9% CPU use with 1 MPI tasks x no OpenMP threads

MPI task timing breakdown:
Section |  min time  |  avg time  |  max time  |%varavg| %total
---------------------------------------------------------------
Pair    | 25.732     | 25.732     | 25.732     |   0.0 | 52.45
Neigh   | 21.525     | 21.525     | 21.525     |   0.0 | 43.87
Comm    | 0.66231    | 0.66231    | 0.66231    |   0.0 |  1.35
Output  | 0.00018811 | 0.00018811 | 0.00018811 |   0.0 |  0.00
Modify  | 0.95887    | 0.95887    | 0.95887    |   0.0 |  1.95
Other   |            | 0.1847     |            |       |  0.38

Nlocal:    19652 ave 19652 max 19652 min
Histogram: 1 0 0 0 0 0 0 0 0 0
Nghost:    13806 ave 13806 max 13806 min
Histogram: 1 0 0 0 0 0 0 0 0 0
Neighs:    705960 ave 705960 max 705960 min
Histogram: 1 0 0 0 0 0 0 0 0 0

Total # of neighbors = 705960
Ave neighs/atom = 35.9231
Neighbor list builds = 495
Dangerous builds not checked
Setting up Verlet run ...
  Unit style    : metal
  Current step  : 59495
  Time step     : 0.001
Per MPI rank memory allocation (min/avg/max) = 18.2 | 18.2 | 18.2 Mbytes
Step Temp Press TotEng PotEng Enthalpy Volume 
   59495    1462.4715    364.89145   -74603.928   -78318.739   -74450.596    673257.17 
   60000    1447.9954    395.41173   -74714.693   -78392.734   -74548.659    672758.76 
Loop time of 50.0516 on 1 procs for 505 steps with 19652 atoms

Performance: 0.872 ns/day, 27.531 hours/ns, 10.090 timesteps/s
99.8% CPU use with 1 MPI tasks x no OpenMP threads

MPI task timing breakdown:
Section |  min time  |  avg time  |  max time  |%varavg| %total
---------------------------------------------------------------
Pair    | 26.212     | 26.212     | 26.212     |   0.0 | 52.37
Neigh   | 21.954     | 21.954     | 21.954     |   0.0 | 43.86
Comm    | 0.6721     | 0.6721     | 0.6721     |   0.0 |  1.34
Output  | 0.049869   | 0.049869   | 0.049869   |   0.0 |  0.10
Modify  | 0.97259    | 0.97259    | 0.97259    |   0.0 |  1.94
Other   |            | 0.1908     |            |       |  0.38

Nlocal:    19652 ave 19652 max 19652 min
Histogram: 1 0 0 0 0 0 0 0 0 0
Nghost:    13776 ave 13776 max 13776 min
Histogram: 1 0 0 0 0 0 0 0 0 0
Neighs:    706238 ave 706238 max 706238 min
Histogram: 1 0 0 0 0 0 0 0 0 0

Total # of neighbors = 706238
Ave neighs/atom = 35.9372
Neighbor list builds = 505
Dangerous builds not checked
Setting up Verlet run ...
  Unit style    : metal
  Current step  : 60000
  Time step     : 0.001
Per MPI rank memory allocation (min/avg/max) = 18.2 | 18.2 | 18.2 Mbytes
Step Temp Press TotEng PotEng Enthalpy Volume 
   60000    1447.9954    395.41173   -74714.693   -78392.734   -74548.659    672758.76 
   60495     1414.172    606.12997   -74936.735   -78528.861   -74682.708    671466.26 
Loop time of 49.2275 on 1 procs for 495 steps with 19652 atoms

Performance: 0.869 ns/day, 27.625 hours/ns, 10.055 timesteps/s
99.8% CPU use with 1 MPI tasks x no OpenMP threads

MPI task timing breakdown:
Section |  min time  |  avg time  |  max time  |%varavg| %total
---------------------------------------------------------------
Pair    | 25.881     | 25.881     | 25.881     |   0.0 | 52.57
Neigh   | 21.538     | 21.538     | 21.538     |   0.0 | 43.75
Comm    | 0.66246    | 0.66246    | 0.66246    |   0.0 |  1.35
Output  | 0.00020504 | 0.00020504 | 0.00020504 |   0.0 |  0.00
Modify  | 0.95808    | 0.95808    | 0.95808    |   0.0 |  1.95
Other   |            | 0.1872     |            |       |  0.38

Nlocal:    19652 ave 19652 max 19652 min
Histogram: 1 0 0 0 0 0 0 0 0 0
Nghost:    13823 ave 13823 max 13823 min
Histogram: 1 0 0 0 0 0 0 0 0 0
Neighs:    706984 ave 706984 max 706984 min
Histogram: 1 0 0 0 0 0 0 0 0 0

Total # of neighbors = 706984
Ave neighs/atom = 35.9752
Neighbor list builds = 495
Dangerous builds not checked
Setting up Verlet run ...
  Unit style    : metal
  Current step  : 60495
  Time step     : 0.001
Per MPI rank memory allocation (min/avg/max) = 18.2 | 18.2 | 18.2 Mbytes
Step Temp Press TotEng PotEng Enthalpy Volume 
   60495     1414.172    606.12997   -74936.735   -78528.861   -74682.708    671466.26 
   61000    1390.2985    565.66114    -75073.51   -78604.995   -74836.693    670757.57 
Loop time of 50.6388 on 1 procs for 505 steps with 19652 atoms

Performance: 0.862 ns/day, 27.854 hours/ns, 9.973 timesteps/s
99.8% CPU use with 1 MPI tasks x no OpenMP threads

MPI task timing breakdown:
Section |  min time  |  avg time  |  max time  |%varavg| %total
---------------------------------------------------------------
Pair    | 26.575     | 26.575     | 26.575     |   0.0 | 52.48
Neigh   | 22.133     | 22.133     | 22.133     |   0.0 | 43.71
Comm    | 0.69178    | 0.69178    | 0.69178    |   0.0 |  1.37
Output  | 0.049754   | 0.049754   | 0.049754   |   0.0 |  0.10
Modify  | 0.99543    | 0.99543    | 0.99543    |   0.0 |  1.97
Other   |            | 0.1938     |            |       |  0.38

Nlocal:    19652 ave 19652 max 19652 min
Histogram: 1 0 0 0 0 0 0 0 0 0
Nghost:    13862 ave 13862 max 13862 min
Histogram: 1 0 0 0 0 0 0 0 0 0
Neighs:    707560 ave 707560 max 707560 min
Histogram: 1 0 0 0 0 0 0 0 0 0

Total # of neighbors = 707560
Ave neighs/atom = 36.0045
Neighbor list builds = 505
Dangerous builds not checked
Setting up Verlet run ...
  Unit style    : metal
  Current step  : 61000
  Time step     : 0.001
Per MPI rank memory allocation (min/avg/max) = 18.2 | 18.2 | 18.2 Mbytes
Step Temp Press TotEng PotEng Enthalpy Volume 
   61000    1390.2985    565.66114    -75073.51   -78604.995   -74836.693    670757.57 
   61495    1357.3719    319.13305   -75274.148   -78721.996   -75140.639    670267.38 
Loop time of 49.4434 on 1 procs for 495 steps with 19652 atoms

Performance: 0.865 ns/day, 27.746 hours/ns, 10.011 timesteps/s
99.9% CPU use with 1 MPI tasks x no OpenMP threads

MPI task timing breakdown:
Section |  min time  |  avg time  |  max time  |%varavg| %total
---------------------------------------------------------------
Pair    | 26         | 26         | 26         |   0.0 | 52.59
Neigh   | 21.622     | 21.622     | 21.622     |   0.0 | 43.73
Comm    | 0.66652    | 0.66652    | 0.66652    |   0.0 |  1.35
Output  | 0.00018692 | 0.00018692 | 0.00018692 |   0.0 |  0.00
Modify  | 0.96613    | 0.96613    | 0.96613    |   0.0 |  1.95
Other   |            | 0.1889     |            |       |  0.38

Nlocal:    19652 ave 19652 max 19652 min
Histogram: 1 0 0 0 0 0 0 0 0 0
Nghost:    13810 ave 13810 max 13810 min
Histogram: 1 0 0 0 0 0 0 0 0 0
Neighs:    707567 ave 707567 max 707567 min
Histogram: 1 0 0 0 0 0 0 0 0 0

Total # of neighbors = 707567
Ave neighs/atom = 36.0048
Neighbor list builds = 495
Dangerous builds not checked
Setting up Verlet run ...
  Unit style    : metal
  Current step  : 61495
  Time step     : 0.001
Per MPI rank memory allocation (min/avg/max) = 18.2 | 18.2 | 18.2 Mbytes
Step Temp Press TotEng PotEng Enthalpy Volume 
   61495    1357.3719    319.13305   -75274.148   -78721.996   -75140.639    670267.38 
   62000    1342.1913    225.65597   -75399.734   -78809.023   -75305.384    669895.65 
Loop time of 49.9197 on 1 procs for 505 steps with 19652 atoms

Performance: 0.874 ns/day, 27.459 hours/ns, 10.116 timesteps/s
99.8% CPU use with 1 MPI tasks x no OpenMP threads

MPI task timing breakdown:
Section |  min time  |  avg time  |  max time  |%varavg| %total
---------------------------------------------------------------
Pair    | 26.169     | 26.169     | 26.169     |   0.0 | 52.42
Neigh   | 21.879     | 21.879     | 21.879     |   0.0 | 43.83
Comm    | 0.66454    | 0.66454    | 0.66454    |   0.0 |  1.33
Output  | 0.049125   | 0.049125   | 0.049125   |   0.0 |  0.10
Modify  | 0.95761    | 0.95761    | 0.95761    |   0.0 |  1.92
Other   |            | 0.2009     |            |       |  0.40

Nlocal:    19652 ave 19652 max 19652 min
Histogram: 1 0 0 0 0 0 0 0 0 0
Nghost:    13875 ave 13875 max 13875 min
Histogram: 1 0 0 0 0 0 0 0 0 0
Neighs:    707252 ave 707252 max 707252 min
Histogram: 1 0 0 0 0 0 0 0 0 0

Total # of neighbors = 707252
Ave neighs/atom = 35.9888
Neighbor list builds = 505
Dangerous builds not checked
Setting up Verlet run ...
  Unit style    : metal
  Current step  : 62000
  Time step     : 0.001
Per MPI rank memory allocation (min/avg/max) = 18.2 | 18.2 | 18.2 Mbytes
Step Temp Press TotEng PotEng Enthalpy Volume 
   62000    1342.1913    225.65597   -75399.734   -78809.023   -75305.384    669895.65 
   62495    1319.7479    619.98099   -75603.642   -78955.922   -75345.075    668197.92 
Loop time of 47.9176 on 1 procs for 495 steps with 19652 atoms

Performance: 0.893 ns/day, 26.890 hours/ns, 10.330 timesteps/s
99.9% CPU use with 1 MPI tasks x no OpenMP threads

MPI task timing breakdown:
Section |  min time  |  avg time  |  max time  |%varavg| %total
---------------------------------------------------------------
Pair    | 24.989     | 24.989     | 24.989     |   0.0 | 52.15
Neigh   | 21.219     | 21.219     | 21.219     |   0.0 | 44.28
Comm    | 0.62029    | 0.62029    | 0.62029    |   0.0 |  1.29
Output  | 0.00022197 | 0.00022197 | 0.00022197 |   0.0 |  0.00
Modify  | 0.86965    | 0.86965    | 0.86965    |   0.0 |  1.81
Other   |            | 0.2191     |            |       |  0.46

Nlocal:    19652 ave 19652 max 19652 min
Histogram: 1 0 0 0 0 0 0 0 0 0
Nghost:    13897 ave 13897 max 13897 min
Histogram: 1 0 0 0 0 0 0 0 0 0
Neighs:    708489 ave 708489 max 708489 min
Histogram: 1 0 0 0 0 0 0 0 0 0

Total # of neighbors = 708489
Ave neighs/atom = 36.0518
Neighbor list builds = 495
Dangerous builds not checked
Setting up Verlet run ...
  Unit style    : metal
  Current step  : 62495
  Time step     : 0.001
Per MPI rank memory allocation (min/avg/max) = 18.2 | 18.2 | 18.2 Mbytes
Step Temp Press TotEng PotEng Enthalpy Volume 
   62495    1319.7479    619.98099   -75603.642   -78955.922   -75345.075    668197.92 
   63000    1302.6979     277.1632   -75732.562   -79041.533   -75616.945    668336.23 
Loop time of 49.0455 on 1 procs for 505 steps with 19652 atoms

Performance: 0.890 ns/day, 26.978 hours/ns, 10.297 timesteps/s
99.9% CPU use with 1 MPI tasks x no OpenMP threads

MPI task timing breakdown:
Section |  min time  |  avg time  |  max time  |%varavg| %total
---------------------------------------------------------------
Pair    | 25.598     | 25.598     | 25.598     |   0.0 | 52.19
Neigh   | 21.655     | 21.655     | 21.655     |   0.0 | 44.15
Comm    | 0.63544    | 0.63544    | 0.63544    |   0.0 |  1.30
Output  | 0.049171   | 0.049171   | 0.049171   |   0.0 |  0.10
Modify  | 0.88553    | 0.88553    | 0.88553    |   0.0 |  1.81
Other   |            | 0.2231     |            |       |  0.45

Nlocal:    19652 ave 19652 max 19652 min
Histogram: 1 0 0 0 0 0 0 0 0 0
Nghost:    13893 ave 13893 max 13893 min
Histogram: 1 0 0 0 0 0 0 0 0 0
Neighs:    707788 ave 707788 max 707788 min
Histogram: 1 0 0 0 0 0 0 0 0 0

Total # of neighbors = 707788
Ave neighs/atom = 36.0161
Neighbor list builds = 505
Dangerous builds not checked
Setting up Verlet run ...
  Unit style    : metal
  Current step  : 63000
  Time step     : 0.001
Per MPI rank memory allocation (min/avg/max) = 18.2 | 18.2 | 18.2 Mbytes
Step Temp Press TotEng PotEng Enthalpy Volume 
   63000    1302.6979     277.1632   -75732.562   -79041.533   -75616.945    668336.23 
   63495    1277.8268   -50.334508   -75920.569   -79166.365   -75941.558    668083.96 
Loop time of 48.561 on 1 procs for 495 steps with 19652 atoms

Performance: 0.881 ns/day, 27.251 hours/ns, 10.193 timesteps/s
99.8% CPU use with 1 MPI tasks x no OpenMP threads

MPI task timing breakdown:
Section |  min time  |  avg time  |  max time  |%varavg| %total
---------------------------------------------------------------
Pair    | 25.426     | 25.426     | 25.426     |   0.0 | 52.36
Neigh   | 21.363     | 21.363     | 21.363     |   0.0 | 43.99
Comm    | 0.63962    | 0.63962    | 0.63962    |   0.0 |  1.32
Output  | 0.00018811 | 0.00018811 | 0.00018811 |   0.0 |  0.00
Modify  | 0.92568    | 0.92568    | 0.92568    |   0.0 |  1.91
Other   |            | 0.207      |            |       |  0.43

Nlocal:    19652 ave 19652 max 19652 min
Histogram: 1 0 0 0 0 0 0 0 0 0
Nghost:    13832 ave 13832 max 13832 min
Histogram: 1 0 0 0 0 0 0 0 0 0
Neighs:    707548 ave 707548 max 707548 min
Histogram: 1 0 0 0 0 0 0 0 0 0

Total # of neighbors = 707548
Ave neighs/atom = 36.0039
Neighbor list builds = 495
Dangerous builds not checked
Setting up Verlet run ...
  Unit style    : metal
  Current step  : 63495
  Time step     : 0.001
Per MPI rank memory allocation (min/avg/max) = 18.2 | 18.2 | 18.2 Mbytes
Step Temp Press TotEng PotEng Enthalpy Volume 
   63495    1277.8268   -50.334508   -75920.569   -79166.365   -75941.558    668083.96 
   64000    1257.7894   -69.700465   -76060.111    -79255.01   -76089.168    667928.71 
Loop time of 50.0576 on 1 procs for 505 steps with 19652 atoms

Performance: 0.872 ns/day, 27.534 hours/ns, 10.088 timesteps/s
99.9% CPU use with 1 MPI tasks x no OpenMP threads

MPI task timing breakdown:
Section |  min time  |  avg time  |  max time  |%varavg| %total
---------------------------------------------------------------
Pair    | 26.289     | 26.289     | 26.289     |   0.0 | 52.52
Neigh   | 21.886     | 21.886     | 21.886     |   0.0 | 43.72
Comm    | 0.67385    | 0.67385    | 0.67385    |   0.0 |  1.35
Output  | 0.04938    | 0.04938    | 0.04938    |   0.0 |  0.10
Modify  | 0.96839    | 0.96839    | 0.96839    |   0.0 |  1.93
Other   |            | 0.1911     |            |       |  0.38

Nlocal:    19652 ave 19652 max 19652 min
Histogram: 1 0 0 0 0 0 0 0 0 0
Nghost:    13858 ave 13858 max 13858 min
Histogram: 1 0 0 0 0 0 0 0 0 0
Neighs:    707443 ave 707443 max 707443 min
Histogram: 1 0 0 0 0 0 0 0 0 0

Total # of neighbors = 707443
Ave neighs/atom = 35.9985
Neighbor list builds = 505
Dangerous builds not checked
Setting up Verlet run ...
  Unit style    : metal
  Current step  : 64000
  Time step     : 0.001
Per MPI rank memory allocation (min/avg/max) = 18.2 | 18.2 | 18.2 Mbytes
Step Temp Press TotEng PotEng Enthalpy Volume 
   64000    1257.7894   -69.700465   -76060.111    -79255.01   -76089.168    667928.71 
   64495    1217.4936   -308.33624    -76259.48   -79352.025   -76387.844    667003.13 
Loop time of 49.3534 on 1 procs for 495 steps with 19652 atoms

Performance: 0.867 ns/day, 27.696 hours/ns, 10.030 timesteps/s
99.7% CPU use with 1 MPI tasks x no OpenMP threads

MPI task timing breakdown:
Section |  min time  |  avg time  |  max time  |%varavg| %total
---------------------------------------------------------------
Pair    | 25.945     | 25.945     | 25.945     |   0.0 | 52.57
Neigh   | 21.547     | 21.547     | 21.547     |   0.0 | 43.66
Comm    | 0.66532    | 0.66532    | 0.66532    |   0.0 |  1.35
Output  | 0.00019097 | 0.00019097 | 0.00019097 |   0.0 |  0.00
Modify  | 1.009      | 1.009      | 1.009      |   0.0 |  2.04
Other   |            | 0.1866     |            |       |  0.38

Nlocal:    19652 ave 19652 max 19652 min
Histogram: 1 0 0 0 0 0 0 0 0 0
Nghost:    13900 ave 13900 max 13900 min
Histogram: 1 0 0 0 0 0 0 0 0 0
Neighs:    708152 ave 708152 max 708152 min
[...]
Step Temp Press TotEng PotEng Enthalpy Volume 
   80000    444.79136    106.86035   -81021.839    -82151.65   -80978.689    646956.93 
   80495    423.30383      326.385   -81165.031   -82240.261   -81033.455    645884.74 
Loop time of 53.0591 on 1 procs for 495 steps with 19652 atoms

Performance: 0.806 ns/day, 29.775 hours/ns, 9.329 timesteps/s
92.3% CPU use with 1 MPI tasks x no OpenMP threads

MPI task timing breakdown:
Section |  min time  |  avg time  |  max time  |%varavg| %total
---------------------------------------------------------------
Pair    | 28.265     | 28.265     | 28.265     |   0.0 | 53.27
Neigh   | 22.841     | 22.841     | 22.841     |   0.0 | 43.05
Comm    | 0.70597    | 0.70597    | 0.70597    |   0.0 |  1.33
Output  | 0.00022388 | 0.00022388 | 0.00022388 |   0.0 |  0.00
Modify  | 1.016      | 1.016      | 1.016      |   0.0 |  1.91
Other   |            | 0.2311     |            |       |  0.44

Nlocal:    19652 ave 19652 max 19652 min
Histogram: 1 0 0 0 0 0 0 0 0 0
Nghost:    14043 ave 14043 max 14043 min
Histogram: 1 0 0 0 0 0 0 0 0 0
Neighs:    714461 ave 714461 max 714461 min
Histogram: 1 0 0 0 0 0 0 0 0 0

Total # of neighbors = 714461
Ave neighs/atom = 36.3556
Neighbor list builds = 495
Dangerous builds not checked
Setting up Verlet run ...
  Unit style    : metal
  Current step  : 80495
  Time step     : 0.001
Per MPI rank memory allocation (min/avg/max) = 18.2 | 18.2 | 18.2 Mbytes
Step Temp Press TotEng PotEng Enthalpy Volume 
   80495    423.30383      326.385   -81165.031   -82240.261   -81033.455    645884.74 
   81000    396.90991    193.11704   -81294.147   -82302.335   -81216.327    645630.67 
Loop time of 53.0132 on 1 procs for 505 steps with 19652 atoms

Performance: 0.823 ns/day, 29.160 hours/ns, 9.526 timesteps/s
94.0% CPU use with 1 MPI tasks x no OpenMP threads

MPI task timing breakdown:
Section |  min time  |  avg time  |  max time  |%varavg| %total
---------------------------------------------------------------
Pair    | 28.222     | 28.222     | 28.222     |   0.0 | 53.24
Neigh   | 22.834     | 22.834     | 22.834     |   0.0 | 43.07
Comm    | 0.67651    | 0.67651    | 0.67651    |   0.0 |  1.28
Output  | 0.049136   | 0.049136   | 0.049136   |   0.0 |  0.09
Modify  | 0.97636    | 0.97636    | 0.97636    |   0.0 |  1.84
Other   |            | 0.2551     |            |       |  0.48

Nlocal:    19652 ave 19652 max 19652 min
Histogram: 1 0 0 0 0 0 0 0 0 0
Nghost:    14019 ave 14019 max 14019 min
Histogram: 1 0 0 0 0 0 0 0 0 0
Neighs:    714399 ave 714399 max 714399 min
Histogram: 1 0 0 0 0 0 0 0 0 0

Total # of neighbors = 714399
Ave neighs/atom = 36.3525
Neighbor list builds = 505
Dangerous builds not checked
Setting up Verlet run ...
  Unit style    : metal
  Current step  : 81000
  Time step     : 0.001
Per MPI rank memory allocation (min/avg/max) = 18.2 | 18.2 | 18.2 Mbytes
Step Temp Press TotEng PotEng Enthalpy Volume 
   81000    396.90991    193.11704   -81294.147   -82302.335   -81216.327    645630.67 
   81495    374.33661    245.33033   -81431.042   -82381.892   -81332.275    645020.44 
Loop time of 48.5618 on 1 procs for 495 steps with 19652 atoms

Performance: 0.881 ns/day, 27.251 hours/ns, 10.193 timesteps/s
99.9% CPU use with 1 MPI tasks x no OpenMP threads

MPI task timing breakdown:
Section |  min time  |  avg time  |  max time  |%varavg| %total
---------------------------------------------------------------
Pair    | 25.829     | 25.829     | 25.829     |   0.0 | 53.19
Neigh   | 21.003     | 21.003     | 21.003     |   0.0 | 43.25
Comm    | 0.62402    | 0.62402    | 0.62402    |   0.0 |  1.29
Output  | 0.00022197 | 0.00022197 | 0.00022197 |   0.0 |  0.00
Modify  | 0.87421    | 0.87421    | 0.87421    |   0.0 |  1.80
Other   |            | 0.2317     |            |       |  0.48

Nlocal:    19652 ave 19652 max 19652 min
Histogram: 1 0 0 0 0 0 0 0 0 0
Nghost:    14067 ave 14067 max 14067 min
Histogram: 1 0 0 0 0 0 0 0 0 0
Neighs:    714683 ave 714683 max 714683 min
Histogram: 1 0 0 0 0 0 0 0 0 0

Total # of neighbors = 714683
Ave neighs/atom = 36.3669
Neighbor list builds = 495
Dangerous builds not checked
Setting up Verlet run ...
  Unit style    : metal
  Current step  : 81495
  Time step     : 0.001
Per MPI rank memory allocation (min/avg/max) = 18.2 | 18.2 | 18.2 Mbytes
Step Temp Press TotEng PotEng Enthalpy Volume 
   81495    374.33661    245.33033   -81431.042   -82381.892   -81332.275    645020.44 
   82000     348.3504   -132.67554   -81566.114   -82450.956   -81619.546    645235.73 
Loop time of 55.4977 on 1 procs for 505 steps with 19652 atoms

Performance: 0.786 ns/day, 30.527 hours/ns, 9.099 timesteps/s
90.2% CPU use with 1 MPI tasks x no OpenMP threads

MPI task timing breakdown:
Section |  min time  |  avg time  |  max time  |%varavg| %total
---------------------------------------------------------------
Pair    | 29.666     | 29.666     | 29.666     |   0.0 | 53.45
Neigh   | 23.764     | 23.764     | 23.764     |   0.0 | 42.82
Comm    | 0.71948    | 0.71948    | 0.71948    |   0.0 |  1.30
Output  | 0.049113   | 0.049113   | 0.049113   |   0.0 |  0.09
Modify  | 1.0109     | 1.0109     | 1.0109     |   0.0 |  1.82
Other   |            | 0.288      |            |       |  0.52

Nlocal:    19652 ave 19652 max 19652 min
Histogram: 1 0 0 0 0 0 0 0 0 0
Nghost:    14035 ave 14035 max 14035 min
Histogram: 1 0 0 0 0 0 0 0 0 0
Neighs:    714272 ave 714272 max 714272 min
Histogram: 1 0 0 0 0 0 0 0 0 0

Total # of neighbors = 714272
Ave neighs/atom = 36.346
Neighbor list builds = 505
Dangerous builds not checked
Setting up Verlet run ...
  Unit style    : metal
  Current step  : 82000
  Time step     : 0.001
Per MPI rank memory allocation (min/avg/max) = 18.2 | 18.2 | 18.2 Mbytes
Step Temp Press TotEng PotEng Enthalpy Volume 
   82000     348.3504   -132.67554   -81566.114   -82450.956   -81619.546    645235.73 
   82495    321.48092    164.51461   -81699.723   -82516.314   -81633.569    644262.66 
Loop time of 53.2631 on 1 procs for 495 steps with 19652 atoms

Performance: 0.803 ns/day, 29.890 hours/ns, 9.293 timesteps/s
91.0% CPU use with 1 MPI tasks x no OpenMP threads

MPI task timing breakdown:
Section |  min time  |  avg time  |  max time  |%varavg| %total
---------------------------------------------------------------
Pair    | 28.379     | 28.379     | 28.379     |   0.0 | 53.28
Neigh   | 22.977     | 22.977     | 22.977     |   0.0 | 43.14
Comm    | 0.66581    | 0.66581    | 0.66581    |   0.0 |  1.25
Output  | 0.0002141  | 0.0002141  | 0.0002141  |   0.0 |  0.00
Modify  | 0.97826    | 0.97826    | 0.97826    |   0.0 |  1.84
Other   |            | 0.2628     |            |       |  0.49

Nlocal:    19652 ave 19652 max 19652 min
Histogram: 1 0 0 0 0 0 0 0 0 0
Nghost:    14040 ave 14040 max 14040 min
Histogram: 1 0 0 0 0 0 0 0 0 0
Neighs:    714764 ave 714764 max 714764 min
Histogram: 1 0 0 0 0 0 0 0 0 0

Total # of neighbors = 714764
Ave neighs/atom = 36.3711
Neighbor list builds = 495
Dangerous builds not checked
Setting up Verlet run ...
  Unit style    : metal
  Current step  : 82495
  Time step     : 0.001
Per MPI rank memory allocation (min/avg/max) = 18.2 | 18.2 | 18.2 Mbytes
Step Temp Press TotEng PotEng Enthalpy Volume 
   82495    321.48092    164.51461   -81699.723   -82516.314   -81633.569    644262.66 
   83000    299.24883    -109.2717   -81830.303   -82590.422   -81874.232    644102.36 
Loop time of 49.9069 on 1 procs for 505 steps with 19652 atoms

Performance: 0.874 ns/day, 27.452 hours/ns, 10.119 timesteps/s
99.7% CPU use with 1 MPI tasks x no OpenMP threads

MPI task timing breakdown:
Section |  min time  |  avg time  |  max time  |%varavg| %total
---------------------------------------------------------------
Pair    | 26.585     | 26.585     | 26.585     |   0.0 | 53.27
Neigh   | 21.484     | 21.484     | 21.484     |   0.0 | 43.05
Comm    | 0.64792    | 0.64792    | 0.64792    |   0.0 |  1.30
Output  | 0.049206   | 0.049206   | 0.049206   |   0.0 |  0.10
Modify  | 0.90635    | 0.90635    | 0.90635    |   0.0 |  1.82
Other   |            | 0.2352     |            |       |  0.47

Nlocal:    19652 ave 19652 max 19652 min
Histogram: 1 0 0 0 0 0 0 0 0 0
Nghost:    14025 ave 14025 max 14025 min
Histogram: 1 0 0 0 0 0 0 0 0 0
Neighs:    714484 ave 714484 max 714484 min
Histogram: 1 0 0 0 0 0 0 0 0 0

Total # of neighbors = 714484
Ave neighs/atom = 36.3568
Neighbor list builds = 505
Dangerous builds not checked
Setting up Verlet run ...
  Unit style    : metal
  Current step  : 83000
  Time step     : 0.001
Per MPI rank memory allocation (min/avg/max) = 18.2 | 18.2 | 18.2 Mbytes
Step Temp Press TotEng PotEng Enthalpy Volume 
   83000    299.24883    -109.2717   -81830.303   -82590.422   -81874.232    644102.36 
   83495    273.67626    106.02461   -81961.816   -82656.978   -81919.243    643327.25 
Loop time of 48.8101 on 1 procs for 495 steps with 19652 atoms

Performance: 0.876 ns/day, 27.391 hours/ns, 10.141 timesteps/s
99.9% CPU use with 1 MPI tasks x no OpenMP threads

MPI task timing breakdown:
Section |  min time  |  avg time  |  max time  |%varavg| %total
---------------------------------------------------------------
Pair    | 26.012     | 26.012     | 26.012     |   0.0 | 53.29
Neigh   | 21.03      | 21.03      | 21.03      |   0.0 | 43.09
Comm    | 0.63662    | 0.63662    | 0.63662    |   0.0 |  1.30
Output  | 0.00021982 | 0.00021982 | 0.00021982 |   0.0 |  0.00
Modify  | 0.89788    | 0.89788    | 0.89788    |   0.0 |  1.84
Other   |            | 0.2331     |            |       |  0.48

Nlocal:    19652 ave 19652 max 19652 min
Histogram: 1 0 0 0 0 0 0 0 0 0
Nghost:    14045 ave 14045 max 14045 min
Histogram: 1 0 0 0 0 0 0 0 0 0
Neighs:    714990 ave 714990 max 714990 min
Histogram: 1 0 0 0 0 0 0 0 0 0

Total # of neighbors = 714990
Ave neighs/atom = 36.3826
Neighbor list builds = 495
Dangerous builds not checked
Setting up Verlet run ...
  Unit style    : metal
  Current step  : 83495
  Time step     : 0.001
Per MPI rank memory allocation (min/avg/max) = 18.2 | 18.2 | 18.2 Mbytes
Step Temp Press TotEng PotEng Enthalpy Volume 
   83495    273.67626    106.02461   -81961.816   -82656.978   -81919.243    643327.25 
   84000    249.48952    17.302056    -82094.31   -82728.036   -82087.367    642937.14 
Loop time of 50.0584 on 1 procs for 505 steps with 19652 atoms

Performance: 0.872 ns/day, 27.535 hours/ns, 10.088 timesteps/s
99.5% CPU use with 1 MPI tasks x no OpenMP threads

MPI task timing breakdown:
Section |  min time  |  avg time  |  max time  |%varavg| %total
---------------------------------------------------------------
Pair    | 26.711     | 26.711     | 26.711     |   0.0 | 53.36
Neigh   | 21.516     | 21.516     | 21.516     |   0.0 | 42.98
Comm    | 0.64472    | 0.64472    | 0.64472    |   0.0 |  1.29
Output  | 0.049248   | 0.049248   | 0.049248   |   0.0 |  0.10
Modify  | 0.91723    | 0.91723    | 0.91723    |   0.0 |  1.83
Other   |            | 0.2205     |            |       |  0.44

Nlocal:    19652 ave 19652 max 19652 min
Histogram: 1 0 0 0 0 0 0 0 0 0
Nghost:    14056 ave 14056 max 14056 min
Histogram: 1 0 0 0 0 0 0 0 0 0
Neighs:    714968 ave 714968 max 714968 min
Histogram: 1 0 0 0 0 0 0 0 0 0

Total # of neighbors = 714968
Ave neighs/atom = 36.3814
Neighbor list builds = 505
Dangerous builds not checked
Setting up Verlet run ...
  Unit style    : metal
  Current step  : 84000
  Time step     : 0.001
Per MPI rank memory allocation (min/avg/max) = 18.2 | 18.2 | 18.2 Mbytes
Step Temp Press TotEng PotEng Enthalpy Volume 
   84000    249.48952    17.302056    -82094.31   -82728.036   -82087.367    642937.14 
   84495    224.45516    -44.99502   -82223.866   -82794.003   -82241.911    642545.83 
Loop time of 49.4508 on 1 procs for 495 steps with 19652 atoms

Performance: 0.865 ns/day, 27.750 hours/ns, 10.010 timesteps/s
99.9% CPU use with 1 MPI tasks x no OpenMP threads

MPI task timing breakdown:
Section |  min time  |  avg time  |  max time  |%varavg| %total
---------------------------------------------------------------
Pair    | 26.515     | 26.515     | 26.515     |   0.0 | 53.62
Neigh   | 21.128     | 21.128     | 21.128     |   0.0 | 42.73
Comm    | 0.65748    | 0.65748    | 0.65748    |   0.0 |  1.33
Output  | 0.00019002 | 0.00019002 | 0.00019002 |   0.0 |  0.00
Modify  | 0.95922    | 0.95922    | 0.95922    |   0.0 |  1.94
Other   |            | 0.1908     |            |       |  0.39

Nlocal:    19652 ave 19652 max 19652 min
Histogram: 1 0 0 0 0 0 0 0 0 0
Nghost:    14068 ave 14068 max 14068 min
Histogram: 1 0 0 0 0 0 0 0 0 0
Neighs:    715123 ave 715123 max 715123 min
Histogram: 1 0 0 0 0 0 0 0 0 0

Total # of neighbors = 715123
Ave neighs/atom = 36.3893
Neighbor list builds = 495
Dangerous builds not checked
Setting up Verlet run ...
  Unit style    : metal
  Current step  : 84495
  Time step     : 0.001
Per MPI rank memory allocation (min/avg/max) = 18.2 | 18.2 | 18.2 Mbytes
Step Temp Press TotEng PotEng Enthalpy Volume 
   84495    224.45516    -44.99502   -82223.866   -82794.003   -82241.911    642545.83 
   85000    199.07568   -133.10197   -82354.103   -82859.773   -82407.451    642166.58 
Loop time of 50.5855 on 1 procs for 505 steps with 19652 atoms

Performance: 0.863 ns/day, 27.825 hours/ns, 9.983 timesteps/s
99.7% CPU use with 1 MPI tasks x no OpenMP threads

MPI task timing breakdown:
Section |  min time  |  avg time  |  max time  |%varavg| %total
---------------------------------------------------------------
Pair    | 27.108     | 27.108     | 27.108     |   0.0 | 53.59
Neigh   | 21.575     | 21.575     | 21.575     |   0.0 | 42.65
Comm    | 0.6707     | 0.6707     | 0.6707     |   0.0 |  1.33
Output  | 0.049795   | 0.049795   | 0.049795   |   0.0 |  0.10
Modify  | 0.98019    | 0.98019    | 0.98019    |   0.0 |  1.94
Other   |            | 0.2012     |            |       |  0.40

Nlocal:    19652 ave 19652 max 19652 min
Histogram: 1 0 0 0 0 0 0 0 0 0
Nghost:    14052 ave 14052 max 14052 min
Histogram: 1 0 0 0 0 0 0 0 0 0
Neighs:    714992 ave 714992 max 714992 min
Histogram: 1 0 0 0 0 0 0 0 0 0

Total # of neighbors = 714992
Ave neighs/atom = 36.3827
Neighbor list builds = 505
Dangerous builds not checked
Setting up Verlet run ...
  Unit style    : metal
  Current step  : 85000
  Time step     : 0.001
Per MPI rank memory allocation (min/avg/max) = 18.2 | 18.2 | 18.2 Mbytes
Step Temp Press TotEng PotEng Enthalpy Volume 
   85000    199.07568   -133.10197   -82354.103   -82859.773   -82407.451    642166.58 
   85495    174.95682   -130.99034   -82479.101   -82923.507    -82531.57    641771.99 
Loop time of 49.4016 on 1 procs for 495 steps with 19652 atoms

Performance: 0.866 ns/day, 27.723 hours/ns, 10.020 timesteps/s
99.8% CPU use with 1 MPI tasks x no OpenMP threads

MPI task timing breakdown:
Section |  min time  |  avg time  |  max time  |%varavg| %total
---------------------------------------------------------------
Pair    | 26.502     | 26.502     | 26.502     |   0.0 | 53.65
Neigh   | 21.097     | 21.097     | 21.097     |   0.0 | 42.71
Comm    | 0.65448    | 0.65448    | 0.65448    |   0.0 |  1.32
Output  | 0.00021195 | 0.00021195 | 0.00021195 |   0.0 |  0.00
Modify  | 0.95137    | 0.95137    | 0.95137    |   0.0 |  1.93
Other   |            | 0.1967     |            |       |  0.40

Nlocal:    19652 ave 19652 max 19652 min
Histogram: 1 0 0 0 0 0 0 0 0 0
Nghost:    14066 ave 14066 max 14066 min
Histogram: 1 0 0 0 0 0 0 0 0 0
Neighs:    715533 ave 715533 max 715533 min
Histogram: 1 0 0 0 0 0 0 0 0 0

Total # of neighbors = 715533
Ave neighs/atom = 36.4102
Neighbor list builds = 495
Dangerous builds not checked
Setting up Verlet run ...
  Unit style    : metal
  Current step  : 85495
  Time step     : 0.001
Per MPI rank memory allocation (min/avg/max) = 18.2 | 18.2 | 18.2 Mbytes
Step Temp Press TotEng PotEng Enthalpy Volume 
   85495    174.95682   -130.99034   -82479.101   -82923.507    -82531.57    641771.99 
   86000    151.51356    136.97355   -82610.013   -82994.871   -82555.233    640758.13 
Loop time of 50.337 on 1 procs for 505 steps with 19652 atoms

Performance: 0.867 ns/day, 27.688 hours/ns, 10.032 timesteps/s
99.8% CPU use with 1 MPI tasks x no OpenMP threads

MPI task timing breakdown:
Section |  min time  |  avg time  |  max time  |%varavg| %total
---------------------------------------------------------------
Pair    | 26.978     | 26.978     | 26.978     |   0.0 | 53.59
Neigh   | 21.477     | 21.477     | 21.477     |   0.0 | 42.67
Comm    | 0.66393    | 0.66393    | 0.66393    |   0.0 |  1.32
Output  | 0.049695   | 0.049695   | 0.049695   |   0.0 |  0.10
Modify  | 0.96889    | 0.96889    | 0.96889    |   0.0 |  1.92
Other   |            | 0.1998     |            |       |  0.40

Nlocal:    19652 ave 19652 max 19652 min
Histogram: 1 0 0 0 0 0 0 0 0 0
Nghost:    14088 ave 14088 max 14088 min
Histogram: 1 0 0 0 0 0 0 0 0 0
Neighs:    716052 ave 716052 max 716052 min
Histogram: 1 0 0 0 0 0 0 0 0 0

Total # of neighbors = 716052
Ave neighs/atom = 36.4366
Neighbor list builds = 505
Dangerous builds not checked
Setting up Verlet run ...
  Unit style    : metal
  Current step  : 86000
  Time step     : 0.001
Per MPI rank memory allocation (min/avg/max) = 18.2 | 18.2 | 18.2 Mbytes
Step Temp Press TotEng PotEng Enthalpy Volume 
   86000    151.51356    136.97355   -82610.013   -82994.871   -82555.233    640758.13 
   86495    126.86071   -133.73851   -82732.371   -83054.609   -82785.854    640710.61 
Loop time of 49.4183 on 1 procs for 495 steps with 19652 atoms

Performance: 0.865 ns/day, 27.732 hours/ns, 10.017 timesteps/s
99.7% CPU use with 1 MPI tasks x no OpenMP threads

MPI task timing breakdown:
Section |  min time  |  avg time  |  max time  |%varavg| %total
---------------------------------------------------------------
Pair    | 26.506     | 26.506     | 26.506     |   0.0 | 53.64
Neigh   | 21.108     | 21.108     | 21.108     |   0.0 | 42.71
Comm    | 0.6512     | 0.6512     | 0.6512     |   0.0 |  1.32
Output  | 0.00018883 | 0.00018883 | 0.00018883 |   0.0 |  0.00
Modify  | 0.95778    | 0.95778    | 0.95778    |   0.0 |  1.94
Other   |            | 0.1949     |            |       |  0.39

Nlocal:    19652 ave 19652 max 19652 min
Histogram: 1 0 0 0 0 0 0 0 0 0
Nghost:    14109 ave 14109 max 14109 min
Histogram: 1 0 0 0 0 0 0 0 0 0
Neighs:    716060 ave 716060 max 716060 min
Histogram: 1 0 0 0 0 0 0 0 0 0

Total # of neighbors = 716060
Ave neighs/atom = 36.437
Neighbor list builds = 495
Dangerous builds not checked
Setting up Verlet run ...
  Unit style    : metal
  Current step  : 86495
  Time step     : 0.001
Per MPI rank memory allocation (min/avg/max) = 18.2 | 18.2 | 18.2 Mbytes
Step Temp Press TotEng PotEng Enthalpy Volume 
   86495    126.86071   -133.73851   -82732.371   -83054.609   -82785.854    640710.61 
   87000    102.86975    77.615229   -82860.539   -83121.838   -82829.538    639932.54 
Loop time of 50.3126 on 1 procs for 505 steps with 19652 atoms

Performance: 0.867 ns/day, 27.675 hours/ns, 10.037 timesteps/s
99.8% CPU use with 1 MPI tasks x no OpenMP threads

MPI task timing breakdown:
Section |  min time  |  avg time  |  max time  |%varavg| %total
---------------------------------------------------------------
Pair    | 26.97      | 26.97      | 26.97      |   0.0 | 53.61
Neigh   | 21.461     | 21.461     | 21.461     |   0.0 | 42.66
Comm    | 0.66546    | 0.66546    | 0.66546    |   0.0 |  1.32
Output  | 0.049692   | 0.049692   | 0.049692   |   0.0 |  0.10
Modify  | 0.96943    | 0.96943    | 0.96943    |   0.0 |  1.93
Other   |            | 0.1967     |            |       |  0.39

Nlocal:    19652 ave 19652 max 19652 min
Histogram: 1 0 0 0 0 0 0 0 0 0
Nghost:    14092 ave 14092 max 14092 min
Histogram: 1 0 0 0 0 0 0 0 0 0
Neighs:    716272 ave 716272 max 716272 min
Histogram: 1 0 0 0 0 0 0 0 0 0

Total # of neighbors = 716272
Ave neighs/atom = 36.4478
Neighbor list builds = 505
Dangerous builds not checked
Total wall time: 2:25:45
