LAMMPS (12 Dec 2018)
Lattice spacing in x,y,z = 4 4 4
Created orthogonal box = (0 0 0) to (68 68 68)
  1 by 1 by 1 MPI processor grid
Created 19652 atoms
  Time spent = 0.00606513 secs
Setting atom values ...
  0 settings made for type/fraction
Neighbor list info ...
  update every 1 steps, delay 0 steps, check no
  max neighbors/atom: 2000, page size: 100000
  master list distance cutoff = 8.5
  ghost atom cutoff = 8.5
  binsize = 4.25, bins = 16 16 16
  1 neighbor lists, perpetual/occasional/extra = 1 0 0
  (1) pair eam/alloy, perpetual
      attributes: half, newton on
      pair build: half/bin/atomonly/newton
      stencil: half/bin/3d/newton
      bin: standard
Setting up Verlet run ...
  Unit style    : metal
  Current step  : 0
  Time step     : 0.001
Per MPI rank memory allocation (min/avg/max) = 18.19 | 18.19 | 18.19 Mbytes
Step Temp Press TotEng PotEng Enthalpy Volume 
       0          300    269835.24   -20946.227   -21708.254    32009.758       314432 
    1000    151.80375    268438.64   -20945.988   -21331.584     31735.91       314432 
Loop time of 212.18 on 1 procs for 1000 steps with 19652 atoms

Performance: 0.407 ns/day, 58.939 hours/ns, 4.713 timesteps/s
84.7% CPU use with 1 MPI tasks x no OpenMP threads

MPI task timing breakdown:
Section |  min time  |  avg time  |  max time  |%varavg| %total
---------------------------------------------------------------
Pair    | 133.79     | 133.79     | 133.79     |   0.0 | 63.05
Neigh   | 73.708     | 73.708     | 73.708     |   0.0 | 34.74
Comm    | 2.4479     | 2.4479     | 2.4479     |   0.0 |  1.15
Output  | 0.054434   | 0.054434   | 0.054434   |   0.0 |  0.03
Modify  | 1.1523     | 1.1523     | 1.1523     |   0.0 |  0.54
Other   |            | 1.03       |            |       |  0.49

Nlocal:    19652 ave 19652 max 19652 min
Histogram: 1 0 0 0 0 0 0 0 0 0
Nghost:    20102 ave 20102 max 20102 min
Histogram: 1 0 0 0 0 0 0 0 0 0
Neighs:    1.57475e+06 ave 1.57475e+06 max 1.57475e+06 min
Histogram: 1 0 0 0 0 0 0 0 0 0

Total # of neighbors = 1574754
Ave neighs/atom = 80.132
Neighbor list builds = 1000
Dangerous builds not checked
Setting up Verlet run ...
  Unit style    : metal
  Current step  : 1000
  Time step     : 0.001
Per MPI rank memory allocation (min/avg/max) = 18.19 | 18.19 | 18.19 Mbytes
Step Temp Press TotEng PotEng Enthalpy Volume 
    1000    151.80375    268438.64   -20945.988   -21331.584     31735.91       314432 
    2000    254.95505    323.87078   -28378.886   -29026.495   -28286.869    455204.12 
Loop time of 175.582 on 1 procs for 1000 steps with 19652 atoms

Performance: 0.492 ns/day, 48.773 hours/ns, 5.695 timesteps/s
85.5% CPU use with 1 MPI tasks x no OpenMP threads

MPI task timing breakdown:
Section |  min time  |  avg time  |  max time  |%varavg| %total
---------------------------------------------------------------
Pair    | 101.13     | 101.13     | 101.13     |   0.0 | 57.60
Neigh   | 69.025     | 69.025     | 69.025     |   0.0 | 39.31
Comm    | 1.9137     | 1.9137     | 1.9137     |   0.0 |  1.09
Output  | 0.05453    | 0.05453    | 0.05453    |   0.0 |  0.03
Modify  | 2.5925     | 2.5925     | 2.5925     |   0.0 |  1.48
Other   |            | 0.8663     |            |       |  0.49

Nlocal:    19652 ave 19652 max 19652 min
Histogram: 1 0 0 0 0 0 0 0 0 0
Nghost:    14808 ave 14808 max 14808 min
Histogram: 1 0 0 0 0 0 0 0 0 0
Neighs:    1.11751e+06 ave 1.11751e+06 max 1.11751e+06 min
Histogram: 1 0 0 0 0 0 0 0 0 0

Total # of neighbors = 1117514
Ave neighs/atom = 56.8652
Neighbor list builds = 1000
Dangerous builds not checked
Setting up Verlet run ...
  Unit style    : metal
  Current step  : 2000
  Time step     : 0.001
Per MPI rank memory allocation (min/avg/max) = 18.19 | 18.19 | 18.19 Mbytes
Step Temp Press TotEng PotEng Enthalpy Volume 
    2000    254.95505    323.87078   -28378.886   -29026.495   -28286.869    455204.12 
    3000    447.23603    118.40886   -27268.009    -28404.03   -27233.669     464653.8 
    4000     789.6538    11.468875   -25224.817    -27230.61   -25221.352    484169.93 
    5000    1072.7727    110.57939   -23158.306   -25883.246   -23123.323     506862.7 
    6000    1352.1973    319.63972   -20586.101   -24020.806   -20477.356    545079.99 
    7000     1647.946   -87.749733   -18944.552   -23130.485   -18975.648    567755.01 
    8000    1904.8315    184.27739   -17475.759   -22314.205   -17408.064    588571.47 
    9000    2164.3048   -319.69162   -15870.997   -21368.528   -15994.312    618010.05 
   10000    2428.1332    70.425847   -14161.548   -20329.227   -14132.782    654423.23 
Loop time of 1096.42 on 1 procs for 8000 steps with 19652 atoms

Performance: 0.630 ns/day, 38.070 hours/ns, 7.296 timesteps/s
90.6% CPU use with 1 MPI tasks x no OpenMP threads

MPI task timing breakdown:
Section |  min time  |  avg time  |  max time  |%varavg| %total
---------------------------------------------------------------
Pair    | 623.73     | 623.73     | 623.73     |   0.0 | 56.89
Neigh   | 433.88     | 433.88     | 433.88     |   0.0 | 39.57
Comm    | 12.97      | 12.97      | 12.97      |   0.0 |  1.18
Output  | 0.45253    | 0.45253    | 0.45253    |   0.0 |  0.04
Modify  | 18.898     | 18.898     | 18.898     |   0.0 |  1.72
Other   |            | 6.484      |            |       |  0.59

Nlocal:    19652 ave 19652 max 19652 min
Histogram: 1 0 0 0 0 0 0 0 0 0
Nghost:    13846 ave 13846 max 13846 min
Histogram: 1 0 0 0 0 0 0 0 0 0
Neighs:    749936 ave 749936 max 749936 min
Histogram: 1 0 0 0 0 0 0 0 0 0

Total # of neighbors = 749936
Ave neighs/atom = 38.1608
Neighbor list builds = 8000
Dangerous builds not checked
Setting up Verlet run ...
  Unit style    : metal
  Current step  : 10000
  Time step     : 0.001
Per MPI rank memory allocation (min/avg/max) = 18.2 | 18.2 | 18.2 Mbytes
Step Temp Press TotEng PotEng Enthalpy Volume 
   10000    2428.1332    70.425847   -14161.548   -20329.227   -14132.782    654423.23 
   11000    2464.6719   -212.35626   -13864.199    -20124.69   -13952.189    663863.18 
   12000    2446.8129    259.80863   -14108.928   -20324.056   -14002.811    654398.69 
   13000    2475.7201    103.64438   -13930.027   -20218.581    -13887.31    660330.84 
   14000    2450.1174    -573.6553   -13989.904   -20213.425   -14226.829    661713.46 
   15000    2448.1156    777.08641   -14010.692   -20229.128   -13692.939     655134.6 
   16000    2443.4231    111.07453   -14052.612   -20259.129   -14007.026    657556.02 
   17000    2455.0205   -32.446513   -13971.275   -20207.251   -13984.673    661575.05 
   18000    2458.7269    -205.2006   -14021.857   -20267.247   -14106.274     659118.5 
   19000    2450.3189   -62.912802   -14111.498   -20335.531   -14137.259    656030.72 
   20000    2461.4876   -336.11999    -13930.07   -20182.473   -14069.028    662368.69 
   21000    2444.3848   -69.059334   -14079.764   -20288.724   -14108.056    656367.69 
   22000    2469.5962    3.6455639   -13976.574   -20249.573   -13975.074    658985.14 
   23000    2454.8162    134.66831   -14036.426   -20271.882   -13981.191    657140.52 
   24000    2438.1449     203.0352   -14075.833   -20268.944   -13992.509    657523.99 
   25000    2452.8142    12.275618    -14001.83   -20232.202   -13996.781    659034.66 
   26000     2460.501    81.592073   -14080.475   -20330.372   -14047.056    656229.48 
   27000    2466.8283   -297.40083   -13843.244   -20109.212   -13966.867    665990.21 
   28000    2445.2827   -488.13815   -14010.759       -20222   -14212.012     660556.1 
   29000    2430.9262    85.483899    -14016.73   -20191.504   -13981.464    660974.29 
   30000    2432.3607     162.2476   -14114.703    -20293.12   -14048.206    656645.98 
   31000     2445.066    -290.1204   -13915.256   -20125.946    -14035.56    664372.08 
   32000    2439.0555    97.904279    -14194.41   -20389.833   -14154.549    652312.92 
   33000    2463.0869   -703.54316   -13892.782   -20149.247   -14184.766    664934.58 
   34000     2456.921   -262.02294   -14122.177    -20362.98   -14229.415    655725.09 
   35000    2469.5975   -169.02588    -14027.02   -20300.023   -14096.501    658598.48 
   36000    2454.1574   -152.53744   -13967.457   -20201.241   -14030.408    661200.02 
   37000    2438.8194    409.39004   -14069.603   -20264.427   -13901.795    656729.03 
   38000    2462.3042    190.88512   -13921.107   -20175.585   -13842.386    660743.95 
   39000    2452.1341   -299.72085   -13872.604   -20101.248   -13997.093    665464.28 
   40000    2444.0141    186.27184   -14181.327   -20389.345   -14105.437    652750.97 
Loop time of 3250.54 on 1 procs for 30000 steps with 19652 atoms

Performance: 0.797 ns/day, 30.098 hours/ns, 9.229 timesteps/s
99.4% CPU use with 1 MPI tasks x no OpenMP threads

MPI task timing breakdown:
Section |  min time  |  avg time  |  max time  |%varavg| %total
---------------------------------------------------------------
Pair    | 1752.6     | 1752.6     | 1752.6     |   0.0 | 53.92
Neigh   | 1375       | 1375       | 1375       |   0.0 | 42.30
Comm    | 39.725     | 39.725     | 39.725     |   0.0 |  1.22
Output  | 1.6801     | 1.6801     | 1.6801     |   0.0 |  0.05
Modify  | 60.747     | 60.747     | 60.747     |   0.0 |  1.87
Other   |            | 20.73      |            |       |  0.64

Nlocal:    19652 ave 19652 max 19652 min
Histogram: 1 0 0 0 0 0 0 0 0 0
Nghost:    14067 ave 14067 max 14067 min
Histogram: 1 0 0 0 0 0 0 0 0 0
Neighs:    752257 ave 752257 max 752257 min
Histogram: 1 0 0 0 0 0 0 0 0 0

Total # of neighbors = 752257
Ave neighs/atom = 38.2789
Neighbor list builds = 30000
Dangerous builds not checked
Setting up Verlet run ...
  Unit style    : metal
  Current step  : 40000
  Time step     : 0.001
Per MPI rank memory allocation (min/avg/max) = 18.2 | 18.2 | 18.2 Mbytes
Step Temp Press TotEng PotEng Enthalpy Volume 
   40000    2444.0141    186.27184   -14181.327   -20389.345   -14105.437    652750.97 
   40495    2413.0507   -535.27802   -14189.801    -20319.17   -14409.739     658310.7 
Loop time of 52.7359 on 1 procs for 495 steps with 19652 atoms

Performance: 0.811 ns/day, 29.594 hours/ns, 9.386 timesteps/s
99.8% CPU use with 1 MPI tasks x no OpenMP threads

MPI task timing breakdown:
Section |  min time  |  avg time  |  max time  |%varavg| %total
---------------------------------------------------------------
Pair    | 28.633     | 28.633     | 28.633     |   0.0 | 54.30
Neigh   | 22.069     | 22.069     | 22.069     |   0.0 | 41.85
Comm    | 0.65795    | 0.65795    | 0.65795    |   0.0 |  1.25
Output  | 0.00024986 | 0.00024986 | 0.00024986 |   0.0 |  0.00
Modify  | 1.0203     | 1.0203     | 1.0203     |   0.0 |  1.93
Other   |            | 0.3552     |            |       |  0.67

Nlocal:    19652 ave 19652 max 19652 min
Histogram: 1 0 0 0 0 0 0 0 0 0
Nghost:    13893 ave 13893 max 13893 min
Histogram: 1 0 0 0 0 0 0 0 0 0
Neighs:    745399 ave 745399 max 745399 min
Histogram: 1 0 0 0 0 0 0 0 0 0

Total # of neighbors = 745399
Ave neighs/atom = 37.9299
Neighbor list builds = 495
Dangerous builds not checked
Setting up Verlet run ...
  Unit style    : metal
  Current step  : 40495
  Time step     : 0.001
Per MPI rank memory allocation (min/avg/max) = 18.2 | 18.2 | 18.2 Mbytes
Step Temp Press TotEng PotEng Enthalpy Volume 
   40495    2413.0507   -535.27802   -14189.801    -20319.17   -14409.739     658310.7 
   41000    2410.1377    626.82681   -14346.118   -20468.088   -14092.583    648038.18 
Loop time of 54.5344 on 1 procs for 505 steps with 19652 atoms

Performance: 0.800 ns/day, 29.997 hours/ns, 9.260 timesteps/s
99.7% CPU use with 1 MPI tasks x no OpenMP threads

MPI task timing breakdown:
Section |  min time  |  avg time  |  max time  |%varavg| %total
---------------------------------------------------------------
Pair    | 29.703     | 29.703     | 29.703     |   0.0 | 54.47
Neigh   | 22.634     | 22.634     | 22.634     |   0.0 | 41.50
Comm    | 0.69213    | 0.69213    | 0.69213    |   0.0 |  1.27
Output  | 0.057856   | 0.057856   | 0.057856   |   0.0 |  0.11
Modify  | 1.0608     | 1.0608     | 1.0608     |   0.0 |  1.95
Other   |            | 0.386      |            |       |  0.71

Nlocal:    19652 ave 19652 max 19652 min
Histogram: 1 0 0 0 0 0 0 0 0 0
Nghost:    13959 ave 13959 max 13959 min
Histogram: 1 0 0 0 0 0 0 0 0 0
Neighs:    758053 ave 758053 max 758053 min
Histogram: 1 0 0 0 0 0 0 0 0 0

Total # of neighbors = 758053
Ave neighs/atom = 38.5738
Neighbor list builds = 505
Dangerous builds not checked
Setting up Verlet run ...
  Unit style    : metal
  Current step  : 41000
  Time step     : 0.001
Per MPI rank memory allocation (min/avg/max) = 18.2 | 18.2 | 18.2 Mbytes
Step Temp Press TotEng PotEng Enthalpy Volume 
   41000    2410.1377    626.82681   -14346.118   -20468.088   -14092.583    648038.18 
   41495    2353.7615   -267.45269    -14554.89   -20533.658    -14663.12    648357.24 
Loop time of 52.4652 on 1 procs for 495 steps with 19652 atoms

Performance: 0.815 ns/day, 29.442 hours/ns, 9.435 timesteps/s
99.6% CPU use with 1 MPI tasks x no OpenMP threads

MPI task timing breakdown:
Section |  min time  |  avg time  |  max time  |%varavg| %total
---------------------------------------------------------------
Pair    | 28.652     | 28.652     | 28.652     |   0.0 | 54.61
Neigh   | 21.782     | 21.782     | 21.782     |   0.0 | 41.52
Comm    | 0.64876    | 0.64876    | 0.64876    |   0.0 |  1.24
Output  | 0.00027704 | 0.00027704 | 0.00027704 |   0.0 |  0.00
Modify  | 1.003      | 1.003      | 1.003      |   0.0 |  1.91
Other   |            | 0.3786     |            |       |  0.72

Nlocal:    19652 ave 19652 max 19652 min
Histogram: 1 0 0 0 0 0 0 0 0 0
Nghost:    14073 ave 14073 max 14073 min
Histogram: 1 0 0 0 0 0 0 0 0 0
Neighs:    757421 ave 757421 max 757421 min
Histogram: 1 0 0 0 0 0 0 0 0 0

Total # of neighbors = 757421
Ave neighs/atom = 38.5417
Neighbor list builds = 495
Dangerous builds not checked
Setting up Verlet run ...
  Unit style    : metal
  Current step  : 41495
  Time step     : 0.001
Per MPI rank memory allocation (min/avg/max) = 18.2 | 18.2 | 18.2 Mbytes
Step Temp Press TotEng PotEng Enthalpy Volume 
   41495    2353.7615   -267.45269    -14554.89   -20533.658    -14663.12    648357.24 
   42000    2352.4056   -236.96544   -14686.982   -20662.306   -14782.199    643786.03 
Loop time of 50.8217 on 1 procs for 505 steps with 19652 atoms

Performance: 0.859 ns/day, 27.955 hours/ns, 9.937 timesteps/s
99.7% CPU use with 1 MPI tasks x no OpenMP threads

MPI task timing breakdown:
Section |  min time  |  avg time  |  max time  |%varavg| %total
---------------------------------------------------------------
Pair    | 27.641     | 27.641     | 27.641     |   0.0 | 54.39
Neigh   | 21.333     | 21.333     | 21.333     |   0.0 | 41.98
Comm    | 0.55386    | 0.55386    | 0.55386    |   0.0 |  1.09
Output  | 0.054012   | 0.054012   | 0.054012   |   0.0 |  0.11
Modify  | 0.91537    | 0.91537    | 0.91537    |   0.0 |  1.80
Other   |            | 0.3245     |            |       |  0.64

Nlocal:    19652 ave 19652 max 19652 min
Histogram: 1 0 0 0 0 0 0 0 0 0
Nghost:    14122 ave 14122 max 14122 min
Histogram: 1 0 0 0 0 0 0 0 0 0
Neighs:    762719 ave 762719 max 762719 min
Histogram: 1 0 0 0 0 0 0 0 0 0

Total # of neighbors = 762719
Ave neighs/atom = 38.8113
Neighbor list builds = 505
Dangerous builds not checked
Setting up Verlet run ...
  Unit style    : metal
  Current step  : 42000
  Time step     : 0.001
Per MPI rank memory allocation (min/avg/max) = 18.2 | 18.2 | 18.2 Mbytes
Step Temp Press TotEng PotEng Enthalpy Volume 
   42000    2352.4056   -236.96544   -14686.982   -20662.306   -14782.199    643786.03 
   42495    2311.6164   -347.98446    -14892.62   -20764.336   -15031.647    640101.19 
Loop time of 50.3492 on 1 procs for 495 steps with 19652 atoms

Performance: 0.849 ns/day, 28.254 hours/ns, 9.831 timesteps/s
99.5% CPU use with 1 MPI tasks x no OpenMP threads

MPI task timing breakdown:
Section |  min time  |  avg time  |  max time  |%varavg| %total
---------------------------------------------------------------
Pair    | 27.535     | 27.535     | 27.535     |   0.0 | 54.69
Neigh   | 21.032     | 21.032     | 21.032     |   0.0 | 41.77
Comm    | 0.55418    | 0.55418    | 0.55418    |   0.0 |  1.10
Output  | 0.00022388 | 0.00022388 | 0.00022388 |   0.0 |  0.00
Modify  | 0.90718    | 0.90718    | 0.90718    |   0.0 |  1.80
Other   |            | 0.3209     |            |       |  0.64

Nlocal:    19652 ave 19652 max 19652 min
Histogram: 1 0 0 0 0 0 0 0 0 0
Nghost:    14135 ave 14135 max 14135 min
Histogram: 1 0 0 0 0 0 0 0 0 0
Neighs:    766734 ave 766734 max 766734 min
Histogram: 1 0 0 0 0 0 0 0 0 0

Total # of neighbors = 766734
Ave neighs/atom = 39.0156
Neighbor list builds = 495
Dangerous builds not checked
Setting up Verlet run ...
  Unit style    : metal
  Current step  : 42495
  Time step     : 0.001
Per MPI rank memory allocation (min/avg/max) = 18.2 | 18.2 | 18.2 Mbytes
Step Temp Press TotEng PotEng Enthalpy Volume 
   42495    2311.6164   -347.98446    -14892.62   -20764.336   -15031.647    640101.19 
   43000    2331.7175   -89.730021     -15053.1   -20975.875   -15088.537    632737.96 
Loop time of 53.2057 on 1 procs for 505 steps with 19652 atoms

Performance: 0.820 ns/day, 29.266 hours/ns, 9.491 timesteps/s
99.7% CPU use with 1 MPI tasks x no OpenMP threads

MPI task timing breakdown:
Section |  min time  |  avg time  |  max time  |%varavg| %total
---------------------------------------------------------------
Pair    | 29.178     | 29.178     | 29.178     |   0.0 | 54.84
Neigh   | 22.026     | 22.026     | 22.026     |   0.0 | 41.40
Comm    | 0.62828    | 0.62828    | 0.62828    |   0.0 |  1.18
Output  | 0.057872   | 0.057872   | 0.057872   |   0.0 |  0.11
Modify  | 0.97644    | 0.97644    | 0.97644    |   0.0 |  1.84
Other   |            | 0.3386     |            |       |  0.64

Nlocal:    19652 ave 19652 max 19652 min
Histogram: 1 0 0 0 0 0 0 0 0 0
Nghost:    14157 ave 14157 max 14157 min
Histogram: 1 0 0 0 0 0 0 0 0 0
Neighs:    775775 ave 775775 max 775775 min
Histogram: 1 0 0 0 0 0 0 0 0 0

Total # of neighbors = 775775
Ave neighs/atom = 39.4756
Neighbor list builds = 505
Dangerous builds not checked
Setting up Verlet run ...
  Unit style    : metal
  Current step  : 43000
  Time step     : 0.001
Per MPI rank memory allocation (min/avg/max) = 18.2 | 18.2 | 18.2 Mbytes
Step Temp Press TotEng PotEng Enthalpy Volume 
   43000    2331.7175   -89.730021     -15053.1   -20975.875   -15088.537    632737.96 
   43495    2268.0816   -225.90554   -15191.098   -20952.232   -15280.422    633508.73 
Loop time of 53.839 on 1 procs for 495 steps with 19652 atoms

Performance: 0.794 ns/day, 30.213 hours/ns, 9.194 timesteps/s
99.5% CPU use with 1 MPI tasks x no OpenMP threads

MPI task timing breakdown:
Section |  min time  |  avg time  |  max time  |%varavg| %total
---------------------------------------------------------------
Pair    | 29.673     | 29.673     | 29.673     |   0.0 | 55.11
Neigh   | 22.095     | 22.095     | 22.095     |   0.0 | 41.04
Comm    | 0.6722     | 0.6722     | 0.6722     |   0.0 |  1.25
Output  | 0.00020385 | 0.00020385 | 0.00020385 |   0.0 |  0.00
Modify  | 1.0338     | 1.0338     | 1.0338     |   0.0 |  1.92
Other   |            | 0.3647     |            |       |  0.68

Nlocal:    19652 ave 19652 max 19652 min
Histogram: 1 0 0 0 0 0 0 0 0 0
Nghost:    14088 ave 14088 max 14088 min
Histogram: 1 0 0 0 0 0 0 0 0 0
Neighs:    774906 ave 774906 max 774906 min
Histogram: 1 0 0 0 0 0 0 0 0 0

Total # of neighbors = 774906
Ave neighs/atom = 39.4314
Neighbor list builds = 495
Dangerous builds not checked
Setting up Verlet run ...
  Unit style    : metal
  Current step  : 43495
  Time step     : 0.001
Per MPI rank memory allocation (min/avg/max) = 18.2 | 18.2 | 18.2 Mbytes
Step Temp Press TotEng PotEng Enthalpy Volume 
   43495    2268.0816   -225.90554   -15191.098   -20952.232   -15280.422    633508.73 
   44000    2257.8306    163.70341   -15314.294    -21049.39    -15250.12    628077.43 
Loop time of 53.6645 on 1 procs for 505 steps with 19652 atoms

Performance: 0.813 ns/day, 29.518 hours/ns, 9.410 timesteps/s
99.5% CPU use with 1 MPI tasks x no OpenMP threads

MPI task timing breakdown:
Section |  min time  |  avg time  |  max time  |%varavg| %total
---------------------------------------------------------------
Pair    | 29.506     | 29.506     | 29.506     |   0.0 | 54.98
Neigh   | 22.126     | 22.126     | 22.126     |   0.0 | 41.23
Comm    | 0.63977    | 0.63977    | 0.63977    |   0.0 |  1.19
Output  | 0.055828   | 0.055828   | 0.055828   |   0.0 |  0.10
Modify  | 0.99122    | 0.99122    | 0.99122    |   0.0 |  1.85
Other   |            | 0.346      |            |       |  0.64

Nlocal:    19652 ave 19652 max 19652 min
Histogram: 1 0 0 0 0 0 0 0 0 0
Nghost:    14244 ave 14244 max 14244 min
Histogram: 1 0 0 0 0 0 0 0 0 0
Neighs:    781119 ave 781119 max 781119 min
Histogram: 1 0 0 0 0 0 0 0 0 0

Total # of neighbors = 781119
Ave neighs/atom = 39.7476
Neighbor list builds = 505
Dangerous builds not checked
Setting up Verlet run ...
  Unit style    : metal
  Current step  : 44000
  Time step     : 0.001
Per MPI rank memory allocation (min/avg/max) = 18.2 | 18.2 | 18.2 Mbytes
Step Temp Press TotEng PotEng Enthalpy Volume 
   44000    2257.8306    163.70341   -15314.294    -21049.39    -15250.12    628077.43 
   44495    2217.6573   -265.84161   -15553.544   -21186.596   -15657.373    625757.79 
Loop time of 52.2594 on 1 procs for 495 steps with 19652 atoms

Performance: 0.818 ns/day, 29.326 hours/ns, 9.472 timesteps/s
98.4% CPU use with 1 MPI tasks x no OpenMP threads

MPI task timing breakdown:
Section |  min time  |  avg time  |  max time  |%varavg| %total
---------------------------------------------------------------
Pair    | 28.908     | 28.908     | 28.908     |   0.0 | 55.32
Neigh   | 21.512     | 21.512     | 21.512     |   0.0 | 41.16
Comm    | 0.59321    | 0.59321    | 0.59321    |   0.0 |  1.14
Output  | 0.00032282 | 0.00032282 | 0.00032282 |   0.0 |  0.00
Modify  | 0.93952    | 0.93952    | 0.93952    |   0.0 |  1.80
Other   |            | 0.3063     |            |       |  0.59

Nlocal:    19652 ave 19652 max 19652 min
Histogram: 1 0 0 0 0 0 0 0 0 0
Nghost:    14233 ave 14233 max 14233 min
Histogram: 1 0 0 0 0 0 0 0 0 0
Neighs:    784759 ave 784759 max 784759 min
Histogram: 1 0 0 0 0 0 0 0 0 0

Total # of neighbors = 784759
Ave neighs/atom = 39.9328
Neighbor list builds = 495
Dangerous builds not checked
Setting up Verlet run ...
  Unit style    : metal
  Current step  : 44495
  Time step     : 0.001
Per MPI rank memory allocation (min/avg/max) = 18.2 | 18.2 | 18.2 Mbytes
Step Temp Press TotEng PotEng Enthalpy Volume 
   44495    2217.6573   -265.84161   -15553.544   -21186.596   -15657.373    625757.79 
   45000    2223.4601    725.91697   -15562.503   -21210.294   -15281.157    620959.83 
Loop time of 52.7085 on 1 procs for 505 steps with 19652 atoms

Performance: 0.828 ns/day, 28.993 hours/ns, 9.581 timesteps/s
99.9% CPU use with 1 MPI tasks x no OpenMP threads

MPI task timing breakdown:
Section |  min time  |  avg time  |  max time  |%varavg| %total
---------------------------------------------------------------
Pair    | 29.067     | 29.067     | 29.067     |   0.0 | 55.15
Neigh   | 21.745     | 21.745     | 21.745     |   0.0 | 41.26
Comm    | 0.59302    | 0.59302    | 0.59302    |   0.0 |  1.13
Output  | 0.057902   | 0.057902   | 0.057902   |   0.0 |  0.11
Modify  | 0.93719    | 0.93719    | 0.93719    |   0.0 |  1.78
Other   |            | 0.3076     |            |       |  0.58

Nlocal:    19652 ave 19652 max 19652 min
Histogram: 1 0 0 0 0 0 0 0 0 0
Nghost:    14331 ave 14331 max 14331 min
Histogram: 1 0 0 0 0 0 0 0 0 0
Neighs:    790575 ave 790575 max 790575 min
Histogram: 1 0 0 0 0 0 0 0 0 0

Total # of neighbors = 790575
Ave neighs/atom = 40.2287
Neighbor list builds = 505
Dangerous builds not checked
Setting up Verlet run ...
  Unit style    : metal
  Current step  : 45000
  Time step     : 0.001
Per MPI rank memory allocation (min/avg/max) = 18.2 | 18.2 | 18.2 Mbytes
Step Temp Press TotEng PotEng Enthalpy Volume 
   45000    2223.4601    725.91697   -15562.503   -21210.294   -15281.157    620959.83 
   45495    2158.1618   -771.22658   -15812.894   -21294.821   -16112.903    623251.96 
Loop time of 53.7882 on 1 procs for 495 steps with 19652 atoms

Performance: 0.795 ns/day, 30.184 hours/ns, 9.203 timesteps/s
99.1% CPU use with 1 MPI tasks x no OpenMP threads

MPI task timing breakdown:
Section |  min time  |  avg time  |  max time  |%varavg| %total
---------------------------------------------------------------
Pair    | 29.763     | 29.763     | 29.763     |   0.0 | 55.33
Neigh   | 21.987     | 21.987     | 21.987     |   0.0 | 40.88
Comm    | 0.66901    | 0.66901    | 0.66901    |   0.0 |  1.24
Output  | 0.00035214 | 0.00035214 | 0.00035214 |   0.0 |  0.00
Modify  | 1.0269     | 1.0269     | 1.0269     |   0.0 |  1.91
Other   |            | 0.3421     |            |       |  0.64

Nlocal:    19652 ave 19652 max 19652 min
Histogram: 1 0 0 0 0 0 0 0 0 0
Nghost:    14281 ave 14281 max 14281 min
Histogram: 1 0 0 0 0 0 0 0 0 0
Neighs:    787470 ave 787470 max 787470 min
Histogram: 1 0 0 0 0 0 0 0 0 0

Total # of neighbors = 787470
Ave neighs/atom = 40.0707
Neighbor list builds = 495
Dangerous builds not checked
Setting up Verlet run ...
  Unit style    : metal
  Current step  : 45495
  Time step     : 0.001
Per MPI rank memory allocation (min/avg/max) = 18.2 | 18.2 | 18.2 Mbytes
Step Temp Press TotEng PotEng Enthalpy Volume 
   45495    2158.1618   -771.22658   -15812.894   -21294.821   -16112.903    623251.96 
   46000    2153.0283    770.67014   -15960.873   -21429.762   -15665.128    614836.01 
Loop time of 53.9059 on 1 procs for 505 steps with 19652 atoms

Performance: 0.809 ns/day, 29.651 hours/ns, 9.368 timesteps/s
99.3% CPU use with 1 MPI tasks x no OpenMP threads

MPI task timing breakdown:
Section |  min time  |  avg time  |  max time  |%varavg| %total
---------------------------------------------------------------
Pair    | 29.819     | 29.819     | 29.819     |   0.0 | 55.32
Neigh   | 22.072     | 22.072     | 22.072     |   0.0 | 40.95
Comm    | 0.63741    | 0.63741    | 0.63741    |   0.0 |  1.18
Output  | 0.056019   | 0.056019   | 0.056019   |   0.0 |  0.10
Modify  | 0.99624    | 0.99624    | 0.99624    |   0.0 |  1.85
Other   |            | 0.3249     |            |       |  0.60

Nlocal:    19652 ave 19652 max 19652 min
Histogram: 1 0 0 0 0 0 0 0 0 0
Nghost:    14391 ave 14391 max 14391 min
Histogram: 1 0 0 0 0 0 0 0 0 0
Neighs:    798451 ave 798451 max 798451 min
Histogram: 1 0 0 0 0 0 0 0 0 0

Total # of neighbors = 798451
Ave neighs/atom = 40.6295
Neighbor list builds = 505
Dangerous builds not checked
Setting up Verlet run ...
  Unit style    : metal
  Current step  : 46000
  Time step     : 0.001
Per MPI rank memory allocation (min/avg/max) = 18.2 | 18.2 | 18.2 Mbytes
Step Temp Press TotEng PotEng Enthalpy Volume 
   46000    2153.0283    770.67014   -15960.873   -21429.762   -15665.128    614836.01 
   46495    2114.3343   -206.82352   -16082.542   -21453.144   -16162.059    615987.19 
Loop time of 54.8221 on 1 procs for 495 steps with 19652 atoms

Performance: 0.780 ns/day, 30.764 hours/ns, 9.029 timesteps/s
99.2% CPU use with 1 MPI tasks x no OpenMP threads

MPI task timing breakdown:
Section |  min time  |  avg time  |  max time  |%varavg| %total
---------------------------------------------------------------
Pair    | 30.542     | 30.542     | 30.542     |   0.0 | 55.71
Neigh   | 22.182     | 22.182     | 22.182     |   0.0 | 40.46
Comm    | 0.68884    | 0.68884    | 0.68884    |   0.0 |  1.26
Output  | 0.00039983 | 0.00039983 | 0.00039983 |   0.0 |  0.00
Modify  | 1.0532     | 1.0532     | 1.0532     |   0.0 |  1.92
Other   |            | 0.3549     |            |       |  0.65

Nlocal:    19652 ave 19652 max 19652 min
Histogram: 1 0 0 0 0 0 0 0 0 0
Nghost:    14320 ave 14320 max 14320 min
Histogram: 1 0 0 0 0 0 0 0 0 0
Neighs:    796601 ave 796601 max 796601 min
Histogram: 1 0 0 0 0 0 0 0 0 0

Total # of neighbors = 796601
Ave neighs/atom = 40.5354
Neighbor list builds = 495
Dangerous builds not checked
Setting up Verlet run ...
  Unit style    : metal
  Current step  : 46495
  Time step     : 0.001
Per MPI rank memory allocation (min/avg/max) = 18.2 | 18.2 | 18.2 Mbytes
Step Temp Press TotEng PotEng Enthalpy Volume 
   46495    2114.3343   -206.82352   -16082.542   -21453.144   -16162.059    615987.19 
   47000     2085.326    456.36383   -16245.924   -21542.842   -16072.068    610366.03 
Loop time of 56.6193 on 1 procs for 505 steps with 19652 atoms

Performance: 0.771 ns/day, 31.144 hours/ns, 8.919 timesteps/s
99.5% CPU use with 1 MPI tasks x no OpenMP threads

MPI task timing breakdown:
Section |  min time  |  avg time  |  max time  |%varavg| %total
---------------------------------------------------------------
Pair    | 31.062     | 31.062     | 31.062     |   0.0 | 54.86
Neigh   | 23.379     | 23.379     | 23.379     |   0.0 | 41.29
Comm    | 0.69351    | 0.69351    | 0.69351    |   0.0 |  1.22
Output  | 0.058036   | 0.058036   | 0.058036   |   0.0 |  0.10
Modify  | 1.0679     | 1.0679     | 1.0679     |   0.0 |  1.89
Other   |            | 0.3586     |            |       |  0.63

Nlocal:    19652 ave 19652 max 19652 min
Histogram: 1 0 0 0 0 0 0 0 0 0
Nghost:    14327 ave 14327 max 14327 min
Histogram: 1 0 0 0 0 0 0 0 0 0
Neighs:    804659 ave 804659 max 804659 min
Histogram: 1 0 0 0 0 0 0 0 0 0

Total # of neighbors = 804659
Ave neighs/atom = 40.9454
Neighbor list builds = 505
Dangerous builds not checked
Setting up Verlet run ...
  Unit style    : metal
  Current step  : 47000
  Time step     : 0.001
Per MPI rank memory allocation (min/avg/max) = 18.22 | 18.22 | 18.22 Mbytes
Step Temp Press TotEng PotEng Enthalpy Volume 
   47000     2085.326    456.36383   -16245.924   -21542.842   -16072.068    610366.03 
   47495    2067.4392   -146.33896   -16430.801   -21682.285   -16486.363    608315.25 
Loop time of 56.3925 on 1 procs for 495 steps with 19652 atoms

Performance: 0.758 ns/day, 31.646 hours/ns, 8.778 timesteps/s
99.3% CPU use with 1 MPI tasks x no OpenMP threads

MPI task timing breakdown:
Section |  min time  |  avg time  |  max time  |%varavg| %total
---------------------------------------------------------------
Pair    | 30.443     | 30.443     | 30.443     |   0.0 | 53.98
Neigh   | 23.884     | 23.884     | 23.884     |   0.0 | 42.35
Comm    | 0.67218    | 0.67218    | 0.67218    |   0.0 |  1.19
Output  | 0.00030398 | 0.00030398 | 0.00030398 |   0.0 |  0.00
Modify  | 1.0435     | 1.0435     | 1.0435     |   0.0 |  1.85
Other   |            | 0.3497     |            |       |  0.62

Nlocal:    19652 ave 19652 max 19652 min
Histogram: 1 0 0 0 0 0 0 0 0 0
Nghost:    14502 ave 14502 max 14502 min
Histogram: 1 0 0 0 0 0 0 0 0 0
Neighs:    806501 ave 806501 max 806501 min
Histogram: 1 0 0 0 0 0 0 0 0 0

Total # of neighbors = 806501
Ave neighs/atom = 41.0391
Neighbor list builds = 495
Dangerous builds not checked
Setting up Verlet run ...
  Unit style    : metal
  Current step  : 47495
  Time step     : 0.001
Per MPI rank memory allocation (min/avg/max) = 18.22 | 18.22 | 18.22 Mbytes
Step Temp Press TotEng PotEng Enthalpy Volume 
   47495    2067.4392   -146.33896   -16430.801   -21682.285   -16486.363    608315.25 
   48000     2045.325    201.02592   -16557.188     -21752.5   -16481.457    603575.59 
Loop time of 59.5492 on 1 procs for 505 steps with 19652 atoms

Performance: 0.733 ns/day, 32.755 hours/ns, 8.480 timesteps/s
99.4% CPU use with 1 MPI tasks x no OpenMP threads

MPI task timing breakdown:
Section |  min time  |  avg time  |  max time  |%varavg| %total
---------------------------------------------------------------
Pair    | 32.468     | 32.468     | 32.468     |   0.0 | 54.52
Neigh   | 24.809     | 24.809     | 24.809     |   0.0 | 41.66
Comm    | 0.73693    | 0.73693    | 0.73693    |   0.0 |  1.24
Output  | 0.05521    | 0.05521    | 0.05521    |   0.0 |  0.09
Modify  | 1.1128     | 1.1128     | 1.1128     |   0.0 |  1.87
Other   |            | 0.3671     |            |       |  0.62

Nlocal:    19652 ave 19652 max 19652 min
Histogram: 1 0 0 0 0 0 0 0 0 0
Nghost:    14422 ave 14422 max 14422 min
Histogram: 1 0 0 0 0 0 0 0 0 0
Neighs:    812432 ave 812432 max 812432 min
Histogram: 1 0 0 0 0 0 0 0 0 0

Total # of neighbors = 812432
Ave neighs/atom = 41.3409
Neighbor list builds = 505
Dangerous builds not checked
Setting up Verlet run ...
  Unit style    : metal
  Current step  : 48000
  Time step     : 0.001
Per MPI rank memory allocation (min/avg/max) = 18.22 | 18.22 | 18.22 Mbytes
Step Temp Press TotEng PotEng Enthalpy Volume 
   48000     2045.325    201.02592   -16557.188     -21752.5   -16481.457    603575.59 
   48495    1993.3487    108.57604   -16793.982   -21857.269   -16753.192    601916.74 
Loop time of 54.5365 on 1 procs for 495 steps with 19652 atoms

Performance: 0.784 ns/day, 30.604 hours/ns, 9.076 timesteps/s
99.3% CPU use with 1 MPI tasks x no OpenMP threads

MPI task timing breakdown:
Section |  min time  |  avg time  |  max time  |%varavg| %total
---------------------------------------------------------------
Pair    | 29.534     | 29.534     | 29.534     |   0.0 | 54.16
Neigh   | 23.194     | 23.194     | 23.194     |   0.0 | 42.53
Comm    | 0.58309    | 0.58309    | 0.58309    |   0.0 |  1.07
Output  | 0.000283   | 0.000283   | 0.000283   |   0.0 |  0.00
Modify  | 0.92178    | 0.92178    | 0.92178    |   0.0 |  1.69
Other   |            | 0.3029     |            |       |  0.56

Nlocal:    19652 ave 19652 max 19652 min
Histogram: 1 0 0 0 0 0 0 0 0 0
Nghost:    14479 ave 14479 max 14479 min
Histogram: 1 0 0 0 0 0 0 0 0 0
Neighs:    815146 ave 815146 max 815146 min
Histogram: 1 0 0 0 0 0 0 0 0 0

Total # of neighbors = 815146
Ave neighs/atom = 41.479
Neighbor list builds = 495
Dangerous builds not checked
Setting up Verlet run ...
  Unit style    : metal
  Current step  : 48495
  Time step     : 0.001
Per MPI rank memory allocation (min/avg/max) = 18.22 | 18.22 | 18.22 Mbytes
Step Temp Press TotEng PotEng Enthalpy Volume 
   48495    1993.3487    108.57604   -16793.982   -21857.269   -16753.192    601916.74 
   49000    2008.8156     699.7771   -16822.934   -21925.509   -16561.143    599384.16 
Loop time of 55.4581 on 1 procs for 505 steps with 19652 atoms

Performance: 0.787 ns/day, 30.505 hours/ns, 9.106 timesteps/s
99.6% CPU use with 1 MPI tasks x no OpenMP threads

MPI task timing breakdown:
Section |  min time  |  avg time  |  max time  |%varavg| %total
---------------------------------------------------------------
Pair    | 30.048     | 30.048     | 30.048     |   0.0 | 54.18
Neigh   | 23.512     | 23.512     | 23.512     |   0.0 | 42.40
Comm    | 0.59177    | 0.59177    | 0.59177    |   0.0 |  1.07
Output  | 0.062395   | 0.062395   | 0.062395   |   0.0 |  0.11
Modify  | 0.93688    | 0.93688    | 0.93688    |   0.0 |  1.69
Other   |            | 0.3069     |            |       |  0.55

Nlocal:    19652 ave 19652 max 19652 min
Histogram: 1 0 0 0 0 0 0 0 0 0
Nghost:    14438 ave 14438 max 14438 min
Histogram: 1 0 0 0 0 0 0 0 0 0
Neighs:    818513 ave 818513 max 818513 min
Histogram: 1 0 0 0 0 0 0 0 0 0

Total # of neighbors = 818513
Ave neighs/atom = 41.6504
Neighbor list builds = 505
Dangerous builds not checked
Setting up Verlet run ...
  Unit style    : metal
  Current step  : 49000
  Time step     : 0.001
Per MPI rank memory allocation (min/avg/max) = 18.22 | 18.22 | 18.22 Mbytes
Step Temp Press TotEng PotEng Enthalpy Volume 
   49000    2008.8156     699.7771   -16822.934   -21925.509   -16561.143    599384.16 
   49495    1951.9378    14.999719   -17024.188   -21982.287    -17018.58    598990.61 
Loop time of 55.2935 on 1 procs for 495 steps with 19652 atoms

Performance: 0.773 ns/day, 31.029 hours/ns, 8.952 timesteps/s
98.1% CPU use with 1 MPI tasks x no OpenMP threads

MPI task timing breakdown:
Section |  min time  |  avg time  |  max time  |%varavg| %total
---------------------------------------------------------------
Pair    | 30.035     | 30.035     | 30.035     |   0.0 | 54.32
Neigh   | 23.428     | 23.428     | 23.428     |   0.0 | 42.37
Comm    | 0.59242    | 0.59242    | 0.59242    |   0.0 |  1.07
Output  | 0.00030613 | 0.00030613 | 0.00030613 |   0.0 |  0.00
Modify  | 0.93425    | 0.93425    | 0.93425    |   0.0 |  1.69
Other   |            | 0.3039     |            |       |  0.55

Nlocal:    19652 ave 19652 max 19652 min
Histogram: 1 0 0 0 0 0 0 0 0 0
Nghost:    14428 ave 14428 max 14428 min
Histogram: 1 0 0 0 0 0 0 0 0 0
Neighs:    819224 ave 819224 max 819224 min
Histogram: 1 0 0 0 0 0 0 0 0 0

Total # of neighbors = 819224
Ave neighs/atom = 41.6865
Neighbor list builds = 495
Dangerous builds not checked
Setting up Verlet run ...
  Unit style    : metal
  Current step  : 49495
  Time step     : 0.001
Per MPI rank memory allocation (min/avg/max) = 18.22 | 18.22 | 18.22 Mbytes
Step Temp Press TotEng PotEng Enthalpy Volume 
   49495    1951.9378    14.999719   -17024.188   -21982.287    -17018.58    598990.61 
   50000    1942.7122    691.72797   -17160.115   -22094.781   -16903.911    593418.23 
Loop time of 57.0467 on 1 procs for 505 steps with 19652 atoms

Performance: 0.765 ns/day, 31.379 hours/ns, 8.852 timesteps/s
98.6% CPU use with 1 MPI tasks x no OpenMP threads

MPI task timing breakdown:
Section |  min time  |  avg time  |  max time  |%varavg| %total
---------------------------------------------------------------
Pair    | 31.019     | 31.019     | 31.019     |   0.0 | 54.38
Neigh   | 24.027     | 24.027     | 24.027     |   0.0 | 42.12
Comm    | 0.63667    | 0.63667    | 0.63667    |   0.0 |  1.12
Output  | 0.055323   | 0.055323   | 0.055323   |   0.0 |  0.10
Modify  | 0.98332    | 0.98332    | 0.98332    |   0.0 |  1.72
Other   |            | 0.3256     |            |       |  0.57

Nlocal:    19652 ave 19652 max 19652 min
Histogram: 1 0 0 0 0 0 0 0 0 0
Nghost:    14587 ave 14587 max 14587 min
Histogram: 1 0 0 0 0 0 0 0 0 0
Neighs:    826684 ave 826684 max 826684 min
Histogram: 1 0 0 0 0 0 0 0 0 0

Total # of neighbors = 826684
Ave neighs/atom = 42.0662
Neighbor list builds = 505
Dangerous builds not checked
Setting up Verlet run ...
  Unit style    : metal
  Current step  : 50000
  Time step     : 0.001
Per MPI rank memory allocation (min/avg/max) = 18.22 | 18.22 | 18.22 Mbytes
Step Temp Press TotEng PotEng Enthalpy Volume 
   50000    1942.7122    691.72797   -17160.115   -22094.781   -16903.911    593418.23 
   50495     1896.265   -28.749416   -17310.924    -22127.61   -17321.604    595170.17 
Loop time of 56.062 on 1 procs for 495 steps with 19652 atoms

Performance: 0.763 ns/day, 31.460 hours/ns, 8.830 timesteps/s
99.4% CPU use with 1 MPI tasks x no OpenMP threads

MPI task timing breakdown:
Section |  min time  |  avg time  |  max time  |%varavg| %total
---------------------------------------------------------------
Pair    | 30.628     | 30.628     | 30.628     |   0.0 | 54.63
Neigh   | 23.466     | 23.466     | 23.466     |   0.0 | 41.86
Comm    | 0.65139    | 0.65139    | 0.65139    |   0.0 |  1.16
Output  | 0.00030589 | 0.00030589 | 0.00030589 |   0.0 |  0.00
Modify  | 0.98735    | 0.98735    | 0.98735    |   0.0 |  1.76
Other   |            | 0.3285     |            |       |  0.59

Nlocal:    19652 ave 19652 max 19652 min
Histogram: 1 0 0 0 0 0 0 0 0 0
Nghost:    14604 ave 14604 max 14604 min
Histogram: 1 0 0 0 0 0 0 0 0 0
Neighs:    824872 ave 824872 max 824872 min
Histogram: 1 0 0 0 0 0 0 0 0 0

Total # of neighbors = 824872
Ave neighs/atom = 41.9739
Neighbor list builds = 495
Dangerous builds not checked
Setting up Verlet run ...
  Unit style    : metal
  Current step  : 50495
  Time step     : 0.001
Per MPI rank memory allocation (min/avg/max) = 18.22 | 18.22 | 18.22 Mbytes
Step Temp Press TotEng PotEng Enthalpy Volume 
   50495     1896.265   -28.749416   -17310.924    -22127.61   -17321.604    595170.17 
   51000    1897.8191    513.20235   -17459.748   -22280.381   -17271.141    588816.84 
Loop time of 62.3225 on 1 procs for 505 steps with 19652 atoms

Performance: 0.700 ns/day, 34.281 hours/ns, 8.103 timesteps/s
99.3% CPU use with 1 MPI tasks x no OpenMP threads

MPI task timing breakdown:
Section |  min time  |  avg time  |  max time  |%varavg| %total
---------------------------------------------------------------
Pair    | 34.275     | 34.275     | 34.275     |   0.0 | 55.00
Neigh   | 25.546     | 25.546     | 25.546     |   0.0 | 40.99
Comm    | 0.82614    | 0.82614    | 0.82614    |   0.0 |  1.33
Output  | 0.05887    | 0.05887    | 0.05887    |   0.0 |  0.09
Modify  | 1.2102     | 1.2102     | 1.2102     |   0.0 |  1.94
Other   |            | 0.4065     |            |       |  0.65

Nlocal:    19652 ave 19652 max 19652 min
Histogram: 1 0 0 0 0 0 0 0 0 0
Nghost:    14480 ave 14480 max 14480 min
Histogram: 1 0 0 0 0 0 0 0 0 0
Neighs:    833686 ave 833686 max 833686 min
Histogram: 1 0 0 0 0 0 0 0 0 0

Total # of neighbors = 833686
Ave neighs/atom = 42.4225
Neighbor list builds = 505
Dangerous builds not checked
Setting up Verlet run ...
  Unit style    : metal
  Current step  : 51000
  Time step     : 0.001
Per MPI rank memory allocation (min/avg/max) = 18.22 | 18.22 | 18.22 Mbytes
Step Temp Press TotEng PotEng Enthalpy Volume 
   51000    1897.8191    513.20235   -17459.748   -22280.381   -17271.141    588816.84 
   51495     1860.231   -340.13865   -17595.261   -22320.417   -17720.514    589986.46 
Loop time of 60.7343 on 1 procs for 495 steps with 19652 atoms

Performance: 0.704 ns/day, 34.082 hours/ns, 8.150 timesteps/s
99.4% CPU use with 1 MPI tasks x no OpenMP threads

MPI task timing breakdown:
Section |  min time  |  avg time  |  max time  |%varavg| %total
---------------------------------------------------------------
Pair    | 33.472     | 33.472     | 33.472     |   0.0 | 55.11
Neigh   | 24.86      | 24.86      | 24.86      |   0.0 | 40.93
Comm    | 0.80513    | 0.80513    | 0.80513    |   0.0 |  1.33
Output  | 0.00031281 | 0.00031281 | 0.00031281 |   0.0 |  0.00
Modify  | 1.1817     | 1.1817     | 1.1817     |   0.0 |  1.95
Other   |            | 0.415      |            |       |  0.68

Nlocal:    19652 ave 19652 max 19652 min
Histogram: 1 0 0 0 0 0 0 0 0 0
Nghost:    14428 ave 14428 max 14428 min
Histogram: 1 0 0 0 0 0 0 0 0 0
Neighs:    831862 ave 831862 max 831862 min
Histogram: 1 0 0 0 0 0 0 0 0 0

Total # of neighbors = 831862
Ave neighs/atom = 42.3296
Neighbor list builds = 495
Dangerous builds not checked
Setting up Verlet run ...
  Unit style    : metal
  Current step  : 51495
  Time step     : 0.001
Per MPI rank memory allocation (min/avg/max) = 18.22 | 18.22 | 18.22 Mbytes
Step Temp Press TotEng PotEng Enthalpy Volume 
   51495     1860.231   -340.13865   -17595.261   -22320.417   -17720.514    589986.46 
   52000    1854.5392    414.98211   -17739.638   -22450.337   -17588.152    584864.37 
Loop time of 64.551 on 1 procs for 505 steps with 19652 atoms

Performance: 0.676 ns/day, 35.507 hours/ns, 7.823 timesteps/s
98.7% CPU use with 1 MPI tasks x no OpenMP threads

MPI task timing breakdown:
Section |  min time  |  avg time  |  max time  |%varavg| %total
---------------------------------------------------------------
Pair    | 35.728     | 35.728     | 35.728     |   0.0 | 55.35
Neigh   | 26.064     | 26.064     | 26.064     |   0.0 | 40.38
Comm    | 0.90463    | 0.90463    | 0.90463    |   0.0 |  1.40
Output  | 0.056605   | 0.056605   | 0.056605   |   0.0 |  0.09
Modify  | 1.3444     | 1.3444     | 1.3444     |   0.0 |  2.08
Other   |            | 0.4534     |            |       |  0.70

Nlocal:    19652 ave 19652 max 19652 min
Histogram: 1 0 0 0 0 0 0 0 0 0
Nghost:    14479 ave 14479 max 14479 min
Histogram: 1 0 0 0 0 0 0 0 0 0
Neighs:    839079 ave 839079 max 839079 min
Histogram: 1 0 0 0 0 0 0 0 0 0

Total # of neighbors = 839079
Ave neighs/atom = 42.6969
Neighbor list builds = 505
Dangerous builds not checked
Setting up Verlet run ...
  Unit style    : metal
  Current step  : 52000
  Time step     : 0.001
Per MPI rank memory allocation (min/avg/max) = 18.22 | 18.22 | 18.22 Mbytes
Step Temp Press TotEng PotEng Enthalpy Volume 
   52000    1854.5392    414.98211   -17739.638   -22450.337   -17588.152    584864.37 
   52495    1814.4004    104.76472   -17918.582   -22527.324   -17880.418    583647.26 
Loop time of 56.5016 on 1 procs for 495 steps with 19652 atoms

Performance: 0.757 ns/day, 31.707 hours/ns, 8.761 timesteps/s
99.7% CPU use with 1 MPI tasks x no OpenMP threads

MPI task timing breakdown:
Section |  min time  |  avg time  |  max time  |%varavg| %total
---------------------------------------------------------------
Pair    | 31.09      | 31.09      | 31.09      |   0.0 | 55.03
Neigh   | 23.421     | 23.421     | 23.421     |   0.0 | 41.45
Comm    | 0.65908    | 0.65908    | 0.65908    |   0.0 |  1.17
Output  | 0.00053    | 0.00053    | 0.00053    |   0.0 |  0.00
Modify  | 0.99035    | 0.99035    | 0.99035    |   0.0 |  1.75
Other   |            | 0.3407     |            |       |  0.60

Nlocal:    19652 ave 19652 max 19652 min
Histogram: 1 0 0 0 0 0 0 0 0 0
Nghost:    14626 ave 14626 max 14626 min
Histogram: 1 0 0 0 0 0 0 0 0 0
Neighs:    841110 ave 841110 max 841110 min
Histogram: 1 0 0 0 0 0 0 0 0 0

Total # of neighbors = 841110
Ave neighs/atom = 42.8002
Neighbor list builds = 495
Dangerous builds not checked
Setting up Verlet run ...
  Unit style    : metal
  Current step  : 52495
  Time step     : 0.001
Per MPI rank memory allocation (min/avg/max) = 18.22 | 18.22 | 18.22 Mbytes
Step Temp Press TotEng PotEng Enthalpy Volume 
   52495    1814.4004    104.76472   -17918.582   -22527.324   -17880.418    583647.26 
   53000    1796.2137    344.98607   -18055.332   -22617.879    -17930.35    580440.19 
Loop time of 57.9807 on 1 procs for 505 steps with 19652 atoms

Performance: 0.753 ns/day, 31.893 hours/ns, 8.710 timesteps/s
99.8% CPU use with 1 MPI tasks x no OpenMP threads

MPI task timing breakdown:
Section |  min time  |  avg time  |  max time  |%varavg| %total
---------------------------------------------------------------
Pair    | 31.926     | 31.926     | 31.926     |   0.0 | 55.06
Neigh   | 23.943     | 23.943     | 23.943     |   0.0 | 41.29
Comm    | 0.67995    | 0.67995    | 0.67995    |   0.0 |  1.17
Output  | 0.057628   | 0.057628   | 0.057628   |   0.0 |  0.10
Modify  | 1.0274     | 1.0274     | 1.0274     |   0.0 |  1.77
Other   |            | 0.3469     |            |       |  0.60

Nlocal:    19652 ave 19652 max 19652 min
Histogram: 1 0 0 0 0 0 0 0 0 0
Nghost:    14654 ave 14654 max 14654 min
Histogram: 1 0 0 0 0 0 0 0 0 0
Neighs:    845516 ave 845516 max 845516 min
Histogram: 1 0 0 0 0 0 0 0 0 0

Total # of neighbors = 845516
Ave neighs/atom = 43.0244
Neighbor list builds = 505
Dangerous builds not checked
Setting up Verlet run ...
  Unit style    : metal
  Current step  : 53000
  Time step     : 0.001
Per MPI rank memory allocation (min/avg/max) = 18.22 | 18.22 | 18.22 Mbytes
Step Temp Press TotEng PotEng Enthalpy Volume 
   53000    1796.2137    344.98607   -18055.332   -22617.879    -17930.35    580440.19 
   53495    1761.5251   -374.83881   -18204.167   -22678.601   -18339.917    580236.81 
Loop time of 61.2578 on 1 procs for 495 steps with 19652 atoms

Performance: 0.698 ns/day, 34.376 hours/ns, 8.081 timesteps/s
97.0% CPU use with 1 MPI tasks x no OpenMP threads

MPI task timing breakdown:
Section |  min time  |  avg time  |  max time  |%varavg| %total
---------------------------------------------------------------
Pair    | 34.076     | 34.076     | 34.076     |   0.0 | 55.63
Neigh   | 24.929     | 24.929     | 24.929     |   0.0 | 40.70
Comm    | 0.76216    | 0.76216    | 0.76216    |   0.0 |  1.24
Output  | 0.00023413 | 0.00023413 | 0.00023413 |   0.0 |  0.00
Modify  | 1.1094     | 1.1094     | 1.1094     |   0.0 |  1.81
Other   |            | 0.3803     |            |       |  0.62

Nlocal:    19652 ave 19652 max 19652 min
Histogram: 1 0 0 0 0 0 0 0 0 0
Nghost:    14641 ave 14641 max 14641 min
Histogram: 1 0 0 0 0 0 0 0 0 0
Neighs:    845558 ave 845558 max 845558 min
Histogram: 1 0 0 0 0 0 0 0 0 0

Total # of neighbors = 845558
Ave neighs/atom = 43.0266
Neighbor list builds = 495
Dangerous builds not checked
Setting up Verlet run ...
  Unit style    : metal
  Current step  : 53495
  Time step     : 0.001
Per MPI rank memory allocation (min/avg/max) = 18.22 | 18.22 | 18.22 Mbytes
Step Temp Press TotEng PotEng Enthalpy Volume 
   53495    1761.5251   -374.83881   -18204.167   -22678.601   -18339.917    580236.81 
   54000    1752.9612    348.54095   -18348.669    -22801.35   -18223.538    575204.35 
Loop time of 63.8497 on 1 procs for 505 steps with 19652 atoms

Performance: 0.683 ns/day, 35.121 hours/ns, 7.909 timesteps/s
99.6% CPU use with 1 MPI tasks x no OpenMP threads

MPI task timing breakdown:
Section |  min time  |  avg time  |  max time  |%varavg| %total
---------------------------------------------------------------
Pair    | 35.649     | 35.649     | 35.649     |   0.0 | 55.83
Neigh   | 25.584     | 25.584     | 25.584     |   0.0 | 40.07
Comm    | 0.86123    | 0.86123    | 0.86123    |   0.0 |  1.35
Output  | 0.057484   | 0.057484   | 0.057484   |   0.0 |  0.09
Modify  | 1.2714     | 1.2714     | 1.2714     |   0.0 |  1.99
Other   |            | 0.4259     |            |       |  0.67

Nlocal:    19652 ave 19652 max 19652 min
Histogram: 1 0 0 0 0 0 0 0 0 0
Nghost:    14674 ave 14674 max 14674 min
Histogram: 1 0 0 0 0 0 0 0 0 0
Neighs:    853469 ave 853469 max 853469 min
Histogram: 1 0 0 0 0 0 0 0 0 0

Total # of neighbors = 853469
Ave neighs/atom = 43.4291
Neighbor list builds = 505
Dangerous builds not checked
Setting up Verlet run ...
  Unit style    : metal
  Current step  : 54000
  Time step     : 0.001
Per MPI rank memory allocation (min/avg/max) = 18.22 | 18.22 | 18.22 Mbytes
Step Temp Press TotEng PotEng Enthalpy Volume 
   54000    1752.9612    348.54095   -18348.669    -22801.35   -18223.538    575204.35 
   54495    1711.8497   -326.58102   -18489.068   -22837.323   -18606.405    575645.22 
Loop time of 62.6079 on 1 procs for 495 steps with 19652 atoms

Performance: 0.683 ns/day, 35.133 hours/ns, 7.906 timesteps/s
98.6% CPU use with 1 MPI tasks x no OpenMP threads

MPI task timing breakdown:
Section |  min time  |  avg time  |  max time  |%varavg| %total
---------------------------------------------------------------
Pair    | 34.968     | 34.968     | 34.968     |   0.0 | 55.85
Neigh   | 25.149     | 25.149     | 25.149     |   0.0 | 40.17
Comm    | 0.83202    | 0.83202    | 0.83202    |   0.0 |  1.33
Output  | 0.00037193 | 0.00037193 | 0.00037193 |   0.0 |  0.00
Modify  | 1.2258     | 1.2258     | 1.2258     |   0.0 |  1.96
Other   |            | 0.4329     |            |       |  0.69

Nlocal:    19652 ave 19652 max 19652 min
Histogram: 1 0 0 0 0 0 0 0 0 0
Nghost:    14717 ave 14717 max 14717 min
Histogram: 1 0 0 0 0 0 0 0 0 0
Neighs:    852625 ave 852625 max 852625 min
Histogram: 1 0 0 0 0 0 0 0 0 0

Total # of neighbors = 852625
Ave neighs/atom = 43.3862
Neighbor list builds = 495
Dangerous builds not checked
Setting up Verlet run ...
  Unit style    : metal
  Current step  : 54495
  Time step     : 0.001
Per MPI rank memory allocation (min/avg/max) = 18.22 | 18.22 | 18.22 Mbytes
Step Temp Press TotEng PotEng Enthalpy Volume 
   54495    1711.8497   -326.58102   -18489.068   -22837.323   -18606.405    575645.22 
   55000    1696.4747    722.28661   -18616.145   -22925.345   -18358.682     571104.7 
Loop time of 60.3014 on 1 procs for 505 steps with 19652 atoms

Performance: 0.724 ns/day, 33.169 hours/ns, 8.375 timesteps/s
99.6% CPU use with 1 MPI tasks x no OpenMP threads

MPI task timing breakdown:
Section |  min time  |  avg time  |  max time  |%varavg| %total
---------------------------------------------------------------
Pair    | 33.41      | 33.41      | 33.41      |   0.0 | 55.41
Neigh   | 24.616     | 24.616     | 24.616     |   0.0 | 40.82
Comm    | 0.73156    | 0.73156    | 0.73156    |   0.0 |  1.21
Output  | 0.059979   | 0.059979   | 0.059979   |   0.0 |  0.10
Modify  | 1.0885     | 1.0885     | 1.0885     |   0.0 |  1.81
Other   |            | 0.3951     |            |       |  0.66

Nlocal:    19652 ave 19652 max 19652 min
Histogram: 1 0 0 0 0 0 0 0 0 0
Nghost:    14786 ave 14786 max 14786 min
Histogram: 1 0 0 0 0 0 0 0 0 0
Neighs:    859970 ave 859970 max 859970 min
Histogram: 1 0 0 0 0 0 0 0 0 0

Total # of neighbors = 859970
Ave neighs/atom = 43.7599
Neighbor list builds = 505
Dangerous builds not checked
Setting up Verlet run ...
  Unit style    : metal
  Current step  : 55000
  Time step     : 0.001
Per MPI rank memory allocation (min/avg/max) = 18.22 | 18.22 | 18.22 Mbytes
Step Temp Press TotEng PotEng Enthalpy Volume 
   55000    1696.4747    722.28661   -18616.145   -22925.345   -18358.682     571104.7 
   55495    1663.6542   -105.22148   -18764.362   -22990.195   -18801.911    571753.92 
Loop time of 59.4042 on 1 procs for 495 steps with 19652 atoms

Performance: 0.720 ns/day, 33.336 hours/ns, 8.333 timesteps/s
99.2% CPU use with 1 MPI tasks x no OpenMP threads

MPI task timing breakdown:
Section |  min time  |  avg time  |  max time  |%varavg| %total
---------------------------------------------------------------
Pair    | 32.925     | 32.925     | 32.925     |   0.0 | 55.42
Neigh   | 24.286     | 24.286     | 24.286     |   0.0 | 40.88
Comm    | 0.72206    | 0.72206    | 0.72206    |   0.0 |  1.22
Output  | 0.00025702 | 0.00025702 | 0.00025702 |   0.0 |  0.00
Modify  | 1.078      | 1.078      | 1.078      |   0.0 |  1.81
Other   |            | 0.3929     |            |       |  0.66

Nlocal:    19652 ave 19652 max 19652 min
Histogram: 1 0 0 0 0 0 0 0 0 0
Nghost:    14796 ave 14796 max 14796 min
Histogram: 1 0 0 0 0 0 0 0 0 0
Neighs:    858700 ave 858700 max 858700 min
Histogram: 1 0 0 0 0 0 0 0 0 0

Total # of neighbors = 858700
Ave neighs/atom = 43.6953
Neighbor list builds = 495
Dangerous builds not checked
Setting up Verlet run ...
  Unit style    : metal
  Current step  : 55495
  Time step     : 0.001
Per MPI rank memory allocation (min/avg/max) = 18.22 | 18.22 | 18.22 Mbytes
Step Temp Press TotEng PotEng Enthalpy Volume 
   55495    1663.6542   -105.22148   -18764.362   -22990.195   -18801.911    571753.92 
   56000    1647.5767   -115.80036   -18880.978   -23065.973   -18922.095    568877.01 
Loop time of 60.3807 on 1 procs for 505 steps with 19652 atoms

Performance: 0.723 ns/day, 33.213 hours/ns, 8.364 timesteps/s
99.4% CPU use with 1 MPI tasks x no OpenMP threads

MPI task timing breakdown:
Section |  min time  |  avg time  |  max time  |%varavg| %total
---------------------------------------------------------------
Pair    | 33.593     | 33.593     | 33.593     |   0.0 | 55.64
Neigh   | 24.525     | 24.525     | 24.525     |   0.0 | 40.62
Comm    | 0.72573    | 0.72573    | 0.72573    |   0.0 |  1.20
Output  | 0.058662   | 0.058662   | 0.058662   |   0.0 |  0.10
Modify  | 1.0801     | 1.0801     | 1.0801     |   0.0 |  1.79
Other   |            | 0.3981     |            |       |  0.66

Nlocal:    19652 ave 19652 max 19652 min
Histogram: 1 0 0 0 0 0 0 0 0 0
Nghost:    14699 ave 14699 max 14699 min
Histogram: 1 0 0 0 0 0 0 0 0 0
Neighs:    862697 ave 862697 max 862697 min
Histogram: 1 0 0 0 0 0 0 0 0 0

Total # of neighbors = 862697
Ave neighs/atom = 43.8987
Neighbor list builds = 505
Dangerous builds not checked
Setting up Verlet run ...
  Unit style    : metal
  Current step  : 56000
  Time step     : 0.001
Per MPI rank memory allocation (min/avg/max) = 18.22 | 18.22 | 18.22 Mbytes
Step Temp Press TotEng PotEng Enthalpy Volume 
   56000    1647.5767   -115.80036   -18880.978   -23065.973   -18922.095    568877.01 
   56495    1616.1225    -181.4537   -19054.076   -23159.174   -19118.333    567369.49 
Loop time of 59.4538 on 1 procs for 495 steps with 19652 atoms

Performance: 0.719 ns/day, 33.364 hours/ns, 8.326 timesteps/s
99.0% CPU use with 1 MPI tasks x no OpenMP threads

MPI task timing breakdown:
Section |  min time  |  avg time  |  max time  |%varavg| %total
---------------------------------------------------------------
Pair    | 33.105     | 33.105     | 33.105     |   0.0 | 55.68
Neigh   | 24.177     | 24.177     | 24.177     |   0.0 | 40.66
Comm    | 0.71353    | 0.71353    | 0.71353    |   0.0 |  1.20
Output  | 0.000314   | 0.000314   | 0.000314   |   0.0 |  0.00
Modify  | 1.0654     | 1.0654     | 1.0654     |   0.0 |  1.79
Other   |            | 0.3927     |            |       |  0.66

Nlocal:    19652 ave 19652 max 19652 min
Histogram: 1 0 0 0 0 0 0 0 0 0
Nghost:    14752 ave 14752 max 14752 min
Histogram: 1 0 0 0 0 0 0 0 0 0
Neighs:    865568 ave 865568 max 865568 min
Histogram: 1 0 0 0 0 0 0 0 0 0

Total # of neighbors = 865568
Ave neighs/atom = 44.0448
Neighbor list builds = 495
Dangerous builds not checked
Setting up Verlet run ...
  Unit style    : metal
  Current step  : 56495
  Time step     : 0.001
Per MPI rank memory allocation (min/avg/max) = 18.22 | 18.22 | 18.22 Mbytes
Step Temp Press TotEng PotEng Enthalpy Volume 
   56495    1616.1225    -181.4537   -19054.076   -23159.174   -19118.333    567369.49 
   57000    1593.0706    533.63918    -19144.84   -23191.385   -18956.762    564678.78 
Loop time of 60.3363 on 1 procs for 505 steps with 19652 atoms

Performance: 0.723 ns/day, 33.188 hours/ns, 8.370 timesteps/s
99.1% CPU use with 1 MPI tasks x no OpenMP threads

MPI task timing breakdown:
Section |  min time  |  avg time  |  max time  |%varavg| %total
---------------------------------------------------------------
Pair    | 33.586     | 33.586     | 33.586     |   0.0 | 55.66
Neigh   | 24.519     | 24.519     | 24.519     |   0.0 | 40.64
Comm    | 0.72623    | 0.72623    | 0.72623    |   0.0 |  1.20
Output  | 0.056343   | 0.056343   | 0.056343   |   0.0 |  0.09
Modify  | 1.067      | 1.067      | 1.067      |   0.0 |  1.77
Other   |            | 0.3818     |            |       |  0.63

Nlocal:    19652 ave 19652 max 19652 min
Histogram: 1 0 0 0 0 0 0 0 0 0
Nghost:    14752 ave 14752 max 14752 min
Histogram: 1 0 0 0 0 0 0 0 0 0
Neighs:    870085 ave 870085 max 870085 min
Histogram: 1 0 0 0 0 0 0 0 0 0

Total # of neighbors = 870085
Ave neighs/atom = 44.2746
Neighbor list builds = 505
Dangerous builds not checked
Setting up Verlet run ...
  Unit style    : metal
  Current step  : 57000
  Time step     : 0.001
Per MPI rank memory allocation (min/avg/max) = 18.22 | 18.22 | 18.22 Mbytes
Step Temp Press TotEng PotEng Enthalpy Volume 
   57000    1593.0706    533.63918    -19144.84   -23191.385   -18956.762    564678.78 
   57495    1562.1018    -69.38039   -19313.422   -23281.303   -19337.857    564254.06 
Loop time of 56.9628 on 1 procs for 495 steps with 19652 atoms

Performance: 0.751 ns/day, 31.966 hours/ns, 8.690 timesteps/s
99.5% CPU use with 1 MPI tasks x no OpenMP threads

MPI task timing breakdown:
Section |  min time  |  avg time  |  max time  |%varavg| %total
---------------------------------------------------------------
Pair    | 31.726     | 31.726     | 31.726     |   0.0 | 55.70
Neigh   | 23.311     | 23.311     | 23.311     |   0.0 | 40.92
Comm    | 0.63389    | 0.63389    | 0.63389    |   0.0 |  1.11
Output  | 0.00035477 | 0.00035477 | 0.00035477 |   0.0 |  0.00
Modify  | 0.97242    | 0.97242    | 0.97242    |   0.0 |  1.71
Other   |            | 0.3192     |            |       |  0.56

Nlocal:    19652 ave 19652 max 19652 min
Histogram: 1 0 0 0 0 0 0 0 0 0
Nghost:    14817 ave 14817 max 14817 min
Histogram: 1 0 0 0 0 0 0 0 0 0
Neighs:    870527 ave 870527 max 870527 min
Histogram: 1 0 0 0 0 0 0 0 0 0

Total # of neighbors = 870527
Ave neighs/atom = 44.2971
Neighbor list builds = 495
Dangerous builds not checked
Setting up Verlet run ...
  Unit style    : metal
  Current step  : 57495
  Time step     : 0.001
Per MPI rank memory allocation (min/avg/max) = 18.22 | 18.22 | 18.22 Mbytes
Step Temp Press TotEng PotEng Enthalpy Volume 
   57495    1562.1018    -69.38039   -19313.422   -23281.303   -19337.857    564254.06 
   58000    1547.7936    264.22884   -19468.577   -23400.113   -19376.213    560054.95 
Loop time of 58.961 on 1 procs for 505 steps with 19652 atoms

Performance: 0.740 ns/day, 32.432 hours/ns, 8.565 timesteps/s
99.3% CPU use with 1 MPI tasks x no OpenMP threads

MPI task timing breakdown:
Section |  min time  |  avg time  |  max time  |%varavg| %total
---------------------------------------------------------------
Pair    | 32.889     | 32.889     | 32.889     |   0.0 | 55.78
Neigh   | 23.982     | 23.982     | 23.982     |   0.0 | 40.67
Comm    | 0.67458    | 0.67458    | 0.67458    |   0.0 |  1.14
Output  | 0.055423   | 0.055423   | 0.055423   |   0.0 |  0.09
Modify  | 1.0148     | 1.0148     | 1.0148     |   0.0 |  1.72
Other   |            | 0.3449     |            |       |  0.58

Nlocal:    19652 ave 19652 max 19652 min
Histogram: 1 0 0 0 0 0 0 0 0 0
Nghost:    14893 ave 14893 max 14893 min
Histogram: 1 0 0 0 0 0 0 0 0 0
Neighs:    877132 ave 877132 max 877132 min
Histogram: 1 0 0 0 0 0 0 0 0 0

Total # of neighbors = 877132
Ave neighs/atom = 44.6332
Neighbor list builds = 505
Dangerous builds not checked
Setting up Verlet run ...
  Unit style    : metal
  Current step  : 58000
  Time step     : 0.001
Per MPI rank memory allocation (min/avg/max) = 18.22 | 18.22 | 18.22 Mbytes
Step Temp Press TotEng PotEng Enthalpy Volume 
   58000    1547.7936    264.22884   -19468.577   -23400.113   -19376.213    560054.95 
   58495    1510.8165    -261.1301   -19595.418    -23433.03   -19686.808    560725.68 
Loop time of 58.9503 on 1 procs for 495 steps with 19652 atoms

Performance: 0.725 ns/day, 33.081 hours/ns, 8.397 timesteps/s
99.5% CPU use with 1 MPI tasks x no OpenMP threads

MPI task timing breakdown:
Section |  min time  |  avg time  |  max time  |%varavg| %total
---------------------------------------------------------------
Pair    | 33.017     | 33.017     | 33.017     |   0.0 | 56.01
Neigh   | 23.772     | 23.772     | 23.772     |   0.0 | 40.33
Comm    | 0.71298    | 0.71298    | 0.71298    |   0.0 |  1.21
Output  | 0.00031114 | 0.00031114 | 0.00031114 |   0.0 |  0.00
Modify  | 1.0749     | 1.0749     | 1.0749     |   0.0 |  1.82
Other   |            | 0.3732     |            |       |  0.63

Nlocal:    19652 ave 19652 max 19652 min
Histogram: 1 0 0 0 0 0 0 0 0 0
Nghost:    14811 ave 14811 max 14811 min
Histogram: 1 0 0 0 0 0 0 0 0 0
Neighs:    876182 ave 876182 max 876182 min
Histogram: 1 0 0 0 0 0 0 0 0 0

Total # of neighbors = 876182
Ave neighs/atom = 44.5849
Neighbor list builds = 495
Dangerous builds not checked
Setting up Verlet run ...
  Unit style    : metal
  Current step  : 58495
  Time step     : 0.001
Per MPI rank memory allocation (min/avg/max) = 18.22 | 18.22 | 18.22 Mbytes
Step Temp Press TotEng PotEng Enthalpy Volume 
   58495    1510.8165    -261.1301   -19595.418    -23433.03   -19686.808    560725.68 
   59000    1507.1395    365.55078   -19766.483   -23594.754   -19639.702    555668.58 
Loop time of 61.4892 on 1 procs for 505 steps with 19652 atoms

Performance: 0.710 ns/day, 33.822 hours/ns, 8.213 timesteps/s
99.7% CPU use with 1 MPI tasks x no OpenMP threads

MPI task timing breakdown:
Section |  min time  |  avg time  |  max time  |%varavg| %total
---------------------------------------------------------------
Pair    | 34.642     | 34.642     | 34.642     |   0.0 | 56.34
Neigh   | 24.444     | 24.444     | 24.444     |   0.0 | 39.75
Comm    | 0.77685    | 0.77685    | 0.77685    |   0.0 |  1.26
Output  | 0.05876    | 0.05876    | 0.05876    |   0.0 |  0.10
Modify  | 1.1607     | 1.1607     | 1.1607     |   0.0 |  1.89
Other   |            | 0.4068     |            |       |  0.66

Nlocal:    19652 ave 19652 max 19652 min
Histogram: 1 0 0 0 0 0 0 0 0 0
Nghost:    14824 ave 14824 max 14824 min
Histogram: 1 0 0 0 0 0 0 0 0 0
Neighs:    884567 ave 884567 max 884567 min
Histogram: 1 0 0 0 0 0 0 0 0 0

Total # of neighbors = 884567
Ave neighs/atom = 45.0116
Neighbor list builds = 505
Dangerous builds not checked
Setting up Verlet run ...
  Unit style    : metal
  Current step  : 59000
  Time step     : 0.001
Per MPI rank memory allocation (min/avg/max) = 18.22 | 18.22 | 18.22 Mbytes
Step Temp Press TotEng PotEng Enthalpy Volume 
   59000    1507.1395    365.55078   -19766.483   -23594.754   -19639.702    555668.58 
   59495     1469.538   -256.50731    -19910.78   -23643.541   -19999.773    555860.25 
Loop time of 63.9078 on 1 procs for 495 steps with 19652 atoms

Performance: 0.669 ns/day, 35.863 hours/ns, 7.746 timesteps/s
98.1% CPU use with 1 MPI tasks x no OpenMP threads

MPI task timing breakdown:
Section |  min time  |  avg time  |  max time  |%varavg| %total
---------------------------------------------------------------
Pair    | 36.117     | 36.117     | 36.117     |   0.0 | 56.51
Neigh   | 25.248     | 25.248     | 25.248     |   0.0 | 39.51
Comm    | 0.86094    | 0.86094    | 0.86094    |   0.0 |  1.35
Output  | 0.000319   | 0.000319   | 0.000319   |   0.0 |  0.00
Modify  | 1.2483     | 1.2483     | 1.2483     |   0.0 |  1.95
Other   |            | 0.4331     |            |       |  0.68

Nlocal:    19652 ave 19652 max 19652 min
Histogram: 1 0 0 0 0 0 0 0 0 0
Nghost:    14925 ave 14925 max 14925 min
Histogram: 1 0 0 0 0 0 0 0 0 0
Neighs:    884135 ave 884135 max 884135 min
Histogram: 1 0 0 0 0 0 0 0 0 0

Total # of neighbors = 884135
Ave neighs/atom = 44.9896
Neighbor list builds = 495
Dangerous builds not checked
Setting up Verlet run ...
  Unit style    : metal
  Current step  : 59495
  Time step     : 0.001
Per MPI rank memory allocation (min/avg/max) = 18.22 | 18.22 | 18.22 Mbytes
Step Temp Press TotEng PotEng Enthalpy Volume 
   59495     1469.538   -256.50731    -19910.78   -23643.541   -19999.773    555860.25 
   60000    1444.4564    283.92608   -20023.362   -23692.413   -19925.292    553404.41 
Loop time of 61.6165 on 1 procs for 505 steps with 19652 atoms

Performance: 0.708 ns/day, 33.892 hours/ns, 8.196 timesteps/s
99.4% CPU use with 1 MPI tasks x no OpenMP threads

MPI task timing breakdown:
Section |  min time  |  avg time  |  max time  |%varavg| %total
---------------------------------------------------------------
Pair    | 34.716     | 34.716     | 34.716     |   0.0 | 56.34
Neigh   | 24.554     | 24.554     | 24.554     |   0.0 | 39.85
Comm    | 0.75165    | 0.75165    | 0.75165    |   0.0 |  1.22
Output  | 0.059257   | 0.059257   | 0.059257   |   0.0 |  0.10
Modify  | 1.1085     | 1.1085     | 1.1085     |   0.0 |  1.80
Other   |            | 0.4272     |            |       |  0.69

Nlocal:    19652 ave 19652 max 19652 min
Histogram: 1 0 0 0 0 0 0 0 0 0
Nghost:    14967 ave 14967 max 14967 min
Histogram: 1 0 0 0 0 0 0 0 0 0
Neighs:    888072 ave 888072 max 888072 min
Histogram: 1 0 0 0 0 0 0 0 0 0

Total # of neighbors = 888072
Ave neighs/atom = 45.1899
Neighbor list builds = 505
Dangerous builds not checked
Setting up Verlet run ...
  Unit style    : metal
  Current step  : 60000
  Time step     : 0.001
Per MPI rank memory allocation (min/avg/max) = 18.22 | 18.22 | 18.22 Mbytes
Step Temp Press TotEng PotEng Enthalpy Volume 
   60000    1444.4564    283.92608   -20023.362   -23692.413   -19925.292    553404.41 
   60495    1400.1956    320.24787   -20190.307   -23746.931   -20079.987    551923.21 
Loop time of 59.8374 on 1 procs for 495 steps with 19652 atoms

Performance: 0.715 ns/day, 33.579 hours/ns, 8.272 timesteps/s
99.9% CPU use with 1 MPI tasks x no OpenMP threads

MPI task timing breakdown:
Section |  min time  |  avg time  |  max time  |%varavg| %total
---------------------------------------------------------------
Pair    | 33.716     | 33.716     | 33.716     |   0.0 | 56.35
Neigh   | 23.931     | 23.931     | 23.931     |   0.0 | 39.99
Comm    | 0.72569    | 0.72569    | 0.72569    |   0.0 |  1.21
Output  | 0.00023198 | 0.00023198 | 0.00023198 |   0.0 |  0.00
Modify  | 1.0731     | 1.0731     | 1.0731     |   0.0 |  1.79
Other   |            | 0.3915     |            |       |  0.65

Nlocal:    19652 ave 19652 max 19652 min
Histogram: 1 0 0 0 0 0 0 0 0 0
Nghost:    14953 ave 14953 max 14953 min
Histogram: 1 0 0 0 0 0 0 0 0 0
Neighs:    891102 ave 891102 max 891102 min
Histogram: 1 0 0 0 0 0 0 0 0 0

Total # of neighbors = 891102
Ave neighs/atom = 45.3441
Neighbor list builds = 495
Dangerous builds not checked
Setting up Verlet run ...
  Unit style    : metal
  Current step  : 60495
  Time step     : 0.001
Per MPI rank memory allocation (min/avg/max) = 18.22 | 18.22 | 18.22 Mbytes
Step Temp Press TotEng PotEng Enthalpy Volume 
   60495    1400.1956    320.24787   -20190.307   -23746.931   -20079.987    551923.21 
   61000     1389.389    483.60309   -20301.973   -23831.148   -20136.085    549587.32 
Loop time of 66.278 on 1 procs for 505 steps with 19652 atoms

Performance: 0.658 ns/day, 36.457 hours/ns, 7.619 timesteps/s
99.4% CPU use with 1 MPI tasks x no OpenMP threads

MPI task timing breakdown:
Section |  min time  |  avg time  |  max time  |%varavg| %total
---------------------------------------------------------------
Pair    | 37.694     | 37.694     | 37.694     |   0.0 | 56.87
Neigh   | 25.765     | 25.765     | 25.765     |   0.0 | 38.87
Comm    | 0.93909    | 0.93909    | 0.93909    |   0.0 |  1.42
Output  | 0.059926   | 0.059926   | 0.059926   |   0.0 |  0.09
Modify  | 1.3509     | 1.3509     | 1.3509     |   0.0 |  2.04
Other   |            | 0.469      |            |       |  0.71

Nlocal:    19652 ave 19652 max 19652 min
Histogram: 1 0 0 0 0 0 0 0 0 0
Nghost:    14904 ave 14904 max 14904 min
Histogram: 1 0 0 0 0 0 0 0 0 0
Neighs:    895016 ave 895016 max 895016 min
Histogram: 1 0 0 0 0 0 0 0 0 0

Total # of neighbors = 895016
Ave neighs/atom = 45.5433
Neighbor list builds = 505
Dangerous builds not checked
Setting up Verlet run ...
  Unit style    : metal
  Current step  : 61000
  Time step     : 0.001
Per MPI rank memory allocation (min/avg/max) = 18.22 | 18.22 | 18.22 Mbytes
Step Temp Press TotEng PotEng Enthalpy Volume 
   61000     1389.389    483.60309   -20301.973   -23831.148   -20136.085    549587.32 
   61495    1359.2889    400.44925   -20467.604   -23920.322   -20330.682    547818.23 
Loop time of 58.0099 on 1 procs for 495 steps with 19652 atoms

Performance: 0.737 ns/day, 32.553 hours/ns, 8.533 timesteps/s
99.9% CPU use with 1 MPI tasks x no OpenMP threads

MPI task timing breakdown:
Section |  min time  |  avg time  |  max time  |%varavg| %total
---------------------------------------------------------------
Pair    | 32.697     | 32.697     | 32.697     |   0.0 | 56.37
Neigh   | 23.317     | 23.317     | 23.317     |   0.0 | 40.19
Comm    | 0.65039    | 0.65039    | 0.65039    |   0.0 |  1.12
Output  | 0.00034499 | 0.00034499 | 0.00034499 |   0.0 |  0.00
Modify  | 0.99444    | 0.99444    | 0.99444    |   0.0 |  1.71
Other   |            | 0.3503     |            |       |  0.60

Nlocal:    19652 ave 19652 max 19652 min
Histogram: 1 0 0 0 0 0 0 0 0 0
Nghost:    14998 ave 14998 max 14998 min
Histogram: 1 0 0 0 0 0 0 0 0 0
Neighs:    898284 ave 898284 max 898284 min
Histogram: 1 0 0 0 0 0 0 0 0 0

Total # of neighbors = 898284
Ave neighs/atom = 45.7095
Neighbor list builds = 495
Dangerous builds not checked
Setting up Verlet run ...
  Unit style    : metal
  Current step  : 61495
  Time step     : 0.001
Per MPI rank memory allocation (min/avg/max) = 18.22 | 18.22 | 18.22 Mbytes
Step Temp Press TotEng PotEng Enthalpy Volume 
   61495    1359.2889    400.44925   -20467.604   -23920.322   -20330.682    547818.23 
   62000    1345.0681    147.56356   -20599.283   -24015.879   -20549.015     545783.4 
Loop time of 60.8713 on 1 procs for 505 steps with 19652 atoms

Performance: 0.717 ns/day, 33.483 hours/ns, 8.296 timesteps/s
99.9% CPU use with 1 MPI tasks x no OpenMP threads

MPI task timing breakdown:
Section |  min time  |  avg time  |  max time  |%varavg| %total
---------------------------------------------------------------
Pair    | 34.49      | 34.49      | 34.49      |   0.0 | 56.66
Neigh   | 24.196     | 24.196     | 24.196     |   0.0 | 39.75
Comm    | 0.70233    | 0.70233    | 0.70233    |   0.0 |  1.15
Output  | 0.054807   | 0.054807   | 0.054807   |   0.0 |  0.09
Modify  | 1.0636     | 1.0636     | 1.0636     |   0.0 |  1.75
Other   |            | 0.3638     |            |       |  0.60

Nlocal:    19652 ave 19652 max 19652 min
Histogram: 1 0 0 0 0 0 0 0 0 0
Nghost:    14994 ave 14994 max 14994 min
Histogram: 1 0 0 0 0 0 0 0 0 0
Neighs:    901005 ave 901005 max 901005 min
Histogram: 1 0 0 0 0 0 0 0 0 0

Total # of neighbors = 901005
Ave neighs/atom = 45.848
Neighbor list builds = 505
Dangerous builds not checked
Setting up Verlet run ...
  Unit style    : metal
  Current step  : 62000
  Time step     : 0.001
Per MPI rank memory allocation (min/avg/max) = 18.22 | 18.22 | 18.22 Mbytes
Step Temp Press TotEng PotEng Enthalpy Volume 
   62000    1345.0681    147.56356   -20599.283   -24015.879   -20549.015     545783.4 
   62495     1312.825    125.01035   -20765.393   -24100.088   -20722.913    544430.76 
Loop time of 64.0725 on 1 procs for 495 steps with 19652 atoms

Performance: 0.667 ns/day, 35.955 hours/ns, 7.726 timesteps/s
99.8% CPU use with 1 MPI tasks x no OpenMP threads

MPI task timing breakdown:
Section |  min time  |  avg time  |  max time  |%varavg| %total
---------------------------------------------------------------
Pair    | 36.504     | 36.504     | 36.504     |   0.0 | 56.97
Neigh   | 24.995     | 24.995     | 24.995     |   0.0 | 39.01
Comm    | 0.88277    | 0.88277    | 0.88277    |   0.0 |  1.38
Output  | 0.00030684 | 0.00030684 | 0.00030684 |   0.0 |  0.00
Modify  | 1.2591     | 1.2591     | 1.2591     |   0.0 |  1.97
Other   |            | 0.4313     |            |       |  0.67

Nlocal:    19652 ave 19652 max 19652 min
Histogram: 1 0 0 0 0 0 0 0 0 0
Nghost:    15030 ave 15030 max 15030 min
Histogram: 1 0 0 0 0 0 0 0 0 0
Neighs:    903448 ave 903448 max 903448 min
Histogram: 1 0 0 0 0 0 0 0 0 0

Total # of neighbors = 903448
Ave neighs/atom = 45.9723
Neighbor list builds = 495
Dangerous builds not checked
Setting up Verlet run ...
  Unit style    : metal
  Current step  : 62495
  Time step     : 0.001
Per MPI rank memory allocation (min/avg/max) = 18.22 | 18.22 | 18.22 Mbytes
Step Temp Press TotEng PotEng Enthalpy Volume 
   62495     1312.825    125.01035   -20765.393   -24100.088   -20722.913    544430.76 
   63000    1296.8237    45.232657   -20875.474   -24169.525    -20860.15     542820.3 
Loop time of 64.0057 on 1 procs for 505 steps with 19652 atoms

Performance: 0.682 ns/day, 35.207 hours/ns, 7.890 timesteps/s
99.4% CPU use with 1 MPI tasks x no OpenMP threads

MPI task timing breakdown:
Section |  min time  |  avg time  |  max time  |%varavg| %total
---------------------------------------------------------------
Pair    | 36.457     | 36.457     | 36.457     |   0.0 | 56.96
Neigh   | 25.057     | 25.057     | 25.057     |   0.0 | 39.15
Comm    | 0.81896    | 0.81896    | 0.81896    |   0.0 |  1.28
Output  | 0.056233   | 0.056233   | 0.056233   |   0.0 |  0.09
Modify  | 1.2067     | 1.2067     | 1.2067     |   0.0 |  1.89
Other   |            | 0.4106     |            |       |  0.64

Nlocal:    19652 ave 19652 max 19652 min
Histogram: 1 0 0 0 0 0 0 0 0 0
Nghost:    15005 ave 15005 max 15005 min
Histogram: 1 0 0 0 0 0 0 0 0 0
Neighs:    906279 ave 906279 max 906279 min
Histogram: 1 0 0 0 0 0 0 0 0 0

Total # of neighbors = 906279
Ave neighs/atom = 46.1164
Neighbor list builds = 505
Dangerous builds not checked
Setting up Verlet run ...
  Unit style    : metal
  Current step  : 63000
  Time step     : 0.001
Per MPI rank memory allocation (min/avg/max) = 18.22 | 18.22 | 18.22 Mbytes
Step Temp Press TotEng PotEng Enthalpy Volume 
   63000    1296.8237    45.232657   -20875.474   -24169.525    -20860.15     542820.3 
   63495    1267.9692   -17.358638   -21053.704   -24274.461   -21059.566    541074.57 
Loop time of 58.1956 on 1 procs for 495 steps with 19652 atoms

Performance: 0.735 ns/day, 32.657 hours/ns, 8.506 timesteps/s
99.8% CPU use with 1 MPI tasks x no OpenMP threads

MPI task timing breakdown:
Section |  min time  |  avg time  |  max time  |%varavg| %total
---------------------------------------------------------------
Pair    | 32.986     | 32.986     | 32.986     |   0.0 | 56.68
Neigh   | 23.238     | 23.238     | 23.238     |   0.0 | 39.93
Comm    | 0.65684    | 0.65684    | 0.65684    |   0.0 |  1.13
Output  | 0.00022602 | 0.00022602 | 0.00022602 |   0.0 |  0.00
Modify  | 0.98662    | 0.98662    | 0.98662    |   0.0 |  1.70
Other   |            | 0.3278     |            |       |  0.56

Nlocal:    19652 ave 19652 max 19652 min
Histogram: 1 0 0 0 0 0 0 0 0 0
Nghost:    14964 ave 14964 max 14964 min
Histogram: 1 0 0 0 0 0 0 0 0 0
Neighs:    909927 ave 909927 max 909927 min
Histogram: 1 0 0 0 0 0 0 0 0 0

Total # of neighbors = 909927
Ave neighs/atom = 46.302
Neighbor list builds = 495
Dangerous builds not checked
Setting up Verlet run ...
  Unit style    : metal
  Current step  : 63495
  Time step     : 0.001
Per MPI rank memory allocation (min/avg/max) = 18.22 | 18.22 | 18.22 Mbytes
Step Temp Press TotEng PotEng Enthalpy Volume 
   63495    1267.9692   -17.358638   -21053.704   -24274.461   -21059.566    541074.57 
   64000    1242.2749    303.14188   -21168.112   -24323.603   -21066.185    538708.33 
Loop time of 59.2309 on 1 procs for 505 steps with 19652 atoms

Performance: 0.737 ns/day, 32.580 hours/ns, 8.526 timesteps/s
99.5% CPU use with 1 MPI tasks x no OpenMP threads

MPI task timing breakdown:
Section |  min time  |  avg time  |  max time  |%varavg| %total
---------------------------------------------------------------
Pair    | 33.623     | 33.623     | 33.623     |   0.0 | 56.77
Neigh   | 23.62      | 23.62      | 23.62      |   0.0 | 39.88
Comm    | 0.63854    | 0.63854    | 0.63854    |   0.0 |  1.08
Output  | 0.055618   | 0.055618   | 0.055618   |   0.0 |  0.09
Modify  | 0.97299    | 0.97299    | 0.97299    |   0.0 |  1.64
Other   |            | 0.3207     |            |       |  0.54

Nlocal:    19652 ave 19652 max 19652 min
Histogram: 1 0 0 0 0 0 0 0 0 0
Nghost:    15100 ave 15100 max 15100 min
Histogram: 1 0 0 0 0 0 0 0 0 0
Neighs:    913463 ave 913463 max 913463 min
Histogram: 1 0 0 0 0 0 0 0 0 0

Total # of neighbors = 913463
Ave neighs/atom = 46.4819
Neighbor list builds = 505
Dangerous builds not checked
Setting up Verlet run ...
  Unit style    : metal
  Current step  : 64000
  Time step     : 0.001
Per MPI rank memory allocation (min/avg/max) = 18.22 | 18.22 | 18.22 Mbytes
Step Temp Press TotEng PotEng Enthalpy Volume 
   64000    1242.2749    303.14188   -21168.112   -24323.603   -21066.185    538708.33 
   64495    1218.2675    32.649002   -21327.023   -24421.533   -21316.072     537387.7 
Loop time of 59.8409 on 1 procs for 495 steps with 19652 atoms

Performance: 0.715 ns/day, 33.581 hours/ns, 8.272 timesteps/s
98.3% CPU use with 1 MPI tasks x no OpenMP threads

MPI task timing breakdown:
Section |  min time  |  avg time  |  max time  |%varavg| %total
---------------------------------------------------------------
Pair    | 34.065     | 34.065     | 34.065     |   0.0 | 56.93
Neigh   | 23.721     | 23.721     | 23.721     |   0.0 | 39.64
Comm    | 0.70037    | 0.70037    | 0.70037    |   0.0 |  1.17
Output  | 0.00022006 | 0.00022006 | 0.00022006 |   0.0 |  0.00
Modify  | 1.0094     | 1.0094     | 1.0094     |   0.0 |  1.69
Other   |            | 0.3452     |            |       |  0.58

Nlocal:    19652 ave 19652 max 19652 min
Histogram: 1 0 0 0 0 0 0 0 0 0
Nghost:    15037 ave 15037 max 15037 min
[...]

Performance: 0.669 ns/day, 35.885 hours/ns, 7.741 timesteps/s
99.3% CPU use with 1 MPI tasks x no OpenMP threads

MPI task timing breakdown:
Section |  min time  |  avg time  |  max time  |%varavg| %total
---------------------------------------------------------------
Pair    | 36.933     | 36.933     | 36.933     |   0.0 | 57.76
Neigh   | 24.988     | 24.988     | 24.988     |   0.0 | 39.08
Comm    | 0.67769    | 0.67769    | 0.67769    |   0.0 |  1.06
Output  | 0.00020099 | 0.00020099 | 0.00020099 |   0.0 |  0.00
Modify  | 1.0041     | 1.0041     | 1.0041     |   0.0 |  1.57
Other   |            | 0.3438     |            |       |  0.54

Nlocal:    19652 ave 19652 max 19652 min
Histogram: 1 0 0 0 0 0 0 0 0 0
Nghost:    15763 ave 15763 max 15763 min
Histogram: 1 0 0 0 0 0 0 0 0 0
Neighs:    1.03507e+06 ave 1.03507e+06 max 1.03507e+06 min
Histogram: 1 0 0 0 0 0 0 0 0 0

Total # of neighbors = 1035073
Ave neighs/atom = 52.6701
Neighbor list builds = 495
Dangerous builds not checked
Setting up Verlet run ...
  Unit style    : metal
  Current step  : 80495
  Time step     : 0.001
Per MPI rank memory allocation (min/avg/max) = 18.22 | 18.22 | 18.22 Mbytes
Step Temp Press TotEng PotEng Enthalpy Volume 
   80495    422.99938    -137.9318   -26178.421   -27252.878   -26220.101    484146.62 
   81000    399.37123     380.9737   -26333.345   -27347.785   -26218.823    481622.61 
Loop time of 64.4581 on 1 procs for 505 steps with 19652 atoms

Performance: 0.677 ns/day, 35.455 hours/ns, 7.835 timesteps/s
99.7% CPU use with 1 MPI tasks x no OpenMP threads

MPI task timing breakdown:
Section |  min time  |  avg time  |  max time  |%varavg| %total
---------------------------------------------------------------
Pair    | 37.46      | 37.46      | 37.46      |   0.0 | 58.11
Neigh   | 24.977     | 24.977     | 24.977     |   0.0 | 38.75
Comm    | 0.63203    | 0.63203    | 0.63203    |   0.0 |  0.98
Output  | 0.053038   | 0.053038   | 0.053038   |   0.0 |  0.08
Modify  | 0.97827    | 0.97827    | 0.97827    |   0.0 |  1.52
Other   |            | 0.3578     |            |       |  0.56

Nlocal:    19652 ave 19652 max 19652 min
Histogram: 1 0 0 0 0 0 0 0 0 0
Nghost:    15735 ave 15735 max 15735 min
Histogram: 1 0 0 0 0 0 0 0 0 0
Neighs:    1.04154e+06 ave 1.04154e+06 max 1.04154e+06 min
Histogram: 1 0 0 0 0 0 0 0 0 0

Total # of neighbors = 1041535
Ave neighs/atom = 52.9989
Neighbor list builds = 505
Dangerous builds not checked
Setting up Verlet run ...
  Unit style    : metal
  Current step  : 81000
  Time step     : 0.001
Per MPI rank memory allocation (min/avg/max) = 18.22 | 18.22 | 18.22 Mbytes
Step Temp Press TotEng PotEng Enthalpy Volume 
   81000    399.37123     380.9737   -26333.345   -27347.785   -26218.823    481622.61 
   81495    373.09394   -378.17537   -26487.366   -27435.058   -26600.987    481369.49 
Loop time of 63.2816 on 1 procs for 495 steps with 19652 atoms

Performance: 0.676 ns/day, 35.512 hours/ns, 7.822 timesteps/s
98.5% CPU use with 1 MPI tasks x no OpenMP threads

MPI task timing breakdown:
Section |  min time  |  avg time  |  max time  |%varavg| %total
---------------------------------------------------------------
Pair    | 36.775     | 36.775     | 36.775     |   0.0 | 58.11
Neigh   | 24.642     | 24.642     | 24.642     |   0.0 | 38.94
Comm    | 0.58572    | 0.58572    | 0.58572    |   0.0 |  0.93
Output  | 0.00020504 | 0.00020504 | 0.00020504 |   0.0 |  0.00
Modify  | 0.9244     | 0.9244     | 0.9244     |   0.0 |  1.46
Other   |            | 0.3546     |            |       |  0.56

Nlocal:    19652 ave 19652 max 19652 min
Histogram: 1 0 0 0 0 0 0 0 0 0
Nghost:    15783 ave 15783 max 15783 min
Histogram: 1 0 0 0 0 0 0 0 0 0
Neighs:    1.04293e+06 ave 1.04293e+06 max 1.04293e+06 min
Histogram: 1 0 0 0 0 0 0 0 0 0

Total # of neighbors = 1042930
Ave neighs/atom = 53.0699
Neighbor list builds = 495
Dangerous builds not checked
Setting up Verlet run ...
  Unit style    : metal
  Current step  : 81495
  Time step     : 0.001
Per MPI rank memory allocation (min/avg/max) = 18.22 | 18.22 | 18.22 Mbytes
Step Temp Press TotEng PotEng Enthalpy Volume 
   81495    373.09394   -378.17537   -26487.366   -27435.058   -26600.987    481369.49 
   82000    347.42538    275.92238     -26643.1   -27525.592   -26560.648    478769.86 
Loop time of 65.7657 on 1 procs for 505 steps with 19652 atoms

Performance: 0.663 ns/day, 36.175 hours/ns, 7.679 timesteps/s
98.9% CPU use with 1 MPI tasks x no OpenMP threads

MPI task timing breakdown:
Section |  min time  |  avg time  |  max time  |%varavg| %total
---------------------------------------------------------------
Pair    | 38.261     | 38.261     | 38.261     |   0.0 | 58.18
Neigh   | 25.422     | 25.422     | 25.422     |   0.0 | 38.66
Comm    | 0.6724     | 0.6724     | 0.6724     |   0.0 |  1.02
Output  | 0.05584    | 0.05584    | 0.05584    |   0.0 |  0.08
Modify  | 1.0095     | 1.0095     | 1.0095     |   0.0 |  1.53
Other   |            | 0.3452     |            |       |  0.52

Nlocal:    19652 ave 19652 max 19652 min
Histogram: 1 0 0 0 0 0 0 0 0 0
Nghost:    15798 ave 15798 max 15798 min
Histogram: 1 0 0 0 0 0 0 0 0 0
Neighs:    1.0501e+06 ave 1.0501e+06 max 1.0501e+06 min
Histogram: 1 0 0 0 0 0 0 0 0 0

Total # of neighbors = 1050104
Ave neighs/atom = 53.435
Neighbor list builds = 505
Dangerous builds not checked
Setting up Verlet run ...
  Unit style    : metal
  Current step  : 82000
  Time step     : 0.001
Per MPI rank memory allocation (min/avg/max) = 18.22 | 18.22 | 18.22 Mbytes
Step Temp Press TotEng PotEng Enthalpy Volume 
   82000    347.42538    275.92238     -26643.1   -27525.592   -26560.648    478769.86 
   82495    325.48179    -142.7228   -26789.412   -27616.166   -26831.973    477775.85 
Loop time of 63.6401 on 1 procs for 495 steps with 19652 atoms

Performance: 0.672 ns/day, 35.713 hours/ns, 7.778 timesteps/s
99.5% CPU use with 1 MPI tasks x no OpenMP threads

MPI task timing breakdown:
Section |  min time  |  avg time  |  max time  |%varavg| %total
---------------------------------------------------------------
Pair    | 36.973     | 36.973     | 36.973     |   0.0 | 58.10
Neigh   | 24.707     | 24.707     | 24.707     |   0.0 | 38.82
Comm    | 0.64493    | 0.64493    | 0.64493    |   0.0 |  1.01
Output  | 0.00021815 | 0.00021815 | 0.00021815 |   0.0 |  0.00
Modify  | 0.98579    | 0.98579    | 0.98579    |   0.0 |  1.55
Other   |            | 0.3294     |            |       |  0.52

Nlocal:    19652 ave 19652 max 19652 min
Histogram: 1 0 0 0 0 0 0 0 0 0
Nghost:    15800 ave 15800 max 15800 min
Histogram: 1 0 0 0 0 0 0 0 0 0
Neighs:    1.05272e+06 ave 1.05272e+06 max 1.05272e+06 min
Histogram: 1 0 0 0 0 0 0 0 0 0

Total # of neighbors = 1052720
Ave neighs/atom = 53.5681
Neighbor list builds = 495
Dangerous builds not checked
Setting up Verlet run ...
  Unit style    : metal
  Current step  : 82495
  Time step     : 0.001
Per MPI rank memory allocation (min/avg/max) = 18.22 | 18.22 | 18.22 Mbytes
Step Temp Press TotEng PotEng Enthalpy Volume 
   82495    325.48179    -142.7228   -26789.412   -27616.166   -26831.973    477775.85 
   83000    299.18314   -24.396588   -26939.333   -27699.286   -26946.583    476130.07 
Loop time of 64.4695 on 1 procs for 505 steps with 19652 atoms

Performance: 0.677 ns/day, 35.462 hours/ns, 7.833 timesteps/s
99.0% CPU use with 1 MPI tasks x no OpenMP threads

MPI task timing breakdown:
Section |  min time  |  avg time  |  max time  |%varavg| %total
---------------------------------------------------------------
Pair    | 37.496     | 37.496     | 37.496     |   0.0 | 58.16
Neigh   | 25.068     | 25.068     | 25.068     |   0.0 | 38.88
Comm    | 0.58302    | 0.58302    | 0.58302    |   0.0 |  0.90
Output  | 0.053337   | 0.053337   | 0.053337   |   0.0 |  0.08
Modify  | 0.9315     | 0.9315     | 0.9315     |   0.0 |  1.44
Other   |            | 0.3383     |            |       |  0.52

Nlocal:    19652 ave 19652 max 19652 min
Histogram: 1 0 0 0 0 0 0 0 0 0
Nghost:    15836 ave 15836 max 15836 min
Histogram: 1 0 0 0 0 0 0 0 0 0
Neighs:    1.05751e+06 ave 1.05751e+06 max 1.05751e+06 min
Histogram: 1 0 0 0 0 0 0 0 0 0

Total # of neighbors = 1057509
Ave neighs/atom = 53.8118
Neighbor list builds = 505
Dangerous builds not checked
Setting up Verlet run ...
  Unit style    : metal
  Current step  : 83000
  Time step     : 0.001
Per MPI rank memory allocation (min/avg/max) = 18.22 | 18.22 | 18.22 Mbytes
Step Temp Press TotEng PotEng Enthalpy Volume 
   83000    299.18314   -24.396588   -26939.333   -27699.286   -26946.583    476130.07 
   83495    274.32131   -41.888493   -27084.353   -27781.154   -27096.761    474609.56 
Loop time of 65.4437 on 1 procs for 495 steps with 19652 atoms

Performance: 0.654 ns/day, 36.725 hours/ns, 7.564 timesteps/s
98.9% CPU use with 1 MPI tasks x no OpenMP threads

MPI task timing breakdown:
Section |  min time  |  avg time  |  max time  |%varavg| %total
---------------------------------------------------------------
Pair    | 38.166     | 38.166     | 38.166     |   0.0 | 58.32
Neigh   | 25.161     | 25.161     | 25.161     |   0.0 | 38.45
Comm    | 0.70234    | 0.70234    | 0.70234    |   0.0 |  1.07
Output  | 0.00019407 | 0.00019407 | 0.00019407 |   0.0 |  0.00
Modify  | 1.0416     | 1.0416     | 1.0416     |   0.0 |  1.59
Other   |            | 0.3726     |            |       |  0.57

Nlocal:    19652 ave 19652 max 19652 min
Histogram: 1 0 0 0 0 0 0 0 0 0
Nghost:    15849 ave 15849 max 15849 min
Histogram: 1 0 0 0 0 0 0 0 0 0
Neighs:    1.06141e+06 ave 1.06141e+06 max 1.06141e+06 min
Histogram: 1 0 0 0 0 0 0 0 0 0

Total # of neighbors = 1061410
Ave neighs/atom = 54.0103
Neighbor list builds = 495
Dangerous builds not checked
Setting up Verlet run ...
  Unit style    : metal
  Current step  : 83495
  Time step     : 0.001
Per MPI rank memory allocation (min/avg/max) = 18.22 | 18.22 | 18.22 Mbytes
Step Temp Press TotEng PotEng Enthalpy Volume 
   83495    274.32131   -41.888493   -27084.353   -27781.154   -27096.761    474609.56 
   84000    248.22772   -124.50794   -27232.866   -27863.387   -27269.664    473521.52 
Loop time of 65.6376 on 1 procs for 505 steps with 19652 atoms

Performance: 0.665 ns/day, 36.104 hours/ns, 7.694 timesteps/s
99.3% CPU use with 1 MPI tasks x no OpenMP threads

MPI task timing breakdown:
Section |  min time  |  avg time  |  max time  |%varavg| %total
---------------------------------------------------------------
Pair    | 38.302     | 38.302     | 38.302     |   0.0 | 58.35
Neigh   | 25.279     | 25.279     | 25.279     |   0.0 | 38.51
Comm    | 0.65927    | 0.65927    | 0.65927    |   0.0 |  1.00
Output  | 0.055682   | 0.055682   | 0.055682   |   0.0 |  0.08
Modify  | 0.994      | 0.994      | 0.994      |   0.0 |  1.51
Other   |            | 0.3473     |            |       |  0.53

Nlocal:    19652 ave 19652 max 19652 min
Histogram: 1 0 0 0 0 0 0 0 0 0
Nghost:    15821 ave 15821 max 15821 min
Histogram: 1 0 0 0 0 0 0 0 0 0
Neighs:    1.06514e+06 ave 1.06514e+06 max 1.06514e+06 min
Histogram: 1 0 0 0 0 0 0 0 0 0

Total # of neighbors = 1065145
Ave neighs/atom = 54.2003
Neighbor list builds = 505
Dangerous builds not checked
Setting up Verlet run ...
  Unit style    : metal
  Current step  : 84000
  Time step     : 0.001
Per MPI rank memory allocation (min/avg/max) = 18.22 | 18.22 | 18.22 Mbytes
Step Temp Press TotEng PotEng Enthalpy Volume 
   84000    248.22772   -124.50794   -27232.866   -27863.387   -27269.664    473521.52 
   84495    225.53325   -153.67327   -27372.625     -27945.5   -27417.909    472125.86 
Loop time of 64.0317 on 1 procs for 495 steps with 19652 atoms

Performance: 0.668 ns/day, 35.932 hours/ns, 7.731 timesteps/s
99.8% CPU use with 1 MPI tasks x no OpenMP threads

MPI task timing breakdown:
Section |  min time  |  avg time  |  max time  |%varavg| %total
---------------------------------------------------------------
Pair    | 37.415     | 37.415     | 37.415     |   0.0 | 58.43
Neigh   | 24.64      | 24.64      | 24.64      |   0.0 | 38.48
Comm    | 0.66152    | 0.66152    | 0.66152    |   0.0 |  1.03
Output  | 0.00019789 | 0.00019789 | 0.00019789 |   0.0 |  0.00
Modify  | 0.97143    | 0.97143    | 0.97143    |   0.0 |  1.52
Other   |            | 0.3432     |            |       |  0.54

Nlocal:    19652 ave 19652 max 19652 min
Histogram: 1 0 0 0 0 0 0 0 0 0
Nghost:    15866 ave 15866 max 15866 min
Histogram: 1 0 0 0 0 0 0 0 0 0
Neighs:    1.06911e+06 ave 1.06911e+06 max 1.06911e+06 min
Histogram: 1 0 0 0 0 0 0 0 0 0

Total # of neighbors = 1069109
Ave neighs/atom = 54.402
Neighbor list builds = 495
Dangerous builds not checked
Setting up Verlet run ...
  Unit style    : metal
  Current step  : 84495
  Time step     : 0.001
Per MPI rank memory allocation (min/avg/max) = 18.22 | 18.22 | 18.22 Mbytes
Step Temp Press TotEng PotEng Enthalpy Volume 
   84495    225.53325   -153.67327   -27372.625     -27945.5   -27417.909    472125.86 
   85000    199.35331    47.237348   -27516.797   -28023.172   -27502.929     470365.3 
Loop time of 65.4847 on 1 procs for 505 steps with 19652 atoms

Performance: 0.666 ns/day, 36.020 hours/ns, 7.712 timesteps/s
99.8% CPU use with 1 MPI tasks x no OpenMP threads

MPI task timing breakdown:
Section |  min time  |  avg time  |  max time  |%varavg| %total
---------------------------------------------------------------
Pair    | 38.378     | 38.378     | 38.378     |   0.0 | 58.61
Neigh   | 25.066     | 25.066     | 25.066     |   0.0 | 38.28
Comm    | 0.64869    | 0.64869    | 0.64869    |   0.0 |  0.99
Output  | 0.056489   | 0.056489   | 0.056489   |   0.0 |  0.09
Modify  | 0.98621    | 0.98621    | 0.98621    |   0.0 |  1.51
Other   |            | 0.3493     |            |       |  0.53

Nlocal:    19652 ave 19652 max 19652 min
Histogram: 1 0 0 0 0 0 0 0 0 0
Nghost:    15906 ave 15906 max 15906 min
Histogram: 1 0 0 0 0 0 0 0 0 0
Neighs:    1.07371e+06 ave 1.07371e+06 max 1.07371e+06 min
Histogram: 1 0 0 0 0 0 0 0 0 0

Total # of neighbors = 1073710
Ave neighs/atom = 54.6362
Neighbor list builds = 505
Dangerous builds not checked
Setting up Verlet run ...
  Unit style    : metal
  Current step  : 85000
  Time step     : 0.001
Per MPI rank memory allocation (min/avg/max) = 18.22 | 18.22 | 18.22 Mbytes
Step Temp Press TotEng PotEng Enthalpy Volume 
   85000    199.35331    47.237348   -27516.797   -28023.172   -27502.929     470365.3 
   85495    177.28747    161.81918   -27648.475   -28098.801    -27601.11    468960.53 
Loop time of 64.4571 on 1 procs for 495 steps with 19652 atoms

Performance: 0.664 ns/day, 36.171 hours/ns, 7.680 timesteps/s
99.8% CPU use with 1 MPI tasks x no OpenMP threads

MPI task timing breakdown:
Section |  min time  |  avg time  |  max time  |%varavg| %total
---------------------------------------------------------------
Pair    | 37.833     | 37.833     | 37.833     |   0.0 | 58.70
Neigh   | 24.651     | 24.651     | 24.651     |   0.0 | 38.24
Comm    | 0.65069    | 0.65069    | 0.65069    |   0.0 |  1.01
Output  | 0.00032902 | 0.00032902 | 0.00032902 |   0.0 |  0.00
Modify  | 0.97791    | 0.97791    | 0.97791    |   0.0 |  1.52
Other   |            | 0.3438     |            |       |  0.53

Nlocal:    19652 ave 19652 max 19652 min
Histogram: 1 0 0 0 0 0 0 0 0 0
Nghost:    15879 ave 15879 max 15879 min
Histogram: 1 0 0 0 0 0 0 0 0 0
Neighs:    1.07749e+06 ave 1.07749e+06 max 1.07749e+06 min
Histogram: 1 0 0 0 0 0 0 0 0 0

Total # of neighbors = 1077492
Ave neighs/atom = 54.8286
Neighbor list builds = 495
Dangerous builds not checked
Setting up Verlet run ...
  Unit style    : metal
  Current step  : 85495
  Time step     : 0.001
Per MPI rank memory allocation (min/avg/max) = 18.22 | 18.22 | 18.22 Mbytes
Step Temp Press TotEng PotEng Enthalpy Volume 
   85495    177.28747    161.81918   -27648.475   -28098.801    -27601.11    468960.53 
   86000     152.3543   -101.64317   -27786.982   -28173.976   -27816.683    468171.63 
Loop time of 65.8366 on 1 procs for 505 steps with 19652 atoms

Performance: 0.663 ns/day, 36.214 hours/ns, 7.671 timesteps/s
98.8% CPU use with 1 MPI tasks x no OpenMP threads

MPI task timing breakdown:
Section |  min time  |  avg time  |  max time  |%varavg| %total
---------------------------------------------------------------
Pair    | 38.66      | 38.66      | 38.66      |   0.0 | 58.72
Neigh   | 25.156     | 25.156     | 25.156     |   0.0 | 38.21
Comm    | 0.64179    | 0.64179    | 0.64179    |   0.0 |  0.97
Output  | 0.053725   | 0.053725   | 0.053725   |   0.0 |  0.08
Modify  | 0.98573    | 0.98573    | 0.98573    |   0.0 |  1.50
Other   |            | 0.3389     |            |       |  0.51

Nlocal:    19652 ave 19652 max 19652 min
Histogram: 1 0 0 0 0 0 0 0 0 0
Nghost:    15925 ave 15925 max 15925 min
Histogram: 1 0 0 0 0 0 0 0 0 0
Neighs:    1.08025e+06 ave 1.08025e+06 max 1.08025e+06 min
Histogram: 1 0 0 0 0 0 0 0 0 0

Total # of neighbors = 1080246
Ave neighs/atom = 54.9688
Neighbor list builds = 505
Dangerous builds not checked
Setting up Verlet run ...
  Unit style    : metal
  Current step  : 86000
  Time step     : 0.001
Per MPI rank memory allocation (min/avg/max) = 18.22 | 18.22 | 18.22 Mbytes
Step Temp Press TotEng PotEng Enthalpy Volume 
   86000     152.3543   -101.64317   -27786.982   -28173.976   -27816.683    468171.63 
   86495    128.17201    249.08882   -27916.506   -28242.074   -27843.983    466475.09 
Loop time of 64.8566 on 1 procs for 495 steps with 19652 atoms

Performance: 0.659 ns/day, 36.395 hours/ns, 7.632 timesteps/s
98.6% CPU use with 1 MPI tasks x no OpenMP threads

MPI task timing breakdown:
Section |  min time  |  avg time  |  max time  |%varavg| %total
---------------------------------------------------------------
Pair    | 38.093     | 38.093     | 38.093     |   0.0 | 58.73
Neigh   | 24.828     | 24.828     | 24.828     |   0.0 | 38.28
Comm    | 0.65594    | 0.65594    | 0.65594    |   0.0 |  1.01
Output  | 0.00020194 | 0.00020194 | 0.00020194 |   0.0 |  0.00
Modify  | 0.95801    | 0.95801    | 0.95801    |   0.0 |  1.48
Other   |            | 0.3208     |            |       |  0.49

Nlocal:    19652 ave 19652 max 19652 min
Histogram: 1 0 0 0 0 0 0 0 0 0
Nghost:    15965 ave 15965 max 15965 min
Histogram: 1 0 0 0 0 0 0 0 0 0
Neighs:    1.08468e+06 ave 1.08468e+06 max 1.08468e+06 min
Histogram: 1 0 0 0 0 0 0 0 0 0

Total # of neighbors = 1084676
Ave neighs/atom = 55.1942
Neighbor list builds = 495
Dangerous builds not checked
Setting up Verlet run ...
  Unit style    : metal
  Current step  : 86495
  Time step     : 0.001
Per MPI rank memory allocation (min/avg/max) = 18.22 | 18.22 | 18.22 Mbytes
Step Temp Press TotEng PotEng Enthalpy Volume 
   86495    128.17201    249.08882   -27916.506   -28242.074   -27843.983    466475.09 
   87000    102.90493    123.21272    -28050.32   -28311.708   -28014.519    465541.01 
Loop time of 66.3266 on 1 procs for 505 steps with 19652 atoms

Performance: 0.658 ns/day, 36.483 hours/ns, 7.614 timesteps/s
98.7% CPU use with 1 MPI tasks x no OpenMP threads

MPI task timing breakdown:
Section |  min time  |  avg time  |  max time  |%varavg| %total
---------------------------------------------------------------
Pair    | 39.065     | 39.065     | 39.065     |   0.0 | 58.90
Neigh   | 25.203     | 25.203     | 25.203     |   0.0 | 38.00
Comm    | 0.65555    | 0.65555    | 0.65555    |   0.0 |  0.99
Output  | 0.053799   | 0.053799   | 0.053799   |   0.0 |  0.08
Modify  | 0.98965    | 0.98965    | 0.98965    |   0.0 |  1.49
Other   |            | 0.3604     |            |       |  0.54

Nlocal:    19652 ave 19652 max 19652 min
Histogram: 1 0 0 0 0 0 0 0 0 0
Nghost:    15944 ave 15944 max 15944 min
Histogram: 1 0 0 0 0 0 0 0 0 0
Neighs:    1.08773e+06 ave 1.08773e+06 max 1.08773e+06 min
Histogram: 1 0 0 0 0 0 0 0 0 0

Total # of neighbors = 1087730
Ave neighs/atom = 55.3496
Neighbor list builds = 505
Dangerous builds not checked
Total wall time: 2:53:40
