LAMMPS (12 Dec 2018)
Lattice spacing in x,y,z = 4 4 4
Created orthogonal box = (0 0 0) to (68 68 68)
  1 by 1 by 1 MPI processor grid
Created 19652 atoms
  Time spent = 0.00449181 secs
Setting atom values ...
  19480 settings made for type/fraction
Neighbor list info ...
  update every 1 steps, delay 0 steps, check no
  max neighbors/atom: 2000, page size: 100000
  master list distance cutoff = 8.5
  ghost atom cutoff = 8.5
  binsize = 4.25, bins = 16 16 16
  1 neighbor lists, perpetual/occasional/extra = 1 0 0
  (1) pair eam/alloy, perpetual
      attributes: half, newton on
      pair build: half/bin/atomonly/newton
      stencil: half/bin/3d/newton
      bin: standard
Setting up Verlet run ...
  Unit style    : metal
  Current step  : 0
  Time step     : 0.001
Per MPI rank memory allocation (min/avg/max) = 18.19 | 18.19 | 18.19 Mbytes
Step Temp Press TotEng PotEng Enthalpy 
       0          300    644501.64   -38570.515   -39332.543    87914.888 
    1000     883.2033    635726.29   -38570.724   -40814.141     86192.49 
Loop time of 167.677 on 1 procs for 1000 steps with 19652 atoms

Performance: 0.515 ns/day, 46.577 hours/ns, 5.964 timesteps/s
99.6% CPU use with 1 MPI tasks x no OpenMP threads

MPI task timing breakdown:
Section |  min time  |  avg time  |  max time  |%varavg| %total
---------------------------------------------------------------
Pair    | 93.962     | 93.962     | 93.962     |   0.0 | 56.04
Neigh   | 70.382     | 70.382     | 70.382     |   0.0 | 41.97
Comm    | 1.8002     | 1.8002     | 1.8002     |   0.0 |  1.07
Output  | 0.00022912 | 0.00022912 | 0.00022912 |   0.0 |  0.00
Modify  | 0.77523    | 0.77523    | 0.77523    |   0.0 |  0.46
Other   |            | 0.7575     |            |       |  0.45

Nlocal:    19652 ave 19652 max 19652 min
Histogram: 1 0 0 0 0 0 0 0 0 0
Nghost:    18864 ave 18864 max 18864 min
Histogram: 1 0 0 0 0 0 0 0 0 0
Neighs:    1.58334e+06 ave 1.58334e+06 max 1.58334e+06 min
Histogram: 1 0 0 0 0 0 0 0 0 0

Total # of neighbors = 1583336
Ave neighs/atom = 80.5687
Neighbor list builds = 1000
Dangerous builds not checked
Setting up Verlet run ...
  Unit style    : metal
  Current step  : 1000
  Time step     : 0.001
Per MPI rank memory allocation (min/avg/max) = 18.19 | 18.19 | 18.19 Mbytes
Step Temp Press TotEng PotEng Enthalpy 
    1000     883.2033    635726.29   -38570.724   -40814.141     86192.49 
    2000    354.09815   -160.65685   -81201.095   -82100.537   -81266.223 
Loop time of 113.515 on 1 procs for 1000 steps with 19652 atoms

Performance: 0.761 ns/day, 31.532 hours/ns, 8.809 timesteps/s
99.9% CPU use with 1 MPI tasks x no OpenMP threads

MPI task timing breakdown:
Section |  min time  |  avg time  |  max time  |%varavg| %total
---------------------------------------------------------------
Pair    | 59.438     | 59.438     | 59.438     |   0.0 | 52.36
Neigh   | 50.253     | 50.253     | 50.253     |   0.0 | 44.27
Comm    | 1.2497     | 1.2497     | 1.2497     |   0.0 |  1.10
Output  | 0.048016   | 0.048016   | 0.048016   |   0.0 |  0.04
Modify  | 1.815      | 1.815      | 1.815      |   0.0 |  1.60
Other   |            | 0.7116     |            |       |  0.63

Nlocal:    19652 ave 19652 max 19652 min
Histogram: 1 0 0 0 0 0 0 0 0 0
Nghost:    14090 ave 14090 max 14090 min
Histogram: 1 0 0 0 0 0 0 0 0 0
Neighs:    721947 ave 721947 max 721947 min
Histogram: 1 0 0 0 0 0 0 0 0 0

Total # of neighbors = 721947
Ave neighs/atom = 36.7366
Neighbor list builds = 1000
Dangerous builds not checked
Setting up Verlet run ...
  Unit style    : metal
  Current step  : 2000
  Time step     : 0.001
Per MPI rank memory allocation (min/avg/max) = 18.2 | 18.2 | 18.2 Mbytes
Step Temp Press TotEng PotEng Enthalpy 
    2000    354.09815   -160.65685   -81201.095   -82100.537   -81266.223 
    4000    792.40706    139.40876   -79351.376   -81364.162   -79294.207 
    6000    1353.1706    338.30072   -76107.989   -79545.165   -75966.472 
    8000    1894.0966    979.49015   -72533.152    -77344.33   -72114.041 
   10000    2431.6902    488.02266   -69081.413   -75258.128    -68867.09 
Loop time of 749.096 on 1 procs for 8000 steps with 19652 atoms

Performance: 0.923 ns/day, 26.010 hours/ns, 10.680 timesteps/s
99.6% CPU use with 1 MPI tasks x no OpenMP threads

MPI task timing breakdown:
Section |  min time  |  avg time  |  max time  |%varavg| %total
---------------------------------------------------------------
Pair    | 374.33     | 374.33     | 374.33     |   0.0 | 49.97
Neigh   | 344.47     | 344.47     | 344.47     |   0.0 | 45.99
Comm    | 9.6902     | 9.6902     | 9.6902     |   0.0 |  1.29
Output  | 0.18585    | 0.18585    | 0.18585    |   0.0 |  0.02
Modify  | 14.845     | 14.845     | 14.845     |   0.0 |  1.98
Other   |            | 5.571      |            |       |  0.74

Nlocal:    19652 ave 19652 max 19652 min
Histogram: 1 0 0 0 0 0 0 0 0 0
Nghost:    13607 ave 13607 max 13607 min
Histogram: 1 0 0 0 0 0 0 0 0 0
Neighs:    686025 ave 686025 max 686025 min
Histogram: 1 0 0 0 0 0 0 0 0 0

Total # of neighbors = 686025
Ave neighs/atom = 34.9087
Neighbor list builds = 8000
Dangerous builds not checked
Setting up Verlet run ...
  Unit style    : metal
  Current step  : 10000
  Time step     : 0.001
Per MPI rank memory allocation (min/avg/max) = 18.2 | 18.2 | 18.2 Mbytes
Step Temp Press TotEng PotEng Enthalpy 
   10000    2431.6902    488.02266   -69081.413   -75258.128    -68867.09 
   12000    2461.2649    1193.7536    -68890.74   -75142.577   -68367.128 
   14000    2436.9228   -605.35989   -68953.849   -75143.855    -69221.02 
   16000    2450.7242   -776.95018   -68912.536   -75137.599    -69255.53 
   18000    2469.3722    160.79694   -68900.697   -75173.127   -68829.865 
   20000    2450.2296   -710.72873   -68835.117   -75058.923   -69149.249 
   22000    2451.4634   -270.54761   -68929.836   -75156.777   -69049.176 
   24000    2447.6239   -76.197459   -68920.666   -75137.854   -68954.272 
   26000     2458.099   -103.41603   -68900.762   -75144.557   -68946.396 
   28000    2440.6603   -488.13206   -68855.497   -75054.996   -69071.149 
   30000    2449.6769    139.50019   -68924.389   -75146.792   -68862.891 
   32000    2445.1776   -298.18074   -68954.455   -75165.429   -69085.971 
   34000    2457.3773   -287.19375    -68951.94   -75193.902   -69078.667 
   36000    2436.2653   -1026.0836   -68952.265   -75140.601   -69405.658 
   38000    2437.2168    103.03373   -68893.445   -75084.198   -68847.997 
   40000    2433.3957    218.88206   -69047.423    -75228.47   -68951.193 
Loop time of 2805.69 on 1 procs for 30000 steps with 19652 atoms

Performance: 0.924 ns/day, 25.979 hours/ns, 10.693 timesteps/s
99.5% CPU use with 1 MPI tasks x no OpenMP threads

MPI task timing breakdown:
Section |  min time  |  avg time  |  max time  |%varavg| %total
---------------------------------------------------------------
Pair    | 1369.9     | 1369.9     | 1369.9     |   0.0 | 48.83
Neigh   | 1323.3     | 1323.3     | 1323.3     |   0.0 | 47.16
Comm    | 35.937     | 35.937     | 35.937     |   0.0 |  1.28
Output  | 0.72437    | 0.72437    | 0.72437    |   0.0 |  0.03
Modify  | 55.268     | 55.268     | 55.268     |   0.0 |  1.97
Other   |            | 20.55      |            |       |  0.73

Nlocal:    19652 ave 19652 max 19652 min
Histogram: 1 0 0 0 0 0 0 0 0 0
Nghost:    13591 ave 13591 max 13591 min
Histogram: 1 0 0 0 0 0 0 0 0 0
Neighs:    685663 ave 685663 max 685663 min
Histogram: 1 0 0 0 0 0 0 0 0 0

Total # of neighbors = 685663
Ave neighs/atom = 34.8902
Neighbor list builds = 30000
Dangerous builds not checked
Setting up Verlet run ...
  Unit style    : metal
  Current step  : 40000
  Time step     : 0.001
Per MPI rank memory allocation (min/avg/max) = 18.2 | 18.2 | 18.2 Mbytes
Step Temp Press TotEng PotEng Enthalpy 
   40000    2433.3957    218.88206   -69047.423    -75228.47   -68951.193 
   40495    2407.6264   -517.76219   -69179.319   -75294.909    -69407.46 
Loop time of 44.9188 on 1 procs for 495 steps with 19652 atoms

Performance: 0.952 ns/day, 25.207 hours/ns, 11.020 timesteps/s
99.7% CPU use with 1 MPI tasks x no OpenMP threads

MPI task timing breakdown:
Section |  min time  |  avg time  |  max time  |%varavg| %total
---------------------------------------------------------------
Pair    | 22.001     | 22.001     | 22.001     |   0.0 | 48.98
Neigh   | 21.134     | 21.134     | 21.134     |   0.0 | 47.05
Comm    | 0.57311    | 0.57311    | 0.57311    |   0.0 |  1.28
Output  | 0.00019693 | 0.00019693 | 0.00019693 |   0.0 |  0.00
Modify  | 0.88862    | 0.88862    | 0.88862    |   0.0 |  1.98
Other   |            | 0.321      |            |       |  0.71

Nlocal:    19652 ave 19652 max 19652 min
Histogram: 1 0 0 0 0 0 0 0 0 0
Nghost:    13596 ave 13596 max 13596 min
Histogram: 1 0 0 0 0 0 0 0 0 0
Neighs:    683749 ave 683749 max 683749 min
Histogram: 1 0 0 0 0 0 0 0 0 0

Total # of neighbors = 683749
Ave neighs/atom = 34.7928
Neighbor list builds = 495
Dangerous builds not checked
Setting up Verlet run ...
  Unit style    : metal
  Current step  : 40495
  Time step     : 0.001
Per MPI rank memory allocation (min/avg/max) = 18.2 | 18.2 | 18.2 Mbytes
Step Temp Press TotEng PotEng Enthalpy 
   40495    2407.6264   -517.76219   -69179.319   -75294.909    -69407.46 
   42000    2406.8501    41.981391   -69219.862   -75333.481   -69201.399 
Loop time of 137.43 on 1 procs for 1505 steps with 19652 atoms

Performance: 0.946 ns/day, 25.365 hours/ns, 10.951 timesteps/s
98.7% CPU use with 1 MPI tasks x no OpenMP threads

MPI task timing breakdown:
Section |  min time  |  avg time  |  max time  |%varavg| %total
---------------------------------------------------------------
Pair    | 66.821     | 66.821     | 66.821     |   0.0 | 48.62
Neigh   | 65.297     | 65.297     | 65.297     |   0.0 | 47.51
Comm    | 1.6963     | 1.6963     | 1.6963     |   0.0 |  1.23
Output  | 0.045057   | 0.045057   | 0.045057   |   0.0 |  0.03
Modify  | 2.628      | 2.628      | 2.628      |   0.0 |  1.91
Other   |            | 0.9422     |            |       |  0.69

Nlocal:    19652 ave 19652 max 19652 min
Histogram: 1 0 0 0 0 0 0 0 0 0
Nghost:    13557 ave 13557 max 13557 min
Histogram: 1 0 0 0 0 0 0 0 0 0
Neighs:    684923 ave 684923 max 684923 min
Histogram: 1 0 0 0 0 0 0 0 0 0

Total # of neighbors = 684923
Ave neighs/atom = 34.8526
Neighbor list builds = 1505
Dangerous builds not checked
Setting up Verlet run ...
  Unit style    : metal
  Current step  : 42000
  Time step     : 0.001
Per MPI rank memory allocation (min/avg/max) = 18.2 | 18.2 | 18.2 Mbytes
Step Temp Press TotEng PotEng Enthalpy 
   42000    2406.8501    41.981391   -69219.862   -75333.481   -69201.399 
   42495    2351.1191    256.93032    -69440.17   -75412.227   -69327.452 
Loop time of 45.1168 on 1 procs for 495 steps with 19652 atoms

Performance: 0.948 ns/day, 25.318 hours/ns, 10.972 timesteps/s
98.6% CPU use with 1 MPI tasks x no OpenMP threads

MPI task timing breakdown:
Section |  min time  |  avg time  |  max time  |%varavg| %total
---------------------------------------------------------------
Pair    | 22.009     | 22.009     | 22.009     |   0.0 | 48.78
Neigh   | 21.354     | 21.354     | 21.354     |   0.0 | 47.33
Comm    | 0.56104    | 0.56104    | 0.56104    |   0.0 |  1.24
Output  | 0.00024509 | 0.00024509 | 0.00024509 |   0.0 |  0.00
Modify  | 0.87347    | 0.87347    | 0.87347    |   0.0 |  1.94
Other   |            | 0.3189     |            |       |  0.71

Nlocal:    19652 ave 19652 max 19652 min
Histogram: 1 0 0 0 0 0 0 0 0 0
Nghost:    13548 ave 13548 max 13548 min
Histogram: 1 0 0 0 0 0 0 0 0 0
Neighs:    686410 ave 686410 max 686410 min
Histogram: 1 0 0 0 0 0 0 0 0 0

Total # of neighbors = 686410
Ave neighs/atom = 34.9283
Neighbor list builds = 495
Dangerous builds not checked
Setting up Verlet run ...
  Unit style    : metal
  Current step  : 42495
  Time step     : 0.001
Per MPI rank memory allocation (min/avg/max) = 18.2 | 18.2 | 18.2 Mbytes
Step Temp Press TotEng PotEng Enthalpy 
   42495    2351.1191    256.93032    -69440.17   -75412.227   -69327.452 
   44000    2358.1186   -790.19231   -69526.375   -75516.211   -69873.694 
Loop time of 139.004 on 1 procs for 1505 steps with 19652 atoms

Performance: 0.935 ns/day, 25.656 hours/ns, 10.827 timesteps/s
99.2% CPU use with 1 MPI tasks x no OpenMP threads

MPI task timing breakdown:
Section |  min time  |  avg time  |  max time  |%varavg| %total
---------------------------------------------------------------
Pair    | 67.741     | 67.741     | 67.741     |   0.0 | 48.73
Neigh   | 65.705     | 65.705     | 65.705     |   0.0 | 47.27
Comm    | 1.7798     | 1.7798     | 1.7798     |   0.0 |  1.28
Output  | 0.065123   | 0.065123   | 0.065123   |   0.0 |  0.05
Modify  | 2.7122     | 2.7122     | 2.7122     |   0.0 |  1.95
Other   |            | 1.001      |            |       |  0.72

Nlocal:    19652 ave 19652 max 19652 min
Histogram: 1 0 0 0 0 0 0 0 0 0
Nghost:    13581 ave 13581 max 13581 min
Histogram: 1 0 0 0 0 0 0 0 0 0
Neighs:    685389 ave 685389 max 685389 min
Histogram: 1 0 0 0 0 0 0 0 0 0

Total # of neighbors = 685389
Ave neighs/atom = 34.8763
Neighbor list builds = 1505
Dangerous builds not checked
Setting up Verlet run ...
  Unit style    : metal
  Current step  : 44000
  Time step     : 0.001
Per MPI rank memory allocation (min/avg/max) = 18.2 | 18.2 | 18.2 Mbytes
Step Temp Press TotEng PotEng Enthalpy 
   44000    2358.1186   -790.19231   -69526.375   -75516.211   -69873.694 
   44495    2317.4239   -72.933934   -69816.033   -75702.501   -69847.948 
Loop time of 45.1629 on 1 procs for 495 steps with 19652 atoms

Performance: 0.947 ns/day, 25.344 hours/ns, 10.960 timesteps/s
98.8% CPU use with 1 MPI tasks x no OpenMP threads

MPI task timing breakdown:
Section |  min time  |  avg time  |  max time  |%varavg| %total
---------------------------------------------------------------
Pair    | 22.139     | 22.139     | 22.139     |   0.0 | 49.02
Neigh   | 21.269     | 21.269     | 21.269     |   0.0 | 47.09
Comm    | 0.55222    | 0.55222    | 0.55222    |   0.0 |  1.22
Output  | 0.0001812  | 0.0001812  | 0.0001812  |   0.0 |  0.00
Modify  | 0.89084    | 0.89084    | 0.89084    |   0.0 |  1.97
Other   |            | 0.3117     |            |       |  0.69

Nlocal:    19652 ave 19652 max 19652 min
Histogram: 1 0 0 0 0 0 0 0 0 0
Nghost:    13617 ave 13617 max 13617 min
Histogram: 1 0 0 0 0 0 0 0 0 0
Neighs:    687383 ave 687383 max 687383 min
Histogram: 1 0 0 0 0 0 0 0 0 0

Total # of neighbors = 687383
Ave neighs/atom = 34.9778
Neighbor list builds = 495
Dangerous builds not checked
Setting up Verlet run ...
  Unit style    : metal
  Current step  : 44495
  Time step     : 0.001
Per MPI rank memory allocation (min/avg/max) = 18.2 | 18.2 | 18.2 Mbytes
Step Temp Press TotEng PotEng Enthalpy 
   44495    2317.4239   -72.933934   -69816.033   -75702.501   -69847.948 
   46000    2308.3847   -544.46858   -69779.499   -75643.007   -70018.504 
Loop time of 139.459 on 1 procs for 1505 steps with 19652 atoms

Performance: 0.932 ns/day, 25.740 hours/ns, 10.792 timesteps/s
99.8% CPU use with 1 MPI tasks x no OpenMP threads

MPI task timing breakdown:
Section |  min time  |  avg time  |  max time  |%varavg| %total
---------------------------------------------------------------
Pair    | 68.391     | 68.391     | 68.391     |   0.0 | 49.04
Neigh   | 65.486     | 65.486     | 65.486     |   0.0 | 46.96
Comm    | 1.7912     | 1.7912     | 1.7912     |   0.0 |  1.28
Output  | 0.047242   | 0.047242   | 0.047242   |   0.0 |  0.03
Modify  | 2.7413     | 2.7413     | 2.7413     |   0.0 |  1.97
Other   |            | 1.003      |            |       |  0.72

Nlocal:    19652 ave 19652 max 19652 min
Histogram: 1 0 0 0 0 0 0 0 0 0
Nghost:    13496 ave 13496 max 13496 min
Histogram: 1 0 0 0 0 0 0 0 0 0
Neighs:    685610 ave 685610 max 685610 min
Histogram: 1 0 0 0 0 0 0 0 0 0

Total # of neighbors = 685610
Ave neighs/atom = 34.8875
Neighbor list builds = 1505
Dangerous builds not checked
Setting up Verlet run ...
  Unit style    : metal
  Current step  : 46000
  Time step     : 0.001
Per MPI rank memory allocation (min/avg/max) = 18.2 | 18.2 | 18.2 Mbytes
Step Temp Press TotEng PotEng Enthalpy 
   46000    2308.3847   -544.46858   -69779.499   -75643.007   -70018.504 
   46495    2277.1439    200.31327   -70064.173   -75848.326   -69976.696 
Loop time of 44.9654 on 1 procs for 495 steps with 19652 atoms

Performance: 0.951 ns/day, 25.233 hours/ns, 11.008 timesteps/s
99.6% CPU use with 1 MPI tasks x no OpenMP threads

MPI task timing breakdown:
Section |  min time  |  avg time  |  max time  |%varavg| %total
---------------------------------------------------------------
Pair    | 22.034     | 22.034     | 22.034     |   0.0 | 49.00
Neigh   | 21.151     | 21.151     | 21.151     |   0.0 | 47.04
Comm    | 0.5633     | 0.5633     | 0.5633     |   0.0 |  1.25
Output  | 0.00019598 | 0.00019598 | 0.00019598 |   0.0 |  0.00
Modify  | 0.89133    | 0.89133    | 0.89133    |   0.0 |  1.98
Other   |            | 0.3249     |            |       |  0.72

Nlocal:    19652 ave 19652 max 19652 min
Histogram: 1 0 0 0 0 0 0 0 0 0
Nghost:    13552 ave 13552 max 13552 min
Histogram: 1 0 0 0 0 0 0 0 0 0
Neighs:    688998 ave 688998 max 688998 min
Histogram: 1 0 0 0 0 0 0 0 0 0

Total # of neighbors = 688998
Ave neighs/atom = 35.0599
Neighbor list builds = 495
Dangerous builds not checked
Setting up Verlet run ...
  Unit style    : metal
  Current step  : 46495
  Time step     : 0.001
Per MPI rank memory allocation (min/avg/max) = 18.2 | 18.2 | 18.2 Mbytes
Step Temp Press TotEng PotEng Enthalpy 
   46495    2277.1439    200.31327   -70064.173   -75848.326   -69976.696 
   48000     2241.635    -366.4355   -70159.966   -75853.923   -70320.174 
Loop time of 136.421 on 1 procs for 1505 steps with 19652 atoms

Performance: 0.953 ns/day, 25.179 hours/ns, 11.032 timesteps/s
99.7% CPU use with 1 MPI tasks x no OpenMP threads

MPI task timing breakdown:
Section |  min time  |  avg time  |  max time  |%varavg| %total
---------------------------------------------------------------
Pair    | 66.503     | 66.503     | 66.503     |   0.0 | 48.75
Neigh   | 64.626     | 64.626     | 64.626     |   0.0 | 47.37
Comm    | 1.6913     | 1.6913     | 1.6913     |   0.0 |  1.24
Output  | 0.048096   | 0.048096   | 0.048096   |   0.0 |  0.04
Modify  | 2.6293     | 2.6293     | 2.6293     |   0.0 |  1.93
Other   |            | 0.9238     |            |       |  0.68

Nlocal:    19652 ave 19652 max 19652 min
Histogram: 1 0 0 0 0 0 0 0 0 0
Nghost:    13536 ave 13536 max 13536 min
Histogram: 1 0 0 0 0 0 0 0 0 0
Neighs:    688283 ave 688283 max 688283 min
Histogram: 1 0 0 0 0 0 0 0 0 0

Total # of neighbors = 688283
Ave neighs/atom = 35.0236
Neighbor list builds = 1505
Dangerous builds not checked
Setting up Verlet run ...
  Unit style    : metal
  Current step  : 48000
  Time step     : 0.001
Per MPI rank memory allocation (min/avg/max) = 18.2 | 18.2 | 18.2 Mbytes
Step Temp Press TotEng PotEng Enthalpy 
   48000     2241.635    -366.4355   -70159.966   -75853.923   -70320.174 
   48495    2199.6039    14.601104   -70375.361   -75962.555   -70368.991 
Loop time of 44.8074 on 1 procs for 495 steps with 19652 atoms

Performance: 0.954 ns/day, 25.144 hours/ns, 11.047 timesteps/s
99.5% CPU use with 1 MPI tasks x no OpenMP threads

MPI task timing breakdown:
Section |  min time  |  avg time  |  max time  |%varavg| %total
---------------------------------------------------------------
Pair    | 22.013     | 22.013     | 22.013     |   0.0 | 49.13
Neigh   | 21.034     | 21.034     | 21.034     |   0.0 | 46.94
Comm    | 0.56667    | 0.56667    | 0.56667    |   0.0 |  1.26
Output  | 0.00018001 | 0.00018001 | 0.00018001 |   0.0 |  0.00
Modify  | 0.88322    | 0.88322    | 0.88322    |   0.0 |  1.97
Other   |            | 0.3098     |            |       |  0.69

Nlocal:    19652 ave 19652 max 19652 min
Histogram: 1 0 0 0 0 0 0 0 0 0
Nghost:    13659 ave 13659 max 13659 min
Histogram: 1 0 0 0 0 0 0 0 0 0
Neighs:    689266 ave 689266 max 689266 min
Histogram: 1 0 0 0 0 0 0 0 0 0

Total # of neighbors = 689266
Ave neighs/atom = 35.0736
Neighbor list builds = 495
Dangerous builds not checked
Setting up Verlet run ...
  Unit style    : metal
  Current step  : 48495
  Time step     : 0.001
Per MPI rank memory allocation (min/avg/max) = 18.2 | 18.2 | 18.2 Mbytes
Step Temp Press TotEng PotEng Enthalpy 
   48495    2199.6039    14.601104   -70375.361   -75962.555   -70368.991 
   50000    2184.4559   -1184.3528   -70512.497   -76061.214   -71030.444 
Loop time of 137.77 on 1 procs for 1505 steps with 19652 atoms

Performance: 0.944 ns/day, 25.428 hours/ns, 10.924 timesteps/s
99.5% CPU use with 1 MPI tasks x no OpenMP threads

MPI task timing breakdown:
Section |  min time  |  avg time  |  max time  |%varavg| %total
---------------------------------------------------------------
Pair    | 67.399     | 67.399     | 67.399     |   0.0 | 48.92
Neigh   | 64.891     | 64.891     | 64.891     |   0.0 | 47.10
Comm    | 1.7523     | 1.7523     | 1.7523     |   0.0 |  1.27
Output  | 0.048493   | 0.048493   | 0.048493   |   0.0 |  0.04
Modify  | 2.7052     | 2.7052     | 2.7052     |   0.0 |  1.96
Other   |            | 0.9739     |            |       |  0.71

Nlocal:    19652 ave 19652 max 19652 min
Histogram: 1 0 0 0 0 0 0 0 0 0
Nghost:    13582 ave 13582 max 13582 min
Histogram: 1 0 0 0 0 0 0 0 0 0
Neighs:    687693 ave 687693 max 687693 min
Histogram: 1 0 0 0 0 0 0 0 0 0

Total # of neighbors = 687693
Ave neighs/atom = 34.9935
Neighbor list builds = 1505
Dangerous builds not checked
Setting up Verlet run ...
  Unit style    : metal
  Current step  : 50000
  Time step     : 0.001
Per MPI rank memory allocation (min/avg/max) = 18.2 | 18.2 | 18.2 Mbytes
Step Temp Press TotEng PotEng Enthalpy 
   50000    2184.4559   -1184.3528   -70512.497   -76061.214   -71030.444 
   50495    2137.5774   -755.58798   -70628.407   -76058.048   -70958.213 
Loop time of 45.3521 on 1 procs for 495 steps with 19652 atoms

Performance: 0.943 ns/day, 25.450 hours/ns, 10.915 timesteps/s
98.6% CPU use with 1 MPI tasks x no OpenMP threads

MPI task timing breakdown:
Section |  min time  |  avg time  |  max time  |%varavg| %total
---------------------------------------------------------------
Pair    | 22.235     | 22.235     | 22.235     |   0.0 | 49.03
Neigh   | 21.335     | 21.335     | 21.335     |   0.0 | 47.04
Comm    | 0.57175    | 0.57175    | 0.57175    |   0.0 |  1.26
Output  | 0.00022197 | 0.00022197 | 0.00022197 |   0.0 |  0.00
Modify  | 0.89566    | 0.89566    | 0.89566    |   0.0 |  1.97
Other   |            | 0.3141     |            |       |  0.69

Nlocal:    19652 ave 19652 max 19652 min
Histogram: 1 0 0 0 0 0 0 0 0 0
Nghost:    13613 ave 13613 max 13613 min
Histogram: 1 0 0 0 0 0 0 0 0 0
Neighs:    688728 ave 688728 max 688728 min
Histogram: 1 0 0 0 0 0 0 0 0 0

Total # of neighbors = 688728
Ave neighs/atom = 35.0462
Neighbor list builds = 495
Dangerous builds not checked
Setting up Verlet run ...
  Unit style    : metal
  Current step  : 50495
  Time step     : 0.001
Per MPI rank memory allocation (min/avg/max) = 18.2 | 18.2 | 18.2 Mbytes
Step Temp Press TotEng PotEng Enthalpy 
   50495    2137.5774   -755.58798   -70628.407   -76058.048   -70958.213 
   52000    2150.6574   -82.962097   -70722.895    -76185.76   -70758.966 
Loop time of 140.006 on 1 procs for 1505 steps with 19652 atoms

Performance: 0.929 ns/day, 25.841 hours/ns, 10.750 timesteps/s
99.1% CPU use with 1 MPI tasks x no OpenMP threads

MPI task timing breakdown:
Section |  min time  |  avg time  |  max time  |%varavg| %total
---------------------------------------------------------------
Pair    | 68.775     | 68.775     | 68.775     |   0.0 | 49.12
Neigh   | 65.648     | 65.648     | 65.648     |   0.0 | 46.89
Comm    | 1.7732     | 1.7732     | 1.7732     |   0.0 |  1.27
Output  | 0.047417   | 0.047417   | 0.047417   |   0.0 |  0.03
Modify  | 2.7509     | 2.7509     | 2.7509     |   0.0 |  1.96
Other   |            | 1.012      |            |       |  0.72

Nlocal:    19652 ave 19652 max 19652 min
Histogram: 1 0 0 0 0 0 0 0 0 0
Nghost:    13621 ave 13621 max 13621 min
Histogram: 1 0 0 0 0 0 0 0 0 0
Neighs:    690730 ave 690730 max 690730 min
Histogram: 1 0 0 0 0 0 0 0 0 0

Total # of neighbors = 690730
Ave neighs/atom = 35.1481
Neighbor list builds = 1505
Dangerous builds not checked
Setting up Verlet run ...
  Unit style    : metal
  Current step  : 52000
  Time step     : 0.001
Per MPI rank memory allocation (min/avg/max) = 18.2 | 18.2 | 18.2 Mbytes
Step Temp Press TotEng PotEng Enthalpy 
   52000    2150.6574   -82.962097   -70722.895    -76185.76   -70758.966 
   52495     2131.685    157.84366   -70906.388   -76321.062   -70837.839 
Loop time of 45.0254 on 1 procs for 495 steps with 19652 atoms

Performance: 0.950 ns/day, 25.267 hours/ns, 10.994 timesteps/s
99.7% CPU use with 1 MPI tasks x no OpenMP threads

MPI task timing breakdown:
Section |  min time  |  avg time  |  max time  |%varavg| %total
---------------------------------------------------------------
Pair    | 22.135     | 22.135     | 22.135     |   0.0 | 49.16
Neigh   | 21.109     | 21.109     | 21.109     |   0.0 | 46.88
Comm    | 0.5735     | 0.5735     | 0.5735     |   0.0 |  1.27
Output  | 0.00021696 | 0.00021696 | 0.00021696 |   0.0 |  0.00
Modify  | 0.88906    | 0.88906    | 0.88906    |   0.0 |  1.97
Other   |            | 0.3191     |            |       |  0.71

Nlocal:    19652 ave 19652 max 19652 min
Histogram: 1 0 0 0 0 0 0 0 0 0
Nghost:    13676 ave 13676 max 13676 min
Histogram: 1 0 0 0 0 0 0 0 0 0
Neighs:    692008 ave 692008 max 692008 min
Histogram: 1 0 0 0 0 0 0 0 0 0

Total # of neighbors = 692008
Ave neighs/atom = 35.2131
Neighbor list builds = 495
Dangerous builds not checked
Setting up Verlet run ...
  Unit style    : metal
  Current step  : 52495
  Time step     : 0.001
Per MPI rank memory allocation (min/avg/max) = 18.2 | 18.2 | 18.2 Mbytes
Step Temp Press TotEng PotEng Enthalpy 
   52495     2131.685    157.84366   -70906.388   -76321.062   -70837.839 
   54000    2101.5497    161.36522   -71051.697   -76389.825   -70981.715 
Loop time of 137.834 on 1 procs for 1505 steps with 19652 atoms

Performance: 0.943 ns/day, 25.440 hours/ns, 10.919 timesteps/s
99.7% CPU use with 1 MPI tasks x no OpenMP threads

MPI task timing breakdown:
Section |  min time  |  avg time  |  max time  |%varavg| %total
---------------------------------------------------------------
Pair    | 67.626     | 67.626     | 67.626     |   0.0 | 49.06
Neigh   | 64.778     | 64.778     | 64.778     |   0.0 | 47.00
Comm    | 1.7355     | 1.7355     | 1.7355     |   0.0 |  1.26
Output  | 0.045545   | 0.045545   | 0.045545   |   0.0 |  0.03
Modify  | 2.6857     | 2.6857     | 2.6857     |   0.0 |  1.95
Other   |            | 0.9633     |            |       |  0.70

Nlocal:    19652 ave 19652 max 19652 min
Histogram: 1 0 0 0 0 0 0 0 0 0
Nghost:    13578 ave 13578 max 13578 min
Histogram: 1 0 0 0 0 0 0 0 0 0
Neighs:    692625 ave 692625 max 692625 min
Histogram: 1 0 0 0 0 0 0 0 0 0

Total # of neighbors = 692625
Ave neighs/atom = 35.2445
Neighbor list builds = 1505
Dangerous builds not checked
Setting up Verlet run ...
  Unit style    : metal
  Current step  : 54000
  Time step     : 0.001
Per MPI rank memory allocation (min/avg/max) = 18.2 | 18.2 | 18.2 Mbytes
Step Temp Press TotEng PotEng Enthalpy 
   54000    2101.5497    161.36522   -71051.697   -76389.825   -70981.715 
   54495    2059.2487    318.47434   -71257.639   -76488.318   -71119.801 
Loop time of 45.2962 on 1 procs for 495 steps with 19652 atoms

Performance: 0.944 ns/day, 25.419 hours/ns, 10.928 timesteps/s
99.4% CPU use with 1 MPI tasks x no OpenMP threads

MPI task timing breakdown:
Section |  min time  |  avg time  |  max time  |%varavg| %total
---------------------------------------------------------------
Pair    | 22.283     | 22.283     | 22.283     |   0.0 | 49.19
Neigh   | 21.2       | 21.2       | 21.2       |   0.0 | 46.80
Comm    | 0.57847    | 0.57847    | 0.57847    |   0.0 |  1.28
Output  | 0.00021601 | 0.00021601 | 0.00021601 |   0.0 |  0.00
Modify  | 0.90404    | 0.90404    | 0.90404    |   0.0 |  2.00
Other   |            | 0.3306     |            |       |  0.73

Nlocal:    19652 ave 19652 max 19652 min
Histogram: 1 0 0 0 0 0 0 0 0 0
Nghost:    13662 ave 13662 max 13662 min
Histogram: 1 0 0 0 0 0 0 0 0 0
Neighs:    693554 ave 693554 max 693554 min
Histogram: 1 0 0 0 0 0 0 0 0 0

Total # of neighbors = 693554
Ave neighs/atom = 35.2918
Neighbor list builds = 495
Dangerous builds not checked
Setting up Verlet run ...
  Unit style    : metal
  Current step  : 54495
  Time step     : 0.001
Per MPI rank memory allocation (min/avg/max) = 18.2 | 18.2 | 18.2 Mbytes
Step Temp Press TotEng PotEng Enthalpy 
   54495    2059.2487    318.47434   -71257.639   -76488.318   -71119.801 
   56000    2041.8628   -277.03077   -71434.471   -76620.989   -71554.449 
Loop time of 140.041 on 1 procs for 1505 steps with 19652 atoms

Performance: 0.929 ns/day, 25.847 hours/ns, 10.747 timesteps/s
99.1% CPU use with 1 MPI tasks x no OpenMP threads

MPI task timing breakdown:
Section |  min time  |  avg time  |  max time  |%varavg| %total
---------------------------------------------------------------
Pair    | 69.068     | 69.068     | 69.068     |   0.0 | 49.32
Neigh   | 65.369     | 65.369     | 65.369     |   0.0 | 46.68
Comm    | 1.791      | 1.791      | 1.791      |   0.0 |  1.28
Output  | 0.047921   | 0.047921   | 0.047921   |   0.0 |  0.03
Modify  | 2.7695     | 2.7695     | 2.7695     |   0.0 |  1.98
Other   |            | 0.995      |            |       |  0.71

Nlocal:    19652 ave 19652 max 19652 min
Histogram: 1 0 0 0 0 0 0 0 0 0
Nghost:    13677 ave 13677 max 13677 min
Histogram: 1 0 0 0 0 0 0 0 0 0
Neighs:    692724 ave 692724 max 692724 min
Histogram: 1 0 0 0 0 0 0 0 0 0

Total # of neighbors = 692724
Ave neighs/atom = 35.2495
Neighbor list builds = 1505
Dangerous builds not checked
Setting up Verlet run ...
  Unit style    : metal
  Current step  : 56000
  Time step     : 0.001
Per MPI rank memory allocation (min/avg/max) = 18.2 | 18.2 | 18.2 Mbytes
Step Temp Press TotEng PotEng Enthalpy 
   56000    2041.8628   -277.03077   -71434.471   -76620.989   -71554.449 
   56495    2016.1899   -470.75127   -71529.552   -76650.858   -71733.455 
Loop time of 45.033 on 1 procs for 495 steps with 19652 atoms

Performance: 0.950 ns/day, 25.271 hours/ns, 10.992 timesteps/s
99.9% CPU use with 1 MPI tasks x no OpenMP threads

MPI task timing breakdown:
Section |  min time  |  avg time  |  max time  |%varavg| %total
---------------------------------------------------------------
Pair    | 22.199     | 22.199     | 22.199     |   0.0 | 49.30
Neigh   | 21.039     | 21.039     | 21.039     |   0.0 | 46.72
Comm    | 0.57698    | 0.57698    | 0.57698    |   0.0 |  1.28
Output  | 0.00016594 | 0.00016594 | 0.00016594 |   0.0 |  0.00
Modify  | 0.88474    | 0.88474    | 0.88474    |   0.0 |  1.96
Other   |            | 0.333      |            |       |  0.74

Nlocal:    19652 ave 19652 max 19652 min
Histogram: 1 0 0 0 0 0 0 0 0 0
Nghost:    13585 ave 13585 max 13585 min
Histogram: 1 0 0 0 0 0 0 0 0 0
Neighs:    692396 ave 692396 max 692396 min
Histogram: 1 0 0 0 0 0 0 0 0 0

Total # of neighbors = 692396
Ave neighs/atom = 35.2329
Neighbor list builds = 495
Dangerous builds not checked
Setting up Verlet run ...
  Unit style    : metal
  Current step  : 56495
  Time step     : 0.001
Per MPI rank memory allocation (min/avg/max) = 18.2 | 18.2 | 18.2 Mbytes
Step Temp Press TotEng PotEng Enthalpy 
   56495    2016.1899   -470.75127   -71529.552   -76650.858   -71733.455 
   58000     1996.359    429.50982   -71643.477   -76714.411   -71458.101 
Loop time of 139.078 on 1 procs for 1505 steps with 19652 atoms

Performance: 0.935 ns/day, 25.670 hours/ns, 10.821 timesteps/s
99.4% CPU use with 1 MPI tasks x no OpenMP threads

MPI task timing breakdown:
Section |  min time  |  avg time  |  max time  |%varavg| %total
---------------------------------------------------------------
Pair    | 68.548     | 68.548     | 68.548     |   0.0 | 49.29
Neigh   | 64.959     | 64.959     | 64.959     |   0.0 | 46.71
Comm    | 1.7808     | 1.7808     | 1.7808     |   0.0 |  1.28
Output  | 0.048352   | 0.048352   | 0.048352   |   0.0 |  0.03
Modify  | 2.7407     | 2.7407     | 2.7407     |   0.0 |  1.97
Other   |            | 1.001      |            |       |  0.72

Nlocal:    19652 ave 19652 max 19652 min
Histogram: 1 0 0 0 0 0 0 0 0 0
Nghost:    13631 ave 13631 max 13631 min
Histogram: 1 0 0 0 0 0 0 0 0 0
Neighs:    694643 ave 694643 max 694643 min
Histogram: 1 0 0 0 0 0 0 0 0 0

Total # of neighbors = 694643
Ave neighs/atom = 35.3472
Neighbor list builds = 1505
Dangerous builds not checked
Setting up Verlet run ...
  Unit style    : metal
  Current step  : 58000
  Time step     : 0.001
Per MPI rank memory allocation (min/avg/max) = 18.2 | 18.2 | 18.2 Mbytes
Step Temp Press TotEng PotEng Enthalpy 
   58000     1996.359    429.50982   -71643.477   -76714.411   -71458.101 
   58495    1956.4046     489.5376   -71900.468   -76869.914   -71689.592 
Loop time of 45.4 on 1 procs for 495 steps with 19652 atoms

Performance: 0.942 ns/day, 25.477 hours/ns, 10.903 timesteps/s
99.2% CPU use with 1 MPI tasks x no OpenMP threads

MPI task timing breakdown:
Section |  min time  |  avg time  |  max time  |%varavg| %total
---------------------------------------------------------------
Pair    | 22.367     | 22.367     | 22.367     |   0.0 | 49.27
Neigh   | 21.224     | 21.224     | 21.224     |   0.0 | 46.75
Comm    | 0.58479    | 0.58479    | 0.58479    |   0.0 |  1.29
Output  | 0.00019288 | 0.00019288 | 0.00019288 |   0.0 |  0.00
Modify  | 0.89931    | 0.89931    | 0.89931    |   0.0 |  1.98
Other   |            | 0.3243     |            |       |  0.71

Nlocal:    19652 ave 19652 max 19652 min
Histogram: 1 0 0 0 0 0 0 0 0 0
Nghost:    13622 ave 13622 max 13622 min
Histogram: 1 0 0 0 0 0 0 0 0 0
Neighs:    695462 ave 695462 max 695462 min
Histogram: 1 0 0 0 0 0 0 0 0 0

Total # of neighbors = 695462
Ave neighs/atom = 35.3889
Neighbor list builds = 495
Dangerous builds not checked
Setting up Verlet run ...
  Unit style    : metal
  Current step  : 58495
  Time step     : 0.001
Per MPI rank memory allocation (min/avg/max) = 18.2 | 18.2 | 18.2 Mbytes
Step Temp Press TotEng PotEng Enthalpy 
   58495    1956.4046     489.5376   -71900.468   -76869.914   -71689.592 
   60000    1949.4051    318.02434   -72046.309   -76997.976   -71909.275 
Loop time of 137.949 on 1 procs for 1505 steps with 19652 atoms

Performance: 0.943 ns/day, 25.461 hours/ns, 10.910 timesteps/s
99.7% CPU use with 1 MPI tasks x no OpenMP threads

MPI task timing breakdown:
Section |  min time  |  avg time  |  max time  |%varavg| %total
---------------------------------------------------------------
Pair    | 67.814     | 67.814     | 67.814     |   0.0 | 49.16
Neigh   | 64.678     | 64.678     | 64.678     |   0.0 | 46.89
Comm    | 1.7394     | 1.7394     | 1.7394     |   0.0 |  1.26
Output  | 0.045303   | 0.045303   | 0.045303   |   0.0 |  0.03
Modify  | 2.6999     | 2.6999     | 2.6999     |   0.0 |  1.96
Other   |            | 0.9716     |            |       |  0.70

Nlocal:    19652 ave 19652 max 19652 min
Histogram: 1 0 0 0 0 0 0 0 0 0
Nghost:    13630 ave 13630 max 13630 min
Histogram: 1 0 0 0 0 0 0 0 0 0
Neighs:    695018 ave 695018 max 695018 min
Histogram: 1 0 0 0 0 0 0 0 0 0

Total # of neighbors = 695018
Ave neighs/atom = 35.3663
Neighbor list builds = 1505
Dangerous builds not checked
Setting up Verlet run ...
  Unit style    : metal
  Current step  : 60000
  Time step     : 0.001
Per MPI rank memory allocation (min/avg/max) = 18.2 | 18.2 | 18.2 Mbytes
Step Temp Press TotEng PotEng Enthalpy 
   60000    1949.4051    318.02434   -72046.309   -76997.976   -71909.275 
   60495    1896.3614    208.51732   -72217.273   -77034.204   -72127.555 
Loop time of 45.3711 on 1 procs for 495 steps with 19652 atoms

Performance: 0.943 ns/day, 25.461 hours/ns, 10.910 timesteps/s
99.8% CPU use with 1 MPI tasks x no OpenMP threads

MPI task timing breakdown:
Section |  min time  |  avg time  |  max time  |%varavg| %total
---------------------------------------------------------------
Pair    | 22.472     | 22.472     | 22.472     |   0.0 | 49.53
Neigh   | 21.101     | 21.101     | 21.101     |   0.0 | 46.51
Comm    | 0.57847    | 0.57847    | 0.57847    |   0.0 |  1.27
Output  | 0.00018287 | 0.00018287 | 0.00018287 |   0.0 |  0.00
Modify  | 0.89811    | 0.89811    | 0.89811    |   0.0 |  1.98
Other   |            | 0.321      |            |       |  0.71

Nlocal:    19652 ave 19652 max 19652 min
Histogram: 1 0 0 0 0 0 0 0 0 0
Nghost:    13611 ave 13611 max 13611 min
Histogram: 1 0 0 0 0 0 0 0 0 0
Neighs:    695726 ave 695726 max 695726 min
Histogram: 1 0 0 0 0 0 0 0 0 0

Total # of neighbors = 695726
Ave neighs/atom = 35.4023
Neighbor list builds = 495
Dangerous builds not checked
Setting up Verlet run ...
  Unit style    : metal
  Current step  : 60495
  Time step     : 0.001
Per MPI rank memory allocation (min/avg/max) = 18.2 | 18.2 | 18.2 Mbytes
Step Temp Press TotEng PotEng Enthalpy 
   60495    1896.3614    208.51732   -72217.273   -77034.204   -72127.555 
   62000     1916.309   -16.324274    -72240.12    -77107.72   -72247.145 
Loop time of 138.719 on 1 procs for 1505 steps with 19652 atoms

Performance: 0.937 ns/day, 25.603 hours/ns, 10.849 timesteps/s
99.2% CPU use with 1 MPI tasks x no OpenMP threads

MPI task timing breakdown:
Section |  min time  |  avg time  |  max time  |%varavg| %total
---------------------------------------------------------------
Pair    | 68.392     | 68.392     | 68.392     |   0.0 | 49.30
Neigh   | 64.895     | 64.895     | 64.895     |   0.0 | 46.78
Comm    | 1.7308     | 1.7308     | 1.7308     |   0.0 |  1.25
Output  | 0.045895   | 0.045895   | 0.045895   |   0.0 |  0.03
Modify  | 2.6953     | 2.6953     | 2.6953     |   0.0 |  1.94
Other   |            | 0.96       |            |       |  0.69

Nlocal:    19652 ave 19652 max 19652 min
Histogram: 1 0 0 0 0 0 0 0 0 0
Nghost:    13724 ave 13724 max 13724 min
Histogram: 1 0 0 0 0 0 0 0 0 0
Neighs:    695802 ave 695802 max 695802 min
Histogram: 1 0 0 0 0 0 0 0 0 0

Total # of neighbors = 695802
Ave neighs/atom = 35.4062
Neighbor list builds = 1505
Dangerous builds not checked
Setting up Verlet run ...
  Unit style    : metal
  Current step  : 62000
  Time step     : 0.001
Per MPI rank memory allocation (min/avg/max) = 18.2 | 18.2 | 18.2 Mbytes
Step Temp Press TotEng PotEng Enthalpy 
   62000     1916.309   -16.324274    -72240.12    -77107.72   -72247.145 
   62495    1864.5918    223.70016   -72521.027    -77257.26   -72425.057 
Loop time of 44.7982 on 1 procs for 495 steps with 19652 atoms

Performance: 0.955 ns/day, 25.139 hours/ns, 11.050 timesteps/s
99.9% CPU use with 1 MPI tasks x no OpenMP threads

MPI task timing breakdown:
Section |  min time  |  avg time  |  max time  |%varavg| %total
---------------------------------------------------------------
Pair    | 22.127     | 22.127     | 22.127     |   0.0 | 49.39
Neigh   | 20.931     | 20.931     | 20.931     |   0.0 | 46.72
Comm    | 0.55764    | 0.55764    | 0.55764    |   0.0 |  1.24
Output  | 0.00020313 | 0.00020313 | 0.00020313 |   0.0 |  0.00
Modify  | 0.87013    | 0.87013    | 0.87013    |   0.0 |  1.94
Other   |            | 0.3119     |            |       |  0.70

Nlocal:    19652 ave 19652 max 19652 min
Histogram: 1 0 0 0 0 0 0 0 0 0
Nghost:    13676 ave 13676 max 13676 min
Histogram: 1 0 0 0 0 0 0 0 0 0
Neighs:    697356 ave 697356 max 697356 min
Histogram: 1 0 0 0 0 0 0 0 0 0

Total # of neighbors = 697356
Ave neighs/atom = 35.4852
Neighbor list builds = 495
Dangerous builds not checked
Setting up Verlet run ...
  Unit style    : metal
  Current step  : 62495
  Time step     : 0.001
Per MPI rank memory allocation (min/avg/max) = 18.2 | 18.2 | 18.2 Mbytes
Step Temp Press TotEng PotEng Enthalpy 
   62495    1864.5918    223.70016   -72521.027    -77257.26   -72425.057 
   64000    1854.9493   -329.96462   -72588.385   -77300.125   -72730.205 
Loop time of 137.894 on 1 procs for 1505 steps with 19652 atoms

Performance: 0.943 ns/day, 25.451 hours/ns, 10.914 timesteps/s
99.5% CPU use with 1 MPI tasks x no OpenMP threads

MPI task timing breakdown:
Section |  min time  |  avg time  |  max time  |%varavg| %total
---------------------------------------------------------------
Pair    | 68.038     | 68.038     | 68.038     |   0.0 | 49.34
Neigh   | 64.429     | 64.429     | 64.429     |   0.0 | 46.72
Comm    | 1.7239     | 1.7239     | 1.7239     |   0.0 |  1.25
Output  | 0.048609   | 0.048609   | 0.048609   |   0.0 |  0.04
Modify  | 2.6887     | 2.6887     | 2.6887     |   0.0 |  1.95
Other   |            | 0.9661     |            |       |  0.70

Nlocal:    19652 ave 19652 max 19652 min
Histogram: 1 0 0 0 0 0 0 0 0 0
Nghost:    13626 ave 13626 max 13626 min
Histogram: 1 0 0 0 0 0 0 0 0 0
Neighs:    695468 ave 695468 max 695468 min
Histogram: 1 0 0 0 0 0 0 0 0 0

Total # of neighbors = 695468
Ave neighs/atom = 35.3892
Neighbor list builds = 1505
Dangerous builds not checked
Setting up Verlet run ...
  Unit style    : metal
  Current step  : 64000
  Time step     : 0.001
Per MPI rank memory allocation (min/avg/max) = 18.2 | 18.2 | 18.2 Mbytes
Step Temp Press TotEng PotEng Enthalpy 
   64000    1854.9493   -329.96462   -72588.385   -77300.125   -72730.205 
   64495    1806.0736   -164.07989   -72849.574   -77437.165    -72919.86 
Loop time of 44.1264 on 1 procs for 495 steps with 19652 atoms

Performance: 0.969 ns/day, 24.762 hours/ns, 11.218 timesteps/s
99.8% CPU use with 1 MPI tasks x no OpenMP threads

MPI task timing breakdown:
Section |  min time  |  avg time  |  max time  |%varavg| %total
---------------------------------------------------------------
Pair    | 21.725     | 21.725     | 21.725     |   0.0 | 49.23
Neigh   | 20.66      | 20.66      | 20.66      |   0.0 | 46.82
Comm    | 0.55936    | 0.55936    | 0.55936    |   0.0 |  1.27
Output  | 0.000211   | 0.000211   | 0.000211   |   0.0 |  0.00
Modify  | 0.8744     | 0.8744     | 0.8744     |   0.0 |  1.98
Other   |            | 0.3076     |            |       |  0.70

Nlocal:    19652 ave 19652 max 19652 min
Histogram: 1 0 0 0 0 0 0 0 0 0
Nghost:    13718 ave 13718 max 13718 min
Histogram: 1 0 0 0 0 0 0 0 0 0
Neighs:    697581 ave 697581 max 697581 min
Histogram: 1 0 0 0 0 0 0 0 0 0

Total # of neighbors = 697581
Ave neighs/atom = 35.4967
Neighbor list builds = 495
Dangerous builds not checked
Setting up Verlet run ...
  Unit style    : metal
  Current step  : 64495
  Time step     : 0.001
Per MPI rank memory allocation (min/avg/max) = 18.2 | 18.2 | 18.2 Mbytes
Step Temp Press TotEng PotEng Enthalpy 
   64495    1806.0736   -164.07989   -72849.574   -77437.165    -72919.86 
   66000     1819.004    176.62164   -72884.391   -77504.827   -72808.811 
Loop time of 134.195 on 1 procs for 1505 steps with 19652 atoms

Performance: 0.969 ns/day, 24.768 hours/ns, 11.215 timesteps/s
99.4% CPU use with 1 MPI tasks x no OpenMP threads

MPI task timing breakdown:
Section |  min time  |  avg time  |  max time  |%varavg| %total
---------------------------------------------------------------
Pair    | 65.903     | 65.903     | 65.903     |   0.0 | 49.11
Neigh   | 63.053     | 63.053     | 63.053     |   0.0 | 46.99
Comm    | 1.6697     | 1.6697     | 1.6697     |   0.0 |  1.24
Output  | 0.044825   | 0.044825   | 0.044825   |   0.0 |  0.03
Modify  | 2.6145     | 2.6145     | 2.6145     |   0.0 |  1.95
Other   |            | 0.9094     |            |       |  0.68

Nlocal:    19652 ave 19652 max 19652 min
Histogram: 1 0 0 0 0 0 0 0 0 0
Nghost:    13718 ave 13718 max 13718 min
Histogram: 1 0 0 0 0 0 0 0 0 0
Neighs:    698116 ave 698116 max 698116 min
Histogram: 1 0 0 0 0 0 0 0 0 0

Total # of neighbors = 698116
Ave neighs/atom = 35.5239
Neighbor list builds = 1505
Dangerous builds not checked
Setting up Verlet run ...
  Unit style    : metal
  Current step  : 66000
  Time step     : 0.001
Per MPI rank memory allocation (min/avg/max) = 18.2 | 18.2 | 18.2 Mbytes
Step Temp Press TotEng PotEng Enthalpy 
   66000     1819.004    176.62164   -72884.391   -77504.827   -72808.811 
   66495    1769.8819    430.96417   -73132.241   -77627.902   -72948.208 
Loop time of 44.4758 on 1 procs for 495 steps with 19652 atoms

Performance: 0.962 ns/day, 24.958 hours/ns, 11.130 timesteps/s
99.2% CPU use with 1 MPI tasks x no OpenMP threads

MPI task timing breakdown:
Section |  min time  |  avg time  |  max time  |%varavg| %total
---------------------------------------------------------------
Pair    | 21.876     | 21.876     | 21.876     |   0.0 | 49.19
Neigh   | 20.831     | 20.831     | 20.831     |   0.0 | 46.84
Comm    | 0.56361    | 0.56361    | 0.56361    |   0.0 |  1.27
Output  | 0.00019908 | 0.00019908 | 0.00019908 |   0.0 |  0.00
Modify  | 0.88365    | 0.88365    | 0.88365    |   0.0 |  1.99
Other   |            | 0.3208     |            |       |  0.72

Nlocal:    19652 ave 19652 max 19652 min
Histogram: 1 0 0 0 0 0 0 0 0 0
Nghost:    13681 ave 13681 max 13681 min
Histogram: 1 0 0 0 0 0 0 0 0 0
Neighs:    699490 ave 699490 max 699490 min
Histogram: 1 0 0 0 0 0 0 0 0 0

Total # of neighbors = 699490
Ave neighs/atom = 35.5938
Neighbor list builds = 495
Dangerous builds not checked
Setting up Verlet run ...
  Unit style    : metal
  Current step  : 66495
  Time step     : 0.001
Per MPI rank memory allocation (min/avg/max) = 18.2 | 18.2 | 18.2 Mbytes
Step Temp Press TotEng PotEng Enthalpy 
   66495    1769.8819    430.96417   -73132.241   -77627.902   -72948.208 
   68000     1750.381    577.75967   -73252.437   -77698.564    -73006.02 
Loop time of 136.457 on 1 procs for 1505 steps with 19652 atoms

Performance: 0.953 ns/day, 25.186 hours/ns, 11.029 timesteps/s
99.3% CPU use with 1 MPI tasks x no OpenMP threads

MPI task timing breakdown:
Section |  min time  |  avg time  |  max time  |%varavg| %total
---------------------------------------------------------------
Pair    | 67.181     | 67.181     | 67.181     |   0.0 | 49.23
Neigh   | 63.789     | 63.789     | 63.789     |   0.0 | 46.75
Comm    | 1.7487     | 1.7487     | 1.7487     |   0.0 |  1.28
Output  | 0.047477   | 0.047477   | 0.047477   |   0.0 |  0.03
Modify  | 2.712      | 2.712      | 2.712      |   0.0 |  1.99
Other   |            | 0.9797     |            |       |  0.72

Nlocal:    19652 ave 19652 max 19652 min
Histogram: 1 0 0 0 0 0 0 0 0 0
Nghost:    13751 ave 13751 max 13751 min
Histogram: 1 0 0 0 0 0 0 0 0 0
Neighs:    699347 ave 699347 max 699347 min
Histogram: 1 0 0 0 0 0 0 0 0 0

Total # of neighbors = 699347
Ave neighs/atom = 35.5866
Neighbor list builds = 1505
Dangerous builds not checked
Setting up Verlet run ...
  Unit style    : metal
  Current step  : 68000
  Time step     : 0.001
Per MPI rank memory allocation (min/avg/max) = 18.2 | 18.2 | 18.2 Mbytes
Step Temp Press TotEng PotEng Enthalpy 
   68000     1750.381    577.75967   -73252.437   -77698.564    -73006.02 
   68495    1720.8263    459.99819   -73477.559   -77848.614   -73281.709 
Loop time of 44.847 on 1 procs for 495 steps with 19652 atoms

Performance: 0.954 ns/day, 25.167 hours/ns, 11.038 timesteps/s
98.2% CPU use with 1 MPI tasks x no OpenMP threads

MPI task timing breakdown:
Section |  min time  |  avg time  |  max time  |%varavg| %total
---------------------------------------------------------------
Pair    | 22.092     | 22.092     | 22.092     |   0.0 | 49.26
Neigh   | 20.969     | 20.969     | 20.969     |   0.0 | 46.76
Comm    | 0.5742     | 0.5742     | 0.5742     |   0.0 |  1.28
Output  | 0.00020003 | 0.00020003 | 0.00020003 |   0.0 |  0.00
Modify  | 0.89567    | 0.89567    | 0.89567    |   0.0 |  2.00
Other   |            | 0.316      |            |       |  0.70

Nlocal:    19652 ave 19652 max 19652 min
Histogram: 1 0 0 0 0 0 0 0 0 0
Nghost:    13759 ave 13759 max 13759 min
Histogram: 1 0 0 0 0 0 0 0 0 0
Neighs:    700544 ave 700544 max 700544 min
Histogram: 1 0 0 0 0 0 0 0 0 0

Total # of neighbors = 700544
Ave neighs/atom = 35.6475
Neighbor list builds = 495
Dangerous builds not checked
Setting up Verlet run ...
  Unit style    : metal
  Current step  : 68495
  Time step     : 0.001
Per MPI rank memory allocation (min/avg/max) = 18.2 | 18.2 | 18.2 Mbytes
Step Temp Press TotEng PotEng Enthalpy 
   68495    1720.8263    459.99819   -73477.559   -77848.614   -73281.709 
   70000    1710.2203    791.94351   -73566.686   -77910.801   -73229.887 
Loop time of 135.957 on 1 procs for 1505 steps with 19652 atoms

Performance: 0.956 ns/day, 25.094 hours/ns, 11.070 timesteps/s
99.6% CPU use with 1 MPI tasks x no OpenMP threads

MPI task timing breakdown:
Section |  min time  |  avg time  |  max time  |%varavg| %total
---------------------------------------------------------------
Pair    | 67.051     | 67.051     | 67.051     |   0.0 | 49.32
Neigh   | 63.436     | 63.436     | 63.436     |   0.0 | 46.66
Comm    | 1.7349     | 1.7349     | 1.7349     |   0.0 |  1.28
Output  | 0.04796    | 0.04796    | 0.04796    |   0.0 |  0.04
Modify  | 2.7006     | 2.7006     | 2.7006     |   0.0 |  1.99
Other   |            | 0.9863     |            |       |  0.73

Nlocal:    19652 ave 19652 max 19652 min
Histogram: 1 0 0 0 0 0 0 0 0 0
Nghost:    13713 ave 13713 max 13713 min
Histogram: 1 0 0 0 0 0 0 0 0 0
Neighs:    701380 ave 701380 max 701380 min
Histogram: 1 0 0 0 0 0 0 0 0 0

Total # of neighbors = 701380
Ave neighs/atom = 35.69
Neighbor list builds = 1505
Dangerous builds not checked
Setting up Verlet run ...
  Unit style    : metal
  Current step  : 70000
  Time step     : 0.001
Per MPI rank memory allocation (min/avg/max) = 18.2 | 18.2 | 18.2 Mbytes
Step Temp Press TotEng PotEng Enthalpy 
   70000    1710.2203    791.94351   -73566.686   -77910.801   -73229.887 
   70495    1671.1655    723.66188   -73779.647    -78024.56   -73472.397 
Loop time of 44.1692 on 1 procs for 495 steps with 19652 atoms

Performance: 0.968 ns/day, 24.786 hours/ns, 11.207 timesteps/s
99.7% CPU use with 1 MPI tasks x no OpenMP threads

MPI task timing breakdown:
Section |  min time  |  avg time  |  max time  |%varavg| %total
---------------------------------------------------------------
Pair    | 21.784     | 21.784     | 21.784     |   0.0 | 49.32
Neigh   | 20.611     | 20.611     | 20.611     |   0.0 | 46.66
Comm    | 0.57529    | 0.57529    | 0.57529    |   0.0 |  1.30
Output  | 0.00018096 | 0.00018096 | 0.00018096 |   0.0 |  0.00
Modify  | 0.88446    | 0.88446    | 0.88446    |   0.0 |  2.00
Other   |            | 0.3147     |            |       |  0.71

Nlocal:    19652 ave 19652 max 19652 min
Histogram: 1 0 0 0 0 0 0 0 0 0
Nghost:    13778 ave 13778 max 13778 min
Histogram: 1 0 0 0 0 0 0 0 0 0
Neighs:    701657 ave 701657 max 701657 min
Histogram: 1 0 0 0 0 0 0 0 0 0

Total # of neighbors = 701657
Ave neighs/atom = 35.7041
Neighbor list builds = 495
Dangerous builds not checked
Setting up Verlet run ...
  Unit style    : metal
  Current step  : 70495
  Time step     : 0.001
Per MPI rank memory allocation (min/avg/max) = 18.2 | 18.2 | 18.2 Mbytes
Step Temp Press TotEng PotEng Enthalpy 
   70495    1671.1655    723.66188   -73779.647    -78024.56   -73472.397 
   72000    1669.7605    1043.7571   -73897.376    -78138.72   -73455.043 
Loop time of 135.903 on 1 procs for 1505 steps with 19652 atoms

Performance: 0.957 ns/day, 25.084 hours/ns, 11.074 timesteps/s
99.6% CPU use with 1 MPI tasks x no OpenMP threads

MPI task timing breakdown:
Section |  min time  |  avg time  |  max time  |%varavg| %total
---------------------------------------------------------------
Pair    | 66.998     | 66.998     | 66.998     |   0.0 | 49.30
Neigh   | 63.463     | 63.463     | 63.463     |   0.0 | 46.70
Comm    | 1.7196     | 1.7196     | 1.7196     |   0.0 |  1.27
Output  | 0.047286   | 0.047286   | 0.047286   |   0.0 |  0.03
Modify  | 2.6937     | 2.6937     | 2.6937     |   0.0 |  1.98
Other   |            | 0.9828     |            |       |  0.72

Nlocal:    19652 ave 19652 max 19652 min
Histogram: 1 0 0 0 0 0 0 0 0 0
Nghost:    13726 ave 13726 max 13726 min
Histogram: 1 0 0 0 0 0 0 0 0 0
Neighs:    703035 ave 703035 max 703035 min
Histogram: 1 0 0 0 0 0 0 0 0 0

Total # of neighbors = 703035
Ave neighs/atom = 35.7742
Neighbor list builds = 1505
Dangerous builds not checked
Setting up Verlet run ...
  Unit style    : metal
  Current step  : 72000
  Time step     : 0.001
Per MPI rank memory allocation (min/avg/max) = 18.2 | 18.2 | 18.2 Mbytes
Step Temp Press TotEng PotEng Enthalpy 
   72000    1669.7605    1043.7571   -73897.376    -78138.72   -73455.043 
   72495     1622.117    827.25885    -74103.79   -78224.115   -73753.339 
Loop time of 44.8533 on 1 procs for 495 steps with 19652 atoms

Performance: 0.954 ns/day, 25.170 hours/ns, 11.036 timesteps/s
99.7% CPU use with 1 MPI tasks x no OpenMP threads

MPI task timing breakdown:
Section |  min time  |  avg time  |  max time  |%varavg| %total
---------------------------------------------------------------
Pair    | 22.244     | 22.244     | 22.244     |   0.0 | 49.59
Neigh   | 20.777     | 20.777     | 20.777     |   0.0 | 46.32
Comm    | 0.58096    | 0.58096    | 0.58096    |   0.0 |  1.30
Output  | 0.00019288 | 0.00019288 | 0.00019288 |   0.0 |  0.00
Modify  | 0.90799    | 0.90799    | 0.90799    |   0.0 |  2.02
Other   |            | 0.3429     |            |       |  0.76

Nlocal:    19652 ave 19652 max 19652 min
Histogram: 1 0 0 0 0 0 0 0 0 0
Nghost:    13737 ave 13737 max 13737 min
Histogram: 1 0 0 0 0 0 0 0 0 0
Neighs:    702363 ave 702363 max 702363 min
Histogram: 1 0 0 0 0 0 0 0 0 0

Total # of neighbors = 702363
Ave neighs/atom = 35.74
Neighbor list builds = 495
Dangerous builds not checked
Setting up Verlet run ...
  Unit style    : metal
  Current step  : 72495
  Time step     : 0.001
Per MPI rank memory allocation (min/avg/max) = 18.2 | 18.2 | 18.2 Mbytes
Step Temp Press TotEng PotEng Enthalpy 
   72495     1622.117    827.25885    -74103.79   -78224.115   -73753.339 
   74000    1613.9137      687.202   -74194.854   -78294.342    -73903.84 
Loop time of 135.878 on 1 procs for 1505 steps with 19652 atoms

Performance: 0.957 ns/day, 25.079 hours/ns, 11.076 timesteps/s
99.6% CPU use with 1 MPI tasks x no OpenMP threads

MPI task timing breakdown:
Section |  min time  |  avg time  |  max time  |%varavg| %total
---------------------------------------------------------------
Pair    | 67.057     | 67.057     | 67.057     |   0.0 | 49.35
Neigh   | 63.407     | 63.407     | 63.407     |   0.0 | 46.66
Comm    | 1.705      | 1.705      | 1.705      |   0.0 |  1.25
Output  | 0.046592   | 0.046592   | 0.046592   |   0.0 |  0.03
Modify  | 2.6596     | 2.6596     | 2.6596     |   0.0 |  1.96
Other   |            | 1.004      |            |       |  0.74

Nlocal:    19652 ave 19652 max 19652 min
Histogram: 1 0 0 0 0 0 0 0 0 0
Nghost:    13742 ave 13742 max 13742 min
Histogram: 1 0 0 0 0 0 0 0 0 0
Neighs:    702721 ave 702721 max 702721 min
Histogram: 1 0 0 0 0 0 0 0 0 0

Total # of neighbors = 702721
Ave neighs/atom = 35.7582
Neighbor list builds = 1505
Dangerous builds not checked
Setting up Verlet run ...
  Unit style    : metal
  Current step  : 74000
  Time step     : 0.001
Per MPI rank memory allocation (min/avg/max) = 18.2 | 18.2 | 18.2 Mbytes
Step Temp Press TotEng PotEng Enthalpy 
   74000    1613.9137      687.202   -74194.854   -78294.342    -73903.84 
   74495    1565.9841    926.67902   -74470.291   -78448.034   -74078.843 
Loop time of 42.2894 on 1 procs for 495 steps with 19652 atoms

Performance: 1.011 ns/day, 23.731 hours/ns, 11.705 timesteps/s
100.0% CPU use with 1 MPI tasks x no OpenMP threads

MPI task timing breakdown:
Section |  min time  |  avg time  |  max time  |%varavg| %total
---------------------------------------------------------------
Pair    | 20.557     | 20.557     | 20.557     |   0.0 | 48.61
Neigh   | 20.144     | 20.144     | 20.144     |   0.0 | 47.63
Comm    | 0.50993    | 0.50993    | 0.50993    |   0.0 |  1.21
Output  | 0.00029302 | 0.00029302 | 0.00029302 |   0.0 |  0.00
Modify  | 0.80873    | 0.80873    | 0.80873    |   0.0 |  1.91
Other   |            | 0.2696     |            |       |  0.64

Nlocal:    19652 ave 19652 max 19652 min
Histogram: 1 0 0 0 0 0 0 0 0 0
Nghost:    13794 ave 13794 max 13794 min
Histogram: 1 0 0 0 0 0 0 0 0 0
Neighs:    703910 ave 703910 max 703910 min
Histogram: 1 0 0 0 0 0 0 0 0 0

Total # of neighbors = 703910
Ave neighs/atom = 35.8187
Neighbor list builds = 495
Dangerous builds not checked
Setting up Verlet run ...
  Unit style    : metal
  Current step  : 74495
  Time step     : 0.001
Per MPI rank memory allocation (min/avg/max) = 18.2 | 18.2 | 18.2 Mbytes
Step Temp Press TotEng PotEng Enthalpy 
   74495    1565.9841    926.67902   -74470.291   -78448.034   -74078.843 
   76000    1538.2279     456.3863   -74666.635   -78573.874   -74473.894 
Loop time of 135.182 on 1 procs for 1505 steps with 19652 atoms

Performance: 0.962 ns/day, 24.951 hours/ns, 11.133 timesteps/s
99.7% CPU use with 1 MPI tasks x no OpenMP threads

MPI task timing breakdown:
Section |  min time  |  avg time  |  max time  |%varavg| %total
---------------------------------------------------------------
Pair    | 66.635     | 66.635     | 66.635     |   0.0 | 49.29
Neigh   | 63.145     | 63.145     | 63.145     |   0.0 | 46.71
Comm    | 1.7054     | 1.7054     | 1.7054     |   0.0 |  1.26
Output  | 0.048519   | 0.048519   | 0.048519   |   0.0 |  0.04
Modify  | 2.6587     | 2.6587     | 2.6587     |   0.0 |  1.97
Other   |            | 0.9894     |            |       |  0.73

Nlocal:    19652 ave 19652 max 19652 min
Histogram: 1 0 0 0 0 0 0 0 0 0
Nghost:    13751 ave 13751 max 13751 min
Histogram: 1 0 0 0 0 0 0 0 0 0
Neighs:    703196 ave 703196 max 703196 min
Histogram: 1 0 0 0 0 0 0 0 0 0

Total # of neighbors = 703196
Ave neighs/atom = 35.7824
Neighbor list builds = 1505
Dangerous builds not checked
Setting up Verlet run ...
  Unit style    : metal
  Current step  : 76000
  Time step     : 0.001
Per MPI rank memory allocation (min/avg/max) = 18.2 | 18.2 | 18.2 Mbytes
Step Temp Press TotEng PotEng Enthalpy 
   76000    1538.2279     456.3863   -74666.635   -78573.874   -74473.894 
   76495    1524.4408    526.97941   -74810.389   -78682.608   -74588.096 
Loop time of 44.3025 on 1 procs for 495 steps with 19652 atoms

Performance: 0.965 ns/day, 24.861 hours/ns, 11.173 timesteps/s
100.0% CPU use with 1 MPI tasks x no OpenMP threads

MPI task timing breakdown:
Section |  min time  |  avg time  |  max time  |%varavg| %total
---------------------------------------------------------------
Pair    | 21.994     | 21.994     | 21.994     |   0.0 | 49.65
Neigh   | 20.564     | 20.564     | 20.564     |   0.0 | 46.42
Comm    | 0.55539    | 0.55539    | 0.55539    |   0.0 |  1.25
Output  | 0.00020504 | 0.00020504 | 0.00020504 |   0.0 |  0.00
Modify  | 0.8757     | 0.8757     | 0.8757     |   0.0 |  1.98
Other   |            | 0.3129     |            |       |  0.71

Nlocal:    19652 ave 19652 max 19652 min
Histogram: 1 0 0 0 0 0 0 0 0 0
Nghost:    13814 ave 13814 max 13814 min
Histogram: 1 0 0 0 0 0 0 0 0 0
Neighs:    704569 ave 704569 max 704569 min
Histogram: 1 0 0 0 0 0 0 0 0 0

Total # of neighbors = 704569
Ave neighs/atom = 35.8523
Neighbor list builds = 495
Dangerous builds not checked
Setting up Verlet run ...
  Unit style    : metal
  Current step  : 76495
  Time step     : 0.001
Per MPI rank memory allocation (min/avg/max) = 18.2 | 18.2 | 18.2 Mbytes
Step Temp Press TotEng PotEng Enthalpy 
   76495    1524.4408    526.97941   -74810.389   -78682.608   -74588.096 
   78000    1495.5711    581.40989   -74944.327   -78743.214   -74699.315 
Loop time of 132.673 on 1 procs for 1505 steps with 19652 atoms

Performance: 0.980 ns/day, 24.487 hours/ns, 11.344 timesteps/s
100.0% CPU use with 1 MPI tasks x no OpenMP threads

MPI task timing breakdown:
Section |  min time  |  avg time  |  max time  |%varavg| %total
---------------------------------------------------------------
Pair    | 65.012     | 65.012     | 65.012     |   0.0 | 49.00
Neigh   | 62.473     | 62.473     | 62.473     |   0.0 | 47.09
Comm    | 1.6584     | 1.6584     | 1.6584     |   0.0 |  1.25
Output  | 0.047804   | 0.047804   | 0.047804   |   0.0 |  0.04
Modify  | 2.5801     | 2.5801     | 2.5801     |   0.0 |  1.94
Other   |            | 0.9021     |            |       |  0.68

Nlocal:    19652 ave 19652 max 19652 min
Histogram: 1 0 0 0 0 0 0 0 0 0
Nghost:    13763 ave 13763 max 13763 min
Histogram: 1 0 0 0 0 0 0 0 0 0
Neighs:    704156 ave 704156 max 704156 min
Histogram: 1 0 0 0 0 0 0 0 0 0

Total # of neighbors = 704156
Ave neighs/atom = 35.8313
Neighbor list builds = 1505
Dangerous builds not checked
Setting up Verlet run ...
  Unit style    : metal
  Current step  : 78000
  Time step     : 0.001
Per MPI rank memory allocation (min/avg/max) = 18.2 | 18.2 | 18.2 Mbytes
Step Temp Press TotEng PotEng Enthalpy 
   78000    1495.5711    581.40989   -74944.327   -78743.214   -74699.315 
   78495    1463.2616    758.24653   -75141.577   -78858.395   -74822.591 
Loop time of 45.4742 on 1 procs for 495 steps with 19652 atoms

Performance: 0.940 ns/day, 25.519 hours/ns, 10.885 timesteps/s
99.9% CPU use with 1 MPI tasks x no OpenMP threads

MPI task timing breakdown:
Section |  min time  |  avg time  |  max time  |%varavg| %total
---------------------------------------------------------------
Pair    | 22.682     | 22.682     | 22.682     |   0.0 | 49.88
Neigh   | 20.895     | 20.895     | 20.895     |   0.0 | 45.95
Comm    | 0.60743    | 0.60743    | 0.60743    |   0.0 |  1.34
Output  | 0.00024199 | 0.00024199 | 0.00024199 |   0.0 |  0.00
Modify  | 0.93183    | 0.93183    | 0.93183    |   0.0 |  2.05
Other   |            | 0.3572     |            |       |  0.79

Nlocal:    19652 ave 19652 max 19652 min
Histogram: 1 0 0 0 0 0 0 0 0 0
Nghost:    13798 ave 13798 max 13798 min
Histogram: 1 0 0 0 0 0 0 0 0 0
Neighs:    704692 ave 704692 max 704692 min
Histogram: 1 0 0 0 0 0 0 0 0 0

Total # of neighbors = 704692
Ave neighs/atom = 35.8585
Neighbor list builds = 495
Dangerous builds not checked
Setting up Verlet run ...
  Unit style    : metal
  Current step  : 78495
  Time step     : 0.001
Per MPI rank memory allocation (min/avg/max) = 18.2 | 18.2 | 18.2 Mbytes
Step Temp Press TotEng PotEng Enthalpy 
   78495    1463.2616    758.24653   -75141.577   -78858.395   -74822.591 
   80000    1456.5107    337.63933   -75222.229   -78921.899   -75080.135 
Loop time of 137.982 on 1 procs for 1505 steps with 19652 atoms

Performance: 0.942 ns/day, 25.467 hours/ns, 10.907 timesteps/s
99.0% CPU use with 1 MPI tasks x no OpenMP threads

MPI task timing breakdown:
Section |  min time  |  avg time  |  max time  |%varavg| %total
---------------------------------------------------------------
Pair    | 68.372     | 68.372     | 68.372     |   0.0 | 49.55
Neigh   | 64.031     | 64.031     | 64.031     |   0.0 | 46.41
Comm    | 1.7987     | 1.7987     | 1.7987     |   0.0 |  1.30
Output  | 0.048213   | 0.048213   | 0.048213   |   0.0 |  0.03
Modify  | 2.77       | 2.77       | 2.77       |   0.0 |  2.01
Other   |            | 0.9619     |            |       |  0.70

Nlocal:    19652 ave 19652 max 19652 min
Histogram: 1 0 0 0 0 0 0 0 0 0
Nghost:    13781 ave 13781 max 13781 min
Histogram: 1 0 0 0 0 0 0 0 0 0
Neighs:    704348 ave 704348 max 704348 min
Histogram: 1 0 0 0 0 0 0 0 0 0

Total # of neighbors = 704348
Ave neighs/atom = 35.841
Neighbor list builds = 1505
Dangerous builds not checked
Setting up Verlet run ...
  Unit style    : metal
  Current step  : 80000
  Time step     : 0.001
Per MPI rank memory allocation (min/avg/max) = 18.2 | 18.2 | 18.2 Mbytes
Step Temp Press TotEng PotEng Enthalpy 
   80000    1456.5107    337.63933   -75222.229   -78921.899   -75080.135 
   80495    1418.6951    618.11432   -75444.082   -79047.696   -75184.447 
Loop time of 45.2277 on 1 procs for 495 steps with 19652 atoms

Performance: 0.946 ns/day, 25.380 hours/ns, 10.945 timesteps/s
99.2% CPU use with 1 MPI tasks x no OpenMP threads

MPI task timing breakdown:
Section |  min time  |  avg time  |  max time  |%varavg| %total
---------------------------------------------------------------
Pair    | 22.481     | 22.481     | 22.481     |   0.0 | 49.71
Neigh   | 20.919     | 20.919     | 20.919     |   0.0 | 46.25
Comm    | 0.58362    | 0.58362    | 0.58362    |   0.0 |  1.29
Output  | 0.00016499 | 0.00016499 | 0.00016499 |   0.0 |  0.00
Modify  | 0.91078    | 0.91078    | 0.91078    |   0.0 |  2.01
Other   |            | 0.333      |            |       |  0.74

Nlocal:    19652 ave 19652 max 19652 min
Histogram: 1 0 0 0 0 0 0 0 0 0
Nghost:    13856 ave 13856 max 13856 min
Histogram: 1 0 0 0 0 0 0 0 0 0
Neighs:    705406 ave 705406 max 705406 min
Histogram: 1 0 0 0 0 0 0 0 0 0

Total # of neighbors = 705406
Ave neighs/atom = 35.8949
Neighbor list builds = 495
Dangerous builds not checked
Setting up Verlet run ...
  Unit style    : metal
  Current step  : 80495
  Time step     : 0.001
Per MPI rank memory allocation (min/avg/max) = 18.2 | 18.2 | 18.2 Mbytes
Step Temp Press TotEng PotEng Enthalpy 
   80495    1418.6951    618.11432   -75444.082   -79047.696   -75184.447 
   82000    1402.9166    289.20658   -75618.767   -79182.303   -75497.369 
Loop time of 134.354 on 1 procs for 1505 steps with 19652 atoms

Performance: 0.968 ns/day, 24.798 hours/ns, 11.202 timesteps/s
99.6% CPU use with 1 MPI tasks x no OpenMP threads

MPI task timing breakdown:
Section |  min time  |  avg time  |  max time  |%varavg| %total
---------------------------------------------------------------
Pair    | 66.261     | 66.261     | 66.261     |   0.0 | 49.32
Neigh   | 62.793     | 62.793     | 62.793     |   0.0 | 46.74
Comm    | 1.6931     | 1.6931     | 1.6931     |   0.0 |  1.26
Output  | 0.046885   | 0.046885   | 0.046885   |   0.0 |  0.03
Modify  | 2.6376     | 2.6376     | 2.6376     |   0.0 |  1.96
Other   |            | 0.923      |            |       |  0.69

Nlocal:    19652 ave 19652 max 19652 min
Histogram: 1 0 0 0 0 0 0 0 0 0
Nghost:    13761 ave 13761 max 13761 min
Histogram: 1 0 0 0 0 0 0 0 0 0
Neighs:    704988 ave 704988 max 704988 min
Histogram: 1 0 0 0 0 0 0 0 0 0

Total # of neighbors = 704988
Ave neighs/atom = 35.8736
Neighbor list builds = 1505
Dangerous builds not checked
Setting up Verlet run ...
  Unit style    : metal
  Current step  : 82000
  Time step     : 0.001
Per MPI rank memory allocation (min/avg/max) = 18.2 | 18.2 | 18.2 Mbytes
Step Temp Press TotEng PotEng Enthalpy 
   82000    1402.9166    289.20658   -75618.767   -79182.303   -75497.369 
   82495    1367.1705    511.48678   -75807.543   -79280.281   -75593.149 
Loop time of 43.0501 on 1 procs for 495 steps with 19652 atoms

Performance: 0.993 ns/day, 24.158 hours/ns, 11.498 timesteps/s
99.9% CPU use with 1 MPI tasks x no OpenMP threads

MPI task timing breakdown:
Section |  min time  |  avg time  |  max time  |%varavg| %total
---------------------------------------------------------------
Pair    | 21.165     | 21.165     | 21.165     |   0.0 | 49.16
Neigh   | 20.258     | 20.258     | 20.258     |   0.0 | 47.06
Comm    | 0.52135    | 0.52135    | 0.52135    |   0.0 |  1.21
Output  | 0.00020194 | 0.00020194 | 0.00020194 |   0.0 |  0.00
Modify  | 0.82592    | 0.82592    | 0.82592    |   0.0 |  1.92
Other   |            | 0.2789     |            |       |  0.65

Nlocal:    19652 ave 19652 max 19652 min
Histogram: 1 0 0 0 0 0 0 0 0 0
Nghost:    13749 ave 13749 max 13749 min
Histogram: 1 0 0 0 0 0 0 0 0 0
Neighs:    705590 ave 705590 max 705590 min
Histogram: 1 0 0 0 0 0 0 0 0 0

Total # of neighbors = 705590
Ave neighs/atom = 35.9042
Neighbor list builds = 495
Dangerous builds not checked
Setting up Verlet run ...
  Unit style    : metal
  Current step  : 82495
  Time step     : 0.001
Per MPI rank memory allocation (min/avg/max) = 18.2 | 18.2 | 18.2 Mbytes
Step Temp Press TotEng PotEng Enthalpy 
   82495    1367.1705    511.48678   -75807.543   -79280.281   -75593.149 
   84000    1345.4553   -318.87948   -75901.599   -79319.178   -76035.489 
Loop time of 134.368 on 1 procs for 1505 steps with 19652 atoms

Performance: 0.968 ns/day, 24.800 hours/ns, 11.201 timesteps/s
99.7% CPU use with 1 MPI tasks x no OpenMP threads

MPI task timing breakdown:
Section |  min time  |  avg time  |  max time  |%varavg| %total
---------------------------------------------------------------
Pair    | 66.518     | 66.518     | 66.518     |   0.0 | 49.50
Neigh   | 62.647     | 62.647     | 62.647     |   0.0 | 46.62
Comm    | 1.6432     | 1.6432     | 1.6432     |   0.0 |  1.22
Output  | 0.045612   | 0.045612   | 0.045612   |   0.0 |  0.03
Modify  | 2.5865     | 2.5865     | 2.5865     |   0.0 |  1.92
Other   |            | 0.9272     |            |       |  0.69

Nlocal:    19652 ave 19652 max 19652 min
Histogram: 1 0 0 0 0 0 0 0 0 0
Nghost:    13778 ave 13778 max 13778 min
Histogram: 1 0 0 0 0 0 0 0 0 0
Neighs:    704116 ave 704116 max 704116 min
Histogram: 1 0 0 0 0 0 0 0 0 0

Total # of neighbors = 704116
Ave neighs/atom = 35.8292
Neighbor list builds = 1505
Dangerous builds not checked
Setting up Verlet run ...
  Unit style    : metal
  Current step  : 84000
  Time step     : 0.001
Per MPI rank memory allocation (min/avg/max) = 18.2 | 18.2 | 18.2 Mbytes
Step Temp Press TotEng PotEng Enthalpy 
   84000    1345.4553   -318.87948   -75901.599   -79319.178   -76035.489 
   84495    1318.3073   -225.10551   -76106.607   -79455.228   -76200.976 
Loop time of 44.3385 on 1 procs for 495 steps with 19652 atoms

Performance: 0.965 ns/day, 24.881 hours/ns, 11.164 timesteps/s
100.0% CPU use with 1 MPI tasks x no OpenMP threads

MPI task timing breakdown:
Section |  min time  |  avg time  |  max time  |%varavg| %total
---------------------------------------------------------------
Pair    | 22.069     | 22.069     | 22.069     |   0.0 | 49.77
Neigh   | 20.499     | 20.499     | 20.499     |   0.0 | 46.23
Comm    | 0.55697    | 0.55697    | 0.55697    |   0.0 |  1.26
Output  | 0.00026488 | 0.00026488 | 0.00026488 |   0.0 |  0.00
Modify  | 0.88548    | 0.88548    | 0.88548    |   0.0 |  2.00
Other   |            | 0.3276     |            |       |  0.74

Nlocal:    19652 ave 19652 max 19652 min
Histogram: 1 0 0 0 0 0 0 0 0 0
Nghost:    13796 ave 13796 max 13796 min
Histogram: 1 0 0 0 0 0 0 0 0 0
Neighs:    705215 ave 705215 max 705215 min
Histogram: 1 0 0 0 0 0 0 0 0 0

Total # of neighbors = 705215
Ave neighs/atom = 35.8852
Neighbor list builds = 495
Dangerous builds not checked
Setting up Verlet run ...
  Unit style    : metal
  Current step  : 84495
  Time step     : 0.001
Per MPI rank memory allocation (min/avg/max) = 18.2 | 18.2 | 18.2 Mbytes
Step Temp Press TotEng PotEng Enthalpy 
   84495    1318.3073   -225.10551   -76106.607   -79455.228   -76200.976 
   86000    1298.0133    15.433219   -76254.858    -79551.93     -76248.4 
Loop time of 135.2 on 1 procs for 1505 steps with 19652 atoms

Performance: 0.962 ns/day, 24.954 hours/ns, 11.132 timesteps/s
99.9% CPU use with 1 MPI tasks x no OpenMP threads

MPI task timing breakdown:
Section |  min time  |  avg time  |  max time  |%varavg| %total
---------------------------------------------------------------
Pair    | 66.873     | 66.873     | 66.873     |   0.0 | 49.46
Neigh   | 62.912     | 62.912     | 62.912     |   0.0 | 46.53
Comm    | 1.7084     | 1.7084     | 1.7084     |   0.0 |  1.26
Output  | 0.048705   | 0.048705   | 0.048705   |   0.0 |  0.04
Modify  | 2.6556     | 2.6556     | 2.6556     |   0.0 |  1.96
Other   |            | 1.002      |            |       |  0.74

Nlocal:    19652 ave 19652 max 19652 min
Histogram: 1 0 0 0 0 0 0 0 0 0
Nghost:    13834 ave 13834 max 13834 min
Histogram: 1 0 0 0 0 0 0 0 0 0
Neighs:    705612 ave 705612 max 705612 min
Histogram: 1 0 0 0 0 0 0 0 0 0

Total # of neighbors = 705612
Ave neighs/atom = 35.9054
Neighbor list builds = 1505
Dangerous builds not checked
Setting up Verlet run ...
  Unit style    : metal
  Current step  : 86000
  Time step     : 0.001
Per MPI rank memory allocation (min/avg/max) = 18.2 | 18.2 | 18.2 Mbytes
Step Temp Press TotEng PotEng Enthalpy 
   86000    1298.0133    15.433219   -76254.858    -79551.93     -76248.4 
   86495    1263.2226   -86.062464   -76484.206   -79692.907   -76520.183 
Loop time of 46.4867 on 1 procs for 495 steps with 19652 atoms

Performance: 0.920 ns/day, 26.087 hours/ns, 10.648 timesteps/s
100.0% CPU use with 1 MPI tasks x no OpenMP threads

MPI task timing breakdown:
Section |  min time  |  avg time  |  max time  |%varavg| %total
---------------------------------------------------------------
Pair    | 23.552     | 23.552     | 23.552     |   0.0 | 50.66
Neigh   | 20.92      | 20.92      | 20.92      |   0.0 | 45.00
Comm    | 0.64305    | 0.64305    | 0.64305    |   0.0 |  1.38
Output  | 0.00018382 | 0.00018382 | 0.00018382 |   0.0 |  0.00
Modify  | 0.98786    | 0.98786    | 0.98786    |   0.0 |  2.13
Other   |            | 0.3829     |            |       |  0.82

Nlocal:    19652 ave 19652 max 19652 min
Histogram: 1 0 0 0 0 0 0 0 0 0
Nghost:    13801 ave 13801 max 13801 min
Histogram: 1 0 0 0 0 0 0 0 0 0
Neighs:    705364 ave 705364 max 705364 min
Histogram: 1 0 0 0 0 0 0 0 0 0

Total # of neighbors = 705364
Ave neighs/atom = 35.8927
Neighbor list builds = 495
Dangerous builds not checked
Setting up Verlet run ...
  Unit style    : metal
  Current step  : 86495
  Time step     : 0.001
Per MPI rank memory allocation (min/avg/max) = 18.2 | 18.2 | 18.2 Mbytes
Step Temp Press TotEng PotEng Enthalpy 
   86495    1263.2226   -86.062464   -76484.206   -79692.907   -76520.183 
   88000    1251.6488   -60.223553   -76656.731   -79836.033   -76681.854 
Loop time of 138.299 on 1 procs for 1505 steps with 19652 atoms

Performance: 0.940 ns/day, 25.526 hours/ns, 10.882 timesteps/s
99.9% CPU use with 1 MPI tasks x no OpenMP threads

MPI task timing breakdown:
Section |  min time  |  avg time  |  max time  |%varavg| %total
---------------------------------------------------------------
Pair    | 69.192     | 69.192     | 69.192     |   0.0 | 50.03
Neigh   | 63.277     | 63.277     | 63.277     |   0.0 | 45.75
Comm    | 1.8589     | 1.8589     | 1.8589     |   0.0 |  1.34
Output  | 0.047172   | 0.047172   | 0.047172   |   0.0 |  0.03
Modify  | 2.8693     | 2.8693     | 2.8693     |   0.0 |  2.07
Other   |            | 1.055      |            |       |  0.76

Nlocal:    19652 ave 19652 max 19652 min
Histogram: 1 0 0 0 0 0 0 0 0 0
Nghost:    13870 ave 13870 max 13870 min
Histogram: 1 0 0 0 0 0 0 0 0 0
Neighs:    706544 ave 706544 max 706544 min
Histogram: 1 0 0 0 0 0 0 0 0 0

Total # of neighbors = 706544
Ave neighs/atom = 35.9528
Neighbor list builds = 1505
Dangerous builds not checked
Setting up Verlet run ...
  Unit style    : metal
  Current step  : 88000
  Time step     : 0.001
Per MPI rank memory allocation (min/avg/max) = 18.2 | 18.2 | 18.2 Mbytes
Step Temp Press TotEng PotEng Enthalpy 
   88000    1251.6488   -60.223553   -76656.731   -79836.033   -76681.854 
   88495    1219.7879   -134.45317    -76846.02   -79944.393   -76902.065 
Loop time of 44.3983 on 1 procs for 495 steps with 19652 atoms

Performance: 0.963 ns/day, 24.915 hours/ns, 11.149 timesteps/s
98.7% CPU use with 1 MPI tasks x no OpenMP threads

MPI task timing breakdown:
Section |  min time  |  avg time  |  max time  |%varavg| %total
---------------------------------------------------------------
Pair    | 22.003     | 22.003     | 22.003     |   0.0 | 49.56
Neigh   | 20.64      | 20.64      | 20.64      |   0.0 | 46.49
Comm    | 0.56051    | 0.56051    | 0.56051    |   0.0 |  1.26
Output  | 0.0001812  | 0.0001812  | 0.0001812  |   0.0 |  0.00
Modify  | 0.87178    | 0.87178    | 0.87178    |   0.0 |  1.96
Other   |            | 0.3228     |            |       |  0.73

Nlocal:    19652 ave 19652 max 19652 min
Histogram: 1 0 0 0 0 0 0 0 0 0
Nghost:    13880 ave 13880 max 13880 min
Histogram: 1 0 0 0 0 0 0 0 0 0
Neighs:    706532 ave 706532 max 706532 min
Histogram: 1 0 0 0 0 0 0 0 0 0

Total # of neighbors = 706532
Ave neighs/atom = 35.9522
Neighbor list builds = 495
Dangerous builds not checked
Setting up Verlet run ...
  Unit style    : metal
  Current step  : 88495
  Time step     : 0.001
Per MPI rank memory allocation (min/avg/max) = 18.2 | 18.2 | 18.2 Mbytes
Step Temp Press TotEng PotEng Enthalpy 
   88495    1219.7879   -134.45317    -76846.02   -79944.393   -76902.065 
   90000    1196.4754    871.52236   -76951.873    -79991.03    -76589.69 
Loop time of 140.591 on 1 procs for 1505 steps with 19652 atoms

Performance: 0.925 ns/day, 25.949 hours/ns, 10.705 timesteps/s
99.1% CPU use with 1 MPI tasks x no OpenMP threads

MPI task timing breakdown:
Section |  min time  |  avg time  |  max time  |%varavg| %total
---------------------------------------------------------------
Pair    | 70.688     | 70.688     | 70.688     |   0.0 | 50.28
Neigh   | 64.071     | 64.071     | 64.071     |   0.0 | 45.57
Comm    | 1.8463     | 1.8463     | 1.8463     |   0.0 |  1.31
Output  | 0.047999   | 0.047999   | 0.047999   |   0.0 |  0.03
Modify  | 2.8606     | 2.8606     | 2.8606     |   0.0 |  2.03
Other   |            | 1.077      |            |       |  0.77

Nlocal:    19652 ave 19652 max 19652 min
Histogram: 1 0 0 0 0 0 0 0 0 0
Nghost:    13871 ave 13871 max 13871 min
Histogram: 1 0 0 0 0 0 0 0 0 0
Neighs:    708391 ave 708391 max 708391 min
Histogram: 1 0 0 0 0 0 0 0 0 0

Total # of neighbors = 708391
Ave neighs/atom = 36.0468
Neighbor list builds = 1505
Dangerous builds not checked
Setting up Verlet run ...
  Unit style    : metal
  Current step  : 90000
  Time step     : 0.001
Per MPI rank memory allocation (min/avg/max) = 18.2 | 18.2 | 18.2 Mbytes
Step Temp Press TotEng PotEng Enthalpy 
   90000    1196.4754    871.52236   -76951.873    -79991.03    -76589.69 
   90495    1168.2484    350.86154   -77162.561   -80130.019   -77016.801 
Loop time of 44.7938 on 1 procs for 495 steps with 19652 atoms

Performance: 0.955 ns/day, 25.137 hours/ns, 11.051 timesteps/s
99.9% CPU use with 1 MPI tasks x no OpenMP threads

MPI task timing breakdown:
Section |  min time  |  avg time  |  max time  |%varavg| %total
---------------------------------------------------------------
Pair    | 22.494     | 22.494     | 22.494     |   0.0 | 50.22
Neigh   | 20.533     | 20.533     | 20.533     |   0.0 | 45.84
Comm    | 0.56317    | 0.56317    | 0.56317    |   0.0 |  1.26
Output  | 0.00020504 | 0.00020504 | 0.00020504 |   0.0 |  0.00
Modify  | 0.88157    | 0.88157    | 0.88157    |   0.0 |  1.97
Other   |            | 0.3226     |            |       |  0.72

Nlocal:    19652 ave 19652 max 19652 min
Histogram: 1 0 0 0 0 0 0 0 0 0
Nghost:    13855 ave 13855 max 13855 min
Histogram: 1 0 0 0 0 0 0 0 0 0
Neighs:    707523 ave 707523 max 707523 min
Histogram: 1 0 0 0 0 0 0 0 0 0

Total # of neighbors = 707523
Ave neighs/atom = 36.0026
Neighbor list builds = 495
Dangerous builds not checked
Setting up Verlet run ...
  Unit style    : metal
  Current step  : 90495
  Time step     : 0.001
Per MPI rank memory allocation (min/avg/max) = 18.2 | 18.2 | 18.2 Mbytes
Step Temp Press TotEng PotEng Enthalpy 
   90495    1168.2484    350.86154   -77162.561   -80130.019   -77016.801 
   92000    1150.6934    -673.2246   -77295.353   -80218.219    -77575.57 
Loop time of 137.272 on 1 procs for 1505 steps with 19652 atoms

Performance: 0.947 ns/day, 25.336 hours/ns, 10.964 timesteps/s
99.9% CPU use with 1 MPI tasks x no OpenMP threads

MPI task timing breakdown:
Section |  min time  |  avg time  |  max time  |%varavg| %total
[...]
Nghost:    13988 ave 13988 max 13988 min
Histogram: 1 0 0 0 0 0 0 0 0 0
Neighs:    711811 ave 711811 max 711811 min
Histogram: 1 0 0 0 0 0 0 0 0 0

Total # of neighbors = 711811
Ave neighs/atom = 36.2208
Neighbor list builds = 1505
Dangerous builds not checked
Setting up Verlet run ...
  Unit style    : metal
  Current step  : 120000
  Time step     : 0.001
Per MPI rank memory allocation (min/avg/max) = 18.2 | 18.2 | 18.2 Mbytes
Step Temp Press TotEng PotEng Enthalpy 
  120000    449.60429    329.77307   -81613.643   -82755.678   -81480.322 
  120495    420.55757    356.27792   -81770.461   -82838.716   -81626.569 
Loop time of 44.8057 on 1 procs for 495 steps with 19652 atoms

Performance: 0.955 ns/day, 25.143 hours/ns, 11.048 timesteps/s
99.2% CPU use with 1 MPI tasks x no OpenMP threads

MPI task timing breakdown:
Section |  min time  |  avg time  |  max time  |%varavg| %total
---------------------------------------------------------------
Pair    | 22.56      | 22.56      | 22.56      |   0.0 | 50.35
Neigh   | 20.449     | 20.449     | 20.449     |   0.0 | 45.64
Comm    | 0.57175    | 0.57175    | 0.57175    |   0.0 |  1.28
Output  | 0.00019908 | 0.00019908 | 0.00019908 |   0.0 |  0.00
Modify  | 0.89644    | 0.89644    | 0.89644    |   0.0 |  2.00
Other   |            | 0.3277     |            |       |  0.73

Nlocal:    19652 ave 19652 max 19652 min
Histogram: 1 0 0 0 0 0 0 0 0 0
Nghost:    13988 ave 13988 max 13988 min
Histogram: 1 0 0 0 0 0 0 0 0 0
Neighs:    711407 ave 711407 max 711407 min
Histogram: 1 0 0 0 0 0 0 0 0 0

Total # of neighbors = 711407
Ave neighs/atom = 36.2002
Neighbor list builds = 495
Dangerous builds not checked
Setting up Verlet run ...
  Unit style    : metal
  Current step  : 120495
  Time step     : 0.001
Per MPI rank memory allocation (min/avg/max) = 18.2 | 18.2 | 18.2 Mbytes
Step Temp Press TotEng PotEng Enthalpy 
  120495    420.55757    356.27792   -81770.461   -82838.716   -81626.569 
  122000    398.37788    -526.6103   -81891.289   -82903.205    -82104.28 
Loop time of 133.866 on 1 procs for 1505 steps with 19652 atoms

Performance: 0.971 ns/day, 24.708 hours/ns, 11.243 timesteps/s
99.6% CPU use with 1 MPI tasks x no OpenMP threads

MPI task timing breakdown:
Section |  min time  |  avg time  |  max time  |%varavg| %total
---------------------------------------------------------------
Pair    | 67.063     | 67.063     | 67.063     |   0.0 | 50.10
Neigh   | 61.489     | 61.489     | 61.489     |   0.0 | 45.93
Comm    | 1.6938     | 1.6938     | 1.6938     |   0.0 |  1.27
Output  | 0.061903   | 0.061903   | 0.061903   |   0.0 |  0.05
Modify  | 2.6412     | 2.6412     | 2.6412     |   0.0 |  1.97
Other   |            | 0.917      |            |       |  0.69

Nlocal:    19652 ave 19652 max 19652 min
Histogram: 1 0 0 0 0 0 0 0 0 0
Nghost:    13976 ave 13976 max 13976 min
Histogram: 1 0 0 0 0 0 0 0 0 0
Neighs:    710417 ave 710417 max 710417 min
Histogram: 1 0 0 0 0 0 0 0 0 0

Total # of neighbors = 710417
Ave neighs/atom = 36.1499
Neighbor list builds = 1505
Dangerous builds not checked
Setting up Verlet run ...
  Unit style    : metal
  Current step  : 122000
  Time step     : 0.001
Per MPI rank memory allocation (min/avg/max) = 18.2 | 18.2 | 18.2 Mbytes
Step Temp Press TotEng PotEng Enthalpy 
  122000    398.37788    -526.6103   -81891.289   -82903.205    -82104.28 
  122495    371.22033   -359.53321   -82042.859   -82985.792   -82188.068 
Loop time of 44.4139 on 1 procs for 495 steps with 19652 atoms

Performance: 0.963 ns/day, 24.924 hours/ns, 11.145 timesteps/s
99.9% CPU use with 1 MPI tasks x no OpenMP threads

MPI task timing breakdown:
Section |  min time  |  avg time  |  max time  |%varavg| %total
---------------------------------------------------------------
Pair    | 22.344     | 22.344     | 22.344     |   0.0 | 50.31
Neigh   | 20.257     | 20.257     | 20.257     |   0.0 | 45.61
Comm    | 0.58991    | 0.58991    | 0.58991    |   0.0 |  1.33
Output  | 0.00019813 | 0.00019813 | 0.00019813 |   0.0 |  0.00
Modify  | 0.90827    | 0.90827    | 0.90827    |   0.0 |  2.05
Other   |            | 0.3148     |            |       |  0.71

Nlocal:    19652 ave 19652 max 19652 min
Histogram: 1 0 0 0 0 0 0 0 0 0
Nghost:    13975 ave 13975 max 13975 min
Histogram: 1 0 0 0 0 0 0 0 0 0
Neighs:    711199 ave 711199 max 711199 min
Histogram: 1 0 0 0 0 0 0 0 0 0

Total # of neighbors = 711199
Ave neighs/atom = 36.1896
Neighbor list builds = 495
Dangerous builds not checked
Setting up Verlet run ...
  Unit style    : metal
  Current step  : 122495
  Time step     : 0.001
Per MPI rank memory allocation (min/avg/max) = 18.2 | 18.2 | 18.2 Mbytes
Step Temp Press TotEng PotEng Enthalpy 
  122495    371.22033   -359.53321   -82042.859   -82985.792   -82188.068 
  124000    350.18028   -409.49886   -82157.564   -83047.053   -82322.864 
Loop time of 136.906 on 1 procs for 1505 steps with 19652 atoms

Performance: 0.950 ns/day, 25.269 hours/ns, 10.993 timesteps/s
99.6% CPU use with 1 MPI tasks x no OpenMP threads

MPI task timing breakdown:
Section |  min time  |  avg time  |  max time  |%varavg| %total
---------------------------------------------------------------
Pair    | 69.495     | 69.495     | 69.495     |   0.0 | 50.76
Neigh   | 61.796     | 61.796     | 61.796     |   0.0 | 45.14
Comm    | 1.7695     | 1.7695     | 1.7695     |   0.0 |  1.29
Output  | 0.047183   | 0.047183   | 0.047183   |   0.0 |  0.03
Modify  | 2.7739     | 2.7739     | 2.7739     |   0.0 |  2.03
Other   |            | 1.025      |            |       |  0.75

Nlocal:    19652 ave 19652 max 19652 min
Histogram: 1 0 0 0 0 0 0 0 0 0
Nghost:    13993 ave 13993 max 13993 min
Histogram: 1 0 0 0 0 0 0 0 0 0
Neighs:    710662 ave 710662 max 710662 min
Histogram: 1 0 0 0 0 0 0 0 0 0

Total # of neighbors = 710662
Ave neighs/atom = 36.1623
Neighbor list builds = 1505
Dangerous builds not checked
Setting up Verlet run ...
  Unit style    : metal
  Current step  : 124000
  Time step     : 0.001
Per MPI rank memory allocation (min/avg/max) = 18.2 | 18.2 | 18.2 Mbytes
Step Temp Press TotEng PotEng Enthalpy 
  124000    350.18028   -409.49886   -82157.564   -83047.053   -82322.864 
  124495    322.98719  -0.23873685   -82310.491   -83130.908   -82310.587 
Loop time of 44.1305 on 1 procs for 495 steps with 19652 atoms

Performance: 0.969 ns/day, 24.765 hours/ns, 11.217 timesteps/s
99.7% CPU use with 1 MPI tasks x no OpenMP threads

MPI task timing breakdown:
Section |  min time  |  avg time  |  max time  |%varavg| %total
---------------------------------------------------------------
Pair    | 22.201     | 22.201     | 22.201     |   0.0 | 50.31
Neigh   | 20.168     | 20.168     | 20.168     |   0.0 | 45.70
Comm    | 0.56246    | 0.56246    | 0.56246    |   0.0 |  1.27
Output  | 0.00019002 | 0.00019002 | 0.00019002 |   0.0 |  0.00
Modify  | 0.87838    | 0.87838    | 0.87838    |   0.0 |  1.99
Other   |            | 0.3206     |            |       |  0.73

Nlocal:    19652 ave 19652 max 19652 min
Histogram: 1 0 0 0 0 0 0 0 0 0
Nghost:    13968 ave 13968 max 13968 min
Histogram: 1 0 0 0 0 0 0 0 0 0
Neighs:    711729 ave 711729 max 711729 min
Histogram: 1 0 0 0 0 0 0 0 0 0

Total # of neighbors = 711729
Ave neighs/atom = 36.2166
Neighbor list builds = 495
Dangerous builds not checked
Setting up Verlet run ...
  Unit style    : metal
  Current step  : 124495
  Time step     : 0.001
Per MPI rank memory allocation (min/avg/max) = 18.2 | 18.2 | 18.2 Mbytes
Step Temp Press TotEng PotEng Enthalpy 
  124495    322.98719  -0.23873685   -82310.491   -83130.908   -82310.587 
  126000    300.74717    323.74366   -82427.997   -83191.922   -82297.758 
Loop time of 136.501 on 1 procs for 1505 steps with 19652 atoms

Performance: 0.953 ns/day, 25.194 hours/ns, 11.026 timesteps/s
99.0% CPU use with 1 MPI tasks x no OpenMP threads

MPI task timing breakdown:
Section |  min time  |  avg time  |  max time  |%varavg| %total
---------------------------------------------------------------
Pair    | 68.928     | 68.928     | 68.928     |   0.0 | 50.50
Neigh   | 62.037     | 62.037     | 62.037     |   0.0 | 45.45
Comm    | 1.7487     | 1.7487     | 1.7487     |   0.0 |  1.28
Output  | 0.046249   | 0.046249   | 0.046249   |   0.0 |  0.03
Modify  | 2.7428     | 2.7428     | 2.7428     |   0.0 |  2.01
Other   |            | 0.9983     |            |       |  0.73

Nlocal:    19652 ave 19652 max 19652 min
Histogram: 1 0 0 0 0 0 0 0 0 0
Nghost:    13987 ave 13987 max 13987 min
Histogram: 1 0 0 0 0 0 0 0 0 0
Neighs:    712565 ave 712565 max 712565 min
Histogram: 1 0 0 0 0 0 0 0 0 0

Total # of neighbors = 712565
Ave neighs/atom = 36.2592
Neighbor list builds = 1505
Dangerous builds not checked
Setting up Verlet run ...
  Unit style    : metal
  Current step  : 126000
  Time step     : 0.001
Per MPI rank memory allocation (min/avg/max) = 18.2 | 18.2 | 18.2 Mbytes
Step Temp Press TotEng PotEng Enthalpy 
  126000    300.74717    323.74366   -82427.997   -83191.922   -82297.758 
  126495    272.05057   -230.32073   -82573.277    -83264.31   -82665.973 
Loop time of 44.6189 on 1 procs for 495 steps with 19652 atoms

Performance: 0.959 ns/day, 25.039 hours/ns, 11.094 timesteps/s
99.8% CPU use with 1 MPI tasks x no OpenMP threads

MPI task timing breakdown:
Section |  min time  |  avg time  |  max time  |%varavg| %total
---------------------------------------------------------------
Pair    | 22.517     | 22.517     | 22.517     |   0.0 | 50.47
Neigh   | 20.3       | 20.3       | 20.3       |   0.0 | 45.50
Comm    | 0.56717    | 0.56717    | 0.56717    |   0.0 |  1.27
Output  | 0.00021815 | 0.00021815 | 0.00021815 |   0.0 |  0.00
Modify  | 0.89743    | 0.89743    | 0.89743    |   0.0 |  2.01
Other   |            | 0.3374     |            |       |  0.76

Nlocal:    19652 ave 19652 max 19652 min
Histogram: 1 0 0 0 0 0 0 0 0 0
Nghost:    13996 ave 13996 max 13996 min
Histogram: 1 0 0 0 0 0 0 0 0 0
Neighs:    711826 ave 711826 max 711826 min
Histogram: 1 0 0 0 0 0 0 0 0 0

Total # of neighbors = 711826
Ave neighs/atom = 36.2216
Neighbor list builds = 495
Dangerous builds not checked
Setting up Verlet run ...
  Unit style    : metal
  Current step  : 126495
  Time step     : 0.001
Per MPI rank memory allocation (min/avg/max) = 18.2 | 18.2 | 18.2 Mbytes
Step Temp Press TotEng PotEng Enthalpy 
  126495    272.05057   -230.32073   -82573.277    -83264.31   -82665.973 
  128000    251.92321   -8.9690558   -82695.784   -83335.692   -82699.389 
Loop time of 136.153 on 1 procs for 1505 steps with 19652 atoms

Performance: 0.955 ns/day, 25.130 hours/ns, 11.054 timesteps/s
99.7% CPU use with 1 MPI tasks x no OpenMP threads

MPI task timing breakdown:
Section |  min time  |  avg time  |  max time  |%varavg| %total
---------------------------------------------------------------
Pair    | 68.979     | 68.979     | 68.979     |   0.0 | 50.66
Neigh   | 61.598     | 61.598     | 61.598     |   0.0 | 45.24
Comm    | 1.7459     | 1.7459     | 1.7459     |   0.0 |  1.28
Output  | 0.046691   | 0.046691   | 0.046691   |   0.0 |  0.03
Modify  | 2.7558     | 2.7558     | 2.7558     |   0.0 |  2.02
Other   |            | 1.027      |            |       |  0.75

Nlocal:    19652 ave 19652 max 19652 min
Histogram: 1 0 0 0 0 0 0 0 0 0
Nghost:    14014 ave 14014 max 14014 min
Histogram: 1 0 0 0 0 0 0 0 0 0
Neighs:    712650 ave 712650 max 712650 min
Histogram: 1 0 0 0 0 0 0 0 0 0

Total # of neighbors = 712650
Ave neighs/atom = 36.2635
Neighbor list builds = 1505
Dangerous builds not checked
Setting up Verlet run ...
  Unit style    : metal
  Current step  : 128000
  Time step     : 0.001
Per MPI rank memory allocation (min/avg/max) = 18.2 | 18.2 | 18.2 Mbytes
Step Temp Press TotEng PotEng Enthalpy 
  128000    251.92321   -8.9690558   -82695.784   -83335.692   -82699.389 
  128495    225.44872   -63.680105   -82830.882   -83403.543   -82856.466 
Loop time of 45.2509 on 1 procs for 495 steps with 19652 atoms

Performance: 0.945 ns/day, 25.393 hours/ns, 10.939 timesteps/s
99.9% CPU use with 1 MPI tasks x no OpenMP threads

MPI task timing breakdown:
Section |  min time  |  avg time  |  max time  |%varavg| %total
---------------------------------------------------------------
Pair    | 23.14      | 23.14      | 23.14      |   0.0 | 51.14
Neigh   | 20.251     | 20.251     | 20.251     |   0.0 | 44.75
Comm    | 0.59086    | 0.59086    | 0.59086    |   0.0 |  1.31
Output  | 0.00026608 | 0.00026608 | 0.00026608 |   0.0 |  0.00
Modify  | 0.92424    | 0.92424    | 0.92424    |   0.0 |  2.04
Other   |            | 0.3449     |            |       |  0.76

Nlocal:    19652 ave 19652 max 19652 min
Histogram: 1 0 0 0 0 0 0 0 0 0
Nghost:    13997 ave 13997 max 13997 min
Histogram: 1 0 0 0 0 0 0 0 0 0
Neighs:    712529 ave 712529 max 712529 min
Histogram: 1 0 0 0 0 0 0 0 0 0

Total # of neighbors = 712529
Ave neighs/atom = 36.2573
Neighbor list builds = 495
Dangerous builds not checked
Setting up Verlet run ...
  Unit style    : metal
  Current step  : 128495
  Time step     : 0.001
Per MPI rank memory allocation (min/avg/max) = 18.2 | 18.2 | 18.2 Mbytes
Step Temp Press TotEng PotEng Enthalpy 
  128495    225.44872   -63.680105   -82830.882   -83403.543   -82856.466 
  130000    200.18627   -153.91121   -82957.138   -83465.629   -83018.926 
Loop time of 169.794 on 1 procs for 1505 steps with 19652 atoms

Performance: 0.766 ns/day, 31.339 hours/ns, 8.864 timesteps/s
80.7% CPU use with 1 MPI tasks x no OpenMP threads

MPI task timing breakdown:
Section |  min time  |  avg time  |  max time  |%varavg| %total
---------------------------------------------------------------
Pair    | 86.264     | 86.264     | 86.264     |   0.0 | 50.81
Neigh   | 76.491     | 76.491     | 76.491     |   0.0 | 45.05
Comm    | 2.1792     | 2.1792     | 2.1792     |   0.0 |  1.28
Output  | 0.070374   | 0.070374   | 0.070374   |   0.0 |  0.04
Modify  | 3.5057     | 3.5057     | 3.5057     |   0.0 |  2.06
Other   |            | 1.283      |            |       |  0.76

Nlocal:    19652 ave 19652 max 19652 min
Histogram: 1 0 0 0 0 0 0 0 0 0
Nghost:    14051 ave 14051 max 14051 min
Histogram: 1 0 0 0 0 0 0 0 0 0
Neighs:    712757 ave 712757 max 712757 min
Histogram: 1 0 0 0 0 0 0 0 0 0

Total # of neighbors = 712757
Ave neighs/atom = 36.2689
Neighbor list builds = 1505
Dangerous builds not checked
Setting up Verlet run ...
  Unit style    : metal
  Current step  : 130000
  Time step     : 0.001
Per MPI rank memory allocation (min/avg/max) = 18.2 | 18.2 | 18.2 Mbytes
Step Temp Press TotEng PotEng Enthalpy 
  130000    200.18627   -153.91121   -82957.138   -83465.629   -83018.926 
  130495    174.76447    -99.24026   -83086.211   -83530.128   -83126.018 
Loop time of 58.0467 on 1 procs for 495 steps with 19652 atoms

Performance: 0.737 ns/day, 32.574 hours/ns, 8.528 timesteps/s
77.6% CPU use with 1 MPI tasks x no OpenMP threads

MPI task timing breakdown:
Section |  min time  |  avg time  |  max time  |%varavg| %total
---------------------------------------------------------------
Pair    | 29.573     | 29.573     | 29.573     |   0.0 | 50.95
Neigh   | 26.138     | 26.138     | 26.138     |   0.0 | 45.03
Comm    | 0.7114     | 0.7114     | 0.7114     |   0.0 |  1.23
Output  | 0.00019193 | 0.00019193 | 0.00019193 |   0.0 |  0.00
Modify  | 1.1991     | 1.1991     | 1.1991     |   0.0 |  2.07
Other   |            | 0.4252     |            |       |  0.73

Nlocal:    19652 ave 19652 max 19652 min
Histogram: 1 0 0 0 0 0 0 0 0 0
Nghost:    14013 ave 14013 max 14013 min
Histogram: 1 0 0 0 0 0 0 0 0 0
Neighs:    712802 ave 712802 max 712802 min
Histogram: 1 0 0 0 0 0 0 0 0 0

Total # of neighbors = 712802
Ave neighs/atom = 36.2712
Neighbor list builds = 495
Dangerous builds not checked
Setting up Verlet run ...
  Unit style    : metal
  Current step  : 130495
  Time step     : 0.001
Per MPI rank memory allocation (min/avg/max) = 18.2 | 18.2 | 18.2 Mbytes
Step Temp Press TotEng PotEng Enthalpy 
  130495    174.76447    -99.24026   -83086.211   -83530.128   -83126.018 
  132000    150.45925    303.05543   -83222.346   -83604.526   -83100.998 
Loop time of 152.863 on 1 procs for 1505 steps with 19652 atoms

Performance: 0.851 ns/day, 28.214 hours/ns, 9.845 timesteps/s
88.5% CPU use with 1 MPI tasks x no OpenMP threads

MPI task timing breakdown:
Section |  min time  |  avg time  |  max time  |%varavg| %total
---------------------------------------------------------------
Pair    | 77.463     | 77.463     | 77.463     |   0.0 | 50.67
Neigh   | 69.268     | 69.268     | 69.268     |   0.0 | 45.31
Comm    | 1.9111     | 1.9111     | 1.9111     |   0.0 |  1.25
Output  | 0.077973   | 0.077973   | 0.077973   |   0.0 |  0.05
Modify  | 3.0299     | 3.0299     | 3.0299     |   0.0 |  1.98
Other   |            | 1.112      |            |       |  0.73

Nlocal:    19652 ave 19652 max 19652 min
Histogram: 1 0 0 0 0 0 0 0 0 0
Nghost:    14042 ave 14042 max 14042 min
Histogram: 1 0 0 0 0 0 0 0 0 0
Neighs:    713925 ave 713925 max 713925 min
Histogram: 1 0 0 0 0 0 0 0 0 0

Total # of neighbors = 713925
Ave neighs/atom = 36.3284
Neighbor list builds = 1505
Dangerous builds not checked
Setting up Verlet run ...
  Unit style    : metal
  Current step  : 132000
  Time step     : 0.001
Per MPI rank memory allocation (min/avg/max) = 18.2 | 18.2 | 18.2 Mbytes
Step Temp Press TotEng PotEng Enthalpy 
  132000    150.45925    303.05543   -83222.346   -83604.526   -83100.998 
  132495    126.57283   -269.69556    -83339.77   -83661.277   -83447.842 
Loop time of 65.3776 on 1 procs for 495 steps with 19652 atoms

Performance: 0.654 ns/day, 36.688 hours/ns, 7.571 timesteps/s
68.9% CPU use with 1 MPI tasks x no OpenMP threads

MPI task timing breakdown:
Section |  min time  |  avg time  |  max time  |%varavg| %total
---------------------------------------------------------------
Pair    | 33.322     | 33.322     | 33.322     |   0.0 | 50.97
Neigh   | 29.391     | 29.391     | 29.391     |   0.0 | 44.96
Comm    | 0.88986    | 0.88986    | 0.88986    |   0.0 |  1.36
Output  | 0.00019193 | 0.00019193 | 0.00019193 |   0.0 |  0.00
Modify  | 1.3219     | 1.3219     | 1.3219     |   0.0 |  2.02
Other   |            | 0.4524     |            |       |  0.69

Nlocal:    19652 ave 19652 max 19652 min
Histogram: 1 0 0 0 0 0 0 0 0 0
Nghost:    14019 ave 14019 max 14019 min
Histogram: 1 0 0 0 0 0 0 0 0 0
Neighs:    712784 ave 712784 max 712784 min
Histogram: 1 0 0 0 0 0 0 0 0 0

Total # of neighbors = 712784
Ave neighs/atom = 36.2703
Neighbor list builds = 495
Dangerous builds not checked
Setting up Verlet run ...
  Unit style    : metal
  Current step  : 132495
  Time step     : 0.001
Per MPI rank memory allocation (min/avg/max) = 18.2 | 18.2 | 18.2 Mbytes
Step Temp Press TotEng PotEng Enthalpy 
  132495    126.57283   -269.69556    -83339.77   -83661.277   -83447.842 
  134000    99.617054   -172.56602   -83481.511   -83734.547   -83550.584 
Loop time of 146.944 on 1 procs for 1505 steps with 19652 atoms

Performance: 0.885 ns/day, 27.121 hours/ns, 10.242 timesteps/s
92.5% CPU use with 1 MPI tasks x no OpenMP threads

MPI task timing breakdown:
Section |  min time  |  avg time  |  max time  |%varavg| %total
---------------------------------------------------------------
Pair    | 74.811     | 74.811     | 74.811     |   0.0 | 50.91
Neigh   | 66.006     | 66.006     | 66.006     |   0.0 | 44.92
Comm    | 1.8996     | 1.8996     | 1.8996     |   0.0 |  1.29
Output  | 0.061686   | 0.061686   | 0.061686   |   0.0 |  0.04
Modify  | 3.0334     | 3.0334     | 3.0334     |   0.0 |  2.06
Other   |            | 1.133      |            |       |  0.77

Nlocal:    19652 ave 19652 max 19652 min
Histogram: 1 0 0 0 0 0 0 0 0 0
Nghost:    14057 ave 14057 max 14057 min
Histogram: 1 0 0 0 0 0 0 0 0 0
Neighs:    713422 ave 713422 max 713422 min
Histogram: 1 0 0 0 0 0 0 0 0 0

Total # of neighbors = 713422
Ave neighs/atom = 36.3028
Neighbor list builds = 1505
Dangerous builds not checked
Total wall time: 3:28:05
