LAMMPS (12 Dec 2018)
Lattice spacing in x,y,z = 4 4 4
Created orthogonal box = (0 0 0) to (68 68 68)
  1 by 1 by 2 MPI processor grid
Created 19652 atoms
  Time spent = 0.00185895 secs
Setting atom values ...
  19652 settings made for type/fraction
Neighbor list info ...
  update every 1 steps, delay 0 steps, check no
  max neighbors/atom: 2000, page size: 100000
  master list distance cutoff = 8.5
  ghost atom cutoff = 8.5
  binsize = 4.25, bins = 16 16 16
  1 neighbor lists, perpetual/occasional/extra = 1 0 0
  (1) pair eam/alloy, perpetual
      attributes: half, newton on
      pair build: half/bin/atomonly/newton
      stencil: half/bin/3d/newton
      bin: standard
Setting up Verlet run ...
  Unit style    : metal
  Current step  : 0
  Time step     : 0.001
Per MPI rank memory allocation (min/avg/max) = 11.15 | 11.15 | 11.15 Mbytes
Step Temp Press TotEng PotEng Enthalpy 
       0          300    36704.835   -65035.333    -65797.36   -57831.898 
    1000       151.58     41390.06   -65035.174   -65420.201   -56912.249 
Loop time of 99.6302 on 2 procs for 1000 steps with 19652 atoms

Performance: 0.867 ns/day, 27.675 hours/ns, 10.037 timesteps/s
98.9% CPU use with 2 MPI tasks x no OpenMP threads

MPI task timing breakdown:
Section |  min time  |  avg time  |  max time  |%varavg| %total
---------------------------------------------------------------
Pair    | 56.884     | 57.632     | 58.38      |   9.9 | 57.85
Neigh   | 37.446     | 37.784     | 38.123     |   5.5 | 37.92
Comm    | 3.2819     | 3.6936     | 4.1054     |  21.4 |  3.71
Output  | 0.00013018 | 0.00017214 | 0.0002141  |   0.0 |  0.00
Modify  | 0.26143    | 0.2648     | 0.26817    |   0.7 |  0.27
Other   |            | 0.2548     |            |       |  0.26

Nlocal:    9826 ave 9841 max 9811 min
Histogram: 1 0 0 0 0 0 0 0 0 1
Nghost:    14211 ave 14226 max 14196 min
Histogram: 1 0 0 0 0 0 0 0 0 1
Neighs:    786050 ave 787069 max 785030 min
Histogram: 1 0 0 0 0 0 0 0 0 1

Total # of neighbors = 1572099
Ave neighs/atom = 79.9969
Neighbor list builds = 1000
Dangerous builds not checked
Setting up Verlet run ...
  Unit style    : metal
  Current step  : 1000
  Time step     : 0.001
Per MPI rank memory allocation (min/avg/max) = 11.15 | 11.15 | 11.15 Mbytes
Step Temp Press TotEng PotEng Enthalpy 
    1000       151.58     41390.06   -65035.174   -65420.201   -56912.249 
    2000    294.23078   -96.847983   -64389.216   -65136.589   -64409.369 
Loop time of 91.6702 on 2 procs for 1000 steps with 19652 atoms

Performance: 0.943 ns/day, 25.464 hours/ns, 10.909 timesteps/s
98.6% CPU use with 2 MPI tasks x no OpenMP threads

MPI task timing breakdown:
Section |  min time  |  avg time  |  max time  |%varavg| %total
---------------------------------------------------------------
Pair    | 50.423     | 51.038     | 51.653     |   8.6 | 55.68
Neigh   | 34.102     | 35.426     | 36.751     |  22.3 | 38.65
Comm    | 3.1034     | 3.964      | 4.8245     |  43.2 |  4.32
Output  | 9.4175e-05 | 0.0001471  | 0.00020003 |   0.0 |  0.00
Modify  | 0.85388    | 0.99771    | 1.1415     |  14.4 |  1.09
Other   |            | 0.244      |            |       |  0.27

Nlocal:    9826 ave 9837 max 9815 min
Histogram: 1 0 0 0 0 0 0 0 0 1
Nghost:    14205.5 ave 14218 max 14193 min
Histogram: 1 0 0 0 0 0 0 0 0 1
Neighs:    716086 ave 716703 max 715469 min
Histogram: 1 0 0 0 0 0 0 0 0 1

Total # of neighbors = 1432172
Ave neighs/atom = 72.8767
Neighbor list builds = 1000
Dangerous builds not checked
Setting up Verlet run ...
  Unit style    : metal
  Current step  : 2000
  Time step     : 0.001
Per MPI rank memory allocation (min/avg/max) = 11.15 | 11.15 | 11.15 Mbytes
Step Temp Press TotEng PotEng Enthalpy 
    2000    294.23078   -96.847983   -64389.216   -65136.589   -64409.369 
   10000    2441.5959   -641.74039    -50657.02   -56858.896   -50835.914 
Loop time of 769.829 on 2 procs for 8000 steps with 19652 atoms

Performance: 0.898 ns/day, 26.730 hours/ns, 10.392 timesteps/s
95.7% CPU use with 2 MPI tasks x no OpenMP threads

MPI task timing breakdown:
Section |  min time  |  avg time  |  max time  |%varavg| %total
---------------------------------------------------------------
Pair    | 417.69     | 421.14     | 424.58     |  16.8 | 54.71
Neigh   | 295.41     | 297.8      | 300.19     |  13.8 | 38.68
Comm    | 35.58      | 41.545     | 47.51      |  92.5 |  5.40
Output  | 0.037096   | 0.037145   | 0.037195   |   0.0 |  0.00
Modify  | 7.246      | 7.305      | 7.364      |   2.2 |  0.95
Other   |            | 2.003      |            |       |  0.26

Nlocal:    9826 ave 9853 max 9799 min
Histogram: 1 0 0 0 0 0 0 0 0 1
Nghost:    11404.5 ave 11428 max 11381 min
Histogram: 1 0 0 0 0 0 0 0 0 1
Neighs:    551289 ave 555022 max 547556 min
Histogram: 1 0 0 0 0 0 0 0 0 1

Total # of neighbors = 1102578
Ave neighs/atom = 56.1051
Neighbor list builds = 8000
Dangerous builds not checked
Setting up Verlet run ...
  Unit style    : metal
  Current step  : 10000
  Time step     : 0.001
Per MPI rank memory allocation (min/avg/max) = 11.19 | 11.19 | 11.19 Mbytes
Step Temp Press TotEng PotEng Enthalpy 
   10000    2441.5959   -641.74039    -50657.02   -56858.896   -50835.914 
   20000    2451.9285   -922.79359   -50622.618    -56850.74   -50880.095 
   30000      2457.59   -282.11717   -50584.304   -56826.806   -50662.999 
   40000    2467.6856    496.86951   -50574.434    -56842.58   -50436.259 
Loop time of 3529.08 on 2 procs for 30000 steps with 19652 atoms

Performance: 0.734 ns/day, 32.677 hours/ns, 8.501 timesteps/s
83.1% CPU use with 2 MPI tasks x no OpenMP threads

MPI task timing breakdown:
Section |  min time  |  avg time  |  max time  |%varavg| %total
---------------------------------------------------------------
Pair    | 1899.2     | 1911.5     | 1923.8     |  28.2 | 54.16
Neigh   | 1295.6     | 1325.6     | 1355.6     |  82.4 | 37.56
Comm    | 226.41     | 243.99     | 261.56     | 112.5 |  6.91
Output  | 0.13208    | 0.13228    | 0.13247    |   0.1 |  0.00
Modify  | 39.302     | 39.389     | 39.476     |   1.4 |  1.12
Other   |            | 8.51       |            |       |  0.24

Nlocal:    9826 ave 9829 max 9823 min
Histogram: 1 0 0 0 0 0 0 0 0 1
Nghost:    11420 ave 11456 max 11384 min
Histogram: 1 0 0 0 0 0 0 0 0 1
Neighs:    552754 ave 558942 max 546565 min
Histogram: 1 0 0 0 0 0 0 0 0 1

Total # of neighbors = 1105507
Ave neighs/atom = 56.2542
Neighbor list builds = 30000
Dangerous builds not checked
Setting up Verlet run ...
  Unit style    : metal
  Current step  : 40000
  Time step     : 0.001
Per MPI rank memory allocation (min/avg/max) = 11.29 | 11.29 | 11.29 Mbytes
Step Temp Press TotEng PotEng Enthalpy 
   40000    2467.6856    496.86951   -50574.434    -56842.58   -50436.259 
   40495    2401.4167    5.0937581   -50829.454   -56929.271    -50828.04 
Loop time of 60.5566 on 2 procs for 495 steps with 19652 atoms

Performance: 0.706 ns/day, 33.982 hours/ns, 8.174 timesteps/s
78.8% CPU use with 2 MPI tasks x no OpenMP threads

MPI task timing breakdown:
Section |  min time  |  avg time  |  max time  |%varavg| %total
---------------------------------------------------------------
Pair    | 32.251     | 32.675     | 33.1       |   7.4 | 53.96
Neigh   | 22.119     | 23.263     | 24.408     |  23.7 | 38.42
Comm    | 3.121      | 3.8483     | 4.5757     |  37.1 |  6.35
Output  | 9.7036e-05 | 0.00013757 | 0.0001781  |   0.0 |  0.00
Modify  | 0.61465    | 0.62431    | 0.63397    |   1.2 |  1.03
Other   |            | 0.145      |            |       |  0.24

Nlocal:    9826 ave 9830 max 9822 min
Histogram: 1 0 0 0 0 0 0 0 0 1
Nghost:    11384 ave 11386 max 11382 min
Histogram: 1 0 0 0 0 0 0 0 0 1
Neighs:    553782 ave 559286 max 548278 min
Histogram: 1 0 0 0 0 0 0 0 0 1

Total # of neighbors = 1107564
Ave neighs/atom = 56.3588
Neighbor list builds = 495
Dangerous builds not checked
Setting up Verlet run ...
  Unit style    : metal
  Current step  : 40495
  Time step     : 0.001
Per MPI rank memory allocation (min/avg/max) = 11.29 | 11.29 | 11.29 Mbytes
Step Temp Press TotEng PotEng Enthalpy 
   40495    2401.4167    5.0937581   -50829.454   -56929.271    -50828.04 
   50000    2408.3168   -288.15741   -50846.483   -56963.828   -50926.356 
Loop time of 1295.41 on 2 procs for 9505 steps with 19652 atoms

Performance: 0.634 ns/day, 37.857 hours/ns, 7.337 timesteps/s
76.0% CPU use with 2 MPI tasks x no OpenMP threads

MPI task timing breakdown:
Section |  min time  |  avg time  |  max time  |%varavg| %total
---------------------------------------------------------------
Pair    | 688.84     | 693.92     | 699        |  19.3 | 53.57
Neigh   | 468.33     | 478.76     | 489.19     |  47.7 | 36.96
Comm    | 98.486     | 103.93     | 109.37     |  53.4 |  8.02
Output  | 0.050389   | 0.050411   | 0.050434   |   0.0 |  0.00
Modify  | 15.667     | 15.762     | 15.857     |   2.4 |  1.22
Other   |            | 2.98       |            |       |  0.23

Nlocal:    9826 ave 9830 max 9822 min
Histogram: 1 0 0 0 0 0 0 0 0 1
Nghost:    11415.5 ave 11422 max 11409 min
Histogram: 1 0 0 0 0 0 0 0 0 1
Neighs:    554664 ave 561139 max 548189 min
Histogram: 1 0 0 0 0 0 0 0 0 1

Total # of neighbors = 1109328
Ave neighs/atom = 56.4486
Neighbor list builds = 9505
Dangerous builds not checked
Setting up Verlet run ...
  Unit style    : metal
  Current step  : 50000
  Time step     : 0.001
Per MPI rank memory allocation (min/avg/max) = 11.3 | 11.3 | 11.3 Mbytes
Step Temp Press TotEng PotEng Enthalpy 
   50000    2408.3168   -288.15741   -50846.483   -56963.828   -50926.356 
   50495    2363.1852   -177.75674   -51066.466   -57069.172   -51115.513 
Loop time of 65.9471 on 2 procs for 495 steps with 19652 atoms

Performance: 0.649 ns/day, 37.007 hours/ns, 7.506 timesteps/s
75.1% CPU use with 2 MPI tasks x no OpenMP threads

MPI task timing breakdown:
Section |  min time  |  avg time  |  max time  |%varavg| %total
---------------------------------------------------------------
Pair    | 34.973     | 35.429     | 35.886     |   7.7 | 53.72
Neigh   | 24.062     | 24.923     | 25.784     |  17.2 | 37.79
Comm    | 4.3356     | 4.7526     | 5.1696     |  19.1 |  7.21
Output  | 0.00010109 | 0.00014961 | 0.00019813 |   0.0 |  0.00
Modify  | 0.69367    | 0.70558    | 0.71749    |   1.4 |  1.07
Other   |            | 0.1363     |            |       |  0.21

Nlocal:    9826 ave 9873 max 9779 min
Histogram: 1 0 0 0 0 0 0 0 0 1
Nghost:    11403.5 ave 11468 max 11339 min
Histogram: 1 0 0 0 0 0 0 0 0 1
Neighs:    557322 ave 559399 max 555246 min
Histogram: 1 0 0 0 0 0 0 0 0 1

Total # of neighbors = 1114645
Ave neighs/atom = 56.7192
Neighbor list builds = 495
Dangerous builds not checked
Setting up Verlet run ...
  Unit style    : metal
  Current step  : 50495
  Time step     : 0.001
Per MPI rank memory allocation (min/avg/max) = 11.3 | 11.3 | 11.3 Mbytes
Step Temp Press TotEng PotEng Enthalpy 
   50495    2363.1852   -177.75674   -51066.466   -57069.172   -51115.513 
   60000    2349.5214   -637.80651   -51195.281   -57163.279   -51370.909 
Loop time of 1347.06 on 2 procs for 9505 steps with 19652 atoms

Performance: 0.610 ns/day, 39.367 hours/ns, 7.056 timesteps/s
75.4% CPU use with 2 MPI tasks x no OpenMP threads

MPI task timing breakdown:
Section |  min time  |  avg time  |  max time  |%varavg| %total
---------------------------------------------------------------
Pair    | 725.85     | 731.75     | 737.66     |  21.8 | 54.32
Neigh   | 488.06     | 495.77     | 503.49     |  34.7 | 36.80
Comm    | 98.628     | 100.52     | 102.41     |  18.9 |  7.46
Output  | 0.099023   | 0.099053   | 0.099084   |   0.0 |  0.01
Modify  | 15.67      | 15.836     | 16.002     |   4.2 |  1.18
Other   |            | 3.082      |            |       |  0.23

Nlocal:    9826 ave 9834 max 9818 min
Histogram: 1 0 0 0 0 0 0 0 0 1
Nghost:    11431.5 ave 11458 max 11405 min
Histogram: 1 0 0 0 0 0 0 0 0 1
Neighs:    558706 ave 564931 max 552480 min
Histogram: 1 0 0 0 0 0 0 0 0 1

Total # of neighbors = 1117411
Ave neighs/atom = 56.8599
Neighbor list builds = 9505
Dangerous builds not checked
Setting up Verlet run ...
  Unit style    : metal
  Current step  : 60000
  Time step     : 0.001
Per MPI rank memory allocation (min/avg/max) = 11.31 | 11.31 | 11.31 Mbytes
Step Temp Press TotEng PotEng Enthalpy 
   60000    2349.5214   -637.80651   -51195.281   -57163.279   -51370.909 
   60495    2307.6962    295.58483   -51407.112   -57268.871   -51326.301 
Loop time of 70.4277 on 2 procs for 495 steps with 19652 atoms

Performance: 0.607 ns/day, 39.522 hours/ns, 7.028 timesteps/s
71.6% CPU use with 2 MPI tasks x no OpenMP threads

MPI task timing breakdown:
Section |  min time  |  avg time  |  max time  |%varavg| %total
---------------------------------------------------------------
Pair    | 38.003     | 38.331     | 38.658     |   5.3 | 54.43
Neigh   | 25.251     | 25.632     | 26.013     |   7.5 | 36.40
Comm    | 5.4911     | 5.5432     | 5.5953     |   2.2 |  7.87
Output  | 8.4162e-05 | 0.00011063 | 0.00013709 |   0.0 |  0.00
Modify  | 0.77446    | 0.77891    | 0.78336    |   0.5 |  1.11
Other   |            | 0.1427     |            |       |  0.20

Nlocal:    9826 ave 9845 max 9807 min
Histogram: 1 0 0 0 0 0 0 0 0 1
Nghost:    11482 ave 11495 max 11469 min
Histogram: 1 0 0 0 0 0 0 0 0 1
Neighs:    562548 ave 569980 max 555117 min
Histogram: 1 0 0 0 0 0 0 0 0 1

Total # of neighbors = 1125097
Ave neighs/atom = 57.251
Neighbor list builds = 495
Dangerous builds not checked
Setting up Verlet run ...
  Unit style    : metal
  Current step  : 60495
  Time step     : 0.001
Per MPI rank memory allocation (min/avg/max) = 11.31 | 11.31 | 11.31 Mbytes
Step Temp Press TotEng PotEng Enthalpy 
   60495    2307.6962    295.58483   -51407.112   -57268.871   -51326.301 
   70000    2297.3274   -620.30031   -51407.557   -57242.978   -51577.747 
Loop time of 1354.81 on 2 procs for 9505 steps with 19652 atoms

Performance: 0.606 ns/day, 39.594 hours/ns, 7.016 timesteps/s
76.3% CPU use with 2 MPI tasks x no OpenMP threads

MPI task timing breakdown:
Section |  min time  |  avg time  |  max time  |%varavg| %total
---------------------------------------------------------------
Pair    | 727.94     | 733.16     | 738.38     |  19.3 | 54.12
Neigh   | 487.98     | 496.2      | 504.43     |  36.9 | 36.63
Comm    | 102.21     | 105.1      | 107.98     |  28.1 |  7.76
Output  | 1.2142     | 1.2143     | 1.2143     |   0.0 |  0.09
Modify  | 15.956     | 15.997     | 16.038     |   1.0 |  1.18
Other   |            | 3.141      |            |       |  0.23

Nlocal:    9826 ave 9834 max 9818 min
Histogram: 1 0 0 0 0 0 0 0 0 1
Nghost:    11446 ave 11446 max 11446 min
Histogram: 2 0 0 0 0 0 0 0 0 0
Neighs:    560442 ave 566381 max 554504 min
Histogram: 1 0 0 0 0 0 0 0 0 1

Total # of neighbors = 1120885
Ave neighs/atom = 57.0367
Neighbor list builds = 9505
Dangerous builds not checked
Setting up Verlet run ...
  Unit style    : metal
  Current step  : 70000
  Time step     : 0.001
Per MPI rank memory allocation (min/avg/max) = 11.32 | 11.32 | 11.32 Mbytes
Step Temp Press TotEng PotEng Enthalpy 
   70000    2297.3274   -620.30031   -51407.557   -57242.978   -51577.747 
   70495     2264.569    212.05974   -51675.864   -57428.075    -51618.21 
Loop time of 72.7688 on 2 procs for 495 steps with 19652 atoms

Performance: 0.588 ns/day, 40.835 hours/ns, 6.802 timesteps/s
74.9% CPU use with 2 MPI tasks x no OpenMP threads

MPI task timing breakdown:
Section |  min time  |  avg time  |  max time  |%varavg| %total
---------------------------------------------------------------
Pair    | 38.697     | 39.597     | 40.497     |  14.3 | 54.41
Neigh   | 24.724     | 26.677     | 28.631     |  37.8 | 36.66
Comm    | 4.3488     | 5.4168     | 6.4848     |  45.9 |  7.44
Output  | 0.00012493 | 0.00015748 | 0.00019002 |   0.0 |  0.00
Modify  | 0.90248    | 0.90779    | 0.9131     |   0.6 |  1.25
Other   |            | 0.1698     |            |       |  0.23

Nlocal:    9826 ave 9835 max 9817 min
Histogram: 1 0 0 0 0 0 0 0 0 1
Nghost:    11503.5 ave 11507 max 11500 min
Histogram: 1 0 0 0 0 0 0 0 0 1
Neighs:    565882 ave 572515 max 559249 min
Histogram: 1 0 0 0 0 0 0 0 0 1

Total # of neighbors = 1131764
Ave neighs/atom = 57.5903
Neighbor list builds = 495
Dangerous builds not checked
Setting up Verlet run ...
  Unit style    : metal
  Current step  : 70495
  Time step     : 0.001
Per MPI rank memory allocation (min/avg/max) = 11.32 | 11.32 | 11.32 Mbytes
Step Temp Press TotEng PotEng Enthalpy 
   70495     2264.569    212.05974   -51675.864   -57428.075    -51618.21 
   80000    2235.1031   -65.006335   -51738.268   -57415.634   -51755.962 
Loop time of 1421.2 on 2 procs for 9505 steps with 19652 atoms

Performance: 0.578 ns/day, 41.534 hours/ns, 6.688 timesteps/s
75.7% CPU use with 2 MPI tasks x no OpenMP threads

MPI task timing breakdown:
Section |  min time  |  avg time  |  max time  |%varavg| %total
---------------------------------------------------------------
Pair    | 769.09     | 777.59     | 786.1      |  30.5 | 54.71
Neigh   | 492.01     | 509.45     | 526.9      |  77.3 | 35.85
Comm    | 106.02     | 115.06     | 124.1      |  84.3 |  8.10
Output  | 0.079521   | 0.079539   | 0.079558   |   0.0 |  0.01
Modify  | 15.801     | 15.815     | 15.828     |   0.3 |  1.11
Other   |            | 3.198      |            |       |  0.23

Nlocal:    9826 ave 9828 max 9824 min
Histogram: 1 0 0 0 0 0 0 0 0 1
Nghost:    11536.5 ave 11563 max 11510 min
Histogram: 1 0 0 0 0 0 0 0 0 1
Neighs:    564859 ave 569415 max 560303 min
Histogram: 1 0 0 0 0 0 0 0 0 1

Total # of neighbors = 1129718
Ave neighs/atom = 57.4862
Neighbor list builds = 9505
Dangerous builds not checked
Setting up Verlet run ...
  Unit style    : metal
  Current step  : 80000
  Time step     : 0.001
Per MPI rank memory allocation (min/avg/max) = 11.33 | 11.33 | 11.33 Mbytes
Step Temp Press TotEng PotEng Enthalpy 
   80000    2235.1031   -65.006335   -51738.268   -57415.634   -51755.962 
   80495    2196.3218    693.99569   -51949.731   -57528.589   -51761.947 
Loop time of 61.5866 on 2 procs for 495 steps with 19652 atoms

Performance: 0.694 ns/day, 34.560 hours/ns, 8.037 timesteps/s
81.8% CPU use with 2 MPI tasks x no OpenMP threads

MPI task timing breakdown:
Section |  min time  |  avg time  |  max time  |%varavg| %total
---------------------------------------------------------------
Pair    | 32.967     | 33.152     | 33.336     |   3.2 | 53.83
Neigh   | 22.286     | 22.526     | 22.767     |   5.1 | 36.58
Comm    | 5.0438     | 5.101      | 5.1582     |   2.5 |  8.28
Output  | 0.00011897 | 0.00014853 | 0.0001781  |   0.0 |  0.00
Modify  | 0.65687    | 0.66207    | 0.66727    |   0.6 |  1.08
Other   |            | 0.1454     |            |       |  0.24

Nlocal:    9826 ave 9834 max 9818 min
Histogram: 1 0 0 0 0 0 0 0 0 1
Nghost:    11549 ave 11593 max 11505 min
Histogram: 1 0 0 0 0 0 0 0 0 1
Neighs:    568260 ave 571543 max 564976 min
Histogram: 1 0 0 0 0 0 0 0 0 1

Total # of neighbors = 1136519
Ave neighs/atom = 57.8322
Neighbor list builds = 495
Dangerous builds not checked
Setting up Verlet run ...
  Unit style    : metal
  Current step  : 80495
  Time step     : 0.001
Per MPI rank memory allocation (min/avg/max) = 11.33 | 11.33 | 11.33 Mbytes
Step Temp Press TotEng PotEng Enthalpy 
   80495    2196.3218    693.99569   -51949.731   -57528.589   -51761.947 
   90000    2198.6701   -276.24681   -51986.577     -57571.4    -52061.36 
Loop time of 1041.85 on 2 procs for 9505 steps with 19652 atoms

Performance: 0.788 ns/day, 30.447 hours/ns, 9.123 timesteps/s
92.7% CPU use with 2 MPI tasks x no OpenMP threads

MPI task timing breakdown:
Section |  min time  |  avg time  |  max time  |%varavg| %total
---------------------------------------------------------------
Pair    | 558.41     | 566.91     | 575.42     |  35.7 | 54.41
Neigh   | 389.86     | 403.08     | 416.3      |  65.8 | 38.69
Comm    | 53.798     | 58.535     | 63.271     |  61.9 |  5.62
Output  | 0.039806   | 0.039843   | 0.03988    |   0.0 |  0.00
Modify  | 10.569     | 10.584     | 10.599     |   0.5 |  1.02
Other   |            | 2.695      |            |       |  0.26

Nlocal:    9826 ave 9844 max 9808 min
Histogram: 1 0 0 0 0 0 0 0 0 1
Nghost:    11506.5 ave 11512 max 11501 min
Histogram: 1 0 0 0 0 0 0 0 0 1
Neighs:    567856 ave 574354 max 561358 min
Histogram: 1 0 0 0 0 0 0 0 0 1

Total # of neighbors = 1135712
Ave neighs/atom = 57.7912
Neighbor list builds = 9505
Dangerous builds not checked
Setting up Verlet run ...
  Unit style    : metal
  Current step  : 90000
  Time step     : 0.001
Per MPI rank memory allocation (min/avg/max) = 11.33 | 11.33 | 11.33 Mbytes
Step Temp Press TotEng PotEng Enthalpy 
   90000    2198.6701   -276.24681   -51986.577     -57571.4    -52061.36 
   90495    2157.5725    555.96267   -52242.733   -57723.163   -52093.368 
Loop time of 47.6887 on 2 procs for 495 steps with 19652 atoms

Performance: 0.897 ns/day, 26.761 hours/ns, 10.380 timesteps/s
99.3% CPU use with 2 MPI tasks x no OpenMP threads

MPI task timing breakdown:
Section |  min time  |  avg time  |  max time  |%varavg| %total
---------------------------------------------------------------
Pair    | 25.646     | 25.898     | 26.15      |   4.9 | 54.31
Neigh   | 17.904     | 19.021     | 20.138     |  25.6 | 39.89
Comm    | 0.79297    | 2.1847     | 3.5765     |  94.2 |  4.58
Output  | 0.00011015 | 0.0001626  | 0.00021505 |   0.0 |  0.00
Modify  | 0.43905    | 0.45689    | 0.47472    |   2.6 |  0.96
Other   |            | 0.1281     |            |       |  0.27

Nlocal:    9826 ave 9851 max 9801 min
Histogram: 1 0 0 0 0 0 0 0 0 1
Nghost:    11587 ave 11588 max 11586 min
Histogram: 1 0 0 0 0 0 0 0 0 1
Neighs:    572664 ave 576960 max 568369 min
Histogram: 1 0 0 0 0 0 0 0 0 1

Total # of neighbors = 1145329
Ave neighs/atom = 58.2805
Neighbor list builds = 495
Dangerous builds not checked
Setting up Verlet run ...
  Unit style    : metal
  Current step  : 90495
  Time step     : 0.001
Per MPI rank memory allocation (min/avg/max) = 11.33 | 11.33 | 11.33 Mbytes
Step Temp Press TotEng PotEng Enthalpy 
   90495    2157.5725    555.96267   -52242.733   -57723.163   -52093.368 
  100000    2157.9251   -1310.5842   -52222.211   -57703.538   -52575.948 
Loop time of 937.47 on 2 procs for 9505 steps with 19652 atoms

Performance: 0.876 ns/day, 27.397 hours/ns, 10.139 timesteps/s
99.0% CPU use with 2 MPI tasks x no OpenMP threads

MPI task timing breakdown:
Section |  min time  |  avg time  |  max time  |%varavg| %total
---------------------------------------------------------------
Pair    | 501.6      | 510.16     | 518.72     |  37.9 | 54.42
Neigh   | 371.58     | 383.59     | 395.6      |  61.3 | 40.92
Comm    | 28.649     | 32.092     | 35.535     |  60.8 |  3.42
Output  | 0.41642    | 0.41645    | 0.41648    |   0.0 |  0.04
Modify  | 8.7166     | 8.7216     | 8.7266     |   0.2 |  0.93
Other   |            | 2.491      |            |       |  0.27

Nlocal:    9826 ave 9845 max 9807 min
Histogram: 1 0 0 0 0 0 0 0 0 1
Nghost:    11487.5 ave 11504 max 11471 min
Histogram: 1 0 0 0 0 0 0 0 0 1
Neighs:    569686 ave 577448 max 561924 min
Histogram: 1 0 0 0 0 0 0 0 0 1

Total # of neighbors = 1139372
Ave neighs/atom = 57.9774
Neighbor list builds = 9505
Dangerous builds not checked
Setting up Verlet run ...
  Unit style    : metal
  Current step  : 100000
  Time step     : 0.001
Per MPI rank memory allocation (min/avg/max) = 11.33 | 11.33 | 11.34 Mbytes
Step Temp Press TotEng PotEng Enthalpy 
  100000    2157.9251   -1310.5842   -52222.211   -57703.538   -52575.948 
  100495    2115.6113    683.62849   -52505.273   -57879.119   -52322.732 
Loop time of 40.5283 on 2 procs for 495 steps with 19652 atoms

Performance: 1.055 ns/day, 22.743 hours/ns, 12.214 timesteps/s
99.8% CPU use with 2 MPI tasks x no OpenMP threads

MPI task timing breakdown:
Section |  min time  |  avg time  |  max time  |%varavg| %total
---------------------------------------------------------------
Pair    | 21.392     | 21.424     | 21.455     |   0.7 | 52.86
Neigh   | 17.344     | 17.613     | 17.881     |   6.4 | 43.46
Comm    | 0.67445    | 0.91771    | 1.161      |  25.4 |  2.26
Output  | 8.9884e-05 | 0.00019646 | 0.00030303 |   0.0 |  0.00
Modify  | 0.43838    | 0.44373    | 0.44907    |   0.8 |  1.09
Other   |            | 0.1305     |            |       |  0.32

Nlocal:    9826 ave 9830 max 9822 min
Histogram: 1 0 0 0 0 0 0 0 0 1
Nghost:    11620.5 ave 11624 max 11617 min
Histogram: 1 0 0 0 0 0 0 0 0 1
Neighs:    576222 ave 582239 max 570206 min
Histogram: 1 0 0 0 0 0 0 0 0 1

Total # of neighbors = 1152445
Ave neighs/atom = 58.6426
Neighbor list builds = 495
Dangerous builds not checked
Setting up Verlet run ...
  Unit style    : metal
  Current step  : 100495
  Time step     : 0.001
Per MPI rank memory allocation (min/avg/max) = 11.33 | 11.33 | 11.34 Mbytes
Step Temp Press TotEng PotEng Enthalpy 
  100495    2115.6113    683.62849   -52505.273   -57879.119   -52322.732 
  110000    2118.6649    -118.2696    -52476.02   -57857.622    -52507.69 
Loop time of 934.318 on 2 procs for 9505 steps with 19652 atoms

Performance: 0.879 ns/day, 27.305 hours/ns, 10.173 timesteps/s
99.5% CPU use with 2 MPI tasks x no OpenMP threads

MPI task timing breakdown:
Section |  min time  |  avg time  |  max time  |%varavg| %total
---------------------------------------------------------------
Pair    | 503.14     | 509.42     | 515.71     |  27.8 | 54.52
Neigh   | 364.38     | 380.61     | 396.85     |  83.2 | 40.74
Comm    | 22.952     | 32.963     | 42.975     | 174.4 |  3.53
Output  | 0.064862   | 0.064911   | 0.06496    |   0.0 |  0.01
Modify  | 8.6818     | 8.7376     | 8.7934     |   1.9 |  0.94
Other   |            | 2.514      |            |       |  0.27

Nlocal:    9826 ave 9843 max 9809 min
Histogram: 1 0 0 0 0 0 0 0 0 1
Nghost:    11598 ave 11602 max 11594 min
Histogram: 1 0 0 0 0 0 0 0 0 1
Neighs:    574316 ave 582184 max 566447 min
Histogram: 1 0 0 0 0 0 0 0 0 1

Total # of neighbors = 1148631
Ave neighs/atom = 58.4486
Neighbor list builds = 9505
Dangerous builds not checked
Setting up Verlet run ...
  Unit style    : metal
  Current step  : 110000
  Time step     : 0.001
Per MPI rank memory allocation (min/avg/max) = 11.34 | 11.34 | 11.34 Mbytes
Step Temp Press TotEng PotEng Enthalpy 
  110000    2118.6649    -118.2696    -52476.02   -57857.622    -52507.69 
  110495    2073.2551    19.587013   -52735.012   -58001.269   -52729.801 
Loop time of 44.5274 on 2 procs for 495 steps with 19652 atoms

Performance: 0.960 ns/day, 24.987 hours/ns, 11.117 timesteps/s
99.9% CPU use with 2 MPI tasks x no OpenMP threads

MPI task timing breakdown:
Section |  min time  |  avg time  |  max time  |%varavg| %total
---------------------------------------------------------------
Pair    | 23.904     | 23.937     | 23.971     |   0.7 | 53.76
Neigh   | 18.088     | 18.532     | 18.975     |  10.3 | 41.62
Comm    | 1.0653     | 1.4861     | 1.9069     |  34.5 |  3.34
Output  | 0.00010419 | 0.00017309 | 0.00024199 |   0.0 |  0.00
Modify  | 0.43458    | 0.44393    | 0.45328    |   1.4 |  1.00
Other   |            | 0.128      |            |       |  0.29

Nlocal:    9826 ave 9830 max 9822 min
Histogram: 1 0 0 0 0 0 0 0 0 1
Nghost:    11641 ave 11647 max 11635 min
Histogram: 1 0 0 0 0 0 0 0 0 1
Neighs:    578292 ave 583898 max 572685 min
Histogram: 1 0 0 0 0 0 0 0 0 1

Total # of neighbors = 1156583
Ave neighs/atom = 58.8532
Neighbor list builds = 495
Dangerous builds not checked
Setting up Verlet run ...
  Unit style    : metal
  Current step  : 110495
  Time step     : 0.001
Per MPI rank memory allocation (min/avg/max) = 11.34 | 11.34 | 11.34 Mbytes
Step Temp Press TotEng PotEng Enthalpy 
  110495    2073.2551    19.587013   -52735.012   -58001.269   -52729.801 
  120000    2051.1466    106.24877   -52823.995   -58034.094   -52795.776 
Loop time of 907.172 on 2 procs for 9505 steps with 19652 atoms

Performance: 0.905 ns/day, 26.512 hours/ns, 10.478 timesteps/s
98.6% CPU use with 2 MPI tasks x no OpenMP threads

MPI task timing breakdown:
Section |  min time  |  avg time  |  max time  |%varavg| %total
---------------------------------------------------------------
Pair    | 486.2      | 491        | 495.8      |  21.7 | 54.12
Neigh   | 355.36     | 365.37     | 375.37     |  52.3 | 40.28
Comm    | 34.062     | 39.309     | 44.556     |  83.7 |  4.33
Output  | 0.037397   | 0.037423   | 0.037449   |   0.0 |  0.00
Modify  | 9.0636     | 9.1046     | 9.1455     |   1.4 |  1.00
Other   |            | 2.358      |            |       |  0.26

Nlocal:    9826 ave 9827 max 9825 min
Histogram: 1 0 0 0 0 0 0 0 0 1
Nghost:    11655 ave 11660 max 11650 min
Histogram: 1 0 0 0 0 0 0 0 0 1
Neighs:    579166 ave 585716 max 572617 min
Histogram: 1 0 0 0 0 0 0 0 0 1

Total # of neighbors = 1158333
Ave neighs/atom = 58.9422
Neighbor list builds = 9505
Dangerous builds not checked
Setting up Verlet run ...
  Unit style    : metal
  Current step  : 120000
  Time step     : 0.001
Per MPI rank memory allocation (min/avg/max) = 11.34 | 11.34 | 11.34 Mbytes
Step Temp Press TotEng PotEng Enthalpy 
  120000    2051.1466    106.24877   -52823.995   -58034.094   -52795.776 
  120495    2007.7708    967.55706   -53066.247   -58166.168   -52810.882 
Loop time of 44.8121 on 2 procs for 495 steps with 19652 atoms

Performance: 0.954 ns/day, 25.147 hours/ns, 11.046 timesteps/s
99.5% CPU use with 2 MPI tasks x no OpenMP threads

MPI task timing breakdown:
Section |  min time  |  avg time  |  max time  |%varavg| %total
---------------------------------------------------------------
Pair    | 23.719     | 23.967     | 24.214     |   5.1 | 53.48
Neigh   | 17.672     | 18.337     | 19.002     |  15.5 | 40.92
Comm    | 1.5283     | 1.9485     | 2.3686     |  30.1 |  4.35
Output  | 7.8917e-05 | 0.0001235  | 0.00016809 |   0.0 |  0.00
Modify  | 0.43487    | 0.43761    | 0.44036    |   0.4 |  0.98
Other   |            | 0.122      |            |       |  0.27

Nlocal:    9826 ave 9836 max 9816 min
Histogram: 1 0 0 0 0 0 0 0 0 1
Nghost:    11659 ave 11689 max 11629 min
Histogram: 1 0 0 0 0 0 0 0 0 1
Neighs:    582996 ave 589224 max 576767 min
Histogram: 1 0 0 0 0 0 0 0 0 1

Total # of neighbors = 1165991
Ave neighs/atom = 59.3319
Neighbor list builds = 495
Dangerous builds not checked
Setting up Verlet run ...
  Unit style    : metal
  Current step  : 120495
  Time step     : 0.001
Per MPI rank memory allocation (min/avg/max) = 11.34 | 11.34 | 11.34 Mbytes
Step Temp Press TotEng PotEng Enthalpy 
  120495    2007.7708    967.55706   -53066.247   -58166.168   -52810.882 
  130000    2011.7238    -100.6487   -53088.283   -58198.245   -53114.874 
Loop time of 894.569 on 2 procs for 9505 steps with 19652 atoms

Performance: 0.918 ns/day, 26.143 hours/ns, 10.625 timesteps/s
98.9% CPU use with 2 MPI tasks x no OpenMP threads

MPI task timing breakdown:
Section |  min time  |  avg time  |  max time  |%varavg| %total
---------------------------------------------------------------
Pair    | 479.92     | 483.87     | 487.81     |  17.9 | 54.09
Neigh   | 355.21     | 364.68     | 374.14     |  49.6 | 40.77
Comm    | 29.658     | 35.227     | 40.796     |  93.8 |  3.94
Output  | 0.037433   | 0.037469   | 0.037504   |   0.0 |  0.00
Modify  | 8.3623     | 8.4076     | 8.4528     |   1.6 |  0.94
Other   |            | 2.353      |            |       |  0.26

Nlocal:    9826 ave 9840 max 9812 min
Histogram: 1 0 0 0 0 0 0 0 0 1
Nghost:    11702 ave 11713 max 11691 min
Histogram: 1 0 0 0 0 0 0 0 0 1
Neighs:    582158 ave 586880 max 577437 min
Histogram: 1 0 0 0 0 0 0 0 0 1

Total # of neighbors = 1164317
Ave neighs/atom = 59.2467
Neighbor list builds = 9505
Dangerous builds not checked
Setting up Verlet run ...
  Unit style    : metal
  Current step  : 130000
  Time step     : 0.001
Per MPI rank memory allocation (min/avg/max) = 11.34 | 11.34 | 11.34 Mbytes
Step Temp Press TotEng PotEng Enthalpy 
  130000    2011.7238    -100.6487   -53088.283   -58198.245   -53114.874 
  130495    1974.0247   -448.53232   -53305.221   -58319.424   -53423.232 
Loop time of 44.4937 on 2 procs for 495 steps with 19652 atoms

Performance: 0.961 ns/day, 24.968 hours/ns, 11.125 timesteps/s
99.1% CPU use with 2 MPI tasks x no OpenMP threads

MPI task timing breakdown:
Section |  min time  |  avg time  |  max time  |%varavg| %total
---------------------------------------------------------------
Pair    | 23.302     | 23.65      | 23.997     |   7.1 | 53.15
Neigh   | 18.013     | 18.291     | 18.568     |   6.5 | 41.11
Comm    | 1.9179     | 1.9916     | 2.0652     |   5.2 |  4.48
Output  | 0.00012016 | 0.00017905 | 0.00023794 |   0.0 |  0.00
Modify  | 0.43658    | 0.43914    | 0.4417     |   0.4 |  0.99
Other   |            | 0.1226     |            |       |  0.28

Nlocal:    9826 ave 9854 max 9798 min
Histogram: 1 0 0 0 0 0 0 0 0 1
Nghost:    11659.5 ave 11671 max 11648 min
Histogram: 1 0 0 0 0 0 0 0 0 1
Neighs:    584804 ave 593894 max 575715 min
Histogram: 1 0 0 0 0 0 0 0 0 1

Total # of neighbors = 1169609
Ave neighs/atom = 59.516
Neighbor list builds = 495
Dangerous builds not checked
Setting up Verlet run ...
  Unit style    : metal
  Current step  : 130495
  Time step     : 0.001
Per MPI rank memory allocation (min/avg/max) = 11.34 | 11.34 | 11.34 Mbytes
Step Temp Press TotEng PotEng Enthalpy 
  130495    1974.0247   -448.53232   -53305.221   -58319.424   -53423.232 
  140000    1949.5934   -528.88473   -53369.391   -58321.536   -53508.531 
Loop time of 910.485 on 2 procs for 9505 steps with 19652 atoms

Performance: 0.902 ns/day, 26.608 hours/ns, 10.439 timesteps/s
98.3% CPU use with 2 MPI tasks x no OpenMP threads

MPI task timing breakdown:
Section |  min time  |  avg time  |  max time  |%varavg| %total
---------------------------------------------------------------
Pair    | 484.33     | 490.43     | 496.53     |  27.5 | 53.87
Neigh   | 354.03     | 365.39     | 376.76     |  59.4 | 40.13
Comm    | 38.21      | 43.057     | 47.904     |  73.9 |  4.73
Output  | 0.0383     | 0.03841    | 0.038519   |   0.1 |  0.00
Modify  | 8.8047     | 9.2173     | 9.6299     |  13.6 |  1.01
Other   |            | 2.344      |            |       |  0.26

Nlocal:    9826 ave 9837 max 9815 min
Histogram: 1 0 0 0 0 0 0 0 0 1
Nghost:    11654.5 ave 11664 max 11645 min
Histogram: 1 0 0 0 0 0 0 0 0 1
Neighs:    584706 ave 590824 max 578587 min
Histogram: 1 0 0 0 0 0 0 0 0 1

Total # of neighbors = 1169411
Ave neighs/atom = 59.506
Neighbor list builds = 9505
Dangerous builds not checked
Setting up Verlet run ...
  Unit style    : metal
  Current step  : 140000
  Time step     : 0.001
Per MPI rank memory allocation (min/avg/max) = 11.34 | 11.34 | 11.34 Mbytes
Step Temp Press TotEng PotEng Enthalpy 
  140000    1949.5934   -528.88473   -53369.391   -58321.536   -53508.531 
  140495    1906.2705    18.408671   -53577.608   -58419.708    -53572.79 
Loop time of 43.6112 on 2 procs for 495 steps with 19652 atoms

Performance: 0.981 ns/day, 24.473 hours/ns, 11.350 timesteps/s
99.9% CPU use with 2 MPI tasks x no OpenMP threads

MPI task timing breakdown:
Section |  min time  |  avg time  |  max time  |%varavg| %total
---------------------------------------------------------------
Pair    | 23.188     | 23.535     | 23.882     |   7.2 | 53.97
Neigh   | 17.744     | 18.217     | 18.691     |  11.1 | 41.77
Comm    | 1.1777     | 1.3076     | 1.4375     |  11.4 |  3.00
Output  | 8.1062e-05 | 0.00018954 | 0.00029802 |   0.0 |  0.00
Modify  | 0.42581    | 0.42866    | 0.43152    |   0.4 |  0.98
Other   |            | 0.1222     |            |       |  0.28

Nlocal:    9826 ave 9826 max 9826 min
Histogram: 2 0 0 0 0 0 0 0 0 0
Nghost:    11651.5 ave 11653 max 11650 min
Histogram: 1 0 0 0 0 0 0 0 0 1
Neighs:    587801 ave 593563 max 582039 min
Histogram: 1 0 0 0 0 0 0 0 0 1

Total # of neighbors = 1175602
Ave neighs/atom = 59.821
Neighbor list builds = 495
Dangerous builds not checked
Setting up Verlet run ...
  Unit style    : metal
  Current step  : 140495
  Time step     : 0.001
Per MPI rank memory allocation (min/avg/max) = 11.34 | 11.34 | 11.34 Mbytes
Step Temp Press TotEng PotEng Enthalpy 
  140495    1906.2705    18.408671   -53577.608   -58419.708    -53572.79 
  150000    1904.0347    68.637656   -53669.653   -58506.074   -53651.736 
Loop time of 889.129 on 2 procs for 9505 steps with 19652 atoms

Performance: 0.924 ns/day, 25.984 hours/ns, 10.690 timesteps/s
99.2% CPU use with 2 MPI tasks x no OpenMP threads

MPI task timing breakdown:
Section |  min time  |  avg time  |  max time  |%varavg| %total
---------------------------------------------------------------
Pair    | 480.12     | 482.63     | 485.15     |  11.4 | 54.28
Neigh   | 350.9      | 361.55     | 372.19     |  56.0 | 40.66
Comm    | 26.129     | 34.307     | 42.485     | 139.6 |  3.86
Output  | 0.03602    | 0.036138   | 0.036257   |   0.1 |  0.00
Modify  | 8.2405     | 8.2857     | 8.3309     |   1.6 |  0.93
Other   |            | 2.32       |            |       |  0.26

Nlocal:    9826 ave 9842 max 9810 min
Histogram: 1 0 0 0 0 0 0 0 0 1
Nghost:    11683.5 ave 11713 max 11654 min
Histogram: 1 0 0 0 0 0 0 0 0 1
Neighs:    589370 ave 595988 max 582752 min
Histogram: 1 0 0 0 0 0 0 0 0 1

Total # of neighbors = 1178740
Ave neighs/atom = 59.9807
Neighbor list builds = 9505
Dangerous builds not checked
Setting up Verlet run ...
  Unit style    : metal
  Current step  : 150000
  Time step     : 0.001
Per MPI rank memory allocation (min/avg/max) = 11.35 | 11.35 | 11.35 Mbytes
Step Temp Press TotEng PotEng Enthalpy 
  150000    1904.0347    68.637656   -53669.653   -58506.074   -53651.736 
  150495    1868.1125    230.53588   -53839.412   -58584.587   -53779.454 
Loop time of 43.8945 on 2 procs for 495 steps with 19652 atoms

Performance: 0.974 ns/day, 24.632 hours/ns, 11.277 timesteps/s
100.0% CPU use with 2 MPI tasks x no OpenMP threads

MPI task timing breakdown:
Section |  min time  |  avg time  |  max time  |%varavg| %total
---------------------------------------------------------------
Pair    | 23.347     | 23.55      | 23.754     |   4.2 | 53.65
Neigh   | 17.601     | 18.011     | 18.422     |   9.7 | 41.03
Comm    | 1.5781     | 1.7863     | 1.9945     |  15.6 |  4.07
Output  | 9.2983e-05 | 0.00013399 | 0.000175   |   0.0 |  0.00
Modify  | 0.42591    | 0.42749    | 0.42908    |   0.2 |  0.97
Other   |            | 0.119      |            |       |  0.27

Nlocal:    9826 ave 9843 max 9809 min
Histogram: 1 0 0 0 0 0 0 0 0 1
Nghost:    11777.5 ave 11790 max 11765 min
Histogram: 1 0 0 0 0 0 0 0 0 1
Neighs:    591915 ave 595120 max 588710 min
Histogram: 1 0 0 0 0 0 0 0 0 1

Total # of neighbors = 1183830
Ave neighs/atom = 60.2397
Neighbor list builds = 495
Dangerous builds not checked
Setting up Verlet run ...
  Unit style    : metal
  Current step  : 150495
  Time step     : 0.001
Per MPI rank memory allocation (min/avg/max) = 11.35 | 11.35 | 11.35 Mbytes
Step Temp Press TotEng PotEng Enthalpy 
  150495    1868.1125    230.53588   -53839.412   -58584.587   -53779.454 
  160000      1852.85    301.08376   -53998.793   -58705.201   -53920.852 
Loop time of 848.803 on 2 procs for 9505 steps with 19652 atoms

Performance: 0.968 ns/day, 24.806 hours/ns, 11.198 timesteps/s
98.7% CPU use with 2 MPI tasks x no OpenMP threads

MPI task timing breakdown:
Section |  min time  |  avg time  |  max time  |%varavg| %total
---------------------------------------------------------------
Pair    | 454.04     | 457.71     | 461.38     |  17.2 | 53.92
Neigh   | 330.49     | 339.58     | 348.67     |  49.3 | 40.01
Comm    | 36.033     | 41.484     | 46.935     |  84.6 |  4.89
Output  | 0.036105   | 0.03614    | 0.036175   |   0.0 |  0.00
Modify  | 7.7932     | 7.8142     | 7.8353     |   0.8 |  0.92
Other   |            | 2.176      |            |       |  0.26

Nlocal:    9826 ave 9826 max 9826 min
Histogram: 2 0 0 0 0 0 0 0 0 0
Nghost:    11774 ave 11775 max 11773 min
Histogram: 1 0 0 0 0 0 0 0 0 1
Neighs:    594562 ave 600539 max 588586 min
Histogram: 1 0 0 0 0 0 0 0 0 1

Total # of neighbors = 1189125
Ave neighs/atom = 60.5091
Neighbor list builds = 9505
Dangerous builds not checked
Setting up Verlet run ...
  Unit style    : metal
  Current step  : 160000
  Time step     : 0.001
Per MPI rank memory allocation (min/avg/max) = 11.35 | 11.35 | 11.35 Mbytes
Step Temp Press TotEng PotEng Enthalpy 
  160000      1852.85    301.08376   -53998.793   -58705.201   -53920.852 
  160495    1815.1462    30.906516   -54162.377   -58773.014   -54154.385 
Loop time of 40.2057 on 2 procs for 495 steps with 19652 atoms

Performance: 1.064 ns/day, 22.562 hours/ns, 12.312 timesteps/s
99.8% CPU use with 2 MPI tasks x no OpenMP threads

MPI task timing breakdown:
Section |  min time  |  avg time  |  max time  |%varavg| %total
---------------------------------------------------------------
Pair    | 20.925     | 21.24      | 21.556     |   6.8 | 52.83
Neigh   | 16.563     | 16.885     | 17.207     |   7.8 | 42.00
Comm    | 1.5639     | 1.5698     | 1.5757     |   0.5 |  3.90
Output  | 8.2016e-05 | 0.00011349 | 0.00014496 |   0.0 |  0.00
Modify  | 0.3888     | 0.39894    | 0.40907    |   1.6 |  0.99
Other   |            | 0.1112     |            |       |  0.28

Nlocal:    9826 ave 9830 max 9822 min
Histogram: 1 0 0 0 0 0 0 0 0 1
Nghost:    11794.5 ave 11804 max 11785 min
Histogram: 1 0 0 0 0 0 0 0 0 1
Neighs:    595057 ave 600843 max 589271 min
Histogram: 1 0 0 0 0 0 0 0 0 1

Total # of neighbors = 1190114
Ave neighs/atom = 60.5594
Neighbor list builds = 495
Dangerous builds not checked
Setting up Verlet run ...
  Unit style    : metal
  Current step  : 160495
  Time step     : 0.001
Per MPI rank memory allocation (min/avg/max) = 11.35 | 11.35 | 11.35 Mbytes
Step Temp Press TotEng PotEng Enthalpy 
  160495    1815.1462    30.906516   -54162.377   -58773.014   -54154.385 
  170000    1796.8344   -674.91967   -54209.405   -58773.528    -54384.22 
Loop time of 873.869 on 2 procs for 9505 steps with 19652 atoms

Performance: 0.940 ns/day, 25.538 hours/ns, 10.877 timesteps/s
99.4% CPU use with 2 MPI tasks x no OpenMP threads

MPI task timing breakdown:
Section |  min time  |  avg time  |  max time  |%varavg| %total
---------------------------------------------------------------
Pair    | 473.12     | 476.92     | 480.72     |  17.4 | 54.58
Neigh   | 338.86     | 345.98     | 353.11     |  38.3 | 39.59
Comm    | 37.257     | 40.55      | 43.844     |  51.7 |  4.64
Output  | 0.036824   | 0.03685    | 0.036877   |   0.0 |  0.00
Modify  | 8.0996     | 8.1159     | 8.1322     |   0.6 |  0.93
Other   |            | 2.264      |            |       |  0.26

Nlocal:    9826 ave 9838 max 9814 min
Histogram: 1 0 0 0 0 0 0 0 0 1
Nghost:    11730.5 ave 11751 max 11710 min
Histogram: 1 0 0 0 0 0 0 0 0 1
Neighs:    594080 ave 598559 max 589601 min
Histogram: 1 0 0 0 0 0 0 0 0 1

Total # of neighbors = 1188160
Ave neighs/atom = 60.46
Neighbor list builds = 9505
Dangerous builds not checked
Setting up Verlet run ...
  Unit style    : metal
  Current step  : 170000
  Time step     : 0.001
Per MPI rank memory allocation (min/avg/max) = 11.35 | 11.35 | 11.35 Mbytes
Step Temp Press TotEng PotEng Enthalpy 
  170000    1796.8344   -674.91967   -54209.405   -58773.528    -54384.22 
  170495    1759.6181    395.33292   -54442.637   -58912.227   -54341.086 
Loop time of 44.7015 on 2 procs for 495 steps with 19652 atoms

Performance: 0.957 ns/day, 25.085 hours/ns, 11.073 timesteps/s
99.9% CPU use with 2 MPI tasks x no OpenMP threads

MPI task timing breakdown:
Section |  min time  |  avg time  |  max time  |%varavg| %total
---------------------------------------------------------------
Pair    | 24.004     | 24.36      | 24.717     |   7.2 | 54.50
Neigh   | 16.266     | 17.593     | 18.921     |  31.6 | 39.36
Comm    | 1.2229     | 2.2072     | 3.1915     |  66.3 |  4.94
Output  | 0.00012803 | 0.00017798 | 0.00022793 |   0.0 |  0.00
Modify  | 0.41254    | 0.42185    | 0.43116    |   1.4 |  0.94
Other   |            | 0.1189     |            |       |  0.27

Nlocal:    9826 ave 9827 max 9825 min
Histogram: 1 0 0 0 0 0 0 0 0 1
Nghost:    11803.5 ave 11831 max 11776 min
Histogram: 1 0 0 0 0 0 0 0 0 1
Neighs:    599296 ave 604853 max 593738 min
Histogram: 1 0 0 0 0 0 0 0 0 1

Total # of neighbors = 1198591
Ave neighs/atom = 60.9908
Neighbor list builds = 495
Dangerous builds not checked
Setting up Verlet run ...
  Unit style    : metal
  Current step  : 170495
  Time step     : 0.001
Per MPI rank memory allocation (min/avg/max) = 11.35 | 11.35 | 11.35 Mbytes
Step Temp Press TotEng PotEng Enthalpy 
  170495    1759.6181    395.33292   -54442.637   -58912.227   -54341.086 
  180000    1743.5599    -840.1892   -54538.683   -58967.484   -54754.781 
Loop time of 833.021 on 2 procs for 9505 steps with 19652 atoms

Performance: 0.986 ns/day, 24.345 hours/ns, 11.410 timesteps/s
98.7% CPU use with 2 MPI tasks x no OpenMP threads

MPI task timing breakdown:
Section |  min time  |  avg time  |  max time  |%varavg| %total
---------------------------------------------------------------
Pair    | 443.9      | 447.74     | 451.59     |  18.2 | 53.75
Neigh   | 321.77     | 329.75     | 337.72     |  43.9 | 39.58
Comm    | 41.109     | 45.181     | 49.253     |  60.6 |  5.42
Output  | 0.037974   | 0.038017   | 0.038059   |   0.0 |  0.00
Modify  | 8.142      | 8.2002     | 8.2584     |   2.0 |  0.98
Other   |            | 2.113      |            |       |  0.25

Nlocal:    9826 ave 9860 max 9792 min
Histogram: 1 0 0 0 0 0 0 0 0 1
Nghost:    11737 ave 11782 max 11692 min
Histogram: 1 0 0 0 0 0 0 0 0 1
Neighs:    598481 ave 601165 max 595797 min
Histogram: 1 0 0 0 0 0 0 0 0 1

Total # of neighbors = 1196962
Ave neighs/atom = 60.9079
Neighbor list builds = 9505
Dangerous builds not checked
Setting up Verlet run ...
  Unit style    : metal
  Current step  : 180000
  Time step     : 0.001
Per MPI rank memory allocation (min/avg/max) = 11.35 | 11.35 | 11.35 Mbytes
Step Temp Press TotEng PotEng Enthalpy 
  180000    1743.5599    -840.1892   -54538.683   -58967.484   -54754.781 
  180495    1698.2221   -72.165246   -54712.564   -59026.203   -54731.039 
Loop time of 47.1768 on 2 procs for 495 steps with 19652 atoms

Performance: 0.907 ns/day, 26.474 hours/ns, 10.492 timesteps/s
94.6% CPU use with 2 MPI tasks x no OpenMP threads

MPI task timing breakdown:
Section |  min time  |  avg time  |  max time  |%varavg| %total
---------------------------------------------------------------
Pair    | 23.953     | 24.069     | 24.185     |   2.4 | 51.02
Neigh   | 17.358     | 17.681     | 18.004     |   7.7 | 37.48
Comm    | 4.6882     | 4.8981     | 5.1079     |   9.5 | 10.38
Output  | 0.00010085 | 0.00015032 | 0.00019979 |   0.0 |  0.00
Modify  | 0.41146    | 0.41434    | 0.41722    |   0.4 |  0.88
Other   |            | 0.1144     |            |       |  0.24

Nlocal:    9826 ave 9846 max 9806 min
Histogram: 1 0 0 0 0 0 0 0 0 1
Nghost:    11789 ave 11819 max 11759 min
Histogram: 1 0 0 0 0 0 0 0 0 1
Neighs:    601263 ave 605491 max 597035 min
Histogram: 1 0 0 0 0 0 0 0 0 1

Total # of neighbors = 1202526
Ave neighs/atom = 61.191
Neighbor list builds = 495
Dangerous builds not checked
Setting up Verlet run ...
  Unit style    : metal
  Current step  : 180495
  Time step     : 0.001
Per MPI rank memory allocation (min/avg/max) = 11.35 | 11.35 | 11.35 Mbytes
Step Temp Press TotEng PotEng Enthalpy 
  180495    1698.2221   -72.165246   -54712.564   -59026.203   -54731.039 
  190000    1700.7699    13.995889   -54747.385   -59067.496   -54743.807 
Loop time of 876.003 on 2 procs for 9505 steps with 19652 atoms

Performance: 0.937 ns/day, 25.601 hours/ns, 10.850 timesteps/s
99.1% CPU use with 2 MPI tasks x no OpenMP threads

MPI task timing breakdown:
Section |  min time  |  avg time  |  max time  |%varavg| %total
---------------------------------------------------------------
Pair    | 468.67     | 470.86     | 473.04     |  10.1 | 53.75
Neigh   | 340.37     | 348.31     | 356.25     |  42.5 | 39.76
Comm    | 40.761     | 46.531     | 52.301     |  84.6 |  5.31
Output  | 0.037271   | 0.037301   | 0.037331   |   0.0 |  0.00
Modify  | 8.0791     | 8.0994     | 8.1198     |   0.7 |  0.92
Other   |            | 2.17       |            |       |  0.25

Nlocal:    9826 ave 9841 max 9811 min
Histogram: 1 0 0 0 0 0 0 0 0 1
Nghost:    11794 ave 11829 max 11759 min
Histogram: 1 0 0 0 0 0 0 0 0 1
Neighs:    602017 ave 608978 max 595056 min
Histogram: 1 0 0 0 0 0 0 0 0 1

Total # of neighbors = 1204034
Ave neighs/atom = 61.2678
Neighbor list builds = 9505
Dangerous builds not checked
Setting up Verlet run ...
  Unit style    : metal
  Current step  : 190000
  Time step     : 0.001
Per MPI rank memory allocation (min/avg/max) = 11.35 | 11.35 | 11.35 Mbytes
Step Temp Press TotEng PotEng Enthalpy 
  190000    1700.7699    13.995889   -54747.385   -59067.496   -54743.807 
  190495    1660.6001    772.16324   -55000.037   -59218.112   -54803.859 
Loop time of 42.5657 on 2 procs for 495 steps with 19652 atoms

Performance: 1.005 ns/day, 23.886 hours/ns, 11.629 timesteps/s
99.9% CPU use with 2 MPI tasks x no OpenMP threads

MPI task timing breakdown:
Section |  min time  |  avg time  |  max time  |%varavg| %total
---------------------------------------------------------------
Pair    | 22.711     | 22.91      | 23.109     |   4.2 | 53.82
Neigh   | 16.835     | 17.285     | 17.734     |  10.8 | 40.61
Comm    | 1.6105     | 1.8622     | 2.114      |  18.4 |  4.37
Output  | 0.00010586 | 0.0002414  | 0.00037694 |   0.0 |  0.00
Modify  | 0.39812    | 0.39944    | 0.40076    |   0.2 |  0.94
Other   |            | 0.109      |            |       |  0.26

Nlocal:    9826 ave 9826 max 9826 min
Histogram: 2 0 0 0 0 0 0 0 0 0
Nghost:    11789 ave 11816 max 11762 min
Histogram: 1 0 0 0 0 0 0 0 0 1
Neighs:    605922 ave 612497 max 599346 min
Histogram: 1 0 0 0 0 0 0 0 0 1

Total # of neighbors = 1211843
Ave neighs/atom = 61.6651
Neighbor list builds = 495
Dangerous builds not checked
Setting up Verlet run ...
  Unit style    : metal
  Current step  : 190495
  Time step     : 0.001
Per MPI rank memory allocation (min/avg/max) = 11.35 | 11.35 | 11.35 Mbytes
Step Temp Press TotEng PotEng Enthalpy 
  190495    1660.6001    772.16324   -55000.037   -59218.112   -54803.859 
  200000    1647.9625    659.87848   -55083.698   -59269.673   -54916.388 
Loop time of 849.443 on 2 procs for 9505 steps with 19652 atoms

Performance: 0.967 ns/day, 24.824 hours/ns, 11.190 timesteps/s
99.4% CPU use with 2 MPI tasks x no OpenMP threads

MPI task timing breakdown:
Section |  min time  |  avg time  |  max time  |%varavg| %total
---------------------------------------------------------------
Pair    | 457.12     | 461.73     | 466.35     |  21.5 | 54.36
Neigh   | 330.46     | 338.91     | 347.37     |  45.9 | 39.90
Comm    | 35.171     | 39.02      | 42.869     |  61.6 |  4.59
Output  | 0.053138   | 0.05318    | 0.053223   |   0.0 |  0.01
Modify  | 7.6284     | 7.6405     | 7.6526     |   0.4 |  0.90
Other   |            | 2.082      |            |       |  0.25

Nlocal:    9826 ave 9842 max 9810 min
Histogram: 1 0 0 0 0 0 0 0 0 1
Nghost:    11843.5 ave 11887 max 11800 min
Histogram: 1 0 0 0 0 0 0 0 0 1
Neighs:    607316 ave 615011 max 599621 min
Histogram: 1 0 0 0 0 0 0 0 0 1

Total # of neighbors = 1214632
Ave neighs/atom = 61.807
Neighbor list builds = 9505
Dangerous builds not checked
Setting up Verlet run ...
  Unit style    : metal
  Current step  : 200000
  Time step     : 0.001
Per MPI rank memory allocation (min/avg/max) = 11.35 | 11.35 | 11.35 Mbytes
Step Temp Press TotEng PotEng Enthalpy 
  200000    1647.9625    659.87848   -55083.698   -59269.673   -54916.388 
  200495    1621.3796     140.0905   -55277.842   -59396.294   -55242.445 
Loop time of 42.4156 on 2 procs for 495 steps with 19652 atoms

Performance: 1.008 ns/day, 23.802 hours/ns, 11.670 timesteps/s
99.9% CPU use with 2 MPI tasks x no OpenMP threads

MPI task timing breakdown:
Section |  min time  |  avg time  |  max time  |%varavg| %total
---------------------------------------------------------------
Pair    | 22.588     | 22.858     | 23.128     |   5.6 | 53.89
Neigh   | 17.248     | 17.401     | 17.555     |   3.7 | 41.03
Comm    | 1.525      | 1.6452     | 1.7653     |   9.4 |  3.88
Output  | 0.00011492 | 0.00015903 | 0.00020313 |   0.0 |  0.00
Modify  | 0.3997     | 0.40117    | 0.40263    |   0.2 |  0.95
Other   |            | 0.1101     |            |       |  0.26

Nlocal:    9826 ave 9839 max 9813 min
Histogram: 1 0 0 0 0 0 0 0 0 1
Nghost:    11853 ave 11865 max 11841 min
Histogram: 1 0 0 0 0 0 0 0 0 1
Neighs:    609430 ave 616943 max 601918 min
Histogram: 1 0 0 0 0 0 0 0 0 1

Total # of neighbors = 1218861
Ave neighs/atom = 62.0222
Neighbor list builds = 495
Dangerous builds not checked
Setting up Verlet run ...
  Unit style    : metal
  Current step  : 200495
  Time step     : 0.001
Per MPI rank memory allocation (min/avg/max) = 11.35 | 11.35 | 11.35 Mbytes
Step Temp Press TotEng PotEng Enthalpy 
  200495    1621.3796     140.0905   -55277.842   -59396.294   -55242.445 
  210000    1593.1424   -1516.5797    -55337.76   -59384.487   -55722.507 
Loop time of 870.814 on 2 procs for 9505 steps with 19652 atoms

Performance: 0.943 ns/day, 25.449 hours/ns, 10.915 timesteps/s
98.5% CPU use with 2 MPI tasks x no OpenMP threads

MPI task timing breakdown:
Section |  min time  |  avg time  |  max time  |%varavg| %total
---------------------------------------------------------------
Pair    | 468.16     | 472.82     | 477.48     |  21.4 | 54.30
Neigh   | 330.81     | 340.8      | 350.79     |  54.1 | 39.14
Comm    | 40.637     | 45.991     | 51.344     |  78.9 |  5.28
Output  | 0.038597   | 0.038604   | 0.038611   |   0.0 |  0.00
Modify  | 9.0245     | 9.0551     | 9.0856     |   1.0 |  1.04
Other   |            | 2.112      |            |       |  0.24

Nlocal:    9826 ave 9836 max 9816 min
Histogram: 1 0 0 0 0 0 0 0 0 1
Nghost:    11932 ave 11939 max 11925 min
Histogram: 1 0 0 0 0 0 0 0 0 1
Neighs:    607075 ave 614674 max 599476 min
Histogram: 1 0 0 0 0 0 0 0 0 1

Total # of neighbors = 1214150
Ave neighs/atom = 61.7825
Neighbor list builds = 9505
Dangerous builds not checked
Setting up Verlet run ...
  Unit style    : metal
  Current step  : 210000
  Time step     : 0.001
Per MPI rank memory allocation (min/avg/max) = 11.35 | 11.35 | 11.35 Mbytes
Step Temp Press TotEng PotEng Enthalpy 
  210000    1593.1424   -1516.5797    -55337.76   -59384.487   -55722.507 
  210495     1557.546    54.010649    -55556.12   -59512.429   -55542.525 
Loop time of 50.1259 on 2 procs for 495 steps with 19652 atoms

Performance: 0.853 ns/day, 28.129 hours/ns, 9.875 timesteps/s
97.3% CPU use with 2 MPI tasks x no OpenMP threads

MPI task timing breakdown:
Section |  min time  |  avg time  |  max time  |%varavg| %total
---------------------------------------------------------------
Pair    | 27.212     | 27.357     | 27.502     |   2.8 | 54.58
Neigh   | 18.593     | 19.078     | 19.564     |  11.1 | 38.06
Comm    | 2.6796     | 3.0277     | 3.3757     |  20.0 |  6.04
Output  | 0.00019217 | 0.00024998 | 0.0003078  |   0.0 |  0.00
Modify  | 0.53125    | 0.53417    | 0.5371     |   0.4 |  1.07
Other   |            | 0.1285     |            |       |  0.26

Nlocal:    9826 ave 9832 max 9820 min
Histogram: 1 0 0 0 0 0 0 0 0 1
Nghost:    11873 ave 11900 max 11846 min
Histogram: 1 0 0 0 0 0 0 0 0 1
Neighs:    611660 ave 618761 max 604560 min
Histogram: 1 0 0 0 0 0 0 0 0 1

Total # of neighbors = 1223321
Ave neighs/atom = 62.2492
Neighbor list builds = 495
Dangerous builds not checked
Setting up Verlet run ...
  Unit style    : metal
  Current step  : 210495
  Time step     : 0.001
Per MPI rank memory allocation (min/avg/max) = 11.35 | 11.35 | 11.35 Mbytes
Step Temp Press TotEng PotEng Enthalpy 
  210495     1557.546    54.010649    -55556.12   -59512.429   -55542.525 
  220000    1543.0565   -676.74229   -55642.021   -59561.525   -55812.181 
Loop time of 888.344 on 2 procs for 9505 steps with 19652 atoms

Performance: 0.924 ns/day, 25.961 hours/ns, 10.700 timesteps/s
98.8% CPU use with 2 MPI tasks x no OpenMP threads

MPI task timing breakdown:
Section |  min time  |  avg time  |  max time  |%varavg| %total
---------------------------------------------------------------
Pair    | 481.94     | 488.07     | 494.19     |  27.7 | 54.94
Neigh   | 318.51     | 336.35     | 354.18     |  97.3 | 37.86
Comm    | 41.913     | 53.795     | 65.678     | 162.0 |  6.06
Output  | 0.037263   | 0.037282   | 0.0373     |   0.0 |  0.00
Modify  | 7.8315     | 7.9625     | 8.0935     |   4.6 |  0.90
Other   |            | 2.135      |            |       |  0.24

Nlocal:    9826 ave 9842 max 9810 min
Histogram: 1 0 0 0 0 0 0 0 0 1
Nghost:    11880.5 ave 11904 max 11857 min
Histogram: 1 0 0 0 0 0 0 0 0 1
Neighs:    612390 ave 616599 max 608180 min
Histogram: 1 0 0 0 0 0 0 0 0 1

Total # of neighbors = 1224779
Ave neighs/atom = 62.3234
Neighbor list builds = 9505
Dangerous builds not checked
Setting up Verlet run ...
  Unit style    : metal
  Current step  : 220000
  Time step     : 0.001
Per MPI rank memory allocation (min/avg/max) = 11.35 | 11.35 | 11.35 Mbytes
Step Temp Press TotEng PotEng Enthalpy 
  220000    1543.0565   -676.74229   -55642.021   -59561.525   -55812.181 
  220495     1498.711   -14.033274   -55830.272   -59637.135   -55833.789 
Loop time of 38.5851 on 2 procs for 495 steps with 19652 atoms

Performance: 1.108 ns/day, 21.653 hours/ns, 12.829 timesteps/s
98.8% CPU use with 2 MPI tasks x no OpenMP threads

MPI task timing breakdown:
Section |  min time  |  avg time  |  max time  |%varavg| %total
---------------------------------------------------------------
Pair    | 20.877     | 20.957     | 21.038     |   1.8 | 54.31
Neigh   | 14.381     | 14.856     | 15.332     |  12.3 | 38.50
Comm    | 1.7547     | 2.3166     | 2.8785     |  36.9 |  6.00
Output  | 0.00019693 | 0.00024843 | 0.00029993 |   0.0 |  0.00
Modify  | 0.35306    | 0.35683    | 0.36059    |   0.6 |  0.92
Other   |            | 0.09782    |            |       |  0.25

Nlocal:    9826 ave 9832 max 9820 min
Histogram: 1 0 0 0 0 0 0 0 0 1
Nghost:    11905.5 ave 11913 max 11898 min
Histogram: 1 0 0 0 0 0 0 0 0 1
Neighs:    614888 ave 619570 max 610205 min
Histogram: 1 0 0 0 0 0 0 0 0 1

Total # of neighbors = 1229775
Ave neighs/atom = 62.5776
Neighbor list builds = 495
Dangerous builds not checked
Setting up Verlet run ...
  Unit style    : metal
  Current step  : 220495
  Time step     : 0.001
Per MPI rank memory allocation (min/avg/max) = 11.35 | 11.35 | 11.35 Mbytes
Step Temp Press TotEng PotEng Enthalpy 
  220495     1498.711   -14.033274   -55830.272   -59637.135   -55833.789 
  230000    1489.3979    487.81104   -55934.415   -59717.622   -55812.741 
Loop time of 885.969 on 2 procs for 9505 steps with 19652 atoms

Performance: 0.927 ns/day, 25.892 hours/ns, 10.728 timesteps/s
97.4% CPU use with 2 MPI tasks x no OpenMP threads

MPI task timing breakdown:
Section |  min time  |  avg time  |  max time  |%varavg| %total
---------------------------------------------------------------
Pair    | 477.42     | 480.43     | 483.44     |  13.7 | 54.23
Neigh   | 340.87     | 344.17     | 347.48     |  17.8 | 38.85
Comm    | 48.66      | 49.084     | 49.508     |   6.1 |  5.54
Output  | 0.036473   | 0.036588   | 0.036704   |   0.1 |  0.00
Modify  | 9.9182     | 10.08      | 10.241     |   5.1 |  1.14
Other   |            | 2.164      |            |       |  0.24

Nlocal:    9826 ave 9855 max 9797 min
Histogram: 1 0 0 0 0 0 0 0 0 1
Nghost:    11890 ave 11900 max 11880 min
Histogram: 1 0 0 0 0 0 0 0 0 1
Neighs:    617268 ave 621004 max 613531 min
Histogram: 1 0 0 0 0 0 0 0 0 1

Total # of neighbors = 1234535
Ave neighs/atom = 62.8198
Neighbor list builds = 9505
Dangerous builds not checked
Setting up Verlet run ...
  Unit style    : metal
  Current step  : 230000
  Time step     : 0.001
Per MPI rank memory allocation (min/avg/max) = 11.35 | 11.35 | 11.35 Mbytes
Step Temp Press TotEng PotEng Enthalpy 
  230000    1489.3979    487.81104   -55934.415   -59717.622   -55812.741 
  230495    1458.2261    304.06545    -56104.57   -59808.597   -56028.894 
Loop time of 43.7272 on 2 procs for 495 steps with 19652 atoms

Performance: 0.978 ns/day, 24.538 hours/ns, 11.320 timesteps/s
97.5% CPU use with 2 MPI tasks x no OpenMP threads

MPI task timing breakdown:
Section |  min time  |  avg time  |  max time  |%varavg| %total
---------------------------------------------------------------
Pair    | 23.194     | 23.388     | 23.583     |   4.0 | 53.49
Neigh   | 18.045     | 18.284     | 18.524     |   5.6 | 41.81
Comm    | 1.4726     | 1.5203     | 1.568      |   3.9 |  3.48
Output  | 0.00015187 | 0.00023603 | 0.0003202  |   0.0 |  0.00
Modify  | 0.42155    | 0.42372    | 0.4259     |   0.3 |  0.97
Other   |            | 0.1102     |            |       |  0.25

Nlocal:    9826 ave 9827 max 9825 min
Histogram: 1 0 0 0 0 0 0 0 0 1
Nghost:    11963.5 ave 12002 max 11925 min
Histogram: 1 0 0 0 0 0 0 0 0 1
Neighs:    619098 ave 625479 max 612716 min
Histogram: 1 0 0 0 0 0 0 0 0 1

Total # of neighbors = 1238195
Ave neighs/atom = 63.0061
Neighbor list builds = 495
Dangerous builds not checked
Setting up Verlet run ...
  Unit style    : metal
  Current step  : 230495
  Time step     : 0.001
Per MPI rank memory allocation (min/avg/max) = 11.35 | 11.35 | 11.35 Mbytes
Step Temp Press TotEng PotEng Enthalpy 
  230495    1458.2261    304.06545    -56104.57   -59808.597   -56028.894 
  240000    1452.5179   -284.09476   -56166.951   -59856.478   -56237.634 
Loop time of 931.878 on 2 procs for 9505 steps with 19652 atoms

Performance: 0.881 ns/day, 27.234 hours/ns, 10.200 timesteps/s
96.3% CPU use with 2 MPI tasks x no OpenMP threads

MPI task timing breakdown:
Section |  min time  |  avg time  |  max time  |%varavg| %total
---------------------------------------------------------------
Pair    | 503.77     | 506.48     | 509.2      |  12.1 | 54.35
Neigh   | 364.34     | 371.48     | 378.62     |  37.0 | 39.86
Comm    | 37.623     | 42.103     | 46.583     |  69.0 |  4.52
Output  | 0.038836   | 0.038885   | 0.038934   |   0.0 |  0.00
Modify  | 9.4235     | 9.4745     | 9.5255     |   1.7 |  1.02
Other   |            | 2.297      |            |       |  0.25

Nlocal:    9826 ave 9854 max 9798 min
Histogram: 1 0 0 0 0 0 0 0 0 1
Nghost:    11916 ave 11926 max 11906 min
Histogram: 1 0 0 0 0 0 0 0 0 1
Neighs:    619054 ave 627935 max 610173 min
Histogram: 1 0 0 0 0 0 0 0 0 1

Total # of neighbors = 1238108
Ave neighs/atom = 63.0016
Neighbor list builds = 9505
Dangerous builds not checked
Setting up Verlet run ...
  Unit style    : metal
  Current step  : 240000
  Time step     : 0.001
Per MPI rank memory allocation (min/avg/max) = 11.35 | 11.35 | 11.35 Mbytes
Step Temp Press TotEng PotEng Enthalpy 
  240000    1452.5179   -284.09476   -56166.951   -59856.478   -56237.634 
  240495    1420.4498    211.65365   -56403.262   -60011.334   -56350.934 
Loop time of 48.2014 on 2 procs for 495 steps with 19652 atoms

Performance: 0.887 ns/day, 27.049 hours/ns, 10.269 timesteps/s
94.8% CPU use with 2 MPI tasks x no OpenMP threads

MPI task timing breakdown:
Section |  min time  |  avg time  |  max time  |%varavg| %total
---------------------------------------------------------------
Pair    | 26.055     | 26.324     | 26.592     |   5.2 | 54.61
Neigh   | 19.181     | 19.509     | 19.837     |   7.4 | 40.47
Comm    | 1.696      | 1.761      | 1.8259     |   4.9 |  3.65
Output  | 8.5831e-05 | 0.0001229  | 0.00015998 |   0.0 |  0.00
Modify  | 0.48183    | 0.48686    | 0.49189    |   0.7 |  1.01
Other   |            | 0.1206     |            |       |  0.25

Nlocal:    9826 ave 9853 max 9799 min
Histogram: 1 0 0 0 0 0 0 0 0 1
Nghost:    11937.5 ave 11959 max 11916 min
Histogram: 1 0 0 0 0 0 0 0 0 1
Neighs:    623094 ave 630941 max 615246 min
Histogram: 1 0 0 0 0 0 0 0 0 1

Total # of neighbors = 1246187
Ave neighs/atom = 63.4127
Neighbor list builds = 495
Dangerous builds not checked
Setting up Verlet run ...
  Unit style    : metal
  Current step  : 240495
  Time step     : 0.001
Per MPI rank memory allocation (min/avg/max) = 11.35 | 11.35 | 11.35 Mbytes
Step Temp Press TotEng PotEng Enthalpy 
  240495    1420.4498    211.65365   -56403.262   -60011.334   -56350.934 
  250000    1395.9252   -277.40962   -56466.662   -60012.439   -56535.265 
Loop time of 1058.86 on 2 procs for 9505 steps with 19652 atoms

Performance: 0.776 ns/day, 30.944 hours/ns, 8.977 timesteps/s
90.6% CPU use with 2 MPI tasks x no OpenMP threads

MPI task timing breakdown:
Section |  min time  |  avg time  |  max time  |%varavg| %total
---------------------------------------------------------------
Pair    | 574.23     | 580.04     | 585.86     |  24.1 | 54.78
Neigh   | 387.94     | 398.57     | 409.2      |  53.2 | 37.64
Comm    | 60.65      | 65.637     | 70.625     |  61.6 |  6.20
Output  | 0.036788   | 0.036885   | 0.036981   |   0.1 |  0.00
Modify  | 11.926     | 12.076     | 12.226     |   4.3 |  1.14
Other   |            | 2.498      |            |       |  0.24

Nlocal:    9826 ave 9841 max 9811 min
Histogram: 1 0 0 0 0 0 0 0 0 1
Nghost:    12004.5 ave 12014 max 11995 min
Histogram: 1 0 0 0 0 0 0 0 0 1
Neighs:    622737 ave 630245 max 615229 min
Histogram: 1 0 0 0 0 0 0 0 0 1

Total # of neighbors = 1245474
Ave neighs/atom = 63.3765
Neighbor list builds = 9505
Dangerous builds not checked
Setting up Verlet run ...
  Unit style    : metal
  Current step  : 250000
  Time step     : 0.001
Per MPI rank memory allocation (min/avg/max) = 11.35 | 11.35 | 11.35 Mbytes
Step Temp Press TotEng PotEng Enthalpy 
  250000    1395.9252   -277.40962   -56466.662   -60012.439   -56535.265 
  250495    1353.3393    170.23295   -56675.843   -60113.448   -56633.924 
Loop time of 59.647 on 2 procs for 495 steps with 19652 atoms

Performance: 0.717 ns/day, 33.472 hours/ns, 8.299 timesteps/s
86.3% CPU use with 2 MPI tasks x no OpenMP threads

MPI task timing breakdown:
Section |  min time  |  avg time  |  max time  |%varavg| %total
---------------------------------------------------------------
Pair    | 32.565     | 32.867     | 33.169     |   5.3 | 55.10
Neigh   | 21.445     | 22.035     | 22.625     |  12.6 | 36.94
Comm    | 3.6117     | 3.946      | 4.2802     |  16.8 |  6.62
Output  | 0.0001111  | 0.00022709 | 0.00034308 |   0.0 |  0.00
Modify  | 0.62547    | 0.65694    | 0.68841    |   3.9 |  1.10
Other   |            | 0.1418     |            |       |  0.24

Nlocal:    9826 ave 9827 max 9825 min
Histogram: 1 0 0 0 0 0 0 0 0 1
Nghost:    11985 ave 12055 max 11915 min
Histogram: 1 0 0 0 0 0 0 0 0 1
Neighs:    625958 ave 632046 max 619870 min
Histogram: 1 0 0 0 0 0 0 0 0 1

Total # of neighbors = 1251916
Ave neighs/atom = 63.7043
Neighbor list builds = 495
Dangerous builds not checked
Setting up Verlet run ...
  Unit style    : metal
  Current step  : 250495
  Time step     : 0.001
Per MPI rank memory allocation (min/avg/max) = 11.35 | 11.35 | 11.35 Mbytes
Step Temp Press TotEng PotEng Enthalpy 
  250495    1353.3393    170.23295   -56675.843   -60113.448   -56633.924 
  260000    1351.9797   -648.01274   -56780.028    -60214.18   -56939.283 
Loop time of 1119.89 on 2 procs for 9505 steps with 19652 atoms

Performance: 0.733 ns/day, 32.728 hours/ns, 8.487 timesteps/s
88.7% CPU use with 2 MPI tasks x no OpenMP threads

MPI task timing breakdown:
Section |  min time  |  avg time  |  max time  |%varavg| %total
---------------------------------------------------------------
Pair    | 617.56     | 624.38     | 631.19     |  27.3 | 55.75
Neigh   | 407.53     | 418.64     | 429.75     |  54.3 | 37.38
Comm    | 57.911     | 62.275     | 66.638     |  55.3 |  5.56
Output  | 0.03721    | 0.037248   | 0.037285   |   0.0 |  0.00
Modify  | 11.736     | 11.817     | 11.897     |   2.3 |  1.06
Other   |            | 2.745      |            |       |  0.25

Nlocal:    9826 ave 9848 max 9804 min
Histogram: 1 0 0 0 0 0 0 0 0 1
Nghost:    12025.5 ave 12050 max 12001 min
Histogram: 1 0 0 0 0 0 0 0 0 1
Neighs:    627344 ave 631661 max 623026 min
Histogram: 1 0 0 0 0 0 0 0 0 1

Total # of neighbors = 1254687
Ave neighs/atom = 63.8453
Neighbor list builds = 9505
Dangerous builds not checked
Setting up Verlet run ...
  Unit style    : metal
  Current step  : 260000
  Time step     : 0.001
Per MPI rank memory allocation (min/avg/max) = 11.35 | 11.35 | 11.35 Mbytes
Step Temp Press TotEng PotEng Enthalpy 
  260000    1351.9797   -648.01274   -56780.028    -60214.18   -56939.283 
  260495    1316.1891     521.2138    -56971.99   -60315.231   -56844.599 
Loop time of 51.0788 on 2 procs for 495 steps with 19652 atoms

Performance: 0.837 ns/day, 28.664 hours/ns, 9.691 timesteps/s
93.5% CPU use with 2 MPI tasks x no OpenMP threads

MPI task timing breakdown:
Section |  min time  |  avg time  |  max time  |%varavg| %total
---------------------------------------------------------------
Pair    | 27.978     | 28.339     | 28.701     |   6.8 | 55.48
Neigh   | 19.182     | 19.889     | 20.595     |  15.8 | 38.94
Comm    | 1.8539     | 2.1997     | 2.5454     |  23.3 |  4.31
Output  | 0.00010586 | 0.00015187 | 0.00019789 |   0.0 |  0.00
Modify  | 0.50984    | 0.51076    | 0.51169    |   0.1 |  1.00
Other   |            | 0.1405     |            |       |  0.28

Nlocal:    9826 ave 9845 max 9807 min
Histogram: 1 0 0 0 0 0 0 0 0 1
Nghost:    12008 ave 12027 max 11989 min
Histogram: 1 0 0 0 0 0 0 0 0 1
Neighs:    630531 ave 635573 max 625489 min
Histogram: 1 0 0 0 0 0 0 0 0 1

Total # of neighbors = 1261062
Ave neighs/atom = 64.1697
Neighbor list builds = 495
Dangerous builds not checked
Setting up Verlet run ...
  Unit style    : metal
  Current step  : 260495
  Time step     : 0.001
Per MPI rank memory allocation (min/avg/max) = 11.35 | 11.35 | 11.35 Mbytes
Step Temp Press TotEng PotEng Enthalpy 
  260495    1316.1891     521.2138    -56971.99   -60315.231   -56844.599 
  270000    1300.8721   -286.37329   -57063.839   -60368.172   -57133.834 
Loop time of 1095.55 on 2 procs for 9505 steps with 19652 atoms

Performance: 0.750 ns/day, 32.017 hours/ns, 8.676 timesteps/s
89.8% CPU use with 2 MPI tasks x no OpenMP threads

MPI task timing breakdown:
Section |  min time  |  avg time  |  max time  |%varavg| %total
---------------------------------------------------------------
Pair    | 598.77     | 606.34     | 613.91     |  30.7 | 55.35
Neigh   | 399.09     | 410.94     | 422.8      |  58.5 | 37.51
Comm    | 59.982     | 64.362     | 68.741     |  54.6 |  5.87
Output  | 0.078892   | 0.078937   | 0.078982   |   0.0 |  0.01
Modify  | 11.069     | 11.128     | 11.188     |   1.8 |  1.02
Other   |            | 2.699      |            |       |  0.25

Nlocal:    9826 ave 9833 max 9819 min
Histogram: 1 0 0 0 0 0 0 0 0 1
Nghost:    12006 ave 12007 max 12005 min
Histogram: 1 0 0 0 0 0 0 0 0 1
Neighs:    630614 ave 635626 max 625601 min
Histogram: 1 0 0 0 0 0 0 0 0 1

Total # of neighbors = 1261227
Ave neighs/atom = 64.178
Neighbor list builds = 9505
Dangerous builds not checked
Setting up Verlet run ...
  Unit style    : metal
  Current step  : 270000
  Time step     : 0.001
Per MPI rank memory allocation (min/avg/max) = 11.35 | 11.35 | 11.35 Mbytes
Step Temp Press TotEng PotEng Enthalpy 
  270000    1300.8721   -286.37329   -57063.839   -60368.172   -57133.834 
  270495    1254.8634    399.01309   -57259.318   -60446.785   -57162.219 
Loop time of 59.5968 on 2 procs for 495 steps with 19652 atoms

Performance: 0.718 ns/day, 33.444 hours/ns, 8.306 timesteps/s
85.4% CPU use with 2 MPI tasks x no OpenMP threads

MPI task timing breakdown:
Section |  min time  |  avg time  |  max time  |%varavg| %total
---------------------------------------------------------------
Pair    | 33.028     | 33.213     | 33.397     |   3.2 | 55.73
Neigh   | 21.344     | 21.98      | 22.615     |  13.6 | 36.88
Comm    | 3.1202     | 3.5858     | 4.0514     |  24.6 |  6.02
Output  | 9.8944e-05 | 0.00013995 | 0.00018096 |   0.0 |  0.00
Modify  | 0.65925    | 0.66793    | 0.67662    |   1.1 |  1.12
Other   |            | 0.1506     |            |       |  0.25

Nlocal:    9826 ave 9833 max 9819 min
Histogram: 1 0 0 0 0 0 0 0 0 1
Nghost:    12088 ave 12089 max 12087 min
Histogram: 1 0 0 0 0 0 0 0 0 1
Neighs:    633278 ave 640954 max 625601 min
Histogram: 1 0 0 0 0 0 0 0 0 1

Total # of neighbors = 1266555
Ave neighs/atom = 64.4492
Neighbor list builds = 495
Dangerous builds not checked
Setting up Verlet run ...
  Unit style    : metal
  Current step  : 270495
  Time step     : 0.001
Per MPI rank memory allocation (min/avg/max) = 11.35 | 11.35 | 11.35 Mbytes
Step Temp Press TotEng PotEng Enthalpy 
  270495    1254.8634    399.01309   -57259.318   -60446.785   -57162.219 
  280000    1243.3647   -551.32269   -57337.949   -60496.209   -57472.208 
Loop time of 1156.48 on 2 procs for 9505 steps with 19652 atoms

Performance: 0.710 ns/day, 33.797 hours/ns, 8.219 timesteps/s
86.8% CPU use with 2 MPI tasks x no OpenMP threads

MPI task timing breakdown:
Section |  min time  |  avg time  |  max time  |%varavg| %total
---------------------------------------------------------------
Pair    | 636.34     | 641.59     | 646.83     |  20.7 | 55.48
Neigh   | 411        | 422.45     | 433.9      |  55.7 | 36.53
Comm    | 72.152     | 78.324     | 84.495     |  69.7 |  6.77
Output  | 0.093373   | 0.093418   | 0.093463   |   0.0 |  0.01
Modify  | 11.257     | 11.327     | 11.397     |   2.1 |  0.98
Other   |            | 2.691      |            |       |  0.23

Nlocal:    9826 ave 9845 max 9807 min
Histogram: 1 0 0 0 0 0 0 0 0 1
Nghost:    12042.5 ave 12044 max 12041 min
Histogram: 1 0 0 0 0 0 0 0 0 1
Neighs:    632974 ave 637334 max 628615 min
Histogram: 1 0 0 0 0 0 0 0 0 1

Total # of neighbors = 1265949
Ave neighs/atom = 64.4183
Neighbor list builds = 9505
Dangerous builds not checked
Setting up Verlet run ...
  Unit style    : metal
  Current step  : 280000
  Time step     : 0.001
Per MPI rank memory allocation (min/avg/max) = 11.35 | 11.35 | 11.35 Mbytes
Step Temp Press TotEng PotEng Enthalpy 
  280000    1243.3647   -551.32269   -57337.949   -60496.209   -57472.208 
  280495    1206.3129   -1186.0639   -57550.305   -60614.449   -57837.772 
Loop time of 50.7447 on 2 procs for 495 steps with 19652 atoms

Performance: 0.843 ns/day, 28.476 hours/ns, 9.755 timesteps/s
92.3% CPU use with 2 MPI tasks x no OpenMP threads

MPI task timing breakdown:
Section |  min time  |  avg time  |  max time  |%varavg| %total
---------------------------------------------------------------
Pair    | 27.682     | 28.098     | 28.514     |   7.9 | 55.37
Neigh   | 19.055     | 19.688     | 20.321     |  14.3 | 38.80
Comm    | 2.114      | 2.3361     | 2.5581     |  14.5 |  4.60
Output  | 0.00023818 | 0.00049353 | 0.00074887 |   0.0 |  0.00
Modify  | 0.49315    | 0.497      | 0.50085    |   0.5 |  0.98
Other   |            | 0.1251     |            |       |  0.25

Nlocal:    9826 ave 9828 max 9824 min
Histogram: 1 0 0 0 0 0 0 0 0 1
Nghost:    12061 ave 12068 max 12054 min
Histogram: 1 0 0 0 0 0 0 0 0 1
Neighs:    636247 ave 642294 max 630200 min
Histogram: 1 0 0 0 0 0 0 0 0 1

Total # of neighbors = 1272494
Ave neighs/atom = 64.7514
Neighbor list builds = 495
Dangerous builds not checked
Setting up Verlet run ...
  Unit style    : metal
  Current step  : 280495
  Time step     : 0.001
Per MPI rank memory allocation (min/avg/max) = 11.35 | 11.35 | 11.35 Mbytes
Step Temp Press TotEng PotEng Enthalpy 
  280495    1206.3129   -1186.0639   -57550.305   -60614.449   -57837.772 
  290000    1199.7157   -104.12817   -57611.406   -60658.793   -57636.604 
Loop time of 1080.14 on 2 procs for 9505 steps with 19652 atoms

Performance: 0.760 ns/day, 31.566 hours/ns, 8.800 timesteps/s
90.2% CPU use with 2 MPI tasks x no OpenMP threads

MPI task timing breakdown:
Section |  min time  |  avg time  |  max time  |%varavg| %total
---------------------------------------------------------------
Pair    | 589.43     | 595.34     | 601.24     |  24.2 | 55.12
Neigh   | 389.47     | 401.34     | 413.2      |  59.2 | 37.16
Comm    | 63.614     | 69.583     | 75.552     |  71.6 |  6.44
Output  | 0.037361   | 0.037396   | 0.037431   |   0.0 |  0.00
Modify  | 11.198     | 11.227     | 11.257     |   0.9 |  1.04
Other   |            | 2.616      |            |       |  0.24

Nlocal:    9826 ave 9835 max 9817 min
Histogram: 1 0 0 0 0 0 0 0 0 1
Nghost:    12083 ave 12095 max 12071 min
Histogram: 1 0 0 0 0 0 0 0 0 1
Neighs:    637240 ave 642963 max 631517 min
Histogram: 1 0 0 0 0 0 0 0 0 1

Total # of neighbors = 1274480
Ave neighs/atom = 64.8524
Neighbor list builds = 9505
Dangerous builds not checked
Setting up Verlet run ...
  Unit style    : metal
  Current step  : 290000
  Time step     : 0.001
Per MPI rank memory allocation (min/avg/max) = 11.35 | 11.35 | 11.35 Mbytes
Step Temp Press TotEng PotEng Enthalpy 
  290000    1199.7157   -104.12817   -57611.406   -60658.793   -57636.604 
  290495    1164.1497    -451.3473   -57826.895   -60783.942   -57935.676 
Loop time of 56.6886 on 2 procs for 495 steps with 19652 atoms

Performance: 0.754 ns/day, 31.812 hours/ns, 8.732 timesteps/s
88.3% CPU use with 2 MPI tasks x no OpenMP threads

MPI task timing breakdown:
Section |  min time  |  avg time  |  max time  |%varavg| %total
---------------------------------------------------------------
Pair    | 31.27      | 31.494     | 31.718     |   4.0 | 55.56
Neigh   | 20.772     | 21.059     | 21.346     |   6.3 | 37.15
Comm    | 3.314      | 3.3587     | 3.4034     |   2.4 |  5.92
Output  | 0.00011396 | 0.00017357 | 0.00023317 |   0.0 |  0.00
Modify  | 0.62624    | 0.63818    | 0.65012    |   1.5 |  1.13
Other   |            | 0.1388     |            |       |  0.24

Nlocal:    9826 ave 9854 max 9798 min
Histogram: 1 0 0 0 0 0 0 0 0 1
Nghost:    12106.5 ave 12117 max 12096 min
Histogram: 1 0 0 0 0 0 0 0 0 1
Neighs:    639852 ave 649160 max 630545 min
Histogram: 1 0 0 0 0 0 0 0 0 1

Total # of neighbors = 1279705
Ave neighs/atom = 65.1183
Neighbor list builds = 495
Dangerous builds not checked
Setting up Verlet run ...
  Unit style    : metal
  Current step  : 290495
  Time step     : 0.001
Per MPI rank memory allocation (min/avg/max) = 11.35 | 11.35 | 11.35 Mbytes
Step Temp Press TotEng PotEng Enthalpy 
  290495    1164.1497    -451.3473   -57826.895   -60783.942   -57935.676 
  300000    1146.6657    212.96855   -57935.993   -60848.628   -57884.863 
Loop time of 1084.88 on 2 procs for 9505 steps with 19652 atoms

Performance: 0.757 ns/day, 31.705 hours/ns, 8.761 timesteps/s
90.1% CPU use with 2 MPI tasks x no OpenMP threads

MPI task timing breakdown:
Section |  min time  |  avg time  |  max time  |%varavg| %total
---------------------------------------------------------------
Pair    | 593.81     | 602.63     | 611.45     |  35.9 | 55.55
Neigh   | 393.68     | 405.02     | 416.36     |  56.4 | 37.33
Comm    | 60.949     | 63.5       | 66.05      |  32.0 |  5.85
Output  | 0.036223   | 0.036253   | 0.036283   |   0.0 |  0.00
Modify  | 10.968     | 10.98      | 10.992     |   0.4 |  1.01
Other   |            | 2.711      |            |       |  0.25

Nlocal:    9826 ave 9835 max 9817 min
Histogram: 1 0 0 0 0 0 0 0 0 1
Nghost:    12131.5 ave 12151 max 12112 min
Histogram: 1 0 0 0 0 0 0 0 0 1
Neighs:    642386 ave 650062 max 634711 min
Histogram: 1 0 0 0 0 0 0 0 0 1

Total # of neighbors = 1284773
Ave neighs/atom = 65.3762
Neighbor list builds = 9505
Dangerous builds not checked
Setting up Verlet run ...
  Unit style    : metal
  Current step  : 300000
  Time step     : 0.001
Per MPI rank memory allocation (min/avg/max) = 11.35 | 11.35 | 11.35 Mbytes
Step Temp Press TotEng PotEng Enthalpy 
[...]
Histogram: 1 0 0 0 0 0 0 0 0 1
Neighs:    702466 ave 702532 max 702399 min
Histogram: 1 0 0 0 0 0 0 0 0 1

Total # of neighbors = 1404931
Ave neighs/atom = 71.4905
Neighbor list builds = 9505
Dangerous builds not checked
Setting up Verlet run ...
  Unit style    : metal
  Current step  : 440000
  Time step     : 0.001
Per MPI rank memory allocation (min/avg/max) = 11.35 | 11.35 | 11.35 Mbytes
Step Temp Press TotEng PotEng Enthalpy 
  440000    456.72307    293.85606    -62435.97   -63596.088   -62371.362 
  440495    421.61419   -551.03756   -62597.965   -63668.903   -62719.045 
Loop time of 45.1996 on 2 procs for 495 steps with 19652 atoms

Performance: 0.946 ns/day, 25.365 hours/ns, 10.951 timesteps/s
98.9% CPU use with 2 MPI tasks x no OpenMP threads

MPI task timing breakdown:
Section |  min time  |  avg time  |  max time  |%varavg| %total
---------------------------------------------------------------
Pair    | 24.077     | 24.223     | 24.37      |   3.0 | 53.59
Neigh   | 18.71      | 18.826     | 18.941     |   2.7 | 41.65
Comm    | 1.5355     | 1.5762     | 1.6169     |   3.2 |  3.49
Output  | 0.00010204 | 0.00016952 | 0.00023699 |   0.0 |  0.00
Modify  | 0.44549    | 0.45169    | 0.45789    |   0.9 |  1.00
Other   |            | 0.1223     |            |       |  0.27

Nlocal:    9826 ave 9851 max 9801 min
Histogram: 1 0 0 0 0 0 0 0 0 1
Nghost:    12606 ave 12632 max 12580 min
Histogram: 1 0 0 0 0 0 0 0 0 1
Neighs:    702958 ave 705205 max 700711 min
Histogram: 1 0 0 0 0 0 0 0 0 1

Total # of neighbors = 1405916
Ave neighs/atom = 71.5406
Neighbor list builds = 495
Dangerous builds not checked
Setting up Verlet run ...
  Unit style    : metal
  Current step  : 440495
  Time step     : 0.001
Per MPI rank memory allocation (min/avg/max) = 11.35 | 11.35 | 11.35 Mbytes
Step Temp Press TotEng PotEng Enthalpy 
  440495    421.61419   -551.03756   -62597.965   -63668.903   -62719.045 
  450000    408.36585    78.003971   -62749.259   -63786.545    -62732.19 
Loop time of 834.111 on 2 procs for 9505 steps with 19652 atoms

Performance: 0.985 ns/day, 24.376 hours/ns, 11.395 timesteps/s
98.7% CPU use with 2 MPI tasks x no OpenMP threads

MPI task timing breakdown:
Section |  min time  |  avg time  |  max time  |%varavg| %total
---------------------------------------------------------------
Pair    | 443.1      | 446.99     | 450.87     |  18.4 | 53.59
Neigh   | 333.45     | 337.38     | 341.31     |  21.4 | 40.45
Comm    | 39.373     | 39.444     | 39.516     |   1.1 |  4.73
Output  | 0.062143   | 0.062157   | 0.062171   |   0.0 |  0.01
Modify  | 8.0523     | 8.0563     | 8.0603     |   0.1 |  0.97
Other   |            | 2.181      |            |       |  0.26

Nlocal:    9826 ave 9833 max 9819 min
Histogram: 1 0 0 0 0 0 0 0 0 1
Nghost:    12598 ave 12600 max 12596 min
Histogram: 1 0 0 0 0 0 0 0 0 1
Neighs:    705923 ave 706109 max 705737 min
Histogram: 1 0 0 0 0 0 0 0 0 1

Total # of neighbors = 1411846
Ave neighs/atom = 71.8424
Neighbor list builds = 9505
Dangerous builds not checked
Setting up Verlet run ...
  Unit style    : metal
  Current step  : 450000
  Time step     : 0.001
Per MPI rank memory allocation (min/avg/max) = 11.35 | 11.35 | 11.35 Mbytes
Step Temp Press TotEng PotEng Enthalpy 
  450000    408.36585    78.003971   -62749.259   -63786.545    -62732.19 
  450495    371.17715    281.47549   -62918.048   -63860.872   -62856.598 
Loop time of 44.9505 on 2 procs for 495 steps with 19652 atoms

Performance: 0.951 ns/day, 25.225 hours/ns, 11.012 timesteps/s
97.5% CPU use with 2 MPI tasks x no OpenMP threads

MPI task timing breakdown:
Section |  min time  |  avg time  |  max time  |%varavg| %total
---------------------------------------------------------------
Pair    | 24.122     | 24.205     | 24.288     |   1.7 | 53.85
Neigh   | 17.888     | 17.972     | 18.055     |   2.0 | 39.98
Comm    | 2.055      | 2.2238     | 2.3925     |  11.3 |  4.95
Output  | 9.8944e-05 | 0.000121   | 0.00014305 |   0.0 |  0.00
Modify  | 0.43328    | 0.43475    | 0.43622    |   0.2 |  0.97
Other   |            | 0.1155     |            |       |  0.26

Nlocal:    9826 ave 9844 max 9808 min
Histogram: 1 0 0 0 0 0 0 0 0 1
Nghost:    12612 ave 12631 max 12593 min
Histogram: 1 0 0 0 0 0 0 0 0 1
Neighs:    707360 ave 709244 max 705475 min
Histogram: 1 0 0 0 0 0 0 0 0 1

Total # of neighbors = 1414719
Ave neighs/atom = 71.9886
Neighbor list builds = 495
Dangerous builds not checked
Setting up Verlet run ...
  Unit style    : metal
  Current step  : 450495
  Time step     : 0.001
Per MPI rank memory allocation (min/avg/max) = 11.35 | 11.35 | 11.35 Mbytes
Step Temp Press TotEng PotEng Enthalpy 
  450495    371.17715    281.47549   -62918.048   -63860.872   -62856.598 
  460000    351.05842    117.78005    -63067.14    -63958.86   -63041.483 
Loop time of 853.881 on 2 procs for 9505 steps with 19652 atoms

Performance: 0.962 ns/day, 24.954 hours/ns, 11.132 timesteps/s
98.1% CPU use with 2 MPI tasks x no OpenMP threads

MPI task timing breakdown:
Section |  min time  |  avg time  |  max time  |%varavg| %total
---------------------------------------------------------------
Pair    | 451        | 456.52     | 462.05     |  25.9 | 53.46
Neigh   | 336.46     | 343.14     | 349.81     |  36.0 | 40.19
Comm    | 41.904     | 43.113     | 44.321     |  18.4 |  5.05
Output  | 0.04025    | 0.040275   | 0.040301   |   0.0 |  0.00
Modify  | 8.8434     | 8.8732     | 8.903      |   1.0 |  1.04
Other   |            | 2.195      |            |       |  0.26

Nlocal:    9826 ave 9839 max 9813 min
Histogram: 1 0 0 0 0 0 0 0 0 1
Nghost:    12665 ave 12667 max 12663 min
Histogram: 1 0 0 0 0 0 0 0 0 1
Neighs:    708782 ave 709847 max 707717 min
Histogram: 1 0 0 0 0 0 0 0 0 1

Total # of neighbors = 1417564
Ave neighs/atom = 72.1333
Neighbor list builds = 9505
Dangerous builds not checked
Setting up Verlet run ...
  Unit style    : metal
  Current step  : 460000
  Time step     : 0.001
Per MPI rank memory allocation (min/avg/max) = 11.35 | 11.35 | 11.35 Mbytes
Step Temp Press TotEng PotEng Enthalpy 
  460000    351.05842    117.78005    -63067.14    -63958.86   -63041.483 
  460495    325.29451   -166.32308   -63222.227   -64048.505     -63258.4 
Loop time of 44.7153 on 2 procs for 495 steps with 19652 atoms

Performance: 0.956 ns/day, 25.093 hours/ns, 11.070 timesteps/s
97.5% CPU use with 2 MPI tasks x no OpenMP threads

MPI task timing breakdown:
Section |  min time  |  avg time  |  max time  |%varavg| %total
---------------------------------------------------------------
Pair    | 23.897     | 24.013     | 24.128     |   2.4 | 53.70
Neigh   | 17.693     | 17.884     | 18.074     |   4.5 | 39.99
Comm    | 1.9315     | 2.2527     | 2.5738     |  21.4 |  5.04
Output  | 8.2016e-05 | 0.00012553 | 0.00016904 |   0.0 |  0.00
Modify  | 0.43477    | 0.44351    | 0.45225    |   1.3 |  0.99
Other   |            | 0.1226     |            |       |  0.27

Nlocal:    9826 ave 9831 max 9821 min
Histogram: 1 0 0 0 0 0 0 0 0 1
Nghost:    12615.5 ave 12618 max 12613 min
Histogram: 1 0 0 0 0 0 0 0 0 1
Neighs:    709850 ave 710193 max 709506 min
Histogram: 1 0 0 0 0 0 0 0 0 1

Total # of neighbors = 1419699
Ave neighs/atom = 72.242
Neighbor list builds = 495
Dangerous builds not checked
Setting up Verlet run ...
  Unit style    : metal
  Current step  : 460495
  Time step     : 0.001
Per MPI rank memory allocation (min/avg/max) = 11.35 | 11.35 | 11.35 Mbytes
Step Temp Press TotEng PotEng Enthalpy 
  460495    325.29451   -166.32308   -63222.227   -64048.505     -63258.4 
  470000    298.50175   -290.43672   -63372.617   -64130.839   -63435.664 
Loop time of 831.104 on 2 procs for 9505 steps with 19652 atoms

Performance: 0.988 ns/day, 24.289 hours/ns, 11.437 timesteps/s
97.1% CPU use with 2 MPI tasks x no OpenMP threads

MPI task timing breakdown:
Section |  min time  |  avg time  |  max time  |%varavg| %total
---------------------------------------------------------------
Pair    | 441.7      | 446.88     | 452.06     |  24.5 | 53.77
Neigh   | 325.62     | 330.9      | 336.18     |  29.0 | 39.81
Comm    | 42.787     | 42.92      | 43.053     |   2.0 |  5.16
Output  | 0.036443   | 0.036461   | 0.036478   |   0.0 |  0.00
Modify  | 8.2583     | 8.2633     | 8.2682     |   0.2 |  0.99
Other   |            | 2.103      |            |       |  0.25

Nlocal:    9826 ave 9828 max 9824 min
Histogram: 1 0 0 0 0 0 0 0 0 1
Nghost:    12626.5 ave 12637 max 12616 min
Histogram: 1 0 0 0 0 0 0 0 0 1
Neighs:    711074 ave 711604 max 710544 min
Histogram: 1 0 0 0 0 0 0 0 0 1

Total # of neighbors = 1422148
Ave neighs/atom = 72.3666
Neighbor list builds = 9505
Dangerous builds not checked
Setting up Verlet run ...
  Unit style    : metal
  Current step  : 470000
  Time step     : 0.001
Per MPI rank memory allocation (min/avg/max) = 11.35 | 11.35 | 11.35 Mbytes
Step Temp Press TotEng PotEng Enthalpy 
  470000    298.50175   -290.43672   -63372.617   -64130.839   -63435.664 
  470495    273.93437   -40.351527   -63508.428   -64204.247   -63517.169 
Loop time of 40.3217 on 2 procs for 495 steps with 19652 atoms

Performance: 1.061 ns/day, 22.627 hours/ns, 12.276 timesteps/s
98.6% CPU use with 2 MPI tasks x no OpenMP threads

MPI task timing breakdown:
Section |  min time  |  avg time  |  max time  |%varavg| %total
---------------------------------------------------------------
Pair    | 20.971     | 21.118     | 21.265     |   3.2 | 52.37
Neigh   | 16.469     | 16.59      | 16.712     |   3.0 | 41.14
Comm    | 2.0917     | 2.1195     | 2.1473     |   1.9 |  5.26
Output  | 9.8944e-05 | 0.00012398 | 0.00014901 |   0.0 |  0.00
Modify  | 0.38801    | 0.39009    | 0.39216    |   0.3 |  0.97
Other   |            | 0.1038     |            |       |  0.26

Nlocal:    9826 ave 9827 max 9825 min
Histogram: 1 0 0 0 0 0 0 0 0 1
Nghost:    12654.5 ave 12691 max 12618 min
Histogram: 1 0 0 0 0 0 0 0 0 1
Neighs:    712534 ave 712829 max 712240 min
Histogram: 1 0 0 0 0 0 0 0 0 1

Total # of neighbors = 1425069
Ave neighs/atom = 72.5152
Neighbor list builds = 495
Dangerous builds not checked
Setting up Verlet run ...
  Unit style    : metal
  Current step  : 470495
  Time step     : 0.001
Per MPI rank memory allocation (min/avg/max) = 11.35 | 11.35 | 11.35 Mbytes
Step Temp Press TotEng PotEng Enthalpy 
  470495    273.93437   -40.351527   -63508.428   -64204.247   -63517.169 
  480000    251.12217    49.382842   -63644.755   -64282.628   -63634.079 
Loop time of 846.166 on 2 procs for 9505 steps with 19652 atoms

Performance: 0.971 ns/day, 24.729 hours/ns, 11.233 timesteps/s
96.8% CPU use with 2 MPI tasks x no OpenMP threads

MPI task timing breakdown:
Section |  min time  |  avg time  |  max time  |%varavg| %total
---------------------------------------------------------------
Pair    | 447.29     | 452.49     | 457.7      |  24.5 | 53.48
Neigh   | 328.18     | 336.93     | 345.67     |  47.7 | 39.82
Comm    | 42.258     | 46.157     | 50.056     |  57.4 |  5.45
Output  | 0.044877   | 0.044901   | 0.044925   |   0.0 |  0.01
Modify  | 8.1229     | 8.4286     | 8.7342     |  10.5 |  1.00
Other   |            | 2.117      |            |       |  0.25

Nlocal:    9826 ave 9827 max 9825 min
Histogram: 1 0 0 0 0 0 0 0 0 1
Nghost:    12656.5 ave 12666 max 12647 min
Histogram: 1 0 0 0 0 0 0 0 0 1
Neighs:    713874 ave 714121 max 713627 min
Histogram: 1 0 0 0 0 0 0 0 0 1

Total # of neighbors = 1427748
Ave neighs/atom = 72.6515
Neighbor list builds = 9505
Dangerous builds not checked
Setting up Verlet run ...
  Unit style    : metal
  Current step  : 480000
  Time step     : 0.001
Per MPI rank memory allocation (min/avg/max) = 11.35 | 11.35 | 11.35 Mbytes
Step Temp Press TotEng PotEng Enthalpy 
  480000    251.12217    49.382842   -63644.755   -64282.628   -63634.079 
  480495    223.46965    42.856973   -63783.796   -64351.429   -63774.545 
Loop time of 44.1497 on 2 procs for 495 steps with 19652 atoms

Performance: 0.969 ns/day, 24.775 hours/ns, 11.212 timesteps/s
97.6% CPU use with 2 MPI tasks x no OpenMP threads

MPI task timing breakdown:
Section |  min time  |  avg time  |  max time  |%varavg| %total
---------------------------------------------------------------
Pair    | 23.311     | 23.609     | 23.908     |   6.1 | 53.48
Neigh   | 17.308     | 17.589     | 17.871     |   6.7 | 39.84
Comm    | 2.1766     | 2.1915     | 2.2065     |   1.0 |  4.96
Output  | 9.8944e-05 | 0.000126   | 0.00015306 |   0.0 |  0.00
Modify  | 0.6474     | 0.64873    | 0.65007    |   0.2 |  1.47
Other   |            | 0.1104     |            |       |  0.25

Nlocal:    9826 ave 9835 max 9817 min
Histogram: 1 0 0 0 0 0 0 0 0 1
Nghost:    12652 ave 12678 max 12626 min
Histogram: 1 0 0 0 0 0 0 0 0 1
Neighs:    715124 ave 715457 max 714790 min
Histogram: 1 0 0 0 0 0 0 0 0 1

Total # of neighbors = 1430247
Ave neighs/atom = 72.7787
Neighbor list builds = 495
Dangerous builds not checked
Setting up Verlet run ...
  Unit style    : metal
  Current step  : 480495
  Time step     : 0.001
Per MPI rank memory allocation (min/avg/max) = 11.35 | 11.35 | 11.35 Mbytes
Step Temp Press TotEng PotEng Enthalpy 
  480495    223.46965    42.856973   -63783.796   -64351.429   -63774.545 
  490000    199.58617    -394.0471    -63922.88   -64429.847   -64007.853 
Loop time of 798.363 on 2 procs for 9505 steps with 19652 atoms

Performance: 1.029 ns/day, 23.332 hours/ns, 11.906 timesteps/s
97.9% CPU use with 2 MPI tasks x no OpenMP threads

MPI task timing breakdown:
Section |  min time  |  avg time  |  max time  |%varavg| %total
---------------------------------------------------------------
Pair    | 423.49     | 426.96     | 430.43     |  16.8 | 53.48
Neigh   | 324.44     | 324.93     | 325.42     |   2.7 | 40.70
Comm    | 32.695     | 35.722     | 38.749     |  50.6 |  4.47
Output  | 0.034397   | 0.034417   | 0.034437   |   0.0 |  0.00
Modify  | 8.6493     | 8.6817     | 8.714      |   1.1 |  1.09
Other   |            | 2.033      |            |       |  0.25

Nlocal:    9826 ave 9857 max 9795 min
Histogram: 1 0 0 0 0 0 0 0 0 1
Nghost:    12668.5 ave 12706 max 12631 min
Histogram: 1 0 0 0 0 0 0 0 0 1
Neighs:    715688 ave 718369 max 713007 min
Histogram: 1 0 0 0 0 0 0 0 0 1

Total # of neighbors = 1431376
Ave neighs/atom = 72.8361
Neighbor list builds = 9505
Dangerous builds not checked
Setting up Verlet run ...
  Unit style    : metal
  Current step  : 490000
  Time step     : 0.001
Per MPI rank memory allocation (min/avg/max) = 11.35 | 11.35 | 11.35 Mbytes
Step Temp Press TotEng PotEng Enthalpy 
  490000    199.58617    -394.0471    -63922.88   -64429.847   -64007.853 
  490495    175.63718    86.969823   -64047.737   -64493.872   -64029.023 
Loop time of 39.0038 on 2 procs for 495 steps with 19652 atoms

Performance: 1.097 ns/day, 21.888 hours/ns, 12.691 timesteps/s
99.6% CPU use with 2 MPI tasks x no OpenMP threads

MPI task timing breakdown:
Section |  min time  |  avg time  |  max time  |%varavg| %total
---------------------------------------------------------------
Pair    | 20.732     | 20.978     | 21.223     |   5.4 | 53.78
Neigh   | 15.359     | 15.562     | 15.765     |   5.1 | 39.90
Comm    | 1.9506     | 1.9916     | 2.0327     |   2.9 |  5.11
Output  | 8.7976e-05 | 0.00011802 | 0.00014806 |   0.0 |  0.00
Modify  | 0.37461    | 0.37492    | 0.37523    |   0.1 |  0.96
Other   |            | 0.09749    |            |       |  0.25

Nlocal:    9826 ave 9837 max 9815 min
Histogram: 1 0 0 0 0 0 0 0 0 1
Nghost:    12682.5 ave 12701 max 12664 min
Histogram: 1 0 0 0 0 0 0 0 0 1
Neighs:    717260 ave 717966 max 716555 min
Histogram: 1 0 0 0 0 0 0 0 0 1

Total # of neighbors = 1434521
Ave neighs/atom = 72.9962
Neighbor list builds = 495
Dangerous builds not checked
Setting up Verlet run ...
  Unit style    : metal
  Current step  : 490495
  Time step     : 0.001
Per MPI rank memory allocation (min/avg/max) = 11.35 | 11.35 | 11.35 Mbytes
Step Temp Press TotEng PotEng Enthalpy 
  490495    175.63718    86.969823   -64047.737   -64493.872   -64029.023 
  500000    148.85151    637.77996    -64189.91   -64568.006   -64052.977 
Loop time of 785.602 on 2 procs for 9505 steps with 19652 atoms

Performance: 1.045 ns/day, 22.959 hours/ns, 12.099 timesteps/s
98.1% CPU use with 2 MPI tasks x no OpenMP threads

MPI task timing breakdown:
Section |  min time  |  avg time  |  max time  |%varavg| %total
---------------------------------------------------------------
Pair    | 413.19     | 416.41     | 419.63     |  15.8 | 53.00
Neigh   | 318.34     | 319.45     | 320.55     |   6.2 | 40.66
Comm    | 37.941     | 39.757     | 41.574     |  28.8 |  5.06
Output  | 0.035326   | 0.035341   | 0.035356   |   0.0 |  0.00
Modify  | 7.6734     | 7.9678     | 8.2622     |  10.4 |  1.01
Other   |            | 1.985      |            |       |  0.25

Nlocal:    9826 ave 9842 max 9810 min
Histogram: 1 0 0 0 0 0 0 0 0 1
Nghost:    12707.5 ave 12719 max 12696 min
Histogram: 1 0 0 0 0 0 0 0 0 1
Neighs:    718684 ave 720080 max 717288 min
Histogram: 1 0 0 0 0 0 0 0 0 1

Total # of neighbors = 1437368
Ave neighs/atom = 73.1411
Neighbor list builds = 9505
Dangerous builds not checked
Setting up Verlet run ...
  Unit style    : metal
  Current step  : 500000
  Time step     : 0.001
Per MPI rank memory allocation (min/avg/max) = 11.35 | 11.35 | 11.35 Mbytes
Step Temp Press TotEng PotEng Enthalpy 
  500000    148.85151    637.77996    -64189.91   -64568.006   -64052.977 
  500495    126.38899    146.37884   -64306.289   -64627.328   -64274.879 
Loop time of 41.1016 on 2 procs for 495 steps with 19652 atoms

Performance: 1.041 ns/day, 23.065 hours/ns, 12.043 timesteps/s
98.5% CPU use with 2 MPI tasks x no OpenMP threads

MPI task timing breakdown:
Section |  min time  |  avg time  |  max time  |%varavg| %total
---------------------------------------------------------------
Pair    | 21.903     | 22.148     | 22.393     |   5.2 | 53.89
Neigh   | 16.493     | 17.033     | 17.573     |  13.1 | 41.44
Comm    | 1.1012     | 1.4065     | 1.7118     |  25.7 |  3.42
Output  | 0.00010705 | 0.00011897 | 0.00013089 |   0.0 |  0.00
Modify  | 0.40085    | 0.40798    | 0.4151     |   1.1 |  0.99
Other   |            | 0.1057     |            |       |  0.26

Nlocal:    9826 ave 9839 max 9813 min
Histogram: 1 0 0 0 0 0 0 0 0 1
Nghost:    12695.5 ave 12711 max 12680 min
Histogram: 1 0 0 0 0 0 0 0 0 1
Neighs:    719245 ave 720572 max 717918 min
Histogram: 1 0 0 0 0 0 0 0 0 1

Total # of neighbors = 1438490
Ave neighs/atom = 73.1981
Neighbor list builds = 495
Dangerous builds not checked
Setting up Verlet run ...
  Unit style    : metal
  Current step  : 500495
  Time step     : 0.001
Per MPI rank memory allocation (min/avg/max) = 11.35 | 11.35 | 11.35 Mbytes
Step Temp Press TotEng PotEng Enthalpy 
  500495    126.38899    146.37884   -64306.289   -64627.328   -64274.879 
  510000    98.820578    276.67159    -64447.57   -64698.584   -64388.295 
Loop time of 785.459 on 2 procs for 9505 steps with 19652 atoms

Performance: 1.046 ns/day, 22.955 hours/ns, 12.101 timesteps/s
98.3% CPU use with 2 MPI tasks x no OpenMP threads

MPI task timing breakdown:
Section |  min time  |  avg time  |  max time  |%varavg| %total
---------------------------------------------------------------
Pair    | 417.88     | 421.11     | 424.34     |  15.7 | 53.61
Neigh   | 314.4      | 320.22     | 326.05     |  32.6 | 40.77
Comm    | 31.684     | 34.371     | 37.058     |  45.8 |  4.38
Output  | 0.036975   | 0.036996   | 0.037016   |   0.0 |  0.00
Modify  | 7.6666     | 7.7161     | 7.7657     |   1.8 |  0.98
Other   |            | 2          |            |       |  0.25

Nlocal:    9826 ave 9834 max 9818 min
Histogram: 1 0 0 0 0 0 0 0 0 1
Nghost:    12733.5 ave 12744 max 12723 min
Histogram: 1 0 0 0 0 0 0 0 0 1
Neighs:    720355 ave 721142 max 719568 min
Histogram: 1 0 0 0 0 0 0 0 0 1

Total # of neighbors = 1440710
Ave neighs/atom = 73.3111
Neighbor list builds = 9505
Dangerous builds not checked
Total wall time: 14:20:05
