LAMMPS (12 Dec 2018)
Lattice spacing in x,y,z = 4 4 4
Created orthogonal box = (0 0 0) to (68 68 68)
  1 by 1 by 2 MPI processor grid
Created 19652 atoms
  Time spent = 0.00142789 secs
Setting atom values ...
  206 settings made for type/fraction
Neighbor list info ...
  update every 1 steps, delay 0 steps, check no
  max neighbors/atom: 2000, page size: 100000
  master list distance cutoff = 10
  ghost atom cutoff = 10
  binsize = 5, bins = 14 14 14
  1 neighbor lists, perpetual/occasional/extra = 1 0 0
  (1) pair eam/fs, perpetual
      attributes: half, newton on
      pair build: half/bin/atomonly/newton
      stencil: half/bin/3d/newton
      bin: standard
Setting up Verlet run ...
  Unit style    : metal
  Current step  : 0
  Time step     : 0.001
Per MPI rank memory allocation (min/avg/max) = 12.91 | 12.92 | 12.92 Mbytes
Step Temp Press TotEng PotEng Enthalpy Volume 
       0          300    42702.571   -75848.808   -76610.835   -67468.298       314432 
    1000    193.33438    49606.757   -75848.708   -76339.795   -66113.232       314432 
Loop time of 192.371 on 2 procs for 1000 steps with 19652 atoms

Performance: 0.449 ns/day, 53.436 hours/ns, 5.198 timesteps/s
92.4% CPU use with 2 MPI tasks x no OpenMP threads

MPI task timing breakdown:
Section |  min time  |  avg time  |  max time  |%varavg| %total
---------------------------------------------------------------
Pair    | 120.41     | 122.44     | 124.46     |  18.3 | 63.65
Neigh   | 60.708     | 61.684     | 62.661     |  12.4 | 32.07
Comm    | 6.7105     | 7.7493     | 8.788      |  37.3 |  4.03
Output  | 0.037824   | 0.037884   | 0.037945   |   0.0 |  0.02
Modify  | 0.23464    | 0.23592    | 0.2372     |   0.3 |  0.12
Other   |            | 0.2259     |            |       |  0.12

Nlocal:    9826 ave 9875 max 9777 min
Histogram: 1 0 0 0 0 0 0 0 0 1
Nghost:    16285 ave 16301 max 16269 min
Histogram: 1 0 0 0 0 0 0 0 0 1
Neighs:    1.22772e+06 ave 1.25424e+06 max 1.2012e+06 min
Histogram: 1 0 0 0 0 0 0 0 0 1

Total # of neighbors = 2455438
Ave neighs/atom = 124.946
Neighbor list builds = 1000
Dangerous builds not checked
Setting up Verlet run ...
  Unit style    : metal
  Current step  : 1000
  Time step     : 0.001
Per MPI rank memory allocation (min/avg/max) = 12.93 | 12.93 | 12.94 Mbytes
Step Temp Press TotEng PotEng Enthalpy Volume 
    1000    193.33438    49606.757   -75848.708   -76339.795   -66113.232       314432 
    2000    306.06885   -50.107537   -75415.927   -76193.369   -75426.401    334909.43 
Loop time of 188.787 on 2 procs for 1000 steps with 19652 atoms

Performance: 0.458 ns/day, 52.441 hours/ns, 5.297 timesteps/s
93.0% CPU use with 2 MPI tasks x no OpenMP threads

MPI task timing breakdown:
Section |  min time  |  avg time  |  max time  |%varavg| %total
---------------------------------------------------------------
Pair    | 117.8      | 119.49     | 121.17     |  15.4 | 63.29
Neigh   | 59.685     | 60.231     | 60.776     |   7.0 | 31.90
Comm    | 5.6066     | 7.8439     | 10.081     |  79.9 |  4.15
Output  | 0.034185   | 0.034201   | 0.034217   |   0.0 |  0.02
Modify  | 0.95234    | 0.95344    | 0.95454    |   0.1 |  0.51
Other   |            | 0.2384     |            |       |  0.13

Nlocal:    9826 ave 9852 max 9800 min
Histogram: 1 0 0 0 0 0 0 0 0 1
Nghost:    14341 ave 14363 max 14319 min
Histogram: 1 0 0 0 0 0 0 0 0 1
Neighs:    1.15812e+06 ave 1.17396e+06 max 1.14228e+06 min
Histogram: 1 0 0 0 0 0 0 0 0 1

Total # of neighbors = 2316238
Ave neighs/atom = 117.863
Neighbor list builds = 1000
Dangerous builds not checked
Setting up Verlet run ...
  Unit style    : metal
  Current step  : 2000
  Time step     : 0.001
Per MPI rank memory allocation (min/avg/max) = 12.93 | 12.93 | 12.94 Mbytes
Step Temp Press TotEng PotEng Enthalpy Volume 
    2000    306.06885   -50.107537   -75415.927   -76193.369   -75426.401    334909.43 
    3000    471.68575   -246.81808   -74534.101   -75732.226   -74586.342    339109.07 
    4000    782.12533    145.17611   -72665.343   -74652.013   -72633.705     349163.8 
    5000    1077.7924    88.151211   -70672.948   -73410.639   -70653.047    361699.99 
    6000    1306.4009   -28.632072   -68221.328   -71539.706   -68228.148    381618.46 
    7000     1641.462    604.02969   -65813.465   -69982.928    -65663.36    398150.54 
    8000    1916.3163     295.0091   -64309.082     -69176.7   -64234.082    407319.55 
    9000    2168.4861   -877.08546   -62823.251   -68331.404   -63051.636    417191.91 
   10000    2447.1294    361.78191    -61345.55   -67561.482   -61249.431    425669.44 
Loop time of 1389.83 on 2 procs for 8000 steps with 19652 atoms

Performance: 0.497 ns/day, 48.258 hours/ns, 5.756 timesteps/s
92.2% CPU use with 2 MPI tasks x no OpenMP threads

MPI task timing breakdown:
Section |  min time  |  avg time  |  max time  |%varavg| %total
---------------------------------------------------------------
Pair    | 868.08     | 876.97     | 885.86     |  30.0 | 63.10
Neigh   | 444.1      | 444.74     | 445.38     |   3.0 | 32.00
Comm    | 49.406     | 57.741     | 66.076     | 109.7 |  4.15
Output  | 0.32873    | 0.32896    | 0.32919    |   0.0 |  0.02
Modify  | 8.0673     | 8.1666     | 8.2659     |   3.5 |  0.59
Other   |            | 1.884      |            |       |  0.14

Nlocal:    9826 ave 9854 max 9798 min
Histogram: 1 0 0 0 0 0 0 0 0 1
Nghost:    14302 ave 14315 max 14289 min
Histogram: 1 0 0 0 0 0 0 0 0 1
Neighs:    945344 ave 951122 max 939567 min
Histogram: 1 0 0 0 0 0 0 0 0 1

Total # of neighbors = 1890689
Ave neighs/atom = 96.2085
Neighbor list builds = 8000
Dangerous builds not checked
Setting up Verlet run ...
  Unit style    : metal
  Current step  : 10000
  Time step     : 0.001
Per MPI rank memory allocation (min/avg/max) = 12.96 | 12.96 | 12.97 Mbytes
Step Temp Press TotEng PotEng Enthalpy Volume 
   10000    2447.1294    361.78191    -61345.55   -67561.482   -61249.431    425669.44 
   11000    2466.5532     -1329.86   -61281.228   -67546.498   -61635.829    427212.42 
   12000    2467.5981   -755.80553   -61196.966    -67464.89   -61398.747     427741.9 
   13000    2443.9496   -492.97885   -61350.738   -67558.593     -61481.9     426276.4 
   14000    2462.8657    346.44233   -61374.227    -67630.13   -61282.348     424907.1 
   15000    2437.7579    322.46196   -61464.771   -67656.898    -61379.31       424620 
   16000    2475.3619   -168.25187    -61254.12   -67541.765   -61298.902    426432.67 
   17000    2474.0602    467.53393   -61243.776   -67528.115   -61119.382    426281.99 
   18000    2473.5107    511.70722   -61302.047    -67584.99   -61166.161    425464.85 
   19000    2431.9752    918.66088   -61415.038   -67592.477   -61171.493    424751.61 
   20000    2425.3497   -617.96952   -61398.094   -67558.703   -61562.533    426332.66 
   21000    2443.4813    11.382353   -61417.731   -67624.396   -61414.711    425109.64 
   22000    2449.2984   -709.08796   -61343.615   -67565.056   -61532.362    426472.74 
   23000    2439.5154   -1573.0038   -61326.137   -67522.728    -61745.73    427375.01 
   24000    2438.4734    546.13782    -61402.01   -67595.955    -61257.19    424851.86 
   25000    2452.0552   -475.11932   -61357.707   -67586.151   -61483.997    425868.57 
   26000    2439.4443    -64.61628   -61332.812   -67529.223    -61350.01    426430.66 
   27000    2462.7203   -153.56167   -61298.041   -67553.575   -61338.892    426221.63 
   28000     2447.511    1164.4686   -61388.066   -67604.967   -61079.541    424495.41 
   29000     2463.917   -527.21377   -61316.365   -67574.938   -61456.544    425998.53 
   30000    2455.8101    1437.8592   -61408.306   -67646.288   -61028.094    423662.98 
   31000     2445.349    392.57629   -61346.724   -67558.133   -61242.456    425535.58 
   32000      2449.39   -1424.5436   -61312.745   -67534.419   -61692.438    427038.65 
   33000    2440.1912    160.21352   -61351.766   -67550.074   -61309.189    425780.12 
   34000    2453.8729    240.51909   -61341.209   -67574.269   -61277.321    425577.87 
   35000    2436.3812    197.69133    -61463.84   -67652.471   -61411.465    424473.31 
   36000    2460.8002   -688.36882   -61384.893    -67635.55   -61567.753    425605.94 
   37000    2464.7365   -1284.6153   -61286.729   -67547.385   -61629.124    427035.59 
   38000     2427.409    1154.9964   -61411.853   -67577.693   -61105.592    424836.07 
   39000    2451.4751    1382.0547   -61399.014   -67625.985   -61033.143    424143.72 
   40000    2435.2519   -288.55727   -61428.925   -67614.687   -61505.535    425368.55 
Loop time of 4314.36 on 2 procs for 30000 steps with 19652 atoms

Performance: 0.601 ns/day, 39.948 hours/ns, 6.954 timesteps/s
96.7% CPU use with 2 MPI tasks x no OpenMP threads

MPI task timing breakdown:
Section |  min time  |  avg time  |  max time  |%varavg| %total
---------------------------------------------------------------
Pair    | 2702.5     | 2742.9     | 2783.4     |  77.3 | 63.58
Neigh   | 1381.7     | 1382.8     | 1384       |   3.1 | 32.05
Comm    | 116.66     | 155.72     | 194.77     | 313.0 |  3.61
Output  | 1.1559     | 1.1569     | 1.1579     |   0.1 |  0.03
Modify  | 25.027     | 25.287     | 25.548     |   5.2 |  0.59
Other   |            | 6.442      |            |       |  0.15

Nlocal:    9826 ave 9837 max 9815 min
Histogram: 1 0 0 0 0 0 0 0 0 1
Nghost:    14266.5 ave 14308 max 14225 min
Histogram: 1 0 0 0 0 0 0 0 0 1
Neighs:    945878 ave 956026 max 935729 min
Histogram: 1 0 0 0 0 0 0 0 0 1

Total # of neighbors = 1891755
Ave neighs/atom = 96.2627
Neighbor list builds = 30000
Dangerous builds not checked
Setting up Verlet run ...
  Unit style    : metal
  Current step  : 40000
  Time step     : 0.001
Per MPI rank memory allocation (min/avg/max) = 13.04 | 13.05 | 13.05 Mbytes
Step Temp Press TotEng PotEng Enthalpy Volume 
   40000    2435.2519   -288.55727   -61428.925   -67614.687   -61505.535    425368.55 
   40495    2410.3222   -285.60468   -61454.148   -67576.586   -61530.081    425967.82 
Loop time of 66.4884 on 2 procs for 495 steps with 19652 atoms

Performance: 0.643 ns/day, 37.311 hours/ns, 7.445 timesteps/s
98.3% CPU use with 2 MPI tasks x no OpenMP threads

MPI task timing breakdown:
Section |  min time  |  avg time  |  max time  |%varavg| %total
---------------------------------------------------------------
Pair    | 41.605     | 42.075     | 42.545     |   7.2 | 63.28
Neigh   | 20.817     | 21.14      | 21.462     |   7.0 | 31.79
Comm    | 2.6452     | 2.7908     | 2.9363     |   8.7 |  4.20
Output  | 7.6056e-05 | 0.0001235  | 0.00017095 |   0.0 |  0.00
Modify  | 0.38037    | 0.38058    | 0.38078    |   0.0 |  0.57
Other   |            | 0.1025     |            |       |  0.15

Nlocal:    9826 ave 9838 max 9814 min
Histogram: 1 0 0 0 0 0 0 0 0 1
Nghost:    14279.5 ave 14335 max 14224 min
Histogram: 1 0 0 0 0 0 0 0 0 1
Neighs:    944410 ave 958318 max 930501 min
Histogram: 1 0 0 0 0 0 0 0 0 1

Total # of neighbors = 1888819
Ave neighs/atom = 96.1133
Neighbor list builds = 495
Dangerous builds not checked
Setting up Verlet run ...
  Unit style    : metal
  Current step  : 40495
  Time step     : 0.001
Per MPI rank memory allocation (min/avg/max) = 13.04 | 13.05 | 13.05 Mbytes
Step Temp Press TotEng PotEng Enthalpy Volume 
   40495    2410.3222   -285.60468   -61454.148   -67576.586   -61530.081    425967.82 
   41000    2393.7279   -190.35579   -61679.232   -67759.519   -61729.581     423776.9 
Loop time of 68.6772 on 2 procs for 505 steps with 19652 atoms

Performance: 0.635 ns/day, 37.776 hours/ns, 7.353 timesteps/s
97.7% CPU use with 2 MPI tasks x no OpenMP threads

MPI task timing breakdown:
Section |  min time  |  avg time  |  max time  |%varavg| %total
---------------------------------------------------------------
Pair    | 43.258     | 43.908     | 44.558     |   9.8 | 63.93
Neigh   | 21.412     | 21.597     | 21.781     |   4.0 | 31.45
Comm    | 1.8059     | 2.643      | 3.4802     |  51.5 |  3.85
Output  | 0.035409   | 0.035425   | 0.035442   |   0.0 |  0.05
Modify  | 0.38635    | 0.38901    | 0.39168    |   0.4 |  0.57
Other   |            | 0.1046     |            |       |  0.15

Nlocal:    9826 ave 9826 max 9826 min
Histogram: 2 0 0 0 0 0 0 0 0 0
Nghost:    14292 ave 14292 max 14292 min
Histogram: 2 0 0 0 0 0 0 0 0 0
Neighs:    949816 ave 960600 max 939032 min
Histogram: 1 0 0 0 0 0 0 0 0 1

Total # of neighbors = 1899632
Ave neighs/atom = 96.6635
Neighbor list builds = 505
Dangerous builds not checked
Setting up Verlet run ...
  Unit style    : metal
  Current step  : 41000
  Time step     : 0.001
Per MPI rank memory allocation (min/avg/max) = 13.04 | 13.05 | 13.06 Mbytes
Step Temp Press TotEng PotEng Enthalpy Volume 
   41000    2393.7279   -190.35579   -61679.232   -67759.519   -61729.581     423776.9 
   41495    2369.6269   -737.69584   -61817.832     -67836.9   -62012.581    422968.16 
Loop time of 65.0112 on 2 procs for 495 steps with 19652 atoms

Performance: 0.658 ns/day, 36.482 hours/ns, 7.614 timesteps/s
99.7% CPU use with 2 MPI tasks x no OpenMP threads

MPI task timing breakdown:
Section |  min time  |  avg time  |  max time  |%varavg| %total
---------------------------------------------------------------
Pair    | 40.641     | 41.541     | 42.442     |  14.0 | 63.90
Neigh   | 18.805     | 20.115     | 21.424     |  29.2 | 30.94
Comm    | 0.6488     | 2.8807     | 5.1125     | 131.5 |  4.43
Output  | 7.7963e-05 | 0.00010753 | 0.00013709 |   0.0 |  0.00
Modify  | 0.35934    | 0.37466    | 0.38998    |   2.5 |  0.58
Other   |            | 0.09953    |            |       |  0.15

Nlocal:    9826 ave 9831 max 9821 min
Histogram: 1 0 0 0 0 0 0 0 0 1
Nghost:    14294.5 ave 14305 max 14284 min
Histogram: 1 0 0 0 0 0 0 0 0 1
Neighs:    951157 ave 960193 max 942121 min
Histogram: 1 0 0 0 0 0 0 0 0 1

Total # of neighbors = 1902314
Ave neighs/atom = 96.8
Neighbor list builds = 495
Dangerous builds not checked
Setting up Verlet run ...
  Unit style    : metal
  Current step  : 41495
  Time step     : 0.001
Per MPI rank memory allocation (min/avg/max) = 13.04 | 13.05 | 13.06 Mbytes
Step Temp Press TotEng PotEng Enthalpy Volume 
   41495    2369.6269   -737.69584   -61817.832     -67836.9   -62012.581    422968.16 
   42000    2352.0758    590.71009   -61909.365   -67883.851   -61753.924    421600.75 
Loop time of 67.4137 on 2 procs for 505 steps with 19652 atoms

Performance: 0.647 ns/day, 37.081 hours/ns, 7.491 timesteps/s
99.1% CPU use with 2 MPI tasks x no OpenMP threads

MPI task timing breakdown:
Section |  min time  |  avg time  |  max time  |%varavg| %total
---------------------------------------------------------------
Pair    | 42.022     | 42.445     | 42.867     |   6.5 | 62.96
Neigh   | 21.175     | 21.268     | 21.361     |   2.0 | 31.55
Comm    | 2.861      | 3.1903     | 3.5196     |  18.4 |  4.73
Output  | 0.035021   | 0.035044   | 0.035068   |   0.0 |  0.05
Modify  | 0.37292    | 0.37347    | 0.37401    |   0.1 |  0.55
Other   |            | 0.1021     |            |       |  0.15

Nlocal:    9826 ave 9863 max 9789 min
Histogram: 1 0 0 0 0 0 0 0 0 1
Nghost:    14372.5 ave 14376 max 14369 min
Histogram: 1 0 0 0 0 0 0 0 0 1
Neighs:    954104 ave 959896 max 948311 min
Histogram: 1 0 0 0 0 0 0 0 0 1

Total # of neighbors = 1908207
Ave neighs/atom = 97.0999
Neighbor list builds = 505
Dangerous builds not checked
Setting up Verlet run ...
  Unit style    : metal
  Current step  : 42000
  Time step     : 0.001
Per MPI rank memory allocation (min/avg/max) = 13.05 | 13.05 | 13.06 Mbytes
Step Temp Press TotEng PotEng Enthalpy Volume 
   42000    2352.0758    590.71009   -61909.365   -67883.851   -61753.924    421600.75 
   42495     2319.894    604.79866   -62065.096   -67957.838    -61906.18    420986.91 
Loop time of 65.844 on 2 procs for 495 steps with 19652 atoms

Performance: 0.650 ns/day, 36.950 hours/ns, 7.518 timesteps/s
97.6% CPU use with 2 MPI tasks x no OpenMP threads

MPI task timing breakdown:
Section |  min time  |  avg time  |  max time  |%varavg| %total
---------------------------------------------------------------
Pair    | 40.06      | 40.611     | 41.161     |   8.6 | 61.68
Neigh   | 21.363     | 21.43      | 21.497     |   1.4 | 32.55
Comm    | 2.853      | 3.3364     | 3.8198     |  26.5 |  5.07
Output  | 7.6056e-05 | 0.00011706 | 0.00015807 |   0.0 |  0.00
Modify  | 0.36678    | 0.36711    | 0.36744    |   0.1 |  0.56
Other   |            | 0.0994     |            |       |  0.15

Nlocal:    9826 ave 9830 max 9822 min
Histogram: 1 0 0 0 0 0 0 0 0 1
Nghost:    14343.5 ave 14350 max 14337 min
Histogram: 1 0 0 0 0 0 0 0 0 1
Neighs:    955702 ave 956365 max 955039 min
Histogram: 1 0 0 0 0 0 0 0 0 1

Total # of neighbors = 1911404
Ave neighs/atom = 97.2626
Neighbor list builds = 495
Dangerous builds not checked
Setting up Verlet run ...
  Unit style    : metal
  Current step  : 42495
  Time step     : 0.001
Per MPI rank memory allocation (min/avg/max) = 13.05 | 13.05 | 13.06 Mbytes
Step Temp Press TotEng PotEng Enthalpy Volume 
   42495     2319.894    604.79866   -62065.096   -67957.838    -61906.18    420986.91 
   43000    2307.1629   -273.86964   -62145.894   -68006.298   -62217.802    420671.96 
Loop time of 63.7125 on 2 procs for 505 steps with 19652 atoms

Performance: 0.685 ns/day, 35.045 hours/ns, 7.926 timesteps/s
99.4% CPU use with 2 MPI tasks x no OpenMP threads

MPI task timing breakdown:
Section |  min time  |  avg time  |  max time  |%varavg| %total
---------------------------------------------------------------
Pair    | 38.552     | 39.063     | 39.574     |   8.2 | 61.31
Neigh   | 22.035     | 22.354     | 22.674     |   6.8 | 35.09
Comm    | 0.9687     | 1.8051     | 2.6414     |  62.3 |  2.83
Output  | 0.031132   | 0.031143   | 0.031154   |   0.0 |  0.05
Modify  | 0.35712    | 0.36138    | 0.36564    |   0.7 |  0.57
Other   |            | 0.09762    |            |       |  0.15

Nlocal:    9826 ave 9835 max 9817 min
Histogram: 1 0 0 0 0 0 0 0 0 1
Nghost:    14401 ave 14421 max 14381 min
Histogram: 1 0 0 0 0 0 0 0 0 1
Neighs:    956334 ave 958016 max 954652 min
Histogram: 1 0 0 0 0 0 0 0 0 1

Total # of neighbors = 1912668
Ave neighs/atom = 97.3269
Neighbor list builds = 505
Dangerous builds not checked
Setting up Verlet run ...
  Unit style    : metal
  Current step  : 43000
  Time step     : 0.001
Per MPI rank memory allocation (min/avg/max) = 13.05 | 13.05 | 13.06 Mbytes
Step Temp Press TotEng PotEng Enthalpy Volume 
   43000    2307.1629   -273.86964   -62145.894   -68006.298   -62217.802    420671.96 
   43495    2249.2369    1139.3974   -62374.434   -68087.701    -62076.67    418704.23 
Loop time of 61.3574 on 2 procs for 495 steps with 19652 atoms

Performance: 0.697 ns/day, 34.432 hours/ns, 8.067 timesteps/s
99.7% CPU use with 2 MPI tasks x no OpenMP threads

MPI task timing breakdown:
Section |  min time  |  avg time  |  max time  |%varavg| %total
---------------------------------------------------------------
Pair    | 37.464     | 37.779     | 38.093     |   5.1 | 61.57
Neigh   | 20.923     | 21.064     | 21.205     |   3.1 | 34.33
Comm    | 1.6163     | 2.0766     | 2.5369     |  31.9 |  3.38
Output  | 9.4891e-05 | 0.00013554 | 0.00017619 |   0.0 |  0.00
Modify  | 0.3419     | 0.34525    | 0.34861    |   0.6 |  0.56
Other   |            | 0.09244    |            |       |  0.15

Nlocal:    9826 ave 9835 max 9817 min
Histogram: 1 0 0 0 0 0 0 0 0 1
Nghost:    14367 ave 14408 max 14326 min
Histogram: 1 0 0 0 0 0 0 0 0 1
Neighs:    961208 ave 962358 max 960058 min
Histogram: 1 0 0 0 0 0 0 0 0 1

Total # of neighbors = 1922416
Ave neighs/atom = 97.8229
Neighbor list builds = 495
Dangerous builds not checked
Setting up Verlet run ...
  Unit style    : metal
  Current step  : 43495
  Time step     : 0.001
Per MPI rank memory allocation (min/avg/max) = 13.05 | 13.05 | 13.06 Mbytes
Step Temp Press TotEng PotEng Enthalpy Volume 
   43495    2249.2369    1139.3974   -62374.434   -68087.701    -62076.67    418704.23 
   44000    2271.3096    1108.0547   -62373.897   -68143.231   -62084.672    418200.97 
Loop time of 62.0031 on 2 procs for 505 steps with 19652 atoms

Performance: 0.704 ns/day, 34.105 hours/ns, 8.145 timesteps/s
98.8% CPU use with 2 MPI tasks x no OpenMP threads

MPI task timing breakdown:
Section |  min time  |  avg time  |  max time  |%varavg| %total
---------------------------------------------------------------
Pair    | 37.699     | 37.705     | 37.712     |   0.1 | 60.81
Neigh   | 20.623     | 21.039     | 21.456     |   9.1 | 33.93
Comm    | 2.3662     | 2.7843     | 3.2024     |  25.1 |  4.49
Output  | 0.035715   | 0.035748   | 0.03578    |   0.0 |  0.06
Modify  | 0.33762    | 0.34202    | 0.34642    |   0.8 |  0.55
Other   |            | 0.09639    |            |       |  0.16

Nlocal:    9826 ave 9828 max 9824 min
Histogram: 1 0 0 0 0 0 0 0 0 1
Nghost:    14362 ave 14373 max 14351 min
Histogram: 1 0 0 0 0 0 0 0 0 1
Neighs:    962056 ave 962477 max 961636 min
Histogram: 1 0 0 0 0 0 0 0 0 1

Total # of neighbors = 1924113
Ave neighs/atom = 97.9093
Neighbor list builds = 505
Dangerous builds not checked
Setting up Verlet run ...
  Unit style    : metal
  Current step  : 44000
  Time step     : 0.001
Per MPI rank memory allocation (min/avg/max) = 13.05 | 13.05 | 13.06 Mbytes
Step Temp Press TotEng PotEng Enthalpy Volume 
   44000    2271.3096    1108.0547   -62373.897   -68143.231   -62084.672    418200.97 
   44495    2201.3176    861.68274   -62623.443    -68214.99   -62398.835    417627.58 
Loop time of 63.2782 on 2 procs for 495 steps with 19652 atoms

Performance: 0.676 ns/day, 35.510 hours/ns, 7.823 timesteps/s
98.5% CPU use with 2 MPI tasks x no OpenMP threads

MPI task timing breakdown:
Section |  min time  |  avg time  |  max time  |%varavg| %total
---------------------------------------------------------------
Pair    | 38.584     | 39.005     | 39.426     |   6.7 | 61.64
Neigh   | 21.134     | 21.316     | 21.498     |   3.9 | 33.69
Comm    | 2.2684     | 2.5055     | 2.7426     |  15.0 |  3.96
Output  | 7.6056e-05 | 0.00011492 | 0.00015378 |   0.0 |  0.00
Modify  | 0.35047    | 0.35345    | 0.35643    |   0.5 |  0.56
Other   |            | 0.09855    |            |       |  0.16

Nlocal:    9826 ave 9827 max 9825 min
Histogram: 1 0 0 0 0 0 0 0 0 1
Nghost:    14438.5 ave 14481 max 14396 min
Histogram: 1 0 0 0 0 0 0 0 0 1
Neighs:    963498 ave 964309 max 962688 min
Histogram: 1 0 0 0 0 0 0 0 0 1

Total # of neighbors = 1926997
Ave neighs/atom = 98.056
Neighbor list builds = 495
Dangerous builds not checked
Setting up Verlet run ...
  Unit style    : metal
  Current step  : 44495
  Time step     : 0.001
Per MPI rank memory allocation (min/avg/max) = 13.05 | 13.05 | 13.06 Mbytes
Step Temp Press TotEng PotEng Enthalpy Volume 
   44495    2201.3176    861.68274   -62623.443    -68214.99   -62398.835    417627.58 
   45000    2214.9869    789.64314    -62641.15   -68267.419   -62435.772    416710.83 
Loop time of 70.4301 on 2 procs for 505 steps with 19652 atoms

Performance: 0.620 ns/day, 38.740 hours/ns, 7.170 timesteps/s
98.1% CPU use with 2 MPI tasks x no OpenMP threads

MPI task timing breakdown:
Section |  min time  |  avg time  |  max time  |%varavg| %total
---------------------------------------------------------------
Pair    | 43.552     | 43.941     | 44.329     |   5.9 | 62.39
Neigh   | 23.3       | 23.739     | 24.179     |   9.0 | 33.71
Comm    | 1.3947     | 2.2292     | 3.0637     |  55.9 |  3.17
Output  | 0.028836   | 0.028849   | 0.028863   |   0.0 |  0.04
Modify  | 0.38225    | 0.38754    | 0.39282    |   0.8 |  0.55
Other   |            | 0.1047     |            |       |  0.15

Nlocal:    9826 ave 9831 max 9821 min
Histogram: 1 0 0 0 0 0 0 0 0 1
Nghost:    14367 ave 14389 max 14345 min
Histogram: 1 0 0 0 0 0 0 0 0 1
Neighs:    965702 ave 967658 max 963746 min
Histogram: 1 0 0 0 0 0 0 0 0 1

Total # of neighbors = 1931404
Ave neighs/atom = 98.2803
Neighbor list builds = 505
Dangerous builds not checked
Setting up Verlet run ...
  Unit style    : metal
  Current step  : 45000
  Time step     : 0.001
Per MPI rank memory allocation (min/avg/max) = 13.05 | 13.06 | 13.06 Mbytes
Step Temp Press TotEng PotEng Enthalpy Volume 
   45000    2214.9869    789.64314    -62641.15   -68267.419   -62435.772    416710.83 
   45495    2162.5476    1567.3013   -62871.031   -68364.099   -62464.553       415523 
Loop time of 59.8588 on 2 procs for 495 steps with 19652 atoms

Performance: 0.714 ns/day, 33.591 hours/ns, 8.269 timesteps/s
98.8% CPU use with 2 MPI tasks x no OpenMP threads

MPI task timing breakdown:
Section |  min time  |  avg time  |  max time  |%varavg| %total
---------------------------------------------------------------
Pair    | 36.685     | 36.978     | 37.271     |   4.8 | 61.78
Neigh   | 19.333     | 20.045     | 20.757     |  15.9 | 33.49
Comm    | 1.9929     | 2.4195     | 2.846      |  27.4 |  4.04
Output  | 8.0824e-05 | 0.00010431 | 0.00012779 |   0.0 |  0.00
Modify  | 0.32081    | 0.32686    | 0.33291    |   1.1 |  0.55
Other   |            | 0.08909    |            |       |  0.15

Nlocal:    9826 ave 9857 max 9795 min
Histogram: 1 0 0 0 0 0 0 0 0 1
Nghost:    14444.5 ave 14454 max 14435 min
Histogram: 1 0 0 0 0 0 0 0 0 1
Neighs:    968218 ave 971391 max 965045 min
Histogram: 1 0 0 0 0 0 0 0 0 1

Total # of neighbors = 1936436
Ave neighs/atom = 98.5363
Neighbor list builds = 495
Dangerous builds not checked
Setting up Verlet run ...
  Unit style    : metal
  Current step  : 45495
  Time step     : 0.001
Per MPI rank memory allocation (min/avg/max) = 13.05 | 13.06 | 13.06 Mbytes
Step Temp Press TotEng PotEng Enthalpy Volume 
   45495    2162.5476    1567.3013   -62871.031   -68364.099   -62464.553       415523 
   46000    2152.3548     343.7183   -63032.876   -68500.053   -62943.916    414671.93 
Loop time of 63.7591 on 2 procs for 505 steps with 19652 atoms

Performance: 0.684 ns/day, 35.071 hours/ns, 7.920 timesteps/s
99.2% CPU use with 2 MPI tasks x no OpenMP threads

MPI task timing breakdown:
Section |  min time  |  avg time  |  max time  |%varavg| %total
---------------------------------------------------------------
Pair    | 38.748     | 39.135     | 39.522     |   6.2 | 61.38
Neigh   | 21.44      | 21.579     | 21.718     |   3.0 | 33.84
Comm    | 2.2896     | 2.5377     | 2.7859     |  15.6 |  3.98
Output  | 0.033117   | 0.033139   | 0.033161   |   0.0 |  0.05
Modify  | 0.37794    | 0.37802    | 0.3781     |   0.0 |  0.59
Other   |            | 0.096      |            |       |  0.15

Nlocal:    9826 ave 9839 max 9813 min
Histogram: 1 0 0 0 0 0 0 0 0 1
Nghost:    14489 ave 14504 max 14474 min
Histogram: 1 0 0 0 0 0 0 0 0 1
Neighs:    970714 ave 972573 max 968855 min
Histogram: 1 0 0 0 0 0 0 0 0 1

Total # of neighbors = 1941428
Ave neighs/atom = 98.7904
Neighbor list builds = 505
Dangerous builds not checked
Setting up Verlet run ...
  Unit style    : metal
  Current step  : 46000
  Time step     : 0.001
Per MPI rank memory allocation (min/avg/max) = 13.05 | 13.06 | 13.06 Mbytes
Step Temp Press TotEng PotEng Enthalpy Volume 
   46000    2152.3548     343.7183   -63032.876   -68500.053   -62943.916    414671.93 
   46495    2108.3473   -895.56383   -63083.946    -68439.34   -63316.397    415857.83 
Loop time of 62.7018 on 2 procs for 495 steps with 19652 atoms

Performance: 0.682 ns/day, 35.186 hours/ns, 7.895 timesteps/s
98.8% CPU use with 2 MPI tasks x no OpenMP threads

MPI task timing breakdown:
Section |  min time  |  avg time  |  max time  |%varavg| %total
---------------------------------------------------------------
Pair    | 38.499     | 38.768     | 39.037     |   4.3 | 61.83
Neigh   | 21.206     | 21.252     | 21.297     |   1.0 | 33.89
Comm    | 1.925      | 2.179      | 2.433      |  17.2 |  3.48
Output  | 7.7009e-05 | 0.000108   | 0.000139   |   0.0 |  0.00
Modify  | 0.34735    | 0.40868    | 0.47001    |   9.6 |  0.65
Other   |            | 0.09419    |            |       |  0.15

Nlocal:    9826 ave 9835 max 9817 min
Histogram: 1 0 0 0 0 0 0 0 0 1
Nghost:    14471 ave 14497 max 14445 min
Histogram: 1 0 0 0 0 0 0 0 0 1
Neighs:    967582 ave 968184 max 966979 min
Histogram: 1 0 0 0 0 0 0 0 0 1

Total # of neighbors = 1935163
Ave neighs/atom = 98.4716
Neighbor list builds = 495
Dangerous builds not checked
Setting up Verlet run ...
  Unit style    : metal
  Current step  : 46495
  Time step     : 0.001
Per MPI rank memory allocation (min/avg/max) = 13.05 | 13.06 | 13.06 Mbytes
Step Temp Press TotEng PotEng Enthalpy Volume 
   46495    2108.3473   -895.56383   -63083.946    -68439.34   -63316.397    415857.83 
   47000    2089.0479   -66.998313   -63283.396   -68589.768   -63300.699    413767.88 
Loop time of 60.6439 on 2 procs for 505 steps with 19652 atoms

Performance: 0.719 ns/day, 33.357 hours/ns, 8.327 timesteps/s
98.7% CPU use with 2 MPI tasks x no OpenMP threads

MPI task timing breakdown:
Section |  min time  |  avg time  |  max time  |%varavg| %total
---------------------------------------------------------------
Pair    | 36.799     | 37.185     | 37.571     |   6.3 | 61.32
Neigh   | 20.229     | 20.501     | 20.773     |   6.0 | 33.81
Comm    | 1.8494     | 2.5125     | 3.1757     |  41.8 |  4.14
Output  | 0.031066   | 0.031082   | 0.031098   |   0.0 |  0.05
Modify  | 0.32107    | 0.32492    | 0.32876    |   0.7 |  0.54
Other   |            | 0.08928    |            |       |  0.15

Nlocal:    9826 ave 9844 max 9808 min
Histogram: 1 0 0 0 0 0 0 0 0 1
Nghost:    14458.5 ave 14476 max 14441 min
Histogram: 1 0 0 0 0 0 0 0 0 1
Neighs:    972832 ave 974387 max 971277 min
Histogram: 1 0 0 0 0 0 0 0 0 1

Total # of neighbors = 1945664
Ave neighs/atom = 99.0059
Neighbor list builds = 505
Dangerous builds not checked
Setting up Verlet run ...
  Unit style    : metal
  Current step  : 47000
  Time step     : 0.001
Per MPI rank memory allocation (min/avg/max) = 13.05 | 13.06 | 13.07 Mbytes
Step Temp Press TotEng PotEng Enthalpy Volume 
   47000    2089.0479   -66.998313   -63283.396   -68589.768   -63300.699    413767.88 
   47495    2058.8329   -371.26905   -63398.117    -68627.74   -63493.921    413433.72 
Loop time of 59.9588 on 2 procs for 495 steps with 19652 atoms

Performance: 0.713 ns/day, 33.647 hours/ns, 8.256 timesteps/s
97.5% CPU use with 2 MPI tasks x no OpenMP threads

MPI task timing breakdown:
Section |  min time  |  avg time  |  max time  |%varavg| %total
---------------------------------------------------------------
Pair    | 36.289     | 36.529     | 36.769     |   4.0 | 60.92
Neigh   | 19.958     | 20.073     | 20.188     |   2.6 | 33.48
Comm    | 2.8241     | 2.948      | 3.0719     |   7.2 |  4.92
Output  | 8.7023e-05 | 0.00011599 | 0.00014496 |   0.0 |  0.00
Modify  | 0.32065    | 0.32075    | 0.32085    |   0.0 |  0.53
Other   |            | 0.08818    |            |       |  0.15

Nlocal:    9826 ave 9842 max 9810 min
Histogram: 1 0 0 0 0 0 0 0 0 1
Nghost:    14500.5 ave 14530 max 14471 min
Histogram: 1 0 0 0 0 0 0 0 0 1
Neighs:    973227 ave 975338 max 971116 min
Histogram: 1 0 0 0 0 0 0 0 0 1

Total # of neighbors = 1946454
Ave neighs/atom = 99.0461
Neighbor list builds = 495
Dangerous builds not checked
Setting up Verlet run ...
  Unit style    : metal
  Current step  : 47495
  Time step     : 0.001
Per MPI rank memory allocation (min/avg/max) = 13.05 | 13.06 | 13.07 Mbytes
Step Temp Press TotEng PotEng Enthalpy Volume 
   47495    2058.8329   -371.26905   -63398.117    -68627.74   -63493.921    413433.72 
   48000    2041.0994     423.4801   -63556.915   -68741.493    -63448.12    411608.33 
Loop time of 62.0934 on 2 procs for 505 steps with 19652 atoms

Performance: 0.703 ns/day, 34.155 hours/ns, 8.133 timesteps/s
99.8% CPU use with 2 MPI tasks x no OpenMP threads

MPI task timing breakdown:
Section |  min time  |  avg time  |  max time  |%varavg| %total
---------------------------------------------------------------
Pair    | 37.789     | 38.22      | 38.65      |   7.0 | 61.55
Neigh   | 20.659     | 20.951     | 21.244     |   6.4 | 33.74
Comm    | 1.7316     | 2.4588     | 3.1861     |  46.4 |  3.96
Output  | 0.026382   | 0.026405   | 0.026428   |   0.0 |  0.04
Modify  | 0.34113    | 0.34492    | 0.34872    |   0.6 |  0.56
Other   |            | 0.09219    |            |       |  0.15

Nlocal:    9826 ave 9827 max 9825 min
Histogram: 1 0 0 0 0 0 0 0 0 1
Nghost:    14498.5 ave 14502 max 14495 min
Histogram: 1 0 0 0 0 0 0 0 0 1
Neighs:    977550 ave 979183 max 975917 min
Histogram: 1 0 0 0 0 0 0 0 0 1

Total # of neighbors = 1955100
Ave neighs/atom = 99.4861
Neighbor list builds = 505
Dangerous builds not checked
Setting up Verlet run ...
  Unit style    : metal
  Current step  : 48000
  Time step     : 0.001
Per MPI rank memory allocation (min/avg/max) = 13.05 | 13.06 | 13.07 Mbytes
Step Temp Press TotEng PotEng Enthalpy Volume 
   48000    2041.0994     423.4801   -63556.915   -68741.493    -63448.12    411608.33 
   48495    2002.9015    638.64374   -63716.494   -68804.046   -63552.661    411009.41 
Loop time of 53.5651 on 2 procs for 495 steps with 19652 atoms

Performance: 0.798 ns/day, 30.059 hours/ns, 9.241 timesteps/s
99.6% CPU use with 2 MPI tasks x no OpenMP threads

MPI task timing breakdown:
Section |  min time  |  avg time  |  max time  |%varavg| %total
---------------------------------------------------------------
Pair    | 32.531     | 32.952     | 33.373     |   7.3 | 61.52
Neigh   | 18.757     | 18.854     | 18.952     |   2.2 | 35.20
Comm    | 1.0575     | 1.378      | 1.6985     |  27.3 |  2.57
Output  | 5.7936e-05 | 8.297e-05  | 0.000108   |   0.0 |  0.00
Modify  | 0.29706    | 0.29914    | 0.30122    |   0.4 |  0.56
Other   |            | 0.08206    |            |       |  0.15

Nlocal:    9826 ave 9834 max 9818 min
Histogram: 1 0 0 0 0 0 0 0 0 1
Nghost:    14503.5 ave 14506 max 14501 min
Histogram: 1 0 0 0 0 0 0 0 0 1
Neighs:    978941 ave 979503 max 978379 min
Histogram: 1 0 0 0 0 0 0 0 0 1

Total # of neighbors = 1957882
Ave neighs/atom = 99.6276
Neighbor list builds = 495
Dangerous builds not checked
Setting up Verlet run ...
  Unit style    : metal
  Current step  : 48495
  Time step     : 0.001
Per MPI rank memory allocation (min/avg/max) = 13.05 | 13.06 | 13.07 Mbytes
Step Temp Press TotEng PotEng Enthalpy Volume 
   48495    2002.9015    638.64374   -63716.494   -68804.046   -63552.661    411009.41 
   49000    1999.2092    117.82847    -63773.25   -68851.423   -63743.048    410673.95 
Loop time of 61.4054 on 2 procs for 505 steps with 19652 atoms

Performance: 0.711 ns/day, 33.776 hours/ns, 8.224 timesteps/s
99.0% CPU use with 2 MPI tasks x no OpenMP threads

MPI task timing breakdown:
Section |  min time  |  avg time  |  max time  |%varavg| %total
---------------------------------------------------------------
Pair    | 37.963     | 38.199     | 38.435     |   3.8 | 62.21
Neigh   | 21.01      | 21.021     | 21.031     |   0.2 | 34.23
Comm    | 1.501      | 1.7282     | 1.9554     |  17.3 |  2.81
Output  | 0.035167   | 0.035185   | 0.035203   |   0.0 |  0.06
Modify  | 0.32776    | 0.32947    | 0.33118    |   0.3 |  0.54
Other   |            | 0.09326    |            |       |  0.15

Nlocal:    9826 ave 9841 max 9811 min
Histogram: 1 0 0 0 0 0 0 0 0 1
Nghost:    14516 ave 14531 max 14501 min
Histogram: 1 0 0 0 0 0 0 0 0 1
Neighs:    979692 ave 981939 max 977445 min
Histogram: 1 0 0 0 0 0 0 0 0 1

Total # of neighbors = 1959384
Ave neighs/atom = 99.7041
Neighbor list builds = 505
Dangerous builds not checked
Setting up Verlet run ...
  Unit style    : metal
  Current step  : 49000
  Time step     : 0.001
Per MPI rank memory allocation (min/avg/max) = 13.06 | 13.06 | 13.07 Mbytes
Step Temp Press TotEng PotEng Enthalpy Volume 
   49000    1999.2092    117.82847    -63773.25   -68851.423   -63743.048    410673.95 
   49495    1958.5978    104.07117   -64020.232   -68995.249   -63993.654     409163.2 
Loop time of 65.014 on 2 procs for 495 steps with 19652 atoms

Performance: 0.658 ns/day, 36.484 hours/ns, 7.614 timesteps/s
99.2% CPU use with 2 MPI tasks x no OpenMP threads

MPI task timing breakdown:
Section |  min time  |  avg time  |  max time  |%varavg| %total
---------------------------------------------------------------
Pair    | 40.17      | 40.581     | 40.991     |   6.4 | 62.42
Neigh   | 19.395     | 21.037     | 22.68      |  35.8 | 32.36
Comm    | 0.88448    | 2.961      | 5.0376     | 120.7 |  4.55
Output  | 8.2016e-05 | 0.00011551 | 0.00014901 |   0.0 |  0.00
Modify  | 0.3245     | 0.34194    | 0.35938    |   3.0 |  0.53
Other   |            | 0.09312    |            |       |  0.14

Nlocal:    9826 ave 9827 max 9825 min
Histogram: 1 0 0 0 0 0 0 0 0 1
Nghost:    14521 ave 14535 max 14507 min
Histogram: 1 0 0 0 0 0 0 0 0 1
Neighs:    983432 ave 984798 max 982065 min
Histogram: 1 0 0 0 0 0 0 0 0 1

Total # of neighbors = 1966863
Ave neighs/atom = 100.085
Neighbor list builds = 495
Dangerous builds not checked
Setting up Verlet run ...
  Unit style    : metal
  Current step  : 49495
  Time step     : 0.001
Per MPI rank memory allocation (min/avg/max) = 13.06 | 13.06 | 13.07 Mbytes
Step Temp Press TotEng PotEng Enthalpy Volume 
   49495    1958.5978    104.07117   -64020.232   -68995.249   -63993.654     409163.2 
   50000    1959.7693   -452.65979   -64091.275   -69069.268   -64206.752    408725.49 
Loop time of 65.7975 on 2 procs for 505 steps with 19652 atoms

Performance: 0.663 ns/day, 36.192 hours/ns, 7.675 timesteps/s
98.4% CPU use with 2 MPI tasks x no OpenMP threads

MPI task timing breakdown:
Section |  min time  |  avg time  |  max time  |%varavg| %total
---------------------------------------------------------------
Pair    | 40.821     | 40.961     | 41.101     |   2.2 | 62.25
Neigh   | 21.032     | 21.865     | 22.697     |  17.8 | 33.23
Comm    | 1.7836     | 2.4877     | 3.1918     |  44.6 |  3.78
Output  | 0.035168   | 0.035192   | 0.035216   |   0.0 |  0.05
Modify  | 0.34397    | 0.3519     | 0.35984    |   1.3 |  0.53
Other   |            | 0.09691    |            |       |  0.15

Nlocal:    9826 ave 9856 max 9796 min
Histogram: 1 0 0 0 0 0 0 0 0 1
Nghost:    14556.5 ave 14578 max 14535 min
Histogram: 1 0 0 0 0 0 0 0 0 1
Neighs:    984578 ave 987396 max 981760 min
Histogram: 1 0 0 0 0 0 0 0 0 1

Total # of neighbors = 1969156
Ave neighs/atom = 100.201
Neighbor list builds = 505
Dangerous builds not checked
Setting up Verlet run ...
  Unit style    : metal
  Current step  : 50000
  Time step     : 0.001
Per MPI rank memory allocation (min/avg/max) = 13.06 | 13.06 | 13.07 Mbytes
Step Temp Press TotEng PotEng Enthalpy Volume 
   50000    1959.7693   -452.65979   -64091.275   -69069.268   -64206.752    408725.49 
   50495    1912.9243     1075.316   -64267.701   -69126.703    -63994.34    407296.17 
Loop time of 60.6418 on 2 procs for 495 steps with 19652 atoms

Performance: 0.705 ns/day, 34.030 hours/ns, 8.163 timesteps/s
97.9% CPU use with 2 MPI tasks x no OpenMP threads

MPI task timing breakdown:
Section |  min time  |  avg time  |  max time  |%varavg| %total
---------------------------------------------------------------
Pair    | 36.651     | 37.069     | 37.487     |   6.9 | 61.13
Neigh   | 19.382     | 19.952     | 20.521     |  12.8 | 32.90
Comm    | 2.2189     | 3.2149     | 4.211      |  55.6 |  5.30
Output  | 9.0122e-05 | 0.00012207 | 0.00015402 |   0.0 |  0.00
Modify  | 0.31178    | 0.31744    | 0.32309    |   1.0 |  0.52
Other   |            | 0.08855    |            |       |  0.15

Nlocal:    9826 ave 9838 max 9814 min
Histogram: 1 0 0 0 0 0 0 0 0 1
Nghost:    14546 ave 14569 max 14523 min
Histogram: 1 0 0 0 0 0 0 0 0 1
Neighs:    987974 ave 988767 max 987181 min
Histogram: 1 0 0 0 0 0 0 0 0 1

Total # of neighbors = 1975948
Ave neighs/atom = 100.547
Neighbor list builds = 495
Dangerous builds not checked
Setting up Verlet run ...
  Unit style    : metal
  Current step  : 50495
  Time step     : 0.001
Per MPI rank memory allocation (min/avg/max) = 13.06 | 13.06 | 13.07 Mbytes
Step Temp Press TotEng PotEng Enthalpy Volume 
   50495    1912.9243     1075.316   -64267.701   -69126.703    -63994.34    407296.17 
   51000    1900.7574    524.30922   -64339.049   -69167.146   -64205.848    407033.37 
Loop time of 61.2244 on 2 procs for 505 steps with 19652 atoms

Performance: 0.713 ns/day, 33.677 hours/ns, 8.248 timesteps/s
99.1% CPU use with 2 MPI tasks x no OpenMP threads

MPI task timing breakdown:
Section |  min time  |  avg time  |  max time  |%varavg| %total
---------------------------------------------------------------
Pair    | 37.272     | 37.488     | 37.704     |   3.5 | 61.23
Neigh   | 19.522     | 20.24      | 20.959     |  16.0 | 33.06
Comm    | 2.4945     | 3.0057     | 3.517      |  29.5 |  4.91
Output  | 0.071509   | 0.071528   | 0.071548   |   0.0 |  0.12
Modify  | 0.32308    | 0.32903    | 0.33499    |   1.0 |  0.54
Other   |            | 0.08968    |            |       |  0.15

Nlocal:    9826 ave 9827 max 9825 min
Histogram: 1 0 0 0 0 0 0 0 0 1
Nghost:    14528.5 ave 14544 max 14513 min
Histogram: 1 0 0 0 0 0 0 0 0 1
Neighs:    988180 ave 989136 max 987224 min
Histogram: 1 0 0 0 0 0 0 0 0 1

Total # of neighbors = 1976360
Ave neighs/atom = 100.568
Neighbor list builds = 505
Dangerous builds not checked
Setting up Verlet run ...
  Unit style    : metal
  Current step  : 51000
  Time step     : 0.001
Per MPI rank memory allocation (min/avg/max) = 13.06 | 13.06 | 13.07 Mbytes
Step Temp Press TotEng PotEng Enthalpy Volume 
   51000    1900.7574    524.30922   -64339.049   -69167.146   -64205.848    407033.37 
   51495    1863.1298    1024.0468   -64533.862   -69266.382   -64274.641    405565.07 
Loop time of 63.6019 on 2 procs for 495 steps with 19652 atoms

Performance: 0.672 ns/day, 35.691 hours/ns, 7.783 timesteps/s
95.9% CPU use with 2 MPI tasks x no OpenMP threads

MPI task timing breakdown:
Section |  min time  |  avg time  |  max time  |%varavg| %total
---------------------------------------------------------------
Pair    | 39.138     | 39.514     | 39.891     |   6.0 | 62.13
Neigh   | 19.65      | 19.974     | 20.297     |   7.2 | 31.40
Comm    | 3.6563     | 3.7075     | 3.7586     |   2.7 |  5.83
Output  | 5.6982e-05 | 7.9989e-05 | 0.000103   |   0.0 |  0.00
Modify  | 0.31586    | 0.31746    | 0.31907    |   0.3 |  0.50
Other   |            | 0.08898    |            |       |  0.14

Nlocal:    9826 ave 9839 max 9813 min
Histogram: 1 0 0 0 0 0 0 0 0 1
Nghost:    14607.5 ave 14619 max 14596 min
Histogram: 1 0 0 0 0 0 0 0 0 1
Neighs:    991904 ave 993776 max 990032 min
Histogram: 1 0 0 0 0 0 0 0 0 1

Total # of neighbors = 1983808
Ave neighs/atom = 100.947
Neighbor list builds = 495
Dangerous builds not checked
Setting up Verlet run ...
  Unit style    : metal
  Current step  : 51495
  Time step     : 0.001
Per MPI rank memory allocation (min/avg/max) = 13.06 | 13.06 | 13.07 Mbytes
Step Temp Press TotEng PotEng Enthalpy Volume 
   51495    1863.1298    1024.0468   -64533.862   -69266.382   -64274.641    405565.07 
   52000    1851.0448    824.42771   -64604.106   -69305.928   -64395.692     405026.3 
Loop time of 67.4796 on 2 procs for 505 steps with 19652 atoms

Performance: 0.647 ns/day, 37.118 hours/ns, 7.484 timesteps/s
97.7% CPU use with 2 MPI tasks x no OpenMP threads

MPI task timing breakdown:
Section |  min time  |  avg time  |  max time  |%varavg| %total
---------------------------------------------------------------
Pair    | 41.834     | 42.186     | 42.538     |   5.4 | 62.52
Neigh   | 21.903     | 21.966     | 22.03      |   1.4 | 32.55
Comm    | 2.5579     | 2.8467     | 3.1355     |  17.1 |  4.22
Output  | 0.025962   | 0.025975   | 0.025989   |   0.0 |  0.04
Modify  | 0.35618    | 0.35659    | 0.357      |   0.1 |  0.53
Other   |            | 0.09819    |            |       |  0.15

Nlocal:    9826 ave 9829 max 9823 min
Histogram: 1 0 0 0 0 0 0 0 0 1
Nghost:    14624.5 ave 14639 max 14610 min
Histogram: 1 0 0 0 0 0 0 0 0 1
Neighs:    993168 ave 993883 max 992454 min
Histogram: 1 0 0 0 0 0 0 0 0 1

Total # of neighbors = 1986337
Ave neighs/atom = 101.076
Neighbor list builds = 505
Dangerous builds not checked
Setting up Verlet run ...
  Unit style    : metal
  Current step  : 52000
  Time step     : 0.001
Per MPI rank memory allocation (min/avg/max) = 13.06 | 13.06 | 13.07 Mbytes
Step Temp Press TotEng PotEng Enthalpy Volume 
   52000    1851.0448    824.42771   -64604.106   -69305.928   -64395.692     405026.3 
   52495    1813.7141    925.81898   -64798.097   -69405.096   -64564.485    404278.05 
Loop time of 64.5779 on 2 procs for 495 steps with 19652 atoms

Performance: 0.662 ns/day, 36.239 hours/ns, 7.665 timesteps/s
99.0% CPU use with 2 MPI tasks x no OpenMP threads

MPI task timing breakdown:
Section |  min time  |  avg time  |  max time  |%varavg| %total
---------------------------------------------------------------
Pair    | 40.489     | 40.578     | 40.667     |   1.4 | 62.84
Neigh   | 21.645     | 21.789     | 21.933     |   3.1 | 33.74
Comm    | 1.6743     | 1.7326     | 1.791      |   4.4 |  2.68
Output  | 7.6771e-05 | 0.0001018  | 0.00012684 |   0.0 |  0.00
Modify  | 0.37897    | 0.38005    | 0.38113    |   0.2 |  0.59
Other   |            | 0.09791    |            |       |  0.15

Nlocal:    9826 ave 9855 max 9797 min
Histogram: 1 0 0 0 0 0 0 0 0 1
Nghost:    14618.5 ave 14630 max 14607 min
Histogram: 1 0 0 0 0 0 0 0 0 1
Neighs:    995483 ave 1.00147e+06 max 989497 min
Histogram: 1 0 0 0 0 0 0 0 0 1

Total # of neighbors = 1990966
Ave neighs/atom = 101.311
Neighbor list builds = 495
Dangerous builds not checked
Setting up Verlet run ...
  Unit style    : metal
  Current step  : 52495
  Time step     : 0.001
Per MPI rank memory allocation (min/avg/max) = 13.06 | 13.06 | 13.07 Mbytes
Step Temp Press TotEng PotEng Enthalpy Volume 
   52495    1813.7141    925.81898   -64798.097   -69405.096   -64564.485    404278.05 
   53000    1803.7551      137.692   -64860.843   -69442.546   -64826.104    404230.58 
Loop time of 64.9018 on 2 procs for 505 steps with 19652 atoms

Performance: 0.672 ns/day, 35.700 hours/ns, 7.781 timesteps/s
98.7% CPU use with 2 MPI tasks x no OpenMP threads

MPI task timing breakdown:
Section |  min time  |  avg time  |  max time  |%varavg| %total
---------------------------------------------------------------
Pair    | 40.368     | 40.752     | 41.137     |   6.0 | 62.79
Neigh   | 21.197     | 21.672     | 22.147     |  10.2 | 33.39
Comm    | 1.1227     | 1.9872     | 2.8518     |  61.3 |  3.06
Output  | 0.035957   | 0.035969   | 0.035982   |   0.0 |  0.06
Modify  | 0.35476    | 0.3584     | 0.36204    |   0.6 |  0.55
Other   |            | 0.09568    |            |       |  0.15

Nlocal:    9826 ave 9838 max 9814 min
Histogram: 1 0 0 0 0 0 0 0 0 1
Nghost:    14614.5 ave 14642 max 14587 min
Histogram: 1 0 0 0 0 0 0 0 0 1
Neighs:    995305 ave 998275 max 992335 min
Histogram: 1 0 0 0 0 0 0 0 0 1

Total # of neighbors = 1990610
Ave neighs/atom = 101.293
Neighbor list builds = 505
Dangerous builds not checked
Setting up Verlet run ...
  Unit style    : metal
  Current step  : 53000
  Time step     : 0.001
Per MPI rank memory allocation (min/avg/max) = 13.06 | 13.07 | 13.07 Mbytes
Step Temp Press TotEng PotEng Enthalpy Volume 
   53000    1803.7551      137.692   -64860.843   -69442.546   -64826.104    404230.58 
   53495    1762.9586    590.58784   -65075.456   -69553.532   -64926.998     402743.9 
Loop time of 61.1707 on 2 procs for 495 steps with 19652 atoms

Performance: 0.699 ns/day, 34.327 hours/ns, 8.092 timesteps/s
99.6% CPU use with 2 MPI tasks x no OpenMP threads

MPI task timing breakdown:
Section |  min time  |  avg time  |  max time  |%varavg| %total
---------------------------------------------------------------
Pair    | 37.953     | 38.11      | 38.266     |   2.5 | 62.30
Neigh   | 20.289     | 20.573     | 20.857     |   6.3 | 33.63
Comm    | 1.6092     | 2.0553     | 2.5014     |  31.1 |  3.36
Output  | 7.5817e-05 | 0.00011492 | 0.00015402 |   0.0 |  0.00
Modify  | 0.33532    | 0.33976    | 0.3442     |   0.8 |  0.56
Other   |            | 0.09292    |            |       |  0.15

Nlocal:    9826 ave 9830 max 9822 min
Histogram: 1 0 0 0 0 0 0 0 0 1
Nghost:    14685.5 ave 14699 max 14672 min
Histogram: 1 0 0 0 0 0 0 0 0 1
Neighs:    998991 ave 1.00094e+06 max 997039 min
Histogram: 1 0 0 0 0 0 0 0 0 1

Total # of neighbors = 1997982
Ave neighs/atom = 101.668
Neighbor list builds = 495
Dangerous builds not checked
Setting up Verlet run ...
  Unit style    : metal
  Current step  : 53495
  Time step     : 0.001
Per MPI rank memory allocation (min/avg/max) = 13.06 | 13.07 | 13.07 Mbytes
Step Temp Press TotEng PotEng Enthalpy Volume 
   53495    1762.9586    590.58784   -65075.456   -69553.532   -64926.998     402743.9 
   54000    1737.5778     603.5889   -65194.981   -69608.587   -65043.502    402089.55 
Loop time of 69.547 on 2 procs for 505 steps with 19652 atoms

Performance: 0.627 ns/day, 38.255 hours/ns, 7.261 timesteps/s
97.9% CPU use with 2 MPI tasks x no OpenMP threads

MPI task timing breakdown:
Section |  min time  |  avg time  |  max time  |%varavg| %total
---------------------------------------------------------------
Pair    | 43.078     | 43.431     | 43.784     |   5.4 | 62.45
Neigh   | 22.377     | 22.566     | 22.756     |   4.0 | 32.45
Comm    | 2.8805     | 3.0461     | 3.2116     |   9.5 |  4.38
Output  | 0.03631    | 0.036329   | 0.036348   |   0.0 |  0.05
Modify  | 0.36437    | 0.36505    | 0.36573    |   0.1 |  0.52
Other   |            | 0.1024     |            |       |  0.15

Nlocal:    9826 ave 9845 max 9807 min
Histogram: 1 0 0 0 0 0 0 0 0 1
Nghost:    14689.5 ave 14703 max 14676 min
Histogram: 1 0 0 0 0 0 0 0 0 1
Neighs:    1.00055e+06 ave 1.00426e+06 max 996835 min
Histogram: 1 0 0 0 0 0 0 0 0 1

Total # of neighbors = 2001094
Ave neighs/atom = 101.826
Neighbor list builds = 505
Dangerous builds not checked
Setting up Verlet run ...
  Unit style    : metal
  Current step  : 54000
  Time step     : 0.001
Per MPI rank memory allocation (min/avg/max) = 13.06 | 13.07 | 13.07 Mbytes
Step Temp Press TotEng PotEng Enthalpy Volume 
   54000    1737.5778     603.5889   -65194.981   -69608.587   -65043.502    402089.55 
   54495    1716.2739    802.16963   -65354.227   -69713.719   -65153.486    400941.42 
Loop time of 70.4106 on 2 procs for 495 steps with 19652 atoms

Performance: 0.607 ns/day, 39.512 hours/ns, 7.030 timesteps/s
98.8% CPU use with 2 MPI tasks x no OpenMP threads

MPI task timing breakdown:
Section |  min time  |  avg time  |  max time  |%varavg| %total
---------------------------------------------------------------
Pair    | 43.558     | 43.784     | 44.01      |   3.4 | 62.18
Neigh   | 22.348     | 22.817     | 23.286     |   9.8 | 32.41
Comm    | 3.0804     | 3.3292     | 3.578      |  13.6 |  4.73
Output  | 8.5115e-05 | 0.00012708 | 0.00016904 |   0.0 |  0.00
Modify  | 0.37436    | 0.37872    | 0.38308    |   0.7 |  0.54
Other   |            | 0.101      |            |       |  0.14

Nlocal:    9826 ave 9839 max 9813 min
Histogram: 1 0 0 0 0 0 0 0 0 1
Nghost:    14675.5 ave 14682 max 14669 min
Histogram: 1 0 0 0 0 0 0 0 0 1
Neighs:    1.00375e+06 ave 1.00637e+06 max 1.00113e+06 min
Histogram: 1 0 0 0 0 0 0 0 0 1

Total # of neighbors = 2007503
Ave neighs/atom = 102.153
Neighbor list builds = 495
Dangerous builds not checked
Setting up Verlet run ...
  Unit style    : metal
  Current step  : 54495
  Time step     : 0.001
Per MPI rank memory allocation (min/avg/max) = 13.06 | 13.07 | 13.07 Mbytes
Step Temp Press TotEng PotEng Enthalpy Volume 
   54495    1716.2739    802.16963   -65354.227   -69713.719   -65153.486    400941.42 
   55000    1697.8038    49.248238   -65477.753   -69790.329    -65465.44    400581.35 
Loop time of 68.756 on 2 procs for 505 steps with 19652 atoms

Performance: 0.635 ns/day, 37.820 hours/ns, 7.345 timesteps/s
97.8% CPU use with 2 MPI tasks x no OpenMP threads

MPI task timing breakdown:
Section |  min time  |  avg time  |  max time  |%varavg| %total
---------------------------------------------------------------
Pair    | 43.074     | 43.263     | 43.452     |   2.9 | 62.92
Neigh   | 22.005     | 22.336     | 22.667     |   7.0 | 32.49
Comm    | 2.5115     | 2.6565     | 2.8016     |   8.9 |  3.86
Output  | 0.0352     | 0.035219   | 0.035238   |   0.0 |  0.05
Modify  | 0.36478    | 0.36674    | 0.3687     |   0.3 |  0.53
Other   |            | 0.09883    |            |       |  0.14

Nlocal:    9826 ave 9833 max 9819 min
Histogram: 1 0 0 0 0 0 0 0 0 1
Nghost:    14699.5 ave 14771 max 14628 min
Histogram: 1 0 0 0 0 0 0 0 0 1
Neighs:    1.00455e+06 ave 1.00492e+06 max 1.00418e+06 min
Histogram: 1 0 0 0 0 0 0 0 0 1

Total # of neighbors = 2009098
Ave neighs/atom = 102.234
Neighbor list builds = 505
Dangerous builds not checked
Setting up Verlet run ...
  Unit style    : metal
  Current step  : 55000
  Time step     : 0.001
Per MPI rank memory allocation (min/avg/max) = 13.06 | 13.07 | 13.07 Mbytes
Step Temp Press TotEng PotEng Enthalpy Volume 
   55000    1697.8038    49.248238   -65477.753   -69790.329    -65465.44    400581.35 
   55495    1656.2542     1014.862   -65653.316   -69860.352    -65400.39    399296.81 
Loop time of 66.2325 on 2 procs for 495 steps with 19652 atoms

Performance: 0.646 ns/day, 37.168 hours/ns, 7.474 timesteps/s
98.4% CPU use with 2 MPI tasks x no OpenMP threads

MPI task timing breakdown:
Section |  min time  |  avg time  |  max time  |%varavg| %total
---------------------------------------------------------------
Pair    | 41.905     | 42.049     | 42.193     |   2.2 | 63.49
Neigh   | 21.533     | 21.788     | 22.043     |   5.5 | 32.90
Comm    | 1.8297     | 1.9444     | 2.059      |   8.2 |  2.94
Output  | 7.7009e-05 | 0.00010455 | 0.00013208 |   0.0 |  0.00
Modify  | 0.35252    | 0.35529    | 0.35807    |   0.5 |  0.54
Other   |            | 0.0963     |            |       |  0.15

Nlocal:    9826 ave 9846 max 9806 min
Histogram: 1 0 0 0 0 0 0 0 0 1
Nghost:    14718.5 ave 14730 max 14707 min
Histogram: 1 0 0 0 0 0 0 0 0 1
Neighs:    1.00745e+06 ave 1.01276e+06 max 1.00214e+06 min
Histogram: 1 0 0 0 0 0 0 0 0 1

Total # of neighbors = 2014902
Ave neighs/atom = 102.529
Neighbor list builds = 495
Dangerous builds not checked
Setting up Verlet run ...
  Unit style    : metal
  Current step  : 55495
  Time step     : 0.001
Per MPI rank memory allocation (min/avg/max) = 13.06 | 13.07 | 13.07 Mbytes
Step Temp Press TotEng PotEng Enthalpy Volume 
   55495    1656.2542     1014.862   -65653.316   -69860.352    -65400.39    399296.81 
   56000    1642.8672    451.11352   -65731.769   -69904.801   -65619.424    399004.41 
Loop time of 65.4695 on 2 procs for 505 steps with 19652 atoms

Performance: 0.666 ns/day, 36.012 hours/ns, 7.714 timesteps/s
98.7% CPU use with 2 MPI tasks x no OpenMP threads

MPI task timing breakdown:
Section |  min time  |  avg time  |  max time  |%varavg| %total
---------------------------------------------------------------
Pair    | 40.648     | 40.875     | 41.102     |   3.5 | 62.43
Neigh   | 21.152     | 21.322     | 21.492     |   3.7 | 32.57
Comm    | 2.4004     | 2.8019     | 3.2033     |  24.0 |  4.28
Output  | 0.025273   | 0.025288   | 0.025303   |   0.0 |  0.04
Modify  | 0.34711    | 0.35106    | 0.35501    |   0.7 |  0.54
Other   |            | 0.09445    |            |       |  0.14

Nlocal:    9826 ave 9826 max 9826 min
Histogram: 2 0 0 0 0 0 0 0 0 0
Nghost:    14763.5 ave 14775 max 14752 min
Histogram: 1 0 0 0 0 0 0 0 0 1
Neighs:    1.0083e+06 ave 1.00838e+06 max 1.00822e+06 min
Histogram: 1 0 0 0 0 0 0 0 0 1

Total # of neighbors = 2016599
Ave neighs/atom = 102.615
Neighbor list builds = 505
Dangerous builds not checked
Setting up Verlet run ...
  Unit style    : metal
  Current step  : 56000
  Time step     : 0.001
Per MPI rank memory allocation (min/avg/max) = 13.06 | 13.07 | 13.07 Mbytes
Step Temp Press TotEng PotEng Enthalpy Volume 
   56000    1642.8672    451.11352   -65731.769   -69904.801   -65619.424    399004.41 
   56495    1618.2048    197.78907   -65920.478   -70030.866   -65871.355    397921.13 
Loop time of 67.4366 on 2 procs for 495 steps with 19652 atoms

Performance: 0.634 ns/day, 37.843 hours/ns, 7.340 timesteps/s
99.1% CPU use with 2 MPI tasks x no OpenMP threads

MPI task timing breakdown:
Section |  min time  |  avg time  |  max time  |%varavg| %total
---------------------------------------------------------------
Pair    | 41.55      | 42.168     | 42.786     |   9.5 | 62.53
Neigh   | 21.309     | 21.879     | 22.449     |  12.2 | 32.44
Comm    | 1.7223     | 2.9204     | 4.1184     |  70.1 |  4.33
Output  | 8.7023e-05 | 0.00011301 | 0.000139   |   0.0 |  0.00
Modify  | 0.36343    | 0.37111    | 0.37878    |   1.3 |  0.55
Other   |            | 0.09784    |            |       |  0.15

Nlocal:    9826 ave 9828 max 9824 min
Histogram: 1 0 0 0 0 0 0 0 0 1
Nghost:    14688.5 ave 14702 max 14675 min
Histogram: 1 0 0 0 0 0 0 0 0 1
Neighs:    1.01123e+06 ave 1.01174e+06 max 1.01073e+06 min
Histogram: 1 0 0 0 0 0 0 0 0 1

Total # of neighbors = 2022466
Ave neighs/atom = 102.914
Neighbor list builds = 495
Dangerous builds not checked
Setting up Verlet run ...
  Unit style    : metal
  Current step  : 56495
  Time step     : 0.001
Per MPI rank memory allocation (min/avg/max) = 13.06 | 13.07 | 13.07 Mbytes
Step Temp Press TotEng PotEng Enthalpy Volume 
   56495    1618.2048    197.78907   -65920.478   -70030.866   -65871.355    397921.13 
   57000    1590.3821    124.55371   -66002.499   -70042.214   -65971.571     397826.1 
Loop time of 68.8173 on 2 procs for 505 steps with 19652 atoms

Performance: 0.634 ns/day, 37.853 hours/ns, 7.338 timesteps/s
98.3% CPU use with 2 MPI tasks x no OpenMP threads

MPI task timing breakdown:
Section |  min time  |  avg time  |  max time  |%varavg| %total
---------------------------------------------------------------
Pair    | 43.177     | 43.37      | 43.562     |   2.9 | 63.02
Neigh   | 22.392     | 22.667     | 22.942     |   5.8 | 32.94
Comm    | 1.8079     | 2.278      | 2.7481     |  31.1 |  3.31
Output  | 0.037353   | 0.037372   | 0.037392   |   0.0 |  0.05
Modify  | 0.36128    | 0.36399    | 0.3667     |   0.4 |  0.53
Other   |            | 0.1016     |            |       |  0.15

Nlocal:    9826 ave 9855 max 9797 min
Histogram: 1 0 0 0 0 0 0 0 0 1
Nghost:    14694.5 ave 14707 max 14682 min
Histogram: 1 0 0 0 0 0 0 0 0 1
Neighs:    1.01104e+06 ave 1.01673e+06 max 1.00534e+06 min
Histogram: 1 0 0 0 0 0 0 0 0 1

Total # of neighbors = 2022072
Ave neighs/atom = 102.894
Neighbor list builds = 505
Dangerous builds not checked
Setting up Verlet run ...
  Unit style    : metal
  Current step  : 57000
  Time step     : 0.001
Per MPI rank memory allocation (min/avg/max) = 13.06 | 13.07 | 13.07 Mbytes
Step Temp Press TotEng PotEng Enthalpy Volume 
   57000    1590.3821    124.55371   -66002.499   -70042.214   -65971.571     397826.1 
   57495    1563.2728    411.40406   -66194.319   -70165.174    -66092.54    396367.65 
Loop time of 69.6699 on 2 procs for 495 steps with 19652 atoms

Performance: 0.614 ns/day, 39.096 hours/ns, 7.105 timesteps/s
99.0% CPU use with 2 MPI tasks x no OpenMP threads

MPI task timing breakdown:
Section |  min time  |  avg time  |  max time  |%varavg| %total
---------------------------------------------------------------
Pair    | 43.419     | 43.909     | 44.399     |   7.4 | 63.02
Neigh   | 22.837     | 23.033     | 23.228     |   4.1 | 33.06
Comm    | 1.5656     | 2.2541     | 2.9426     |  45.9 |  3.24
Output  | 8.3923e-05 | 0.00013089 | 0.00017786 |   0.0 |  0.00
Modify  | 0.36896    | 0.37168    | 0.37441    |   0.4 |  0.53
Other   |            | 0.1024     |            |       |  0.15

Nlocal:    9826 ave 9828 max 9824 min
Histogram: 1 0 0 0 0 0 0 0 0 1
Nghost:    14735.5 ave 14736 max 14735 min
Histogram: 1 0 0 0 0 0 0 0 0 1
Neighs:    1.01492e+06 ave 1.01553e+06 max 1.0143e+06 min
Histogram: 1 0 0 0 0 0 0 0 0 1

Total # of neighbors = 2029839
Ave neighs/atom = 103.289
Neighbor list builds = 495
Dangerous builds not checked
Setting up Verlet run ...
  Unit style    : metal
  Current step  : 57495
  Time step     : 0.001
Per MPI rank memory allocation (min/avg/max) = 13.06 | 13.07 | 13.07 Mbytes
Step Temp Press TotEng PotEng Enthalpy Volume 
   57495    1563.2728    411.40406   -66194.319   -70165.174    -66092.54    396367.65 
   58000    1547.8779   -60.503844   -66336.959    -70268.71   -66351.896    395551.78 
Loop time of 69.6652 on 2 procs for 505 steps with 19652 atoms

Performance: 0.626 ns/day, 38.320 hours/ns, 7.249 timesteps/s
98.6% CPU use with 2 MPI tasks x no OpenMP threads

MPI task timing breakdown:
Section |  min time  |  avg time  |  max time  |%varavg| %total
---------------------------------------------------------------
Pair    | 43.115     | 43.565     | 44.015     |   6.8 | 62.53
Neigh   | 22.117     | 22.148     | 22.18      |   0.7 | 31.79
Comm    | 2.9696     | 3.4547     | 3.9398     |  26.1 |  4.96
Output  | 0.035929   | 0.035948   | 0.035968   |   0.0 |  0.05
Modify  | 0.35881    | 0.36134    | 0.36388    |   0.4 |  0.52
Other   |            | 0.1        |            |       |  0.14

Nlocal:    9826 ave 9847 max 9805 min
Histogram: 1 0 0 0 0 0 0 0 0 1
Nghost:    14740.5 ave 14741 max 14740 min
Histogram: 1 0 0 0 0 0 0 0 0 1
Neighs:    1.01728e+06 ave 1.02053e+06 max 1.01404e+06 min
Histogram: 1 0 0 0 0 0 0 0 0 1

Total # of neighbors = 2034568
Ave neighs/atom = 103.53
Neighbor list builds = 505
Dangerous builds not checked
Setting up Verlet run ...
  Unit style    : metal
  Current step  : 58000
  Time step     : 0.001
Per MPI rank memory allocation (min/avg/max) = 13.06 | 13.07 | 13.07 Mbytes
Step Temp Press TotEng PotEng Enthalpy Volume 
   58000    1547.8779   -60.503844   -66336.959    -70268.71   -66351.896    395551.78 
   58495    1520.1003     86.03134   -66440.325   -70301.518   -66419.102    395225.23 
Loop time of 68.1923 on 2 procs for 495 steps with 19652 atoms

Performance: 0.627 ns/day, 38.267 hours/ns, 7.259 timesteps/s
97.5% CPU use with 2 MPI tasks x no OpenMP threads

MPI task timing breakdown:
Section |  min time  |  avg time  |  max time  |%varavg| %total
---------------------------------------------------------------
Pair    | 42.055     | 42.091     | 42.127     |   0.6 | 61.72
Neigh   | 21.326     | 21.86      | 22.394     |  11.4 | 32.06
Comm    | 3.2813     | 3.7869     | 4.2924     |  26.0 |  5.55
Output  | 7.6056e-05 | 0.000103   | 0.00012994 |   0.0 |  0.00
Modify  | 0.3526     | 0.35746    | 0.36232    |   0.8 |  0.52
Other   |            | 0.09676    |            |       |  0.14

Nlocal:    9826 ave 9833 max 9819 min
Histogram: 1 0 0 0 0 0 0 0 0 1
Nghost:    14764.5 ave 14765 max 14764 min
Histogram: 1 0 0 0 0 0 0 0 0 1
Neighs:    1.01808e+06 ave 1.02004e+06 max 1.01612e+06 min
Histogram: 1 0 0 0 0 0 0 0 0 1

Total # of neighbors = 2036158
Ave neighs/atom = 103.611
Neighbor list builds = 495
Dangerous builds not checked
Setting up Verlet run ...
  Unit style    : metal
  Current step  : 58495
  Time step     : 0.001
Per MPI rank memory allocation (min/avg/max) = 13.06 | 13.07 | 13.07 Mbytes
Step Temp Press TotEng PotEng Enthalpy Volume 
   58495    1520.1003     86.03134   -66440.325   -70301.518   -66419.102    395225.23 
   59000    1494.6172    559.34307   -66602.078   -70398.542   -66464.586    393830.43 
Loop time of 72.0338 on 2 procs for 505 steps with 19652 atoms

Performance: 0.606 ns/day, 39.623 hours/ns, 7.011 timesteps/s
97.8% CPU use with 2 MPI tasks x no OpenMP threads

MPI task timing breakdown:
Section |  min time  |  avg time  |  max time  |%varavg| %total
---------------------------------------------------------------
Pair    | 45.667     | 46.137     | 46.606     |   6.9 | 64.05
Neigh   | 23.17      | 23.348     | 23.525     |   3.7 | 32.41
Comm    | 1.3806     | 2.0337     | 2.6869     |  45.8 |  2.82
Output  | 0.032608   | 0.032621   | 0.032634   |   0.0 |  0.05
Modify  | 0.37396    | 0.37883    | 0.3837     |   0.8 |  0.53
Other   |            | 0.1042     |            |       |  0.14

Nlocal:    9826 ave 9848 max 9804 min
Histogram: 1 0 0 0 0 0 0 0 0 1
Nghost:    14792.5 ave 14821 max 14764 min
Histogram: 1 0 0 0 0 0 0 0 0 1
Neighs:    1.02164e+06 ave 1.02446e+06 max 1.01882e+06 min
Histogram: 1 0 0 0 0 0 0 0 0 1

Total # of neighbors = 2043279
Ave neighs/atom = 103.973
Neighbor list builds = 505
Dangerous builds not checked
Setting up Verlet run ...
  Unit style    : metal
  Current step  : 59000
  Time step     : 0.001
Per MPI rank memory allocation (min/avg/max) = 13.06 | 13.07 | 13.07 Mbytes
Step Temp Press TotEng PotEng Enthalpy Volume 
   59000    1494.6172    559.34307   -66602.078   -70398.542   -66464.586    393830.43 
   59495    1467.4731    520.60324    -66777.72   -70505.236   -66650.059    392881.23 
Loop time of 70.9131 on 2 procs for 495 steps with 19652 atoms

Performance: 0.603 ns/day, 39.794 hours/ns, 6.980 timesteps/s
98.0% CPU use with 2 MPI tasks x no OpenMP threads

MPI task timing breakdown:
Section |  min time  |  avg time  |  max time  |%varavg| %total
---------------------------------------------------------------
Pair    | 43.734     | 44.119     | 44.505     |   5.8 | 62.22
Neigh   | 22.304     | 22.638     | 22.972     |   7.0 | 31.92
Comm    | 3.6342     | 3.6839     | 3.7336     |   2.6 |  5.19
Output  | 7.7963e-05 | 0.00011849 | 0.00015903 |   0.0 |  0.00
Modify  | 0.3676     | 0.36936    | 0.37112    |   0.3 |  0.52
Other   |            | 0.1026     |            |       |  0.14

Nlocal:    9826 ave 9843 max 9809 min
Histogram: 1 0 0 0 0 0 0 0 0 1
Nghost:    14835.5 ave 14855 max 14816 min
Histogram: 1 0 0 0 0 0 0 0 0 1
Neighs:    1.02449e+06 ave 1.02632e+06 max 1.02266e+06 min
Histogram: 1 0 0 0 0 0 0 0 0 1

Total # of neighbors = 2048979
Ave neighs/atom = 104.263
Neighbor list builds = 495
Dangerous builds not checked
Setting up Verlet run ...
  Unit style    : metal
  Current step  : 59495
  Time step     : 0.001
Per MPI rank memory allocation (min/avg/max) = 13.06 | 13.07 | 13.07 Mbytes
Step Temp Press TotEng PotEng Enthalpy Volume 
   59495    1467.4731    520.60324    -66777.72   -70505.236   -66650.059    392881.23 
   60000    1444.3086   -218.34551   -66892.467   -70561.142   -66945.964    392554.07 
Loop time of 72.0969 on 2 procs for 505 steps with 19652 atoms

Performance: 0.605 ns/day, 39.657 hours/ns, 7.004 timesteps/s
97.0% CPU use with 2 MPI tasks x no OpenMP threads

MPI task timing breakdown:
Section |  min time  |  avg time  |  max time  |%varavg| %total
---------------------------------------------------------------
Pair    | 45.099     | 45.516     | 45.934     |   6.2 | 63.13
Neigh   | 22.605     | 22.766     | 22.927     |   3.4 | 31.58
Comm    | 3.0504     | 3.307      | 3.5636     |  14.1 |  4.59
Output  | 0.035667   | 0.035694   | 0.035722   |   0.0 |  0.05
Modify  | 0.36975    | 0.36979    | 0.36983    |   0.0 |  0.51
Other   |            | 0.1022     |            |       |  0.14

Nlocal:    9826 ave 9826 max 9826 min
Histogram: 2 0 0 0 0 0 0 0 0 0
Nghost:    14785 ave 14793 max 14777 min
Histogram: 1 0 0 0 0 0 0 0 0 1
Neighs:    1.02519e+06 ave 1.02709e+06 max 1.02329e+06 min
Histogram: 1 0 0 0 0 0 0 0 0 1

Total # of neighbors = 2050383
Ave neighs/atom = 104.335
Neighbor list builds = 505
Dangerous builds not checked
Setting up Verlet run ...
  Unit style    : metal
  Current step  : 60000
  Time step     : 0.001
Per MPI rank memory allocation (min/avg/max) = 13.06 | 13.07 | 13.07 Mbytes
Step Temp Press TotEng PotEng Enthalpy Volume 
   60000    1444.3086   -218.34551   -66892.467   -70561.142   -66945.964    392554.07 
   60495    1415.9376    583.12218   -67012.946   -70609.556   -66870.435    391559.79 
Loop time of 70.7039 on 2 procs for 495 steps with 19652 atoms

Performance: 0.605 ns/day, 39.677 hours/ns, 7.001 timesteps/s
99.4% CPU use with 2 MPI tasks x no OpenMP threads

MPI task timing breakdown:
Section |  min time  |  avg time  |  max time  |%varavg| %total
---------------------------------------------------------------
Pair    | 44.398     | 44.757     | 45.116     |   5.4 | 63.30
Neigh   | 23.284     | 23.337     | 23.39      |   1.1 | 33.01
Comm    | 1.7156     | 2.128      | 2.5404     |  28.3 |  3.01
Output  | 7.7009e-05 | 0.00011647 | 0.00015593 |   0.0 |  0.00
Modify  | 0.37621    | 0.3775     | 0.37878    |   0.2 |  0.53
Other   |            | 0.1045     |            |       |  0.15

Nlocal:    9826 ave 9839 max 9813 min
Histogram: 1 0 0 0 0 0 0 0 0 1
Nghost:    14822.5 ave 14845 max 14800 min
Histogram: 1 0 0 0 0 0 0 0 0 1
Neighs:    1.02762e+06 ave 1.0289e+06 max 1.02633e+06 min
Histogram: 1 0 0 0 0 0 0 0 0 1

Total # of neighbors = 2055235
Ave neighs/atom = 104.581
Neighbor list builds = 495
Dangerous builds not checked
Setting up Verlet run ...
  Unit style    : metal
  Current step  : 60495
  Time step     : 0.001
Per MPI rank memory allocation (min/avg/max) = 13.06 | 13.07 | 13.07 Mbytes
Step Temp Press TotEng PotEng Enthalpy Volume 
   60495    1415.9376    583.12218   -67012.946   -70609.556   -66870.435    391559.79 
   61000    1396.5592    391.42886   -67191.049   -70738.437   -67095.669    390407.27 
Loop time of 71.1359 on 2 procs for 505 steps with 19652 atoms

Performance: 0.613 ns/day, 39.129 hours/ns, 7.099 timesteps/s
99.9% CPU use with 2 MPI tasks x no OpenMP threads

MPI task timing breakdown:
Section |  min time  |  avg time  |  max time  |%varavg| %total
---------------------------------------------------------------
Pair    | 44.886     | 45.202     | 45.518     |   4.7 | 63.54
Neigh   | 23.428     | 23.656     | 23.883     |   4.7 | 33.25
Comm    | 1.6625     | 1.751      | 1.8395     |   6.7 |  2.46
Output  | 0.037309   | 0.037336   | 0.037364   |   0.0 |  0.05
Modify  | 0.38223    | 0.38283    | 0.38343    |   0.1 |  0.54
Other   |            | 0.1066     |            |       |  0.15

Nlocal:    9826 ave 9829 max 9823 min
Histogram: 1 0 0 0 0 0 0 0 0 1
Nghost:    14858.5 ave 14886 max 14831 min
Histogram: 1 0 0 0 0 0 0 0 0 1
Neighs:    1.03084e+06 ave 1.03294e+06 max 1.02875e+06 min
Histogram: 1 0 0 0 0 0 0 0 0 1

Total # of neighbors = 2061688
Ave neighs/atom = 104.91
Neighbor list builds = 505
Dangerous builds not checked
Setting up Verlet run ...
  Unit style    : metal
  Current step  : 61000
  Time step     : 0.001
Per MPI rank memory allocation (min/avg/max) = 13.06 | 13.07 | 13.08 Mbytes
Step Temp Press TotEng PotEng Enthalpy Volume 
   61000    1396.5592    391.42886   -67191.049   -70738.437   -67095.669    390407.27 
   61495    1375.1089    749.64677   -67336.646   -70829.548   -67154.429       389442 
Loop time of 69.6484 on 2 procs for 495 steps with 19652 atoms

Performance: 0.614 ns/day, 39.084 hours/ns, 7.107 timesteps/s
99.4% CPU use with 2 MPI tasks x no OpenMP threads

MPI task timing breakdown:
Section |  min time  |  avg time  |  max time  |%varavg| %total
---------------------------------------------------------------
Pair    | 43.519     | 43.929     | 44.34      |   6.2 | 63.07
Neigh   | 22.754     | 22.908     | 23.063     |   3.2 | 32.89
Comm    | 1.7722     | 2.3391     | 2.9061     |  37.1 |  3.36
Output  | 7.8201e-05 | 0.00011706 | 0.00015593 |   0.0 |  0.00
Modify  | 0.36723    | 0.36897    | 0.37071    |   0.3 |  0.53
Other   |            | 0.1023     |            |       |  0.15

Nlocal:    9826 ave 9855 max 9797 min
Histogram: 1 0 0 0 0 0 0 0 0 1
Nghost:    14859 ave 14871 max 14847 min
Histogram: 1 0 0 0 0 0 0 0 0 1
Neighs:    1.03362e+06 ave 1.03872e+06 max 1.02852e+06 min
Histogram: 1 0 0 0 0 0 0 0 0 1

Total # of neighbors = 2067239
Ave neighs/atom = 105.192
Neighbor list builds = 495
Dangerous builds not checked
Setting up Verlet run ...
  Unit style    : metal
  Current step  : 61495
  Time step     : 0.001
Per MPI rank memory allocation (min/avg/max) = 13.06 | 13.07 | 13.08 Mbytes
Step Temp Press TotEng PotEng Enthalpy Volume 
   61495    1375.1089    749.64677   -67336.646   -70829.548   -67154.429       389442 
   62000    1342.8711     330.4595   -67478.168   -70889.183    -67397.96    388873.18 
Loop time of 70.7083 on 2 procs for 505 steps with 19652 atoms

Performance: 0.617 ns/day, 38.893 hours/ns, 7.142 timesteps/s
98.5% CPU use with 2 MPI tasks x no OpenMP threads

MPI task timing breakdown:
Section |  min time  |  avg time  |  max time  |%varavg| %total
---------------------------------------------------------------
Pair    | 44.726     | 45.085     | 45.445     |   5.4 | 63.76
Neigh   | 22.549     | 22.791     | 23.033     |   5.1 | 32.23
Comm    | 1.7155     | 2.3192     | 2.9229     |  39.6 |  3.28
Output  | 0.030723   | 0.030741   | 0.030759   |   0.0 |  0.04
Modify  | 0.37671    | 0.37865    | 0.38059    |   0.3 |  0.54
Other   |            | 0.1036     |            |       |  0.15

Nlocal:    9826 ave 9838 max 9814 min
Histogram: 1 0 0 0 0 0 0 0 0 1
Nghost:    14881 ave 14890 max 14872 min
Histogram: 1 0 0 0 0 0 0 0 0 1
Neighs:    1.03519e+06 ave 1.0362e+06 max 1.03418e+06 min
Histogram: 1 0 0 0 0 0 0 0 0 1

Total # of neighbors = 2070380
Ave neighs/atom = 105.352
Neighbor list builds = 505
Dangerous builds not checked
Setting up Verlet run ...
  Unit style    : metal
  Current step  : 62000
  Time step     : 0.001
Per MPI rank memory allocation (min/avg/max) = 13.06 | 13.07 | 13.08 Mbytes
Step Temp Press TotEng PotEng Enthalpy Volume 
   62000    1342.8711     330.4595   -67478.168   -70889.183    -67397.96    388873.18 
   62495     1313.199    501.32992   -67655.195    -70990.84   -67533.814    387915.63 
Loop time of 69.2234 on 2 procs for 495 steps with 19652 atoms

Performance: 0.618 ns/day, 38.846 hours/ns, 7.151 timesteps/s
98.8% CPU use with 2 MPI tasks x no OpenMP threads

MPI task timing breakdown:
Section |  min time  |  avg time  |  max time  |%varavg| %total
---------------------------------------------------------------
Pair    | 43.939     | 44.243     | 44.547     |   4.6 | 63.91
Neigh   | 22.387     | 22.415     | 22.442     |   0.6 | 32.38
Comm    | 1.8205     | 2.0993     | 2.3781     |  19.2 |  3.03
Output  | 7.7009e-05 | 0.00011206 | 0.0001471  |   0.0 |  0.00
Modify  | 0.36373    | 0.36526    | 0.36679    |   0.3 |  0.53
Other   |            | 0.1009     |            |       |  0.15

Nlocal:    9826 ave 9841 max 9811 min
Histogram: 1 0 0 0 0 0 0 0 0 1
Nghost:    14886 ave 14893 max 14879 min
Histogram: 1 0 0 0 0 0 0 0 0 1
Neighs:    1.03743e+06 ave 1.04026e+06 max 1.0346e+06 min
Histogram: 1 0 0 0 0 0 0 0 0 1

Total # of neighbors = 2074861
Ave neighs/atom = 105.58
Neighbor list builds = 495
Dangerous builds not checked
Setting up Verlet run ...
  Unit style    : metal
  Current step  : 62495
  Time step     : 0.001
Per MPI rank memory allocation (min/avg/max) = 13.06 | 13.07 | 13.08 Mbytes
Step Temp Press TotEng PotEng Enthalpy Volume 
   62495     1313.199    501.32992   -67655.195    -70990.84   -67533.814    387915.63 
   63000    1295.8223    -484.3873   -67744.981   -71036.487   -67862.223    387794.73 
Loop time of 69.2677 on 2 procs for 505 steps with 19652 atoms

Performance: 0.630 ns/day, 38.101 hours/ns, 7.291 timesteps/s
98.9% CPU use with 2 MPI tasks x no OpenMP threads

MPI task timing breakdown:
Section |  min time  |  avg time  |  max time  |%varavg| %total
---------------------------------------------------------------
Pair    | 43.181     | 43.482     | 43.782     |   4.6 | 62.77
Neigh   | 22.353     | 22.729     | 23.104     |   7.9 | 32.81
Comm    | 2.4716     | 2.5486     | 2.6255     |   4.8 |  3.68
Output  | 0.035728   | 0.035752   | 0.035777   |   0.0 |  0.05
Modify  | 0.36939    | 0.37043    | 0.37147    |   0.2 |  0.53
Other   |            | 0.1022     |            |       |  0.15

Nlocal:    9826 ave 9836 max 9816 min
Histogram: 1 0 0 0 0 0 0 0 0 1
Nghost:    14866 ave 14898 max 14834 min
Histogram: 1 0 0 0 0 0 0 0 0 1
Neighs:    1.03785e+06 ave 1.0382e+06 max 1.0375e+06 min
Histogram: 1 0 0 0 0 0 0 0 0 1

Total # of neighbors = 2075704
Ave neighs/atom = 105.623
Neighbor list builds = 505
Dangerous builds not checked
Setting up Verlet run ...
  Unit style    : metal
  Current step  : 63000
  Time step     : 0.001
Per MPI rank memory allocation (min/avg/max) = 13.06 | 13.07 | 13.08 Mbytes
Step Temp Press TotEng PotEng Enthalpy Volume 
   63000    1295.8223    -484.3873   -67744.981   -71036.487   -67862.223    387794.73 
   63495    1258.9513   -484.43747   -67925.312   -71123.163   -68042.288    386873.71 
Loop time of 69.9135 on 2 procs for 495 steps with 19652 atoms

Performance: 0.612 ns/day, 39.233 hours/ns, 7.080 timesteps/s
99.5% CPU use with 2 MPI tasks x no OpenMP threads

MPI task timing breakdown:
Section |  min time  |  avg time  |  max time  |%varavg| %total
---------------------------------------------------------------
Pair    | 44.147     | 44.449     | 44.75      |   4.5 | 63.58
Neigh   | 22.738     | 22.954     | 23.17      |   4.5 | 32.83
Comm    | 1.5146     | 2.0353     | 2.556      |  36.5 |  2.91
Output  | 7.5102e-05 | 0.00011408 | 0.00015306 |   0.0 |  0.00
Modify  | 0.36919    | 0.37176    | 0.37433    |   0.4 |  0.53
Other   |            | 0.104      |            |       |  0.15

Nlocal:    9826 ave 9827 max 9825 min
Histogram: 1 0 0 0 0 0 0 0 0 1
Nghost:    14898.5 ave 14909 max 14888 min
Histogram: 1 0 0 0 0 0 0 0 0 1
Neighs:    1.04033e+06 ave 1.04108e+06 max 1.03958e+06 min
Histogram: 1 0 0 0 0 0 0 0 0 1

Total # of neighbors = 2080658
Ave neighs/atom = 105.875
Neighbor list builds = 495
Dangerous builds not checked
Setting up Verlet run ...
  Unit style    : metal
  Current step  : 63495
  Time step     : 0.001
Per MPI rank memory allocation (min/avg/max) = 13.06 | 13.07 | 13.08 Mbytes
Step Temp Press TotEng PotEng Enthalpy Volume 
   63495    1258.9513   -484.43747   -67925.312   -71123.163   -68042.288    386873.71 
   64000    1244.7157   -4.6295887   -68046.387   -71208.078   -68047.502    385797.62 
Loop time of 70.3228 on 2 procs for 505 steps with 19652 atoms

Performance: 0.620 ns/day, 38.681 hours/ns, 7.181 timesteps/s
100.0% CPU use with 2 MPI tasks x no OpenMP threads

MPI task timing breakdown:
Section |  min time  |  avg time  |  max time  |%varavg| %total
---------------------------------------------------------------
Pair    | 44.176     | 44.629     | 45.081     |   6.8 | 63.46
Neigh   | 23.352     | 23.414     | 23.476     |   1.3 | 33.29
Comm    | 1.2384     | 1.7556     | 2.2728     |  39.0 |  2.50
Output  | 0.037043   | 0.037058   | 0.037073   |   0.0 |  0.05
Modify  | 0.37976    | 0.38179    | 0.38382    |   0.3 |  0.54
Other   |            | 0.106      |            |       |  0.15

Nlocal:    9826 ave 9828 max 9824 min
Histogram: 1 0 0 0 0 0 0 0 0 1
Nghost:    14925.5 ave 14974 max 14877 min
Histogram: 1 0 0 0 0 0 0 0 0 1
Neighs:    1.04331e+06 ave 1.0445e+06 max 1.04211e+06 min
Histogram: 1 0 0 0 0 0 0 0 0 1

Total # of neighbors = 2086612
Ave neighs/atom = 106.178
Neighbor list builds = 505
Dangerous builds not checked
Setting up Verlet run ...
  Unit style    : metal
  Current step  : 64000
  Time step     : 0.001
Per MPI rank memory allocation (min/avg/max) = 13.06 | 13.07 | 13.08 Mbytes
Step Temp Press TotEng PotEng Enthalpy Volume 
   64000    1244.7157   -4.6295887   -68046.387   -71208.078   -68047.502    385797.62 
   64495    1219.0228    450.16822   -68220.145   -71316.574    -68112.07    384645.99 
Loop time of 70.6421 on 2 procs for 495 steps with 19652 atoms

Performance: 0.605 ns/day, 39.642 hours/ns, 7.007 timesteps/s
99.9% CPU use with 2 MPI tasks x no OpenMP threads

MPI task timing breakdown:
Section |  min time  |  avg time  |  max time  |%varavg| %total
---------------------------------------------------------------
Pair    | 44.688     | 45.116     | 45.544     |   6.4 | 63.87
Neigh   | 23.183     | 23.419     | 23.654     |   4.9 | 33.15
Comm    | 0.95504    | 1.6237     | 2.2924     |  52.5 |  2.30
[...]
Loop time of 80.8876 on 2 procs for 495 steps with 19652 atoms

Performance: 0.529 ns/day, 45.391 hours/ns, 6.120 timesteps/s
95.6% CPU use with 2 MPI tasks x no OpenMP threads

MPI task timing breakdown:
Section |  min time  |  avg time  |  max time  |%varavg| %total
---------------------------------------------------------------
Pair    | 52.23      | 52.558     | 52.887     |   4.5 | 64.98
Neigh   | 24.591     | 24.593     | 24.595     |   0.0 | 30.40
Comm    | 2.8097     | 3.127      | 3.4443     |  17.9 |  3.87
Output  | 7.7963e-05 | 0.00011837 | 0.00015879 |   0.0 |  0.00
Modify  | 0.48757    | 0.49753    | 0.50749    |   1.4 |  0.62
Other   |            | 0.1118     |            |       |  0.14

Nlocal:    9826 ave 9827 max 9825 min
Histogram: 1 0 0 0 0 0 0 0 0 1
Nghost:    15518.5 ave 15528 max 15509 min
Histogram: 1 0 0 0 0 0 0 0 0 1
Neighs:    1.14628e+06 ave 1.1463e+06 max 1.14628e+06 min
Histogram: 1 0 0 0 0 0 0 0 0 1

Total # of neighbors = 2292570
Ave neighs/atom = 116.658
Neighbor list builds = 495
Dangerous builds not checked
Setting up Verlet run ...
  Unit style    : metal
  Current step  : 80495
  Time step     : 0.001
Per MPI rank memory allocation (min/avg/max) = 13.07 | 13.07 | 13.08 Mbytes
Step Temp Press TotEng PotEng Enthalpy Volume 
   80495    421.60967     414.2472   -73414.845   -74485.772   -73323.372    353788.44 
   81000    397.93596    254.06834   -73563.556   -74574.349   -73507.577    353006.58 
Loop time of 83.3313 on 2 procs for 505 steps with 19652 atoms

Performance: 0.524 ns/day, 45.837 hours/ns, 6.060 timesteps/s
94.1% CPU use with 2 MPI tasks x no OpenMP threads

MPI task timing breakdown:
Section |  min time  |  avg time  |  max time  |%varavg| %total
---------------------------------------------------------------
Pair    | 55.281     | 55.323     | 55.365     |   0.6 | 66.39
Neigh   | 24.528     | 24.73      | 24.933     |   4.1 | 29.68
Comm    | 2.4367     | 2.68       | 2.9233     |  14.9 |  3.22
Output  | 0.035793   | 0.035876   | 0.035959   |   0.0 |  0.04
Modify  | 0.44648    | 0.44955    | 0.45262    |   0.5 |  0.54
Other   |            | 0.1122     |            |       |  0.13

Nlocal:    9826 ave 9827 max 9825 min
Histogram: 1 0 0 0 0 0 0 0 0 1
Nghost:    15513.5 ave 15526 max 15501 min
Histogram: 1 0 0 0 0 0 0 0 0 1
Neighs:    1.14918e+06 ave 1.15026e+06 max 1.14811e+06 min
Histogram: 1 0 0 0 0 0 0 0 0 1

Total # of neighbors = 2298367
Ave neighs/atom = 116.953
Neighbor list builds = 505
Dangerous builds not checked
Setting up Verlet run ...
  Unit style    : metal
  Current step  : 81000
  Time step     : 0.001
Per MPI rank memory allocation (min/avg/max) = 13.07 | 13.07 | 13.08 Mbytes
Step Temp Press TotEng PotEng Enthalpy Volume 
   81000    397.93596    254.06834   -73563.556   -74574.349   -73507.577    353006.58 
   81495    374.23448   -219.87665   -73715.861   -74666.451   -73764.234    352478.37 
Loop time of 79.4367 on 2 procs for 495 steps with 19652 atoms

Performance: 0.538 ns/day, 44.577 hours/ns, 6.231 timesteps/s
96.0% CPU use with 2 MPI tasks x no OpenMP threads

MPI task timing breakdown:
Section |  min time  |  avg time  |  max time  |%varavg| %total
---------------------------------------------------------------
Pair    | 51.629     | 52.202     | 52.774     |   7.9 | 65.72
Neigh   | 23.985     | 24.067     | 24.149     |   1.7 | 30.30
Comm    | 2.1484     | 2.6351     | 3.1217     |  30.0 |  3.32
Output  | 7.987e-05  | 0.00011694 | 0.00015402 |   0.0 |  0.00
Modify  | 0.41662    | 0.41966    | 0.4227     |   0.5 |  0.53
Other   |            | 0.113      |            |       |  0.14

Nlocal:    9826 ave 9849 max 9803 min
Histogram: 1 0 0 0 0 0 0 0 0 1
Nghost:    15512.5 ave 15560 max 15465 min
Histogram: 1 0 0 0 0 0 0 0 0 1
Neighs:    1.15138e+06 ave 1.15385e+06 max 1.14891e+06 min
Histogram: 1 0 0 0 0 0 0 0 0 1

Total # of neighbors = 2302762
Ave neighs/atom = 117.177
Neighbor list builds = 495
Dangerous builds not checked
Setting up Verlet run ...
  Unit style    : metal
  Current step  : 81495
  Time step     : 0.001
Per MPI rank memory allocation (min/avg/max) = 13.07 | 13.07 | 13.08 Mbytes
Step Temp Press TotEng PotEng Enthalpy Volume 
   81495    374.23448   -219.87665   -73715.861   -74666.451   -73764.234    352478.37 
   82000    351.19952  -0.23453559   -73861.749   -74753.828     -73861.8    351499.93 
Loop time of 81.4242 on 2 procs for 505 steps with 19652 atoms

Performance: 0.536 ns/day, 44.788 hours/ns, 6.202 timesteps/s
96.1% CPU use with 2 MPI tasks x no OpenMP threads

MPI task timing breakdown:
Section |  min time  |  avg time  |  max time  |%varavg| %total
---------------------------------------------------------------
Pair    | 53.417     | 53.922     | 54.426     |   6.9 | 66.22
Neigh   | 24.576     | 24.579     | 24.582     |   0.1 | 30.19
Comm    | 1.826      | 2.3319     | 2.8378     |  33.1 |  2.86
Output  | 0.038107   | 0.038187   | 0.038267   |   0.0 |  0.05
Modify  | 0.43798    | 0.43825    | 0.43851    |   0.0 |  0.54
Other   |            | 0.1151     |            |       |  0.14

Nlocal:    9826 ave 9849 max 9803 min
Histogram: 1 0 0 0 0 0 0 0 0 1
Nghost:    15515.5 ave 15552 max 15479 min
Histogram: 1 0 0 0 0 0 0 0 0 1
Neighs:    1.15493e+06 ave 1.15756e+06 max 1.15229e+06 min
Histogram: 1 0 0 0 0 0 0 0 0 1

Total # of neighbors = 2309853
Ave neighs/atom = 117.538
Neighbor list builds = 505
Dangerous builds not checked
Setting up Verlet run ...
  Unit style    : metal
  Current step  : 82000
  Time step     : 0.001
Per MPI rank memory allocation (min/avg/max) = 13.07 | 13.07 | 13.08 Mbytes
Step Temp Press TotEng PotEng Enthalpy Volume 
   82000    351.19952  -0.23453559   -73861.749   -74753.828     -73861.8    351499.93 
   82495    326.36245    306.28522   -74005.511   -74834.501   -73938.463    350729.25 
Loop time of 81.7208 on 2 procs for 495 steps with 19652 atoms

Performance: 0.523 ns/day, 45.859 hours/ns, 6.057 timesteps/s
93.9% CPU use with 2 MPI tasks x no OpenMP threads

MPI task timing breakdown:
Section |  min time  |  avg time  |  max time  |%varavg| %total
---------------------------------------------------------------
Pair    | 53.426     | 53.725     | 54.024     |   4.1 | 65.74
Neigh   | 24.358     | 24.399     | 24.44      |   0.8 | 29.86
Comm    | 2.708      | 3.0336     | 3.3591     |  18.7 |  3.71
Output  | 8.3923e-05 | 0.00017703 | 0.00027013 |   0.0 |  0.00
Modify  | 0.43448    | 0.44997    | 0.46546    |   2.3 |  0.55
Other   |            | 0.1129     |            |       |  0.14

Nlocal:    9826 ave 9830 max 9822 min
Histogram: 1 0 0 0 0 0 0 0 0 1
Nghost:    15557.5 ave 15562 max 15553 min
Histogram: 1 0 0 0 0 0 0 0 0 1
Neighs:    1.15761e+06 ave 1.15932e+06 max 1.15591e+06 min
Histogram: 1 0 0 0 0 0 0 0 0 1

Total # of neighbors = 2315223
Ave neighs/atom = 117.811
Neighbor list builds = 495
Dangerous builds not checked
Setting up Verlet run ...
  Unit style    : metal
  Current step  : 82495
  Time step     : 0.001
Per MPI rank memory allocation (min/avg/max) = 13.07 | 13.07 | 13.08 Mbytes
Step Temp Press TotEng PotEng Enthalpy Volume 
   82495    326.36245    306.28522   -74005.511   -74834.501   -73938.463    350729.25 
   83000    296.50859   -196.04371   -74149.359   -74902.518   -74192.223    350306.62 
Loop time of 88.2319 on 2 procs for 505 steps with 19652 atoms

Performance: 0.495 ns/day, 48.532 hours/ns, 5.724 timesteps/s
91.8% CPU use with 2 MPI tasks x no OpenMP threads

MPI task timing breakdown:
Section |  min time  |  avg time  |  max time  |%varavg| %total
---------------------------------------------------------------
Pair    | 58.205     | 58.666     | 59.128     |   6.0 | 66.49
Neigh   | 25.148     | 25.3       | 25.452     |   3.0 | 28.67
Comm    | 3.0075     | 3.6298     | 4.2521     |  32.7 |  4.11
Output  | 0.036585   | 0.036669   | 0.036752   |   0.0 |  0.04
Modify  | 0.46748    | 0.46853    | 0.46957    |   0.2 |  0.53
Other   |            | 0.1306     |            |       |  0.15

Nlocal:    9826 ave 9837 max 9815 min
Histogram: 1 0 0 0 0 0 0 0 0 1
Nghost:    15572 ave 15573 max 15571 min
Histogram: 1 0 0 0 0 0 0 0 0 1
Neighs:    1.15949e+06 ave 1.16169e+06 max 1.1573e+06 min
Histogram: 1 0 0 0 0 0 0 0 0 1

Total # of neighbors = 2318984
Ave neighs/atom = 118.002
Neighbor list builds = 505
Dangerous builds not checked
Setting up Verlet run ...
  Unit style    : metal
  Current step  : 83000
  Time step     : 0.001
Per MPI rank memory allocation (min/avg/max) = 13.07 | 13.07 | 13.08 Mbytes
Step Temp Press TotEng PotEng Enthalpy Volume 
   83000    296.50859   -196.04371   -74149.359   -74902.518   -74192.223    350306.62 
   83495    274.67775    412.63624   -74286.746   -74984.453   -74196.775    349338.29 
Loop time of 79.7786 on 2 procs for 495 steps with 19652 atoms

Performance: 0.536 ns/day, 44.769 hours/ns, 6.205 timesteps/s
95.4% CPU use with 2 MPI tasks x no OpenMP threads

MPI task timing breakdown:
Section |  min time  |  avg time  |  max time  |%varavg| %total
---------------------------------------------------------------
Pair    | 52.871     | 53.05      | 53.23      |   2.5 | 66.50
Neigh   | 24.097     | 24.228     | 24.358     |   2.7 | 30.37
Comm    | 1.9248     | 1.978      | 2.0313     |   3.8 |  2.48
Output  | 7.8917e-05 | 0.00011206 | 0.0001452  |   0.0 |  0.00
Modify  | 0.40107    | 0.40228    | 0.40348    |   0.2 |  0.50
Other   |            | 0.1203     |            |       |  0.15

Nlocal:    9826 ave 9841 max 9811 min
Histogram: 1 0 0 0 0 0 0 0 0 1
Nghost:    15607.5 ave 15617 max 15598 min
Histogram: 1 0 0 0 0 0 0 0 0 1
Neighs:    1.16322e+06 ave 1.16594e+06 max 1.16049e+06 min
Histogram: 1 0 0 0 0 0 0 0 0 1

Total # of neighbors = 2326430
Ave neighs/atom = 118.381
Neighbor list builds = 495
Dangerous builds not checked
Setting up Verlet run ...
  Unit style    : metal
  Current step  : 83495
  Time step     : 0.001
Per MPI rank memory allocation (min/avg/max) = 13.07 | 13.07 | 13.08 Mbytes
Step Temp Press TotEng PotEng Enthalpy Volume 
   83495    274.67775    412.63624   -74286.746   -74984.453   -74196.775    349338.29 
   84000    248.16818    187.42065   -74429.053   -75059.423   -74388.257    348749.43 
Loop time of 79.4732 on 2 procs for 505 steps with 19652 atoms

Performance: 0.549 ns/day, 43.715 hours/ns, 6.354 timesteps/s
97.1% CPU use with 2 MPI tasks x no OpenMP threads

MPI task timing breakdown:
Section |  min time  |  avg time  |  max time  |%varavg| %total
---------------------------------------------------------------
Pair    | 51.936     | 52.688     | 53.44      |  10.4 | 66.30
Neigh   | 24.135     | 24.293     | 24.45      |   3.2 | 30.57
Comm    | 1.0114     | 1.931      | 2.8507     |  66.2 |  2.43
Output  | 0.03629    | 0.036366   | 0.036443   |   0.0 |  0.05
Modify  | 0.40424    | 0.40764    | 0.41104    |   0.5 |  0.51
Other   |            | 0.1175     |            |       |  0.15

Nlocal:    9826 ave 9828 max 9824 min
Histogram: 1 0 0 0 0 0 0 0 0 1
Nghost:    15596 ave 15612 max 15580 min
Histogram: 1 0 0 0 0 0 0 0 0 1
Neighs:    1.16532e+06 ave 1.16659e+06 max 1.16404e+06 min
Histogram: 1 0 0 0 0 0 0 0 0 1

Total # of neighbors = 2330632
Ave neighs/atom = 118.595
Neighbor list builds = 505
Dangerous builds not checked
Setting up Verlet run ...
  Unit style    : metal
  Current step  : 84000
  Time step     : 0.001
Per MPI rank memory allocation (min/avg/max) = 13.07 | 13.07 | 13.08 Mbytes
Step Temp Press TotEng PotEng Enthalpy Volume 
   84000    248.16818    187.42065   -74429.053   -75059.423   -74388.257    348749.43 
   84495    223.93599   -54.311418   -74564.318   -75133.136   -74576.124    348264.13 
Loop time of 80.2489 on 2 procs for 495 steps with 19652 atoms

Performance: 0.533 ns/day, 45.033 hours/ns, 6.168 timesteps/s
94.8% CPU use with 2 MPI tasks x no OpenMP threads

MPI task timing breakdown:
Section |  min time  |  avg time  |  max time  |%varavg| %total
---------------------------------------------------------------
Pair    | 51.957     | 52.617     | 53.277     |   9.1 | 65.57
Neigh   | 23.46      | 23.732     | 24.004     |   5.6 | 29.57
Comm    | 3.0175     | 3.3987     | 3.78       |  20.7 |  4.24
Output  | 8.7976e-05 | 0.00012648 | 0.00016499 |   0.0 |  0.00
Modify  | 0.38733    | 0.39106    | 0.39479    |   0.6 |  0.49
Other   |            | 0.1098     |            |       |  0.14

Nlocal:    9826 ave 9829 max 9823 min
Histogram: 1 0 0 0 0 0 0 0 0 1
Nghost:    15627 ave 15643 max 15611 min
Histogram: 1 0 0 0 0 0 0 0 0 1
Neighs:    1.16747e+06 ave 1.16777e+06 max 1.16716e+06 min
Histogram: 1 0 0 0 0 0 0 0 0 1

Total # of neighbors = 2334931
Ave neighs/atom = 118.814
Neighbor list builds = 495
Dangerous builds not checked
Setting up Verlet run ...
  Unit style    : metal
  Current step  : 84495
  Time step     : 0.001
Per MPI rank memory allocation (min/avg/max) = 13.07 | 13.07 | 13.08 Mbytes
Step Temp Press TotEng PotEng Enthalpy Volume 
   84495    223.93599   -54.311418   -74564.318   -75133.136   -74576.124    348264.13 
   85000    200.56857   -64.710613   -74702.734   -75212.197   -74716.776    347677.48 
Loop time of 80.1028 on 2 procs for 505 steps with 19652 atoms

Performance: 0.545 ns/day, 44.061 hours/ns, 6.304 timesteps/s
96.6% CPU use with 2 MPI tasks x no OpenMP threads

MPI task timing breakdown:
Section |  min time  |  avg time  |  max time  |%varavg| %total
---------------------------------------------------------------
Pair    | 51.506     | 51.749     | 51.992     |   3.4 | 64.60
Neigh   | 24.028     | 24.206     | 24.385     |   3.6 | 30.22
Comm    | 2.4887     | 2.9184     | 3.3481     |  25.2 |  3.64
Output  | 0.7191     | 0.72077    | 0.72244    |   0.2 |  0.90
Modify  | 0.38848    | 0.39574    | 0.403      |   1.2 |  0.49
Other   |            | 0.1125     |            |       |  0.14

Nlocal:    9826 ave 9828 max 9824 min
Histogram: 1 0 0 0 0 0 0 0 0 1
Nghost:    15639 ave 15660 max 15618 min
Histogram: 1 0 0 0 0 0 0 0 0 1
Neighs:    1.16957e+06 ave 1.17014e+06 max 1.169e+06 min
Histogram: 1 0 0 0 0 0 0 0 0 1

Total # of neighbors = 2339145
Ave neighs/atom = 119.028
Neighbor list builds = 505
Dangerous builds not checked
Setting up Verlet run ...
  Unit style    : metal
  Current step  : 85000
  Time step     : 0.001
Per MPI rank memory allocation (min/avg/max) = 13.07 | 13.07 | 13.08 Mbytes
Step Temp Press TotEng PotEng Enthalpy Volume 
   85000    200.56857   -64.710613   -74702.734   -75212.197   -74716.776    347677.48 
   85495    175.99979   -297.65714   -74832.048   -75279.103   -74896.535    347108.92 
Loop time of 77.5282 on 2 procs for 495 steps with 19652 atoms

Performance: 0.552 ns/day, 43.506 hours/ns, 6.385 timesteps/s
96.6% CPU use with 2 MPI tasks x no OpenMP threads

MPI task timing breakdown:
Section |  min time  |  avg time  |  max time  |%varavg| %total
---------------------------------------------------------------
Pair    | 50.361     | 51.15      | 51.939     |  11.0 | 65.98
Neigh   | 23.264     | 23.598     | 23.932     |   6.9 | 30.44
Comm    | 1.8217     | 2.2735     | 2.7254     |  30.0 |  2.93
Output  | 7.8917e-05 | 0.00017643 | 0.00027394 |   0.0 |  0.00
Modify  | 0.39406    | 0.39468    | 0.3953     |   0.1 |  0.51
Other   |            | 0.1113     |            |       |  0.14

Nlocal:    9826 ave 9827 max 9825 min
Histogram: 1 0 0 0 0 0 0 0 0 1
Nghost:    15647.5 ave 15662 max 15633 min
Histogram: 1 0 0 0 0 0 0 0 0 1
Neighs:    1.17174e+06 ave 1.17226e+06 max 1.17121e+06 min
Histogram: 1 0 0 0 0 0 0 0 0 1

Total # of neighbors = 2343476
Ave neighs/atom = 119.249
Neighbor list builds = 495
Dangerous builds not checked
Setting up Verlet run ...
  Unit style    : metal
  Current step  : 85495
  Time step     : 0.001
Per MPI rank memory allocation (min/avg/max) = 13.07 | 13.07 | 13.08 Mbytes
Step Temp Press TotEng PotEng Enthalpy Volume 
   85495    175.99979   -297.65714   -74832.048   -75279.103   -74896.535    347108.92 
   86000    152.37566   -213.85676   -74967.362    -75354.41   -75013.611    346485.74 
Loop time of 83.5007 on 2 procs for 505 steps with 19652 atoms

Performance: 0.523 ns/day, 45.930 hours/ns, 6.048 timesteps/s
93.5% CPU use with 2 MPI tasks x no OpenMP threads

MPI task timing breakdown:
Section |  min time  |  avg time  |  max time  |%varavg| %total
---------------------------------------------------------------
Pair    | 53.716     | 54.009     | 54.303     |   4.0 | 64.68
Neigh   | 24.447     | 24.453     | 24.46      |   0.1 | 29.29
Comm    | 4.1987     | 4.4864     | 4.7741     |  13.6 |  5.37
Output  | 0.035993   | 0.036013   | 0.036032   |   0.0 |  0.04
Modify  | 0.40432    | 0.40508    | 0.40584    |   0.1 |  0.49
Other   |            | 0.1104     |            |       |  0.13

Nlocal:    9826 ave 9829 max 9823 min
Histogram: 1 0 0 0 0 0 0 0 0 1
Nghost:    15651 ave 15675 max 15627 min
Histogram: 1 0 0 0 0 0 0 0 0 1
Neighs:    1.17428e+06 ave 1.17532e+06 max 1.17324e+06 min
Histogram: 1 0 0 0 0 0 0 0 0 1

Total # of neighbors = 2348565
Ave neighs/atom = 119.508
Neighbor list builds = 505
Dangerous builds not checked
Setting up Verlet run ...
  Unit style    : metal
  Current step  : 86000
  Time step     : 0.001
Per MPI rank memory allocation (min/avg/max) = 13.07 | 13.07 | 13.08 Mbytes
Step Temp Press TotEng PotEng Enthalpy Volume 
   86000    152.37566   -213.85676   -74967.362    -75354.41   -75013.611    346485.74 
   86495    127.23526    19.663532    -75093.35   -75416.539   -75089.106    345817.79 
Loop time of 83.2166 on 2 procs for 495 steps with 19652 atoms

Performance: 0.514 ns/day, 46.698 hours/ns, 5.948 timesteps/s
94.0% CPU use with 2 MPI tasks x no OpenMP threads

MPI task timing breakdown:
Section |  min time  |  avg time  |  max time  |%varavg| %total
---------------------------------------------------------------
Pair    | 54.205     | 54.209     | 54.214     |   0.1 | 65.14
Neigh   | 24.176     | 24.421     | 24.667     |   5.0 | 29.35
Comm    | 3.752      | 4.0286     | 4.3051     |  13.8 |  4.84
Output  | 7.6056e-05 | 0.00012207 | 0.00016809 |   0.0 |  0.00
Modify  | 0.42245    | 0.44481    | 0.46717    |   3.4 |  0.53
Other   |            | 0.1129     |            |       |  0.14

Nlocal:    9826 ave 9827 max 9825 min
Histogram: 1 0 0 0 0 0 0 0 0 1
Nghost:    15649 ave 15658 max 15640 min
Histogram: 1 0 0 0 0 0 0 0 0 1
Neighs:    1.17646e+06 ave 1.17824e+06 max 1.17468e+06 min
Histogram: 1 0 0 0 0 0 0 0 0 1

Total # of neighbors = 2352921
Ave neighs/atom = 119.729
Neighbor list builds = 495
Dangerous builds not checked
Setting up Verlet run ...
  Unit style    : metal
  Current step  : 86495
  Time step     : 0.001
Per MPI rank memory allocation (min/avg/max) = 13.07 | 13.07 | 13.08 Mbytes
Step Temp Press TotEng PotEng Enthalpy Volume 
   86495    127.23526    19.663532    -75093.35   -75416.539   -75089.106    345817.79 
   87000    104.08914     321.1738   -75223.847   -75488.242   -75154.658    345148.96 
Loop time of 81.0698 on 2 procs for 505 steps with 19652 atoms

Performance: 0.538 ns/day, 44.593 hours/ns, 6.229 timesteps/s
95.5% CPU use with 2 MPI tasks x no OpenMP threads

MPI task timing breakdown:
Section |  min time  |  avg time  |  max time  |%varavg| %total
---------------------------------------------------------------
Pair    | 53.637     | 53.695     | 53.753     |   0.8 | 66.23
Neigh   | 24.17      | 24.201     | 24.232     |   0.6 | 29.85
Comm    | 2.6046     | 2.6245     | 2.6444     |   1.2 |  3.24
Output  | 0.034908   | 0.035002   | 0.035096   |   0.1 |  0.04
Modify  | 0.39709    | 0.39732    | 0.39754    |   0.0 |  0.49
Other   |            | 0.117      |            |       |  0.14

Nlocal:    9826 ave 9829 max 9823 min
Histogram: 1 0 0 0 0 0 0 0 0 1
Nghost:    15681.5 ave 15685 max 15678 min
Histogram: 1 0 0 0 0 0 0 0 0 1
Neighs:    1.17913e+06 ave 1.18018e+06 max 1.17808e+06 min
Histogram: 1 0 0 0 0 0 0 0 0 1

Total # of neighbors = 2358263
Ave neighs/atom = 120.001
Neighbor list builds = 505
Dangerous builds not checked
Total wall time: 3:33:36
