LAMMPS (12 Dec 2018)
Lattice spacing in x,y,z = 4 4 4
Created orthogonal box = (0 0 0) to (68 68 68)
  1 by 1 by 1 MPI processor grid
Created 19652 atoms
  Time spent = 0.00304008 secs
Setting atom values ...
  206 settings made for type/fraction
Neighbor list info ...
  update every 1 steps, delay 0 steps, check no
  max neighbors/atom: 2000, page size: 100000
  master list distance cutoff = 8.5
  ghost atom cutoff = 8.5
  binsize = 4.25, bins = 16 16 16
  1 neighbor lists, perpetual/occasional/extra = 1 0 0
  (1) pair eam/alloy, perpetual
      attributes: half, newton on
      pair build: half/bin/atomonly/newton
      stencil: half/bin/3d/newton
      bin: standard
Setting up Verlet run ...
  Unit style    : metal
  Current step  : 0
  Time step     : 0.001
Per MPI rank memory allocation (min/avg/max) = 18.19 | 18.19 | 18.19 Mbytes
Step Temp Press TotEng PotEng Enthalpy 
       0          300    639595.78   -102542.49   -103304.52    22980.119 
    1000    191.22446    582337.53   -102542.43   -103028.15    11743.081 
Loop time of 164.404 on 1 procs for 1000 steps with 19652 atoms

Performance: 0.526 ns/day, 45.668 hours/ns, 6.083 timesteps/s
95.9% CPU use with 1 MPI tasks x no OpenMP threads

MPI task timing breakdown:
Section |  min time  |  avg time  |  max time  |%varavg| %total
---------------------------------------------------------------
Pair    | 92.925     | 92.925     | 92.925     |   0.0 | 56.52
Neigh   | 69.348     | 69.348     | 69.348     |   0.0 | 42.18
Comm    | 1.2376     | 1.2376     | 1.2376     |   0.0 |  0.75
Output  | 0.00040984 | 0.00040984 | 0.00040984 |   0.0 |  0.00
Modify  | 0.47689    | 0.47689    | 0.47689    |   0.0 |  0.29
Other   |            | 0.416      |            |       |  0.25

Nlocal:    19652 ave 19652 max 19652 min
Histogram: 1 0 0 0 0 0 0 0 0 0
Nghost:    19908 ave 19908 max 19908 min
Histogram: 1 0 0 0 0 0 0 0 0 0
Neighs:    1.5631e+06 ave 1.5631e+06 max 1.5631e+06 min
Histogram: 1 0 0 0 0 0 0 0 0 0

Total # of neighbors = 1563095
Ave neighs/atom = 79.5387
Neighbor list builds = 1000
Dangerous builds not checked
Setting up Verlet run ...
  Unit style    : metal
  Current step  : 1000
  Time step     : 0.001
Per MPI rank memory allocation (min/avg/max) = 18.19 | 18.19 | 18.19 Mbytes
Step Temp Press TotEng PotEng Enthalpy 
    1000    191.22446    582337.53   -102542.43   -103028.15    11743.081 
    2000    302.38015   0.86182564   -121847.04   -122615.11   -121846.79 
Loop time of 135.214 on 1 procs for 1000 steps with 19652 atoms

Performance: 0.639 ns/day, 37.559 hours/ns, 7.396 timesteps/s
93.7% CPU use with 1 MPI tasks x no OpenMP threads

MPI task timing breakdown:
Section |  min time  |  avg time  |  max time  |%varavg| %total
---------------------------------------------------------------
Pair    | 71.597     | 71.597     | 71.597     |   0.0 | 52.95
Neigh   | 60.519     | 60.519     | 60.519     |   0.0 | 44.76
Comm    | 1.0648     | 1.0648     | 1.0648     |   0.0 |  0.79
Output  | 0.00028801 | 0.00028801 | 0.00028801 |   0.0 |  0.00
Modify  | 1.6283     | 1.6283     | 1.6283     |   0.0 |  1.20
Other   |            | 0.4046     |            |       |  0.30

Nlocal:    19652 ave 19652 max 19652 min
Histogram: 1 0 0 0 0 0 0 0 0 0
Nghost:    14812 ave 14812 max 14812 min
Histogram: 1 0 0 0 0 0 0 0 0 0
Neighs:    1.09687e+06 ave 1.09687e+06 max 1.09687e+06 min
Histogram: 1 0 0 0 0 0 0 0 0 0

Total # of neighbors = 1096867
Ave neighs/atom = 55.8145
Neighbor list builds = 1000
Dangerous builds not checked
Setting up Verlet run ...
  Unit style    : metal
  Current step  : 2000
  Time step     : 0.001
Per MPI rank memory allocation (min/avg/max) = 18.19 | 18.19 | 18.19 Mbytes
Step Temp Press TotEng PotEng Enthalpy 
    2000    302.38015   0.86182564   -121847.04   -122615.11   -121846.79 
    6667    1549.3472   -653.82832   -114523.16   -118458.65   -114714.54 
   10000    2458.4208   -1640.7218   -106438.95   -112683.56   -106939.61 
Loop time of 969.383 on 1 procs for 8000 steps with 19652 atoms

Performance: 0.713 ns/day, 33.659 hours/ns, 8.253 timesteps/s
98.8% CPU use with 1 MPI tasks x no OpenMP threads

MPI task timing breakdown:
Section |  min time  |  avg time  |  max time  |%varavg| %total
---------------------------------------------------------------
Pair    | 508.6      | 508.6      | 508.6      |   0.0 | 52.47
Neigh   | 437.12     | 437.12     | 437.12     |   0.0 | 45.09
Comm    | 8.1048     | 8.1048     | 8.1048     |   0.0 |  0.84
Output  | 0.062494   | 0.062494   | 0.062494   |   0.0 |  0.01
Modify  | 12.324     | 12.324     | 12.324     |   0.0 |  1.27
Other   |            | 3.165      |            |       |  0.33

Nlocal:    19652 ave 19652 max 19652 min
Histogram: 1 0 0 0 0 0 0 0 0 0
Nghost:    15651 ave 15651 max 15651 min
Histogram: 1 0 0 0 0 0 0 0 0 0
Neighs:    1.00391e+06 ave 1.00391e+06 max 1.00391e+06 min
Histogram: 1 0 0 0 0 0 0 0 0 0

Total # of neighbors = 1003912
Ave neighs/atom = 51.0845
Neighbor list builds = 8000
Dangerous builds not checked
Setting up Verlet run ...
  Unit style    : metal
  Current step  : 10000
  Time step     : 0.001
Per MPI rank memory allocation (min/avg/max) = 18.19 | 18.19 | 18.19 Mbytes
Step Temp Press TotEng PotEng Enthalpy 
   10000    2458.4208   -1640.7218   -106438.95   -112683.56   -106939.61 
   13334      2461.32     1953.279   -106355.88   -112607.85   -105762.53 
   20001    2443.7928   -1041.2567   -106406.96   -112614.42    -106724.5 
   26668    2458.1538   -328.69928   -106352.22   -112596.15   -106452.45 
   33335    2457.8103    652.40992   -106416.98   -112660.04   -106218.43 
   40000    2457.3205    72.371531   -106370.23   -112612.04   -106348.17 
Loop time of 3614.54 on 1 procs for 30000 steps with 19652 atoms

Performance: 0.717 ns/day, 33.468 hours/ns, 8.300 timesteps/s
99.9% CPU use with 1 MPI tasks x no OpenMP threads

MPI task timing breakdown:
Section |  min time  |  avg time  |  max time  |%varavg| %total
---------------------------------------------------------------
Pair    | 1846.3     | 1846.3     | 1846.3     |   0.0 | 51.08
Neigh   | 1682.1     | 1682.1     | 1682.1     |   0.0 | 46.54
Comm    | 30.21      | 30.21      | 30.21      |   0.0 |  0.84
Output  | 0.49834    | 0.49834    | 0.49834    |   0.0 |  0.01
Modify  | 44.253     | 44.253     | 44.253     |   0.0 |  1.22
Other   |            | 11.24      |            |       |  0.31

Nlocal:    19652 ave 19652 max 19652 min
Histogram: 1 0 0 0 0 0 0 0 0 0
Nghost:    15654 ave 15654 max 15654 min
Histogram: 1 0 0 0 0 0 0 0 0 0
Neighs:    1.00635e+06 ave 1.00635e+06 max 1.00635e+06 min
Histogram: 1 0 0 0 0 0 0 0 0 0

Total # of neighbors = 1006350
Ave neighs/atom = 51.2085
Neighbor list builds = 30000
Dangerous builds not checked
Setting up Verlet run ...
  Unit style    : metal
  Current step  : 40000
  Time step     : 0.001
Per MPI rank memory allocation (min/avg/max) = 18.19 | 18.19 | 18.19 Mbytes
Step Temp Press TotEng PotEng Enthalpy 
   40000    2457.3205    72.371531   -106370.23   -112612.04   -106348.17 
   40002    2457.3063    64.332029   -106370.23   -112612.02   -106350.63 
   40495     2411.196    409.68699   -106602.18   -112726.84   -106477.58 
Loop time of 55.1267 on 1 procs for 495 steps with 19652 atoms

Performance: 0.776 ns/day, 30.935 hours/ns, 8.979 timesteps/s
97.5% CPU use with 1 MPI tasks x no OpenMP threads

MPI task timing breakdown:
Section |  min time  |  avg time  |  max time  |%varavg| %total
---------------------------------------------------------------
Pair    | 27.045     | 27.045     | 27.045     |   0.0 | 49.06
Neigh   | 25.43      | 25.43      | 25.43      |   0.0 | 46.13
Comm    | 0.44033    | 0.44033    | 0.44033    |   0.0 |  0.80
Output  | 1.3862     | 1.3862     | 1.3862     |   0.0 |  2.51
Modify  | 0.65727    | 0.65727    | 0.65727    |   0.0 |  1.19
Other   |            | 0.1672     |            |       |  0.30

Nlocal:    19652 ave 19652 max 19652 min
Histogram: 1 0 0 0 0 0 0 0 0 0
Nghost:    15634 ave 15634 max 15634 min
Histogram: 1 0 0 0 0 0 0 0 0 0
Neighs:    1.00835e+06 ave 1.00835e+06 max 1.00835e+06 min
Histogram: 1 0 0 0 0 0 0 0 0 0

Total # of neighbors = 1008349
Ave neighs/atom = 51.3102
Neighbor list builds = 495
Dangerous builds not checked
Setting up Verlet run ...
  Unit style    : metal
  Current step  : 40495
  Time step     : 0.001
Per MPI rank memory allocation (min/avg/max) = 18.19 | 18.19 | 18.19 Mbytes
Step Temp Press TotEng PotEng Enthalpy 
   40495     2411.196    409.68699   -106602.18   -112726.84   -106477.58 
   46667    2395.9112   -779.45459   -106596.91   -112682.74   -106834.32 
Loop time of 730.915 on 1 procs for 6172 steps with 19652 atoms

Performance: 0.730 ns/day, 32.896 hours/ns, 8.444 timesteps/s
99.9% CPU use with 1 MPI tasks x no OpenMP threads

MPI task timing breakdown:
Section |  min time  |  avg time  |  max time  |%varavg| %total
---------------------------------------------------------------
Pair    | 374.63     | 374.63     | 374.63     |   0.0 | 51.25
Neigh   | 338.86     | 338.86     | 338.86     |   0.0 | 46.36
Comm    | 6.0151     | 6.0151     | 6.0151     |   0.0 |  0.82
Output  | 0.00022483 | 0.00022483 | 0.00022483 |   0.0 |  0.00
Modify  | 9.1326     | 9.1326     | 9.1326     |   0.0 |  1.25
Other   |            | 2.275      |            |       |  0.31

Nlocal:    19652 ave 19652 max 19652 min
Histogram: 1 0 0 0 0 0 0 0 0 0
Nghost:    15653 ave 15653 max 15653 min
Histogram: 1 0 0 0 0 0 0 0 0 0
Neighs:    1.00666e+06 ave 1.00666e+06 max 1.00666e+06 min
Histogram: 1 0 0 0 0 0 0 0 0 0

Total # of neighbors = 1006662
Ave neighs/atom = 51.2244
Neighbor list builds = 6172
Dangerous builds not checked
Setting up Verlet run ...
  Unit style    : metal
  Current step  : 46667
  Time step     : 0.001
Per MPI rank memory allocation (min/avg/max) = 18.19 | 18.19 | 18.19 Mbytes
Step Temp Press TotEng PotEng Enthalpy 
   46667    2395.9112   -779.45459   -106596.91   -112682.74   -106834.32 
   46669    2394.9241   -776.71925    -106596.9   -112680.23   -106833.48 
   47162    2348.6222   -532.79924   -106908.64   -112874.36   -107070.59 
Loop time of 64.1481 on 1 procs for 495 steps with 19652 atoms

Performance: 0.667 ns/day, 35.998 hours/ns, 7.717 timesteps/s
98.8% CPU use with 1 MPI tasks x no OpenMP threads

MPI task timing breakdown:
Section |  min time  |  avg time  |  max time  |%varavg| %total
---------------------------------------------------------------
Pair    | 32.544     | 32.544     | 32.544     |   0.0 | 50.73
Neigh   | 29.371     | 29.371     | 29.371     |   0.0 | 45.79
Comm    | 0.52148    | 0.52148    | 0.52148    |   0.0 |  0.81
Output  | 0.71128    | 0.71128    | 0.71128    |   0.0 |  1.11
Modify  | 0.80569    | 0.80569    | 0.80569    |   0.0 |  1.26
Other   |            | 0.1951     |            |       |  0.30

Nlocal:    19652 ave 19652 max 19652 min
Histogram: 1 0 0 0 0 0 0 0 0 0
Nghost:    15678 ave 15678 max 15678 min
Histogram: 1 0 0 0 0 0 0 0 0 0
Neighs:    1.0084e+06 ave 1.0084e+06 max 1.0084e+06 min
Histogram: 1 0 0 0 0 0 0 0 0 0

Total # of neighbors = 1008402
Ave neighs/atom = 51.3129
Neighbor list builds = 495
Dangerous builds not checked
Setting up Verlet run ...
  Unit style    : metal
  Current step  : 47162
  Time step     : 0.001
Per MPI rank memory allocation (min/avg/max) = 18.19 | 18.19 | 18.19 Mbytes
Step Temp Press TotEng PotEng Enthalpy 
   47162    2348.6222   -532.79924   -106908.64   -112874.36   -107070.59 
   53334    2346.6641   -73.879678   -107026.73   -112987.47   -107049.15 
Loop time of 750.538 on 1 procs for 6172 steps with 19652 atoms

Performance: 0.711 ns/day, 33.779 hours/ns, 8.223 timesteps/s
100.0% CPU use with 1 MPI tasks x no OpenMP threads

MPI task timing breakdown:
Section |  min time  |  avg time  |  max time  |%varavg| %total
---------------------------------------------------------------
Pair    | 384.51     | 384.51     | 384.51     |   0.0 | 51.23
Neigh   | 348.24     | 348.24     | 348.24     |   0.0 | 46.40
Comm    | 6.1715     | 6.1715     | 6.1715     |   0.0 |  0.82
Output  | 0.00016594 | 0.00016594 | 0.00016594 |   0.0 |  0.00
Modify  | 9.2926     | 9.2926     | 9.2926     |   0.0 |  1.24
Other   |            | 2.322      |            |       |  0.31

Nlocal:    19652 ave 19652 max 19652 min
Histogram: 1 0 0 0 0 0 0 0 0 0
Nghost:    15754 ave 15754 max 15754 min
Histogram: 1 0 0 0 0 0 0 0 0 0
Neighs:    1.01064e+06 ave 1.01064e+06 max 1.01064e+06 min
Histogram: 1 0 0 0 0 0 0 0 0 0

Total # of neighbors = 1010639
Ave neighs/atom = 51.4268
Neighbor list builds = 6172
Dangerous builds not checked
Setting up Verlet run ...
  Unit style    : metal
  Current step  : 53334
  Time step     : 0.001
Per MPI rank memory allocation (min/avg/max) = 18.19 | 18.19 | 18.19 Mbytes
Step Temp Press TotEng PotEng Enthalpy 
   53334    2346.6641   -73.879678   -107026.73   -112987.47   -107049.15 
   53336    2346.6785   -69.476041   -107026.73    -112987.5   -107047.81 
   53829    2319.2446    63.579614   -107183.25   -113074.34   -107163.98 
Loop time of 55.3616 on 1 procs for 495 steps with 19652 atoms

Performance: 0.773 ns/day, 31.067 hours/ns, 8.941 timesteps/s
99.7% CPU use with 1 MPI tasks x no OpenMP threads

MPI task timing breakdown:
Section |  min time  |  avg time  |  max time  |%varavg| %total
---------------------------------------------------------------
Pair    | 27.993     | 27.993     | 27.993     |   0.0 | 50.56
Neigh   | 25.861     | 25.861     | 25.861     |   0.0 | 46.71
Comm    | 0.45893    | 0.45893    | 0.45893    |   0.0 |  0.83
Output  | 0.19131    | 0.19131    | 0.19131    |   0.0 |  0.35
Modify  | 0.68389    | 0.68389    | 0.68389    |   0.0 |  1.24
Other   |            | 0.1739     |            |       |  0.31

Nlocal:    19652 ave 19652 max 19652 min
Histogram: 1 0 0 0 0 0 0 0 0 0
Nghost:    15683 ave 15683 max 15683 min
Histogram: 1 0 0 0 0 0 0 0 0 0
Neighs:    1.01214e+06 ave 1.01214e+06 max 1.01214e+06 min
Histogram: 1 0 0 0 0 0 0 0 0 0

Total # of neighbors = 1012136
Ave neighs/atom = 51.503
Neighbor list builds = 495
Dangerous builds not checked
Setting up Verlet run ...
  Unit style    : metal
  Current step  : 53829
  Time step     : 0.001
Per MPI rank memory allocation (min/avg/max) = 18.19 | 18.19 | 18.19 Mbytes
Step Temp Press TotEng PotEng Enthalpy 
   53829    2319.2446    63.579614   -107183.25   -113074.34   -107163.98 
   60001    2295.3428   -259.69972    -107271.9   -113102.28   -107350.59 
Loop time of 720.569 on 1 procs for 6172 steps with 19652 atoms

Performance: 0.740 ns/day, 32.430 hours/ns, 8.565 timesteps/s
100.0% CPU use with 1 MPI tasks x no OpenMP threads

MPI task timing breakdown:
Section |  min time  |  avg time  |  max time  |%varavg| %total
---------------------------------------------------------------
Pair    | 367.25     | 367.25     | 367.25     |   0.0 | 50.97
Neigh   | 336.33     | 336.33     | 336.33     |   0.0 | 46.68
Comm    | 5.9585     | 5.9585     | 5.9585     |   0.0 |  0.83
Output  | 0.00017595 | 0.00017595 | 0.00017595 |   0.0 |  0.00
Modify  | 8.8031     | 8.8031     | 8.8031     |   0.0 |  1.22
Other   |            | 2.225      |            |       |  0.31

Nlocal:    19652 ave 19652 max 19652 min
Histogram: 1 0 0 0 0 0 0 0 0 0
Nghost:    15688 ave 15688 max 15688 min
Histogram: 1 0 0 0 0 0 0 0 0 0
Neighs:    1.01196e+06 ave 1.01196e+06 max 1.01196e+06 min
Histogram: 1 0 0 0 0 0 0 0 0 0

Total # of neighbors = 1011960
Ave neighs/atom = 51.494
Neighbor list builds = 6172
Dangerous builds not checked
Setting up Verlet run ...
  Unit style    : metal
  Current step  : 60001
  Time step     : 0.001
Per MPI rank memory allocation (min/avg/max) = 18.19 | 18.19 | 18.19 Mbytes
Step Temp Press TotEng PotEng Enthalpy 
   60001    2295.3428   -259.69972    -107271.9   -113102.28   -107350.59 
   60003    2294.0752   -275.13181   -107271.89   -113099.05   -107355.25 
   60496    2268.6558   -387.58103   -107507.58   -113270.17   -107624.96 
Loop time of 59.1272 on 1 procs for 495 steps with 19652 atoms

Performance: 0.723 ns/day, 33.180 hours/ns, 8.372 timesteps/s
99.7% CPU use with 1 MPI tasks x no OpenMP threads

MPI task timing breakdown:
Section |  min time  |  avg time  |  max time  |%varavg| %total
---------------------------------------------------------------
Pair    | 30.229     | 30.229     | 30.229     |   0.0 | 51.13
Neigh   | 27.233     | 27.233     | 27.233     |   0.0 | 46.06
Comm    | 0.49629    | 0.49629    | 0.49629    |   0.0 |  0.84
Output  | 0.24382    | 0.24382    | 0.24382    |   0.0 |  0.41
Modify  | 0.73733    | 0.73733    | 0.73733    |   0.0 |  1.25
Other   |            | 0.187      |            |       |  0.32

Nlocal:    19652 ave 19652 max 19652 min
Histogram: 1 0 0 0 0 0 0 0 0 0
Nghost:    15717 ave 15717 max 15717 min
Histogram: 1 0 0 0 0 0 0 0 0 0
Neighs:    1.01316e+06 ave 1.01316e+06 max 1.01316e+06 min
Histogram: 1 0 0 0 0 0 0 0 0 0

Total # of neighbors = 1013156
Ave neighs/atom = 51.5549
Neighbor list builds = 495
Dangerous builds not checked
Setting up Verlet run ...
  Unit style    : metal
  Current step  : 60496
  Time step     : 0.001
Per MPI rank memory allocation (min/avg/max) = 18.19 | 18.19 | 18.19 Mbytes
Step Temp Press TotEng PotEng Enthalpy 
   60496    2268.6558   -387.58103   -107507.58   -113270.17   -107624.96 
   66668     2232.317   -976.86717   -107632.22   -113302.51   -107928.06 
Loop time of 731.734 on 1 procs for 6172 steps with 19652 atoms

Performance: 0.729 ns/day, 32.932 hours/ns, 8.435 timesteps/s
99.9% CPU use with 1 MPI tasks x no OpenMP threads

MPI task timing breakdown:
Section |  min time  |  avg time  |  max time  |%varavg| %total
---------------------------------------------------------------
Pair    | 376.16     | 376.16     | 376.16     |   0.0 | 51.41
Neigh   | 338.31     | 338.31     | 338.31     |   0.0 | 46.23
Comm    | 6.1065     | 6.1065     | 6.1065     |   0.0 |  0.83
Output  | 0.00025702 | 0.00025702 | 0.00025702 |   0.0 |  0.00
Modify  | 8.8506     | 8.8506     | 8.8506     |   0.0 |  1.21
Other   |            | 2.305      |            |       |  0.32

Nlocal:    19652 ave 19652 max 19652 min
Histogram: 1 0 0 0 0 0 0 0 0 0
Nghost:    15715 ave 15715 max 15715 min
Histogram: 1 0 0 0 0 0 0 0 0 0
Neighs:    1.01313e+06 ave 1.01313e+06 max 1.01313e+06 min
Histogram: 1 0 0 0 0 0 0 0 0 0

Total # of neighbors = 1013128
Ave neighs/atom = 51.5534
Neighbor list builds = 6172
Dangerous builds not checked
Setting up Verlet run ...
  Unit style    : metal
  Current step  : 66668
  Time step     : 0.001
Per MPI rank memory allocation (min/avg/max) = 18.19 | 18.19 | 18.19 Mbytes
Step Temp Press TotEng PotEng Enthalpy 
   66668     2232.317   -976.86717   -107632.22   -113302.51   -107928.06 
   66670    2231.2122   -944.50758    -107632.2   -113299.69   -107918.25 
   67163    2217.5099   -471.34244   -107816.58   -113449.26   -107959.03 
Loop time of 51.9663 on 1 procs for 495 steps with 19652 atoms

Performance: 0.823 ns/day, 29.162 hours/ns, 9.525 timesteps/s
100.0% CPU use with 1 MPI tasks x no OpenMP threads

MPI task timing breakdown:
Section |  min time  |  avg time  |  max time  |%varavg| %total
---------------------------------------------------------------
Pair    | 26.195     | 26.195     | 26.195     |   0.0 | 50.41
Neigh   | 24.463     | 24.463     | 24.463     |   0.0 | 47.08
Comm    | 0.43132    | 0.43132    | 0.43132    |   0.0 |  0.83
Output  | 0.065313   | 0.065313   | 0.065313   |   0.0 |  0.13
Modify  | 0.64565    | 0.64565    | 0.64565    |   0.0 |  1.24
Other   |            | 0.1661     |            |       |  0.32

Nlocal:    19652 ave 19652 max 19652 min
Histogram: 1 0 0 0 0 0 0 0 0 0
Nghost:    15725 ave 15725 max 15725 min
Histogram: 1 0 0 0 0 0 0 0 0 0
Neighs:    1.01544e+06 ave 1.01544e+06 max 1.01544e+06 min
Histogram: 1 0 0 0 0 0 0 0 0 0

Total # of neighbors = 1015441
Ave neighs/atom = 51.6711
Neighbor list builds = 495
Dangerous builds not checked
Setting up Verlet run ...
  Unit style    : metal
  Current step  : 67163
  Time step     : 0.001
Per MPI rank memory allocation (min/avg/max) = 18.19 | 18.19 | 18.19 Mbytes
Step Temp Press TotEng PotEng Enthalpy 
   67163    2217.5099   -471.34244   -107816.58   -113449.26   -107959.03 
   73335    2212.7332    658.21819   -107910.07   -113530.61   -107711.66 
Loop time of 718.211 on 1 procs for 6172 steps with 19652 atoms

Performance: 0.742 ns/day, 32.324 hours/ns, 8.594 timesteps/s
99.9% CPU use with 1 MPI tasks x no OpenMP threads

MPI task timing breakdown:
Section |  min time  |  avg time  |  max time  |%varavg| %total
---------------------------------------------------------------
Pair    | 371.31     | 371.31     | 371.31     |   0.0 | 51.70
Neigh   | 330.1      | 330.1      | 330.1      |   0.0 | 45.96
Comm    | 6.0462     | 6.0462     | 6.0462     |   0.0 |  0.84
Output  | 0.00020504 | 0.00020504 | 0.00020504 |   0.0 |  0.00
Modify  | 8.4954     | 8.4954     | 8.4954     |   0.0 |  1.18
Other   |            | 2.256      |            |       |  0.31

Nlocal:    19652 ave 19652 max 19652 min
Histogram: 1 0 0 0 0 0 0 0 0 0
Nghost:    15742 ave 15742 max 15742 min
Histogram: 1 0 0 0 0 0 0 0 0 0
Neighs:    1.01757e+06 ave 1.01757e+06 max 1.01757e+06 min
Histogram: 1 0 0 0 0 0 0 0 0 0

Total # of neighbors = 1017566
Ave neighs/atom = 51.7793
Neighbor list builds = 6172
Dangerous builds not checked
Setting up Verlet run ...
  Unit style    : metal
  Current step  : 73335
  Time step     : 0.001
Per MPI rank memory allocation (min/avg/max) = 18.19 | 18.19 | 18.19 Mbytes
Step Temp Press TotEng PotEng Enthalpy 
   73335    2212.7332    658.21819   -107910.07   -113530.61   -107711.66 
   73337    2212.9521    656.96827   -107910.08   -113531.18   -107712.05 
   73830    2151.9332     920.1275   -108165.84   -113631.95   -107888.93 
Loop time of 50.7816 on 1 procs for 495 steps with 19652 atoms

Performance: 0.842 ns/day, 28.497 hours/ns, 9.748 timesteps/s
100.0% CPU use with 1 MPI tasks x no OpenMP threads

MPI task timing breakdown:
Section |  min time  |  avg time  |  max time  |%varavg| %total
---------------------------------------------------------------
Pair    | 25.8       | 25.8       | 25.8       |   0.0 | 50.81
Neigh   | 23.781     | 23.781     | 23.781     |   0.0 | 46.83
Comm    | 0.41283    | 0.41283    | 0.41283    |   0.0 |  0.81
Output  | 0.052018   | 0.052018   | 0.052018   |   0.0 |  0.10
Modify  | 0.5838     | 0.5838     | 0.5838     |   0.0 |  1.15
Other   |            | 0.1523     |            |       |  0.30

Nlocal:    19652 ave 19652 max 19652 min
Histogram: 1 0 0 0 0 0 0 0 0 0
Nghost:    15702 ave 15702 max 15702 min
Histogram: 1 0 0 0 0 0 0 0 0 0
Neighs:    1.02006e+06 ave 1.02006e+06 max 1.02006e+06 min
Histogram: 1 0 0 0 0 0 0 0 0 0

Total # of neighbors = 1020060
Ave neighs/atom = 51.9062
Neighbor list builds = 495
Dangerous builds not checked
Setting up Verlet run ...
  Unit style    : metal
  Current step  : 73830
  Time step     : 0.001
Per MPI rank memory allocation (min/avg/max) = 18.19 | 18.19 | 18.19 Mbytes
Step Temp Press TotEng PotEng Enthalpy 
   73830    2151.9332     920.1275   -108165.84   -113631.95   -107888.93 
   80002    2144.8364   -1461.7412   -108248.02    -113696.1    -108689.5 
Loop time of 735.402 on 1 procs for 6172 steps with 19652 atoms

Performance: 0.725 ns/day, 33.098 hours/ns, 8.393 timesteps/s
99.9% CPU use with 1 MPI tasks x no OpenMP threads

MPI task timing breakdown:
Section |  min time  |  avg time  |  max time  |%varavg| %total
---------------------------------------------------------------
Pair    | 382.65     | 382.65     | 382.65     |   0.0 | 52.03
Neigh   | 335.67     | 335.67     | 335.67     |   0.0 | 45.64
Comm    | 6.1213     | 6.1213     | 6.1213     |   0.0 |  0.83
Output  | 0.021796   | 0.021796   | 0.021796   |   0.0 |  0.00
Modify  | 8.676      | 8.676      | 8.676      |   0.0 |  1.18
Other   |            | 2.271      |            |       |  0.31

Nlocal:    19652 ave 19652 max 19652 min
Histogram: 1 0 0 0 0 0 0 0 0 0
Nghost:    15808 ave 15808 max 15808 min
Histogram: 1 0 0 0 0 0 0 0 0 0
Neighs:    1.01648e+06 ave 1.01648e+06 max 1.01648e+06 min
Histogram: 1 0 0 0 0 0 0 0 0 0

Total # of neighbors = 1016480
Ave neighs/atom = 51.724
Neighbor list builds = 6172
Dangerous builds not checked
Setting up Verlet run ...
  Unit style    : metal
  Current step  : 80002
  Time step     : 0.001
Per MPI rank memory allocation (min/avg/max) = 18.19 | 18.19 | 18.19 Mbytes
Step Temp Press TotEng PotEng Enthalpy 
   80002    2144.8364   -1461.7412   -108248.02    -113696.1    -108689.5 
   80004    2144.5029   -1455.8186   -108248.02   -113695.25    -108687.7 
   80497    2120.9572   -1475.8493   -108442.71   -113830.13   -108887.65 
Loop time of 53.9405 on 1 procs for 495 steps with 19652 atoms

Performance: 0.793 ns/day, 30.270 hours/ns, 9.177 timesteps/s
100.0% CPU use with 1 MPI tasks x no OpenMP threads

MPI task timing breakdown:
Section |  min time  |  avg time  |  max time  |%varavg| %total
---------------------------------------------------------------
Pair    | 27.309     | 27.309     | 27.309     |   0.0 | 50.63
Neigh   | 25.284     | 25.284     | 25.284     |   0.0 | 46.87
Comm    | 0.44917    | 0.44917    | 0.44917    |   0.0 |  0.83
Output  | 0.065268   | 0.065268   | 0.065268   |   0.0 |  0.12
Modify  | 0.66055    | 0.66055    | 0.66055    |   0.0 |  1.22
Other   |            | 0.1725     |            |       |  0.32

Nlocal:    19652 ave 19652 max 19652 min
Histogram: 1 0 0 0 0 0 0 0 0 0
Nghost:    15762 ave 15762 max 15762 min
Histogram: 1 0 0 0 0 0 0 0 0 0
Neighs:    1.01762e+06 ave 1.01762e+06 max 1.01762e+06 min
Histogram: 1 0 0 0 0 0 0 0 0 0

Total # of neighbors = 1017619
Ave neighs/atom = 51.782
Neighbor list builds = 495
Dangerous builds not checked
Setting up Verlet run ...
  Unit style    : metal
  Current step  : 80497
  Time step     : 0.001
Per MPI rank memory allocation (min/avg/max) = 18.19 | 18.19 | 18.19 Mbytes
Step Temp Press TotEng PotEng Enthalpy 
   80497    2120.9572   -1475.8493   -108442.71   -113830.13   -108887.65 
   86669    2092.1206   -563.92856   -108639.38   -113953.56   -108809.09 
Loop time of 669.4 on 1 procs for 6172 steps with 19652 atoms

Performance: 0.797 ns/day, 30.127 hours/ns, 9.220 timesteps/s
100.0% CPU use with 1 MPI tasks x no OpenMP threads

MPI task timing breakdown:
Section |  min time  |  avg time  |  max time  |%varavg| %total
---------------------------------------------------------------
Pair    | 342.09     | 342.09     | 342.09     |   0.0 | 51.10
Neigh   | 311.79     | 311.79     | 311.79     |   0.0 | 46.58
Comm    | 5.5681     | 5.5681     | 5.5681     |   0.0 |  0.83
Output  | 0.0027959  | 0.0027959  | 0.0027959  |   0.0 |  0.00
Modify  | 7.8808     | 7.8808     | 7.8808     |   0.0 |  1.18
Other   |            | 2.078      |            |       |  0.31

Nlocal:    19652 ave 19652 max 19652 min
Histogram: 1 0 0 0 0 0 0 0 0 0
Nghost:    15720 ave 15720 max 15720 min
Histogram: 1 0 0 0 0 0 0 0 0 0
Neighs:    1.01992e+06 ave 1.01992e+06 max 1.01992e+06 min
Histogram: 1 0 0 0 0 0 0 0 0 0

Total # of neighbors = 1019921
Ave neighs/atom = 51.8991
Neighbor list builds = 6172
Dangerous builds not checked
Setting up Verlet run ...
  Unit style    : metal
  Current step  : 86669
  Time step     : 0.001
Per MPI rank memory allocation (min/avg/max) = 18.19 | 18.19 | 18.19 Mbytes
Step Temp Press TotEng PotEng Enthalpy 
   86669    2092.1206   -563.92856   -108639.38   -113953.56   -108809.09 
   86671    2091.7802   -562.99008   -108639.38   -113952.69    -108808.8 
   87164    2062.6485   -342.13467   -108772.35   -114011.67   -108875.18 
Loop time of 57.5459 on 1 procs for 495 steps with 19652 atoms

Performance: 0.743 ns/day, 32.293 hours/ns, 8.602 timesteps/s
99.8% CPU use with 1 MPI tasks x no OpenMP threads

MPI task timing breakdown:
Section |  min time  |  avg time  |  max time  |%varavg| %total
---------------------------------------------------------------
Pair    | 29.833     | 29.833     | 29.833     |   0.0 | 51.84
Neigh   | 26.233     | 26.233     | 26.233     |   0.0 | 45.59
Comm    | 0.489      | 0.489      | 0.489      |   0.0 |  0.85
Output  | 0.11385    | 0.11385    | 0.11385    |   0.0 |  0.20
Modify  | 0.69387    | 0.69387    | 0.69387    |   0.0 |  1.21
Other   |            | 0.1836     |            |       |  0.32

Nlocal:    19652 ave 19652 max 19652 min
Histogram: 1 0 0 0 0 0 0 0 0 0
Nghost:    15802 ave 15802 max 15802 min
Histogram: 1 0 0 0 0 0 0 0 0 0
Neighs:    1.02083e+06 ave 1.02083e+06 max 1.02083e+06 min
Histogram: 1 0 0 0 0 0 0 0 0 0

Total # of neighbors = 1020830
Ave neighs/atom = 51.9453
Neighbor list builds = 495
Dangerous builds not checked
Setting up Verlet run ...
  Unit style    : metal
  Current step  : 87164
  Time step     : 0.001
Per MPI rank memory allocation (min/avg/max) = 18.19 | 18.19 | 18.19 Mbytes
Step Temp Press TotEng PotEng Enthalpy 
   87164    2062.6485   -342.13467   -108772.35   -114011.67   -108875.18 
   93336    2052.3327   -193.84277   -108872.84   -114085.95   -108931.03 
Loop time of 798.942 on 1 procs for 6172 steps with 19652 atoms

Performance: 0.667 ns/day, 35.957 hours/ns, 7.725 timesteps/s
99.1% CPU use with 1 MPI tasks x no OpenMP threads

MPI task timing breakdown:
Section |  min time  |  avg time  |  max time  |%varavg| %total
---------------------------------------------------------------
Pair    | 424.8      | 424.8      | 424.8      |   0.0 | 53.17
Neigh   | 355.71     | 355.71     | 355.71     |   0.0 | 44.52
Comm    | 6.7269     | 6.7269     | 6.7269     |   0.0 |  0.84
Output  | 0.00033522 | 0.00033522 | 0.00033522 |   0.0 |  0.00
Modify  | 9.2265     | 9.2265     | 9.2265     |   0.0 |  1.15
Other   |            | 2.483      |            |       |  0.31

Nlocal:    19652 ave 19652 max 19652 min
Histogram: 1 0 0 0 0 0 0 0 0 0
Nghost:    15827 ave 15827 max 15827 min
Histogram: 1 0 0 0 0 0 0 0 0 0
Neighs:    1.02259e+06 ave 1.02259e+06 max 1.02259e+06 min
Histogram: 1 0 0 0 0 0 0 0 0 0

Total # of neighbors = 1022589
Ave neighs/atom = 52.0349
Neighbor list builds = 6172
Dangerous builds not checked
Setting up Verlet run ...
  Unit style    : metal
  Current step  : 93336
  Time step     : 0.001
Per MPI rank memory allocation (min/avg/max) = 18.19 | 18.19 | 18.19 Mbytes
Step Temp Press TotEng PotEng Enthalpy 
   93336    2052.3327   -193.84277   -108872.84   -114085.95   -108931.03 
   93338    2052.4629   -196.28741   -108872.84   -114086.28   -108931.77 
   93831    2018.9054   -169.96725   -109103.81   -114232.01   -109154.75 
Loop time of 60.2214 on 1 procs for 495 steps with 19652 atoms

Performance: 0.710 ns/day, 33.794 hours/ns, 8.220 timesteps/s
99.6% CPU use with 1 MPI tasks x no OpenMP threads

MPI task timing breakdown:
Section |  min time  |  avg time  |  max time  |%varavg| %total
---------------------------------------------------------------
Pair    | 31.808     | 31.808     | 31.808     |   0.0 | 52.82
Neigh   | 26.922     | 26.922     | 26.922     |   0.0 | 44.71
Comm    | 0.51482    | 0.51482    | 0.51482    |   0.0 |  0.85
Output  | 0.064421   | 0.064421   | 0.064421   |   0.0 |  0.11
Modify  | 0.71753    | 0.71753    | 0.71753    |   0.0 |  1.19
Other   |            | 0.1944     |            |       |  0.32

Nlocal:    19652 ave 19652 max 19652 min
Histogram: 1 0 0 0 0 0 0 0 0 0
Nghost:    15808 ave 15808 max 15808 min
Histogram: 1 0 0 0 0 0 0 0 0 0
Neighs:    1.02474e+06 ave 1.02474e+06 max 1.02474e+06 min
Histogram: 1 0 0 0 0 0 0 0 0 0

Total # of neighbors = 1024740
Ave neighs/atom = 52.1443
Neighbor list builds = 495
Dangerous builds not checked
Setting up Verlet run ...
  Unit style    : metal
  Current step  : 93831
  Time step     : 0.001
Per MPI rank memory allocation (min/avg/max) = 18.19 | 18.19 | 18.19 Mbytes
Step Temp Press TotEng PotEng Enthalpy 
   93831    2018.9054   -169.96725   -109103.81   -114232.01   -109154.75 
  100003    1996.4727     1265.452   -109198.24   -114269.46   -108819.56 
Loop time of 848.741 on 1 procs for 6172 steps with 19652 atoms

Performance: 0.628 ns/day, 38.199 hours/ns, 7.272 timesteps/s
99.2% CPU use with 1 MPI tasks x no OpenMP threads

MPI task timing breakdown:
Section |  min time  |  avg time  |  max time  |%varavg| %total
---------------------------------------------------------------
Pair    | 455.66     | 455.66     | 455.66     |   0.0 | 53.69
Neigh   | 373.45     | 373.45     | 373.45     |   0.0 | 44.00
Comm    | 7.1272     | 7.1272     | 7.1272     |   0.0 |  0.84
Output  | 0.00029707 | 0.00029707 | 0.00029707 |   0.0 |  0.00
Modify  | 9.9208     | 9.9208     | 9.9208     |   0.0 |  1.17
Other   |            | 2.582      |            |       |  0.30

Nlocal:    19652 ave 19652 max 19652 min
Histogram: 1 0 0 0 0 0 0 0 0 0
Nghost:    15757 ave 15757 max 15757 min
Histogram: 1 0 0 0 0 0 0 0 0 0
Neighs:    1.02666e+06 ave 1.02666e+06 max 1.02666e+06 min
Histogram: 1 0 0 0 0 0 0 0 0 0

Total # of neighbors = 1026657
Ave neighs/atom = 52.2419
Neighbor list builds = 6172
Dangerous builds not checked
Setting up Verlet run ...
  Unit style    : metal
  Current step  : 100003
  Time step     : 0.001
Per MPI rank memory allocation (min/avg/max) = 18.19 | 18.19 | 18.19 Mbytes
Step Temp Press TotEng PotEng Enthalpy 
  100003    1996.4727     1265.452   -109198.24   -114269.46   -108819.56 
  100005    1996.3488    1258.7293   -109198.24   -114269.15   -108821.56 
  100498    1958.0204    962.06536   -109392.98   -114366.53   -109105.44 
Loop time of 65.4125 on 1 procs for 495 steps with 19652 atoms

Performance: 0.654 ns/day, 36.707 hours/ns, 7.567 timesteps/s
99.5% CPU use with 1 MPI tasks x no OpenMP threads

MPI task timing breakdown:
Section |  min time  |  avg time  |  max time  |%varavg| %total
---------------------------------------------------------------
Pair    | 34.783     | 34.783     | 34.783     |   0.0 | 53.18
Neigh   | 29.005     | 29.005     | 29.005     |   0.0 | 44.34
Comm    | 0.54926    | 0.54926    | 0.54926    |   0.0 |  0.84
Output  | 0.069864   | 0.069864   | 0.069864   |   0.0 |  0.11
Modify  | 0.79715    | 0.79715    | 0.79715    |   0.0 |  1.22
Other   |            | 0.2076     |            |       |  0.32

Nlocal:    19652 ave 19652 max 19652 min
Histogram: 1 0 0 0 0 0 0 0 0 0
Nghost:    15781 ave 15781 max 15781 min
Histogram: 1 0 0 0 0 0 0 0 0 0
Neighs:    1.02767e+06 ave 1.02767e+06 max 1.02767e+06 min
Histogram: 1 0 0 0 0 0 0 0 0 0

Total # of neighbors = 1027666
Ave neighs/atom = 52.2932
Neighbor list builds = 495
Dangerous builds not checked
Setting up Verlet run ...
  Unit style    : metal
  Current step  : 100498
  Time step     : 0.001
Per MPI rank memory allocation (min/avg/max) = 18.19 | 18.19 | 18.19 Mbytes
Step Temp Press TotEng PotEng Enthalpy 
  100498    1958.0204    962.06536   -109392.98   -114366.53   -109105.44 
  106670    1969.4306    1515.1014   -109483.14   -114485.68   -109031.04 
Loop time of 850.9 on 1 procs for 6172 steps with 19652 atoms

Performance: 0.627 ns/day, 38.296 hours/ns, 7.253 timesteps/s
99.6% CPU use with 1 MPI tasks x no OpenMP threads

MPI task timing breakdown:
Section |  min time  |  avg time  |  max time  |%varavg| %total
---------------------------------------------------------------
Pair    | 452.43     | 452.43     | 452.43     |   0.0 | 53.17
Neigh   | 378.52     | 378.52     | 378.52     |   0.0 | 44.48
Comm    | 7.166      | 7.166      | 7.166      |   0.0 |  0.84
Output  | 0.00020814 | 0.00020814 | 0.00020814 |   0.0 |  0.00
Modify  | 10.18      | 10.18      | 10.18      |   0.0 |  1.20
Other   |            | 2.599      |            |       |  0.31

Nlocal:    19652 ave 19652 max 19652 min
Histogram: 1 0 0 0 0 0 0 0 0 0
Nghost:    15824 ave 15824 max 15824 min
Histogram: 1 0 0 0 0 0 0 0 0 0
Neighs:    1.02942e+06 ave 1.02942e+06 max 1.02942e+06 min
Histogram: 1 0 0 0 0 0 0 0 0 0

Total # of neighbors = 1029420
Ave neighs/atom = 52.3825
Neighbor list builds = 6172
Dangerous builds not checked
Setting up Verlet run ...
  Unit style    : metal
  Current step  : 106670
  Time step     : 0.001
Per MPI rank memory allocation (min/avg/max) = 18.19 | 18.19 | 18.19 Mbytes
Step Temp Press TotEng PotEng Enthalpy 
  106670    1969.4306    1515.1014   -109483.14   -114485.68   -109031.04 
  106672    1969.5572     1514.194   -109483.16   -114486.02   -109031.33 
  107165    1916.9672    1327.0524   -109730.34   -114599.61    -109334.7 
Loop time of 68.8216 on 1 procs for 495 steps with 19652 atoms

Performance: 0.621 ns/day, 38.620 hours/ns, 7.193 timesteps/s
93.8% CPU use with 1 MPI tasks x no OpenMP threads

MPI task timing breakdown:
Section |  min time  |  avg time  |  max time  |%varavg| %total
---------------------------------------------------------------
Pair    | 36.39      | 36.39      | 36.39      |   0.0 | 52.88
Neigh   | 30.769     | 30.769     | 30.769     |   0.0 | 44.71
Comm    | 0.59267    | 0.59267    | 0.59267    |   0.0 |  0.86
Output  | 0.067912   | 0.067912   | 0.067912   |   0.0 |  0.10
Modify  | 0.79777    | 0.79777    | 0.79777    |   0.0 |  1.16
Other   |            | 0.205      |            |       |  0.30

Nlocal:    19652 ave 19652 max 19652 min
Histogram: 1 0 0 0 0 0 0 0 0 0
Nghost:    15775 ave 15775 max 15775 min
Histogram: 1 0 0 0 0 0 0 0 0 0
Neighs:    1.03097e+06 ave 1.03097e+06 max 1.03097e+06 min
Histogram: 1 0 0 0 0 0 0 0 0 0

Total # of neighbors = 1030971
Ave neighs/atom = 52.4614
Neighbor list builds = 495
Dangerous builds not checked
Setting up Verlet run ...
  Unit style    : metal
  Current step  : 107165
  Time step     : 0.001
Per MPI rank memory allocation (min/avg/max) = 18.19 | 18.19 | 18.19 Mbytes
Step Temp Press TotEng PotEng Enthalpy 
  107165    1916.9672    1327.0524   -109730.34   -114599.61    -109334.7 
  113337    1892.0894   -1175.9576   -109869.52    -114675.6   -110221.09 
Loop time of 862.38 on 1 procs for 6172 steps with 19652 atoms

Performance: 0.618 ns/day, 38.812 hours/ns, 7.157 timesteps/s
99.3% CPU use with 1 MPI tasks x no OpenMP threads

MPI task timing breakdown:
Section |  min time  |  avg time  |  max time  |%varavg| %total
---------------------------------------------------------------
Pair    | 462.51     | 462.51     | 462.51     |   0.0 | 53.63
Neigh   | 379.76     | 379.76     | 379.76     |   0.0 | 44.04
Comm    | 7.2277     | 7.2277     | 7.2277     |   0.0 |  0.84
Output  | 0.00022578 | 0.00022578 | 0.00022578 |   0.0 |  0.00
Modify  | 10.209     | 10.209     | 10.209     |   0.0 |  1.18
Other   |            | 2.675      |            |       |  0.31

Nlocal:    19652 ave 19652 max 19652 min
Histogram: 1 0 0 0 0 0 0 0 0 0
Nghost:    15723 ave 15723 max 15723 min
Histogram: 1 0 0 0 0 0 0 0 0 0
Neighs:    1.02766e+06 ave 1.02766e+06 max 1.02766e+06 min
Histogram: 1 0 0 0 0 0 0 0 0 0

Total # of neighbors = 1027657
Ave neighs/atom = 52.2927
Neighbor list builds = 6172
Dangerous builds not checked
Setting up Verlet run ...
  Unit style    : metal
  Current step  : 113337
  Time step     : 0.001
Per MPI rank memory allocation (min/avg/max) = 18.19 | 18.19 | 18.19 Mbytes
Step Temp Press TotEng PotEng Enthalpy 
  113337    1892.0894   -1175.9576   -109869.52    -114675.6   -110221.09 
  113339    1892.2815    -1170.501   -109869.51   -114676.08   -110219.45 
  113832    1850.9424   -498.15309   -110082.74    -114784.3   -110231.41 
Loop time of 67.3328 on 1 procs for 495 steps with 19652 atoms

Performance: 0.635 ns/day, 37.785 hours/ns, 7.352 timesteps/s
99.5% CPU use with 1 MPI tasks x no OpenMP threads

MPI task timing breakdown:
Section |  min time  |  avg time  |  max time  |%varavg| %total
---------------------------------------------------------------
Pair    | 36.042     | 36.042     | 36.042     |   0.0 | 53.53
Neigh   | 29.712     | 29.712     | 29.712     |   0.0 | 44.13
Comm    | 0.55248    | 0.55248    | 0.55248    |   0.0 |  0.82
Output  | 0.068858   | 0.068858   | 0.068858   |   0.0 |  0.10
Modify  | 0.75442    | 0.75442    | 0.75442    |   0.0 |  1.12
Other   |            | 0.2025     |            |       |  0.30

Nlocal:    19652 ave 19652 max 19652 min
Histogram: 1 0 0 0 0 0 0 0 0 0
Nghost:    15779 ave 15779 max 15779 min
Histogram: 1 0 0 0 0 0 0 0 0 0
Neighs:    1.02987e+06 ave 1.02987e+06 max 1.02987e+06 min
Histogram: 1 0 0 0 0 0 0 0 0 0

Total # of neighbors = 1029867
Ave neighs/atom = 52.4052
Neighbor list builds = 495
Dangerous builds not checked
Setting up Verlet run ...
  Unit style    : metal
  Current step  : 113832
  Time step     : 0.001
Per MPI rank memory allocation (min/avg/max) = 18.19 | 18.19 | 18.19 Mbytes
Step Temp Press TotEng PotEng Enthalpy 
  113832    1850.9424   -498.15309   -110082.74    -114784.3   -110231.41 
  120004    1838.3451   -236.04557   -110171.59   -114841.15   -110241.93 
Loop time of 854.896 on 1 procs for 6172 steps with 19652 atoms

Performance: 0.624 ns/day, 38.476 hours/ns, 7.220 timesteps/s
99.8% CPU use with 1 MPI tasks x no OpenMP threads

MPI task timing breakdown:
Section |  min time  |  avg time  |  max time  |%varavg| %total
---------------------------------------------------------------
Pair    | 456.62     | 456.62     | 456.62     |   0.0 | 53.41
Neigh   | 378.19     | 378.19     | 378.19     |   0.0 | 44.24
Comm    | 7.2935     | 7.2935     | 7.2935     |   0.0 |  0.85
Output  | 0.0003829  | 0.0003829  | 0.0003829  |   0.0 |  0.00
Modify  | 10.165     | 10.165     | 10.165     |   0.0 |  1.19
Other   |            | 2.628      |            |       |  0.31

Nlocal:    19652 ave 19652 max 19652 min
Histogram: 1 0 0 0 0 0 0 0 0 0
Nghost:    15821 ave 15821 max 15821 min
Histogram: 1 0 0 0 0 0 0 0 0 0
Neighs:    1.03148e+06 ave 1.03148e+06 max 1.03148e+06 min
Histogram: 1 0 0 0 0 0 0 0 0 0

Total # of neighbors = 1031483
Ave neighs/atom = 52.4874
Neighbor list builds = 6172
Dangerous builds not checked
Setting up Verlet run ...
  Unit style    : metal
  Current step  : 120004
  Time step     : 0.001
Per MPI rank memory allocation (min/avg/max) = 18.19 | 18.19 | 18.19 Mbytes
Step Temp Press TotEng PotEng Enthalpy 
  120004    1838.3451   -236.04557   -110171.59   -114841.15   -110241.93 
  120006    1838.5875   -221.89047   -110171.58   -114841.76    -110237.7 
  120499       1800.3   -491.55849   -110353.32   -114926.25   -110499.82 
Loop time of 65.1011 on 1 procs for 495 steps with 19652 atoms

Performance: 0.657 ns/day, 36.533 hours/ns, 7.604 timesteps/s
99.9% CPU use with 1 MPI tasks x no OpenMP threads

MPI task timing breakdown:
Section |  min time  |  avg time  |  max time  |%varavg| %total
---------------------------------------------------------------
Pair    | 34.801     | 34.801     | 34.801     |   0.0 | 53.46
Neigh   | 28.648     | 28.648     | 28.648     |   0.0 | 44.01
Comm    | 0.57557    | 0.57557    | 0.57557    |   0.0 |  0.88
Output  | 0.062126   | 0.062126   | 0.062126   |   0.0 |  0.10
Modify  | 0.80426    | 0.80426    | 0.80426    |   0.0 |  1.24
Other   |            | 0.2103     |            |       |  0.32

Nlocal:    19652 ave 19652 max 19652 min
Histogram: 1 0 0 0 0 0 0 0 0 0
Nghost:    15822 ave 15822 max 15822 min
Histogram: 1 0 0 0 0 0 0 0 0 0
Neighs:    1.03186e+06 ave 1.03186e+06 max 1.03186e+06 min
Histogram: 1 0 0 0 0 0 0 0 0 0

Total # of neighbors = 1031861
Ave neighs/atom = 52.5067
Neighbor list builds = 495
Dangerous builds not checked
Setting up Verlet run ...
  Unit style    : metal
  Current step  : 120499
  Time step     : 0.001
Per MPI rank memory allocation (min/avg/max) = 18.19 | 18.19 | 18.19 Mbytes
Step Temp Press TotEng PotEng Enthalpy 
  120499       1800.3   -491.55849   -110353.32   -114926.25   -110499.82 
  126671    1786.5066   -279.61705      -110553   -115090.89   -110636.21 
Loop time of 791.88 on 1 procs for 6172 steps with 19652 atoms

Performance: 0.673 ns/day, 35.639 hours/ns, 7.794 timesteps/s
99.9% CPU use with 1 MPI tasks x no OpenMP threads

MPI task timing breakdown:
Section |  min time  |  avg time  |  max time  |%varavg| %total
---------------------------------------------------------------
Pair    | 420.08     | 420.08     | 420.08     |   0.0 | 53.05
Neigh   | 353.29     | 353.29     | 353.29     |   0.0 | 44.61
Comm    | 6.6769     | 6.6769     | 6.6769     |   0.0 |  0.84
Output  | 0.00028706 | 0.00028706 | 0.00028706 |   0.0 |  0.00
Modify  | 9.3865     | 9.3865     | 9.3865     |   0.0 |  1.19
Other   |            | 2.45       |            |       |  0.31

Nlocal:    19652 ave 19652 max 19652 min
Histogram: 1 0 0 0 0 0 0 0 0 0
Nghost:    15833 ave 15833 max 15833 min
Histogram: 1 0 0 0 0 0 0 0 0 0
Neighs:    1.03314e+06 ave 1.03314e+06 max 1.03314e+06 min
Histogram: 1 0 0 0 0 0 0 0 0 0

Total # of neighbors = 1033137
Ave neighs/atom = 52.5716
Neighbor list builds = 6172
Dangerous builds not checked
Setting up Verlet run ...
  Unit style    : metal
  Current step  : 126671
  Time step     : 0.001
Per MPI rank memory allocation (min/avg/max) = 18.19 | 18.19 | 18.19 Mbytes
Step Temp Press TotEng PotEng Enthalpy 
  126671    1786.5066   -279.61705      -110553   -115090.89   -110636.21 
  126673    1786.9926   -276.12774   -110552.99   -115092.11   -110635.15 
  127166    1773.2976   -348.16319   -110715.48   -115219.81   -110818.99 
Loop time of 63.7042 on 1 procs for 495 steps with 19652 atoms

Performance: 0.671 ns/day, 35.749 hours/ns, 7.770 timesteps/s
99.9% CPU use with 1 MPI tasks x no OpenMP threads

MPI task timing breakdown:
Section |  min time  |  avg time  |  max time  |%varavg| %total
---------------------------------------------------------------
Pair    | 33.837     | 33.837     | 33.837     |   0.0 | 53.12
Neigh   | 28.278     | 28.278     | 28.278     |   0.0 | 44.39
Comm    | 0.5427     | 0.5427     | 0.5427     |   0.0 |  0.85
Output  | 0.068911   | 0.068911   | 0.068911   |   0.0 |  0.11
Modify  | 0.77738    | 0.77738    | 0.77738    |   0.0 |  1.22
Other   |            | 0.1998     |            |       |  0.31

Nlocal:    19652 ave 19652 max 19652 min
Histogram: 1 0 0 0 0 0 0 0 0 0
Nghost:    15751 ave 15751 max 15751 min
Histogram: 1 0 0 0 0 0 0 0 0 0
Neighs:    1.03492e+06 ave 1.03492e+06 max 1.03492e+06 min
Histogram: 1 0 0 0 0 0 0 0 0 0

Total # of neighbors = 1034925
Ave neighs/atom = 52.6626
Neighbor list builds = 495
Dangerous builds not checked
Setting up Verlet run ...
  Unit style    : metal
  Current step  : 127166
  Time step     : 0.001
Per MPI rank memory allocation (min/avg/max) = 18.19 | 18.19 | 18.19 Mbytes
Step Temp Press TotEng PotEng Enthalpy 
  127166    1773.2976   -348.16319   -110715.48   -115219.81   -110818.99 
  133338    1742.0745    553.08203   -110849.72   -115274.75   -110685.62 
Loop time of 794.046 on 1 procs for 6172 steps with 19652 atoms

Performance: 0.672 ns/day, 35.737 hours/ns, 7.773 timesteps/s
99.9% CPU use with 1 MPI tasks x no OpenMP threads

MPI task timing breakdown:
Section |  min time  |  avg time  |  max time  |%varavg| %total
---------------------------------------------------------------
Pair    | 423.58     | 423.58     | 423.58     |   0.0 | 53.34
Neigh   | 352.09     | 352.09     | 352.09     |   0.0 | 44.34
Comm    | 6.631      | 6.631      | 6.631      |   0.0 |  0.84
Output  | 0.00021791 | 0.00021791 | 0.00021791 |   0.0 |  0.00
Modify  | 9.3286     | 9.3286     | 9.3286     |   0.0 |  1.17
Other   |            | 2.418      |            |       |  0.30

Nlocal:    19652 ave 19652 max 19652 min
Histogram: 1 0 0 0 0 0 0 0 0 0
Nghost:    15852 ave 15852 max 15852 min
Histogram: 1 0 0 0 0 0 0 0 0 0
Neighs:    1.03684e+06 ave 1.03684e+06 max 1.03684e+06 min
Histogram: 1 0 0 0 0 0 0 0 0 0

Total # of neighbors = 1036843
Ave neighs/atom = 52.7602
Neighbor list builds = 6172
Dangerous builds not checked
Setting up Verlet run ...
  Unit style    : metal
  Current step  : 133338
  Time step     : 0.001
Per MPI rank memory allocation (min/avg/max) = 18.19 | 18.19 | 18.19 Mbytes
Step Temp Press TotEng PotEng Enthalpy 
  133338    1742.0745    553.08203   -110849.72   -115274.75   -110685.62 
  133340    1742.3096      560.296   -110849.71   -115275.34   -110683.47 
  133833    1716.4891    540.27445   -111037.46   -115397.49   -110877.36 
Loop time of 59.5235 on 1 procs for 495 steps with 19652 atoms

Performance: 0.719 ns/day, 33.403 hours/ns, 8.316 timesteps/s
100.0% CPU use with 1 MPI tasks x no OpenMP threads

MPI task timing breakdown:
Section |  min time  |  avg time  |  max time  |%varavg| %total
---------------------------------------------------------------
Pair    | 31.318     | 31.318     | 31.318     |   0.0 | 52.61
Neigh   | 26.74      | 26.74      | 26.74      |   0.0 | 44.92
Comm    | 0.50036    | 0.50036    | 0.50036    |   0.0 |  0.84
Output  | 0.065632   | 0.065632   | 0.065632   |   0.0 |  0.11
Modify  | 0.71568    | 0.71568    | 0.71568    |   0.0 |  1.20
Other   |            | 0.1837     |            |       |  0.31

Nlocal:    19652 ave 19652 max 19652 min
Histogram: 1 0 0 0 0 0 0 0 0 0
Nghost:    15890 ave 15890 max 15890 min
Histogram: 1 0 0 0 0 0 0 0 0 0
Neighs:    1.03832e+06 ave 1.03832e+06 max 1.03832e+06 min
Histogram: 1 0 0 0 0 0 0 0 0 0

Total # of neighbors = 1038324
Ave neighs/atom = 52.8355
Neighbor list builds = 495
Dangerous builds not checked
Setting up Verlet run ...
  Unit style    : metal
  Current step  : 133833
  Time step     : 0.001
Per MPI rank memory allocation (min/avg/max) = 18.19 | 18.19 | 18.19 Mbytes
Step Temp Press TotEng PotEng Enthalpy 
  133833    1716.4891    540.27445   -111037.46   -115397.49   -110877.36 
  140005     1696.051    1310.5147   -111208.66   -115516.79   -110821.07 
Loop time of 789.27 on 1 procs for 6172 steps with 19652 atoms

Performance: 0.676 ns/day, 35.522 hours/ns, 7.820 timesteps/s
100.0% CPU use with 1 MPI tasks x no OpenMP threads

MPI task timing breakdown:
Section |  min time  |  avg time  |  max time  |%varavg| %total
---------------------------------------------------------------
Pair    | 419.27     | 419.27     | 419.27     |   0.0 | 53.12
Neigh   | 351.7      | 351.7      | 351.7      |   0.0 | 44.56
Comm    | 6.5991     | 6.5991     | 6.5991     |   0.0 |  0.84
Output  | 0.00033283 | 0.00033283 | 0.00033283 |   0.0 |  0.00
Modify  | 9.2912     | 9.2912     | 9.2912     |   0.0 |  1.18
Other   |            | 2.412      |            |       |  0.31

Nlocal:    19652 ave 19652 max 19652 min
Histogram: 1 0 0 0 0 0 0 0 0 0
Nghost:    15878 ave 15878 max 15878 min
Histogram: 1 0 0 0 0 0 0 0 0 0
Neighs:    1.04081e+06 ave 1.04081e+06 max 1.04081e+06 min
Histogram: 1 0 0 0 0 0 0 0 0 0

Total # of neighbors = 1040810
Ave neighs/atom = 52.962
Neighbor list builds = 6172
Dangerous builds not checked
Setting up Verlet run ...
  Unit style    : metal
  Current step  : 140005
  Time step     : 0.001
Per MPI rank memory allocation (min/avg/max) = 18.19 | 18.19 | 18.19 Mbytes
Step Temp Press TotEng PotEng Enthalpy 
  140005     1696.051    1310.5147   -111208.66   -115516.79   -110821.07 
  140007    1697.5339    1296.8228   -111208.66   -115520.55   -110825.12 
  140500    1680.1396    1079.8556   -111390.78   -115658.49   -111071.53 
Loop time of 65.9922 on 1 procs for 495 steps with 19652 atoms

Performance: 0.648 ns/day, 37.033 hours/ns, 7.501 timesteps/s
100.0% CPU use with 1 MPI tasks x no OpenMP threads

MPI task timing breakdown:
Section |  min time  |  avg time  |  max time  |%varavg| %total
---------------------------------------------------------------
Pair    | 35.194     | 35.194     | 35.194     |   0.0 | 53.33
Neigh   | 29.19      | 29.19      | 29.19      |   0.0 | 44.23
Comm    | 0.54572    | 0.54572    | 0.54572    |   0.0 |  0.83
Output  | 0.067244   | 0.067244   | 0.067244   |   0.0 |  0.10
Modify  | 0.79062    | 0.79062    | 0.79062    |   0.0 |  1.20
Other   |            | 0.2042     |            |       |  0.31

Nlocal:    19652 ave 19652 max 19652 min
Histogram: 1 0 0 0 0 0 0 0 0 0
Nghost:    15795 ave 15795 max 15795 min
Histogram: 1 0 0 0 0 0 0 0 0 0
Neighs:    1.04134e+06 ave 1.04134e+06 max 1.04134e+06 min
Histogram: 1 0 0 0 0 0 0 0 0 0

Total # of neighbors = 1041339
Ave neighs/atom = 52.989
Neighbor list builds = 495
Dangerous builds not checked
Setting up Verlet run ...
  Unit style    : metal
  Current step  : 140500
  Time step     : 0.001
Per MPI rank memory allocation (min/avg/max) = 18.19 | 18.19 | 18.19 Mbytes
Step Temp Press TotEng PotEng Enthalpy 
  140500    1680.1396    1079.8556   -111390.78   -115658.49   -111071.53 
  146672    1665.3421    1562.4947   -111469.47   -115699.59   -111007.95 
Loop time of 791.103 on 1 procs for 6172 steps with 19652 atoms

Performance: 0.674 ns/day, 35.604 hours/ns, 7.802 timesteps/s
100.0% CPU use with 1 MPI tasks x no OpenMP threads

MPI task timing breakdown:
Section |  min time  |  avg time  |  max time  |%varavg| %total
---------------------------------------------------------------
Pair    | 420.8      | 420.8      | 420.8      |   0.0 | 53.19
Neigh   | 351.9      | 351.9      | 351.9      |   0.0 | 44.48
Comm    | 6.6042     | 6.6042     | 6.6042     |   0.0 |  0.83
Output  | 0.00023794 | 0.00023794 | 0.00023794 |   0.0 |  0.00
Modify  | 9.3641     | 9.3641     | 9.3641     |   0.0 |  1.18
Other   |            | 2.433      |            |       |  0.31

Nlocal:    19652 ave 19652 max 19652 min
Histogram: 1 0 0 0 0 0 0 0 0 0
Nghost:    15913 ave 15913 max 15913 min
Histogram: 1 0 0 0 0 0 0 0 0 0
Neighs:    1.04284e+06 ave 1.04284e+06 max 1.04284e+06 min
Histogram: 1 0 0 0 0 0 0 0 0 0

Total # of neighbors = 1042840
Ave neighs/atom = 53.0653
Neighbor list builds = 6172
Dangerous builds not checked
Setting up Verlet run ...
  Unit style    : metal
  Current step  : 146672
  Time step     : 0.001
Per MPI rank memory allocation (min/avg/max) = 18.19 | 18.19 | 18.19 Mbytes
Step Temp Press TotEng PotEng Enthalpy 
  146672    1665.3421    1562.4947   -111469.47   -115699.59   -111007.95 
  146674     1665.598     1559.043   -111469.48   -115700.26   -111008.98 
  147167    1614.4681    211.19127   -111698.53   -115799.42   -111636.12 
Loop time of 65.7675 on 1 procs for 495 steps with 19652 atoms

Performance: 0.650 ns/day, 36.907 hours/ns, 7.527 timesteps/s
100.0% CPU use with 1 MPI tasks x no OpenMP threads

MPI task timing breakdown:
Section |  min time  |  avg time  |  max time  |%varavg| %total
---------------------------------------------------------------
Pair    | 35.349     | 35.349     | 35.349     |   0.0 | 53.75
Neigh   | 28.739     | 28.739     | 28.739     |   0.0 | 43.70
Comm    | 0.58101    | 0.58101    | 0.58101    |   0.0 |  0.88
Output  | 0.068618   | 0.068618   | 0.068618   |   0.0 |  0.10
Modify  | 0.81265    | 0.81265    | 0.81265    |   0.0 |  1.24
Other   |            | 0.2178     |            |       |  0.33

Nlocal:    19652 ave 19652 max 19652 min
Histogram: 1 0 0 0 0 0 0 0 0 0
Nghost:    15887 ave 15887 max 15887 min
Histogram: 1 0 0 0 0 0 0 0 0 0
Neighs:    1.04234e+06 ave 1.04234e+06 max 1.04234e+06 min
Histogram: 1 0 0 0 0 0 0 0 0 0

Total # of neighbors = 1042336
Ave neighs/atom = 53.0397
Neighbor list builds = 495
Dangerous builds not checked
Setting up Verlet run ...
  Unit style    : metal
  Current step  : 147167
  Time step     : 0.001
Per MPI rank memory allocation (min/avg/max) = 18.19 | 18.19 | 18.19 Mbytes
Step Temp Press TotEng PotEng Enthalpy 
  147167    1614.4681    211.19127   -111698.53   -115799.42   -111636.12 
  153339    1597.9141   -327.14629   -111823.03   -115881.88   -111919.72 
Loop time of 793.651 on 1 procs for 6172 steps with 19652 atoms

Performance: 0.672 ns/day, 35.719 hours/ns, 7.777 timesteps/s
100.0% CPU use with 1 MPI tasks x no OpenMP threads

MPI task timing breakdown:
Section |  min time  |  avg time  |  max time  |%varavg| %total
---------------------------------------------------------------
Pair    | 424.12     | 424.12     | 424.12     |   0.0 | 53.44
Neigh   | 351.12     | 351.12     | 351.12     |   0.0 | 44.24
Comm    | 6.6516     | 6.6516     | 6.6516     |   0.0 |  0.84
Output  | 0.00017691 | 0.00017691 | 0.00017691 |   0.0 |  0.00
Modify  | 9.3258     | 9.3258     | 9.3258     |   0.0 |  1.18
Other   |            | 2.437      |            |       |  0.31

Nlocal:    19652 ave 19652 max 19652 min
Histogram: 1 0 0 0 0 0 0 0 0 0
Nghost:    15918 ave 15918 max 15918 min
Histogram: 1 0 0 0 0 0 0 0 0 0
Neighs:    1.04229e+06 ave 1.04229e+06 max 1.04229e+06 min
Histogram: 1 0 0 0 0 0 0 0 0 0

Total # of neighbors = 1042291
Ave neighs/atom = 53.0374
Neighbor list builds = 6172
Dangerous builds not checked
Setting up Verlet run ...
  Unit style    : metal
  Current step  : 153339
  Time step     : 0.001
Per MPI rank memory allocation (min/avg/max) = 18.19 | 18.19 | 18.19 Mbytes
Step Temp Press TotEng PotEng Enthalpy 
  153339    1597.9141   -327.14629   -111823.03   -115881.88   -111919.72 
  153341    1598.2627   -312.83602   -111823.03   -115882.76   -111915.49 
  153834     1570.882    228.53547   -112025.22    -116015.4   -111957.79 
Loop time of 60.7367 on 1 procs for 495 steps with 19652 atoms

Performance: 0.704 ns/day, 34.083 hours/ns, 8.150 timesteps/s
100.0% CPU use with 1 MPI tasks x no OpenMP threads

MPI task timing breakdown:
Section |  min time  |  avg time  |  max time  |%varavg| %total
---------------------------------------------------------------
Pair    | 32.149     | 32.149     | 32.149     |   0.0 | 52.93
Neigh   | 27.123     | 27.123     | 27.123     |   0.0 | 44.66
Comm    | 0.50647    | 0.50647    | 0.50647    |   0.0 |  0.83
Output  | 0.051512   | 0.051512   | 0.051512   |   0.0 |  0.08
Modify  | 0.72009    | 0.72009    | 0.72009    |   0.0 |  1.19
Other   |            | 0.1864     |            |       |  0.31

Nlocal:    19652 ave 19652 max 19652 min
Histogram: 1 0 0 0 0 0 0 0 0 0
Nghost:    15928 ave 15928 max 15928 min
Histogram: 1 0 0 0 0 0 0 0 0 0
Neighs:    1.04416e+06 ave 1.04416e+06 max 1.04416e+06 min
Histogram: 1 0 0 0 0 0 0 0 0 0

Total # of neighbors = 1044165
Ave neighs/atom = 53.1328
Neighbor list builds = 495
Dangerous builds not checked
Setting up Verlet run ...
  Unit style    : metal
  Current step  : 153834
  Time step     : 0.001
Per MPI rank memory allocation (min/avg/max) = 18.19 | 18.19 | 18.19 Mbytes
Step Temp Press TotEng PotEng Enthalpy 
  153834     1570.882    228.53547   -112025.22    -116015.4   -111957.79 
  160006    1565.9046    514.59615   -112124.56    -116102.1   -111972.88 
Loop time of 772.222 on 1 procs for 6172 steps with 19652 atoms

Performance: 0.691 ns/day, 34.755 hours/ns, 7.993 timesteps/s
99.9% CPU use with 1 MPI tasks x no OpenMP threads

MPI task timing breakdown:
Section |  min time  |  avg time  |  max time  |%varavg| %total
---------------------------------------------------------------
Pair    | 409.04     | 409.04     | 409.04     |   0.0 | 52.97
Neigh   | 345.33     | 345.33     | 345.33     |   0.0 | 44.72
Comm    | 6.3988     | 6.3988     | 6.3988     |   0.0 |  0.83
Output  | 0.000247   | 0.000247   | 0.000247   |   0.0 |  0.00
Modify  | 9.1027     | 9.1027     | 9.1027     |   0.0 |  1.18
Other   |            | 2.354      |            |       |  0.30

Nlocal:    19652 ave 19652 max 19652 min
Histogram: 1 0 0 0 0 0 0 0 0 0
Nghost:    15816 ave 15816 max 15816 min
Histogram: 1 0 0 0 0 0 0 0 0 0
Neighs:    1.04558e+06 ave 1.04558e+06 max 1.04558e+06 min
Histogram: 1 0 0 0 0 0 0 0 0 0

Total # of neighbors = 1045577
Ave neighs/atom = 53.2046
Neighbor list builds = 6172
Dangerous builds not checked
Setting up Verlet run ...
  Unit style    : metal
  Current step  : 160006
  Time step     : 0.001
Per MPI rank memory allocation (min/avg/max) = 18.19 | 18.19 | 18.19 Mbytes
Step Temp Press TotEng PotEng Enthalpy 
  160006    1565.9046    514.59615   -112124.56    -116102.1   -111972.88 
  160008    1565.5915    512.16008   -112124.57   -116101.32   -111973.61 
  160501    1501.9037    230.22128   -112355.27   -116170.24   -112287.44 
Loop time of 64.1708 on 1 procs for 495 steps with 19652 atoms

Performance: 0.666 ns/day, 36.011 hours/ns, 7.714 timesteps/s
99.8% CPU use with 1 MPI tasks x no OpenMP threads

MPI task timing breakdown:
Section |  min time  |  avg time  |  max time  |%varavg| %total
---------------------------------------------------------------
Pair    | 34.152     | 34.152     | 34.152     |   0.0 | 53.22
Neigh   | 28.481     | 28.481     | 28.481     |   0.0 | 44.38
Comm    | 0.53235    | 0.53235    | 0.53235    |   0.0 |  0.83
Output  | 0.042206   | 0.042206   | 0.042206   |   0.0 |  0.07
Modify  | 0.7641     | 0.7641     | 0.7641     |   0.0 |  1.19
Other   |            | 0.1986     |            |       |  0.31

Nlocal:    19652 ave 19652 max 19652 min
Histogram: 1 0 0 0 0 0 0 0 0 0
Nghost:    15895 ave 15895 max 15895 min
Histogram: 1 0 0 0 0 0 0 0 0 0
Neighs:    1.04591e+06 ave 1.04591e+06 max 1.04591e+06 min
Histogram: 1 0 0 0 0 0 0 0 0 0

Total # of neighbors = 1045906
Ave neighs/atom = 53.2214
Neighbor list builds = 495
Dangerous builds not checked
Setting up Verlet run ...
  Unit style    : metal
  Current step  : 160501
  Time step     : 0.001
Per MPI rank memory allocation (min/avg/max) = 18.19 | 18.19 | 18.19 Mbytes
Step Temp Press TotEng PotEng Enthalpy 
  160501    1501.9037    230.22128   -112355.27   -116170.24   -112287.44 
  166673     1497.064    386.61401   -112502.54   -116305.22   -112388.78 
Loop time of 773.642 on 1 procs for 6172 steps with 19652 atoms

Performance: 0.689 ns/day, 34.819 hours/ns, 7.978 timesteps/s
100.0% CPU use with 1 MPI tasks x no OpenMP threads

MPI task timing breakdown:
Section |  min time  |  avg time  |  max time  |%varavg| %total
---------------------------------------------------------------
Pair    | 411.02     | 411.02     | 411.02     |   0.0 | 53.13
Neigh   | 344.7      | 344.7      | 344.7      |   0.0 | 44.55
Comm    | 6.4293     | 6.4293     | 6.4293     |   0.0 |  0.83
Output  | 0.00023007 | 0.00023007 | 0.00023007 |   0.0 |  0.00
Modify  | 9.1283     | 9.1283     | 9.1283     |   0.0 |  1.18
Other   |            | 2.366      |            |       |  0.31

Nlocal:    19652 ave 19652 max 19652 min
Histogram: 1 0 0 0 0 0 0 0 0 0
Nghost:    15927 ave 15927 max 15927 min
Histogram: 1 0 0 0 0 0 0 0 0 0
Neighs:    1.04823e+06 ave 1.04823e+06 max 1.04823e+06 min
Histogram: 1 0 0 0 0 0 0 0 0 0

Total # of neighbors = 1048229
Ave neighs/atom = 53.3396
Neighbor list builds = 6172
Dangerous builds not checked
Setting up Verlet run ...
  Unit style    : metal
  Current step  : 166673
  Time step     : 0.001
Per MPI rank memory allocation (min/avg/max) = 18.19 | 18.19 | 18.19 Mbytes
Step Temp Press TotEng PotEng Enthalpy 
  166673     1497.064    386.61401   -112502.54   -116305.22   -112388.78 
  166675    1497.3012    383.45446   -112502.54   -116305.82   -112389.71 
  167168    1459.7395    464.49957   -112719.21   -116427.08   -112582.68 
Loop time of 61.7512 on 1 procs for 495 steps with 19652 atoms

Performance: 0.693 ns/day, 34.653 hours/ns, 8.016 timesteps/s
100.0% CPU use with 1 MPI tasks x no OpenMP threads

MPI task timing breakdown:
Section |  min time  |  avg time  |  max time  |%varavg| %total
---------------------------------------------------------------
Pair    | 32.79      | 32.79      | 32.79      |   0.0 | 53.10
Neigh   | 27.435     | 27.435     | 27.435     |   0.0 | 44.43
Comm    | 0.52162    | 0.52162    | 0.52162    |   0.0 |  0.84
Output  | 0.062357   | 0.062357   | 0.062357   |   0.0 |  0.10
Modify  | 0.75063    | 0.75063    | 0.75063    |   0.0 |  1.22
Other   |            | 0.1915     |            |       |  0.31

Nlocal:    19652 ave 19652 max 19652 min
Histogram: 1 0 0 0 0 0 0 0 0 0
Nghost:    15921 ave 15921 max 15921 min
Histogram: 1 0 0 0 0 0 0 0 0 0
Neighs:    1.04925e+06 ave 1.04925e+06 max 1.04925e+06 min
Histogram: 1 0 0 0 0 0 0 0 0 0

Total # of neighbors = 1049249
Ave neighs/atom = 53.3915
Neighbor list builds = 495
Dangerous builds not checked
Setting up Verlet run ...
  Unit style    : metal
  Current step  : 167168
  Time step     : 0.001
Per MPI rank memory allocation (min/avg/max) = 18.19 | 18.19 | 18.19 Mbytes
Step Temp Press TotEng PotEng Enthalpy 
  167168    1459.7395    464.49957   -112719.21   -116427.08   -112582.68 
  173340    1462.9624    1089.8146   -112766.87   -116482.93   -112446.92 
Loop time of 755.816 on 1 procs for 6172 steps with 19652 atoms

Performance: 0.706 ns/day, 34.016 hours/ns, 8.166 timesteps/s
100.0% CPU use with 1 MPI tasks x no OpenMP threads

MPI task timing breakdown:
Section |  min time  |  avg time  |  max time  |%varavg| %total
---------------------------------------------------------------
Pair    | 402.94     | 402.94     | 402.94     |   0.0 | 53.31
Neigh   | 335.46     | 335.46     | 335.46     |   0.0 | 44.38
Comm    | 6.2863     | 6.2863     | 6.2863     |   0.0 |  0.83
Output  | 0.000211   | 0.000211   | 0.000211   |   0.0 |  0.00
Modify  | 8.8093     | 8.8093     | 8.8093     |   0.0 |  1.17
Other   |            | 2.313      |            |       |  0.31

Nlocal:    19652 ave 19652 max 19652 min
Histogram: 1 0 0 0 0 0 0 0 0 0
Nghost:    15899 ave 15899 max 15899 min
Histogram: 1 0 0 0 0 0 0 0 0 0
Neighs:    1.05075e+06 ave 1.05075e+06 max 1.05075e+06 min
Histogram: 1 0 0 0 0 0 0 0 0 0

Total # of neighbors = 1050747
Ave neighs/atom = 53.4677
Neighbor list builds = 6172
Dangerous builds not checked
Setting up Verlet run ...
  Unit style    : metal
  Current step  : 173340
  Time step     : 0.001
Per MPI rank memory allocation (min/avg/max) = 18.19 | 18.19 | 18.19 Mbytes
Step Temp Press TotEng PotEng Enthalpy 
  173340    1462.9624    1089.8146   -112766.87   -116482.93   -112446.92 
  173342      1462.83    1090.0866   -112766.88    -116482.6   -112446.85 
  173835    1412.0983   -170.13731   -113045.63   -116632.48    -113095.6 
Loop time of 66.8434 on 1 procs for 495 steps with 19652 atoms

Performance: 0.640 ns/day, 37.510 hours/ns, 7.405 timesteps/s
99.9% CPU use with 1 MPI tasks x no OpenMP threads

MPI task timing breakdown:
Section |  min time  |  avg time  |  max time  |%varavg| %total
---------------------------------------------------------------
Pair    | 36.066     | 36.066     | 36.066     |   0.0 | 53.96
Neigh   | 29.142     | 29.142     | 29.142     |   0.0 | 43.60
Comm    | 0.56031    | 0.56031    | 0.56031    |   0.0 |  0.84
Output  | 0.067369   | 0.067369   | 0.067369   |   0.0 |  0.10
Modify  | 0.79507    | 0.79507    | 0.79507    |   0.0 |  1.19
Other   |            | 0.2125     |            |       |  0.32

Nlocal:    19652 ave 19652 max 19652 min
Histogram: 1 0 0 0 0 0 0 0 0 0
Nghost:    15898 ave 15898 max 15898 min
Histogram: 1 0 0 0 0 0 0 0 0 0
Neighs:    1.05045e+06 ave 1.05045e+06 max 1.05045e+06 min
Histogram: 1 0 0 0 0 0 0 0 0 0

Total # of neighbors = 1050447
Ave neighs/atom = 53.4524
Neighbor list builds = 495
Dangerous builds not checked
Setting up Verlet run ...
  Unit style    : metal
  Current step  : 173835
  Time step     : 0.001
Per MPI rank memory allocation (min/avg/max) = 18.19 | 18.19 | 18.19 Mbytes
Step Temp Press TotEng PotEng Enthalpy 
  173835    1412.0983   -170.13731   -113045.63   -116632.48    -113095.6 
  180007    1399.2075    1252.1289    -113199.3   -116753.41   -112832.46 
Loop time of 828.933 on 1 procs for 6172 steps with 19652 atoms

Performance: 0.643 ns/day, 37.307 hours/ns, 7.446 timesteps/s
99.9% CPU use with 1 MPI tasks x no OpenMP threads

MPI task timing breakdown:
Section |  min time  |  avg time  |  max time  |%varavg| %total
---------------------------------------------------------------
Pair    | 448.2      | 448.2      | 448.2      |   0.0 | 54.07
Neigh   | 361.31     | 361.31     | 361.31     |   0.0 | 43.59
Comm    | 7.0463     | 7.0463     | 7.0463     |   0.0 |  0.85
Output  | 0.00020099 | 0.00020099 | 0.00020099 |   0.0 |  0.00
Modify  | 9.7779     | 9.7779     | 9.7779     |   0.0 |  1.18
Other   |            | 2.604      |            |       |  0.31

Nlocal:    19652 ave 19652 max 19652 min
Histogram: 1 0 0 0 0 0 0 0 0 0
Nghost:    15939 ave 15939 max 15939 min
Histogram: 1 0 0 0 0 0 0 0 0 0
Neighs:    1.05434e+06 ave 1.05434e+06 max 1.05434e+06 min
Histogram: 1 0 0 0 0 0 0 0 0 0

Total # of neighbors = 1054341
Ave neighs/atom = 53.6506
Neighbor list builds = 6172
Dangerous builds not checked
Setting up Verlet run ...
  Unit style    : metal
  Current step  : 180007
  Time step     : 0.001
Per MPI rank memory allocation (min/avg/max) = 18.19 | 18.19 | 18.19 Mbytes
Step Temp Press TotEng PotEng Enthalpy 
  180007    1399.2075    1252.1289    -113199.3   -116753.41   -112832.46 
  180009    1399.5605     1253.258    -113199.3   -116754.31   -112832.13 
  180502    1358.9768   -622.67673    -113400.4   -116852.33   -113583.09 
Loop time of 61.6276 on 1 procs for 495 steps with 19652 atoms

Performance: 0.694 ns/day, 34.583 hours/ns, 8.032 timesteps/s
100.0% CPU use with 1 MPI tasks x no OpenMP threads

MPI task timing breakdown:
Section |  min time  |  avg time  |  max time  |%varavg| %total
---------------------------------------------------------------
Pair    | 32.969     | 32.969     | 32.969     |   0.0 | 53.50
Neigh   | 27.136     | 27.136     | 27.136     |   0.0 | 44.03
Comm    | 0.51958    | 0.51958    | 0.51958    |   0.0 |  0.84
Output  | 0.066904   | 0.066904   | 0.066904   |   0.0 |  0.11
Modify  | 0.73847    | 0.73847    | 0.73847    |   0.0 |  1.20
Other   |            | 0.1975     |            |       |  0.32

Nlocal:    19652 ave 19652 max 19652 min
Histogram: 1 0 0 0 0 0 0 0 0 0
Nghost:    15982 ave 15982 max 15982 min
Histogram: 1 0 0 0 0 0 0 0 0 0
Neighs:    1.05268e+06 ave 1.05268e+06 max 1.05268e+06 min
Histogram: 1 0 0 0 0 0 0 0 0 0

Total # of neighbors = 1052679
Ave neighs/atom = 53.566
Neighbor list builds = 495
Dangerous builds not checked
Setting up Verlet run ...
  Unit style    : metal
  Current step  : 180502
  Time step     : 0.001
Per MPI rank memory allocation (min/avg/max) = 18.19 | 18.19 | 18.19 Mbytes
Step Temp Press TotEng PotEng Enthalpy 
  180502    1358.9768   -622.67673    -113400.4   -116852.33   -113583.09 
  186674    1351.0711   -132.45783   -113507.21   -116939.05   -113546.03 
Loop time of 820.363 on 1 procs for 6172 steps with 19652 atoms

Performance: 0.650 ns/day, 36.921 hours/ns, 7.524 timesteps/s
99.9% CPU use with 1 MPI tasks x no OpenMP threads

MPI task timing breakdown:
Section |  min time  |  avg time  |  max time  |%varavg| %total
---------------------------------------------------------------
Pair    | 442.76     | 442.76     | 442.76     |   0.0 | 53.97
Neigh   | 358.21     | 358.21     | 358.21     |   0.0 | 43.67
Comm    | 7.0521     | 7.0521     | 7.0521     |   0.0 |  0.86
Output  | 0.00027299 | 0.00027299 | 0.00027299 |   0.0 |  0.00
Modify  | 9.7425     | 9.7425     | 9.7425     |   0.0 |  1.19
Other   |            | 2.591      |            |       |  0.32

Nlocal:    19652 ave 19652 max 19652 min
Histogram: 1 0 0 0 0 0 0 0 0 0
Nghost:    15876 ave 15876 max 15876 min
Histogram: 1 0 0 0 0 0 0 0 0 0
Neighs:    1.0538e+06 ave 1.0538e+06 max 1.0538e+06 min
Histogram: 1 0 0 0 0 0 0 0 0 0

Total # of neighbors = 1053798
Ave neighs/atom = 53.6229
Neighbor list builds = 6172
Dangerous builds not checked
Setting up Verlet run ...
  Unit style    : metal
  Current step  : 186674
  Time step     : 0.001
Per MPI rank memory allocation (min/avg/max) = 18.19 | 18.19 | 18.19 Mbytes
Step Temp Press TotEng PotEng Enthalpy 
  186674    1351.0711   -132.45783   -113507.21   -116939.05   -113546.03 
  186676    1351.1888   -133.05942   -113507.21   -116939.35   -113546.21 
  187169    1306.0227    395.36371   -113727.97   -117045.39    -113612.3 
Loop time of 63.8053 on 1 procs for 495 steps with 19652 atoms

Performance: 0.670 ns/day, 35.805 hours/ns, 7.758 timesteps/s
99.9% CPU use with 1 MPI tasks x no OpenMP threads

MPI task timing breakdown:
Section |  min time  |  avg time  |  max time  |%varavg| %total
---------------------------------------------------------------
Pair    | 34.142     | 34.142     | 34.142     |   0.0 | 53.51
Neigh   | 28.069     | 28.069     | 28.069     |   0.0 | 43.99
Comm    | 0.54877    | 0.54877    | 0.54877    |   0.0 |  0.86
Output  | 0.06638    | 0.06638    | 0.06638    |   0.0 |  0.10
Modify  | 0.7731     | 0.7731     | 0.7731     |   0.0 |  1.21
Other   |            | 0.2063     |            |       |  0.32

Nlocal:    19652 ave 19652 max 19652 min
Histogram: 1 0 0 0 0 0 0 0 0 0
Nghost:    15934 ave 15934 max 15934 min
Histogram: 1 0 0 0 0 0 0 0 0 0
Neighs:    1.05589e+06 ave 1.05589e+06 max 1.05589e+06 min
Histogram: 1 0 0 0 0 0 0 0 0 0

Total # of neighbors = 1055888
Ave neighs/atom = 53.7293
Neighbor list builds = 495
Dangerous builds not checked
Setting up Verlet run ...
  Unit style    : metal
  Current step  : 187169
  Time step     : 0.001
Per MPI rank memory allocation (min/avg/max) = 18.19 | 18.19 | 18.19 Mbytes
Step Temp Press TotEng PotEng Enthalpy 
  187169    1306.0227    395.36371   -113727.97   -117045.39    -113612.3 
  193341    1300.1047    1068.7907   -113842.64   -117145.02   -113530.34 
Loop time of 820.036 on 1 procs for 6172 steps with 19652 atoms

Performance: 0.650 ns/day, 36.907 hours/ns, 7.526 timesteps/s
100.0% CPU use with 1 MPI tasks x no OpenMP threads

MPI task timing breakdown:
Section |  min time  |  avg time  |  max time  |%varavg| %total
---------------------------------------------------------------
Pair    | 443.53     | 443.53     | 443.53     |   0.0 | 54.09
Neigh   | 357.11     | 357.11     | 357.11     |   0.0 | 43.55
Comm    | 7.0605     | 7.0605     | 7.0605     |   0.0 |  0.86
Output  | 0.00026917 | 0.00026917 | 0.00026917 |   0.0 |  0.00
Modify  | 9.7533     | 9.7533     | 9.7533     |   0.0 |  1.19
Other   |            | 2.579      |            |       |  0.31

Nlocal:    19652 ave 19652 max 19652 min
Histogram: 1 0 0 0 0 0 0 0 0 0
Nghost:    15988 ave 15988 max 15988 min
Histogram: 1 0 0 0 0 0 0 0 0 0
Neighs:    1.05808e+06 ave 1.05808e+06 max 1.05808e+06 min
Histogram: 1 0 0 0 0 0 0 0 0 0

Total # of neighbors = 1058078
Ave neighs/atom = 53.8407
Neighbor list builds = 6172
Dangerous builds not checked
Setting up Verlet run ...
  Unit style    : metal
  Current step  : 193341
  Time step     : 0.001
Per MPI rank memory allocation (min/avg/max) = 18.19 | 18.19 | 18.19 Mbytes
Step Temp Press TotEng PotEng Enthalpy 
  193341    1300.1047    1068.7907   -113842.64   -117145.02   -113530.34 
  193343     1299.765    1080.6845   -113842.64   -117144.16   -113526.87 
  193836    1269.7777   -1091.5486   -114044.89   -117270.24    -114364.4 
Loop time of 63.3717 on 1 procs for 495 steps with 19652 atoms

Performance: 0.675 ns/day, 35.562 hours/ns, 7.811 timesteps/s
100.0% CPU use with 1 MPI tasks x no OpenMP threads

MPI task timing breakdown:
Section |  min time  |  avg time  |  max time  |%varavg| %total
---------------------------------------------------------------
Pair    | 34.018     | 34.018     | 34.018     |   0.0 | 53.68
Neigh   | 27.786     | 27.786     | 27.786     |   0.0 | 43.85
Comm    | 0.54514    | 0.54514    | 0.54514    |   0.0 |  0.86
Output  | 0.06823    | 0.06823    | 0.06823    |   0.0 |  0.11
Modify  | 0.75411    | 0.75411    | 0.75411    |   0.0 |  1.19
Other   |            | 0.2002     |            |       |  0.32

Nlocal:    19652 ave 19652 max 19652 min
Histogram: 1 0 0 0 0 0 0 0 0 0
Nghost:    15915 ave 15915 max 15915 min
Histogram: 1 0 0 0 0 0 0 0 0 0
Neighs:    1.05636e+06 ave 1.05636e+06 max 1.05636e+06 min
Histogram: 1 0 0 0 0 0 0 0 0 0

Total # of neighbors = 1056361
Ave neighs/atom = 53.7534
Neighbor list builds = 495
Dangerous builds not checked
Setting up Verlet run ...
  Unit style    : metal
  Current step  : 193836
  Time step     : 0.001
Per MPI rank memory allocation (min/avg/max) = 18.19 | 18.19 | 18.19 Mbytes
Step Temp Press TotEng PotEng Enthalpy 
  193836    1269.7777   -1091.5486   -114044.89   -117270.24    -114364.4 
  200008    1265.2719    678.64718   -114196.92   -117410.82   -113998.82 
Loop time of 795.4 on 1 procs for 6172 steps with 19652 atoms

Performance: 0.670 ns/day, 35.798 hours/ns, 7.760 timesteps/s
100.0% CPU use with 1 MPI tasks x no OpenMP threads

MPI task timing breakdown:
Section |  min time  |  avg time  |  max time  |%varavg| %total
---------------------------------------------------------------
Pair    | 428.24     | 428.24     | 428.24     |   0.0 | 53.84
Neigh   | 348.6      | 348.6      | 348.6      |   0.0 | 43.83
Comm    | 6.7208     | 6.7208     | 6.7208     |   0.0 |  0.84
Output  | 0.00026083 | 0.00026083 | 0.00026083 |   0.0 |  0.00
Modify  | 9.3671     | 9.3671     | 9.3671     |   0.0 |  1.18
Other   |            | 2.471      |            |       |  0.31

Nlocal:    19652 ave 19652 max 19652 min
Histogram: 1 0 0 0 0 0 0 0 0 0
Nghost:    15922 ave 15922 max 15922 min
Histogram: 1 0 0 0 0 0 0 0 0 0
Neighs:    1.06002e+06 ave 1.06002e+06 max 1.06002e+06 min
Histogram: 1 0 0 0 0 0 0 0 0 0

Total # of neighbors = 1060016
Ave neighs/atom = 53.9393
Neighbor list builds = 6172
Dangerous builds not checked
Setting up Verlet run ...
  Unit style    : metal
  Current step  : 200008
  Time step     : 0.001
Per MPI rank memory allocation (min/avg/max) = 18.19 | 18.19 | 18.19 Mbytes
Step Temp Press TotEng PotEng Enthalpy 
  200008    1265.2719    678.64718   -114196.92   -117410.82   -113998.82 
  200010    1264.6033    689.05323   -114196.93   -117409.14    -113995.8 
  200503    1215.7607   -754.71665   -114420.35    -117508.5   -114640.84 
Loop time of 58.2763 on 1 procs for 495 steps with 19652 atoms

Performance: 0.734 ns/day, 32.703 hours/ns, 8.494 timesteps/s
100.0% CPU use with 1 MPI tasks x no OpenMP threads

MPI task timing breakdown:
Section |  min time  |  avg time  |  max time  |%varavg| %total
---------------------------------------------------------------
Pair    | 30.813     | 30.813     | 30.813     |   0.0 | 52.87
Neigh   | 26.026     | 26.026     | 26.026     |   0.0 | 44.66
Comm    | 0.49142    | 0.49142    | 0.49142    |   0.0 |  0.84
Output  | 0.068926   | 0.068926   | 0.068926   |   0.0 |  0.12
Modify  | 0.69471    | 0.69471    | 0.69471    |   0.0 |  1.19
Other   |            | 0.1821     |            |       |  0.31

Nlocal:    19652 ave 19652 max 19652 min
Histogram: 1 0 0 0 0 0 0 0 0 0
Nghost:    15919 ave 15919 max 15919 min
Histogram: 1 0 0 0 0 0 0 0 0 0
Neighs:    1.05944e+06 ave 1.05944e+06 max 1.05944e+06 min
Histogram: 1 0 0 0 0 0 0 0 0 0

Total # of neighbors = 1059442
Ave neighs/atom = 53.9101
Neighbor list builds = 495
Dangerous builds not checked
Setting up Verlet run ...
  Unit style    : metal
  Current step  : 200503
  Time step     : 0.001
Per MPI rank memory allocation (min/avg/max) = 18.19 | 18.19 | 18.19 Mbytes
Step Temp Press TotEng PotEng Enthalpy 
  200503    1215.7607   -754.71665   -114420.35    -117508.5   -114640.84 
  206675    1200.4789   -566.78163   -114548.94   -117598.27   -114714.36 
Loop time of 794.352 on 1 procs for 6172 steps with 19652 atoms

Performance: 0.671 ns/day, 35.751 hours/ns, 7.770 timesteps/s
99.9% CPU use with 1 MPI tasks x no OpenMP threads

MPI task timing breakdown:
Section |  min time  |  avg time  |  max time  |%varavg| %total
---------------------------------------------------------------
Pair    | 427.7      | 427.7      | 427.7      |   0.0 | 53.84
Neigh   | 347.96     | 347.96     | 347.96     |   0.0 | 43.80
Comm    | 6.7673     | 6.7673     | 6.7673     |   0.0 |  0.85
Output  | 0.00027609 | 0.00027609 | 0.00027609 |   0.0 |  0.00
Modify  | 9.4096     | 9.4096     | 9.4096     |   0.0 |  1.18
Other   |            | 2.513      |            |       |  0.32

Nlocal:    19652 ave 19652 max 19652 min
Histogram: 1 0 0 0 0 0 0 0 0 0
Nghost:    15906 ave 15906 max 15906 min
Histogram: 1 0 0 0 0 0 0 0 0 0
Neighs:    1.06035e+06 ave 1.06035e+06 max 1.06035e+06 min
Histogram: 1 0 0 0 0 0 0 0 0 0

Total # of neighbors = 1060346
Ave neighs/atom = 53.9561
Neighbor list builds = 6172
Dangerous builds not checked
Setting up Verlet run ...
  Unit style    : metal
  Current step  : 206675
[...]

Performance: 0.625 ns/day, 38.412 hours/ns, 7.232 timesteps/s
99.6% CPU use with 1 MPI tasks x no OpenMP threads

MPI task timing breakdown:
Section |  min time  |  avg time  |  max time  |%varavg| %total
---------------------------------------------------------------
Pair    | 37.678     | 37.678     | 37.678     |   0.0 | 55.04
Neigh   | 29.042     | 29.042     | 29.042     |   0.0 | 42.43
Comm    | 0.59324    | 0.59324    | 0.59324    |   0.0 |  0.87
Output  | 0.070256   | 0.070256   | 0.070256   |   0.0 |  0.10
Modify  | 0.84558    | 0.84558    | 0.84558    |   0.0 |  1.24
Other   |            | 0.2212     |            |       |  0.32

Nlocal:    19652 ave 19652 max 19652 min
Histogram: 1 0 0 0 0 0 0 0 0 0
Nghost:    16098 ave 16098 max 16098 min
Histogram: 1 0 0 0 0 0 0 0 0 0
Neighs:    1.1007e+06 ave 1.1007e+06 max 1.1007e+06 min
Histogram: 1 0 0 0 0 0 0 0 0 0

Total # of neighbors = 1100700
Ave neighs/atom = 56.0096
Neighbor list builds = 495
Dangerous builds not checked
Setting up Verlet run ...
  Unit style    : metal
  Current step  : 307175
  Time step     : 0.001
Per MPI rank memory allocation (min/avg/max) = 18.19 | 18.19 | 18.19 Mbytes
Step Temp Press TotEng PotEng Enthalpy 
  307175    420.63728   -383.77438   -120028.24    -121096.7   -120137.66 
  313347    397.92933   -643.63086   -120154.05   -121164.83   -120337.55 
Loop time of 837.913 on 1 procs for 6172 steps with 19652 atoms

Performance: 0.636 ns/day, 37.711 hours/ns, 7.366 timesteps/s
99.8% CPU use with 1 MPI tasks x no OpenMP threads

MPI task timing breakdown:
Section |  min time  |  avg time  |  max time  |%varavg| %total
---------------------------------------------------------------
Pair    | 456.66     | 456.66     | 456.66     |   0.0 | 54.50
Neigh   | 361.22     | 361.22     | 361.22     |   0.0 | 43.11
Comm    | 7.2249     | 7.2249     | 7.2249     |   0.0 |  0.86
Output  | 0.000319   | 0.000319   | 0.000319   |   0.0 |  0.00
Modify  | 10.111     | 10.111     | 10.111     |   0.0 |  1.21
Other   |            | 2.698      |            |       |  0.32

Nlocal:    19652 ave 19652 max 19652 min
Histogram: 1 0 0 0 0 0 0 0 0 0
Nghost:    16062 ave 16062 max 16062 min
Histogram: 1 0 0 0 0 0 0 0 0 0
Neighs:    1.10047e+06 ave 1.10047e+06 max 1.10047e+06 min
Histogram: 1 0 0 0 0 0 0 0 0 0

Total # of neighbors = 1100469
Ave neighs/atom = 55.9978
Neighbor list builds = 6172
Dangerous builds not checked
Setting up Verlet run ...
  Unit style    : metal
  Current step  : 313347
  Time step     : 0.001
Per MPI rank memory allocation (min/avg/max) = 18.19 | 18.19 | 18.19 Mbytes
Step Temp Press TotEng PotEng Enthalpy 
  313347    397.92933   -643.63086   -120154.05   -121164.83   -120337.55 
  313349    397.86916   -641.38015   -120154.05   -121164.68   -120336.91 
  313842    370.90554    694.69027   -120308.48   -121250.62   -120110.87 
Loop time of 67.2291 on 1 procs for 495 steps with 19652 atoms

Performance: 0.636 ns/day, 37.727 hours/ns, 7.363 timesteps/s
99.8% CPU use with 1 MPI tasks x no OpenMP threads

MPI task timing breakdown:
Section |  min time  |  avg time  |  max time  |%varavg| %total
---------------------------------------------------------------
Pair    | 36.706     | 36.706     | 36.706     |   0.0 | 54.60
Neigh   | 28.831     | 28.831     | 28.831     |   0.0 | 42.88
Comm    | 0.5838     | 0.5838     | 0.5838     |   0.0 |  0.87
Output  | 0.068188   | 0.068188   | 0.068188   |   0.0 |  0.10
Modify  | 0.81964    | 0.81964    | 0.81964    |   0.0 |  1.22
Other   |            | 0.2207     |            |       |  0.33

Nlocal:    19652 ave 19652 max 19652 min
Histogram: 1 0 0 0 0 0 0 0 0 0
Nghost:    16075 ave 16075 max 16075 min
Histogram: 1 0 0 0 0 0 0 0 0 0
Neighs:    1.10346e+06 ave 1.10346e+06 max 1.10346e+06 min
Histogram: 1 0 0 0 0 0 0 0 0 0

Total # of neighbors = 1103457
Ave neighs/atom = 56.1499
Neighbor list builds = 495
Dangerous builds not checked
Setting up Verlet run ...
  Unit style    : metal
  Current step  : 313842
  Time step     : 0.001
Per MPI rank memory allocation (min/avg/max) = 18.19 | 18.19 | 18.19 Mbytes
Step Temp Press TotEng PotEng Enthalpy 
  313842    370.90554    694.69027   -120308.48   -121250.62   -120110.87 
  320014    348.91454   -789.53179   -120450.71   -121336.98   -120675.57 
Loop time of 850.077 on 1 procs for 6172 steps with 19652 atoms

Performance: 0.627 ns/day, 38.259 hours/ns, 7.261 timesteps/s
99.8% CPU use with 1 MPI tasks x no OpenMP threads

MPI task timing breakdown:
Section |  min time  |  avg time  |  max time  |%varavg| %total
---------------------------------------------------------------
Pair    | 464.68     | 464.68     | 464.68     |   0.0 | 54.66
Neigh   | 364.68     | 364.68     | 364.68     |   0.0 | 42.90
Comm    | 7.5024     | 7.5024     | 7.5024     |   0.0 |  0.88
Output  | 0.00036502 | 0.00036502 | 0.00036502 |   0.0 |  0.00
Modify  | 10.391     | 10.391     | 10.391     |   0.0 |  1.22
Other   |            | 2.827      |            |       |  0.33

Nlocal:    19652 ave 19652 max 19652 min
Histogram: 1 0 0 0 0 0 0 0 0 0
Nghost:    16103 ave 16103 max 16103 min
Histogram: 1 0 0 0 0 0 0 0 0 0
Neighs:    1.10198e+06 ave 1.10198e+06 max 1.10198e+06 min
Histogram: 1 0 0 0 0 0 0 0 0 0

Total # of neighbors = 1101984
Ave neighs/atom = 56.0749
Neighbor list builds = 6172
Dangerous builds not checked
Setting up Verlet run ...
  Unit style    : metal
  Current step  : 320014
  Time step     : 0.001
Per MPI rank memory allocation (min/avg/max) = 18.19 | 18.19 | 18.19 Mbytes
Step Temp Press TotEng PotEng Enthalpy 
  320014    348.91454   -789.53179   -120450.71   -121336.98   -120675.57 
  320016    348.88702   -784.42676   -120450.71   -121336.91   -120674.12 
  320509    322.57151   -34.580347   -120588.83   -121408.19   -120598.66 
Loop time of 68.4415 on 1 procs for 495 steps with 19652 atoms

Performance: 0.625 ns/day, 38.407 hours/ns, 7.232 timesteps/s
99.8% CPU use with 1 MPI tasks x no OpenMP threads

MPI task timing breakdown:
Section |  min time  |  avg time  |  max time  |%varavg| %total
---------------------------------------------------------------
Pair    | 37.534     | 37.534     | 37.534     |   0.0 | 54.84
Neigh   | 29.151     | 29.151     | 29.151     |   0.0 | 42.59
Comm    | 0.60918    | 0.60918    | 0.60918    |   0.0 |  0.89
Output  | 0.071136   | 0.071136   | 0.071136   |   0.0 |  0.10
Modify  | 0.84721    | 0.84721    | 0.84721    |   0.0 |  1.24
Other   |            | 0.2299     |            |       |  0.34

Nlocal:    19652 ave 19652 max 19652 min
Histogram: 1 0 0 0 0 0 0 0 0 0
Nghost:    16082 ave 16082 max 16082 min
Histogram: 1 0 0 0 0 0 0 0 0 0
Neighs:    1.10345e+06 ave 1.10345e+06 max 1.10345e+06 min
Histogram: 1 0 0 0 0 0 0 0 0 0

Total # of neighbors = 1103454
Ave neighs/atom = 56.1497
Neighbor list builds = 495
Dangerous builds not checked
Setting up Verlet run ...
  Unit style    : metal
  Current step  : 320509
  Time step     : 0.001
Per MPI rank memory allocation (min/avg/max) = 18.19 | 18.19 | 18.19 Mbytes
Step Temp Press TotEng PotEng Enthalpy 
  320509    322.57151   -34.580347   -120588.83   -121408.19   -120598.66 
  326681    299.27904    370.34802   -120724.11   -121484.31   -120618.87 
Loop time of 843.999 on 1 procs for 6172 steps with 19652 atoms

Performance: 0.632 ns/day, 37.985 hours/ns, 7.313 timesteps/s
99.9% CPU use with 1 MPI tasks x no OpenMP threads

MPI task timing breakdown:
Section |  min time  |  avg time  |  max time  |%varavg| %total
---------------------------------------------------------------
Pair    | 461.2      | 461.2      | 461.2      |   0.0 | 54.64
Neigh   | 362.35     | 362.35     | 362.35     |   0.0 | 42.93
Comm    | 7.3761     | 7.3761     | 7.3761     |   0.0 |  0.87
Output  | 0.00021601 | 0.00021601 | 0.00021601 |   0.0 |  0.00
Modify  | 10.29      | 10.29      | 10.29      |   0.0 |  1.22
Other   |            | 2.777      |            |       |  0.33

Nlocal:    19652 ave 19652 max 19652 min
Histogram: 1 0 0 0 0 0 0 0 0 0
Nghost:    16097 ave 16097 max 16097 min
Histogram: 1 0 0 0 0 0 0 0 0 0
Neighs:    1.1051e+06 ave 1.1051e+06 max 1.1051e+06 min
Histogram: 1 0 0 0 0 0 0 0 0 0

Total # of neighbors = 1105095
Ave neighs/atom = 56.2332
Neighbor list builds = 6172
Dangerous builds not checked
Setting up Verlet run ...
  Unit style    : metal
  Current step  : 326681
  Time step     : 0.001
Per MPI rank memory allocation (min/avg/max) = 18.19 | 18.19 | 18.19 Mbytes
Step Temp Press TotEng PotEng Enthalpy 
  326681    299.27904    370.34802   -120724.11   -121484.31   -120618.87 
  326683    299.24753    367.75902   -120724.11   -121484.23   -120619.61 
  327176    274.95118    466.29867   -120865.42   -121563.82      -120733 
Loop time of 66.7017 on 1 procs for 495 steps with 19652 atoms

Performance: 0.641 ns/day, 37.431 hours/ns, 7.421 timesteps/s
99.8% CPU use with 1 MPI tasks x no OpenMP threads

MPI task timing breakdown:
Section |  min time  |  avg time  |  max time  |%varavg| %total
---------------------------------------------------------------
Pair    | 36.201     | 36.201     | 36.201     |   0.0 | 54.27
Neigh   | 28.831     | 28.831     | 28.831     |   0.0 | 43.22
Comm    | 0.57528    | 0.57528    | 0.57528    |   0.0 |  0.86
Output  | 0.070146   | 0.070146   | 0.070146   |   0.0 |  0.11
Modify  | 0.80969    | 0.80969    | 0.80969    |   0.0 |  1.21
Other   |            | 0.2155     |            |       |  0.32

Nlocal:    19652 ave 19652 max 19652 min
Histogram: 1 0 0 0 0 0 0 0 0 0
Nghost:    16124 ave 16124 max 16124 min
Histogram: 1 0 0 0 0 0 0 0 0 0
Neighs:    1.10566e+06 ave 1.10566e+06 max 1.10566e+06 min
Histogram: 1 0 0 0 0 0 0 0 0 0

Total # of neighbors = 1105662
Ave neighs/atom = 56.2621
Neighbor list builds = 495
Dangerous builds not checked
Setting up Verlet run ...
  Unit style    : metal
  Current step  : 327176
  Time step     : 0.001
Per MPI rank memory allocation (min/avg/max) = 18.19 | 18.19 | 18.19 Mbytes
Step Temp Press TotEng PotEng Enthalpy 
  327176    274.95118    466.29867   -120865.42   -121563.82      -120733 
  333348      250.861    320.00959    -120998.6   -121635.81   -120907.75 
Loop time of 846.266 on 1 procs for 6172 steps with 19652 atoms

Performance: 0.630 ns/day, 38.087 hours/ns, 7.293 timesteps/s
99.9% CPU use with 1 MPI tasks x no OpenMP threads

MPI task timing breakdown:
Section |  min time  |  avg time  |  max time  |%varavg| %total
---------------------------------------------------------------
Pair    | 465.58     | 465.58     | 465.58     |   0.0 | 55.02
Neigh   | 359.68     | 359.68     | 359.68     |   0.0 | 42.50
Comm    | 7.6067     | 7.6067     | 7.6067     |   0.0 |  0.90
Output  | 0.00025892 | 0.00025892 | 0.00025892 |   0.0 |  0.00
Modify  | 10.504     | 10.504     | 10.504     |   0.0 |  1.24
Other   |            | 2.893      |            |       |  0.34

Nlocal:    19652 ave 19652 max 19652 min
Histogram: 1 0 0 0 0 0 0 0 0 0
Nghost:    16091 ave 16091 max 16091 min
Histogram: 1 0 0 0 0 0 0 0 0 0
Neighs:    1.10621e+06 ave 1.10621e+06 max 1.10621e+06 min
Histogram: 1 0 0 0 0 0 0 0 0 0

Total # of neighbors = 1106210
Ave neighs/atom = 56.2899
Neighbor list builds = 6172
Dangerous builds not checked
Setting up Verlet run ...
  Unit style    : metal
  Current step  : 333348
  Time step     : 0.001
Per MPI rank memory allocation (min/avg/max) = 18.19 | 18.19 | 18.19 Mbytes
Step Temp Press TotEng PotEng Enthalpy 
  333348      250.861    320.00959    -120998.6   -121635.81   -120907.75 
  333350    250.92054    316.93397    -120998.6   -121635.96   -120908.62 
  333843    224.60145   -75.665375   -121134.74   -121705.25   -121156.22 
Loop time of 67.7381 on 1 procs for 495 steps with 19652 atoms

Performance: 0.631 ns/day, 38.012 hours/ns, 7.308 timesteps/s
99.9% CPU use with 1 MPI tasks x no OpenMP threads

MPI task timing breakdown:
Section |  min time  |  avg time  |  max time  |%varavg| %total
---------------------------------------------------------------
Pair    | 37.212     | 37.212     | 37.212     |   0.0 | 54.93
Neigh   | 28.764     | 28.764     | 28.764     |   0.0 | 42.46
Comm    | 0.60309    | 0.60309    | 0.60309    |   0.0 |  0.89
Output  | 0.081033   | 0.081033   | 0.081033   |   0.0 |  0.12
Modify  | 0.84682    | 0.84682    | 0.84682    |   0.0 |  1.25
Other   |            | 0.2317     |            |       |  0.34

Nlocal:    19652 ave 19652 max 19652 min
Histogram: 1 0 0 0 0 0 0 0 0 0
Nghost:    16073 ave 16073 max 16073 min
Histogram: 1 0 0 0 0 0 0 0 0 0
Neighs:    1.10656e+06 ave 1.10656e+06 max 1.10656e+06 min
Histogram: 1 0 0 0 0 0 0 0 0 0

Total # of neighbors = 1106559
Ave neighs/atom = 56.3077
Neighbor list builds = 495
Dangerous builds not checked
Setting up Verlet run ...
  Unit style    : metal
  Current step  : 333843
  Time step     : 0.001
Per MPI rank memory allocation (min/avg/max) = 18.19 | 18.19 | 18.19 Mbytes
Step Temp Press TotEng PotEng Enthalpy 
  333843    224.60145   -75.665375   -121134.74   -121705.25   -121156.22 
  340015    199.93478   -15.127539   -121275.05   -121782.91   -121279.35 
Loop time of 826.772 on 1 procs for 6172 steps with 19652 atoms

Performance: 0.645 ns/day, 37.210 hours/ns, 7.465 timesteps/s
99.9% CPU use with 1 MPI tasks x no OpenMP threads

MPI task timing breakdown:
Section |  min time  |  avg time  |  max time  |%varavg| %total
---------------------------------------------------------------
Pair    | 452.63     | 452.63     | 452.63     |   0.0 | 54.75
Neigh   | 353.69     | 353.69     | 353.69     |   0.0 | 42.78
Comm    | 7.3688     | 7.3688     | 7.3688     |   0.0 |  0.89
Output  | 0.00037289 | 0.00037289 | 0.00037289 |   0.0 |  0.00
Modify  | 10.266     | 10.266     | 10.266     |   0.0 |  1.24
Other   |            | 2.813      |            |       |  0.34

Nlocal:    19652 ave 19652 max 19652 min
Histogram: 1 0 0 0 0 0 0 0 0 0
Nghost:    16108 ave 16108 max 16108 min
Histogram: 1 0 0 0 0 0 0 0 0 0
Neighs:    1.1071e+06 ave 1.1071e+06 max 1.1071e+06 min
Histogram: 1 0 0 0 0 0 0 0 0 0

Total # of neighbors = 1107101
Ave neighs/atom = 56.3353
Neighbor list builds = 6172
Dangerous builds not checked
Setting up Verlet run ...
  Unit style    : metal
  Current step  : 340015
  Time step     : 0.001
Per MPI rank memory allocation (min/avg/max) = 18.19 | 18.19 | 18.19 Mbytes
Step Temp Press TotEng PotEng Enthalpy 
  340015    199.93478   -15.127539   -121275.05   -121782.91   -121279.35 
  340017    199.80778   -12.330901   -121275.05   -121782.58   -121278.55 
  340510    175.14608   -99.074458   -121400.57   -121845.45   -121428.67 
Loop time of 65.721 on 1 procs for 495 steps with 19652 atoms

Performance: 0.651 ns/day, 36.880 hours/ns, 7.532 timesteps/s
99.9% CPU use with 1 MPI tasks x no OpenMP threads

MPI task timing breakdown:
Section |  min time  |  avg time  |  max time  |%varavg| %total
---------------------------------------------------------------
Pair    | 35.823     | 35.823     | 35.823     |   0.0 | 54.51
Neigh   | 28.2       | 28.2       | 28.2       |   0.0 | 42.91
Comm    | 0.58733    | 0.58733    | 0.58733    |   0.0 |  0.89
Output  | 0.068826   | 0.068826   | 0.068826   |   0.0 |  0.10
Modify  | 0.81845    | 0.81845    | 0.81845    |   0.0 |  1.25
Other   |            | 0.2241     |            |       |  0.34

Nlocal:    19652 ave 19652 max 19652 min
Histogram: 1 0 0 0 0 0 0 0 0 0
Nghost:    16090 ave 16090 max 16090 min
Histogram: 1 0 0 0 0 0 0 0 0 0
Neighs:    1.1077e+06 ave 1.1077e+06 max 1.1077e+06 min
Histogram: 1 0 0 0 0 0 0 0 0 0

Total # of neighbors = 1107703
Ave neighs/atom = 56.3659
Neighbor list builds = 495
Dangerous builds not checked
Setting up Verlet run ...
  Unit style    : metal
  Current step  : 340510
  Time step     : 0.001
Per MPI rank memory allocation (min/avg/max) = 18.19 | 18.19 | 18.19 Mbytes
Step Temp Press TotEng PotEng Enthalpy 
  340510    175.14608   -99.074458   -121400.57   -121845.45   -121428.67 
  346682    150.69216   -343.60462   -121534.59   -121917.37   -121632.04 
Loop time of 825.315 on 1 procs for 6172 steps with 19652 atoms

Performance: 0.646 ns/day, 37.144 hours/ns, 7.478 timesteps/s
99.9% CPU use with 1 MPI tasks x no OpenMP threads

MPI task timing breakdown:
Section |  min time  |  avg time  |  max time  |%varavg| %total
---------------------------------------------------------------
Pair    | 451.51     | 451.51     | 451.51     |   0.0 | 54.71
Neigh   | 353.43     | 353.43     | 353.43     |   0.0 | 42.82
Comm    | 7.3314     | 7.3314     | 7.3314     |   0.0 |  0.89
Output  | 0.00026512 | 0.00026512 | 0.00026512 |   0.0 |  0.00
Modify  | 10.275     | 10.275     | 10.275     |   0.0 |  1.25
Other   |            | 2.774      |            |       |  0.34

Nlocal:    19652 ave 19652 max 19652 min
Histogram: 1 0 0 0 0 0 0 0 0 0
Nghost:    16065 ave 16065 max 16065 min
Histogram: 1 0 0 0 0 0 0 0 0 0
Neighs:    1.10815e+06 ave 1.10815e+06 max 1.10815e+06 min
Histogram: 1 0 0 0 0 0 0 0 0 0

Total # of neighbors = 1108149
Ave neighs/atom = 56.3886
Neighbor list builds = 6172
Dangerous builds not checked
Setting up Verlet run ...
  Unit style    : metal
  Current step  : 346682
  Time step     : 0.001
Per MPI rank memory allocation (min/avg/max) = 18.19 | 18.19 | 18.19 Mbytes
Step Temp Press TotEng PotEng Enthalpy 
  346682    150.69216   -343.60462   -121534.59   -121917.37   -121632.04 
  346684    150.75011   -342.81787   -121534.59   -121917.51   -121631.82 
  347177    127.53413    124.99104   -121656.86   -121980.81   -121621.45 
Loop time of 68.338 on 1 procs for 495 steps with 19652 atoms

Performance: 0.626 ns/day, 38.349 hours/ns, 7.243 timesteps/s
99.9% CPU use with 1 MPI tasks x no OpenMP threads

MPI task timing breakdown:
Section |  min time  |  avg time  |  max time  |%varavg| %total
---------------------------------------------------------------
Pair    | 37.911     | 37.911     | 37.911     |   0.0 | 55.48
Neigh   | 28.621     | 28.621     | 28.621     |   0.0 | 41.88
Comm    | 0.6388     | 0.6388     | 0.6388     |   0.0 |  0.93
Output  | 0.062846   | 0.062846   | 0.062846   |   0.0 |  0.09
Modify  | 0.87296    | 0.87296    | 0.87296    |   0.0 |  1.28
Other   |            | 0.2313     |            |       |  0.34

Nlocal:    19652 ave 19652 max 19652 min
Histogram: 1 0 0 0 0 0 0 0 0 0
Nghost:    16090 ave 16090 max 16090 min
Histogram: 1 0 0 0 0 0 0 0 0 0
Neighs:    1.1092e+06 ave 1.1092e+06 max 1.1092e+06 min
Histogram: 1 0 0 0 0 0 0 0 0 0

Total # of neighbors = 1109204
Ave neighs/atom = 56.4423
Neighbor list builds = 495
Dangerous builds not checked
Setting up Verlet run ...
  Unit style    : metal
  Current step  : 347177
  Time step     : 0.001
Per MPI rank memory allocation (min/avg/max) = 18.19 | 18.19 | 18.19 Mbytes
Step Temp Press TotEng PotEng Enthalpy 
  347177    127.53413    124.99104   -121656.86   -121980.81   -121621.45 
  353349    99.940341   -318.81751   -121800.38   -122054.24   -121890.71 
Loop time of 841.384 on 1 procs for 6172 steps with 19652 atoms

Performance: 0.634 ns/day, 37.867 hours/ns, 7.336 timesteps/s
99.9% CPU use with 1 MPI tasks x no OpenMP threads

MPI task timing breakdown:
Section |  min time  |  avg time  |  max time  |%varavg| %total
---------------------------------------------------------------
Pair    | 465.83     | 465.83     | 465.83     |   0.0 | 55.36
Neigh   | 354.23     | 354.23     | 354.23     |   0.0 | 42.10
Comm    | 7.7723     | 7.7723     | 7.7723     |   0.0 |  0.92
Output  | 0.00028801 | 0.00028801 | 0.00028801 |   0.0 |  0.00
Modify  | 10.683     | 10.683     | 10.683     |   0.0 |  1.27
Other   |            | 2.873      |            |       |  0.34

Nlocal:    19652 ave 19652 max 19652 min
Histogram: 1 0 0 0 0 0 0 0 0 0
Nghost:    16109 ave 16109 max 16109 min
Histogram: 1 0 0 0 0 0 0 0 0 0
Neighs:    1.10898e+06 ave 1.10898e+06 max 1.10898e+06 min
Histogram: 1 0 0 0 0 0 0 0 0 0

Total # of neighbors = 1108980
Ave neighs/atom = 56.4309
Neighbor list builds = 6172
Dangerous builds not checked
Total wall time: 12:58:45
