LAMMPS (12 Dec 2018)
Lattice spacing in x,y,z = 4 4 4
Created orthogonal box = (0 0 0) to (68 68 68)
  1 by 2 by 3 MPI processor grid
Created 19652 atoms
  Time spent = 0.0009799 secs
Setting atom values ...
  19480 settings made for type/fraction
Neighbor list info ...
  update every 1 steps, delay 0 steps, check no
  max neighbors/atom: 2000, page size: 100000
  master list distance cutoff = 8.5
  ghost atom cutoff = 8.5
  binsize = 4.25, bins = 16 16 16
  1 neighbor lists, perpetual/occasional/extra = 1 0 0
  (1) pair eam/alloy, perpetual
      attributes: half, newton on
      pair build: half/bin/atomonly/newton
      stencil: half/bin/3d/newton
      bin: standard
Setting up Verlet run ...
  Unit style    : metal
  Current step  : 0
  Time step     : 0.001
Per MPI rank memory allocation (min/avg/max) = 5.546 | 5.705 | 5.983 Mbytes
Step Temp Press TotEng PotEng Enthalpy 
       0          300    24374.552   -65178.202    -65940.23   -60394.622 
    1000    210.74968    34891.897   -65178.133   -65713.457   -58330.492 
Loop time of 29.334 on 6 procs for 1000 steps with 19652 atoms

Performance: 2.945 ns/day, 8.148 hours/ns, 34.090 timesteps/s
99.7% CPU use with 6 MPI tasks x no OpenMP threads

MPI task timing breakdown:
Section |  min time  |  avg time  |  max time  |%varavg| %total
---------------------------------------------------------------
Pair    | 16.488     | 16.71      | 17.033     |   4.9 | 56.97
Neigh   | 9.8874     | 10.43      | 10.885     |  10.6 | 35.56
Comm    | 1.8233     | 2.0611     | 2.4413     |  15.6 |  7.03
Output  | 0.00011492 | 0.00013451 | 0.00019407 |   0.0 |  0.00
Modify  | 0.062679   | 0.064656   | 0.066389   |   0.5 |  0.22
Other   |            | 0.06788    |            |       |  0.23

Nlocal:    3275.33 ave 3356 max 3178 min
Histogram: 2 0 0 0 0 1 0 0 2 1
Nghost:    7732.17 ave 7898 max 7474 min
Histogram: 2 0 0 0 0 0 0 0 3 1
Neighs:    261546 ave 270307 max 254122 min
Histogram: 2 1 0 0 0 1 0 0 0 2

Total # of neighbors = 1569277
Ave neighs/atom = 79.8533
Neighbor list builds = 1000
Dangerous builds not checked
Setting up Verlet run ...
  Unit style    : metal
  Current step  : 1000
  Time step     : 0.001
Per MPI rank memory allocation (min/avg/max) = 5.549 | 5.838 | 5.987 Mbytes
Step Temp Press TotEng PotEng Enthalpy 
    1000    210.74968    34891.897   -65178.133   -65713.457   -58330.492 
    2000    306.03777   -141.62113   -64706.911   -65484.274   -64736.146 
Loop time of 30.5442 on 6 procs for 1000 steps with 19652 atoms

Performance: 2.829 ns/day, 8.485 hours/ns, 32.739 timesteps/s
99.3% CPU use with 6 MPI tasks x no OpenMP threads

MPI task timing breakdown:
Section |  min time  |  avg time  |  max time  |%varavg| %total
---------------------------------------------------------------
Pair    | 17.065     | 17.29      | 17.64      |   5.7 | 56.60
Neigh   | 10.136     | 10.55      | 10.952     |   9.6 | 34.54
Comm    | 2.154      | 2.3316     | 2.5252     |   8.1 |  7.63
Output  | 5.8889e-05 | 7.0969e-05 | 0.00012088 |   0.0 |  0.00
Modify  | 0.28929    | 0.29866    | 0.30335    |   0.9 |  0.98
Other   |            | 0.07472    |            |       |  0.24

Nlocal:    3275.33 ave 3382 max 3167 min
Histogram: 1 1 0 0 1 1 0 0 1 1
Nghost:    7714.83 ave 7908 max 7434 min
Histogram: 2 0 0 0 0 0 0 1 1 2
Neighs:    242696 ave 252488 max 234301 min
Histogram: 1 2 0 0 0 0 1 1 0 1

Total # of neighbors = 1456179
Ave neighs/atom = 74.0983
Neighbor list builds = 1000
Dangerous builds not checked
Setting up Verlet run ...
  Unit style    : metal
  Current step  : 2000
  Time step     : 0.001
Per MPI rank memory allocation (min/avg/max) = 5.549 | 5.838 | 5.987 Mbytes
Step Temp Press TotEng PotEng Enthalpy 
    2000    306.03777   -141.62113   -64706.911   -65484.274   -64736.146 
   10000    2460.5089    667.45545   -51069.092   -57319.009   -50880.995 
Loop time of 239.355 on 6 procs for 8000 steps with 19652 atoms

Performance: 2.888 ns/day, 8.311 hours/ns, 33.423 timesteps/s
99.1% CPU use with 6 MPI tasks x no OpenMP threads

MPI task timing breakdown:
Section |  min time  |  avg time  |  max time  |%varavg| %total
---------------------------------------------------------------
Pair    | 129.15     | 129.65     | 130.3      |   3.1 | 54.17
Neigh   | 87.031     | 88.495     | 90.447     |  14.6 | 36.97
Comm    | 16.099     | 17.281     | 18.673     |  20.8 |  7.22
Output  | 6.3181e-05 | 7.4903e-05 | 0.00012898 |   0.0 |  0.00
Modify  | 2.7052     | 3.301      | 3.6089     |  22.9 |  1.38
Other   |            | 0.6272     |            |       |  0.26

Nlocal:    3275.33 ave 3293 max 3248 min
Histogram: 1 0 0 0 0 1 2 1 0 1
Nghost:    6356.67 ave 6379 max 6315 min
Histogram: 1 0 0 0 0 1 1 1 1 1
Neighs:    182195 ave 184028 max 179555 min
Histogram: 1 0 0 0 0 2 0 2 0 1

Total # of neighbors = 1093172
Ave neighs/atom = 55.6265
Neighbor list builds = 8000
Dangerous builds not checked
Setting up Verlet run ...
  Unit style    : metal
  Current step  : 10000
  Time step     : 0.001
Per MPI rank memory allocation (min/avg/max) = 5.555 | 5.843 | 5.992 Mbytes
Step Temp Press TotEng PotEng Enthalpy 
   10000    2460.5089    667.45545   -51069.092   -57319.009   -50880.995 
   40000    2438.1772   -386.81109   -51029.413   -57222.605   -51139.098 
Loop time of 811.971 on 6 procs for 30000 steps with 19652 atoms

Performance: 3.192 ns/day, 7.518 hours/ns, 36.947 timesteps/s
98.9% CPU use with 6 MPI tasks x no OpenMP threads

MPI task timing breakdown:
Section |  min time  |  avg time  |  max time  |%varavg| %total
---------------------------------------------------------------
Pair    | 432.77     | 436.01     | 437.75     |   7.5 | 53.70
Neigh   | 296.03     | 299.57     | 310.3      |  28.5 | 36.89
Comm    | 56.504     | 64.25      | 67.072     |  46.5 |  7.91
Output  | 6.5088e-05 | 7.7168e-05 | 0.00011778 |   0.0 |  0.00
Modify  | 9.7341     | 9.835      | 9.9969     |   2.6 |  1.21
Other   |            | 2.306      |            |       |  0.28

Nlocal:    3275.33 ave 3292 max 3262 min
Histogram: 2 0 0 0 0 3 0 0 0 1
Nghost:    6338.5 ave 6361 max 6309 min
Histogram: 1 0 1 1 0 0 0 0 1 2
Neighs:    181052 ave 181886 max 179658 min
Histogram: 2 0 0 0 0 0 0 1 0 3

Total # of neighbors = 1086310
Ave neighs/atom = 55.2773
Neighbor list builds = 30000
Dangerous builds not checked
Setting up Verlet run ...
  Unit style    : metal
  Current step  : 40000
  Time step     : 0.001
Per MPI rank memory allocation (min/avg/max) = 5.555 | 5.843 | 5.992 Mbytes
Step Temp Press TotEng PotEng Enthalpy 
   40000    2438.1772   -386.81109   -51029.413   -57222.605   -51139.098 
   40495    2422.2247   -862.07975   -51141.852   -57294.523   -51385.982 
Loop time of 12.8702 on 6 procs for 495 steps with 19652 atoms

Performance: 3.323 ns/day, 7.222 hours/ns, 38.461 timesteps/s
98.8% CPU use with 6 MPI tasks x no OpenMP threads

MPI task timing breakdown:
Section |  min time  |  avg time  |  max time  |%varavg| %total
---------------------------------------------------------------
Pair    | 6.7805     | 6.9457     | 7.0568     |   3.2 | 53.97
Neigh   | 4.4956     | 4.7229     | 5.2435     |  11.6 | 36.70
Comm    | 0.62821    | 0.99891    | 1.2025     |  18.5 |  7.76
Output  | 5.9128e-05 | 7.2638e-05 | 0.00012088 |   0.0 |  0.00
Modify  | 0.15652    | 0.16437    | 0.17246    |   1.5 |  1.28
Other   |            | 0.03819    |            |       |  0.30

Nlocal:    3275.33 ave 3306 max 3218 min
Histogram: 1 0 0 0 0 1 1 0 1 2
Nghost:    6317.83 ave 6350 max 6283 min
Histogram: 1 0 1 0 1 0 1 1 0 1
Neighs:    181246 ave 183966 max 176750 min
Histogram: 1 0 0 0 1 1 0 0 1 2

Total # of neighbors = 1087475
Ave neighs/atom = 55.3366
Neighbor list builds = 495
Dangerous builds not checked
Setting up Verlet run ...
  Unit style    : metal
  Current step  : 40495
  Time step     : 0.001
Per MPI rank memory allocation (min/avg/max) = 5.555 | 5.843 | 5.992 Mbytes
Step Temp Press TotEng PotEng Enthalpy 
   40495    2422.2247   -862.07975   -51141.852   -57294.523   -51385.982 
   66667    2365.8423     -580.788   -51355.415    -57364.87   -51519.009 
  106667    2398.8614   -1020.2323   -51235.019   -57328.345   -51523.432 
Loop time of 1854.84 on 6 procs for 66172 steps with 19652 atoms

Performance: 3.082 ns/day, 7.786 hours/ns, 35.675 timesteps/s
98.6% CPU use with 6 MPI tasks x no OpenMP threads

MPI task timing breakdown:
Section |  min time  |  avg time  |  max time  |%varavg| %total
---------------------------------------------------------------
Pair    | 981.66     | 1000.2     | 1009.9     |  32.0 | 53.92
Neigh   | 649.3      | 673.9      | 727.4      | 124.1 | 36.33
Comm    | 116        | 151.98     | 170.84     | 186.8 |  8.19
Output  | 0.016702   | 0.016736   | 0.016827   |   0.0 |  0.00
Modify  | 22.785     | 23.561     | 24.224     |  10.6 |  1.27
Other   |            | 5.21       |            |       |  0.28

Nlocal:    3275.33 ave 3299 max 3253 min
Histogram: 1 1 1 0 0 0 0 2 0 1
Nghost:    6325.33 ave 6364 max 6304 min
Histogram: 2 1 1 0 0 0 1 0 0 1
Neighs:    181650 ave 183642 max 180000 min
Histogram: 1 1 1 0 0 0 2 0 0 1

Total # of neighbors = 1089902
Ave neighs/atom = 55.4601
Neighbor list builds = 66172
Dangerous builds not checked
Setting up Verlet run ...
  Unit style    : metal
  Current step  : 106667
  Time step     : 0.001
Per MPI rank memory allocation (min/avg/max) = 5.575 | 5.863 | 6.008 Mbytes
Step Temp Press TotEng PotEng Enthalpy 
  106667    2398.8614   -1020.2323   -51235.019   -57328.345   -51523.432 
  107162    2356.2392    60.345284   -51468.338   -57453.401   -51451.414 
Loop time of 13.0818 on 6 procs for 495 steps with 19652 atoms

Performance: 3.269 ns/day, 7.341 hours/ns, 37.839 timesteps/s
98.6% CPU use with 6 MPI tasks x no OpenMP threads

MPI task timing breakdown:
Section |  min time  |  avg time  |  max time  |%varavg| %total
---------------------------------------------------------------
Pair    | 6.7898     | 7.1134     | 7.2897     |   7.1 | 54.38
Neigh   | 3.9147     | 4.4961     | 5.441      |  27.2 | 34.37
Comm    | 0.63112    | 1.2738     | 1.6929     |  35.7 |  9.74
Output  | 6.1035e-05 | 7.4744e-05 | 0.0001328  |   0.0 |  0.00
Modify  | 0.15008    | 0.16279    | 0.17991    |   2.8 |  1.24
Other   |            | 0.03567    |            |       |  0.27

Nlocal:    3275.33 ave 3304 max 3250 min
Histogram: 1 1 0 2 0 0 0 0 0 2
Nghost:    6362.33 ave 6415 max 6318 min
Histogram: 1 0 2 0 1 0 0 1 0 1
Neighs:    183062 ave 185879 max 180348 min
Histogram: 1 0 0 2 1 0 0 0 1 1

Total # of neighbors = 1098371
Ave neighs/atom = 55.8911
Neighbor list builds = 495
Dangerous builds not checked
Setting up Verlet run ...
  Unit style    : metal
  Current step  : 107162
  Time step     : 0.001
Per MPI rank memory allocation (min/avg/max) = 5.575 | 5.863 | 6.008 Mbytes
Step Temp Press TotEng PotEng Enthalpy 
  107162    2356.2392    60.345284   -51468.338   -57453.401   -51451.414 
  133334    2374.5723    543.01416   -51437.311   -57468.941   -51285.117 
  173334    2353.9642   -403.56911   -51511.195   -57490.479    -51624.38 
Loop time of 1801.22 on 6 procs for 66172 steps with 19652 atoms

Performance: 3.174 ns/day, 7.561 hours/ns, 36.737 timesteps/s
98.8% CPU use with 6 MPI tasks x no OpenMP threads

MPI task timing breakdown:
Section |  min time  |  avg time  |  max time  |%varavg| %total
---------------------------------------------------------------
Pair    | 951.74     | 975.14     | 994.69     |  51.9 | 54.14
Neigh   | 544.57     | 619.75     | 694.38     | 240.0 | 34.41
Comm    | 118.27     | 176.89     | 233.63     | 343.3 |  9.82
Output  | 0.0146     | 0.014624   | 0.014731   |   0.0 |  0.00
Modify  | 22.05      | 24.644     | 26.873     |  34.7 |  1.37
Other   |            | 4.782      |            |       |  0.27

Nlocal:    3275.33 ave 3299 max 3260 min
Histogram: 2 0 1 1 0 0 0 1 0 1
Nghost:    6345.17 ave 6370 max 6330 min
Histogram: 1 1 0 2 1 0 0 0 0 1
Neighs:    183076 ave 184959 max 181457 min
Histogram: 1 1 0 1 0 1 0 1 0 1

Total # of neighbors = 1098456
Ave neighs/atom = 55.8954
Neighbor list builds = 66172
Dangerous builds not checked
Setting up Verlet run ...
  Unit style    : metal
  Current step  : 173334
  Time step     : 0.001
Per MPI rank memory allocation (min/avg/max) = 5.575 | 5.863 | 6.008 Mbytes
Step Temp Press TotEng PotEng Enthalpy 
  173334    2353.9642   -403.56911   -51511.195   -57490.479    -51624.38 
  173829    2316.3513    74.523902    -51753.05   -57636.794   -51732.297 
Loop time of 13.2818 on 6 procs for 495 steps with 19652 atoms

Performance: 3.220 ns/day, 7.453 hours/ns, 37.269 timesteps/s
99.6% CPU use with 6 MPI tasks x no OpenMP threads

MPI task timing breakdown:
Section |  min time  |  avg time  |  max time  |%varavg| %total
---------------------------------------------------------------
Pair    | 6.9365     | 7.1001     | 7.3892     |   7.2 | 53.46
Neigh   | 3.8985     | 4.9562     | 5.493      |  30.3 | 37.32
Comm    | 0.63062    | 1.0278     | 1.8253     |  49.6 |  7.74
Output  | 6.4135e-05 | 7.5261e-05 | 0.00012112 |   0.0 |  0.00
Modify  | 0.13763    | 0.15858    | 0.17336    |   3.5 |  1.19
Other   |            | 0.03899    |            |       |  0.29

Nlocal:    3275.33 ave 3306 max 3237 min
Histogram: 1 0 0 1 1 0 1 0 1 1
Nghost:    6395.5 ave 6435 max 6360 min
Histogram: 1 1 1 0 0 1 0 0 1 1
Neighs:    184368 ave 188252 max 181466 min
Histogram: 2 0 0 1 1 0 0 1 0 1

Total # of neighbors = 1106206
Ave neighs/atom = 56.2897
Neighbor list builds = 495
Dangerous builds not checked
Setting up Verlet run ...
  Unit style    : metal
  Current step  : 173829
  Time step     : 0.001
Per MPI rank memory allocation (min/avg/max) = 5.575 | 5.863 | 6.008 Mbytes
Step Temp Press TotEng PotEng Enthalpy 
  173829    2316.3513    74.523902    -51753.05   -57636.794   -51732.297 
  200001    2306.6133    576.29761   -51854.402    -57713.41   -51694.581 
  240001    2305.9195    745.15965    -51815.22   -57672.466   -51608.474 
Loop time of 1842.84 on 6 procs for 66172 steps with 19652 atoms

Performance: 3.102 ns/day, 7.736 hours/ns, 35.908 timesteps/s
99.5% CPU use with 6 MPI tasks x no OpenMP threads

MPI task timing breakdown:
Section |  min time  |  avg time  |  max time  |%varavg| %total
---------------------------------------------------------------
Pair    | 959.26     | 973.19     | 1027.6     |  78.4 | 52.81
Neigh   | 551.93     | 712.32     | 751.89     | 270.0 | 38.65
Comm    | 99.222     | 129.68     | 239.92     | 438.3 |  7.04
Output  | 0.015841   | 0.015879   | 0.016052   |   0.1 |  0.00
Modify  | 19.278     | 22.49      | 23.43      |  30.5 |  1.22
Other   |            | 5.148      |            |       |  0.28

Nlocal:    3275.33 ave 3299 max 3260 min
Histogram: 2 0 2 0 0 0 0 0 1 1
Nghost:    6388.33 ave 6413 max 6356 min
Histogram: 1 0 0 0 1 1 1 1 0 1
Neighs:    185136 ave 190139 max 181686 min
Histogram: 2 1 0 0 1 0 0 0 1 1

Total # of neighbors = 1110813
Ave neighs/atom = 56.5242
Neighbor list builds = 66172
Dangerous builds not checked
Setting up Verlet run ...
  Unit style    : metal
  Current step  : 240001
  Time step     : 0.001
Per MPI rank memory allocation (min/avg/max) = 5.575 | 5.863 | 6.008 Mbytes
Step Temp Press TotEng PotEng Enthalpy 
  240001    2305.9195    745.15965    -51815.22   -57672.466   -51608.474 
  240496    2276.8808    -716.3132   -51894.079   -57677.564    -52093.57 
Loop time of 13.1012 on 6 procs for 495 steps with 19652 atoms

Performance: 3.264 ns/day, 7.352 hours/ns, 37.783 timesteps/s
99.7% CPU use with 6 MPI tasks x no OpenMP threads

MPI task timing breakdown:
Section |  min time  |  avg time  |  max time  |%varavg| %total
---------------------------------------------------------------
Pair    | 6.871      | 6.9352     | 7.0206     |   2.0 | 52.94
Neigh   | 4.2049     | 4.5568     | 4.8288     |  11.1 | 34.78
Comm    | 1.0639     | 1.4294     | 1.8517     |  23.6 | 10.91
Output  | 6.3896e-05 | 7.987e-05  | 0.00012708 |   0.0 |  0.00
Modify  | 0.13638    | 0.14235    | 0.14725    |   1.1 |  1.09
Other   |            | 0.03739    |            |       |  0.29

Nlocal:    3275.33 ave 3290 max 3255 min
Histogram: 1 0 0 0 2 0 0 1 1 1
Nghost:    6381.5 ave 6408 max 6347 min
Histogram: 2 0 0 0 0 1 0 1 0 2
Neighs:    184436 ave 188922 max 181367 min
Histogram: 1 1 1 1 0 0 1 0 0 1

Total # of neighbors = 1106619
Ave neighs/atom = 56.3108
Neighbor list builds = 495
Dangerous builds not checked
Setting up Verlet run ...
  Unit style    : metal
  Current step  : 240496
  Time step     : 0.001
Per MPI rank memory allocation (min/avg/max) = 5.575 | 5.863 | 6.008 Mbytes
Step Temp Press TotEng PotEng Enthalpy 
  240496    2276.8808    -716.3132   -51894.079   -57677.564    -52093.57 
  266668    2240.3241   -176.62868   -52080.178   -57770.806   -52129.151 
  306668    2236.6238   -86.036066    -52124.63   -57805.858   -52148.422 
Loop time of 1769.02 on 6 procs for 66172 steps with 19652 atoms

Performance: 3.232 ns/day, 7.426 hours/ns, 37.406 timesteps/s
99.1% CPU use with 6 MPI tasks x no OpenMP threads

MPI task timing breakdown:
Section |  min time  |  avg time  |  max time  |%varavg| %total
---------------------------------------------------------------
Pair    | 929.02     | 937.65     | 944.03     |  18.3 | 53.00
Neigh   | 613.85     | 621.4      | 634.3      |  25.6 | 35.13
Comm    | 163.23     | 182.15     | 198.04     |  82.1 | 10.30
Output  | 0.016005   | 0.016031   | 0.016113   |   0.0 |  0.00
Modify  | 22.568     | 23.222     | 23.754     |   8.9 |  1.31
Other   |            | 4.592      |            |       |  0.26

Nlocal:    3275.33 ave 3300 max 3242 min
Histogram: 1 0 0 0 2 0 0 2 0 1
Nghost:    6389.5 ave 6447 max 6359 min
Histogram: 2 2 0 0 0 0 0 1 0 1
Neighs:    185687 ave 188747 max 182024 min
Histogram: 1 0 0 0 1 2 0 1 0 1

Total # of neighbors = 1114123
Ave neighs/atom = 56.6926
Neighbor list builds = 66172
Dangerous builds not checked
Setting up Verlet run ...
  Unit style    : metal
  Current step  : 306668
  Time step     : 0.001
Per MPI rank memory allocation (min/avg/max) = 5.575 | 5.863 | 6.008 Mbytes
Step Temp Press TotEng PotEng Enthalpy 
  306668    2236.6238   -86.036066    -52124.63   -57805.858   -52148.422 
  307163    2205.9026   -366.13883   -52236.488   -57839.681    -52337.67 
Loop time of 12.0769 on 6 procs for 495 steps with 19652 atoms

Performance: 3.541 ns/day, 6.777 hours/ns, 40.987 timesteps/s
99.9% CPU use with 6 MPI tasks x no OpenMP threads

MPI task timing breakdown:
Section |  min time  |  avg time  |  max time  |%varavg| %total
---------------------------------------------------------------
Pair    | 6.3365     | 6.3775     | 6.4991     |   2.2 | 52.81
Neigh   | 4.1254     | 4.3048     | 4.622      |   9.4 | 35.64
Comm    | 0.78105    | 1.2266     | 1.4452     |  21.6 | 10.16
Output  | 6.2943e-05 | 7.6294e-05 | 0.00011516 |   0.0 |  0.00
Modify  | 0.12746    | 0.1336     | 0.13721    |   1.0 |  1.11
Other   |            | 0.03436    |            |       |  0.28

Nlocal:    3275.33 ave 3302 max 3254 min
Histogram: 1 0 0 2 1 1 0 0 0 1
Nghost:    6417.67 ave 6439 max 6377 min
Histogram: 1 0 0 0 1 0 1 0 1 2
Neighs:    185804 ave 188606 max 182071 min
Histogram: 1 0 0 0 1 1 1 1 0 1

Total # of neighbors = 1114823
Ave neighs/atom = 56.7282
Neighbor list builds = 495
Dangerous builds not checked
Setting up Verlet run ...
  Unit style    : metal
  Current step  : 307163
  Time step     : 0.001
Per MPI rank memory allocation (min/avg/max) = 5.575 | 5.863 | 6.008 Mbytes
Step Temp Press TotEng PotEng Enthalpy 
  307163    2205.9026   -366.13883   -52236.488   -57839.681    -52337.67 
  333335    2195.9825    61.304913   -52317.641   -57895.637   -52300.754 
  373335    2181.5803    983.47898   -52346.141   -57887.554   -52075.654 
Loop time of 1672.43 on 6 procs for 66172 steps with 19652 atoms

Performance: 3.419 ns/day, 7.021 hours/ns, 39.566 timesteps/s
99.9% CPU use with 6 MPI tasks x no OpenMP threads

MPI task timing breakdown:
Section |  min time  |  avg time  |  max time  |%varavg| %total
---------------------------------------------------------------
Pair    | 879.75     | 883.84     | 887.97     |  10.1 | 52.85
Neigh   | 592.87     | 605.22     | 633.02     |  53.2 | 36.19
Comm    | 128.69     | 160.74     | 175.27     | 121.8 |  9.61
Output  | 0.017276   | 0.017296   | 0.017377   |   0.0 |  0.00
Modify  | 17.478     | 18.21      | 18.54      |   8.8 |  1.09
Other   |            | 4.405      |            |       |  0.26

Nlocal:    3275.33 ave 3305 max 3238 min
Histogram: 1 0 1 0 0 1 0 2 0 1
Nghost:    6395 ave 6459 max 6336 min
Histogram: 1 1 0 0 0 2 0 1 0 1
Neighs:    186744 ave 190765 max 184360 min
Histogram: 3 0 1 0 0 0 0 0 1 1

Total # of neighbors = 1120462
Ave neighs/atom = 57.0152
Neighbor list builds = 66172
Dangerous builds not checked
Setting up Verlet run ...
  Unit style    : metal
  Current step  : 373335
  Time step     : 0.001
Per MPI rank memory allocation (min/avg/max) = 5.575 | 5.863 | 6.008 Mbytes
Step Temp Press TotEng PotEng Enthalpy 
  373335    2181.5803    983.47898   -52346.141   -57887.554   -52075.654 
  373830     2163.886   -171.48832   -52489.311   -57985.778   -52536.405 
Loop time of 10.992 on 6 procs for 495 steps with 19652 atoms

Performance: 3.891 ns/day, 6.168 hours/ns, 45.033 timesteps/s
99.9% CPU use with 6 MPI tasks x no OpenMP threads

MPI task timing breakdown:
Section |  min time  |  avg time  |  max time  |%varavg| %total
---------------------------------------------------------------
Pair    | 5.6428     | 5.6789     | 5.7039     |   0.9 | 51.66
Neigh   | 4.0127     | 4.1311     | 4.3625     |   6.0 | 37.58
Comm    | 0.78148    | 1.0281     | 1.1447     |  12.0 |  9.35
Output  | 5.4836e-05 | 6.9658e-05 | 0.00011802 |   0.0 |  0.00
Modify  | 0.11749    | 0.12324    | 0.12562    |   0.8 |  1.12
Other   |            | 0.03057    |            |       |  0.28

Nlocal:    3275.33 ave 3307 max 3246 min
Histogram: 2 0 0 1 0 1 0 0 1 1
Nghost:    6429.17 ave 6474 max 6381 min
Histogram: 1 1 0 0 1 0 1 0 0 2
Neighs:    187093 ave 190341 max 182566 min
Histogram: 1 1 0 0 0 0 1 1 0 2

Total # of neighbors = 1122558
Ave neighs/atom = 57.1218
Neighbor list builds = 495
Dangerous builds not checked
Setting up Verlet run ...
  Unit style    : metal
  Current step  : 373830
  Time step     : 0.001
Per MPI rank memory allocation (min/avg/max) = 5.575 | 5.863 | 6.008 Mbytes
Step Temp Press TotEng PotEng Enthalpy 
  373830     2163.886   -171.48832   -52489.311   -57985.778   -52536.405 
  400002     2160.099   -765.86641   -52552.703   -58039.551   -52762.802 
  440002     2148.872    120.19896   -52583.798   -58042.129   -52550.898 
Loop time of 1710.14 on 6 procs for 66172 steps with 19652 atoms

Performance: 3.343 ns/day, 7.179 hours/ns, 38.694 timesteps/s
99.7% CPU use with 6 MPI tasks x no OpenMP threads

MPI task timing breakdown:
Section |  min time  |  avg time  |  max time  |%varavg| %total
---------------------------------------------------------------
Pair    | 900.44     | 905.18     | 909.36     |  12.5 | 52.93
Neigh   | 608.93     | 617.33     | 632.08     |  29.5 | 36.10
Comm    | 144.42     | 163.93     | 176.82     |  83.6 |  9.59
Output  | 0.015091   | 0.015108   | 0.015189   |   0.0 |  0.00
Modify  | 18.72      | 19.201     | 19.984     |  10.5 |  1.12
Other   |            | 4.472      |            |       |  0.26

Nlocal:    3275.33 ave 3314 max 3249 min
Histogram: 1 1 1 1 0 0 1 0 0 1
Nghost:    6422.5 ave 6456 max 6393 min
Histogram: 1 1 1 0 0 0 1 1 0 1
Neighs:    187552 ave 190118 max 184529 min
Histogram: 1 1 0 0 0 1 1 0 1 1

Total # of neighbors = 1125309
Ave neighs/atom = 57.2618
Neighbor list builds = 66172
Dangerous builds not checked
Setting up Verlet run ...
  Unit style    : metal
  Current step  : 440002
  Time step     : 0.001
Per MPI rank memory allocation (min/avg/max) = 5.575 | 5.863 | 6.008 Mbytes
Step Temp Press TotEng PotEng Enthalpy 
  440002     2148.872    120.19896   -52583.798   -58042.129   -52550.898 
  440497    2116.6478     497.1193   -52806.795   -58183.274    -52671.47 
Loop time of 12.6701 on 6 procs for 495 steps with 19652 atoms

Performance: 3.375 ns/day, 7.110 hours/ns, 39.068 timesteps/s
99.9% CPU use with 6 MPI tasks x no OpenMP threads

MPI task timing breakdown:
Section |  min time  |  avg time  |  max time  |%varavg| %total
---------------------------------------------------------------
Pair    | 6.6467     | 6.7362     | 6.8006     |   2.3 | 53.17
Neigh   | 4.5753     | 4.6732     | 4.7879     |   3.5 | 36.88
Comm    | 1.0361     | 1.0866     | 1.1393     |   3.4 |  8.58
Output  | 6.5088e-05 | 7.8917e-05 | 0.00012589 |   0.0 |  0.00
Modify  | 0.13786    | 0.14006    | 0.14291    |   0.5 |  1.11
Other   |            | 0.03399    |            |       |  0.27

Nlocal:    3275.33 ave 3305 max 3245 min
Histogram: 1 1 0 0 0 2 0 0 0 2
Nghost:    6438.33 ave 6467 max 6400 min
Histogram: 1 0 0 1 1 0 0 1 1 1
Neighs:    188674 ave 192673 max 182230 min
Histogram: 1 0 0 0 0 1 1 1 1 1

Total # of neighbors = 1132045
Ave neighs/atom = 57.6046
Neighbor list builds = 495
Dangerous builds not checked
Setting up Verlet run ...
  Unit style    : metal
  Current step  : 440497
  Time step     : 0.001
Per MPI rank memory allocation (min/avg/max) = 5.575 | 5.863 | 6.008 Mbytes
Step Temp Press TotEng PotEng Enthalpy 
  440497    2116.6478     497.1193   -52806.795   -58183.274    -52671.47 
  466669    2113.3492    618.29819   -52832.379   -58200.478   -52664.297 
  506669    2097.0743    656.95045   -52858.759   -58185.519   -52680.046 
Loop time of 1784.11 on 6 procs for 66172 steps with 19652 atoms

Performance: 3.205 ns/day, 7.489 hours/ns, 37.090 timesteps/s
99.4% CPU use with 6 MPI tasks x no OpenMP threads

MPI task timing breakdown:
Section |  min time  |  avg time  |  max time  |%varavg| %total
---------------------------------------------------------------
Pair    | 946.35     | 950.91     | 955.71     |  11.5 | 53.30
Neigh   | 636        | 640.08     | 642.36     |   8.6 | 35.88
Comm    | 160.18     | 165.89     | 174.55     |  35.0 |  9.30
Output  | 0.015763   | 0.015787   | 0.015881   |   0.0 |  0.00
Modify  | 22.482     | 22.661     | 23.03      |   4.2 |  1.27
Other   |            | 4.557      |            |       |  0.26

Nlocal:    3275.33 ave 3294 max 3245 min
Histogram: 1 0 0 0 1 0 0 2 1 1
Nghost:    6417.83 ave 6472 max 6371 min
Histogram: 1 1 0 0 1 1 1 0 0 1
Neighs:    188755 ave 191151 max 186850 min
Histogram: 1 1 0 1 1 0 0 1 0 1

Total # of neighbors = 1132532
Ave neighs/atom = 57.6294
Neighbor list builds = 66172
Dangerous builds not checked
Setting up Verlet run ...
  Unit style    : metal
  Current step  : 506669
  Time step     : 0.001
Per MPI rank memory allocation (min/avg/max) = 5.575 | 5.863 | 6.008 Mbytes
Step Temp Press TotEng PotEng Enthalpy 
  506669    2097.0743    656.95045   -52858.759   -58185.519   -52680.046 
  507164    2075.7342    52.584908   -53069.537   -58342.091     -53055.3 
Loop time of 12.9771 on 6 procs for 495 steps with 19652 atoms

Performance: 3.296 ns/day, 7.282 hours/ns, 38.144 timesteps/s
99.3% CPU use with 6 MPI tasks x no OpenMP threads

MPI task timing breakdown:
Section |  min time  |  avg time  |  max time  |%varavg| %total
---------------------------------------------------------------
Pair    | 6.7412     | 6.7869     | 6.8613     |   1.6 | 52.30
Neigh   | 4.4337     | 4.5849     | 4.7078     |   4.7 | 35.33
Comm    | 1.3286     | 1.4269     | 1.5519     |   7.5 | 11.00
Output  | 5.6982e-05 | 6.8188e-05 | 0.00011396 |   0.0 |  0.00
Modify  | 0.14065    | 0.14388    | 0.14657    |   0.7 |  1.11
Other   |            | 0.03448    |            |       |  0.27

Nlocal:    3275.33 ave 3292 max 3256 min
Histogram: 1 1 0 0 0 1 0 1 1 1
Nghost:    6418.5 ave 6476 max 6389 min
Histogram: 1 2 1 0 1 0 0 0 0 1
Neighs:    189747 ave 192359 max 184661 min
Histogram: 1 0 0 0 0 0 1 2 1 1

Total # of neighbors = 1138481
Ave neighs/atom = 57.9321
Neighbor list builds = 495
Dangerous builds not checked
Setting up Verlet run ...
  Unit style    : metal
  Current step  : 507164
  Time step     : 0.001
Per MPI rank memory allocation (min/avg/max) = 5.575 | 5.863 | 6.008 Mbytes
Step Temp Press TotEng PotEng Enthalpy 
  507164    2075.7342    52.584908   -53069.537   -58342.091     -53055.3 
  533336     2048.933   -365.57224   -53232.791   -58437.268   -53331.384 
  573336    2047.2089    -758.9846   -53114.534   -58314.631    -53320.39 
Loop time of 1772.54 on 6 procs for 66172 steps with 19652 atoms

Performance: 3.225 ns/day, 7.441 hours/ns, 37.332 timesteps/s
99.9% CPU use with 6 MPI tasks x no OpenMP threads

MPI task timing breakdown:
Section |  min time  |  avg time  |  max time  |%varavg| %total
---------------------------------------------------------------
Pair    | 943.31     | 950.05     | 955.01     |  14.0 | 53.60
Neigh   | 632.97     | 637.48     | 644.33     |  17.4 | 35.96
Comm    | 152.13     | 160.95     | 171.97     |  55.5 |  9.08
Output  | 0.015043   | 0.015067   | 0.015148   |   0.0 |  0.00
Modify  | 19.374     | 19.457     | 19.579     |   1.9 |  1.10
Other   |            | 4.593      |            |       |  0.26

Nlocal:    3275.33 ave 3299 max 3250 min
Histogram: 2 0 0 0 1 0 0 0 2 1
Nghost:    6443.17 ave 6464 max 6424 min
Histogram: 1 0 1 0 1 1 1 0 0 1
Neighs:    189403 ave 192960 max 184806 min
Histogram: 1 0 1 1 0 0 0 0 1 2

Total # of neighbors = 1136419
Ave neighs/atom = 57.8271
Neighbor list builds = 66172
Dangerous builds not checked
Setting up Verlet run ...
  Unit style    : metal
  Current step  : 573336
  Time step     : 0.001
Per MPI rank memory allocation (min/avg/max) = 5.575 | 5.863 | 6.008 Mbytes
Step Temp Press TotEng PotEng Enthalpy 
  573336    2047.2089    -758.9846   -53114.534   -58314.631    -53320.39 
  573831    2012.8712    447.73143   -53406.541   -58519.417   -53286.374 
Loop time of 12.8653 on 6 procs for 495 steps with 19652 atoms

Performance: 3.324 ns/day, 7.220 hours/ns, 38.475 timesteps/s
99.9% CPU use with 6 MPI tasks x no OpenMP threads

MPI task timing breakdown:
Section |  min time  |  avg time  |  max time  |%varavg| %total
---------------------------------------------------------------
Pair    | 6.7539     | 6.9162     | 7.0201     |   3.4 | 53.76
Neigh   | 4.3198     | 4.6416     | 4.9374     |   9.6 | 36.08
Comm    | 0.99049    | 1.1319     | 1.3562     |  12.0 |  8.80
Output  | 5.0068e-05 | 6.3777e-05 | 0.0001111  |   0.0 |  0.00
Modify  | 0.13604    | 0.14071    | 0.14694    |   1.0 |  1.09
Other   |            | 0.03484    |            |       |  0.27

Nlocal:    3275.33 ave 3305 max 3262 min
Histogram: 3 0 1 0 1 0 0 0 0 1
Nghost:    6480.17 ave 6520 max 6455 min
Histogram: 1 1 2 0 0 0 1 0 0 1
Neighs:    191492 ave 194061 max 187507 min
Histogram: 1 1 0 0 0 0 0 1 2 1

Total # of neighbors = 1148952
Ave neighs/atom = 58.4649
Neighbor list builds = 495
Dangerous builds not checked
Setting up Verlet run ...
  Unit style    : metal
  Current step  : 573831
  Time step     : 0.001
Per MPI rank memory allocation (min/avg/max) = 5.575 | 5.863 | 6.008 Mbytes
Step Temp Press TotEng PotEng Enthalpy 
  573831    2012.8712    447.73143   -53406.541   -58519.417   -53286.374 
  600003    2000.2818   -207.83151   -53544.457   -58625.355    -53600.09 
  640003    2006.0999   -928.21617   -53469.405   -58565.082   -53718.666 
Loop time of 1848.82 on 6 procs for 66172 steps with 19652 atoms

Performance: 3.092 ns/day, 7.761 hours/ns, 35.791 timesteps/s
99.4% CPU use with 6 MPI tasks x no OpenMP threads

MPI task timing breakdown:
Section |  min time  |  avg time  |  max time  |%varavg| %total
---------------------------------------------------------------
Pair    | 983.86     | 992.92     | 1002.2     |  18.0 | 53.71
Neigh   | 649.31     | 655.14     | 661.7      |  16.2 | 35.44
Comm    | 161.58     | 173.79     | 185.46     |  63.2 |  9.40
Output  | 0.015      | 0.015023   | 0.015116   |   0.0 |  0.00
Modify  | 21.751     | 22.148     | 22.414     |   5.6 |  1.20
Other   |            | 4.805      |            |       |  0.26

Nlocal:    3275.33 ave 3288 max 3253 min
Histogram: 1 0 0 0 1 0 1 1 0 2
Nghost:    6468.5 ave 6481 max 6449 min
Histogram: 1 0 1 0 0 0 1 0 2 1
Neighs:    191327 ave 195930 max 187690 min
Histogram: 1 1 1 0 1 0 0 1 0 1

Total # of neighbors = 1147961
Ave neighs/atom = 58.4145
Neighbor list builds = 66172
Dangerous builds not checked
Setting up Verlet run ...
  Unit style    : metal
  Current step  : 640003
  Time step     : 0.001
Per MPI rank memory allocation (min/avg/max) = 5.575 | 5.863 | 6.008 Mbytes
Step Temp Press TotEng PotEng Enthalpy 
  640003    2006.0999   -928.21617   -53469.405   -58565.082   -53718.666 
  640498     1957.612    560.01578   -53646.962   -58619.475   -53497.311 
Loop time of 13.5003 on 6 procs for 495 steps with 19652 atoms

Performance: 3.168 ns/day, 7.576 hours/ns, 36.666 timesteps/s
99.9% CPU use with 6 MPI tasks x no OpenMP threads

MPI task timing breakdown:
Section |  min time  |  avg time  |  max time  |%varavg| %total
---------------------------------------------------------------
Pair    | 7.1584     | 7.2348     | 7.3837     |   2.8 | 53.59
Neigh   | 4.7569     | 4.8719     | 5.022      |   4.0 | 36.09
Comm    | 1.0552     | 1.2049     | 1.3001     |   7.3 |  8.92
Output  | 4.8161e-05 | 5.9764e-05 | 0.00011396 |   0.0 |  0.00
Modify  | 0.14595    | 0.15087    | 0.15426    |   0.7 |  1.12
Other   |            | 0.03775    |            |       |  0.28

Nlocal:    3275.33 ave 3289 max 3254 min
Histogram: 1 1 0 0 0 0 0 1 1 2
Nghost:    6474.67 ave 6527 max 6438 min
Histogram: 2 0 0 1 1 1 0 0 0 1
Neighs:    192297 ave 195326 max 186710 min
Histogram: 1 0 0 0 0 0 2 1 1 1

Total # of neighbors = 1153781
Ave neighs/atom = 58.7106
Neighbor list builds = 495
Dangerous builds not checked
Setting up Verlet run ...
  Unit style    : metal
  Current step  : 640498
  Time step     : 0.001
Per MPI rank memory allocation (min/avg/max) = 5.575 | 5.863 | 6.008 Mbytes
Step Temp Press TotEng PotEng Enthalpy 
  640498     1957.612    560.01578   -53646.962   -58619.475   -53497.311 
  666670    1949.8028   -1260.6655   -53668.661   -58621.338   -54006.633 
  706670    1948.0296   -211.51035   -53725.134   -58673.306   -53781.609 
Loop time of 1821.34 on 6 procs for 66172 steps with 19652 atoms

Performance: 3.139 ns/day, 7.646 hours/ns, 36.331 timesteps/s
99.8% CPU use with 6 MPI tasks x no OpenMP threads

MPI task timing breakdown:
Section |  min time  |  avg time  |  max time  |%varavg| %total
---------------------------------------------------------------
Pair    | 972.95     | 980.8      | 987.2      |  16.5 | 53.85
Neigh   | 642.95     | 651.48     | 656.54     |  19.0 | 35.77
Comm    | 156.41     | 165.37     | 181.73     |  70.4 |  9.08
Output  | 0.017429   | 0.017451   | 0.017547   |   0.0 |  0.00
Modify  | 18.897     | 18.975     | 19.101     |   1.5 |  1.04
Other   |            | 4.709      |            |       |  0.26

Nlocal:    3275.33 ave 3300 max 3251 min
Histogram: 2 0 0 0 1 1 0 0 0 2
Nghost:    6490.17 ave 6545 max 6432 min
Histogram: 1 0 0 2 1 0 0 0 1 1
Neighs:    192490 ave 195439 max 189305 min
Histogram: 2 0 0 0 0 0 2 1 0 1

Total # of neighbors = 1154941
Ave neighs/atom = 58.7696
Neighbor list builds = 66172
Dangerous builds not checked
Setting up Verlet run ...
  Unit style    : metal
  Current step  : 706670
  Time step     : 0.001
Per MPI rank memory allocation (min/avg/max) = 5.575 | 5.863 | 6.008 Mbytes
Step Temp Press TotEng PotEng Enthalpy 
  706670    1948.0296   -211.51035   -53725.134   -58673.306   -53781.609 
  707165    1915.8166    245.54947   -53941.676   -58808.025    -53876.52 
Loop time of 12.7554 on 6 procs for 495 steps with 19652 atoms

Performance: 3.353 ns/day, 7.158 hours/ns, 38.807 timesteps/s
99.9% CPU use with 6 MPI tasks x no OpenMP threads

MPI task timing breakdown:
Section |  min time  |  avg time  |  max time  |%varavg| %total
---------------------------------------------------------------
Pair    | 6.768      | 6.8339     | 6.8915     |   1.9 | 53.58
Neigh   | 4.4918     | 4.5909     | 4.6611     |   2.6 | 35.99
Comm    | 1.0656     | 1.1573     | 1.2264     |   6.0 |  9.07
Output  | 5.3167e-05 | 6.6876e-05 | 0.00011802 |   0.0 |  0.00
Modify  | 0.137      | 0.13835    | 0.13913    |   0.2 |  1.08
Other   |            | 0.03487    |            |       |  0.27

Nlocal:    3275.33 ave 3292 max 3265 min
Histogram: 1 0 2 1 1 0 0 0 0 1
Nghost:    6510.67 ave 6535 max 6479 min
Histogram: 1 0 0 1 0 0 2 1 0 1
Neighs:    193682 ave 196686 max 190340 min
Histogram: 1 0 1 0 0 1 2 0 0 1

Total # of neighbors = 1162092
Ave neighs/atom = 59.1335
Neighbor list builds = 495
Dangerous builds not checked
Setting up Verlet run ...
  Unit style    : metal
  Current step  : 707165
  Time step     : 0.001
Per MPI rank memory allocation (min/avg/max) = 5.575 | 5.863 | 6.008 Mbytes
Step Temp Press TotEng PotEng Enthalpy 
  707165    1915.8166    245.54947   -53941.676   -58808.025    -53876.52 
  733337    1889.9869   -446.63731   -54009.274   -58810.013   -54127.839 
  773337    1893.6968   -973.70881   -54005.811   -58815.973   -54264.525 
Loop time of 1716.12 on 6 procs for 66172 steps with 19652 atoms

Performance: 3.332 ns/day, 7.204 hours/ns, 38.559 timesteps/s
99.7% CPU use with 6 MPI tasks x no OpenMP threads

MPI task timing breakdown:
Section |  min time  |  avg time  |  max time  |%varavg| %total
---------------------------------------------------------------
Pair    | 912.41     | 918.21     | 924.41     |  14.8 | 53.51
Neigh   | 614.28     | 625.11     | 629.83     |  21.0 | 36.43
Comm    | 139.44     | 150.03     | 166.69     |  75.7 |  8.74
Output  | 0.014335   | 0.014358   | 0.014442   |   0.0 |  0.00
Modify  | 18.132     | 18.204     | 18.333     |   1.6 |  1.06
Other   |            | 4.544      |            |       |  0.26

Nlocal:    3275.33 ave 3298 max 3235 min
Histogram: 1 0 0 1 0 0 0 1 2 1
Nghost:    6514.83 ave 6545 max 6485 min
Histogram: 1 0 0 1 1 1 1 0 0 1
Neighs:    193450 ave 198144 max 191142 min
Histogram: 3 0 1 0 0 1 0 0 0 1

Total # of neighbors = 1160697
Ave neighs/atom = 59.0625
Neighbor list builds = 66172
Dangerous builds not checked
Setting up Verlet run ...
  Unit style    : metal
  Current step  : 773337
  Time step     : 0.001
Per MPI rank memory allocation (min/avg/max) = 5.575 | 5.863 | 6.008 Mbytes
Step Temp Press TotEng PotEng Enthalpy 
  773337    1893.6968   -973.70881   -54005.811   -58815.973   -54264.525 
  773832    1850.7234    -146.6019   -54240.953   -58941.959    -54279.64 
Loop time of 8.90665 on 6 procs for 495 steps with 19652 atoms

Performance: 4.802 ns/day, 4.998 hours/ns, 55.576 timesteps/s
99.9% CPU use with 6 MPI tasks x no OpenMP threads

MPI task timing breakdown:
Section |  min time  |  avg time  |  max time  |%varavg| %total
---------------------------------------------------------------
Pair    | 4.4835     | 4.5197     | 4.5466     |   1.1 | 50.75
Neigh   | 3.8026     | 3.8777     | 4.0006     |   3.2 | 43.54
Comm    | 0.25783    | 0.38285    | 0.49461    |  11.9 |  4.30
Output  | 6.1035e-05 | 7.1963e-05 | 0.00011992 |   0.0 |  0.00
Modify  | 0.095921   | 0.097104   | 0.098545   |   0.3 |  1.09
Other   |            | 0.02924    |            |       |  0.33

Nlocal:    3275.33 ave 3295 max 3252 min
Histogram: 1 0 0 1 1 0 0 2 0 1
Nghost:    6551.33 ave 6605 max 6475 min
Histogram: 1 0 0 0 1 0 2 1 0 1
Neighs:    194860 ave 199715 max 192205 min
Histogram: 1 1 0 3 0 0 0 0 0 1

Total # of neighbors = 1169158
Ave neighs/atom = 59.4931
Neighbor list builds = 495
Dangerous builds not checked
Setting up Verlet run ...
  Unit style    : metal
  Current step  : 773832
  Time step     : 0.001
Per MPI rank memory allocation (min/avg/max) = 5.575 | 5.863 | 6.008 Mbytes
Step Temp Press TotEng PotEng Enthalpy 
  773832    1850.7234    -146.6019   -54240.953   -58941.959    -54279.64 
  800004    1861.7941   -214.99083   -54263.847   -58992.974   -54320.572 
  840004    1857.4919    300.17239   -54299.918   -59018.117   -54220.924 
Loop time of 1465.55 on 6 procs for 66172 steps with 19652 atoms

Performance: 3.901 ns/day, 6.152 hours/ns, 45.152 timesteps/s
99.0% CPU use with 6 MPI tasks x no OpenMP threads

MPI task timing breakdown:
Section |  min time  |  avg time  |  max time  |%varavg| %total
---------------------------------------------------------------
Pair    | 763.74     | 764.93     | 765.92     |   3.2 | 52.19
Neigh   | 548.62     | 556.31     | 563.25     |  21.4 | 37.96
Comm    | 115.66     | 123.83     | 132.58     |  51.6 |  8.45
Output  | 0.026707   | 0.026733   | 0.026798   |   0.0 |  0.00
Modify  | 16.179     | 16.356     | 16.542     |   3.6 |  1.12
Other   |            | 4.104      |            |       |  0.28

Nlocal:    3275.33 ave 3305 max 3241 min
Histogram: 1 0 0 1 0 1 2 0 0 1
Nghost:    6543 ave 6566 max 6517 min
Histogram: 1 0 1 1 0 1 0 0 0 2
Neighs:    195389 ave 199704 max 190359 min
Histogram: 1 1 0 0 1 0 1 0 0 2

Total # of neighbors = 1172334
Ave neighs/atom = 59.6547
Neighbor list builds = 66172
Dangerous builds not checked
Setting up Verlet run ...
  Unit style    : metal
  Current step  : 840004
  Time step     : 0.001
Per MPI rank memory allocation (min/avg/max) = 5.575 | 5.863 | 6.008 Mbytes
Step Temp Press TotEng PotEng Enthalpy 
  840004    1857.4919    300.17239   -54299.918   -59018.117   -54220.924 
  840499     1817.547    343.36928   -54498.191   -59114.925   -54408.193 
Loop time of 10.3598 on 6 procs for 495 steps with 19652 atoms

Performance: 4.128 ns/day, 5.814 hours/ns, 47.781 timesteps/s
99.9% CPU use with 6 MPI tasks x no OpenMP threads

MPI task timing breakdown:
Section |  min time  |  avg time  |  max time  |%varavg| %total
---------------------------------------------------------------
Pair    | 5.3093     | 5.3827     | 5.436      |   1.7 | 51.96
Neigh   | 3.7662     | 4.0121     | 4.3411     |  10.1 | 38.73
Comm    | 0.56363    | 0.8277     | 1.0557     |  21.3 |  7.99
Output  | 6.6042e-05 | 8.7857e-05 | 0.00012708 |   0.0 |  0.00
Modify  | 0.10563    | 0.10906    | 0.11483    |   1.0 |  1.05
Other   |            | 0.02817    |            |       |  0.27

Nlocal:    3275.33 ave 3286 max 3262 min
Histogram: 1 0 0 1 1 0 1 0 1 1
Nghost:    6538.17 ave 6557 max 6503 min
Histogram: 1 0 0 0 1 0 0 1 2 1
Neighs:    196174 ave 199060 max 192569 min
Histogram: 1 0 0 0 2 1 0 0 1 1

Total # of neighbors = 1177041
Ave neighs/atom = 59.8942
Neighbor list builds = 495
Dangerous builds not checked
Setting up Verlet run ...
  Unit style    : metal
  Current step  : 840499
  Time step     : 0.001
Per MPI rank memory allocation (min/avg/max) = 5.575 | 5.863 | 6.008 Mbytes
Step Temp Press TotEng PotEng Enthalpy 
  840499     1817.547    343.36928   -54498.191   -59114.925   -54408.193 
  866671    1792.4867   -613.18098   -54593.783   -59146.863   -54754.474 
  906671    1792.1072   -117.90452   -54565.341   -59117.457   -54596.227 
Loop time of 1372.01 on 6 procs for 66172 steps with 19652 atoms

Performance: 4.167 ns/day, 5.759 hours/ns, 48.230 timesteps/s
99.9% CPU use with 6 MPI tasks x no OpenMP threads

MPI task timing breakdown:
Section |  min time  |  avg time  |  max time  |%varavg| %total
---------------------------------------------------------------
Pair    | 705.79     | 711.49     | 714.56     |  10.9 | 51.86
Neigh   | 534.65     | 545.13     | 561.41     |  41.9 | 39.73
Comm    | 80.703     | 97.539     | 107.6      | 100.5 |  7.11
Output  | 0.010124   | 0.010141   | 0.010223   |   0.0 |  0.00
Modify  | 13.891     | 14.006     | 14.113     |   1.9 |  1.02
Other   |            | 3.833      |            |       |  0.28

Nlocal:    3275.33 ave 3281 max 3262 min
Histogram: 1 0 0 0 0 1 0 1 1 2
Nghost:    6560 ave 6584 max 6536 min
Histogram: 2 0 0 0 1 0 1 0 1 1
Neighs:    196282 ave 198495 max 193391 min
Histogram: 1 0 1 0 0 1 1 0 0 2

Total # of neighbors = 1177695
Ave neighs/atom = 59.9275
Neighbor list builds = 66172
Dangerous builds not checked
Setting up Verlet run ...
  Unit style    : metal
  Current step  : 906671
  Time step     : 0.001
Per MPI rank memory allocation (min/avg/max) = 5.575 | 5.863 | 6.008 Mbytes
Step Temp Press TotEng PotEng Enthalpy 
  906671    1792.1072   -117.90452   -54565.341   -59117.457   -54596.227 
  907166    1761.1127   -124.87369   -54787.928   -59261.315   -54820.467 
Loop time of 8.40814 on 6 procs for 495 steps with 19652 atoms

Performance: 5.086 ns/day, 4.718 hours/ns, 58.871 timesteps/s
100.0% CPU use with 6 MPI tasks x no OpenMP threads

MPI task timing breakdown:
Section |  min time  |  avg time  |  max time  |%varavg| %total
---------------------------------------------------------------
Pair    | 4.1954     | 4.252      | 4.2868     |   1.4 | 50.57
Neigh   | 3.7622     | 3.7879     | 3.8102     |   0.9 | 45.05
Comm    | 0.19577    | 0.24438    | 0.3219     |   7.9 |  2.91
Output  | 4.9114e-05 | 5.877e-05  | 9.9182e-05 |   0.0 |  0.00
Modify  | 0.093523   | 0.094033   | 0.09481    |   0.1 |  1.12
Other   |            | 0.02983    |            |       |  0.35

Nlocal:    3275.33 ave 3301 max 3251 min
Histogram: 1 0 2 0 0 0 1 0 1 1
Nghost:    6548.33 ave 6575 max 6507 min
Histogram: 1 0 0 0 0 1 1 1 1 1
Neighs:    197324 ave 200046 max 192909 min
Histogram: 1 0 1 0 0 0 0 2 0 2

Total # of neighbors = 1183945
Ave neighs/atom = 60.2455
Neighbor list builds = 495
Dangerous builds not checked
Setting up Verlet run ...
  Unit style    : metal
  Current step  : 907166
  Time step     : 0.001
Per MPI rank memory allocation (min/avg/max) = 5.575 | 5.863 | 6.008 Mbytes
Step Temp Press TotEng PotEng Enthalpy 
  907166    1761.1127   -124.87369   -54787.928   -59261.315   -54820.467 
  933338    1754.0505    77.071776    -54778.06   -59233.508   -54757.955 
  973338    1746.9473   -513.68593   -54866.077   -59303.482   -54999.857 
Loop time of 1318.97 on 6 procs for 66172 steps with 19652 atoms

Performance: 4.335 ns/day, 5.537 hours/ns, 50.169 timesteps/s
99.8% CPU use with 6 MPI tasks x no OpenMP threads

MPI task timing breakdown:
Section |  min time  |  avg time  |  max time  |%varavg| %total
---------------------------------------------------------------
Pair    | 674.11     | 679.11     | 682.09     |   9.7 | 51.49
Neigh   | 533.61     | 539.44     | 544.96     |  17.2 | 40.90
Comm    | 75.601     | 82.741     | 91.474     |  57.7 |  6.27
Output  | 0.014951   | 0.014975   | 0.015052   |   0.0 |  0.00
Modify  | 13.822     | 13.916     | 13.986     |   1.6 |  1.06
Other   |            | 3.752      |            |       |  0.28

Nlocal:    3275.33 ave 3310 max 3242 min
Histogram: 1 1 0 0 2 0 0 0 1 1
Nghost:    6562.17 ave 6596 max 6519 min
Histogram: 1 0 0 0 2 0 1 1 0 1
Neighs:    197458 ave 201222 max 194041 min
Histogram: 1 1 1 0 0 1 0 0 0 2

Total # of neighbors = 1184749
Ave neighs/atom = 60.2864
Neighbor list builds = 66172
Dangerous builds not checked
Setting up Verlet run ...
  Unit style    : metal
  Current step  : 973338
  Time step     : 0.001
Per MPI rank memory allocation (min/avg/max) = 5.575 | 5.863 | 6.008 Mbytes
Step Temp Press TotEng PotEng Enthalpy 
  973338    1746.9473   -513.68593   -54866.077   -59303.482   -54999.857 
  973833    1709.1895    379.02975   -55075.688   -59417.185   -54977.619 
Loop time of 9.62861 on 6 procs for 495 steps with 19652 atoms

Performance: 4.442 ns/day, 5.403 hours/ns, 51.409 timesteps/s
99.9% CPU use with 6 MPI tasks x no OpenMP threads

MPI task timing breakdown:
Section |  min time  |  avg time  |  max time  |%varavg| %total
---------------------------------------------------------------
Pair    | 4.9122     | 4.9445     | 4.9616     |   0.7 | 51.35
Neigh   | 3.7889     | 3.9083     | 4.0987     |   6.7 | 40.59
Comm    | 0.44181    | 0.654      | 0.80572    |  18.0 |  6.79
Output  | 5.4836e-05 | 6.4413e-05 | 0.00010681 |   0.0 |  0.00
Modify  | 0.098683   | 0.099512   | 0.10109    |   0.2 |  1.03
Other   |            | 0.02225    |            |       |  0.23

Nlocal:    3275.33 ave 3288 max 3264 min
Histogram: 1 0 1 1 1 0 0 1 0 1
Nghost:    6580.83 ave 6630 max 6543 min
Histogram: 2 0 1 0 1 0 0 0 0 2
Neighs:    198842 ave 201687 max 195858 min
Histogram: 1 1 0 1 0 0 0 1 1 1

Total # of neighbors = 1193053
Ave neighs/atom = 60.709
Neighbor list builds = 495
Dangerous builds not checked
Setting up Verlet run ...
  Unit style    : metal
  Current step  : 973833
  Time step     : 0.001
Per MPI rank memory allocation (min/avg/max) = 5.575 | 5.863 | 6.008 Mbytes
Step Temp Press TotEng PotEng Enthalpy 
  973833    1709.1895    379.02975   -55075.688   -59417.185   -54977.619 
 1000005    1715.0656   -69.534618   -55169.586   -59526.009   -55187.521 
 1040005    1706.3397   -396.79298   -55116.641     -59450.9   -55219.343 
Loop time of 1460.78 on 6 procs for 66172 steps with 19652 atoms

Performance: 3.914 ns/day, 6.132 hours/ns, 45.299 timesteps/s
99.2% CPU use with 6 MPI tasks x no OpenMP threads

MPI task timing breakdown:
Section |  min time  |  avg time  |  max time  |%varavg| %total
---------------------------------------------------------------
Pair    | 756.8      | 759.69     | 761.91     |   6.9 | 52.01
Neigh   | 544.26     | 551.15     | 557.94     |  18.2 | 37.73
Comm    | 119.91     | 128.56     | 134.89     |  40.2 |  8.80
Output  | 0.010371   | 0.010391   | 0.010451   |   0.0 |  0.00
Modify  | 17.141     | 17.482     | 17.77      |   6.0 |  1.20
Other   |            | 3.884      |            |       |  0.27

Nlocal:    3275.33 ave 3283 max 3257 min
Histogram: 1 0 0 0 0 1 0 0 1 3
Nghost:    6590.5 ave 6631 max 6559 min
Histogram: 1 2 0 0 0 0 1 1 0 1
Neighs:    198616 ave 201697 max 195353 min
Histogram: 1 0 0 1 2 0 0 0 1 1

Total # of neighbors = 1191696
Ave neighs/atom = 60.6399
Neighbor list builds = 66172
Dangerous builds not checked
Setting up Verlet run ...
  Unit style    : metal
  Current step  : 1040005
  Time step     : 0.001
Per MPI rank memory allocation (min/avg/max) = 5.575 | 5.863 | 6.008 Mbytes
Step Temp Press TotEng PotEng Enthalpy 
 1040005    1706.3397   -396.79298   -55116.641     -59450.9   -55219.343 
 1040500    1659.7843    387.64262   -55339.729   -59555.732   -55239.984 
Loop time of 12.5932 on 6 procs for 495 steps with 19652 atoms

Performance: 3.396 ns/day, 7.067 hours/ns, 39.307 timesteps/s
97.8% CPU use with 6 MPI tasks x no OpenMP threads

MPI task timing breakdown:
Section |  min time  |  avg time  |  max time  |%varavg| %total
---------------------------------------------------------------
Pair    | 6.9433     | 7.0043     | 7.0414     |   1.2 | 55.62
Neigh   | 4.0359     | 4.1626     | 4.4839     |   7.5 | 33.05
Comm    | 1.0004     | 1.2689     | 1.3647     |  11.4 | 10.08
Output  | 4.2915e-05 | 5.2651e-05 | 9.7036e-05 |   0.0 |  0.00
Modify  | 0.12264    | 0.1248     | 0.1297     |   0.7 |  0.99
Other   |            | 0.0325     |            |       |  0.26

Nlocal:    3275.33 ave 3285 max 3259 min
Histogram: 1 0 0 0 0 1 2 0 0 2
Nghost:    6623.5 ave 6637 max 6598 min
Histogram: 1 0 0 0 1 0 0 1 2 1
Neighs:    199908 ave 202597 max 197118 min
Histogram: 1 0 1 1 0 1 0 1 0 1

Total # of neighbors = 1199447
Ave neighs/atom = 61.0343
Neighbor list builds = 495
Dangerous builds not checked
Setting up Verlet run ...
  Unit style    : metal
  Current step  : 1040500
  Time step     : 0.001
Per MPI rank memory allocation (min/avg/max) = 5.575 | 5.863 | 6.008 Mbytes
Step Temp Press TotEng PotEng Enthalpy 
 1040500    1659.7843    387.64262   -55339.729   -59555.732   -55239.984 
 1066672    1639.6342    151.66792   -55473.227   -59638.048   -55434.295 
 1106672    1650.1452   -256.73029   -55447.687   -59639.206   -55513.635 
Loop time of 1365.8 on 6 procs for 66172 steps with 19652 atoms

Performance: 4.186 ns/day, 5.733 hours/ns, 48.449 timesteps/s
99.9% CPU use with 6 MPI tasks x no OpenMP threads

MPI task timing breakdown:
Section |  min time  |  avg time  |  max time  |%varavg| %total
---------------------------------------------------------------
Pair    | 706.83     | 709.74     | 714.42     |   9.6 | 51.97
Neigh   | 539.51     | 543.01     | 547.32     |  11.5 | 39.76
Comm    | 86.159     | 95.227     | 101.05     |  50.5 |  6.97
Output  | 0.014553   | 0.01458    | 0.014664   |   0.0 |  0.00
Modify  | 13.872     | 13.977     | 14.058     |   1.5 |  1.02
Other   |            | 3.828      |            |       |  0.28

Nlocal:    3275.33 ave 3296 max 3250 min
Histogram: 1 0 0 0 2 1 0 0 1 1
Nghost:    6600.17 ave 6623 max 6575 min
Histogram: 2 0 0 1 0 0 0 1 0 2
Neighs:    200330 ave 203670 max 194590 min
Histogram: 1 0 0 0 0 1 1 0 2 1

Total # of neighbors = 1201983
Ave neighs/atom = 61.1634
Neighbor list builds = 66172
Dangerous builds not checked
Setting up Verlet run ...
  Unit style    : metal
  Current step  : 1106672
  Time step     : 0.001
Per MPI rank memory allocation (min/avg/max) = 5.575 | 5.863 | 6.008 Mbytes
Step Temp Press TotEng PotEng Enthalpy 
 1106672    1650.1452   -256.73029   -55447.687   -59639.206   -55513.635 
 1107167    1611.6656    445.22616   -55646.154   -59739.931   -55532.447 
Loop time of 12.1262 on 6 procs for 495 steps with 19652 atoms

Performance: 3.527 ns/day, 6.805 hours/ns, 40.821 timesteps/s
100.0% CPU use with 6 MPI tasks x no OpenMP threads

MPI task timing breakdown:
Section |  min time  |  avg time  |  max time  |%varavg| %total
---------------------------------------------------------------
Pair    | 6.4264     | 6.4766     | 6.5721     |   1.8 | 53.41
Neigh   | 3.7607     | 4.0543     | 5.0478     |  22.6 | 33.43
Comm    | 0.32865    | 1.4418     | 1.7897     |  42.4 | 11.89
Output  | 6.3896e-05 | 7.7566e-05 | 0.00012708 |   0.0 |  0.00
Modify  | 0.11436    | 0.12357    | 0.13653    |   1.9 |  1.02
Other   |            | 0.02981    |            |       |  0.25

Nlocal:    3275.33 ave 3288 max 3267 min
Histogram: 2 0 1 1 0 0 0 1 0 1
Nghost:    6636.17 ave 6649 max 6626 min
Histogram: 1 0 1 1 1 0 1 0 0 1
Neighs:    201466 ave 205088 max 197083 min
Histogram: 1 0 0 1 1 1 0 0 1 1

Total # of neighbors = 1208797
Ave neighs/atom = 61.5101
Neighbor list builds = 495
Dangerous builds not checked
Setting up Verlet run ...
  Unit style    : metal
  Current step  : 1107167
  Time step     : 0.001
Per MPI rank memory allocation (min/avg/max) = 5.575 | 5.863 | 6.008 Mbytes
Step Temp Press TotEng PotEng Enthalpy 
 1107167    1611.6656    445.22616   -55646.154   -59739.931   -55532.447 
 1133339    1605.7398      90.2241   -55672.713   -59751.439   -55649.676 
 1173339    1593.1236   -496.11693   -55693.817   -59740.496   -55820.713 
Loop time of 1446.03 on 6 procs for 66172 steps with 19652 atoms

Performance: 3.954 ns/day, 6.070 hours/ns, 45.761 timesteps/s
99.8% CPU use with 6 MPI tasks x no OpenMP threads

MPI task timing breakdown:
Section |  min time  |  avg time  |  max time  |%varavg| %total
---------------------------------------------------------------
Pair    | 754.96     | 760.66     | 766.08     |  11.8 | 52.60
Neigh   | 551.04     | 557.6      | 564.82     |  18.1 | 38.56
Comm    | 102.57     | 108.72     | 116.44     |  51.6 |  7.52
Output  | 0.01045    | 0.010467   | 0.010542   |   0.0 |  0.00
Modify  | 14.937     | 15.069     | 15.224     |   2.4 |  1.04
Other   |            | 3.975      |            |       |  0.27

Nlocal:    3275.33 ave 3298 max 3252 min
Histogram: 2 0 0 0 1 1 0 0 0 2
Nghost:    6629 ave 6655 max 6600 min
Histogram: 1 0 1 0 1 0 1 0 1 1
Neighs:    201087 ave 206240 max 197206 min
Histogram: 2 0 0 2 0 0 0 1 0 1

Total # of neighbors = 1206520
Ave neighs/atom = 61.3943
Neighbor list builds = 66172
Dangerous builds not checked
Setting up Verlet run ...
  Unit style    : metal
  Current step  : 1173339
  Time step     : 0.001
Per MPI rank memory allocation (min/avg/max) = 5.575 | 5.863 | 6.008 Mbytes
Step Temp Press TotEng PotEng Enthalpy 
 1173339    1593.1236   -496.11693   -55693.817   -59740.496   -55820.713 
 1173834    1563.8198    43.396359   -55924.669   -59896.914   -55913.644 
Loop time of 10.7164 on 6 procs for 495 steps with 19652 atoms

Performance: 3.991 ns/day, 6.014 hours/ns, 46.191 timesteps/s
99.8% CPU use with 6 MPI tasks x no OpenMP threads

MPI task timing breakdown:
Section |  min time  |  avg time  |  max time  |%varavg| %total
---------------------------------------------------------------
Pair    | 5.4256     | 5.5284     | 5.5627     |   2.0 | 51.59
Neigh   | 3.9755     | 4.0769     | 4.1373     |   2.7 | 38.04
Comm    | 0.87574    | 0.96468    | 1.0594     |   6.8 |  9.00
Output  | 5.4121e-05 | 6.8108e-05 | 0.00011086 |   0.0 |  0.00
Modify  | 0.11486    | 0.1163     | 0.11831    |   0.4 |  1.09
Other   |            | 0.03006    |            |       |  0.28

Nlocal:    3275.33 ave 3288 max 3265 min
Histogram: 1 2 0 0 1 0 0 0 0 2
Nghost:    6648.5 ave 6660 max 6629 min
Histogram: 1 0 0 1 1 0 0 0 0 3
Neighs:    202604 ave 207004 max 199522 min
Histogram: 2 0 0 1 1 1 0 0 0 1

Total # of neighbors = 1215624
Ave neighs/atom = 61.8575
Neighbor list builds = 495
Dangerous builds not checked
Setting up Verlet run ...
  Unit style    : metal
  Current step  : 1173834
  Time step     : 0.001
Per MPI rank memory allocation (min/avg/max) = 5.575 | 5.863 | 6.008 Mbytes
Step Temp Press TotEng PotEng Enthalpy 
 1173834    1563.8198    43.396359   -55924.669   -59896.914   -55913.644 
 1200006    1534.1834    479.62272   -56042.139   -59939.105   -55920.607 
 1240006    1554.8614    376.93096   -56009.531   -59959.021   -55914.026 
Loop time of 1621.44 on 6 procs for 66172 steps with 19652 atoms

Performance: 3.526 ns/day, 6.807 hours/ns, 40.811 timesteps/s
99.9% CPU use with 6 MPI tasks x no OpenMP threads

MPI task timing breakdown:
Section |  min time  |  avg time  |  max time  |%varavg| %total
---------------------------------------------------------------
Pair    | 860.77     | 865.94     | 871.21     |  10.8 | 53.41
Neigh   | 581.49     | 587.92     | 594.83     |  16.9 | 36.26
Comm    | 139.21     | 146.28     | 157.87     |  53.0 |  9.02
Output  | 0.014448   | 0.014472   | 0.014559   |   0.0 |  0.00
Modify  | 16.933     | 16.999     | 17.091     |   1.2 |  1.05
Other   |            | 4.291      |            |       |  0.26

Nlocal:    3275.33 ave 3296 max 3247 min
Histogram: 1 0 1 0 0 1 0 1 0 2
Nghost:    6660.83 ave 6720 max 6605 min
Histogram: 1 0 1 1 1 0 0 0 1 1
Neighs:    203138 ave 206823 max 197574 min
Histogram: 1 0 1 0 0 0 1 1 0 2

Total # of neighbors = 1218831
Ave neighs/atom = 62.0207
Neighbor list builds = 66172
Dangerous builds not checked
Setting up Verlet run ...
  Unit style    : metal
  Current step  : 1240006
  Time step     : 0.001
Per MPI rank memory allocation (min/avg/max) = 5.575 | 5.863 | 6.008 Mbytes
Step Temp Press TotEng PotEng Enthalpy 
 1240006    1554.8614    376.93096   -56009.531   -59959.021   -55914.026 
 1240501    1518.6822   -343.16592   -56201.358   -60058.949   -56287.991 
Loop time of 11.6267 on 6 procs for 495 steps with 19652 atoms

Performance: 3.678 ns/day, 6.524 hours/ns, 42.575 timesteps/s
99.7% CPU use with 6 MPI tasks x no OpenMP threads

MPI task timing breakdown:
Section |  min time  |  avg time  |  max time  |%varavg| %total
---------------------------------------------------------------
Pair    | 6.0428     | 6.1647     | 6.3        |   4.5 | 53.02
Neigh   | 4.0978     | 4.2204     | 4.2825     |   3.2 | 36.30
Comm    | 0.92369    | 1.0849     | 1.2413     |   9.9 |  9.33
Output  | 5.6028e-05 | 7.0175e-05 | 0.00011706 |   0.0 |  0.00
Modify  | 0.12349    | 0.12458    | 0.1255     |   0.2 |  1.07
Other   |            | 0.03203    |            |       |  0.28

Nlocal:    3275.33 ave 3289 max 3251 min
Histogram: 1 0 0 0 1 0 1 1 0 2
Nghost:    6650.67 ave 6664 max 6626 min
Histogram: 1 0 0 0 1 0 1 0 1 2
Neighs:    203817 ave 206608 max 201593 min
Histogram: 1 0 2 0 1 0 1 0 0 1

Total # of neighbors = 1222901
Ave neighs/atom = 62.2278
Neighbor list builds = 495
Dangerous builds not checked
Setting up Verlet run ...
  Unit style    : metal
  Current step  : 1240501
  Time step     : 0.001
Per MPI rank memory allocation (min/avg/max) = 5.575 | 5.863 | 6.008 Mbytes
Step Temp Press TotEng PotEng Enthalpy 
 1240501    1518.6822   -343.16592   -56201.358   -60058.949   -56287.991 
 1266673    1491.7526   -204.53253   -56310.905   -60100.092   -56362.466 
 1306673    1502.1075     629.0085   -56297.908   -60113.398   -56139.696 
Loop time of 1732.82 on 6 procs for 66172 steps with 19652 atoms

Performance: 3.299 ns/day, 7.274 hours/ns, 38.187 timesteps/s
99.2% CPU use with 6 MPI tasks x no OpenMP threads

MPI task timing breakdown:
Section |  min time  |  avg time  |  max time  |%varavg| %total
---------------------------------------------------------------
Pair    | 928.61     | 933.63     | 937.47     |   8.7 | 53.88
Neigh   | 604.26     | 608.35     | 615.67     |  15.9 | 35.11
Comm    | 157.4      | 164.15     | 173.04     |  38.0 |  9.47
Output  | 0.016636   | 0.01666    | 0.01677    |   0.0 |  0.00
Modify  | 21.598     | 22.225     | 22.668     |   9.4 |  1.28
Other   |            | 4.447      |            |       |  0.26

Nlocal:    3275.33 ave 3300 max 3247 min
Histogram: 1 0 0 1 0 1 1 1 0 1
Nghost:    6667.67 ave 6706 max 6653 min
Histogram: 2 2 0 1 0 0 0 0 0 1
Neighs:    204654 ave 209401 max 200547 min
Histogram: 2 1 0 0 0 0 0 2 0 1

Total # of neighbors = 1227925
Ave neighs/atom = 62.4835
Neighbor list builds = 66172
Dangerous builds not checked
Setting up Verlet run ...
  Unit style    : metal
  Current step  : 1306673
  Time step     : 0.001
Per MPI rank memory allocation (min/avg/max) = 5.575 | 5.863 | 6.008 Mbytes
Step Temp Press TotEng PotEng Enthalpy 
 1306673    1502.1075     629.0085   -56297.908   -60113.398   -56139.696 
 1307168    1464.7822    357.67043   -56466.848   -60187.528   -56377.099 
Loop time of 11.5078 on 6 procs for 495 steps with 19652 atoms

Performance: 3.716 ns/day, 6.458 hours/ns, 43.014 timesteps/s
99.3% CPU use with 6 MPI tasks x no OpenMP threads

MPI task timing breakdown:
Section |  min time  |  avg time  |  max time  |%varavg| %total
---------------------------------------------------------------
Pair    | 6.1021     | 6.181      | 6.2122     |   1.6 | 53.71
Neigh   | 4.0404     | 4.1463     | 4.2291     |   3.6 | 36.03
Comm    | 0.911      | 1.025      | 1.1218     |   7.6 |  8.91
Output  | 6.4135e-05 | 8.1221e-05 | 0.0001421  |   0.0 |  0.00
Modify  | 0.12221    | 0.12406    | 0.12576    |   0.4 |  1.08
Other   |            | 0.03131    |            |       |  0.27

Nlocal:    3275.33 ave 3294 max 3254 min
Histogram: 1 0 0 2 0 0 1 0 0 2
Nghost:    6673.83 ave 6685 max 6652 min
Histogram: 1 0 1 0 0 0 0 0 2 2
Neighs:    205105 ave 208825 max 202766 min
Histogram: 3 0 0 1 0 0 0 0 1 1

Total # of neighbors = 1230628
Ave neighs/atom = 62.621
Neighbor list builds = 495
Dangerous builds not checked
Setting up Verlet run ...
  Unit style    : metal
  Current step  : 1307168
  Time step     : 0.001
Per MPI rank memory allocation (min/avg/max) = 5.575 | 5.863 | 6.008 Mbytes
Step Temp Press TotEng PotEng Enthalpy 
 1307168    1464.7822    357.67043   -56466.848   -60187.528   -56377.099 
 1333340    1454.3887    581.26811   -56574.848   -60269.127   -56429.498 
 1373340    1448.0151   -115.96273   -56573.363   -60251.453   -56602.403 
Loop time of 1550.84 on 6 procs for 66172 steps with 19652 atoms

Performance: 3.687 ns/day, 6.510 hours/ns, 42.669 timesteps/s
99.9% CPU use with 6 MPI tasks x no OpenMP threads

MPI task timing breakdown:
Section |  min time  |  avg time  |  max time  |%varavg| %total
---------------------------------------------------------------
Pair    | 815.91     | 819.71     | 823.95     |   9.5 | 52.86
Neigh   | 565.99     | 571.76     | 578.54     |  16.8 | 36.87
Comm    | 129.45     | 138.01     | 147.62     |  54.2 |  8.90
Output  | 0.011902   | 0.01192    | 0.011996   |   0.0 |  0.00
Modify  | 17.164     | 17.184     | 17.217     |   0.5 |  1.11
Other   |            | 4.161      |            |       |  0.27

Nlocal:    3275.33 ave 3298 max 3259 min
Histogram: 1 1 1 1 0 0 0 1 0 1
Nghost:    6678.67 ave 6717 max 6632 min
Histogram: 1 0 0 1 1 0 1 0 1 1
Neighs:    205542 ave 210197 max 200558 min
Histogram: 1 0 0 1 2 0 0 0 1 1

Total # of neighbors = 1233255
Ave neighs/atom = 62.7547
Neighbor list builds = 66172
Dangerous builds not checked
Setting up Verlet run ...
  Unit style    : metal
  Current step  : 1373340
  Time step     : 0.001
Per MPI rank memory allocation (min/avg/max) = 5.575 | 5.863 | 6.008 Mbytes
Step Temp Press TotEng PotEng Enthalpy 
 1373340    1448.0151   -115.96273   -56573.363   -60251.453   -56602.403 
 1373835    1409.1636   -233.60045   -56791.119   -60370.523   -56849.377 
Loop time of 11.8597 on 6 procs for 495 steps with 19652 atoms

Performance: 3.606 ns/day, 6.655 hours/ns, 41.738 timesteps/s
100.0% CPU use with 6 MPI tasks x no OpenMP threads

MPI task timing breakdown:
Section |  min time  |  avg time  |  max time  |%varavg| %total
---------------------------------------------------------------
Pair    | 6.2708     | 6.3278     | 6.3535     |   1.2 | 53.36
Neigh   | 4.218      | 4.3209     | 4.3919     |   2.7 | 36.43
Comm    | 0.99254    | 1.0512     | 1.1325     |   4.6 |  8.86
Output  | 5.1022e-05 | 6.0876e-05 | 0.000103   |   0.0 |  0.00
Modify  | 0.12666    | 0.12743    | 0.12954    |   0.3 |  1.07
Other   |            | 0.03231    |            |       |  0.27

Nlocal:    3275.33 ave 3290 max 3252 min
Histogram: 1 0 0 0 0 1 1 2 0 1
Nghost:    6723.17 ave 6752 max 6679 min
Histogram: 1 0 0 0 1 0 1 2 0 1
Neighs:    206543 ave 210703 max 202364 min
Histogram: 1 1 0 1 0 1 0 0 1 1

Total # of neighbors = 1239257
Ave neighs/atom = 63.0601
Neighbor list builds = 495
Dangerous builds not checked
Setting up Verlet run ...
  Unit style    : metal
  Current step  : 1373835
  Time step     : 0.001
Per MPI rank memory allocation (min/avg/max) = 5.575 | 5.863 | 6.008 Mbytes
Step Temp Press TotEng PotEng Enthalpy 
 1373835    1409.1636   -233.60045   -56791.119   -60370.523   -56849.377 
 1400007    1410.6802    1427.5533   -56912.863   -60496.119   -56559.625 
 1440007    1401.2369     137.2661   -56884.324   -60443.593   -56850.201 
Loop time of 1542.14 on 6 procs for 66172 steps with 19652 atoms

Performance: 3.707 ns/day, 6.474 hours/ns, 42.909 timesteps/s
99.9% CPU use with 6 MPI tasks x no OpenMP threads

MPI task timing breakdown:
Section |  min time  |  avg time  |  max time  |%varavg| %total
---------------------------------------------------------------
Pair    | 817.21     | 819.45     | 821.88     |   5.4 | 53.14
Neigh   | 572.06     | 577.5      | 584.05     |  17.9 | 37.45
Comm    | 117.04     | 124.7      | 130.3      |  42.8 |  8.09
Output  | 0.010192   | 0.010211   | 0.010292   |   0.0 |  0.00
Modify  | 16.187     | 16.29      | 16.359     |   1.5 |  1.06
Other   |            | 4.197      |            |       |  0.27

Nlocal:    3275.33 ave 3306 max 3257 min
Histogram: 1 1 2 0 0 1 0 0 0 1
Nghost:    6713.67 ave 6728 max 6697 min
Histogram: 1 1 0 1 0 0 1 0 0 2
Neighs:    207175 ave 210818 max 204038 min
Histogram: 1 0 0 2 1 0 1 0 0 1

Total # of neighbors = 1243051
Ave neighs/atom = 63.2532
Neighbor list builds = 66172
Dangerous builds not checked
Setting up Verlet run ...
  Unit style    : metal
  Current step  : 1440007
  Time step     : 0.001
Per MPI rank memory allocation (min/avg/max) = 5.575 | 5.863 | 6.008 Mbytes
Step Temp Press TotEng PotEng Enthalpy 
 1440007    1401.2369     137.2661   -56884.324   -60443.593   -56850.201 
 1440502    1367.9379    338.27279   -57076.871   -60551.558   -56993.163 
Loop time of 12.8554 on 6 procs for 495 steps with 19652 atoms

Performance: 3.327 ns/day, 7.214 hours/ns, 38.505 timesteps/s
99.9% CPU use with 6 MPI tasks x no OpenMP threads

MPI task timing breakdown:
Section |  min time  |  avg time  |  max time  |%varavg| %total
---------------------------------------------------------------
Pair    | 6.8726     | 6.9413     | 6.9916     |   1.5 | 54.00
Neigh   | 4.3255     | 4.4838     | 4.76       |   6.6 | 34.88
Comm    | 1.0025     | 1.2627     | 1.4126     |  11.1 |  9.82
Output  | 5.7936e-05 | 7.1804e-05 | 0.00011921 |   0.0 |  0.00
Modify  | 0.13127    | 0.13423    | 0.13869    |   0.6 |  1.04
Other   |            | 0.0333     |            |       |  0.26

Nlocal:    3275.33 ave 3295 max 3248 min
Histogram: 1 0 0 0 1 0 2 1 0 1
Nghost:    6728.5 ave 6744 max 6714 min
Histogram: 1 0 0 0 2 1 1 0 0 1
Neighs:    208088 ave 213256 max 202985 min
Histogram: 1 0 1 0 1 1 0 1 0 1

Total # of neighbors = 1248530
Ave neighs/atom = 63.532
Neighbor list builds = 495
Dangerous builds not checked
Setting up Verlet run ...
  Unit style    : metal
  Current step  : 1440502
  Time step     : 0.001
Per MPI rank memory allocation (min/avg/max) = 5.575 | 5.863 | 6.008 Mbytes
Step Temp Press TotEng PotEng Enthalpy 
 1440502    1367.9379    338.27279   -57076.871   -60551.558   -56993.163 
 1466674    1344.2073    218.85636   -57217.692   -60632.101   -57163.714 
 1506674    1337.4019    163.11867   -57226.509   -60623.632   -57186.268 
Loop time of 1750.55 on 6 procs for 66172 steps with 19652 atoms

Performance: 3.266 ns/day, 7.348 hours/ns, 37.801 timesteps/s
99.1% CPU use with 6 MPI tasks x no OpenMP threads

MPI task timing breakdown:
Section |  min time  |  avg time  |  max time  |%varavg| %total
---------------------------------------------------------------
Pair    | 934.63     | 939.56     | 942.01     |   9.0 | 53.67
Neigh   | 626.78     | 632.74     | 640.84     |  18.3 | 36.15
Comm    | 140.06     | 149.16     | 160.43     |  53.6 |  8.52
Output  | 0.015683   | 0.015704   | 0.015788   |   0.0 |  0.00
Modify  | 23.51      | 24.469     | 25.811     |  19.5 |  1.40
Other   |            | 4.598      |            |       |  0.26

Nlocal:    3275.33 ave 3292 max 3250 min
Histogram: 1 0 1 0 0 1 0 0 0 3
Nghost:    6722.17 ave 6762 max 6664 min
Histogram: 1 0 0 0 1 0 2 1 0 1
Neighs:    208854 ave 212484 max 203624 min
Histogram: 1 1 0 0 0 1 0 1 0 2

Total # of neighbors = 1253126
Ave neighs/atom = 63.7658
Neighbor list builds = 66172
Dangerous builds not checked
Setting up Verlet run ...
  Unit style    : metal
  Current step  : 1506674
  Time step     : 0.001
Per MPI rank memory allocation (min/avg/max) = 5.575 | 5.863 | 6.008 Mbytes
Step Temp Press TotEng PotEng Enthalpy 
 1506674    1337.4019    163.11867   -57226.509   -60623.632   -57186.268 
 1507169    1316.0758    114.10378   -57392.927    -60735.88   -57364.899 
Loop time of 13.6284 on 6 procs for 495 steps with 19652 atoms

Performance: 3.138 ns/day, 7.648 hours/ns, 36.321 timesteps/s
99.7% CPU use with 6 MPI tasks x no OpenMP threads

MPI task timing breakdown:
Section |  min time  |  avg time  |  max time  |%varavg| %total
---------------------------------------------------------------
Pair    | 7.2358     | 7.3081     | 7.3539     |   1.5 | 53.62
Neigh   | 4.9308     | 5.1278     | 5.3131     |   5.7 | 37.63
Comm    | 0.79879    | 0.99842    | 1.1718     |  12.6 |  7.33
Output  | 5.8174e-05 | 7.1685e-05 | 0.00012493 |   0.0 |  0.00
Modify  | 0.15252    | 0.15546    | 0.15853    |   0.5 |  1.14
Other   |            | 0.03853    |            |       |  0.28

Nlocal:    3275.33 ave 3289 max 3254 min
Histogram: 1 0 0 0 1 0 1 1 1 1
Nghost:    6725.67 ave 6761 max 6699 min
Histogram: 2 0 1 0 0 1 0 1 0 1
Neighs:    209725 ave 214055 max 206453 min
Histogram: 2 1 0 0 0 1 0 1 0 1

Total # of neighbors = 1258348
Ave neighs/atom = 64.0315
Neighbor list builds = 495
Dangerous builds not checked
Setting up Verlet run ...
  Unit style    : metal
  Current step  : 1507169
  Time step     : 0.001
Per MPI rank memory allocation (min/avg/max) = 5.575 | 5.863 | 6.008 Mbytes
Step Temp Press TotEng PotEng Enthalpy 
 1507169    1316.0758    114.10378   -57392.927    -60735.88   -57364.899 
 1533341    1302.1335   -540.84305    -57480.54   -60788.078   -57613.333 
 1573341    1301.5332   -335.65379   -57491.177    -60797.19   -57573.513 
Loop time of 1948.87 on 6 procs for 66172 steps with 19652 atoms

Performance: 2.934 ns/day, 8.181 hours/ns, 33.954 timesteps/s
99.4% CPU use with 6 MPI tasks x no OpenMP threads

MPI task timing breakdown:
Section |  min time  |  avg time  |  max time  |%varavg| %total
---------------------------------------------------------------
Pair    | 1055.7     | 1061.9     | 1068       |  13.3 | 54.49
Neigh   | 714.1      | 721.4      | 730.91     |  20.0 | 37.02
Comm    | 128.24     | 137.66     | 148.72     |  68.5 |  7.06
Output  | 0.01575    | 0.015772   | 0.015867   |   0.0 |  0.00
Modify  | 22.491     | 22.694     | 23.03      |   4.2 |  1.16
Other   |            | 5.162      |            |       |  0.26

Nlocal:    3275.33 ave 3290 max 3250 min
Histogram: 1 0 0 0 1 1 0 0 1 2
Nghost:    6739.17 ave 6758 max 6707 min
Histogram: 1 0 1 0 0 1 0 0 0 3
Neighs:    210071 ave 214935 max 205463 min
Histogram: 1 0 1 0 0 3 0 0 0 1

Total # of neighbors = 1260426
Ave neighs/atom = 64.1373
Neighbor list builds = 66172
Dangerous builds not checked
Setting up Verlet run ...
  Unit style    : metal
  Current step  : 1573341
  Time step     : 0.001
Per MPI rank memory allocation (min/avg/max) = 5.575 | 5.863 | 6.008 Mbytes
Step Temp Press TotEng PotEng Enthalpy 
 1573341    1301.5332   -335.65379   -57491.177    -60797.19   -57573.513 
 1573836    1261.7996    192.30276   -57690.578   -60895.664    -57643.63 
Loop time of 15.5912 on 6 procs for 495 steps with 19652 atoms

Performance: 2.743 ns/day, 8.749 hours/ns, 31.749 timesteps/s
93.1% CPU use with 6 MPI tasks x no OpenMP threads

MPI task timing breakdown:
Section |  min time  |  avg time  |  max time  |%varavg| %total
---------------------------------------------------------------
Pair    | 9.0503     | 9.1006     | 9.1449     |   1.2 | 58.37
Neigh   | 5.0919     | 5.2009     | 5.3379     |   4.8 | 33.36
Comm    | 0.93808    | 1.1013     | 1.2444     |  11.7 |  7.06
Output  | 8.0109e-05 | 9.6242e-05 | 0.00016022 |   0.0 |  0.00
Modify  | 0.14869    | 0.15073    | 0.15279    |   0.5 |  0.97
Other   |            | 0.03755    |            |       |  0.24

Nlocal:    3275.33 ave 3296 max 3255 min
Histogram: 1 0 0 1 1 1 1 0 0 1
Nghost:    6764.83 ave 6810 max 6733 min
Histogram: 1 0 2 1 0 0 1 0 0 1
Neighs:    211117 ave 215126 max 205460 min
Histogram: 1 0 0 0 1 1 1 0 0 2

Total # of neighbors = 1266701
Ave neighs/atom = 64.4566
Neighbor list builds = 495
Dangerous builds not checked
Setting up Verlet run ...
  Unit style    : metal
  Current step  : 1573836
  Time step     : 0.001
Per MPI rank memory allocation (min/avg/max) = 5.575 | 5.863 | 6.008 Mbytes
Step Temp Press TotEng PotEng Enthalpy 
 1573836    1261.7996    192.30276   -57690.578   -60895.664    -57643.63 
 1600008    1255.7888    189.78963   -57764.773   -60954.591    -57718.54 
 1640008    1242.1991   -76.703781   -57800.401     -60955.7   -57819.092 
Loop time of 1975.78 on 6 procs for 66172 steps with 19652 atoms

Performance: 2.894 ns/day, 8.294 hours/ns, 33.492 timesteps/s
99.8% CPU use with 6 MPI tasks x no OpenMP threads

MPI task timing breakdown:
Section |  min time  |  avg time  |  max time  |%varavg| %total
---------------------------------------------------------------
Pair    | 1072.8     | 1080.5     | 1082.9     |  11.3 | 54.69
Neigh   | 742.95     | 748.62     | 758.6      |  18.5 | 37.89
Comm    | 108.37     | 120.45     | 131.17     |  66.1 |  6.10
Output  | 0.015478   | 0.015505   | 0.015594   |   0.0 |  0.00
Modify  | 20.795     | 21         | 21.141     |   2.8 |  1.06
Other   |            | 5.226      |            |       |  0.26

Nlocal:    3275.33 ave 3296 max 3256 min
Histogram: 1 1 0 1 0 0 1 0 1 1
Nghost:    6764.83 ave 6790 max 6725 min
Histogram: 1 0 0 0 1 1 0 0 2 1
Neighs:    211437 ave 215871 max 206312 min
Histogram: 1 0 0 2 0 0 0 2 0 1

Total # of neighbors = 1268624
Ave neighs/atom = 64.5544
Neighbor list builds = 66172
Dangerous builds not checked
Setting up Verlet run ...
  Unit style    : metal
  Current step  : 1640008
  Time step     : 0.001
Per MPI rank memory allocation (min/avg/max) = 5.575 | 5.863 | 6.008 Mbytes
Step Temp Press TotEng PotEng Enthalpy 
 1640008    1242.1991   -76.703781   -57800.401     -60955.7   -57819.092 
 1640503    1206.4756    380.32453   -57966.884   -61031.442   -57874.561 
Loop time of 14.8902 on 6 procs for 495 steps with 19652 atoms

Performance: 2.872 ns/day, 8.356 hours/ns, 33.243 timesteps/s
99.9% CPU use with 6 MPI tasks x no OpenMP threads

MPI task timing breakdown:
Section |  min time  |  avg time  |  max time  |%varavg| %total
---------------------------------------------------------------
Pair    | 7.9408     | 8.1096     | 8.2252     |   3.5 | 54.46
Neigh   | 5.3558     | 5.8673     | 6.1608     |  11.5 | 39.40
Comm    | 0.45639    | 0.71069    | 1.1153     |  26.9 |  4.77
Output  | 5.8889e-05 | 7.534e-05  | 0.00014496 |   0.0 |  0.00
Modify  | 0.15376    | 0.16141    | 0.16498    |   1.0 |  1.08
Other   |            | 0.0411     |            |       |  0.28

Nlocal:    3275.33 ave 3300 max 3250 min
Histogram: 1 0 0 1 1 1 0 0 1 1
Nghost:    6775.67 ave 6808 max 6743 min
Histogram: 1 0 0 2 0 1 0 1 0 1
Neighs:    212278 ave 217210 max 207461 min
Histogram: 1 1 0 1 0 0 1 0 1 1

Total # of neighbors = 1273670
Ave neighs/atom = 64.8112
Neighbor list builds = 495
Dangerous builds not checked
Setting up Verlet run ...
  Unit style    : metal
  Current step  : 1640503
  Time step     : 0.001
Per MPI rank memory allocation (min/avg/max) = 5.575 | 5.863 | 6.008 Mbytes
Step Temp Press TotEng PotEng Enthalpy 
 1640503    1206.4756    380.32453   -57966.884   -61031.442   -57874.561 
 1666675    1203.6913   -61.813997   -58056.992   -61114.478   -58071.962 
 1706675    1195.3105   -558.18279   -58115.946   -61152.143   -58251.044 
Loop time of 2028.15 on 6 procs for 66172 steps with 19652 atoms

Performance: 2.819 ns/day, 8.514 hours/ns, 32.627 timesteps/s
99.4% CPU use with 6 MPI tasks x no OpenMP threads

MPI task timing breakdown:
Section |  min time  |  avg time  |  max time  |%varavg| %total
---------------------------------------------------------------
Pair    | 1097.9     | 1107.3     | 1112.4     |  15.3 | 54.60
Neigh   | 770.56     | 780.66     | 786.73     |  18.8 | 38.49
Comm    | 100.3      | 109.73     | 128.82     |  90.0 |  5.41
Output  | 0.30912    | 0.30915    | 0.30927    |   0.0 |  0.02
Modify  | 23.778     | 24.692     | 25.266     |  12.3 |  1.22
Other   |            | 5.446      |            |       |  0.27

Nlocal:    3275.33 ave 3291 max 3263 min
Histogram: 2 1 0 0 0 1 0 0 0 2
Nghost:    6812.17 ave 6846 max 6769 min
Histogram: 1 0 1 0 0 0 2 1 0 1
Neighs:    213102 ave 217775 max 209530 min
Histogram: 2 0 0 0 1 1 1 0 0 1

Total # of neighbors = 1278615
Ave neighs/atom = 65.0628
Neighbor list builds = 66172
Dangerous builds not checked
Setting up Verlet run ...
  Unit style    : metal
  Current step  : 1706675
  Time step     : 0.001
Per MPI rank memory allocation (min/avg/max) = 5.575 | 5.863 | 6.008 Mbytes
Step Temp Press TotEng PotEng Enthalpy 
 1706675    1195.3105   -558.18279   -58115.946   -61152.143   -58251.044 
 1707170    1160.6027   -238.77961   -58284.455   -61232.491   -58342.032 
Loop time of 16.0528 on 6 procs for 495 steps with 19652 atoms

Performance: 2.664 ns/day, 9.008 hours/ns, 30.836 timesteps/s
97.6% CPU use with 6 MPI tasks x no OpenMP threads

MPI task timing breakdown:
Section |  min time  |  avg time  |  max time  |%varavg| %total
---------------------------------------------------------------
Pair    | 8.3919     | 8.5644     | 8.6464     |   3.2 | 53.35
Neigh   | 5.5776     | 5.6673     | 5.7437     |   2.7 | 35.30
Comm    | 0.69571    | 0.85491    | 0.9841     |   9.7 |  5.33
Output  | 6.5088e-05 | 7.685e-05  | 0.00012589 |   0.0 |  0.00
Modify  | 0.92355    | 0.92504    | 0.92614    |   0.1 |  5.76
Other   |            | 0.04105    |            |       |  0.26

Nlocal:    3275.33 ave 3296 max 3254 min
Histogram: 1 0 0 1 1 1 0 1 0 1
Nghost:    6802.5 ave 6834 max 6746 min
[...]
Loop time of 14.0372 on 6 procs for 495 steps with 19652 atoms

Performance: 3.047 ns/day, 7.877 hours/ns, 35.263 timesteps/s
100.0% CPU use with 6 MPI tasks x no OpenMP threads

MPI task timing breakdown:
Section |  min time  |  avg time  |  max time  |%varavg| %total
---------------------------------------------------------------
Pair    | 7.5224     | 7.6478     | 7.7606     |   2.9 | 54.48
Neigh   | 4.8022     | 4.9723     | 5.1354     |   5.0 | 35.42
Comm    | 1.0005     | 1.2427     | 1.3802     |  11.5 |  8.85
Output  | 5.6982e-05 | 6.5962e-05 | 0.00010896 |   0.0 |  0.00
Modify  | 0.13326    | 0.13879    | 0.14348    |   1.0 |  0.99
Other   |            | 0.0357     |            |       |  0.25

Nlocal:    3275.33 ave 3285 max 3261 min
Histogram: 2 0 0 0 0 0 0 1 1 2
Nghost:    7148.33 ave 7172 max 7118 min
Histogram: 1 1 0 0 0 0 0 3 0 1
Neighs:    238489 ave 243254 max 234918 min
Histogram: 1 2 0 1 0 0 0 0 1 1

Total # of neighbors = 1430933
Ave neighs/atom = 72.8136
Neighbor list builds = 495
Dangerous builds not checked
Setting up Verlet run ...
  Unit style    : metal
  Current step  : 2707175
  Time step     : 0.001
Per MPI rank memory allocation (min/avg/max) = 5.575 | 5.863 | 6.008 Mbytes
Step Temp Press TotEng PotEng Enthalpy 
 2707175    423.60525   -35.883115   -63132.474    -64208.47   -63140.246 
 2733347     397.0216    -13.00139   -63347.737   -64356.208   -63350.538 
 2773347     401.8576    204.86654   -63392.032   -64412.787   -63347.978 
Loop time of 1944.49 on 6 procs for 66172 steps with 19652 atoms

Performance: 2.940 ns/day, 8.163 hours/ns, 34.031 timesteps/s
99.7% CPU use with 6 MPI tasks x no OpenMP threads

MPI task timing breakdown:
Section |  min time  |  avg time  |  max time  |%varavg| %total
---------------------------------------------------------------
Pair    | 1044.9     | 1061.8     | 1089.3     |  43.9 | 54.61
Neigh   | 664.52     | 689.62     | 696.9      |  43.2 | 35.47
Comm    | 162.39     | 168.78     | 180.62     |  52.1 |  8.68
Output  | 0.016853   | 0.016876   | 0.016968   |   0.0 |  0.00
Modify  | 18.159     | 19.349     | 19.874     |  14.4 |  1.00
Other   |            | 4.93       |            |       |  0.25

Nlocal:    3275.33 ave 3294 max 3259 min
Histogram: 1 0 1 1 0 1 1 0 0 1
Nghost:    7152.17 ave 7174 max 7132 min
Histogram: 1 1 0 1 0 1 0 0 1 1
Neighs:    240041 ave 244564 max 236480 min
Histogram: 1 2 0 0 1 0 0 0 1 1

Total # of neighbors = 1440244
Ave neighs/atom = 73.2874
Neighbor list builds = 66172
Dangerous builds not checked
Setting up Verlet run ...
  Unit style    : metal
  Current step  : 2773347
  Time step     : 0.001
Per MPI rank memory allocation (min/avg/max) = 5.575 | 5.863 | 6.008 Mbytes
Step Temp Press TotEng PotEng Enthalpy 
 2773347     401.8576    204.86654   -63392.032   -64412.787   -63347.978 
 2773842    371.87469     672.1635    -63534.84   -64479.436   -63390.723 
Loop time of 14.4744 on 6 procs for 495 steps with 19652 atoms

Performance: 2.955 ns/day, 8.123 hours/ns, 34.198 timesteps/s
99.8% CPU use with 6 MPI tasks x no OpenMP threads

MPI task timing breakdown:
Section |  min time  |  avg time  |  max time  |%varavg| %total
---------------------------------------------------------------
Pair    | 7.6386     | 7.8708     | 8.1326     |   6.5 | 54.38
Neigh   | 4.8743     | 5.1824     | 5.4394     |   7.7 | 35.80
Comm    | 1.1315     | 1.2388     | 1.4193     |   8.4 |  8.56
Output  | 5.6982e-05 | 7.2122e-05 | 0.00013399 |   0.0 |  0.00
Modify  | 0.13466    | 0.14302    | 0.15033    |   1.4 |  0.99
Other   |            | 0.03922    |            |       |  0.27

Nlocal:    3275.33 ave 3297 max 3234 min
Histogram: 1 0 0 0 0 1 1 0 2 1
Nghost:    7160.83 ave 7186 max 7138 min
Histogram: 1 1 0 0 0 2 0 1 0 1
Neighs:    240655 ave 245310 max 236291 min
Histogram: 1 0 1 1 0 1 0 1 0 1

Total # of neighbors = 1443931
Ave neighs/atom = 73.475
Neighbor list builds = 495
Dangerous builds not checked
Setting up Verlet run ...
  Unit style    : metal
  Current step  : 2773842
  Time step     : 0.001
Per MPI rank memory allocation (min/avg/max) = 5.575 | 5.863 | 6.008 Mbytes
Step Temp Press TotEng PotEng Enthalpy 
 2773842    371.87469     672.1635    -63534.84   -64479.436   -63390.723 
 2800014    348.39428    299.17313   -63711.338   -64596.291   -63647.411 
 2840014    351.25504   -702.40274   -63756.148   -64648.368   -63906.223 
Loop time of 1932.1 on 6 procs for 66172 steps with 19652 atoms

Performance: 2.959 ns/day, 8.111 hours/ns, 34.249 timesteps/s
99.5% CPU use with 6 MPI tasks x no OpenMP threads

MPI task timing breakdown:
Section |  min time  |  avg time  |  max time  |%varavg| %total
---------------------------------------------------------------
Pair    | 1031.1     | 1053.6     | 1071.2     |  52.2 | 54.53
Neigh   | 655.01     | 664.93     | 673.35     |  23.9 | 34.41
Comm    | 171.07     | 188.14     | 204.38     |  87.4 |  9.74
Output  | 0.01647    | 0.016499   | 0.016594   |   0.0 |  0.00
Modify  | 20.012     | 20.578     | 21.355     |  12.4 |  1.07
Other   |            | 4.811      |            |       |  0.25

Nlocal:    3275.33 ave 3290 max 3262 min
Histogram: 1 1 1 0 0 0 1 0 1 1
Nghost:    7177.5 ave 7197 max 7160 min
Histogram: 1 0 0 0 3 1 0 0 0 1
Neighs:    241275 ave 245848 max 237161 min
Histogram: 1 0 1 1 0 1 1 0 0 1

Total # of neighbors = 1447648
Ave neighs/atom = 73.6642
Neighbor list builds = 66172
Dangerous builds not checked
Setting up Verlet run ...
  Unit style    : metal
  Current step  : 2840014
  Time step     : 0.001
Per MPI rank memory allocation (min/avg/max) = 5.575 | 5.864 | 6.008 Mbytes
Step Temp Press TotEng PotEng Enthalpy 
 2840014    351.25504   -702.40274   -63756.148   -64648.368   -63906.223 
 2840509    320.66435   -191.55824       -63905   -64719.516    -63945.81 
Loop time of 13.5963 on 6 procs for 495 steps with 19652 atoms

Performance: 3.146 ns/day, 7.630 hours/ns, 36.407 timesteps/s
100.0% CPU use with 6 MPI tasks x no OpenMP threads

MPI task timing breakdown:
Section |  min time  |  avg time  |  max time  |%varavg| %total
---------------------------------------------------------------
Pair    | 7.1928     | 7.4458     | 7.6132     |   5.9 | 54.76
Neigh   | 4.4492     | 4.7455     | 5.2216     |  13.5 | 34.90
Comm    | 1          | 1.2376     | 1.397      |  13.5 |  9.10
Output  | 7.7963e-05 | 0.00010502 | 0.00015807 |   0.0 |  0.00
Modify  | 0.1227     | 0.13305    | 0.14596    |   2.2 |  0.98
Other   |            | 0.03427    |            |       |  0.25

Nlocal:    3275.33 ave 3293 max 3265 min
Histogram: 2 0 1 1 0 1 0 0 0 1
Nghost:    7200.83 ave 7243 max 7169 min
Histogram: 1 1 0 1 1 0 1 0 0 1
Neighs:    241972 ave 245358 max 238213 min
Histogram: 1 0 1 0 2 0 0 0 0 2

Total # of neighbors = 1451834
Ave neighs/atom = 73.8772
Neighbor list builds = 495
Dangerous builds not checked
Setting up Verlet run ...
  Unit style    : metal
  Current step  : 2840509
  Time step     : 0.001
Per MPI rank memory allocation (min/avg/max) = 5.575 | 5.864 | 6.008 Mbytes
Step Temp Press TotEng PotEng Enthalpy 
 2840509    320.66435   -191.55824       -63905   -64719.516    -63945.81 
 2866681    298.37207   -755.77796   -64068.631   -64826.523   -64229.209 
 2906681    299.50967     267.5019   -64076.251   -64837.033   -64019.506 
Loop time of 1826.63 on 6 procs for 66172 steps with 19652 atoms

Performance: 3.130 ns/day, 7.668 hours/ns, 36.226 timesteps/s
99.6% CPU use with 6 MPI tasks x no OpenMP threads

MPI task timing breakdown:
Section |  min time  |  avg time  |  max time  |%varavg| %total
---------------------------------------------------------------
Pair    | 974.54     | 997.59     | 1019.8     |  54.5 | 54.61
Neigh   | 623.13     | 630.95     | 639.11     |  21.5 | 34.54
Comm    | 155.1      | 174.78     | 192.73     |  97.4 |  9.57
Output  | 0.013063   | 0.013087   | 0.013168   |   0.0 |  0.00
Modify  | 18.222     | 18.754     | 19.419     |  10.8 |  1.03
Other   |            | 4.551      |            |       |  0.25

Nlocal:    3275.33 ave 3296 max 3262 min
Histogram: 1 0 2 1 1 0 0 0 0 1
Nghost:    7209 ave 7227 max 7183 min
Histogram: 1 1 0 0 0 0 1 0 2 1
Neighs:    242722 ave 245918 max 238954 min
Histogram: 1 0 0 1 0 2 0 0 1 1

Total # of neighbors = 1456333
Ave neighs/atom = 74.1061
Neighbor list builds = 66172
Dangerous builds not checked
Setting up Verlet run ...
  Unit style    : metal
  Current step  : 2906681
  Time step     : 0.001
Per MPI rank memory allocation (min/avg/max) = 5.575 | 5.864 | 6.008 Mbytes
Step Temp Press TotEng PotEng Enthalpy 
 2906681    299.50967     267.5019   -64076.251   -64837.033   -64019.506 
 2907176    273.89174   -157.10427   -64219.393   -64915.102   -64252.656 
Loop time of 12.7733 on 6 procs for 495 steps with 19652 atoms

Performance: 3.348 ns/day, 7.168 hours/ns, 38.753 timesteps/s
99.9% CPU use with 6 MPI tasks x no OpenMP threads

MPI task timing breakdown:
Section |  min time  |  avg time  |  max time  |%varavg| %total
---------------------------------------------------------------
Pair    | 6.8532     | 6.9693     | 7.0564     |   3.3 | 54.56
Neigh   | 4.3637     | 4.4982     | 4.5823     |   3.4 | 35.22
Comm    | 1.0245     | 1.1488     | 1.2386     |   6.3 |  8.99
Output  | 6.6042e-05 | 8.0387e-05 | 0.00012088 |   0.0 |  0.00
Modify  | 0.11772    | 0.12393    | 0.13007    |   1.2 |  0.97
Other   |            | 0.03304    |            |       |  0.26

Nlocal:    3275.33 ave 3284 max 3265 min
Histogram: 1 0 1 0 1 0 0 2 0 1
Nghost:    7228.67 ave 7254 max 7179 min
Histogram: 1 0 0 0 0 0 2 1 0 2
Neighs:    243086 ave 246078 max 240365 min
Histogram: 2 0 1 0 0 0 1 0 0 2

Total # of neighbors = 1458513
Ave neighs/atom = 74.217
Neighbor list builds = 495
Dangerous builds not checked
Setting up Verlet run ...
  Unit style    : metal
  Current step  : 2907176
  Time step     : 0.001
Per MPI rank memory allocation (min/avg/max) = 5.575 | 5.864 | 6.008 Mbytes
Step Temp Press TotEng PotEng Enthalpy 
 2907176    273.89174   -157.10427   -64219.393   -64915.102   -64252.656 
 2933348    249.85444   -601.42063   -64365.774   -65000.427   -64492.843 
 2973348    249.40469   -650.59223   -64372.247   -65005.758   -64509.683 
Loop time of 1580.09 on 6 procs for 66172 steps with 19652 atoms

Performance: 3.618 ns/day, 6.633 hours/ns, 41.879 timesteps/s
99.7% CPU use with 6 MPI tasks x no OpenMP threads

MPI task timing breakdown:
Section |  min time  |  avg time  |  max time  |%varavg| %total
---------------------------------------------------------------
Pair    | 839.44     | 853.57     | 865.37     |  32.6 | 54.02
Neigh   | 580.7      | 584.7      | 588.79     |  11.6 | 37.00
Comm    | 108.96     | 121.99     | 135.9      |  87.0 |  7.72
Output  | 0.014606   | 0.014631   | 0.014711   |   0.0 |  0.00
Modify  | 15.153     | 15.509     | 15.783     |   5.4 |  0.98
Other   |            | 4.305      |            |       |  0.27

Nlocal:    3275.33 ave 3294 max 3264 min
Histogram: 2 0 1 0 2 0 0 0 0 1
Nghost:    7227.5 ave 7252 max 7193 min
Histogram: 1 0 0 1 0 1 0 2 0 1
Neighs:    243641 ave 246677 max 240130 min
Histogram: 1 0 1 1 0 0 1 0 0 2

Total # of neighbors = 1461844
Ave neighs/atom = 74.3865
Neighbor list builds = 66172
Dangerous builds not checked
Setting up Verlet run ...
  Unit style    : metal
  Current step  : 2973348
  Time step     : 0.001
Per MPI rank memory allocation (min/avg/max) = 5.575 | 5.864 | 6.008 Mbytes
Step Temp Press TotEng PotEng Enthalpy 
 2973348    249.40469   -650.59223   -64372.247   -65005.758   -64509.683 
 2973843      223.796    354.25484   -64505.194   -65073.656     -64430.6 
Loop time of 12.9293 on 6 procs for 495 steps with 19652 atoms

Performance: 3.308 ns/day, 7.255 hours/ns, 38.285 timesteps/s
100.0% CPU use with 6 MPI tasks x no OpenMP threads

MPI task timing breakdown:
Section |  min time  |  avg time  |  max time  |%varavg| %total
---------------------------------------------------------------
Pair    | 6.953      | 7.0817     | 7.1983     |   3.2 | 54.77
Neigh   | 4.3463     | 4.4914     | 4.69       |   5.5 | 34.74
Comm    | 1.0979     | 1.2007     | 1.2712     |   6.6 |  9.29
Output  | 5.1975e-05 | 6.3022e-05 | 0.00010109 |   0.0 |  0.00
Modify  | 0.11689    | 0.1217     | 0.12419    |   0.7 |  0.94
Other   |            | 0.03371    |            |       |  0.26

Nlocal:    3275.33 ave 3285 max 3260 min
Histogram: 1 0 0 0 1 1 0 0 2 1
Nghost:    7248.67 ave 7267 max 7218 min
Histogram: 1 0 1 0 0 0 0 2 0 2
Neighs:    244244 ave 247749 max 241464 min
Histogram: 2 1 0 0 0 1 0 0 1 1

Total # of neighbors = 1465462
Ave neighs/atom = 74.5706
Neighbor list builds = 495
Dangerous builds not checked
Setting up Verlet run ...
  Unit style    : metal
  Current step  : 2973843
  Time step     : 0.001
Per MPI rank memory allocation (min/avg/max) = 5.575 | 5.864 | 6.008 Mbytes
Step Temp Press TotEng PotEng Enthalpy 
 2973843      223.796    354.25484   -64505.194   -65073.656     -64430.6 
 3000015    199.61363   -459.36171   -64648.387   -65155.423   -64744.986 
 3040015    201.27292    286.56525   -64642.915   -65154.167   -64582.711 
Loop time of 1771.04 on 6 procs for 66172 steps with 19652 atoms

Performance: 3.228 ns/day, 7.435 hours/ns, 37.363 timesteps/s
99.5% CPU use with 6 MPI tasks x no OpenMP threads

MPI task timing breakdown:
Section |  min time  |  avg time  |  max time  |%varavg| %total
---------------------------------------------------------------
Pair    | 946.77     | 968.21     | 981.58     |  38.5 | 54.67
Neigh   | 602.69     | 609.38     | 617.09     |  21.2 | 34.41
Comm    | 155.84     | 170.58     | 184.14     |  77.4 |  9.63
Output  | 0.015654   | 0.015674   | 0.015754   |   0.0 |  0.00
Modify  | 17.642     | 18.317     | 18.686     |   8.9 |  1.03
Other   |            | 4.545      |            |       |  0.26

Nlocal:    3275.33 ave 3287 max 3270 min
Histogram: 1 3 0 0 0 1 0 0 0 1
Nghost:    7254.33 ave 7292 max 7223 min
Histogram: 2 0 0 1 0 0 2 0 0 1
Neighs:    244756 ave 247942 max 241722 min
Histogram: 2 0 0 0 1 1 0 0 0 2

Total # of neighbors = 1468534
Ave neighs/atom = 74.7269
Neighbor list builds = 66172
Dangerous builds not checked
Setting up Verlet run ...
  Unit style    : metal
  Current step  : 3040015
  Time step     : 0.001
Per MPI rank memory allocation (min/avg/max) = 5.579 | 5.865 | 6.008 Mbytes
Step Temp Press TotEng PotEng Enthalpy 
 3040015    201.27292    286.56525   -64642.915   -65154.167   -64582.711 
 3040510    174.99686    414.08546   -64775.294   -65219.802   -64688.476 
Loop time of 13.4878 on 6 procs for 495 steps with 19652 atoms

Performance: 3.171 ns/day, 7.569 hours/ns, 36.700 timesteps/s
99.2% CPU use with 6 MPI tasks x no OpenMP threads

MPI task timing breakdown:
Section |  min time  |  avg time  |  max time  |%varavg| %total
---------------------------------------------------------------
Pair    | 7.1803     | 7.3568     | 7.4717     |   3.5 | 54.54
Neigh   | 4.4149     | 4.5405     | 4.6485     |   4.4 | 33.66
Comm    | 1.3068     | 1.4294     | 1.5194     |   6.1 | 10.60
Output  | 5.1022e-05 | 6.4691e-05 | 0.00011206 |   0.0 |  0.00
Modify  | 0.12523    | 0.12693    | 0.12962    |   0.4 |  0.94
Other   |            | 0.03409    |            |       |  0.25

Nlocal:    3275.33 ave 3282 max 3261 min
Histogram: 1 0 0 0 1 0 0 0 2 2
Nghost:    7269.83 ave 7292 max 7228 min
Histogram: 1 0 0 1 0 0 0 0 3 1
Neighs:    245200 ave 249202 max 242264 min
Histogram: 2 1 0 0 0 1 0 0 1 1

Total # of neighbors = 1471200
Ave neighs/atom = 74.8626
Neighbor list builds = 495
Dangerous builds not checked
Setting up Verlet run ...
  Unit style    : metal
  Current step  : 3040510
  Time step     : 0.001
Per MPI rank memory allocation (min/avg/max) = 5.579 | 5.865 | 6.008 Mbytes
Step Temp Press TotEng PotEng Enthalpy 
 3040510    174.99686    414.08546   -64775.294   -65219.802   -64688.476 
 3066682    150.16902    226.27264   -64910.822   -65292.265   -64863.474 
 3106682    149.85405   -253.65989   -64915.472   -65296.115   -64968.579 
Loop time of 2006.14 on 6 procs for 66172 steps with 19652 atoms

Performance: 2.850 ns/day, 8.421 hours/ns, 32.985 timesteps/s
99.6% CPU use with 6 MPI tasks x no OpenMP threads

MPI task timing breakdown:
Section |  min time  |  avg time  |  max time  |%varavg| %total
---------------------------------------------------------------
Pair    | 1080.7     | 1094       | 1103.2     |  25.1 | 54.53
Neigh   | 746.42     | 758.67     | 765.97     |  26.6 | 37.82
Comm    | 114.16     | 125.89     | 133.53     |  71.1 |  6.28
Output  | 0.017487   | 0.01752    | 0.017652   |   0.0 |  0.00
Modify  | 21.8       | 22.139     | 22.509     |   5.8 |  1.10
Other   |            | 5.441      |            |       |  0.27

Nlocal:    3275.33 ave 3282 max 3268 min
Histogram: 1 0 2 0 0 0 1 0 0 2
Nghost:    7255.5 ave 7289 max 7235 min
Histogram: 2 1 1 0 0 0 0 1 0 1
Neighs:    245503 ave 248608 max 242610 min
Histogram: 2 0 0 1 0 1 0 0 0 2

Total # of neighbors = 1473018
Ave neighs/atom = 74.9551
Neighbor list builds = 66172
Dangerous builds not checked
Setting up Verlet run ...
  Unit style    : metal
  Current step  : 3106682
  Time step     : 0.001
Per MPI rank memory allocation (min/avg/max) = 5.579 | 5.865 | 6.008 Mbytes
Step Temp Press TotEng PotEng Enthalpy 
 3106682    149.85405   -253.65989   -64915.472   -65296.115   -64968.579 
 3107177    127.42694    112.42975   -65034.732   -65358.408   -65011.249 
Loop time of 14.1138 on 6 procs for 495 steps with 19652 atoms

Performance: 3.030 ns/day, 7.920 hours/ns, 35.072 timesteps/s
99.8% CPU use with 6 MPI tasks x no OpenMP threads

MPI task timing breakdown:
Section |  min time  |  avg time  |  max time  |%varavg| %total
---------------------------------------------------------------
Pair    | 7.5594     | 7.6937     | 7.8002     |   3.1 | 54.51
Neigh   | 4.5713     | 4.9542     | 5.2843     |  10.9 | 35.10
Comm    | 1.0233     | 1.2875     | 1.5757     |  16.9 |  9.12
Output  | 6.6042e-05 | 8.4519e-05 | 0.00012803 |   0.0 |  0.00
Modify  | 0.13187    | 0.14164    | 0.14866    |   1.3 |  1.00
Other   |            | 0.03669    |            |       |  0.26

Nlocal:    3275.33 ave 3294 max 3265 min
Histogram: 1 2 1 0 0 0 1 0 0 1
Nghost:    7274.67 ave 7299 max 7244 min
Histogram: 1 0 0 1 0 1 1 1 0 1
Neighs:    245994 ave 248903 max 243328 min
Histogram: 1 1 1 0 0 1 0 0 0 2

Total # of neighbors = 1475961
Ave neighs/atom = 75.1049
Neighbor list builds = 495
Dangerous builds not checked
Setting up Verlet run ...
  Unit style    : metal
  Current step  : 3107177
  Time step     : 0.001
Per MPI rank memory allocation (min/avg/max) = 5.579 | 5.865 | 6.008 Mbytes
Step Temp Press TotEng PotEng Enthalpy 
 3107177    127.42694    112.42975   -65034.732   -65358.408   -65011.249 
 3133349    100.32901   -42.633768    -65177.46   -65432.305   -65186.349 
 3173349    101.05302   -6.6056533    -65176.21   -65432.894   -65177.587 
Loop time of 1998.01 on 6 procs for 66172 steps with 19652 atoms

Performance: 2.861 ns/day, 8.387 hours/ns, 33.119 timesteps/s
99.6% CPU use with 6 MPI tasks x no OpenMP threads

MPI task timing breakdown:
Section |  min time  |  avg time  |  max time  |%varavg| %total
---------------------------------------------------------------
Pair    | 1076.7     | 1088.6     | 1096.5     |  24.5 | 54.48
Neigh   | 751.21     | 763.24     | 772.87     |  27.5 | 38.20
Comm    | 102.94     | 118.15     | 128.13     |  78.9 |  5.91
Output  | 0.016799   | 0.01682    | 0.016913   |   0.0 |  0.00
Modify  | 22.421     | 22.662     | 22.915     |   4.0 |  1.13
Other   |            | 5.362      |            |       |  0.27

Nlocal:    3275.33 ave 3293 max 3260 min
Histogram: 1 0 0 2 1 0 1 0 0 1
Nghost:    7270.33 ave 7295 max 7246 min
Histogram: 2 0 0 1 0 0 0 1 1 1
Neighs:    246370 ave 249878 max 243549 min
Histogram: 1 2 0 0 1 0 0 0 0 2

Total # of neighbors = 1478221
Ave neighs/atom = 75.2199
Neighbor list builds = 66172
Dangerous builds not checked
Total wall time: 24:06:53
