LAMMPS (12 Dec 2018)
Lattice spacing in x,y,z = 4 4 4
Created orthogonal box = (0 0 0) to (68 68 68)
  1 by 1 by 2 MPI processor grid
Created 19652 atoms
  Time spent = 0.00159311 secs
Setting atom values ...
  206 settings made for type/fraction
Neighbor list info ...
  update every 1 steps, delay 0 steps, check no
  max neighbors/atom: 2000, page size: 100000
  master list distance cutoff = 8.5
  ghost atom cutoff = 8.5
  binsize = 4.25, bins = 16 16 16
  1 neighbor lists, perpetual/occasional/extra = 1 0 0
  (1) pair eam/alloy, perpetual
      attributes: half, newton on
      pair build: half/bin/atomonly/newton
      stencil: half/bin/3d/newton
      bin: standard
Setting up Verlet run ...
  Unit style    : metal
  Current step  : 0
  Time step     : 0.001
Per MPI rank memory allocation (min/avg/max) = 11.15 | 11.15 | 11.15 Mbytes
Step Temp Press TotEng PotEng Enthalpy 
       0          300    275404.51    -21190.05   -21952.077    32858.922 
    1000    158.86439    273520.92   -21189.823   -21593.353    32489.486 
Loop time of 138.618 on 2 procs for 1000 steps with 19652 atoms

Performance: 0.623 ns/day, 38.505 hours/ns, 7.214 timesteps/s
79.5% CPU use with 2 MPI tasks x no OpenMP threads

MPI task timing breakdown:
Section |  min time  |  avg time  |  max time  |%varavg| %total
---------------------------------------------------------------
Pair    | 81.216     | 81.454     | 81.691     |   2.6 | 58.76
Neigh   | 38.657     | 43.016     | 47.374     |  66.5 | 31.03
Comm    | 9.3844     | 13.597     | 17.809     | 114.2 |  9.81
Output  | 8.0109e-05 | 0.00012255 | 0.00016499 |   0.0 |  0.00
Modify  | 0.21613    | 0.24928    | 0.28242    |   6.6 |  0.18
Other   |            | 0.3023     |            |       |  0.22

Nlocal:    9826 ave 9838 max 9814 min
Histogram: 1 0 0 0 0 0 0 0 0 1
Nghost:    14211 ave 14223 max 14199 min
Histogram: 1 0 0 0 0 0 0 0 0 1
Neighs:    786844 ave 787993 max 785696 min
Histogram: 1 0 0 0 0 0 0 0 0 1

Total # of neighbors = 1573689
Ave neighs/atom = 80.0778
Neighbor list builds = 1000
Dangerous builds not checked
Setting up Verlet run ...
  Unit style    : metal
  Current step  : 1000
  Time step     : 0.001
Per MPI rank memory allocation (min/avg/max) = 11.15 | 11.15 | 11.15 Mbytes
Step Temp Press TotEng PotEng Enthalpy 
    1000    158.86439    273520.92   -21189.823   -21593.353    32489.486 
    2000    261.82485     260.2126   -28931.844   -29596.903   -28857.454 
Loop time of 109.006 on 2 procs for 1000 steps with 19652 atoms

Performance: 0.793 ns/day, 30.280 hours/ns, 9.174 timesteps/s
84.2% CPU use with 2 MPI tasks x no OpenMP threads

MPI task timing breakdown:
Section |  min time  |  avg time  |  max time  |%varavg| %total
---------------------------------------------------------------
Pair    | 59.495     | 59.97      | 60.444     |   6.1 | 55.01
Neigh   | 36.653     | 40.282     | 43.912     |  57.2 | 36.95
Comm    | 4.0204     | 7.2457     | 10.471     | 119.8 |  6.65
Output  | 7.2956e-05 | 0.00010645 | 0.00013995 |   0.0 |  0.00
Modify  | 1.1708     | 1.2131     | 1.2553     |   3.8 |  1.11
Other   |            | 0.2955     |            |       |  0.27

Nlocal:    9826 ave 9836 max 9816 min
Histogram: 1 0 0 0 0 0 0 0 0 1
Nghost:    10346 ave 10356 max 10336 min
Histogram: 1 0 0 0 0 0 0 0 0 1
Neighs:    548482 ave 549594 max 547370 min
Histogram: 1 0 0 0 0 0 0 0 0 1

Total # of neighbors = 1096964
Ave neighs/atom = 55.8195
Neighbor list builds = 1000
Dangerous builds not checked
Setting up Verlet run ...
  Unit style    : metal
  Current step  : 2000
  Time step     : 0.001
Per MPI rank memory allocation (min/avg/max) = 11.15 | 11.15 | 11.15 Mbytes
Step Temp Press TotEng PotEng Enthalpy 
    2000    261.82485     260.2126   -28931.844   -29596.903   -28857.454 
   10000    2430.0415    366.62892   -14696.686   -20869.213   -14546.464 
Loop time of 595.605 on 2 procs for 8000 steps with 19652 atoms

Performance: 1.161 ns/day, 20.681 hours/ns, 13.432 timesteps/s
93.5% CPU use with 2 MPI tasks x no OpenMP threads

MPI task timing breakdown:
Section |  min time  |  avg time  |  max time  |%varavg| %total
---------------------------------------------------------------
Pair    | 318.77     | 321        | 323.24     |  12.5 | 53.90
Neigh   | 221.61     | 235.13     | 248.65     |  88.2 | 39.48
Comm    | 18.652     | 30.225     | 41.797     | 210.5 |  5.07
Output  | 8.5831e-05 | 0.00011694 | 0.00014806 |   0.0 |  0.00
Modify  | 7.1475     | 7.3623     | 7.5772     |   7.9 |  1.24
Other   |            | 1.884      |            |       |  0.32

Nlocal:    9826 ave 9869 max 9783 min
Histogram: 1 0 0 0 0 0 0 0 0 1
Nghost:    9697.5 ave 9728 max 9667 min
Histogram: 1 0 0 0 0 0 0 0 0 1
Neighs:    373806 ave 377353 max 370258 min
Histogram: 1 0 0 0 0 0 0 0 0 1

Total # of neighbors = 747611
Ave neighs/atom = 38.0425
Neighbor list builds = 8000
Dangerous builds not checked
Setting up Verlet run ...
  Unit style    : metal
  Current step  : 10000
  Time step     : 0.001
Per MPI rank memory allocation (min/avg/max) = 11.17 | 11.17 | 11.17 Mbytes
Step Temp Press TotEng PotEng Enthalpy 
   10000    2430.0415    366.62892   -14696.686   -20869.213   -14546.464 
   20000    2442.4426    388.82853   -14606.302   -20810.329   -14446.576 
   40000    2441.6363    -714.2709   -14584.054   -20786.032   -14880.034 
Loop time of 1904.95 on 2 procs for 30000 steps with 19652 atoms

Performance: 1.361 ns/day, 17.638 hours/ns, 15.748 timesteps/s
98.5% CPU use with 2 MPI tasks x no OpenMP threads

MPI task timing breakdown:
Section |  min time  |  avg time  |  max time  |%varavg| %total
---------------------------------------------------------------
Pair    | 981.82     | 994.41     | 1007       |  39.9 | 52.20
Neigh   | 787.35     | 796.38     | 805.4      |  32.0 | 41.81
Comm    | 60.199     | 81.91      | 103.62     | 239.9 |  4.30
Output  | 0.12937    | 0.12943    | 0.12948    |   0.0 |  0.01
Modify  | 25.485     | 25.485     | 25.486     |   0.0 |  1.34
Other   |            | 6.643      |            |       |  0.35

Nlocal:    9826 ave 9851 max 9801 min
Histogram: 1 0 0 0 0 0 0 0 0 1
Nghost:    9641 ave 9683 max 9599 min
Histogram: 1 0 0 0 0 0 0 0 0 1
Neighs:    369480 ave 371782 max 367177 min
Histogram: 1 0 0 0 0 0 0 0 0 1

Total # of neighbors = 738959
Ave neighs/atom = 37.6022
Neighbor list builds = 30000
Dangerous builds not checked
Setting up Verlet run ...
  Unit style    : metal
  Current step  : 40000
  Time step     : 0.001
Per MPI rank memory allocation (min/avg/max) = 11.29 | 11.29 | 11.29 Mbytes
Step Temp Press TotEng PotEng Enthalpy 
   40000    2441.6363    -714.2709   -14584.054   -20786.032   -14880.034 
   40495    2413.1805    -383.0854   -14792.567   -20922.265    -14949.54 
Loop time of 28.2473 on 2 procs for 495 steps with 19652 atoms

Performance: 1.514 ns/day, 15.851 hours/ns, 17.524 timesteps/s
98.3% CPU use with 2 MPI tasks x no OpenMP threads

MPI task timing breakdown:
Section |  min time  |  avg time  |  max time  |%varavg| %total
---------------------------------------------------------------
Pair    | 14.41      | 14.523     | 14.637     |   3.0 | 51.41
Neigh   | 12.033     | 12.125     | 12.216     |   2.6 | 42.92
Comm    | 0.88115    | 1.0767     | 1.2722     |  18.8 |  3.81
Output  | 7.5102e-05 | 0.00010848 | 0.00014186 |   0.0 |  0.00
Modify  | 0.40425    | 0.40993    | 0.41561    |   0.9 |  1.45
Other   |            | 0.1125     |            |       |  0.40

Nlocal:    9826 ave 9844 max 9808 min
Histogram: 1 0 0 0 0 0 0 0 0 1
Nghost:    9644.5 ave 9695 max 9594 min
Histogram: 1 0 0 0 0 0 0 0 0 1
Neighs:    373750 ave 374987 max 372513 min
Histogram: 1 0 0 0 0 0 0 0 0 1

Total # of neighbors = 747500
Ave neighs/atom = 38.0368
Neighbor list builds = 495
Dangerous builds not checked
Setting up Verlet run ...
  Unit style    : metal
  Current step  : 40495
  Time step     : 0.001
Per MPI rank memory allocation (min/avg/max) = 11.29 | 11.29 | 11.29 Mbytes
Step Temp Press TotEng PotEng Enthalpy 
   40495    2413.1805    -383.0854   -14792.567   -20922.265    -14949.54 
   60000    2392.3779    36.829312   -14936.039   -21012.896   -14921.063 
Loop time of 1246.21 on 2 procs for 19505 steps with 19652 atoms

Performance: 1.352 ns/day, 17.748 hours/ns, 15.651 timesteps/s
99.3% CPU use with 2 MPI tasks x no OpenMP threads

MPI task timing breakdown:
Section |  min time  |  avg time  |  max time  |%varavg| %total
---------------------------------------------------------------
Pair    | 658.57     | 658.73     | 658.9      |   0.7 | 52.86
Neigh   | 522.06     | 526.44     | 530.82     |  19.1 | 42.24
Comm    | 35.888     | 40.452     | 45.016     |  71.8 |  3.25
Output  | 0.047304   | 0.047316   | 0.047328   |   0.0 |  0.00
Modify  | 16.154     | 16.206     | 16.257     |   1.3 |  1.30
Other   |            | 4.33       |            |       |  0.35

Nlocal:    9826 ave 9830 max 9822 min
Histogram: 1 0 0 0 0 0 0 0 0 1
Nghost:    9721 ave 9728 max 9714 min
Histogram: 1 0 0 0 0 0 0 0 0 1
Neighs:    376554 ave 376650 max 376457 min
Histogram: 1 0 0 0 0 0 0 0 0 1

Total # of neighbors = 753107
Ave neighs/atom = 38.3222
Neighbor list builds = 19505
Dangerous builds not checked
Setting up Verlet run ...
  Unit style    : metal
  Current step  : 60000
  Time step     : 0.001
Per MPI rank memory allocation (min/avg/max) = 11.32 | 11.32 | 11.32 Mbytes
Step Temp Press TotEng PotEng Enthalpy 
   60000    2392.3779    36.829312   -14936.039   -21012.896   -14921.063 
   60495    2356.7075    239.99734   -15169.138   -21155.389   -15072.505 
Loop time of 28.2993 on 2 procs for 495 steps with 19652 atoms

Performance: 1.511 ns/day, 15.881 hours/ns, 17.492 timesteps/s
99.6% CPU use with 2 MPI tasks x no OpenMP threads

MPI task timing breakdown:
Section |  min time  |  avg time  |  max time  |%varavg| %total
---------------------------------------------------------------
Pair    | 14.506     | 14.562     | 14.618     |   1.5 | 51.46
Neigh   | 12.134     | 12.349     | 12.564     |   6.1 | 43.64
Comm    | 0.59843    | 0.86518    | 1.1319     |  28.7 |  3.06
Output  | 0.00013399 | 0.00018704 | 0.00024009 |   0.0 |  0.00
Modify  | 0.40771    | 0.41031    | 0.4129     |   0.4 |  1.45
Other   |            | 0.1124     |            |       |  0.40

Nlocal:    9826 ave 9871 max 9781 min
Histogram: 1 0 0 0 0 0 0 0 0 1
Nghost:    9842 ave 9856 max 9828 min
Histogram: 1 0 0 0 0 0 0 0 0 1
Neighs:    380293 ave 382996 max 377590 min
Histogram: 1 0 0 0 0 0 0 0 0 1

Total # of neighbors = 760586
Ave neighs/atom = 38.7027
Neighbor list builds = 495
Dangerous builds not checked
Setting up Verlet run ...
  Unit style    : metal
  Current step  : 60495
  Time step     : 0.001
Per MPI rank memory allocation (min/avg/max) = 11.32 | 11.32 | 11.32 Mbytes
Step Temp Press TotEng PotEng Enthalpy 
   60495    2356.7075    239.99734   -15169.138   -21155.389   -15072.505 
   80000    2318.8828   -302.26306   -15362.496   -21252.669   -15483.922 
Loop time of 1219.01 on 2 procs for 19505 steps with 19652 atoms

Performance: 1.382 ns/day, 17.360 hours/ns, 16.001 timesteps/s
98.6% CPU use with 2 MPI tasks x no OpenMP threads

MPI task timing breakdown:
Section |  min time  |  avg time  |  max time  |%varavg| %total
---------------------------------------------------------------
Pair    | 636.78     | 639.18     | 641.58     |   9.5 | 52.43
Neigh   | 515.32     | 517.64     | 519.97     |  10.2 | 42.46
Comm    | 41.154     | 41.257     | 41.36      |   1.6 |  3.38
Output  | 0.049787   | 0.049802   | 0.049816   |   0.0 |  0.00
Modify  | 16.301     | 16.454     | 16.607     |   3.8 |  1.35
Other   |            | 4.423      |            |       |  0.36

Nlocal:    9826 ave 9834 max 9818 min
Histogram: 1 0 0 0 0 0 0 0 0 1
Nghost:    9805.5 ave 9837 max 9774 min
Histogram: 1 0 0 0 0 0 0 0 0 1
Neighs:    381104 ave 381324 max 380884 min
Histogram: 1 0 0 0 0 0 0 0 0 1

Total # of neighbors = 762208
Ave neighs/atom = 38.7853
Neighbor list builds = 19505
Dangerous builds not checked
Setting up Verlet run ...
  Unit style    : metal
  Current step  : 80000
  Time step     : 0.001
Per MPI rank memory allocation (min/avg/max) = 11.34 | 11.34 | 11.34 Mbytes
Step Temp Press TotEng PotEng Enthalpy 
   80000    2318.8828   -302.26306   -15362.496   -21252.669   -15483.922 
   80495    2304.3114   -208.04825   -15474.152   -21327.313   -15557.517 
Loop time of 31.2633 on 2 procs for 495 steps with 19652 atoms

Performance: 1.368 ns/day, 17.544 hours/ns, 15.833 timesteps/s
97.4% CPU use with 2 MPI tasks x no OpenMP threads

MPI task timing breakdown:
Section |  min time  |  avg time  |  max time  |%varavg| %total
---------------------------------------------------------------
Pair    | 16.165     | 16.173     | 16.181     |   0.2 | 51.73
Neigh   | 13.387     | 13.398     | 13.408     |   0.3 | 42.85
Comm    | 1.1133     | 1.1301     | 1.147      |   1.6 |  3.61
Output  | 7.4148e-05 | 0.00011754 | 0.00016093 |   0.0 |  0.00
Modify  | 0.43712    | 0.4505     | 0.46387    |   2.0 |  1.44
Other   |            | 0.1119     |            |       |  0.36

Nlocal:    9826 ave 9839 max 9813 min
Histogram: 1 0 0 0 0 0 0 0 0 1
Nghost:    9717 ave 9734 max 9700 min
Histogram: 1 0 0 0 0 0 0 0 0 1
Neighs:    381930 ave 382176 max 381683 min
Histogram: 1 0 0 0 0 0 0 0 0 1

Total # of neighbors = 763859
Ave neighs/atom = 38.8693
Neighbor list builds = 495
Dangerous builds not checked
Setting up Verlet run ...
  Unit style    : metal
  Current step  : 80495
  Time step     : 0.001
Per MPI rank memory allocation (min/avg/max) = 11.34 | 11.34 | 11.34 Mbytes
Step Temp Press TotEng PotEng Enthalpy 
   80495    2304.3114   -208.04825   -15474.152   -21327.313   -15557.517 
  100000    2319.5489    479.08015   -15609.037   -21500.902   -15419.815 
Loop time of 1269.06 on 2 procs for 19505 steps with 19652 atoms

Performance: 1.328 ns/day, 18.073 hours/ns, 15.370 timesteps/s
97.2% CPU use with 2 MPI tasks x no OpenMP threads

MPI task timing breakdown:
Section |  min time  |  avg time  |  max time  |%varavg| %total
---------------------------------------------------------------
Pair    | 668.16     | 670.64     | 673.12     |   9.6 | 52.85
Neigh   | 505.19     | 510.26     | 515.33     |  22.4 | 40.21
Comm    | 59.591     | 67.294     | 74.996     |  93.9 |  5.30
Output  | 0.055797   | 0.055815   | 0.055832   |   0.0 |  0.00
Modify  | 16.438     | 16.545     | 16.651     |   2.6 |  1.30
Other   |            | 4.256      |            |       |  0.34

Nlocal:    9826 ave 9891 max 9761 min
Histogram: 1 0 0 0 0 0 0 0 0 1
Nghost:    9861.5 ave 9880 max 9843 min
Histogram: 1 0 0 0 0 0 0 0 0 1
Neighs:    387586 ave 392072 max 383100 min
Histogram: 1 0 0 0 0 0 0 0 0 1

Total # of neighbors = 775172
Ave neighs/atom = 39.4449
Neighbor list builds = 19505
Dangerous builds not checked
Setting up Verlet run ...
  Unit style    : metal
  Current step  : 100000
  Time step     : 0.001
Per MPI rank memory allocation (min/avg/max) = 11.35 | 11.35 | 11.35 Mbytes
Step Temp Press TotEng PotEng Enthalpy 
  100000    2319.5489    479.08015   -15609.037   -21500.902   -15419.815 
  100495    2258.1296   -203.78667   -15759.362   -21495.217   -15840.135 
Loop time of 32.3619 on 2 procs for 495 steps with 19652 atoms

Performance: 1.322 ns/day, 18.160 hours/ns, 15.296 timesteps/s
88.4% CPU use with 2 MPI tasks x no OpenMP threads

MPI task timing breakdown:
Section |  min time  |  avg time  |  max time  |%varavg| %total
---------------------------------------------------------------
Pair    | 18.078     | 18.413     | 18.748     |   7.8 | 56.90
Neigh   | 12.165     | 12.392     | 12.619     |   6.4 | 38.29
Comm    | 0.91877    | 1.0319     | 1.145      |  11.1 |  3.19
Output  | 7.391e-05  | 9.7394e-05 | 0.00012088 |   0.0 |  0.00
Modify  | 0.41607    | 0.41646    | 0.41685    |   0.1 |  1.29
Other   |            | 0.1088     |            |       |  0.34

Nlocal:    9826 ave 9858 max 9794 min
Histogram: 1 0 0 0 0 0 0 0 0 1
Nghost:    9872 ave 9878 max 9866 min
Histogram: 1 0 0 0 0 0 0 0 0 1
Neighs:    386154 ave 387766 max 384541 min
Histogram: 1 0 0 0 0 0 0 0 0 1

Total # of neighbors = 772307
Ave neighs/atom = 39.2992
Neighbor list builds = 495
Dangerous builds not checked
Setting up Verlet run ...
  Unit style    : metal
  Current step  : 100495
  Time step     : 0.001
Per MPI rank memory allocation (min/avg/max) = 11.35 | 11.35 | 11.35 Mbytes
Step Temp Press TotEng PotEng Enthalpy 
  100495    2258.1296   -203.78667   -15759.362   -21495.217   -15840.135 
  120000    2240.8524   -628.90257   -15871.328   -21563.297    -16120.19 
Loop time of 1206.28 on 2 procs for 19505 steps with 19652 atoms

Performance: 1.397 ns/day, 17.179 hours/ns, 16.170 timesteps/s
96.2% CPU use with 2 MPI tasks x no OpenMP threads

MPI task timing breakdown:
Section |  min time  |  avg time  |  max time  |%varavg| %total
---------------------------------------------------------------
Pair    | 614.56     | 617.68     | 620.81     |  12.6 | 51.21
Neigh   | 486.13     | 492.79     | 499.45     |  30.0 | 40.85
Comm    | 65.199     | 75.114     | 85.029     | 114.4 |  6.23
Output  | 0.22869    | 0.2287     | 0.2287     |   0.0 |  0.02
Modify  | 16.41      | 16.471     | 16.531     |   1.5 |  1.37
Other   |            | 3.987      |            |       |  0.33

Nlocal:    9826 ave 9849 max 9803 min
Histogram: 1 0 0 0 0 0 0 0 0 1
Nghost:    9831.5 ave 9845 max 9818 min
Histogram: 1 0 0 0 0 0 0 0 0 1
Neighs:    386841 ave 387821 max 385861 min
Histogram: 1 0 0 0 0 0 0 0 0 1

Total # of neighbors = 773682
Ave neighs/atom = 39.3691
Neighbor list builds = 19505
Dangerous builds not checked
Setting up Verlet run ...
  Unit style    : metal
  Current step  : 120000
  Time step     : 0.001
Per MPI rank memory allocation (min/avg/max) = 11.35 | 11.35 | 11.35 Mbytes
Step Temp Press TotEng PotEng Enthalpy 
  120000    2240.8524   -628.90257   -15871.328   -21563.297    -16120.19 
  120495    2208.9654    219.42385     -16129.2   -21740.173   -16043.578 
Loop time of 27.9118 on 2 procs for 495 steps with 19652 atoms

Performance: 1.532 ns/day, 15.663 hours/ns, 17.734 timesteps/s
98.1% CPU use with 2 MPI tasks x no OpenMP threads

MPI task timing breakdown:
Section |  min time  |  avg time  |  max time  |%varavg| %total
---------------------------------------------------------------
Pair    | 14.266     | 14.282     | 14.298     |   0.4 | 51.17
Neigh   | 11.86      | 11.929     | 11.997     |   2.0 | 42.74
Comm    | 1.1219     | 1.2112     | 1.3005     |   8.1 |  4.34
Output  | 8.9884e-05 | 0.00010788 | 0.00012589 |   0.0 |  0.00
Modify  | 0.39035    | 0.39141    | 0.39247    |   0.2 |  1.40
Other   |            | 0.09851    |            |       |  0.35

Nlocal:    9826 ave 9842 max 9810 min
Histogram: 1 0 0 0 0 0 0 0 0 1
Nghost:    9902 ave 9944 max 9860 min
Histogram: 1 0 0 0 0 0 0 0 0 1
Neighs:    392356 ave 393148 max 391565 min
Histogram: 1 0 0 0 0 0 0 0 0 1

Total # of neighbors = 784713
Ave neighs/atom = 39.9304
Neighbor list builds = 495
Dangerous builds not checked
Setting up Verlet run ...
  Unit style    : metal
  Current step  : 120495
  Time step     : 0.001
Per MPI rank memory allocation (min/avg/max) = 11.35 | 11.35 | 11.35 Mbytes
Step Temp Press TotEng PotEng Enthalpy 
  120495    2208.9654    219.42385     -16129.2   -21740.173   -16043.578 
  140000    2202.3175   -188.78461   -16182.326   -21776.413   -16256.049 
Loop time of 1166.24 on 2 procs for 19505 steps with 19652 atoms

Performance: 1.445 ns/day, 16.609 hours/ns, 16.725 timesteps/s
98.1% CPU use with 2 MPI tasks x no OpenMP threads

MPI task timing breakdown:
Section |  min time  |  avg time  |  max time  |%varavg| %total
---------------------------------------------------------------
Pair    | 607.42     | 610.76     | 614.1      |  13.5 | 52.37
Neigh   | 476.71     | 478.39     | 480.06     |   7.7 | 41.02
Comm    | 52.291     | 57.364     | 62.437     |  67.0 |  4.92
Output  | 0.19328    | 0.19329    | 0.1933     |   0.0 |  0.02
Modify  | 15.633     | 15.64      | 15.647     |   0.2 |  1.34
Other   |            | 3.892      |            |       |  0.33

Nlocal:    9826 ave 9828 max 9824 min
Histogram: 1 0 0 0 0 0 0 0 0 1
Nghost:    9907.5 ave 9937 max 9878 min
Histogram: 1 0 0 0 0 0 0 0 0 1
Neighs:    391983 ave 392685 max 391281 min
Histogram: 1 0 0 0 0 0 0 0 0 1

Total # of neighbors = 783966
Ave neighs/atom = 39.8924
Neighbor list builds = 19505
Dangerous builds not checked
Setting up Verlet run ...
  Unit style    : metal
  Current step  : 140000
  Time step     : 0.001
Per MPI rank memory allocation (min/avg/max) = 11.36 | 11.36 | 11.36 Mbytes
Step Temp Press TotEng PotEng Enthalpy 
  140000    2202.3175   -188.78461   -16182.326   -21776.413   -16256.049 
  140495    2170.5249   -57.052145   -16411.095   -21924.426   -16433.241 
Loop time of 29.0325 on 2 procs for 495 steps with 19652 atoms

Performance: 1.473 ns/day, 16.292 hours/ns, 17.050 timesteps/s
100.0% CPU use with 2 MPI tasks x no OpenMP threads

MPI task timing breakdown:
Section |  min time  |  avg time  |  max time  |%varavg| %total
---------------------------------------------------------------
Pair    | 15.179     | 15.184     | 15.188     |   0.1 | 52.30
Neigh   | 12.316     | 12.341     | 12.365     |   0.7 | 42.51
Comm    | 0.99541    | 1.0214     | 1.0474     |   2.6 |  3.52
Output  | 6.9141e-05 | 9.8109e-05 | 0.00012708 |   0.0 |  0.00
Modify  | 0.38174    | 0.38376    | 0.38578    |   0.3 |  1.32
Other   |            | 0.1029     |            |       |  0.35

Nlocal:    9826 ave 9857 max 9795 min
Histogram: 1 0 0 0 0 0 0 0 0 1
Nghost:    9922 ave 9950 max 9894 min
Histogram: 1 0 0 0 0 0 0 0 0 1
Neighs:    394673 ave 397439 max 391907 min
Histogram: 1 0 0 0 0 0 0 0 0 1

Total # of neighbors = 789346
Ave neighs/atom = 40.1662
Neighbor list builds = 495
Dangerous builds not checked
Setting up Verlet run ...
  Unit style    : metal
  Current step  : 140495
  Time step     : 0.001
Per MPI rank memory allocation (min/avg/max) = 11.36 | 11.36 | 11.36 Mbytes
Step Temp Press TotEng PotEng Enthalpy 
  140495    2170.5249   -57.052145   -16411.095   -21924.426   -16433.241 
  160000    2143.1086    129.92431   -16553.368   -21997.059   -16503.343 
Loop time of 1163.25 on 2 procs for 19505 steps with 19652 atoms

Performance: 1.449 ns/day, 16.566 hours/ns, 16.768 timesteps/s
99.1% CPU use with 2 MPI tasks x no OpenMP threads

MPI task timing breakdown:
Section |  min time  |  avg time  |  max time  |%varavg| %total
---------------------------------------------------------------
Pair    | 600.05     | 605.1      | 610.15     |  20.5 | 52.02
Neigh   | 482.21     | 490.64     | 499.06     |  38.0 | 42.18
Comm    | 34.381     | 48.149     | 61.917     | 198.4 |  4.14
Output  | 0.07471    | 0.074732   | 0.074754   |   0.0 |  0.01
Modify  | 15.174     | 15.307     | 15.441     |   3.4 |  1.32
Other   |            | 3.979      |            |       |  0.34

Nlocal:    9826 ave 9844 max 9808 min
Histogram: 1 0 0 0 0 0 0 0 0 1
Nghost:    9902 ave 9917 max 9887 min
Histogram: 1 0 0 0 0 0 0 0 0 1
Neighs:    397774 ave 398535 max 397013 min
Histogram: 1 0 0 0 0 0 0 0 0 1

Total # of neighbors = 795548
Ave neighs/atom = 40.4818
Neighbor list builds = 19505
Dangerous builds not checked
Setting up Verlet run ...
  Unit style    : metal
  Current step  : 160000
  Time step     : 0.001
Per MPI rank memory allocation (min/avg/max) = 11.36 | 11.36 | 11.36 Mbytes
Step Temp Press TotEng PotEng Enthalpy 
  160000    2143.1086    129.92431   -16553.368   -21997.059   -16503.343 
  160495    2110.4192   -112.38612   -16695.678   -22056.335   -16738.863 
Loop time of 28.2608 on 2 procs for 495 steps with 19652 atoms

Performance: 1.513 ns/day, 15.859 hours/ns, 17.515 timesteps/s
100.0% CPU use with 2 MPI tasks x no OpenMP threads

MPI task timing breakdown:
Section |  min time  |  avg time  |  max time  |%varavg| %total
---------------------------------------------------------------
Pair    | 14.456     | 14.581     | 14.705     |   3.3 | 51.59
Neigh   | 11.964     | 12.071     | 12.179     |   3.1 | 42.71
Comm    | 0.89487    | 1.1249     | 1.3548     |  21.7 |  3.98
Output  | 8.5831e-05 | 0.00011039 | 0.00013494 |   0.0 |  0.00
Modify  | 0.38045    | 0.38554    | 0.39063    |   0.8 |  1.36
Other   |            | 0.09845    |            |       |  0.35

Nlocal:    9826 ave 9842 max 9810 min
Histogram: 1 0 0 0 0 0 0 0 0 1
Nghost:    9932 ave 9945 max 9919 min
Histogram: 1 0 0 0 0 0 0 0 0 1
Neighs:    398173 ave 399540 max 396806 min
Histogram: 1 0 0 0 0 0 0 0 0 1

Total # of neighbors = 796346
Ave neighs/atom = 40.5224
Neighbor list builds = 495
Dangerous builds not checked
Setting up Verlet run ...
  Unit style    : metal
  Current step  : 160495
  Time step     : 0.001
Per MPI rank memory allocation (min/avg/max) = 11.36 | 11.36 | 11.36 Mbytes
Step Temp Press TotEng PotEng Enthalpy 
  160495    2110.4192   -112.38612   -16695.678   -22056.335   -16738.863 
  180000     2087.651   -339.51645   -16885.579   -22188.402   -17015.256 
Loop time of 1176.87 on 2 procs for 19505 steps with 19652 atoms

Performance: 1.432 ns/day, 16.760 hours/ns, 16.574 timesteps/s
98.7% CPU use with 2 MPI tasks x no OpenMP threads

MPI task timing breakdown:
Section |  min time  |  avg time  |  max time  |%varavg| %total
---------------------------------------------------------------
Pair    | 591.61     | 595.49     | 599.37     |  15.9 | 50.60
Neigh   | 506        | 508.02     | 510.04     |   9.0 | 43.17
Comm    | 52.172     | 53.863     | 55.555     |  23.0 |  4.58
Output  | 0.29658    | 0.29659    | 0.2966     |   0.0 |  0.03
Modify  | 15.202     | 15.371     | 15.539     |   4.3 |  1.31
Other   |            | 3.828      |            |       |  0.33

Nlocal:    9826 ave 9852 max 9800 min
Histogram: 1 0 0 0 0 0 0 0 0 1
Nghost:    9950.5 ave 9974 max 9927 min
Histogram: 1 0 0 0 0 0 0 0 0 1
Neighs:    400908 ave 402407 max 399408 min
Histogram: 1 0 0 0 0 0 0 0 0 1

Total # of neighbors = 801815
Ave neighs/atom = 40.8007
Neighbor list builds = 19505
Dangerous builds not checked
Setting up Verlet run ...
  Unit style    : metal
  Current step  : 180000
  Time step     : 0.001
Per MPI rank memory allocation (min/avg/max) = 11.36 | 11.36 | 11.36 Mbytes
Step Temp Press TotEng PotEng Enthalpy 
  180000     2087.651   -339.51645   -16885.579   -22188.402   -17015.256 
  180495    2057.8357   -43.571046   -17050.364   -22277.454   -17066.938 
Loop time of 30.1344 on 2 procs for 495 steps with 19652 atoms

Performance: 1.419 ns/day, 16.910 hours/ns, 16.426 timesteps/s
98.4% CPU use with 2 MPI tasks x no OpenMP threads

MPI task timing breakdown:
Section |  min time  |  avg time  |  max time  |%varavg| %total
---------------------------------------------------------------
Pair    | 15.182     | 15.341     | 15.5       |   4.1 | 50.91
Neigh   | 11.534     | 12.436     | 13.338     |  25.6 | 41.27
Comm    | 0.79425    | 1.8815     | 2.9689     |  79.3 |  6.24
Output  | 0.0001049  | 0.0001229  | 0.00014091 |   0.0 |  0.00
Modify  | 0.36087    | 0.37747    | 0.39407    |   2.7 |  1.25
Other   |            | 0.09836    |            |       |  0.33

Nlocal:    9826 ave 9837 max 9815 min
Histogram: 1 0 0 0 0 0 0 0 0 1
Nghost:    9991 ave 10009 max 9973 min
Histogram: 1 0 0 0 0 0 0 0 0 1
Neighs:    402661 ave 406631 max 398691 min
Histogram: 1 0 0 0 0 0 0 0 0 1

Total # of neighbors = 805322
Ave neighs/atom = 40.9791
Neighbor list builds = 495
Dangerous builds not checked
Setting up Verlet run ...
  Unit style    : metal
  Current step  : 180495
  Time step     : 0.001
Per MPI rank memory allocation (min/avg/max) = 11.36 | 11.36 | 11.36 Mbytes
Step Temp Press TotEng PotEng Enthalpy 
  180495    2057.8357   -43.571046   -17050.364   -22277.454   -17066.938 
  200000     2051.371   -439.91421   -17064.026   -22274.695   -17231.617 
Loop time of 1219.92 on 2 procs for 19505 steps with 19652 atoms

Performance: 1.381 ns/day, 17.373 hours/ns, 15.989 timesteps/s
97.8% CPU use with 2 MPI tasks x no OpenMP threads

MPI task timing breakdown:
Section |  min time  |  avg time  |  max time  |%varavg| %total
---------------------------------------------------------------
Pair    | 616.22     | 618.77     | 621.33     |  10.3 | 50.72
Neigh   | 517.37     | 520.77     | 524.18     |  14.9 | 42.69
Comm    | 53.535     | 59.521     | 65.506     |  77.6 |  4.88
Output  | 0.054345   | 0.054361   | 0.054377   |   0.0 |  0.00
Modify  | 16.817     | 16.838     | 16.859     |   0.5 |  1.38
Other   |            | 3.957      |            |       |  0.32

Nlocal:    9826 ave 9850 max 9802 min
Histogram: 1 0 0 0 0 0 0 0 0 1
Nghost:    10083 ave 10132 max 10034 min
Histogram: 1 0 0 0 0 0 0 0 0 1
Neighs:    401960 ave 404808 max 399112 min
Histogram: 1 0 0 0 0 0 0 0 0 1

Total # of neighbors = 803920
Ave neighs/atom = 40.9078
Neighbor list builds = 19505
Dangerous builds not checked
Setting up Verlet run ...
  Unit style    : metal
  Current step  : 200000
  Time step     : 0.001
Per MPI rank memory allocation (min/avg/max) = 11.36 | 11.36 | 11.36 Mbytes
Step Temp Press TotEng PotEng Enthalpy 
  200000     2051.371   -439.91421   -17064.026   -22274.695   -17231.617 
  200495    2009.6966    13.088263   -17324.128    -22428.94   -17319.194 
Loop time of 30.3041 on 2 procs for 495 steps with 19652 atoms

Performance: 1.411 ns/day, 17.006 hours/ns, 16.334 timesteps/s
98.9% CPU use with 2 MPI tasks x no OpenMP threads

MPI task timing breakdown:
Section |  min time  |  avg time  |  max time  |%varavg| %total
---------------------------------------------------------------
Pair    | 15.542     | 15.628     | 15.715     |   2.2 | 51.57
Neigh   | 12.797     | 13.117     | 13.437     |   8.8 | 43.28
Comm    | 0.64078    | 1.0566     | 1.4723     |  40.4 |  3.49
Output  | 7.7963e-05 | 0.00011098 | 0.000144   |   0.0 |  0.00
Modify  | 0.38685    | 0.39516    | 0.40348    |   1.3 |  1.30
Other   |            | 0.1072     |            |       |  0.35

Nlocal:    9826 ave 9843 max 9809 min
Histogram: 1 0 0 0 0 0 0 0 0 1
Nghost:    10081.5 ave 10111 max 10052 min
Histogram: 1 0 0 0 0 0 0 0 0 1
Neighs:    406107 ave 410623 max 401591 min
Histogram: 1 0 0 0 0 0 0 0 0 1

Total # of neighbors = 812214
Ave neighs/atom = 41.3298
Neighbor list builds = 495
Dangerous builds not checked
Setting up Verlet run ...
  Unit style    : metal
  Current step  : 200495
  Time step     : 0.001
Per MPI rank memory allocation (min/avg/max) = 11.36 | 11.36 | 11.36 Mbytes
Step Temp Press TotEng PotEng Enthalpy 
  200495    2009.6966    13.088263   -17324.128    -22428.94   -17319.194 
  220000    2027.2112    838.12731     -17434.1   -22583.402   -17121.392 
Loop time of 1241.6 on 2 procs for 19505 steps with 19652 atoms

Performance: 1.357 ns/day, 17.682 hours/ns, 15.710 timesteps/s
99.2% CPU use with 2 MPI tasks x no OpenMP threads

MPI task timing breakdown:
Section |  min time  |  avg time  |  max time  |%varavg| %total
---------------------------------------------------------------
Pair    | 635.35     | 639.92     | 644.5      |  18.1 | 51.54
Neigh   | 528.41     | 531.91     | 535.4      |  15.1 | 42.84
Comm    | 41.945     | 50.123     | 58.301     | 115.5 |  4.04
Output  | 0.074028   | 0.074054   | 0.07408    |   0.0 |  0.01
Modify  | 15.477     | 15.506     | 15.535     |   0.7 |  1.25
Other   |            | 4.067      |            |       |  0.33

Nlocal:    9826 ave 9834 max 9818 min
Histogram: 1 0 0 0 0 0 0 0 0 1
Nghost:    10121.5 ave 10134 max 10109 min
Histogram: 1 0 0 0 0 0 0 0 0 1
Neighs:    410295 ave 414328 max 406262 min
Histogram: 1 0 0 0 0 0 0 0 0 1

Total # of neighbors = 820590
Ave neighs/atom = 41.7561
Neighbor list builds = 19505
Dangerous builds not checked
Setting up Verlet run ...
  Unit style    : metal
  Current step  : 220000
  Time step     : 0.001
Per MPI rank memory allocation (min/avg/max) = 11.36 | 11.36 | 11.36 Mbytes
Step Temp Press TotEng PotEng Enthalpy 
  220000    2027.2112    838.12731     -17434.1   -22583.402   -17121.392 
  220495    1959.3747   -802.56171   -17638.663   -22615.653    -17939.76 
Loop time of 30.0476 on 2 procs for 495 steps with 19652 atoms

Performance: 1.423 ns/day, 16.862 hours/ns, 16.474 timesteps/s
99.8% CPU use with 2 MPI tasks x no OpenMP threads

MPI task timing breakdown:
Section |  min time  |  avg time  |  max time  |%varavg| %total
---------------------------------------------------------------
Pair    | 15.19      | 15.396     | 15.603     |   5.3 | 51.24
Neigh   | 12.394     | 12.795     | 13.196     |  11.2 | 42.58
Comm    | 0.77256    | 1.3883     | 2.0041     |  52.3 |  4.62
Output  | 7.7009e-05 | 0.00010145 | 0.00012589 |   0.0 |  0.00
Modify  | 0.36542    | 0.37013    | 0.37483    |   0.8 |  1.23
Other   |            | 0.09743    |            |       |  0.32

Nlocal:    9826 ave 9836 max 9816 min
Histogram: 1 0 0 0 0 0 0 0 0 1
Nghost:    10038.5 ave 10072 max 10005 min
Histogram: 1 0 0 0 0 0 0 0 0 1
Neighs:    408034 ave 410816 max 405251 min
Histogram: 1 0 0 0 0 0 0 0 0 1

Total # of neighbors = 816067
Ave neighs/atom = 41.5259
Neighbor list builds = 495
Dangerous builds not checked
Setting up Verlet run ...
  Unit style    : metal
  Current step  : 220495
  Time step     : 0.001
Per MPI rank memory allocation (min/avg/max) = 11.36 | 11.36 | 11.36 Mbytes
Step Temp Press TotEng PotEng Enthalpy 
  220495    1959.3747   -802.56171   -17638.663   -22615.653    -17939.76 
  240000    1927.9593   -207.62227   -17766.618    -22663.81   -17843.997 
Loop time of 1228.19 on 2 procs for 19505 steps with 19652 atoms

Performance: 1.372 ns/day, 17.491 hours/ns, 15.881 timesteps/s
99.2% CPU use with 2 MPI tasks x no OpenMP threads

MPI task timing breakdown:
Section |  min time  |  avg time  |  max time  |%varavg| %total
---------------------------------------------------------------
Pair    | 626.8      | 632.97     | 639.14     |  24.5 | 51.54
Neigh   | 515.43     | 521.86     | 528.29     |  28.1 | 42.49
Comm    | 41.416     | 54.084     | 66.752     | 172.3 |  4.40
Output  | 0.056666   | 0.056678   | 0.056691   |   0.0 |  0.00
Modify  | 15.211     | 15.233     | 15.255     |   0.6 |  1.24
Other   |            | 3.991      |            |       |  0.32

Nlocal:    9826 ave 9829 max 9823 min
Histogram: 1 0 0 0 0 0 0 0 0 1
Nghost:    10070.5 ave 10073 max 10068 min
Histogram: 1 0 0 0 0 0 0 0 0 1
Neighs:    410578 ave 414424 max 406733 min
Histogram: 1 0 0 0 0 0 0 0 0 1

Total # of neighbors = 821157
Ave neighs/atom = 41.7849
Neighbor list builds = 19505
Dangerous builds not checked
Setting up Verlet run ...
  Unit style    : metal
  Current step  : 240000
  Time step     : 0.001
Per MPI rank memory allocation (min/avg/max) = 11.36 | 11.36 | 11.36 Mbytes
Step Temp Press TotEng PotEng Enthalpy 
  240000    1927.9593   -207.62227   -17766.618    -22663.81   -17843.997 
  240495    1912.7471   -333.83222   -17931.114   -22789.666    -18055.01 
Loop time of 32.4438 on 2 procs for 495 steps with 19652 atoms

Performance: 1.318 ns/day, 18.206 hours/ns, 15.257 timesteps/s
99.2% CPU use with 2 MPI tasks x no OpenMP threads

MPI task timing breakdown:
Section |  min time  |  avg time  |  max time  |%varavg| %total
---------------------------------------------------------------
Pair    | 16.752     | 16.85      | 16.949     |   2.4 | 51.94
Neigh   | 13.781     | 13.992     | 14.203     |   5.6 | 43.13
Comm    | 0.95874    | 1.0727     | 1.1866     |  11.0 |  3.31
Output  | 6.8903e-05 | 0.00010192 | 0.00013494 |   0.0 |  0.00
Modify  | 0.41981    | 0.42066    | 0.4215     |   0.1 |  1.30
Other   |            | 0.1082     |            |       |  0.33

Nlocal:    9826 ave 9838 max 9814 min
Histogram: 1 0 0 0 0 0 0 0 0 1
Nghost:    10180 ave 10228 max 10132 min
Histogram: 1 0 0 0 0 0 0 0 0 1
Neighs:    412119 ave 417055 max 407183 min
Histogram: 1 0 0 0 0 0 0 0 0 1

Total # of neighbors = 824238
Ave neighs/atom = 41.9417
Neighbor list builds = 495
Dangerous builds not checked
Setting up Verlet run ...
  Unit style    : metal
  Current step  : 240495
  Time step     : 0.001
Per MPI rank memory allocation (min/avg/max) = 11.36 | 11.36 | 11.36 Mbytes
Step Temp Press TotEng PotEng Enthalpy 
  240495    1912.7471   -333.83222   -17931.114   -22789.666    -18055.01 
  260000     1901.589   -188.38668   -18009.651    -22839.86   -18079.308 
Loop time of 1258.96 on 2 procs for 19505 steps with 19652 atoms

Performance: 1.339 ns/day, 17.929 hours/ns, 15.493 timesteps/s
97.7% CPU use with 2 MPI tasks x no OpenMP threads

MPI task timing breakdown:
Section |  min time  |  avg time  |  max time  |%varavg| %total
---------------------------------------------------------------
Pair    | 645.03     | 646.61     | 648.19     |   6.2 | 51.36
Neigh   | 515.51     | 524.62     | 533.73     |  39.8 | 41.67
Comm    | 56.098     | 66.993     | 77.889     | 133.1 |  5.32
Output  | 0.23396    | 0.23397    | 0.23399    |   0.0 |  0.02
Modify  | 16.421     | 16.506     | 16.591     |   2.1 |  1.31
Other   |            | 3.996      |            |       |  0.32

Nlocal:    9826 ave 9850 max 9802 min
Histogram: 1 0 0 0 0 0 0 0 0 1
Nghost:    10148.5 ave 10171 max 10126 min
Histogram: 1 0 0 0 0 0 0 0 0 1
Neighs:    413956 ave 416027 max 411886 min
Histogram: 1 0 0 0 0 0 0 0 0 1

Total # of neighbors = 827913
Ave neighs/atom = 42.1287
Neighbor list builds = 19505
Dangerous builds not checked
Setting up Verlet run ...
  Unit style    : metal
  Current step  : 260000
  Time step     : 0.001
Per MPI rank memory allocation (min/avg/max) = 11.36 | 11.36 | 11.36 Mbytes
Step Temp Press TotEng PotEng Enthalpy 
  260000     1901.589   -188.38668   -18009.651    -22839.86   -18079.308 
  260495    1870.3651    116.80995   -18235.114   -22986.011   -18192.231 
Loop time of 32.5769 on 2 procs for 495 steps with 19652 atoms

Performance: 1.313 ns/day, 18.281 hours/ns, 15.195 timesteps/s
95.9% CPU use with 2 MPI tasks x no OpenMP threads

MPI task timing breakdown:
Section |  min time  |  avg time  |  max time  |%varavg| %total
---------------------------------------------------------------
Pair    | 17.23      | 17.292     | 17.354     |   1.5 | 53.08
Neigh   | 13.172     | 13.375     | 13.577     |   5.5 | 41.06
Comm    | 1.2553     | 1.3979     | 1.5404     |  12.1 |  4.29
Output  | 6.8903e-05 | 8.75e-05   | 0.0001061  |   0.0 |  0.00
Modify  | 0.40077    | 0.40419    | 0.40761    |   0.5 |  1.24
Other   |            | 0.1083     |            |       |  0.33

Nlocal:    9826 ave 9832 max 9820 min
Histogram: 1 0 0 0 0 0 0 0 0 1
Nghost:    10136 ave 10139 max 10133 min
Histogram: 1 0 0 0 0 0 0 0 0 1
Neighs:    417169 ave 421675 max 412663 min
Histogram: 1 0 0 0 0 0 0 0 0 1

Total # of neighbors = 834338
Ave neighs/atom = 42.4556
Neighbor list builds = 495
Dangerous builds not checked
Setting up Verlet run ...
  Unit style    : metal
  Current step  : 260495
  Time step     : 0.001
Per MPI rank memory allocation (min/avg/max) = 11.36 | 11.36 | 11.36 Mbytes
Step Temp Press TotEng PotEng Enthalpy 
  260495    1870.3651    116.80995   -18235.114   -22986.011   -18192.231 
  280000    1842.2033    -338.2625   -18277.863   -22957.228   -18402.308 
Loop time of 1309.4 on 2 procs for 19505 steps with 19652 atoms

Performance: 1.287 ns/day, 18.648 hours/ns, 14.896 timesteps/s
96.7% CPU use with 2 MPI tasks x no OpenMP threads

MPI task timing breakdown:
Section |  min time  |  avg time  |  max time  |%varavg| %total
---------------------------------------------------------------
Pair    | 671.81     | 671.86     | 671.91     |   0.2 | 51.31
Neigh   | 532.53     | 532.85     | 533.16     |   1.3 | 40.69
Comm    | 73.97      | 74.734     | 75.497     |   8.8 |  5.71
Output  | 0.053791   | 0.053798   | 0.053806   |   0.0 |  0.00
Modify  | 24.762     | 25.796     | 26.831     |  20.4 |  1.97
Other   |            | 4.115      |            |       |  0.31

Nlocal:    9826 ave 9880 max 9772 min
Histogram: 1 0 0 0 0 0 0 0 0 1
Nghost:    10186.5 ave 10214 max 10159 min
Histogram: 1 0 0 0 0 0 0 0 0 1
Neighs:    416196 ave 416500 max 415893 min
Histogram: 1 0 0 0 0 0 0 0 0 1

Total # of neighbors = 832393
Ave neighs/atom = 42.3567
Neighbor list builds = 19505
Dangerous builds not checked
Setting up Verlet run ...
  Unit style    : metal
  Current step  : 280000
  Time step     : 0.001
Per MPI rank memory allocation (min/avg/max) = 11.36 | 11.36 | 11.36 Mbytes
Step Temp Press TotEng PotEng Enthalpy 
  280000    1842.2033    -338.2625   -18277.863   -22957.228   -18402.308 
  280495    1801.2482    361.86821   -18518.997   -23094.331   -18387.086 
Loop time of 31.6877 on 2 procs for 495 steps with 19652 atoms

Performance: 1.350 ns/day, 17.782 hours/ns, 15.621 timesteps/s
99.6% CPU use with 2 MPI tasks x no OpenMP threads

MPI task timing breakdown:
Section |  min time  |  avg time  |  max time  |%varavg| %total
---------------------------------------------------------------
Pair    | 16.542     | 16.677     | 16.812     |   3.3 | 52.63
Neigh   | 12.677     | 12.948     | 13.219     |   7.5 | 40.86
Comm    | 1.1469     | 1.5672     | 1.9874     |  33.6 |  4.95
Output  | 7.391e-05  | 8.9884e-05 | 0.00010586 |   0.0 |  0.00
Modify  | 0.38362    | 0.39517    | 0.40673    |   1.8 |  1.25
Other   |            | 0.1009     |            |       |  0.32

Nlocal:    9826 ave 9834 max 9818 min
Histogram: 1 0 0 0 0 0 0 0 0 1
Nghost:    10194.5 ave 10205 max 10184 min
Histogram: 1 0 0 0 0 0 0 0 0 1
Neighs:    420070 ave 422684 max 417457 min
Histogram: 1 0 0 0 0 0 0 0 0 1

Total # of neighbors = 840141
Ave neighs/atom = 42.7509
Neighbor list builds = 495
Dangerous builds not checked
Setting up Verlet run ...
  Unit style    : metal
  Current step  : 280495
  Time step     : 0.001
Per MPI rank memory allocation (min/avg/max) = 11.36 | 11.36 | 11.36 Mbytes
Step Temp Press TotEng PotEng Enthalpy 
  280495    1801.2482    361.86821   -18518.997   -23094.331   -18387.086 
  300000    1782.4581   -45.883919   -18691.241   -23218.847   -18707.912 
Loop time of 1301.76 on 2 procs for 19505 steps with 19652 atoms

Performance: 1.295 ns/day, 18.539 hours/ns, 14.984 timesteps/s
97.1% CPU use with 2 MPI tasks x no OpenMP threads

MPI task timing breakdown:
Section |  min time  |  avg time  |  max time  |%varavg| %total
---------------------------------------------------------------
Pair    | 674.15     | 676.22     | 678.3      |   8.0 | 51.95
Neigh   | 525.85     | 526.99     | 528.13     |   5.0 | 40.48
Comm    | 73.068     | 76.354     | 79.64      |  37.6 |  5.87
Output  | 0.24633    | 0.24634    | 0.24635    |   0.0 |  0.02
Modify  | 17.815     | 17.884     | 17.952     |   1.6 |  1.37
Other   |            | 4.063      |            |       |  0.31

Nlocal:    9826 ave 9870 max 9782 min
Histogram: 1 0 0 0 0 0 0 0 0 1
Nghost:    10213 ave 10223 max 10203 min
Histogram: 1 0 0 0 0 0 0 0 0 1
Neighs:    421382 ave 428149 max 414614 min
Histogram: 1 0 0 0 0 0 0 0 0 1

Total # of neighbors = 842763
Ave neighs/atom = 42.8843
Neighbor list builds = 19505
Dangerous builds not checked
Setting up Verlet run ...
  Unit style    : metal
  Current step  : 300000
  Time step     : 0.001
Per MPI rank memory allocation (min/avg/max) = 11.36 | 11.36 | 11.36 Mbytes
Step Temp Press TotEng PotEng Enthalpy 
  300000    1782.4581   -45.883919   -18691.241   -23218.847   -18707.912 
  300495     1768.428   -646.12928     -18763.7   -23255.669   -18998.625 
Loop time of 32.7062 on 2 procs for 495 steps with 19652 atoms

Performance: 1.308 ns/day, 18.354 hours/ns, 15.135 timesteps/s
89.5% CPU use with 2 MPI tasks x no OpenMP threads

MPI task timing breakdown:
Section |  min time  |  avg time  |  max time  |%varavg| %total
---------------------------------------------------------------
Pair    | 15.412     | 15.45      | 15.489     |   1.0 | 47.24
Neigh   | 11.401     | 11.579     | 11.758     |   5.2 | 35.40
Comm    | 3.9114     | 4.053      | 4.1946     |   7.0 | 12.39
Output  | 5.1975e-05 | 7.4983e-05 | 9.799e-05  |   0.0 |  0.00
Modify  | 1.5341     | 1.536      | 1.5379     |   0.2 |  4.70
Other   |            | 0.08756    |            |       |  0.27

Nlocal:    9826 ave 9856 max 9796 min
Histogram: 1 0 0 0 0 0 0 0 0 1
Nghost:    10200 ave 10244 max 10156 min
Histogram: 1 0 0 0 0 0 0 0 0 1
Neighs:    421078 ave 426913 max 415244 min
Histogram: 1 0 0 0 0 0 0 0 0 1

Total # of neighbors = 842157
Ave neighs/atom = 42.8535
Neighbor list builds = 495
Dangerous builds not checked
Setting up Verlet run ...
  Unit style    : metal
  Current step  : 300495
  Time step     : 0.001
Per MPI rank memory allocation (min/avg/max) = 11.36 | 11.36 | 11.36 Mbytes
Step Temp Press TotEng PotEng Enthalpy 
  300495     1768.428   -646.12928     -18763.7   -23255.669   -18998.625 
  320000    1745.4801   -143.77585    -18860.29   -23293.969   -18912.374 
Loop time of 1377.66 on 2 procs for 19505 steps with 19652 atoms

Performance: 1.223 ns/day, 19.620 hours/ns, 14.158 timesteps/s
92.9% CPU use with 2 MPI tasks x no OpenMP threads

MPI task timing breakdown:
Section |  min time  |  avg time  |  max time  |%varavg| %total
---------------------------------------------------------------
Pair    | 703.44     | 709.92     | 716.4      |  24.3 | 51.53
Neigh   | 500.58     | 512.05     | 523.52     |  50.7 | 37.17
Comm    | 106.85     | 126.13     | 145.4      | 171.6 |  9.16
Output  | 0.1654     | 0.16541    | 0.16542    |   0.0 |  0.01
Modify  | 24.326     | 25.54      | 26.754     |  24.0 |  1.85
Other   |            | 3.856      |            |       |  0.28

Nlocal:    9826 ave 9847 max 9805 min
Histogram: 1 0 0 0 0 0 0 0 0 1
Nghost:    10241 ave 10285 max 10197 min
Histogram: 1 0 0 0 0 0 0 0 0 1
Neighs:    422668 ave 426830 max 418505 min
Histogram: 1 0 0 0 0 0 0 0 0 1

Total # of neighbors = 845335
Ave neighs/atom = 43.0152
Neighbor list builds = 19505
Dangerous builds not checked
Setting up Verlet run ...
  Unit style    : metal
  Current step  : 320000
  Time step     : 0.001
Per MPI rank memory allocation (min/avg/max) = 11.36 | 11.36 | 11.36 Mbytes
Step Temp Press TotEng PotEng Enthalpy 
  320000    1745.4801   -143.77585    -18860.29   -23293.969   -18912.374 
  320495    1716.3872    140.59569   -19090.751   -23450.531   -19040.257 
Loop time of 35.406 on 2 procs for 495 steps with 19652 atoms

Performance: 1.208 ns/day, 19.869 hours/ns, 13.981 timesteps/s
94.2% CPU use with 2 MPI tasks x no OpenMP threads

MPI task timing breakdown:
Section |  min time  |  avg time  |  max time  |%varavg| %total
---------------------------------------------------------------
Pair    | 18.077     | 18.2       | 18.323     |   2.9 | 51.40
Neigh   | 12.752     | 12.947     | 13.142     |   5.4 | 36.57
Comm    | 3.4433     | 3.7637     | 4.0842     |  16.5 | 10.63
Output  | 8.3923e-05 | 0.00011396 | 0.000144   |   0.0 |  0.00
Modify  | 0.38459    | 0.38857    | 0.39254    |   0.6 |  1.10
Other   |            | 0.1073     |            |       |  0.30

Nlocal:    9826 ave 9848 max 9804 min
Histogram: 1 0 0 0 0 0 0 0 0 1
Nghost:    10272.5 ave 10312 max 10233 min
Histogram: 1 0 0 0 0 0 0 0 0 1
Neighs:    426634 ave 428412 max 424857 min
Histogram: 1 0 0 0 0 0 0 0 0 1

Total # of neighbors = 853269
Ave neighs/atom = 43.4189
Neighbor list builds = 495
Dangerous builds not checked
Setting up Verlet run ...
  Unit style    : metal
  Current step  : 320495
  Time step     : 0.001
Per MPI rank memory allocation (min/avg/max) = 11.36 | 11.36 | 11.36 Mbytes
Step Temp Press TotEng PotEng Enthalpy 
  320495    1716.3872    140.59569   -19090.751   -23450.531   -19040.257 
  340000    1701.6261   -146.54043   -19200.684    -23522.97   -19253.205 
Loop time of 1277.86 on 2 procs for 19505 steps with 19652 atoms

Performance: 1.319 ns/day, 18.198 hours/ns, 15.264 timesteps/s
95.8% CPU use with 2 MPI tasks x no OpenMP threads

MPI task timing breakdown:
Section |  min time  |  avg time  |  max time  |%varavg| %total
---------------------------------------------------------------
Pair    | 648.24     | 652.16     | 656.09     |  15.4 | 51.04
Neigh   | 502.93     | 505.39     | 507.85     |  10.9 | 39.55
Comm    | 90.939     | 97.348     | 103.76     |  65.0 |  7.62
Output  | 0.092519   | 0.092542   | 0.092565   |   0.0 |  0.01
Modify  | 18.935     | 18.963     | 18.991     |   0.6 |  1.48
Other   |            | 3.901      |            |       |  0.31

Nlocal:    9826 ave 9849 max 9803 min
Histogram: 1 0 0 0 0 0 0 0 0 1
Nghost:    10285.5 ave 10295 max 10276 min
Histogram: 1 0 0 0 0 0 0 0 0 1
Neighs:    427332 ave 430434 max 424231 min
Histogram: 1 0 0 0 0 0 0 0 0 1

Total # of neighbors = 854665
Ave neighs/atom = 43.49
Neighbor list builds = 19505
Dangerous builds not checked
Setting up Verlet run ...
  Unit style    : metal
  Current step  : 340000
  Time step     : 0.001
Per MPI rank memory allocation (min/avg/max) = 11.36 | 11.36 | 11.36 Mbytes
Step Temp Press TotEng PotEng Enthalpy 
  340000    1701.6261   -146.54043   -19200.684    -23522.97   -19253.205 
  340495    1645.6855    318.86515    -19397.64   -23577.832   -19284.032 
Loop time of 29.589 on 2 procs for 495 steps with 19652 atoms

Performance: 1.445 ns/day, 16.604 hours/ns, 16.729 timesteps/s
98.3% CPU use with 2 MPI tasks x no OpenMP threads

MPI task timing breakdown:
Section |  min time  |  avg time  |  max time  |%varavg| %total
---------------------------------------------------------------
Pair    | 14.93      | 14.977     | 15.025     |   1.2 | 50.62
Neigh   | 12.214     | 12.402     | 12.589     |   5.3 | 41.91
Comm    | 1.5254     | 1.6738     | 1.8221     |  11.5 |  5.66
Output  | 6.7949e-05 | 9.799e-05  | 0.00012803 |   0.0 |  0.00
Modify  | 0.42946    | 0.43485    | 0.44024    |   0.8 |  1.47
Other   |            | 0.1012     |            |       |  0.34

Nlocal:    9826 ave 9857 max 9795 min
Histogram: 1 0 0 0 0 0 0 0 0 1
Nghost:    10303 ave 10327 max 10279 min
Histogram: 1 0 0 0 0 0 0 0 0 1
Neighs:    429962 ave 436339 max 423585 min
Histogram: 1 0 0 0 0 0 0 0 0 1

Total # of neighbors = 859924
Ave neighs/atom = 43.7576
Neighbor list builds = 495
Dangerous builds not checked
Setting up Verlet run ...
  Unit style    : metal
  Current step  : 340495
  Time step     : 0.001
Per MPI rank memory allocation (min/avg/max) = 11.36 | 11.36 | 11.36 Mbytes
Step Temp Press TotEng PotEng Enthalpy 
  340495    1645.6855    318.86515    -19397.64   -23577.832   -19284.032 
  360000    1649.1383    135.12221   -19438.924   -23627.885   -19390.765 
Loop time of 1263.54 on 2 procs for 19505 steps with 19652 atoms

Performance: 1.334 ns/day, 17.995 hours/ns, 15.437 timesteps/s
95.0% CPU use with 2 MPI tasks x no OpenMP threads

MPI task timing breakdown:
Section |  min time  |  avg time  |  max time  |%varavg| %total
---------------------------------------------------------------
Pair    | 640.54     | 642.71     | 644.87     |   8.6 | 50.87
Neigh   | 495.73     | 500.59     | 505.44     |  21.7 | 39.62
Comm    | 90.055     | 97.397     | 104.74     |  74.4 |  7.71
Output  | 0.26401    | 0.26403    | 0.26405    |   0.0 |  0.02
Modify  | 18.381     | 18.658     | 18.936     |   6.4 |  1.48
Other   |            | 3.93       |            |       |  0.31

Nlocal:    9826 ave 9845 max 9807 min
Histogram: 1 0 0 0 0 0 0 0 0 1
Nghost:    10259.5 ave 10261 max 10258 min
Histogram: 1 0 0 0 0 0 0 0 0 1
Neighs:    429780 ave 432052 max 427508 min
Histogram: 1 0 0 0 0 0 0 0 0 1

Total # of neighbors = 859560
Ave neighs/atom = 43.7391
Neighbor list builds = 19505
Dangerous builds not checked
Setting up Verlet run ...
  Unit style    : metal
  Current step  : 360000
  Time step     : 0.001
Per MPI rank memory allocation (min/avg/max) = 11.36 | 11.36 | 11.36 Mbytes
Step Temp Press TotEng PotEng Enthalpy 
  360000    1649.1383    135.12221   -19438.924   -23627.885   -19390.765 
  360495    1612.8028    333.34372   -19658.744    -23755.41   -19540.743 
Loop time of 33.3451 on 2 procs for 495 steps with 19652 atoms

Performance: 1.283 ns/day, 18.712 hours/ns, 14.845 timesteps/s
93.6% CPU use with 2 MPI tasks x no OpenMP threads

MPI task timing breakdown:
Section |  min time  |  avg time  |  max time  |%varavg| %total
---------------------------------------------------------------
Pair    | 16.335     | 16.563     | 16.79      |   5.6 | 49.67
Neigh   | 12.074     | 12.577     | 13.08      |  14.2 | 37.72
Comm    | 3.2264     | 3.5126     | 3.7989     |  15.3 | 10.53
Output  | 6.8188e-05 | 9.1076e-05 | 0.00011396 |   0.0 |  0.00
Modify  | 0.58815    | 0.58937    | 0.5906     |   0.2 |  1.77
Other   |            | 0.1037     |            |       |  0.31

Nlocal:    9826 ave 9826 max 9826 min
Histogram: 2 0 0 0 0 0 0 0 0 0
Nghost:    10335 ave 10343 max 10327 min
Histogram: 1 0 0 0 0 0 0 0 0 1
Neighs:    433020 ave 436818 max 429223 min
Histogram: 1 0 0 0 0 0 0 0 0 1

Total # of neighbors = 866041
Ave neighs/atom = 44.0688
Neighbor list builds = 495
Dangerous builds not checked
Setting up Verlet run ...
  Unit style    : metal
  Current step  : 360495
  Time step     : 0.001
Per MPI rank memory allocation (min/avg/max) = 11.36 | 11.36 | 11.36 Mbytes
Step Temp Press TotEng PotEng Enthalpy 
  360495    1612.8028    333.34372   -19658.744    -23755.41   -19540.743 
  380000    1608.0754   -11.501658   -19720.958   -23805.616   -19725.029 
Loop time of 1318.56 on 2 procs for 19505 steps with 19652 atoms

Performance: 1.278 ns/day, 18.778 hours/ns, 14.793 timesteps/s
93.6% CPU use with 2 MPI tasks x no OpenMP threads

MPI task timing breakdown:
Section |  min time  |  avg time  |  max time  |%varavg| %total
---------------------------------------------------------------
Pair    | 665.78     | 667.01     | 668.25     |   4.8 | 50.59
Neigh   | 486.69     | 495.05     | 503.4      |  37.6 | 37.54
Comm    | 121.74     | 131.85     | 141.97     |  88.1 | 10.00
Output  | 0.082489   | 0.082498   | 0.082507   |   0.0 |  0.01
Modify  | 20.377     | 20.809     | 21.242     |   9.5 |  1.58
Other   |            | 3.75       |            |       |  0.28

Nlocal:    9826 ave 9835 max 9817 min
Histogram: 1 0 0 0 0 0 0 0 0 1
Nghost:    10321 ave 10327 max 10315 min
Histogram: 1 0 0 0 0 0 0 0 0 1
Neighs:    432884 ave 437823 max 427945 min
Histogram: 1 0 0 0 0 0 0 0 0 1

Total # of neighbors = 865768
Ave neighs/atom = 44.055
Neighbor list builds = 19505
Dangerous builds not checked
Setting up Verlet run ...
  Unit style    : metal
  Current step  : 380000
  Time step     : 0.001
Per MPI rank memory allocation (min/avg/max) = 11.36 | 11.36 | 11.36 Mbytes
Step Temp Press TotEng PotEng Enthalpy 
  380000    1608.0754   -11.501658   -19720.958   -23805.616   -19725.029 
  380495     1572.822    136.62182   -19952.465   -23947.576   -19904.477 
Loop time of 29.3305 on 2 procs for 495 steps with 19652 atoms

Performance: 1.458 ns/day, 16.459 hours/ns, 16.877 timesteps/s
96.8% CPU use with 2 MPI tasks x no OpenMP threads

MPI task timing breakdown:
Section |  min time  |  avg time  |  max time  |%varavg| %total
---------------------------------------------------------------
Pair    | 14.686     | 14.89      | 15.094     |   5.3 | 50.77
Neigh   | 11.099     | 11.812     | 12.526     |  20.8 | 40.27
Comm    | 1.6583     | 2.1882     | 2.7182     |  35.8 |  7.46
Output  | 6.9857e-05 | 0.00011897 | 0.00016809 |   0.0 |  0.00
Modify  | 0.33415    | 0.34854    | 0.36294    |   2.4 |  1.19
Other   |            | 0.09119    |            |       |  0.31

Nlocal:    9826 ave 9831 max 9821 min
Histogram: 1 0 0 0 0 0 0 0 0 1
Nghost:    10333 ave 10340 max 10326 min
Histogram: 1 0 0 0 0 0 0 0 0 1
Neighs:    436158 ave 440538 max 431779 min
Histogram: 1 0 0 0 0 0 0 0 0 1

Total # of neighbors = 872317
Ave neighs/atom = 44.3882
Neighbor list builds = 495
Dangerous builds not checked
Setting up Verlet run ...
  Unit style    : metal
  Current step  : 380495
  Time step     : 0.001
Per MPI rank memory allocation (min/avg/max) = 11.36 | 11.36 | 11.36 Mbytes
Step Temp Press TotEng PotEng Enthalpy 
  380495     1572.822    136.62182   -19952.465   -23947.576   -19904.477 
  400000     1559.463   -441.73158   -19990.928   -23952.106   -20146.503 
Loop time of 1349.63 on 2 procs for 19505 steps with 19652 atoms

Performance: 1.249 ns/day, 19.221 hours/ns, 14.452 timesteps/s
91.0% CPU use with 2 MPI tasks x no OpenMP threads

MPI task timing breakdown:
Section |  min time  |  avg time  |  max time  |%varavg| %total
---------------------------------------------------------------
Pair    | 672        | 676.58     | 681.17     |  17.6 | 50.13
Neigh   | 485.04     | 489.94     | 494.84     |  22.2 | 36.30
Comm    | 155.11     | 155.53     | 155.96     |   3.4 | 11.52
Output  | 0.052744   | 0.052771   | 0.052798   |   0.0 |  0.00
Modify  | 23.773     | 23.803     | 23.833     |   0.6 |  1.76
Other   |            | 3.721      |            |       |  0.28

Nlocal:    9826 ave 9833 max 9819 min
Histogram: 1 0 0 0 0 0 0 0 0 1
Nghost:    10295.5 ave 10325 max 10266 min
Histogram: 1 0 0 0 0 0 0 0 0 1
Neighs:    434939 ave 439745 max 430133 min
Histogram: 1 0 0 0 0 0 0 0 0 1

Total # of neighbors = 869878
Ave neighs/atom = 44.2641
Neighbor list builds = 19505
Dangerous builds not checked
Setting up Verlet run ...
  Unit style    : metal
  Current step  : 400000
  Time step     : 0.001
Per MPI rank memory allocation (min/avg/max) = 11.36 | 11.36 | 11.36 Mbytes
Step Temp Press TotEng PotEng Enthalpy 
  400000     1559.463   -441.73158   -19990.928   -23952.106   -20146.503 
  400495    1509.4312    199.04165   -20221.454   -24055.547   -20151.864 
Loop time of 27.8779 on 2 procs for 495 steps with 19652 atoms

Performance: 1.534 ns/day, 15.644 hours/ns, 17.756 timesteps/s
98.7% CPU use with 2 MPI tasks x no OpenMP threads

MPI task timing breakdown:
Section |  min time  |  avg time  |  max time  |%varavg| %total
---------------------------------------------------------------
Pair    | 14.056     | 14.188     | 14.32      |   3.5 | 50.89
Neigh   | 11.585     | 11.868     | 12.15      |   8.2 | 42.57
Comm    | 0.95796    | 1.3884     | 1.8188     |  36.5 |  4.98
Output  | 5.7936e-05 | 7.4863e-05 | 9.1791e-05 |   0.0 |  0.00
Modify  | 0.32712    | 0.34073    | 0.35434    |   2.3 |  1.22
Other   |            | 0.09274    |            |       |  0.33

Nlocal:    9826 ave 9843 max 9809 min
Histogram: 1 0 0 0 0 0 0 0 0 1
Nghost:    10333 ave 10359 max 10307 min
Histogram: 1 0 0 0 0 0 0 0 0 1
Neighs:    438581 ave 444182 max 432980 min
Histogram: 1 0 0 0 0 0 0 0 0 1

Total # of neighbors = 877162
Ave neighs/atom = 44.6347
Neighbor list builds = 495
Dangerous builds not checked
Setting up Verlet run ...
  Unit style    : metal
  Current step  : 400495
  Time step     : 0.001
Per MPI rank memory allocation (min/avg/max) = 11.36 | 11.36 | 11.36 Mbytes
Step Temp Press TotEng PotEng Enthalpy 
  400495    1509.4312    199.04165   -20221.454   -24055.547   -20151.864 
  420000    1522.8836   -621.27022   -20259.555   -24127.818    -20476.74 
Loop time of 1358.21 on 2 procs for 19505 steps with 19652 atoms

Performance: 1.241 ns/day, 19.343 hours/ns, 14.361 timesteps/s
92.5% CPU use with 2 MPI tasks x no OpenMP threads

MPI task timing breakdown:
Section |  min time  |  avg time  |  max time  |%varavg| %total
---------------------------------------------------------------
Pair    | 679.6      | 685.64     | 691.68     |  23.1 | 50.48
Neigh   | 496.98     | 503.35     | 509.72     |  28.4 | 37.06
Comm    | 127.04     | 139.52     | 151.99     | 105.6 | 10.27
Output  | 0.45403    | 0.45406    | 0.45408    |   0.0 |  0.03
Modify  | 25.372     | 25.401     | 25.431     |   0.6 |  1.87
Other   |            | 3.849      |            |       |  0.28

Nlocal:    9826 ave 9867 max 9785 min
Histogram: 1 0 0 0 0 0 0 0 0 1
Nghost:    10394 ave 10409 max 10379 min
Histogram: 1 0 0 0 0 0 0 0 0 1
Neighs:    438488 ave 445546 max 431431 min
Histogram: 1 0 0 0 0 0 0 0 0 1

Total # of neighbors = 876977
Ave neighs/atom = 44.6253
Neighbor list builds = 19505
Dangerous builds not checked
Setting up Verlet run ...
  Unit style    : metal
  Current step  : 420000
  Time step     : 0.001
Per MPI rank memory allocation (min/avg/max) = 11.36 | 11.36 | 11.36 Mbytes
Step Temp Press TotEng PotEng Enthalpy 
  420000    1522.8836   -621.27022   -20259.555   -24127.818    -20476.74 
  420495    1467.7012   -197.42033   -20520.566   -24248.661   -20589.142 
Loop time of 43.4977 on 2 procs for 495 steps with 19652 atoms

Performance: 0.983 ns/day, 24.409 hours/ns, 11.380 timesteps/s
84.1% CPU use with 2 MPI tasks x no OpenMP threads

MPI task timing breakdown:
Section |  min time  |  avg time  |  max time  |%varavg| %total
---------------------------------------------------------------
Pair    | 17.093     | 17.652     | 18.21      |  13.3 | 40.58
Neigh   | 12.862     | 12.902     | 12.942     |   1.1 | 29.66
Comm    | 11.666     | 12.186     | 12.706     |  14.9 | 28.02
Output  | 6.485e-05  | 9.2983e-05 | 0.00012112 |   0.0 |  0.00
Modify  | 0.65531    | 0.65613    | 0.65695    |   0.1 |  1.51
Other   |            | 0.1019     |            |       |  0.23

Nlocal:    9826 ave 9848 max 9804 min
Histogram: 1 0 0 0 0 0 0 0 0 1
Nghost:    10415 ave 10427 max 10403 min
Histogram: 1 0 0 0 0 0 0 0 0 1
Neighs:    441248 ave 443746 max 438749 min
Histogram: 1 0 0 0 0 0 0 0 0 1

Total # of neighbors = 882495
Ave neighs/atom = 44.9061
Neighbor list builds = 495
Dangerous builds not checked
Setting up Verlet run ...
  Unit style    : metal
  Current step  : 420495
  Time step     : 0.001
Per MPI rank memory allocation (min/avg/max) = 11.36 | 11.36 | 11.36 Mbytes
Step Temp Press TotEng PotEng Enthalpy 
  420495    1467.7012   -197.42033   -20520.566   -24248.661   -20589.142 
  440000     1462.211    173.50272   -20566.529   -24280.678   -20506.459 
Loop time of 1389.57 on 2 procs for 19505 steps with 19652 atoms

Performance: 1.213 ns/day, 19.789 hours/ns, 14.037 timesteps/s
90.2% CPU use with 2 MPI tasks x no OpenMP threads

MPI task timing breakdown:
Section |  min time  |  avg time  |  max time  |%varavg| %total
---------------------------------------------------------------
Pair    | 684.99     | 685.28     | 685.58     |   1.1 | 49.32
Neigh   | 484.74     | 487.23     | 489.71     |  11.3 | 35.06
Comm    | 188.34     | 189.07     | 189.8      |   5.3 | 13.61
Output  | 0.079385   | 0.079403   | 0.079421   |   0.0 |  0.01
Modify  | 22.781     | 24.216     | 25.651     |  29.2 |  1.74
Other   |            | 3.699      |            |       |  0.27

Nlocal:    9826 ave 9832 max 9820 min
Histogram: 1 0 0 0 0 0 0 0 0 1
Nghost:    10396 ave 10426 max 10366 min
Histogram: 1 0 0 0 0 0 0 0 0 1
Neighs:    442571 ave 444979 max 440163 min
Histogram: 1 0 0 0 0 0 0 0 0 1

Total # of neighbors = 885142
Ave neighs/atom = 45.0408
Neighbor list builds = 19505
Dangerous builds not checked
Setting up Verlet run ...
  Unit style    : metal
  Current step  : 440000
  Time step     : 0.001
Per MPI rank memory allocation (min/avg/max) = 11.36 | 11.36 | 11.36 Mbytes
Step Temp Press TotEng PotEng Enthalpy 
  440000     1462.211    173.50272   -20566.529   -24280.678   -20506.459 
  440495    1421.2149   -141.03197   -20781.744    -24391.76   -20830.437 
Loop time of 30.9067 on 2 procs for 495 steps with 19652 atoms

Performance: 1.384 ns/day, 17.344 hours/ns, 16.016 timesteps/s
99.6% CPU use with 2 MPI tasks x no OpenMP threads

MPI task timing breakdown:
Section |  min time  |  avg time  |  max time  |%varavg| %total
---------------------------------------------------------------
Pair    | 16.18      | 16.237     | 16.295     |   1.4 | 52.54
Neigh   | 13.073     | 13.258     | 13.443     |   5.1 | 42.90
Comm    | 0.78151    | 0.91833    | 1.0551     |  14.3 |  2.97
Output  | 7.7963e-05 | 9.954e-05  | 0.00012112 |   0.0 |  0.00
Modify  | 0.38188    | 0.3895     | 0.39713    |   1.2 |  1.26
Other   |            | 0.1033     |            |       |  0.33

Nlocal:    9826 ave 9840 max 9812 min
Histogram: 1 0 0 0 0 0 0 0 0 1
Nghost:    10408 ave 10421 max 10395 min
Histogram: 1 0 0 0 0 0 0 0 0 1
Neighs:    444174 ave 448965 max 439384 min
Histogram: 1 0 0 0 0 0 0 0 0 1

Total # of neighbors = 888349
Ave neighs/atom = 45.204
Neighbor list builds = 495
Dangerous builds not checked
Setting up Verlet run ...
  Unit style    : metal
  Current step  : 440495
  Time step     : 0.001
Per MPI rank memory allocation (min/avg/max) = 11.36 | 11.36 | 11.36 Mbytes
Step Temp Press TotEng PotEng Enthalpy 
  440495    1421.2149   -141.03197   -20781.744    -24391.76   -20830.437 
  460000    1394.0098    428.68418   -20932.394   -24473.306   -20785.297 
Loop time of 1154.25 on 2 procs for 19505 steps with 19652 atoms

Performance: 1.460 ns/day, 16.438 hours/ns, 16.898 timesteps/s
99.2% CPU use with 2 MPI tasks x no OpenMP threads

MPI task timing breakdown:
Section |  min time  |  avg time  |  max time  |%varavg| %total
---------------------------------------------------------------
Pair    | 596.34     | 602.14     | 607.95     |  23.7 | 52.17
Neigh   | 476.8      | 481.78     | 486.77     |  22.7 | 41.74
Comm    | 41.142     | 52.017     | 62.892     | 150.8 |  4.51
Output  | 0.50245    | 0.50246    | 0.50247    |   0.0 |  0.04
Modify  | 14.126     | 14.16      | 14.193     |   0.9 |  1.23
Other   |            | 3.643      |            |       |  0.32

Nlocal:    9826 ave 9833 max 9819 min
Histogram: 1 0 0 0 0 0 0 0 0 1
Nghost:    10436 ave 10438 max 10434 min
Histogram: 1 0 0 0 0 0 0 0 0 1
Neighs:    447013 ave 450157 max 443869 min
Histogram: 1 0 0 0 0 0 0 0 0 1

Total # of neighbors = 894026
Ave neighs/atom = 45.4929
Neighbor list builds = 19505
Dangerous builds not checked
Setting up Verlet run ...
  Unit style    : metal
  Current step  : 460000
  Time step     : 0.001
Per MPI rank memory allocation (min/avg/max) = 11.36 | 11.36 | 11.36 Mbytes
Step Temp Press TotEng PotEng Enthalpy 
  460000    1394.0098    428.68418   -20932.394   -24473.306   -20785.297 
  460495    1364.3289    34.248819   -21084.801    -24550.32   -21073.058 
Loop time of 28.7964 on 2 procs for 495 steps with 19652 atoms

Performance: 1.485 ns/day, 16.160 hours/ns, 17.190 timesteps/s
99.1% CPU use with 2 MPI tasks x no OpenMP threads

MPI task timing breakdown:
Section |  min time  |  avg time  |  max time  |%varavg| %total
---------------------------------------------------------------
Pair    | 14.523     | 15.012     | 15.502     |  12.6 | 52.13
Neigh   | 11.175     | 11.805     | 12.436     |  18.3 | 41.00
Comm    | 1.3633     | 1.5298     | 1.6963     |  13.5 |  5.31
Output  | 7.2002e-05 | 0.00010252 | 0.00013304 |   0.0 |  0.00
Modify  | 0.33532    | 0.35481    | 0.3743     |   3.3 |  1.23
Other   |            | 0.09381    |            |       |  0.33

Nlocal:    9826 ave 9865 max 9787 min
Histogram: 1 0 0 0 0 0 0 0 0 1
Nghost:    10509 ave 10521 max 10497 min
Histogram: 1 0 0 0 0 0 0 0 0 1
Neighs:    447438 ave 454387 max 440489 min
Histogram: 1 0 0 0 0 0 0 0 0 1

Total # of neighbors = 894876
Ave neighs/atom = 45.5361
Neighbor list builds = 495
Dangerous builds not checked
Setting up Verlet run ...
  Unit style    : metal
  Current step  : 460495
  Time step     : 0.001
Per MPI rank memory allocation (min/avg/max) = 11.36 | 11.36 | 11.36 Mbytes
Step Temp Press TotEng PotEng Enthalpy 
  460495    1364.3289    34.248819   -21084.801    -24550.32   -21073.058 
  480000    1339.4383    4.8185705   -21203.182   -24605.477   -21201.534 
Loop time of 1217.92 on 2 procs for 19505 steps with 19652 atoms

Performance: 1.384 ns/day, 17.345 hours/ns, 16.015 timesteps/s
97.6% CPU use with 2 MPI tasks x no OpenMP threads

MPI task timing breakdown:
Section |  min time  |  avg time  |  max time  |%varavg| %total
---------------------------------------------------------------
Pair    | 622.91     | 632.78     | 642.65     |  39.2 | 51.96
Neigh   | 481.47     | 484.57     | 487.67     |  14.1 | 39.79
Comm    | 73.903     | 80.528     | 87.152     |  73.8 |  6.61
Output  | 0.18467    | 0.18468    | 0.1847     |   0.0 |  0.02
Modify  | 15.966     | 16.127     | 16.288     |   4.0 |  1.32
Other   |            | 3.728      |            |       |  0.31

Nlocal:    9826 ave 9852 max 9800 min
Histogram: 1 0 0 0 0 0 0 0 0 1
Nghost:    10484.5 ave 10523 max 10446 min
Histogram: 1 0 0 0 0 0 0 0 0 1
Neighs:    448428 ave 453728 max 443128 min
Histogram: 1 0 0 0 0 0 0 0 0 1

Total # of neighbors = 896856
Ave neighs/atom = 45.6369
Neighbor list builds = 19505
Dangerous builds not checked
Setting up Verlet run ...
  Unit style    : metal
  Current step  : 480000
  Time step     : 0.001
Per MPI rank memory allocation (min/avg/max) = 11.36 | 11.36 | 11.36 Mbytes
Step Temp Press TotEng PotEng Enthalpy 
  480000    1339.4383    4.8185705   -21203.182   -24605.477   -21201.534 
  480495    1314.1013   -28.585286    -21382.87   -24720.808   -21392.599 
Loop time of 35.2362 on 2 procs for 495 steps with 19652 atoms

Performance: 1.214 ns/day, 19.773 hours/ns, 14.048 timesteps/s
90.0% CPU use with 2 MPI tasks x no OpenMP threads

MPI task timing breakdown:
Section |  min time  |  avg time  |  max time  |%varavg| %total
---------------------------------------------------------------
Pair    | 17.28      | 18.119     | 18.959     |  19.7 | 51.42
Neigh   | 12.053     | 12.3       | 12.546     |   7.0 | 34.91
Comm    | 2.9035     | 3.9991     | 5.0948     |  54.8 | 11.35
Output  | 5.7936e-05 | 7.9989e-05 | 0.00010204 |   0.0 |  0.00
Modify  | 0.7137     | 0.72203    | 0.73037    |   1.0 |  2.05
Other   |            | 0.09615    |            |       |  0.27

Nlocal:    9826 ave 9834 max 9818 min
Histogram: 1 0 0 0 0 0 0 0 0 1
Nghost:    10470 ave 10484 max 10456 min
Histogram: 1 0 0 0 0 0 0 0 0 1
Neighs:    450652 ave 455130 max 446173 min
Histogram: 1 0 0 0 0 0 0 0 0 1

Total # of neighbors = 901303
Ave neighs/atom = 45.8632
Neighbor list builds = 495
Dangerous builds not checked
Setting up Verlet run ...
  Unit style    : metal
  Current step  : 480495
  Time step     : 0.001
Per MPI rank memory allocation (min/avg/max) = 11.36 | 11.36 | 11.36 Mbytes
Step Temp Press TotEng PotEng Enthalpy 
  480495    1314.1013   -28.585286    -21382.87   -24720.808   -21392.599 
  500000      1311.67   -114.17267   -21421.745   -24753.506   -21460.554 
Loop time of 1236.56 on 2 procs for 19505 steps with 19652 atoms

Performance: 1.363 ns/day, 17.610 hours/ns, 15.774 timesteps/s
92.9% CPU use with 2 MPI tasks x no OpenMP threads

MPI task timing breakdown:
Section |  min time  |  avg time  |  max time  |%varavg| %total
---------------------------------------------------------------
Pair    | 621.36     | 625.02     | 628.67     |  14.6 | 50.54
Neigh   | 459.55     | 462.02     | 464.49     |  11.5 | 37.36
Comm    | 120.5      | 121.29     | 122.07     |   7.1 |  9.81
Output  | 1.3622     | 1.3622     | 1.3622     |   0.0 |  0.11
Modify  | 23.047     | 23.406     | 23.765     |   7.4 |  1.89
Other   |            | 3.47       |            |       |  0.28

Nlocal:    9826 ave 9853 max 9799 min
Histogram: 1 0 0 0 0 0 0 0 0 1
Nghost:    10499.5 ave 10504 max 10495 min
Histogram: 1 0 0 0 0 0 0 0 0 1
Neighs:    451220 ave 457176 max 445263 min
Histogram: 1 0 0 0 0 0 0 0 0 1

Total # of neighbors = 902439
Ave neighs/atom = 45.921
Neighbor list builds = 19505
Dangerous builds not checked
Setting up Verlet run ...
  Unit style    : metal
  Current step  : 500000
  Time step     : 0.001
Per MPI rank memory allocation (min/avg/max) = 11.36 | 11.36 | 11.36 Mbytes
Step Temp Press TotEng PotEng Enthalpy 
  500000      1311.67   -114.17267   -21421.745   -24753.506   -21460.554 
  500495    1266.5064    9.6916552   -21637.242   -24854.284   -21633.963 
Loop time of 50.3312 on 2 procs for 495 steps with 19652 atoms

Performance: 0.850 ns/day, 28.244 hours/ns, 9.835 timesteps/s
79.2% CPU use with 2 MPI tasks x no OpenMP threads

MPI task timing breakdown:
Section |  min time  |  avg time  |  max time  |%varavg| %total
---------------------------------------------------------------
Pair    | 22.063     | 22.177     | 22.292     |   2.4 | 44.06
Neigh   | 12.574     | 12.674     | 12.773     |   2.8 | 25.18
Comm    | 14.247     | 14.454     | 14.661     |   5.4 | 28.72
Output  | 8.1778e-05 | 0.0075684  | 0.015055   |   8.6 |  0.02
Modify  | 0.90291    | 0.9114     | 0.9199     |   0.9 |  1.81
Other   |            | 0.1072     |            |       |  0.21

Nlocal:    9826 ave 9838 max 9814 min
Histogram: 1 0 0 0 0 0 0 0 0 1
Nghost:    10470 ave 10476 max 10464 min
Histogram: 1 0 0 0 0 0 0 0 0 1
Neighs:    453514 ave 458566 max 448463 min
Histogram: 1 0 0 0 0 0 0 0 0 1

Total # of neighbors = 907029
Ave neighs/atom = 46.1545
Neighbor list builds = 495
Dangerous builds not checked
Setting up Verlet run ...
  Unit style    : metal
  Current step  : 500495
  Time step     : 0.001
Per MPI rank memory allocation (min/avg/max) = 11.36 | 11.36 | 11.36 Mbytes
Step Temp Press TotEng PotEng Enthalpy 
  500495    1266.5064    9.6916552   -21637.242   -24854.284   -21633.963 
  520000     1252.894    128.96673   -21830.189   -25012.654    -21786.78 
Loop time of 1221.09 on 2 procs for 19505 steps with 19652 atoms

Performance: 1.380 ns/day, 17.390 hours/ns, 15.973 timesteps/s
98.3% CPU use with 2 MPI tasks x no OpenMP threads

MPI task timing breakdown:
Section |  min time  |  avg time  |  max time  |%varavg| %total
---------------------------------------------------------------
Pair    | 641.64     | 644.94     | 648.24     |  13.0 | 52.82
Neigh   | 477.41     | 478.58     | 479.75     |   5.3 | 39.19
Comm    | 77.004     | 79.069     | 81.134     |  23.2 |  6.48
Output  | 0.40602    | 0.40603    | 0.40605    |   0.0 |  0.03
Modify  | 14.465     | 14.501     | 14.538     |   1.0 |  1.19
Other   |            | 3.596      |            |       |  0.29

Nlocal:    9826 ave 9839 max 9813 min
Histogram: 1 0 0 0 0 0 0 0 0 1
Nghost:    10531.5 ave 10532 max 10531 min
Histogram: 1 0 0 0 0 0 0 0 0 1
Neighs:    456084 ave 459429 max 452739 min
Histogram: 1 0 0 0 0 0 0 0 0 1

Total # of neighbors = 912168
Ave neighs/atom = 46.416
Neighbor list builds = 19505
Dangerous builds not checked
Setting up Verlet run ...
  Unit style    : metal
  Current step  : 520000
  Time step     : 0.001
Per MPI rank memory allocation (min/avg/max) = 11.36 | 11.36 | 11.36 Mbytes
Step Temp Press TotEng PotEng Enthalpy 
  520000     1252.894    128.96673   -21830.189   -25012.654    -21786.78 
  520495    1214.6448   -47.582466   -21942.523   -25027.831   -21958.526 
Loop time of 32.7002 on 2 procs for 495 steps with 19652 atoms

Performance: 1.308 ns/day, 18.350 hours/ns, 15.138 timesteps/s
92.5% CPU use with 2 MPI tasks x no OpenMP threads

MPI task timing breakdown:
Section |  min time  |  avg time  |  max time  |%varavg| %total
---------------------------------------------------------------
Pair    | 15.541     | 15.949     | 16.357     |  10.2 | 48.77
Neigh   | 11.347     | 11.467     | 11.587     |   3.5 | 35.07
Comm    | 3.8052     | 4.3812     | 4.9571     |  27.5 | 13.40
Output  | 5.1975e-05 | 6.8903e-05 | 8.5831e-05 |   0.0 |  0.00
Modify  | 0.767      | 0.81411    | 0.86123    |   5.2 |  2.49
Other   |            | 0.08889    |            |       |  0.27

Nlocal:    9826 ave 9838 max 9814 min
Histogram: 1 0 0 0 0 0 0 0 0 1
Nghost:    10591.5 ave 10593 max 10590 min
Histogram: 1 0 0 0 0 0 0 0 0 1
Neighs:    456517 ave 460130 max 452904 min
Histogram: 1 0 0 0 0 0 0 0 0 1

Total # of neighbors = 913034
Ave neighs/atom = 46.4601
Neighbor list builds = 495
Dangerous builds not checked
Setting up Verlet run ...
  Unit style    : metal
  Current step  : 520495
  Time step     : 0.001
Per MPI rank memory allocation (min/avg/max) = 11.36 | 11.36 | 11.36 Mbytes
Step Temp Press TotEng PotEng Enthalpy 
  520495    1214.6448   -47.582466   -21942.523   -25027.831   -21958.526 
  540000    1196.5798   -233.40608   -22069.056   -25108.477   -22147.324 
Loop time of 1249.67 on 2 procs for 19505 steps with 19652 atoms

Performance: 1.349 ns/day, 17.797 hours/ns, 15.608 timesteps/s
97.4% CPU use with 2 MPI tasks x no OpenMP threads

MPI task timing breakdown:
Section |  min time  |  avg time  |  max time  |%varavg| %total
---------------------------------------------------------------
Pair    | 634.56     | 649.58     | 664.6      |  58.9 | 51.98
Neigh   | 470.63     | 480.32     | 490.01     |  44.2 | 38.44
Comm    | 75.602     | 100.44     | 125.29     | 247.9 |  8.04
Output  | 0.15173    | 0.15175    | 0.15177    |   0.0 |  0.01
Modify  | 15.521     | 15.531     | 15.541     |   0.2 |  1.24
Other   |            | 3.64       |            |       |  0.29

Nlocal:    9826 ave 9834 max 9818 min
Histogram: 1 0 0 0 0 0 0 0 0 1
Nghost:    10567 ave 10570 max 10564 min
Histogram: 1 0 0 0 0 0 0 0 0 1
Neighs:    457892 ave 461941 max 453843 min
Histogram: 1 0 0 0 0 0 0 0 0 1

Total # of neighbors = 915784
Ave neighs/atom = 46.6
Neighbor list builds = 19505
Dangerous builds not checked
Setting up Verlet run ...
  Unit style    : metal
  Current step  : 540000
  Time step     : 0.001
Per MPI rank memory allocation (min/avg/max) = 11.36 | 11.36 | 11.36 Mbytes
Step Temp Press TotEng PotEng Enthalpy 
  540000    1196.5798   -233.40608   -22069.056   -25108.477   -22147.324 
  540495    1163.4238   -34.566401   -22253.479   -25208.681   -22265.022 
Loop time of 31.3639 on 2 procs for 495 steps with 19652 atoms

Performance: 1.364 ns/day, 17.600 hours/ns, 15.782 timesteps/s
99.8% CPU use with 2 MPI tasks x no OpenMP threads

MPI task timing breakdown:
Section |  min time  |  avg time  |  max time  |%varavg| %total
---------------------------------------------------------------
Pair    | 16.439     | 16.686     | 16.932     |   6.0 | 53.20
Neigh   | 12.29      | 12.488     | 12.686     |   5.6 | 39.82
Comm    | 1.2675     | 1.7139     | 2.1604     |  34.1 |  5.46
Output  | 9.0837e-05 | 0.00010943 | 0.00012803 |   0.0 |  0.00
Modify  | 0.37872    | 0.37963    | 0.38055    |   0.1 |  1.21
Other   |            | 0.09656    |            |       |  0.31

Nlocal:    9826 ave 9855 max 9797 min
Histogram: 1 0 0 0 0 0 0 0 0 1
Nghost:    10607.5 ave 10620 max 10595 min
Histogram: 1 0 0 0 0 0 0 0 0 1
Neighs:    459952 ave 465551 max 454352 min
Histogram: 1 0 0 0 0 0 0 0 0 1

Total # of neighbors = 919903
Ave neighs/atom = 46.8096
Neighbor list builds = 495
Dangerous builds not checked
Setting up Verlet run ...
  Unit style    : metal
  Current step  : 540495
  Time step     : 0.001
Per MPI rank memory allocation (min/avg/max) = 11.36 | 11.36 | 11.36 Mbytes
Step Temp Press TotEng PotEng Enthalpy 
  540495    1163.4238   -34.566401   -22253.479   -25208.681   -22265.022 
  560000    1150.3951   -405.02215   -22331.765   -25253.874   -22466.882 
Loop time of 1298.42 on 2 procs for 19505 steps with 19652 atoms

Performance: 1.298 ns/day, 18.491 hours/ns, 15.022 timesteps/s
98.8% CPU use with 2 MPI tasks x no OpenMP threads

MPI task timing breakdown:
Section |  min time  |  avg time  |  max time  |%varavg| %total
---------------------------------------------------------------
Pair    | 687.44     | 694.94     | 702.45     |  28.5 | 53.52
Neigh   | 495.96     | 502.25     | 508.55     |  28.1 | 38.68
Comm    | 64.238     | 78.11      | 91.982     | 157.0 |  6.02
Output  | 0.055368   | 0.055382   | 0.055397   |   0.0 |  0.00
Modify  | 19.144     | 19.187     | 19.229     |   1.0 |  1.48
Other   |            | 3.869      |            |       |  0.30

Nlocal:    9826 ave 9852 max 9800 min
Histogram: 1 0 0 0 0 0 0 0 0 1
Nghost:    10605 ave 10606 max 10604 min
Histogram: 1 0 0 0 0 0 0 0 0 1
Neighs:    460210 ave 462817 max 457603 min
Histogram: 1 0 0 0 0 0 0 0 0 1

Total # of neighbors = 920420
Ave neighs/atom = 46.8359
Neighbor list builds = 19505
Dangerous builds not checked
Setting up Verlet run ...
  Unit style    : metal
  Current step  : 560000
  Time step     : 0.001
Per MPI rank memory allocation (min/avg/max) = 11.36 | 11.36 | 11.36 Mbytes
Step Temp Press TotEng PotEng Enthalpy 
  560000    1150.3951   -405.02215   -22331.765   -25253.874   -22466.882 
  560495    1110.3153   -128.04125   -22524.666   -25344.968   -22567.199 
[...]
Neighs:    517900 ave 518077 max 517722 min
Histogram: 1 0 0 0 0 0 0 0 0 1

Total # of neighbors = 1035799
Ave neighs/atom = 52.7071
Neighbor list builds = 19505
Dangerous builds not checked
Setting up Verlet run ...
  Unit style    : metal
  Current step  : 840000
  Time step     : 0.001
Per MPI rank memory allocation (min/avg/max) = 11.36 | 11.36 | 11.36 Mbytes
Step Temp Press TotEng PotEng Enthalpy 
  840000    450.98954    422.91744   -26781.801   -27927.356   -26654.085 
  840495    419.28938   -336.38865   -26938.109   -28003.142   -27039.698 
Loop time of 34.0699 on 2 procs for 495 steps with 19652 atoms

Performance: 1.255 ns/day, 19.119 hours/ns, 14.529 timesteps/s
99.9% CPU use with 2 MPI tasks x no OpenMP threads

MPI task timing breakdown:
Section |  min time  |  avg time  |  max time  |%varavg| %total
---------------------------------------------------------------
Pair    | 17.697     | 18.146     | 18.594     |  10.5 | 53.26
Neigh   | 13.822     | 13.935     | 14.048     |   3.0 | 40.90
Comm    | 0.88538    | 1.4592     | 2.0331     |  47.5 |  4.28
Output  | 8.3923e-05 | 0.00012493 | 0.00016594 |   0.0 |  0.00
Modify  | 0.4048     | 0.41881    | 0.43281    |   2.2 |  1.23
Other   |            | 0.1109     |            |       |  0.33

Nlocal:    9826 ave 9836 max 9816 min
Histogram: 1 0 0 0 0 0 0 0 0 1
Nghost:    11010 ave 11015 max 11005 min
Histogram: 1 0 0 0 0 0 0 0 0 1
Neighs:    518262 ave 518779 max 517745 min
Histogram: 1 0 0 0 0 0 0 0 0 1

Total # of neighbors = 1036524
Ave neighs/atom = 52.7439
Neighbor list builds = 495
Dangerous builds not checked
Setting up Verlet run ...
  Unit style    : metal
  Current step  : 840495
  Time step     : 0.001
Per MPI rank memory allocation (min/avg/max) = 11.36 | 11.36 | 11.36 Mbytes
Step Temp Press TotEng PotEng Enthalpy 
  840495    419.28938   -336.38865   -26938.109   -28003.142   -27039.698 
  860000    397.70106    408.98721   -27125.439   -28135.636   -27002.824 
Loop time of 1386.44 on 2 procs for 19505 steps with 19652 atoms

Performance: 1.216 ns/day, 19.745 hours/ns, 14.068 timesteps/s
98.3% CPU use with 2 MPI tasks x no OpenMP threads

MPI task timing breakdown:
Section |  min time  |  avg time  |  max time  |%varavg| %total
---------------------------------------------------------------
Pair    | 742.96     | 744.69     | 746.42     |   6.4 | 53.71
Neigh   | 562.91     | 563.75     | 564.59     |   3.5 | 40.66
Comm    | 54.338     | 57.034     | 59.729     |  35.7 |  4.11
Output  | 0.061737   | 0.061751   | 0.061766   |   0.0 |  0.00
Modify  | 16.541     | 16.585     | 16.628     |   1.1 |  1.20
Other   |            | 4.317      |            |       |  0.31

Nlocal:    9826 ave 9838 max 9814 min
Histogram: 1 0 0 0 0 0 0 0 0 1
Nghost:    11067.5 ave 11075 max 11060 min
Histogram: 1 0 0 0 0 0 0 0 0 1
Neighs:    523063 ave 523762 max 522364 min
Histogram: 1 0 0 0 0 0 0 0 0 1

Total # of neighbors = 1046126
Ave neighs/atom = 53.2325
Neighbor list builds = 19505
Dangerous builds not checked
Setting up Verlet run ...
  Unit style    : metal
  Current step  : 860000
  Time step     : 0.001
Per MPI rank memory allocation (min/avg/max) = 11.36 | 11.36 | 11.36 Mbytes
Step Temp Press TotEng PotEng Enthalpy 
  860000    397.70106    408.98721   -27125.439   -28135.636   -27002.824 
  860495    369.09233   -282.18735    -27271.06   -28208.589   -27355.637 
Loop time of 31.4904 on 2 procs for 495 steps with 19652 atoms

Performance: 1.358 ns/day, 17.671 hours/ns, 15.719 timesteps/s
99.3% CPU use with 2 MPI tasks x no OpenMP threads

MPI task timing breakdown:
Section |  min time  |  avg time  |  max time  |%varavg| %total
---------------------------------------------------------------
Pair    | 16.64      | 16.784     | 16.927     |   3.5 | 53.30
Neigh   | 13.231     | 13.347     | 13.463     |   3.2 | 42.38
Comm    | 0.85492    | 0.88297    | 0.91103    |   3.0 |  2.80
Output  | 0.00010204 | 0.00013411 | 0.00016618 |   0.0 |  0.00
Modify  | 0.37488    | 0.37585    | 0.37682    |   0.2 |  1.19
Other   |            | 0.1008     |            |       |  0.32

Nlocal:    9826 ave 9835 max 9817 min
Histogram: 1 0 0 0 0 0 0 0 0 1
Nghost:    11074 ave 11097 max 11051 min
Histogram: 1 0 0 0 0 0 0 0 0 1
Neighs:    523465 ave 523929 max 523001 min
Histogram: 1 0 0 0 0 0 0 0 0 1

Total # of neighbors = 1046930
Ave neighs/atom = 53.2735
Neighbor list builds = 495
Dangerous builds not checked
Setting up Verlet run ...
  Unit style    : metal
  Current step  : 860495
  Time step     : 0.001
Per MPI rank memory allocation (min/avg/max) = 11.36 | 11.36 | 11.36 Mbytes
Step Temp Press TotEng PotEng Enthalpy 
  860495    369.09233   -282.18735    -27271.06   -28208.589   -27355.637 
  880000    346.05824   -362.96618   -27437.465   -28316.485   -27545.831 
Loop time of 1450.31 on 2 procs for 19505 steps with 19652 atoms

Performance: 1.162 ns/day, 20.654 hours/ns, 13.449 timesteps/s
97.6% CPU use with 2 MPI tasks x no OpenMP threads

MPI task timing breakdown:
Section |  min time  |  avg time  |  max time  |%varavg| %total
---------------------------------------------------------------
Pair    | 775.98     | 781.33     | 786.68     |  19.2 | 53.87
Neigh   | 565.29     | 568.66     | 572.03     |  14.1 | 39.21
Comm    | 76.05      | 77.994     | 79.937     |  22.0 |  5.38
Output  | 0.058259   | 0.058284   | 0.058308   |   0.0 |  0.00
Modify  | 17.778     | 17.787     | 17.795     |   0.2 |  1.23
Other   |            | 4.486      |            |       |  0.31

Nlocal:    9826 ave 9832 max 9820 min
Histogram: 1 0 0 0 0 0 0 0 0 1
Nghost:    11057 ave 11087 max 11027 min
Histogram: 1 0 0 0 0 0 0 0 0 1
Neighs:    526093 ave 526103 max 526083 min
Histogram: 1 0 0 0 0 0 0 0 0 1

Total # of neighbors = 1052186
Ave neighs/atom = 53.5409
Neighbor list builds = 19505
Dangerous builds not checked
Setting up Verlet run ...
  Unit style    : metal
  Current step  : 880000
  Time step     : 0.001
Per MPI rank memory allocation (min/avg/max) = 11.36 | 11.36 | 11.36 Mbytes
Step Temp Press TotEng PotEng Enthalpy 
  880000    346.05824   -362.96618   -27437.465   -28316.485   -27545.831 
  880495    325.32681    260.49682   -27582.946   -28409.305   -27505.567 
Loop time of 33.4556 on 2 procs for 495 steps with 19652 atoms

Performance: 1.278 ns/day, 18.774 hours/ns, 14.796 timesteps/s
100.0% CPU use with 2 MPI tasks x no OpenMP threads

MPI task timing breakdown:
Section |  min time  |  avg time  |  max time  |%varavg| %total
---------------------------------------------------------------
Pair    | 17.551     | 17.888     | 18.226     |   8.0 | 53.47
Neigh   | 13.129     | 13.588     | 14.048     |  12.5 | 40.62
Comm    | 0.65082    | 1.4668     | 2.2828     |  67.4 |  4.38
Output  | 0.0001111  | 0.00014555 | 0.00018001 |   0.0 |  0.00
Modify  | 0.39331    | 0.40228    | 0.41125    |   1.4 |  1.20
Other   |            | 0.1095     |            |       |  0.33

Nlocal:    9826 ave 9832 max 9820 min
Histogram: 1 0 0 0 0 0 0 0 0 1
Nghost:    11089 ave 11129 max 11049 min
Histogram: 1 0 0 0 0 0 0 0 0 1
Neighs:    529357 ave 529557 max 529157 min
Histogram: 1 0 0 0 0 0 0 0 0 1

Total # of neighbors = 1058714
Ave neighs/atom = 53.8731
Neighbor list builds = 495
Dangerous builds not checked
Setting up Verlet run ...
  Unit style    : metal
  Current step  : 880495
  Time step     : 0.001
Per MPI rank memory allocation (min/avg/max) = 11.36 | 11.36 | 11.36 Mbytes
Step Temp Press TotEng PotEng Enthalpy 
  880495    325.32681    260.49682   -27582.946   -28409.305   -27505.567 
  900000    301.39953    49.281261   -27735.409   -28500.991   -27720.808 
Loop time of 1408.14 on 2 procs for 19505 steps with 19652 atoms

Performance: 1.197 ns/day, 20.054 hours/ns, 13.852 timesteps/s
98.9% CPU use with 2 MPI tasks x no OpenMP threads

MPI task timing breakdown:
Section |  min time  |  avg time  |  max time  |%varavg| %total
---------------------------------------------------------------
Pair    | 757.79     | 763.51     | 769.23     |  20.7 | 54.22
Neigh   | 560.31     | 565.14     | 569.96     |  20.3 | 40.13
Comm    | 47.191     | 58.031     | 68.87      | 142.3 |  4.12
Output  | 0.059662   | 0.059686   | 0.05971    |   0.0 |  0.00
Modify  | 16.771     | 16.904     | 17.037     |   3.2 |  1.20
Other   |            | 4.504      |            |       |  0.32

Nlocal:    9826 ave 9834 max 9818 min
Histogram: 1 0 0 0 0 0 0 0 0 1
Nghost:    11081.5 ave 11104 max 11059 min
Histogram: 1 0 0 0 0 0 0 0 0 1
Neighs:    531456 ave 532676 max 530237 min
Histogram: 1 0 0 0 0 0 0 0 0 1

Total # of neighbors = 1062913
Ave neighs/atom = 54.0868
Neighbor list builds = 19505
Dangerous builds not checked
Setting up Verlet run ...
  Unit style    : metal
  Current step  : 900000
  Time step     : 0.001
Per MPI rank memory allocation (min/avg/max) = 11.36 | 11.36 | 11.36 Mbytes
Step Temp Press TotEng PotEng Enthalpy 
  900000    301.39953    49.281261   -27735.409   -28500.991   -27720.808 
  900495    272.65231    181.06132   -27883.898   -28576.459   -27830.441 
Loop time of 37.2572 on 2 procs for 495 steps with 19652 atoms

Performance: 1.148 ns/day, 20.908 hours/ns, 13.286 timesteps/s
99.6% CPU use with 2 MPI tasks x no OpenMP threads

MPI task timing breakdown:
Section |  min time  |  avg time  |  max time  |%varavg| %total
---------------------------------------------------------------
Pair    | 19.219     | 20.364     | 21.509     |  25.4 | 54.66
Neigh   | 14.185     | 14.325     | 14.464     |   3.7 | 38.45
Comm    | 0.65888    | 1.9731     | 3.2873     |  93.6 |  5.30
Output  | 9.799e-05  | 0.00014102 | 0.00018406 |   0.0 |  0.00
Modify  | 0.44993    | 0.4737     | 0.49747    |   3.5 |  1.27
Other   |            | 0.122      |            |       |  0.33

Nlocal:    9826 ave 9830 max 9822 min
Histogram: 1 0 0 0 0 0 0 0 0 1
Nghost:    11086 ave 11090 max 11082 min
Histogram: 1 0 0 0 0 0 0 0 0 1
Neighs:    533454 ave 534570 max 532339 min
Histogram: 1 0 0 0 0 0 0 0 0 1

Total # of neighbors = 1066909
Ave neighs/atom = 54.2901
Neighbor list builds = 495
Dangerous builds not checked
Setting up Verlet run ...
  Unit style    : metal
  Current step  : 900495
  Time step     : 0.001
Per MPI rank memory allocation (min/avg/max) = 11.36 | 11.36 | 11.36 Mbytes
Step Temp Press TotEng PotEng Enthalpy 
  900495    272.65231    181.06132   -27883.898   -28576.459   -27830.441 
  920000    249.27851   -24.071996   -28027.723   -28660.913   -28034.814 
Loop time of 1434.47 on 2 procs for 19505 steps with 19652 atoms

Performance: 1.175 ns/day, 20.429 hours/ns, 13.597 timesteps/s
98.2% CPU use with 2 MPI tasks x no OpenMP threads

MPI task timing breakdown:
Section |  min time  |  avg time  |  max time  |%varavg| %total
---------------------------------------------------------------
Pair    | 767.37     | 776.3      | 785.23     |  32.0 | 54.12
Neigh   | 562.58     | 568.14     | 573.71     |  23.3 | 39.61
Comm    | 52.326     | 67.213     | 82.1       | 181.6 |  4.69
Output  | 0.22478    | 0.22482    | 0.22485    |   0.0 |  0.02
Modify  | 17.871     | 18.103     | 18.335     |   5.4 |  1.26
Other   |            | 4.48       |            |       |  0.31

Nlocal:    9826 ave 9828 max 9824 min
Histogram: 1 0 0 0 0 0 0 0 0 1
Nghost:    11103.5 ave 11105 max 11102 min
Histogram: 1 0 0 0 0 0 0 0 0 1
Neighs:    534862 ave 534865 max 534860 min
Histogram: 1 0 0 0 0 0 0 0 0 1

Total # of neighbors = 1069725
Ave neighs/atom = 54.4334
Neighbor list builds = 19505
Dangerous builds not checked
Setting up Verlet run ...
  Unit style    : metal
  Current step  : 920000
  Time step     : 0.001
Per MPI rank memory allocation (min/avg/max) = 11.36 | 11.36 | 11.36 Mbytes
Step Temp Press TotEng PotEng Enthalpy 
  920000    249.27851   -24.071996   -28027.723   -28660.913   -28034.814 
  920495    224.98651    233.62644   -28160.894    -28732.38   -28092.305 
Loop time of 35.0627 on 2 procs for 495 steps with 19652 atoms

Performance: 1.220 ns/day, 19.676 hours/ns, 14.118 timesteps/s
100.0% CPU use with 2 MPI tasks x no OpenMP threads

MPI task timing breakdown:
Section |  min time  |  avg time  |  max time  |%varavg| %total
---------------------------------------------------------------
Pair    | 18.885     | 19.071     | 19.258     |   4.3 | 54.39
Neigh   | 13.162     | 13.461     | 13.759     |   8.1 | 38.39
Comm    | 1.4897     | 1.9887     | 2.4878     |  35.4 |  5.67
Output  | 9.5129e-05 | 0.00011909 | 0.00014305 |   0.0 |  0.00
Modify  | 0.4165     | 0.42708    | 0.43766    |   1.6 |  1.22
Other   |            | 0.1148     |            |       |  0.33

Nlocal:    9826 ave 9831 max 9821 min
Histogram: 1 0 0 0 0 0 0 0 0 1
Nghost:    11118.5 ave 11135 max 11102 min
Histogram: 1 0 0 0 0 0 0 0 0 1
Neighs:    537384 ave 537715 max 537053 min
Histogram: 1 0 0 0 0 0 0 0 0 1

Total # of neighbors = 1074768
Ave neighs/atom = 54.69
Neighbor list builds = 495
Dangerous builds not checked
Setting up Verlet run ...
  Unit style    : metal
  Current step  : 920495
  Time step     : 0.001
Per MPI rank memory allocation (min/avg/max) = 11.36 | 11.36 | 11.36 Mbytes
Step Temp Press TotEng PotEng Enthalpy 
  920495    224.98651    233.62644   -28160.894    -28732.38   -28092.305 
  940000    200.30861   -317.17742   -28297.783   -28806.585   -28390.819 
Loop time of 1427.56 on 2 procs for 19505 steps with 19652 atoms

Performance: 1.180 ns/day, 20.330 hours/ns, 13.663 timesteps/s
97.9% CPU use with 2 MPI tasks x no OpenMP threads

MPI task timing breakdown:
Section |  min time  |  avg time  |  max time  |%varavg| %total
---------------------------------------------------------------
Pair    | 773.15     | 776.53     | 779.91     |  12.1 | 54.40
Neigh   | 563.22     | 565.8      | 568.38     |  10.8 | 39.63
Comm    | 62.308     | 63.194     | 64.081     |  11.2 |  4.43
Output  | 0.058766   | 0.058789   | 0.058812   |   0.0 |  0.00
Modify  | 17.39      | 17.398     | 17.406     |   0.2 |  1.22
Other   |            | 4.58       |            |       |  0.32

Nlocal:    9826 ave 9837 max 9815 min
Histogram: 1 0 0 0 0 0 0 0 0 1
Nghost:    11139.5 ave 11143 max 11136 min
Histogram: 1 0 0 0 0 0 0 0 0 1
Neighs:    537936 ave 538581 max 537292 min
Histogram: 1 0 0 0 0 0 0 0 0 1

Total # of neighbors = 1075873
Ave neighs/atom = 54.7462
Neighbor list builds = 19505
Dangerous builds not checked
Setting up Verlet run ...
  Unit style    : metal
  Current step  : 940000
  Time step     : 0.001
Per MPI rank memory allocation (min/avg/max) = 11.36 | 11.36 | 11.36 Mbytes
Step Temp Press TotEng PotEng Enthalpy 
  940000    200.30861   -317.17742   -28297.783   -28806.585   -28390.819 
  940495    176.03199   -177.88737   -28428.856   -28875.994   -28480.882 
Loop time of 33.047 on 2 procs for 495 steps with 19652 atoms

Performance: 1.294 ns/day, 18.545 hours/ns, 14.979 timesteps/s
99.8% CPU use with 2 MPI tasks x no OpenMP threads

MPI task timing breakdown:
Section |  min time  |  avg time  |  max time  |%varavg| %total
---------------------------------------------------------------
Pair    | 17.359     | 17.761     | 18.162     |   9.5 | 53.74
Neigh   | 13.201     | 13.376     | 13.552     |   4.8 | 40.48
Comm    | 0.82341    | 1.4166     | 2.0098     |  49.8 |  4.29
Output  | 8.9169e-05 | 0.00011957 | 0.00014997 |   0.0 |  0.00
Modify  | 0.38214    | 0.39289    | 0.40365    |   1.7 |  1.19
Other   |            | 0.1004     |            |       |  0.30

Nlocal:    9826 ave 9835 max 9817 min
Histogram: 1 0 0 0 0 0 0 0 0 1
Nghost:    11152.5 ave 11161 max 11144 min
Histogram: 1 0 0 0 0 0 0 0 0 1
Neighs:    540214 ave 540244 max 540185 min
Histogram: 1 0 0 0 0 0 0 0 0 1

Total # of neighbors = 1080429
Ave neighs/atom = 54.9781
Neighbor list builds = 495
Dangerous builds not checked
Setting up Verlet run ...
  Unit style    : metal
  Current step  : 940495
  Time step     : 0.001
Per MPI rank memory allocation (min/avg/max) = 11.36 | 11.36 | 11.36 Mbytes
Step Temp Press TotEng PotEng Enthalpy 
  940495    176.03199   -177.88737   -28428.856   -28875.994   -28480.882 
  960000    150.80968    208.24887   -28569.709   -28952.779   -28509.025 
Loop time of 1391.76 on 2 procs for 19505 steps with 19652 atoms

Performance: 1.211 ns/day, 19.821 hours/ns, 14.015 timesteps/s
98.3% CPU use with 2 MPI tasks x no OpenMP threads

MPI task timing breakdown:
Section |  min time  |  avg time  |  max time  |%varavg| %total
---------------------------------------------------------------
Pair    | 750.93     | 754.15     | 757.37     |  11.7 | 54.19
Neigh   | 553.78     | 553.93     | 554.08     |   0.6 | 39.80
Comm    | 58.565     | 61.99      | 65.415     |  43.5 |  4.45
Output  | 0.063878   | 0.063884   | 0.063889   |   0.0 |  0.00
Modify  | 17.128     | 17.132     | 17.135     |   0.1 |  1.23
Other   |            | 4.496      |            |       |  0.32

Nlocal:    9826 ave 9831 max 9821 min
Histogram: 1 0 0 0 0 0 0 0 0 1
Nghost:    11172.5 ave 11177 max 11168 min
Histogram: 1 0 0 0 0 0 0 0 0 1
Neighs:    542326 ave 542974 max 541679 min
Histogram: 1 0 0 0 0 0 0 0 0 1

Total # of neighbors = 1084653
Ave neighs/atom = 55.193
Neighbor list builds = 19505
Dangerous builds not checked
Setting up Verlet run ...
  Unit style    : metal
  Current step  : 960000
  Time step     : 0.001
Per MPI rank memory allocation (min/avg/max) = 11.36 | 11.36 | 11.36 Mbytes
Step Temp Press TotEng PotEng Enthalpy 
  960000    150.80968    208.24887   -28569.709   -28952.779   -28509.025 
  960495    126.84543   -168.39366   -28690.034   -29012.233   -28739.061 
Loop time of 47.2122 on 2 procs for 495 steps with 19652 atoms

Performance: 0.906 ns/day, 26.494 hours/ns, 10.485 timesteps/s
89.3% CPU use with 2 MPI tasks x no OpenMP threads

MPI task timing breakdown:
Section |  min time  |  avg time  |  max time  |%varavg| %total
---------------------------------------------------------------
Pair    | 25.346     | 26.224     | 27.103     |  17.2 | 55.55
Neigh   | 15.822     | 16.173     | 16.524     |   8.7 | 34.26
Comm    | 2.654      | 3.9113     | 5.1686     |  63.6 |  8.28
Output  | 0.00019813 | 0.00023758 | 0.00027704 |   0.0 |  0.00
Modify  | 0.74244    | 0.75312    | 0.76379    |   1.2 |  1.60
Other   |            | 0.1499     |            |       |  0.32

Nlocal:    9826 ave 9827 max 9825 min
Histogram: 1 0 0 0 0 0 0 0 0 1
Nghost:    11158 ave 11171 max 11145 min
Histogram: 1 0 0 0 0 0 0 0 0 1
Neighs:    542880 ave 543338 max 542422 min
Histogram: 1 0 0 0 0 0 0 0 0 1

Total # of neighbors = 1085760
Ave neighs/atom = 55.2493
Neighbor list builds = 495
Dangerous builds not checked
Setting up Verlet run ...
  Unit style    : metal
  Current step  : 960495
  Time step     : 0.001
Per MPI rank memory allocation (min/avg/max) = 11.36 | 11.36 | 11.36 Mbytes
Step Temp Press TotEng PotEng Enthalpy 
  960495    126.84543   -168.39366   -28690.034   -29012.233   -28739.061 
  980000    100.29545     75.54937   -28833.968   -29088.727   -28812.043 
Loop time of 1406.91 on 2 procs for 19505 steps with 19652 atoms

Performance: 1.198 ns/day, 20.036 hours/ns, 13.864 timesteps/s
97.8% CPU use with 2 MPI tasks x no OpenMP threads

MPI task timing breakdown:
Section |  min time  |  avg time  |  max time  |%varavg| %total
---------------------------------------------------------------
Pair    | 762.35     | 762.89     | 763.42     |   1.9 | 54.22
Neigh   | 555.08     | 558.78     | 562.48     |  15.6 | 39.72
Comm    | 58.968     | 63.38      | 67.791     |  55.4 |  4.50
Output  | 0.061199   | 0.061217   | 0.061236   |   0.0 |  0.00
Modify  | 17.181     | 17.286     | 17.391     |   2.5 |  1.23
Other   |            | 4.52       |            |       |  0.32

Nlocal:    9826 ave 9833 max 9819 min
Histogram: 1 0 0 0 0 0 0 0 0 1
Nghost:    11184.5 ave 11188 max 11181 min
Histogram: 1 0 0 0 0 0 0 0 0 1
Neighs:    545232 ave 545586 max 544878 min
Histogram: 1 0 0 0 0 0 0 0 0 1

Total # of neighbors = 1090464
Ave neighs/atom = 55.4887
Neighbor list builds = 19505
Dangerous builds not checked
Total wall time: 18:29:37
