LAMMPS (12 Dec 2018)
Lattice spacing in x,y,z = 4 4 4
Created orthogonal box = (0 0 0) to (68 68 68)
  1 by 1 by 2 MPI processor grid
Created 19652 atoms
  Time spent = 0.00167394 secs
Setting atom values ...
  19652 settings made for type/fraction
Neighbor list info ...
  update every 1 steps, delay 0 steps, check no
  max neighbors/atom: 2000, page size: 100000
  master list distance cutoff = 8.5
  ghost atom cutoff = 8.5
  binsize = 4.25, bins = 16 16 16
  1 neighbor lists, perpetual/occasional/extra = 1 0 0
  (1) pair eam/alloy, perpetual
      attributes: half, newton on
      pair build: half/bin/atomonly/newton
      stencil: half/bin/3d/newton
      bin: standard
Setting up Verlet run ...
  Unit style    : metal
  Current step  : 0
  Time step     : 0.001
Per MPI rank memory allocation (min/avg/max) = 11.15 | 11.15 | 11.15 Mbytes
Step Temp Press TotEng PotEng Enthalpy 
       0          300    13251.401   -65138.774   -65900.801   -62538.146 
    1000    151.06388    20729.959   -65138.619   -65522.335   -61070.302 
Loop time of 98.0723 on 2 procs for 1000 steps with 19652 atoms

Performance: 0.881 ns/day, 27.242 hours/ns, 10.197 timesteps/s
99.3% CPU use with 2 MPI tasks x no OpenMP threads

MPI task timing breakdown:
Section |  min time  |  avg time  |  max time  |%varavg| %total
---------------------------------------------------------------
Pair    | 56.46      | 57.17      | 57.879     |   9.4 | 58.29
Neigh   | 34.79      | 35.842     | 36.895     |  17.6 | 36.55
Comm    | 2.7722     | 4.5637     | 6.3552     |  83.9 |  4.65
Output  | 0.00010204 | 0.00012195 | 0.00014186 |   0.0 |  0.00
Modify  | 0.23563    | 0.25622    | 0.2768     |   4.1 |  0.26
Other   |            | 0.2401     |            |       |  0.24

Nlocal:    9826 ave 9836 max 9816 min
Histogram: 1 0 0 0 0 0 0 0 0 1
Nghost:    14211 ave 14221 max 14201 min
Histogram: 1 0 0 0 0 0 0 0 0 1
Neighs:    786180 ave 786780 max 785580 min
Histogram: 1 0 0 0 0 0 0 0 0 1

Total # of neighbors = 1572360
Ave neighs/atom = 80.0102
Neighbor list builds = 1000
Dangerous builds not checked
Setting up Verlet run ...
  Unit style    : metal
  Current step  : 1000
  Time step     : 0.001
Per MPI rank memory allocation (min/avg/max) = 11.15 | 11.15 | 11.15 Mbytes
Step Temp Press TotEng PotEng Enthalpy 
    1000    151.06388    20729.959   -65138.619   -65522.335   -61070.302 
    2000    296.84256    -73.16893   -64371.348   -65125.355   -64386.253 
Loop time of 95.3035 on 2 procs for 1000 steps with 19652 atoms

Performance: 0.907 ns/day, 26.473 hours/ns, 10.493 timesteps/s
98.7% CPU use with 2 MPI tasks x no OpenMP threads

MPI task timing breakdown:
Section |  min time  |  avg time  |  max time  |%varavg| %total
---------------------------------------------------------------
Pair    | 54.129     | 54.413     | 54.698     |   3.9 | 57.09
Neigh   | 34.623     | 35.387     | 36.151     |  12.8 | 37.13
Comm    | 3.8781     | 4.3603     | 4.8425     |  23.1 |  4.58
Output  | 0.00010514 | 0.00014901 | 0.00019288 |   0.0 |  0.00
Modify  | 0.89189    | 0.89452    | 0.89714    |   0.3 |  0.94
Other   |            | 0.2478     |            |       |  0.26

Nlocal:    9826 ave 9868 max 9784 min
Histogram: 1 0 0 0 0 0 0 0 0 1
Nghost:    14211 ave 14253 max 14169 min
Histogram: 1 0 0 0 0 0 0 0 0 1
Neighs:    734682 ave 738013 max 731350 min
Histogram: 1 0 0 0 0 0 0 0 0 1

Total # of neighbors = 1469363
Ave neighs/atom = 74.7691
Neighbor list builds = 1000
Dangerous builds not checked
Setting up Verlet run ...
  Unit style    : metal
  Current step  : 2000
  Time step     : 0.001
Per MPI rank memory allocation (min/avg/max) = 11.15 | 11.15 | 11.15 Mbytes
Step Temp Press TotEng PotEng Enthalpy 
    2000    296.84256    -73.16893   -64371.348   -65125.355   -64386.253 
   10000    2441.3425   -955.19328   -50438.292   -56639.524   -50708.394 
Loop time of 764.694 on 2 procs for 8000 steps with 19652 atoms

Performance: 0.904 ns/day, 26.552 hours/ns, 10.462 timesteps/s
98.5% CPU use with 2 MPI tasks x no OpenMP threads

MPI task timing breakdown:
Section |  min time  |  avg time  |  max time  |%varavg| %total
---------------------------------------------------------------
Pair    | 420.67     | 422.35     | 424.04     |   8.2 | 55.23
Neigh   | 299.88     | 300.22     | 300.55     |   1.9 | 39.26
Comm    | 31.035     | 32.349     | 33.663     |  23.1 |  4.23
Output  | 0.00010204 | 0.000139   | 0.00017595 |   0.0 |  0.00
Modify  | 7.5741     | 7.6264     | 7.6788     |   1.9 |  1.00
Other   |            | 2.149      |            |       |  0.28

Nlocal:    9826 ave 9835 max 9817 min
Histogram: 1 0 0 0 0 0 0 0 0 1
Nghost:    11327.5 ave 11328 max 11327 min
Histogram: 1 0 0 0 0 0 0 0 0 1
Neighs:    544570 ave 545423 max 543716 min
Histogram: 1 0 0 0 0 0 0 0 0 1

Total # of neighbors = 1089139
Ave neighs/atom = 55.4213
Neighbor list builds = 8000
Dangerous builds not checked
Setting up Verlet run ...
  Unit style    : metal
  Current step  : 10000
  Time step     : 0.001
Per MPI rank memory allocation (min/avg/max) = 11.15 | 11.15 | 11.15 Mbytes
Step Temp Press TotEng PotEng Enthalpy 
   10000    2441.3425   -955.19328   -50438.292   -56639.524   -50708.394 
   20000    2488.3338    1105.5362   -50285.818   -56606.413   -49974.248 
   40000    2463.5235    -1393.891   -50334.387   -56591.961   -50730.099 
Loop time of 2682.69 on 2 procs for 30000 steps with 19652 atoms

Performance: 0.966 ns/day, 24.840 hours/ns, 11.183 timesteps/s
99.3% CPU use with 2 MPI tasks x no OpenMP threads

MPI task timing breakdown:
Section |  min time  |  avg time  |  max time  |%varavg| %total
---------------------------------------------------------------
Pair    | 1490.3     | 1493.9     | 1497.5     |   9.4 | 55.69
Neigh   | 1042.8     | 1044.4     | 1045.9     |   4.8 | 38.93
Comm    | 103.13     | 108.23     | 113.34     |  49.0 |  4.03
Output  | 0.10048    | 0.10053    | 0.10058    |   0.0 |  0.00
Modify  | 28.169     | 28.257     | 28.346     |   1.7 |  1.05
Other   |            | 7.813      |            |       |  0.29

Nlocal:    9826 ave 9836 max 9816 min
Histogram: 1 0 0 0 0 0 0 0 0 1
Nghost:    11296.5 ave 11314 max 11279 min
Histogram: 1 0 0 0 0 0 0 0 0 1
Neighs:    542594 ave 542831 max 542356 min
Histogram: 1 0 0 0 0 0 0 0 0 1

Total # of neighbors = 1085187
Ave neighs/atom = 55.2202
Neighbor list builds = 30000
Dangerous builds not checked
Setting up Verlet run ...
  Unit style    : metal
  Current step  : 40000
  Time step     : 0.001
Per MPI rank memory allocation (min/avg/max) = 11.28 | 11.28 | 11.28 Mbytes
Step Temp Press TotEng PotEng Enthalpy 
   40000    2463.5235    -1393.891   -50334.387   -56591.961   -50730.099 
   40495    2407.8276    473.64804    -50635.98   -56752.082   -50503.082 
Loop time of 38.012 on 2 procs for 495 steps with 19652 atoms

Performance: 1.125 ns/day, 21.331 hours/ns, 13.022 timesteps/s
98.7% CPU use with 2 MPI tasks x no OpenMP threads

MPI task timing breakdown:
Section |  min time  |  avg time  |  max time  |%varavg| %total
---------------------------------------------------------------
Pair    | 20.278     | 20.644     | 21.009     |   8.0 | 54.31
Neigh   | 15.232     | 15.434     | 15.636     |   5.1 | 40.60
Comm    | 0.8343     | 1.4132     | 1.9921     |  48.7 |  3.72
Output  | 0.000103   | 0.000139   | 0.000175   |   0.0 |  0.00
Modify  | 0.39653    | 0.40268    | 0.40883    |   1.0 |  1.06
Other   |            | 0.1183     |            |       |  0.31

Nlocal:    9826 ave 9844 max 9808 min
Histogram: 1 0 0 0 0 0 0 0 0 1
Nghost:    11441.5 ave 11449 max 11434 min
Histogram: 1 0 0 0 0 0 0 0 0 1
Neighs:    548840 ave 550756 max 546925 min
Histogram: 1 0 0 0 0 0 0 0 0 1

Total # of neighbors = 1097681
Ave neighs/atom = 55.8559
Neighbor list builds = 495
Dangerous builds not checked
Setting up Verlet run ...
  Unit style    : metal
  Current step  : 40495
  Time step     : 0.001
Per MPI rank memory allocation (min/avg/max) = 11.28 | 11.28 | 11.28 Mbytes
Step Temp Press TotEng PotEng Enthalpy 
   40495    2407.8276    473.64804    -50635.98   -56752.082   -50503.082 
   60000    2410.1468    1051.0519   -50676.788   -56798.781   -50382.779 
Loop time of 1704.43 on 2 procs for 19505 steps with 19652 atoms

Performance: 0.989 ns/day, 24.273 hours/ns, 11.444 timesteps/s
98.6% CPU use with 2 MPI tasks x no OpenMP threads

MPI task timing breakdown:
Section |  min time  |  avg time  |  max time  |%varavg| %total
---------------------------------------------------------------
Pair    | 924.38     | 928.95     | 933.52     |  15.0 | 54.50
Neigh   | 647.26     | 657.6      | 667.93     |  40.3 | 38.58
Comm    | 76.667     | 91.79      | 106.91     | 157.8 |  5.39
Output  | 3.5789     | 3.5789     | 3.5789     |   0.0 |  0.21
Modify  | 17.665     | 17.732     | 17.798     |   1.6 |  1.04
Other   |            | 4.776      |            |       |  0.28

Nlocal:    9826 ave 9861 max 9791 min
Histogram: 1 0 0 0 0 0 0 0 0 1
Nghost:    11366.5 ave 11388 max 11345 min
Histogram: 1 0 0 0 0 0 0 0 0 1
Neighs:    550467 ave 552785 max 548149 min
Histogram: 1 0 0 0 0 0 0 0 0 1

Total # of neighbors = 1100934
Ave neighs/atom = 56.0215
Neighbor list builds = 19505
Dangerous builds not checked
Setting up Verlet run ...
  Unit style    : metal
  Current step  : 60000
  Time step     : 0.001
Per MPI rank memory allocation (min/avg/max) = 11.31 | 11.31 | 11.31 Mbytes
Step Temp Press TotEng PotEng Enthalpy 
   60000    2410.1468    1051.0519   -50676.788   -56798.781   -50382.779 
   60495    2369.7887   -620.96766   -50897.976   -56917.455   -51071.706 
Loop time of 40.8299 on 2 procs for 495 steps with 19652 atoms

Performance: 1.047 ns/day, 22.912 hours/ns, 12.123 timesteps/s
98.7% CPU use with 2 MPI tasks x no OpenMP threads

MPI task timing breakdown:
Section |  min time  |  avg time  |  max time  |%varavg| %total
---------------------------------------------------------------
Pair    | 22.361     | 22.667     | 22.974     |   6.4 | 55.52
Neigh   | 15.766     | 15.993     | 16.22      |   5.7 | 39.17
Comm    | 1.0504     | 1.5909     | 2.1314     |  42.9 |  3.90
Output  | 6.7949e-05 | 0.00011098 | 0.00015402 |   0.0 |  0.00
Modify  | 0.45081    | 0.45764    | 0.46448    |   1.0 |  1.12
Other   |            | 0.1216     |            |       |  0.30

Nlocal:    9826 ave 9860 max 9792 min
Histogram: 1 0 0 0 0 0 0 0 0 1
Nghost:    11376.5 ave 11391 max 11362 min
Histogram: 1 0 0 0 0 0 0 0 0 1
Neighs:    550393 ave 552842 max 547944 min
Histogram: 1 0 0 0 0 0 0 0 0 1

Total # of neighbors = 1100786
Ave neighs/atom = 56.0139
Neighbor list builds = 495
Dangerous builds not checked
Setting up Verlet run ...
  Unit style    : metal
  Current step  : 60495
  Time step     : 0.001
Per MPI rank memory allocation (min/avg/max) = 11.31 | 11.31 | 11.31 Mbytes
Step Temp Press TotEng PotEng Enthalpy 
   60495    2369.7887   -620.96766   -50897.976   -56917.455   -51071.706 
   80000    2343.4741   -865.68808   -50981.102   -56933.739   -51222.903 
Loop time of 1682.38 on 2 procs for 19505 steps with 19652 atoms

Performance: 1.002 ns/day, 23.959 hours/ns, 11.594 timesteps/s
99.0% CPU use with 2 MPI tasks x no OpenMP threads

MPI task timing breakdown:
Section |  min time  |  avg time  |  max time  |%varavg| %total
---------------------------------------------------------------
Pair    | 898.2      | 906.05     | 913.89     |  26.1 | 53.85
Neigh   | 684.42     | 694.05     | 703.67     |  36.5 | 41.25
Comm    | 43.614     | 61.18      | 78.745     | 224.6 |  3.64
Output  | 0.05809    | 0.058099   | 0.058108   |   0.0 |  0.00
Modify  | 16.458     | 16.492     | 16.525     |   0.8 |  0.98
Other   |            | 4.56       |            |       |  0.27

Nlocal:    9826 ave 9842 max 9810 min
Histogram: 1 0 0 0 0 0 0 0 0 1
Nghost:    11378 ave 11407 max 11349 min
Histogram: 1 0 0 0 0 0 0 0 0 1
Neighs:    551404 ave 553814 max 548993 min
Histogram: 1 0 0 0 0 0 0 0 0 1

Total # of neighbors = 1102807
Ave neighs/atom = 56.1168
Neighbor list builds = 19505
Dangerous builds not checked
Setting up Verlet run ...
  Unit style    : metal
  Current step  : 80000
  Time step     : 0.001
Per MPI rank memory allocation (min/avg/max) = 11.33 | 11.33 | 11.33 Mbytes
Step Temp Press TotEng PotEng Enthalpy 
   80000    2343.4741   -865.68808   -50981.102   -56933.739   -51222.903 
   80495    2308.1224   -147.28383   -51199.883   -57062.724   -51240.724 
Loop time of 37.4265 on 2 procs for 495 steps with 19652 atoms

Performance: 1.143 ns/day, 21.003 hours/ns, 13.226 timesteps/s
99.6% CPU use with 2 MPI tasks x no OpenMP threads

MPI task timing breakdown:
Section |  min time  |  avg time  |  max time  |%varavg| %total
---------------------------------------------------------------
Pair    | 19.321     | 19.644     | 19.967     |   7.3 | 52.49
Neigh   | 14.191     | 15.618     | 17.046     |  36.1 | 41.73
Comm    | 0.56066    | 1.6936     | 2.8266     |  87.1 |  4.53
Output  | 7.2956e-05 | 0.00010049 | 0.00012803 |   0.0 |  0.00
Modify  | 0.35123    | 0.3742     | 0.39717    |   3.8 |  1.00
Other   |            | 0.0962     |            |       |  0.26

Nlocal:    9826 ave 9859 max 9793 min
Histogram: 1 0 0 0 0 0 0 0 0 1
Nghost:    11402.5 ave 11422 max 11383 min
Histogram: 1 0 0 0 0 0 0 0 0 1
Neighs:    555804 ave 558246 max 553363 min
Histogram: 1 0 0 0 0 0 0 0 0 1

Total # of neighbors = 1111609
Ave neighs/atom = 56.5647
Neighbor list builds = 495
Dangerous builds not checked
Setting up Verlet run ...
  Unit style    : metal
  Current step  : 80495
  Time step     : 0.001
Per MPI rank memory allocation (min/avg/max) = 11.33 | 11.33 | 11.33 Mbytes
Step Temp Press TotEng PotEng Enthalpy 
   80495    2308.1224   -147.28383   -51199.883   -57062.724   -51240.724 
  100000    2303.4532    82.901576   -51287.038   -57138.018   -51264.106 
Loop time of 1605.5 on 2 procs for 19505 steps with 19652 atoms

Performance: 1.050 ns/day, 22.864 hours/ns, 12.149 timesteps/s
98.9% CPU use with 2 MPI tasks x no OpenMP threads

MPI task timing breakdown:
Section |  min time  |  avg time  |  max time  |%varavg| %total
---------------------------------------------------------------
Pair    | 839.65     | 845.21     | 850.77     |  19.1 | 52.64
Neigh   | 662.11     | 674.44     | 686.78     |  47.5 | 42.01
Comm    | 47.083     | 65.334     | 83.585     | 225.8 |  4.07
Output  | 0.21706    | 0.21709    | 0.21712    |   0.0 |  0.01
Modify  | 15.843     | 16.029     | 16.214     |   4.6 |  1.00
Other   |            | 4.265      |            |       |  0.27

Nlocal:    9826 ave 9838 max 9814 min
Histogram: 1 0 0 0 0 0 0 0 0 1
Nghost:    11451.5 ave 11454 max 11449 min
Histogram: 1 0 0 0 0 0 0 0 0 1
Neighs:    557047 ave 560290 max 553804 min
Histogram: 1 0 0 0 0 0 0 0 0 1

Total # of neighbors = 1114094
Ave neighs/atom = 56.6911
Neighbor list builds = 19505
Dangerous builds not checked
Setting up Verlet run ...
  Unit style    : metal
  Current step  : 100000
  Time step     : 0.001
Per MPI rank memory allocation (min/avg/max) = 11.33 | 11.34 | 11.34 Mbytes
Step Temp Press TotEng PotEng Enthalpy 
  100000    2303.4532    82.901576   -51287.038   -57138.018   -51264.106 
  100495    2264.7332    61.184712   -51443.809   -57196.437   -51426.929 
Loop time of 39.2543 on 2 procs for 495 steps with 19652 atoms

Performance: 1.090 ns/day, 22.028 hours/ns, 12.610 timesteps/s
98.5% CPU use with 2 MPI tasks x no OpenMP threads

MPI task timing breakdown:
Section |  min time  |  avg time  |  max time  |%varavg| %total
---------------------------------------------------------------
Pair    | 20.417     | 20.69      | 20.962     |   6.0 | 52.71
Neigh   | 15.92      | 16.312     | 16.703     |   9.7 | 41.55
Comm    | 1.0646     | 1.7349     | 2.4053     |  50.9 |  4.42
Output  | 7.081e-05  | 0.00010788 | 0.00014496 |   0.0 |  0.00
Modify  | 0.41012    | 0.41064    | 0.41116    |   0.1 |  1.05
Other   |            | 0.1075     |            |       |  0.27

Nlocal:    9826 ave 9828 max 9824 min
Histogram: 1 0 0 0 0 0 0 0 0 1
Nghost:    11402 ave 11422 max 11382 min
Histogram: 1 0 0 0 0 0 0 0 0 1
Neighs:    558317 ave 563038 max 553596 min
Histogram: 1 0 0 0 0 0 0 0 0 1

Total # of neighbors = 1116634
Ave neighs/atom = 56.8204
Neighbor list builds = 495
Dangerous builds not checked
Setting up Verlet run ...
  Unit style    : metal
  Current step  : 100495
  Time step     : 0.001
Per MPI rank memory allocation (min/avg/max) = 11.33 | 11.34 | 11.34 Mbytes
Step Temp Press TotEng PotEng Enthalpy 
  100495    2264.7332    61.184712   -51443.809   -57196.437   -51426.929 
  120000    2252.6297    203.62662   -51577.666   -57299.551   -51521.751 
Loop time of 1638.04 on 2 procs for 19505 steps with 19652 atoms

Performance: 1.029 ns/day, 23.328 hours/ns, 11.908 timesteps/s
99.0% CPU use with 2 MPI tasks x no OpenMP threads

MPI task timing breakdown:
Section |  min time  |  avg time  |  max time  |%varavg| %total
---------------------------------------------------------------
Pair    | 859.22     | 870.02     | 880.83     |  36.6 | 53.11
Neigh   | 668.52     | 679.71     | 690.9      |  42.9 | 41.50
Comm    | 45.444     | 67.649     | 89.853     | 270.0 |  4.13
Output  | 0.059369   | 0.059384   | 0.059398   |   0.0 |  0.00
Modify  | 16.115     | 16.207     | 16.299     |   2.3 |  0.99
Other   |            | 4.393      |            |       |  0.27

Nlocal:    9826 ave 9840 max 9812 min
Histogram: 1 0 0 0 0 0 0 0 0 1
Nghost:    11507 ave 11539 max 11475 min
Histogram: 1 0 0 0 0 0 0 0 0 1
Neighs:    561282 ave 566142 max 556422 min
Histogram: 1 0 0 0 0 0 0 0 0 1

Total # of neighbors = 1122564
Ave neighs/atom = 57.1221
Neighbor list builds = 19505
Dangerous builds not checked
Setting up Verlet run ...
  Unit style    : metal
  Current step  : 120000
  Time step     : 0.001
Per MPI rank memory allocation (min/avg/max) = 11.34 | 11.34 | 11.34 Mbytes
Step Temp Press TotEng PotEng Enthalpy 
  120000    2252.6297    203.62662   -51577.666   -57299.551   -51521.751 
  120495    2214.0835    303.03748   -51700.552   -57324.526   -51617.508 
Loop time of 38.4582 on 2 procs for 495 steps with 19652 atoms

Performance: 1.112 ns/day, 21.581 hours/ns, 12.871 timesteps/s
99.0% CPU use with 2 MPI tasks x no OpenMP threads

MPI task timing breakdown:
Section |  min time  |  avg time  |  max time  |%varavg| %total
---------------------------------------------------------------
Pair    | 19.605     | 20.231     | 20.858     |  13.9 | 52.61
Neigh   | 16.066     | 16.16      | 16.255     |   2.3 | 42.02
Comm    | 1.0215     | 1.5565     | 2.0915     |  42.9 |  4.05
Output  | 7.9155e-05 | 9.3579e-05 | 0.000108   |   0.0 |  0.00
Modify  | 0.39863    | 0.40008    | 0.40152    |   0.2 |  1.04
Other   |            | 0.1095     |            |       |  0.28

Nlocal:    9826 ave 9842 max 9810 min
Histogram: 1 0 0 0 0 0 0 0 0 1
Nghost:    11538.5 ave 11552 max 11525 min
Histogram: 1 0 0 0 0 0 0 0 0 1
Neighs:    562206 ave 565475 max 558937 min
Histogram: 1 0 0 0 0 0 0 0 0 1

Total # of neighbors = 1124412
Ave neighs/atom = 57.2162
Neighbor list builds = 495
Dangerous builds not checked
Setting up Verlet run ...
  Unit style    : metal
  Current step  : 120495
  Time step     : 0.001
Per MPI rank memory allocation (min/avg/max) = 11.34 | 11.34 | 11.34 Mbytes
Step Temp Press TotEng PotEng Enthalpy 
  120495    2214.0835    303.03748   -51700.552   -57324.526   -51617.508 
  140000    2180.7224    60.785117   -51835.946   -57375.179   -51819.316 
Loop time of 1675.66 on 2 procs for 19505 steps with 19652 atoms

Performance: 1.006 ns/day, 23.864 hours/ns, 11.640 timesteps/s
96.9% CPU use with 2 MPI tasks x no OpenMP threads

MPI task timing breakdown:
Section |  min time  |  avg time  |  max time  |%varavg| %total
---------------------------------------------------------------
Pair    | 873.23     | 880.15     | 887.07     |  23.3 | 52.53
Neigh   | 669.37     | 674.24     | 679.11     |  18.8 | 40.24
Comm    | 88.428     | 100.26     | 112.1      | 118.2 |  5.98
Output  | 0.16896    | 0.16897    | 0.16899    |   0.0 |  0.01
Modify  | 16.472     | 16.486     | 16.499     |   0.3 |  0.98
Other   |            | 4.347      |            |       |  0.26

Nlocal:    9826 ave 9832 max 9820 min
Histogram: 1 0 0 0 0 0 0 0 0 1
Nghost:    11483 ave 11497 max 11469 min
Histogram: 1 0 0 0 0 0 0 0 0 1
Neighs:    563216 ave 568677 max 557755 min
Histogram: 1 0 0 0 0 0 0 0 0 1

Total # of neighbors = 1126432
Ave neighs/atom = 57.3189
Neighbor list builds = 19505
Dangerous builds not checked
Setting up Verlet run ...
  Unit style    : metal
  Current step  : 140000
  Time step     : 0.001
Per MPI rank memory allocation (min/avg/max) = 11.34 | 11.34 | 11.34 Mbytes
Step Temp Press TotEng PotEng Enthalpy 
  140000    2180.7224    60.785117   -51835.946   -57375.179   -51819.316 
  140495    2148.0094    238.73073   -52014.799   -57470.939   -51949.696 
Loop time of 37.9665 on 2 procs for 495 steps with 19652 atoms

Performance: 1.126 ns/day, 21.306 hours/ns, 13.038 timesteps/s
99.1% CPU use with 2 MPI tasks x no OpenMP threads

MPI task timing breakdown:
Section |  min time  |  avg time  |  max time  |%varavg| %total
---------------------------------------------------------------
Pair    | 19.901     | 20.021     | 20.14      |   2.7 | 52.73
Neigh   | 15.277     | 15.892     | 16.506     |  15.4 | 41.86
Comm    | 0.81422    | 1.5634     | 2.3125     |  59.9 |  4.12
Output  | 7.6056e-05 | 0.0001111  | 0.00014615 |   0.0 |  0.00
Modify  | 0.3721     | 0.3805     | 0.3889     |   1.4 |  1.00
Other   |            | 0.11       |            |       |  0.29

Nlocal:    9826 ave 9837 max 9815 min
Histogram: 1 0 0 0 0 0 0 0 0 1
Nghost:    11537 ave 11555 max 11519 min
Histogram: 1 0 0 0 0 0 0 0 0 1
Neighs:    564918 ave 568726 max 561109 min
Histogram: 1 0 0 0 0 0 0 0 0 1

Total # of neighbors = 1129835
Ave neighs/atom = 57.4921
Neighbor list builds = 495
Dangerous builds not checked
Setting up Verlet run ...
  Unit style    : metal
  Current step  : 140495
  Time step     : 0.001
Per MPI rank memory allocation (min/avg/max) = 11.34 | 11.34 | 11.34 Mbytes
Step Temp Press TotEng PotEng Enthalpy 
  140495    2148.0094    238.73073   -52014.799   -57470.939   -51949.696 
  160000    2147.8321   -565.85746   -52047.575   -57503.264   -52201.791 
Loop time of 1618.37 on 2 procs for 19505 steps with 19652 atoms

Performance: 1.041 ns/day, 23.048 hours/ns, 12.052 timesteps/s
99.3% CPU use with 2 MPI tasks x no OpenMP threads

MPI task timing breakdown:
Section |  min time  |  avg time  |  max time  |%varavg| %total
---------------------------------------------------------------
Pair    | 862.79     | 863.18     | 863.56     |   1.3 | 53.34
Neigh   | 678.2      | 680.69     | 683.18     |   9.6 | 42.06
Comm    | 51.77      | 53.844     | 55.918     |  28.3 |  3.33
Output  | 0.056282   | 0.056305   | 0.056329   |   0.0 |  0.00
Modify  | 16.098     | 16.112     | 16.126     |   0.3 |  1.00
Other   |            | 4.488      |            |       |  0.28

Nlocal:    9826 ave 9839 max 9813 min
Histogram: 1 0 0 0 0 0 0 0 0 1
Nghost:    11436 ave 11444 max 11428 min
Histogram: 1 0 0 0 0 0 0 0 0 1
Neighs:    565374 ave 573241 max 557507 min
Histogram: 1 0 0 0 0 0 0 0 0 1

Total # of neighbors = 1130748
Ave neighs/atom = 57.5386
Neighbor list builds = 19505
Dangerous builds not checked
Setting up Verlet run ...
  Unit style    : metal
  Current step  : 160000
  Time step     : 0.001
Per MPI rank memory allocation (min/avg/max) = 11.35 | 11.35 | 11.35 Mbytes
Step Temp Press TotEng PotEng Enthalpy 
  160000    2147.8321   -565.85746   -52047.575   -57503.264   -52201.791 
  160495    2122.2771    69.821228   -52289.547   -57680.324   -52270.676 
Loop time of 40.5211 on 2 procs for 495 steps with 19652 atoms

Performance: 1.055 ns/day, 22.739 hours/ns, 12.216 timesteps/s
97.6% CPU use with 2 MPI tasks x no OpenMP threads

MPI task timing breakdown:
Section |  min time  |  avg time  |  max time  |%varavg| %total
---------------------------------------------------------------
Pair    | 21.31      | 21.37      | 21.429     |   1.3 | 52.74
Neigh   | 16.791     | 16.861     | 16.931     |   1.7 | 41.61
Comm    | 1.6704     | 1.6758     | 1.6812     |   0.4 |  4.14
Output  | 8.7023e-05 | 0.00013101 | 0.000175   |   0.0 |  0.00
Modify  | 0.49677    | 0.49884    | 0.50091    |   0.3 |  1.23
Other   |            | 0.1155     |            |       |  0.29

Nlocal:    9826 ave 9830 max 9822 min
Histogram: 1 0 0 0 0 0 0 0 0 1
Nghost:    11516 ave 11538 max 11494 min
Histogram: 1 0 0 0 0 0 0 0 0 1
Neighs:    570042 ave 575061 max 565023 min
Histogram: 1 0 0 0 0 0 0 0 0 1

Total # of neighbors = 1140084
Ave neighs/atom = 58.0136
Neighbor list builds = 495
Dangerous builds not checked
Setting up Verlet run ...
  Unit style    : metal
  Current step  : 160495
  Time step     : 0.001
Per MPI rank memory allocation (min/avg/max) = 11.35 | 11.35 | 11.35 Mbytes
Step Temp Press TotEng PotEng Enthalpy 
  160495    2122.2771    69.821228   -52289.547   -57680.324   -52270.676 
  180000    2090.0104   -40.105818   -52412.281   -57721.098   -52423.101 
Loop time of 1649.23 on 2 procs for 19505 steps with 19652 atoms

Performance: 1.022 ns/day, 23.487 hours/ns, 11.827 timesteps/s
99.5% CPU use with 2 MPI tasks x no OpenMP threads

MPI task timing breakdown:
Section |  min time  |  avg time  |  max time  |%varavg| %total
---------------------------------------------------------------
Pair    | 886.66     | 888.95     | 891.23     |   7.7 | 53.90
Neigh   | 691.2      | 692.73     | 694.26     |   5.8 | 42.00
Comm    | 42.514     | 46.339     | 50.164     |  56.2 |  2.81
Output  | 0.060237   | 0.060251   | 0.060265   |   0.0 |  0.00
Modify  | 16.508     | 16.537     | 16.565     |   0.7 |  1.00
Other   |            | 4.613      |            |       |  0.28

Nlocal:    9826 ave 9830 max 9822 min
Histogram: 1 0 0 0 0 0 0 0 0 1
Nghost:    11536 ave 11548 max 11524 min
Histogram: 1 0 0 0 0 0 0 0 0 1
Neighs:    571131 ave 577054 max 565208 min
Histogram: 1 0 0 0 0 0 0 0 0 1

Total # of neighbors = 1142262
Ave neighs/atom = 58.1245
Neighbor list builds = 19505
Dangerous builds not checked
Setting up Verlet run ...
  Unit style    : metal
  Current step  : 180000
  Time step     : 0.001
Per MPI rank memory allocation (min/avg/max) = 11.35 | 11.35 | 11.35 Mbytes
Step Temp Press TotEng PotEng Enthalpy 
  180000    2090.0104   -40.105818   -52412.281   -57721.098   -52423.101 
  180495    2054.7672   -1027.7651   -52510.929   -57730.225   -52788.567 
Loop time of 40.0841 on 2 procs for 495 steps with 19652 atoms

Performance: 1.067 ns/day, 22.494 hours/ns, 12.349 timesteps/s
99.9% CPU use with 2 MPI tasks x no OpenMP threads

MPI task timing breakdown:
Section |  min time  |  avg time  |  max time  |%varavg| %total
---------------------------------------------------------------
Pair    | 21.417     | 21.464     | 21.512     |   1.0 | 53.55
Neigh   | 16.842     | 17.022     | 17.201     |   4.4 | 42.46
Comm    | 0.95345    | 1.0731     | 1.1928     |  11.6 |  2.68
Output  | 0.00010681 | 0.00012386 | 0.00014091 |   0.0 |  0.00
Modify  | 0.40128    | 0.40957    | 0.41785    |   1.3 |  1.02
Other   |            | 0.1153     |            |       |  0.29

Nlocal:    9826 ave 9849 max 9803 min
Histogram: 1 0 0 0 0 0 0 0 0 1
Nghost:    11569.5 ave 11577 max 11562 min
Histogram: 1 0 0 0 0 0 0 0 0 1
Neighs:    570749 ave 577823 max 563675 min
Histogram: 1 0 0 0 0 0 0 0 0 1

Total # of neighbors = 1141498
Ave neighs/atom = 58.0856
Neighbor list builds = 495
Dangerous builds not checked
Setting up Verlet run ...
  Unit style    : metal
  Current step  : 180495
  Time step     : 0.001
Per MPI rank memory allocation (min/avg/max) = 11.35 | 11.35 | 11.35 Mbytes
Step Temp Press TotEng PotEng Enthalpy 
  180495    2054.7672   -1027.7651   -52510.929   -57730.225   -52788.567 
  200000    2050.5744   -906.84137   -52637.222   -57845.867   -52881.075 
Loop time of 1595.56 on 2 procs for 19505 steps with 19652 atoms

Performance: 1.056 ns/day, 22.723 hours/ns, 12.225 timesteps/s
98.9% CPU use with 2 MPI tasks x no OpenMP threads

MPI task timing breakdown:
Section |  min time  |  avg time  |  max time  |%varavg| %total
---------------------------------------------------------------
Pair    | 825.61     | 840.39     | 855.17     |  51.0 | 52.67
Neigh   | 603.48     | 639.35     | 675.22     | 141.9 | 40.07
Comm    | 45.012     | 96.474     | 147.94     | 523.9 |  6.05
Output  | 0.059244   | 0.059264   | 0.059284   |   0.0 |  0.00
Modify  | 14.704     | 15.187     | 15.671     |  12.4 |  0.95
Other   |            | 4.107      |            |       |  0.26

Nlocal:    9826 ave 9837 max 9815 min
Histogram: 1 0 0 0 0 0 0 0 0 1
Nghost:    11576.5 ave 11632 max 11521 min
Histogram: 1 0 0 0 0 0 0 0 0 1
Neighs:    573372 ave 580640 max 566104 min
Histogram: 1 0 0 0 0 0 0 0 0 1

Total # of neighbors = 1146744
Ave neighs/atom = 58.3525
Neighbor list builds = 19505
Dangerous builds not checked
Setting up Verlet run ...
  Unit style    : metal
  Current step  : 200000
  Time step     : 0.001
Per MPI rank memory allocation (min/avg/max) = 11.35 | 11.35 | 11.35 Mbytes
Step Temp Press TotEng PotEng Enthalpy 
  200000    2050.5744   -906.84137   -52637.222   -57845.867   -52881.075 
  200495    2002.9216   -27.525325   -52810.075   -57897.679   -52817.447 
Loop time of 38.7279 on 2 procs for 495 steps with 19652 atoms

Performance: 1.104 ns/day, 21.733 hours/ns, 12.781 timesteps/s
99.7% CPU use with 2 MPI tasks x no OpenMP threads

MPI task timing breakdown:
Section |  min time  |  avg time  |  max time  |%varavg| %total
---------------------------------------------------------------
Pair    | 20.648     | 20.672     | 20.697     |   0.5 | 53.38
Neigh   | 16.101     | 16.155     | 16.208     |   1.3 | 41.71
Comm    | 1.3147     | 1.3908     | 1.4669     |   6.5 |  3.59
Output  | 6.6996e-05 | 9.0003e-05 | 0.00011301 |   0.0 |  0.00
Modify  | 0.39853    | 0.39929    | 0.40006    |   0.1 |  1.03
Other   |            | 0.1106     |            |       |  0.29

Nlocal:    9826 ave 9841 max 9811 min
Histogram: 1 0 0 0 0 0 0 0 0 1
Nghost:    11579 ave 11603 max 11555 min
Histogram: 1 0 0 0 0 0 0 0 0 1
Neighs:    575550 ave 579755 max 571345 min
Histogram: 1 0 0 0 0 0 0 0 0 1

Total # of neighbors = 1151100
Ave neighs/atom = 58.5742
Neighbor list builds = 495
Dangerous builds not checked
Setting up Verlet run ...
  Unit style    : metal
  Current step  : 200495
  Time step     : 0.001
Per MPI rank memory allocation (min/avg/max) = 11.35 | 11.35 | 11.35 Mbytes
Step Temp Press TotEng PotEng Enthalpy 
  200495    2002.9216   -27.525325   -52810.075   -57897.679   -52817.447 
  220000    2017.2697    974.56856   -52879.339   -58003.388   -52619.978 
Loop time of 1654.24 on 2 procs for 19505 steps with 19652 atoms

Performance: 1.019 ns/day, 23.559 hours/ns, 11.791 timesteps/s
98.0% CPU use with 2 MPI tasks x no OpenMP threads

MPI task timing breakdown:
Section |  min time  |  avg time  |  max time  |%varavg| %total
---------------------------------------------------------------
Pair    | 871.79     | 878.42     | 885.04     |  22.3 | 53.10
Neigh   | 666.41     | 669.74     | 673.07     |  12.9 | 40.49
Comm    | 78.88      | 82.189     | 85.498     |  36.5 |  4.97
Output  | 0.24443    | 0.24444    | 0.24444    |   0.0 |  0.01
Modify  | 19.174     | 19.223     | 19.273     |   1.1 |  1.16
Other   |            | 4.428      |            |       |  0.27

Nlocal:    9826 ave 9857 max 9795 min
Histogram: 1 0 0 0 0 0 0 0 0 1
Nghost:    11637.5 ave 11640 max 11635 min
Histogram: 1 0 0 0 0 0 0 0 0 1
Neighs:    579486 ave 580487 max 578485 min
Histogram: 1 0 0 0 0 0 0 0 0 1

Total # of neighbors = 1158972
Ave neighs/atom = 58.9748
Neighbor list builds = 19505
Dangerous builds not checked
Setting up Verlet run ...
  Unit style    : metal
  Current step  : 220000
  Time step     : 0.001
Per MPI rank memory allocation (min/avg/max) = 11.35 | 11.35 | 11.35 Mbytes
Step Temp Press TotEng PotEng Enthalpy 
  220000    2017.2697    974.56856   -52879.339   -58003.388   -52619.978 
  220495    1969.6746   -284.19535   -53074.954   -58078.107   -53150.603 
Loop time of 40.1991 on 2 procs for 495 steps with 19652 atoms

Performance: 1.064 ns/day, 22.558 hours/ns, 12.314 timesteps/s
99.7% CPU use with 2 MPI tasks x no OpenMP threads

MPI task timing breakdown:
Section |  min time  |  avg time  |  max time  |%varavg| %total
---------------------------------------------------------------
Pair    | 21.414     | 21.436     | 21.458     |   0.5 | 53.32
Neigh   | 16.753     | 16.776     | 16.798     |   0.6 | 41.73
Comm    | 1.4644     | 1.4649     | 1.4653     |   0.0 |  3.64
Output  | 6.6996e-05 | 9.203e-05  | 0.00011706 |   0.0 |  0.00
Modify  | 0.4073     | 0.40809    | 0.40887    |   0.1 |  1.02
Other   |            | 0.1147     |            |       |  0.29

Nlocal:    9826 ave 9828 max 9824 min
Histogram: 1 0 0 0 0 0 0 0 0 1
Nghost:    11585 ave 11589 max 11581 min
Histogram: 1 0 0 0 0 0 0 0 0 1
Neighs:    579375 ave 584331 max 574419 min
Histogram: 1 0 0 0 0 0 0 0 0 1

Total # of neighbors = 1158750
Ave neighs/atom = 58.9635
Neighbor list builds = 495
Dangerous builds not checked
Setting up Verlet run ...
  Unit style    : metal
  Current step  : 220495
  Time step     : 0.001
Per MPI rank memory allocation (min/avg/max) = 11.35 | 11.35 | 11.35 Mbytes
Step Temp Press TotEng PotEng Enthalpy 
  220495    1969.6746   -284.19535   -53074.954   -58078.107   -53150.603 
  240000    1963.6875   -1261.0466   -53122.145    -58110.09    -53457.94 
Loop time of 1670.6 on 2 procs for 19505 steps with 19652 atoms

Performance: 1.009 ns/day, 23.792 hours/ns, 11.675 timesteps/s
98.3% CPU use with 2 MPI tasks x no OpenMP threads

MPI task timing breakdown:
Section |  min time  |  avg time  |  max time  |%varavg| %total
---------------------------------------------------------------
Pair    | 891.78     | 898.16     | 904.54     |  21.3 | 53.76
Neigh   | 680.97     | 682.8      | 684.62     |   7.0 | 40.87
Comm    | 58.312     | 66.054     | 73.797     |  95.3 |  3.95
Output  | 0.082624   | 0.082636   | 0.082648   |   0.0 |  0.00
Modify  | 18.519     | 18.981     | 19.443     |  10.6 |  1.14
Other   |            | 4.524      |            |       |  0.27

Nlocal:    9826 ave 9826 max 9826 min
Histogram: 2 0 0 0 0 0 0 0 0 0
Nghost:    11646.5 ave 11653 max 11640 min
Histogram: 1 0 0 0 0 0 0 0 0 1
Neighs:    578953 ave 583714 max 574192 min
Histogram: 1 0 0 0 0 0 0 0 0 1

Total # of neighbors = 1157906
Ave neighs/atom = 58.9205
Neighbor list builds = 19505
Dangerous builds not checked
Setting up Verlet run ...
  Unit style    : metal
  Current step  : 240000
  Time step     : 0.001
Per MPI rank memory allocation (min/avg/max) = 11.35 | 11.35 | 11.35 Mbytes
Step Temp Press TotEng PotEng Enthalpy 
  240000    1963.6875   -1261.0466   -53122.145    -58110.09    -53457.94 
  240495    1913.3555    694.70692   -53406.579   -58266.677   -53223.593 
Loop time of 40.4269 on 2 procs for 495 steps with 19652 atoms

Performance: 1.058 ns/day, 22.686 hours/ns, 12.244 timesteps/s
99.3% CPU use with 2 MPI tasks x no OpenMP threads

MPI task timing breakdown:
Section |  min time  |  avg time  |  max time  |%varavg| %total
---------------------------------------------------------------
Pair    | 21.822     | 21.841     | 21.86      |   0.4 | 54.03
Neigh   | 16.498     | 16.578     | 16.658     |   2.0 | 41.01
Comm    | 1.4353     | 1.4928     | 1.5503     |   4.7 |  3.69
Output  | 7.1049e-05 | 0.00010502 | 0.000139   |   0.0 |  0.00
Modify  | 0.40098    | 0.40213    | 0.40327    |   0.2 |  0.99
Other   |            | 0.1123     |            |       |  0.28

Nlocal:    9826 ave 9868 max 9784 min
Histogram: 1 0 0 0 0 0 0 0 0 1
Nghost:    11700.5 ave 11705 max 11696 min
Histogram: 1 0 0 0 0 0 0 0 0 1
Neighs:    585414 ave 587567 max 583262 min
Histogram: 1 0 0 0 0 0 0 0 0 1

Total # of neighbors = 1170829
Ave neighs/atom = 59.5781
Neighbor list builds = 495
Dangerous builds not checked
Setting up Verlet run ...
  Unit style    : metal
  Current step  : 240495
  Time step     : 0.001
Per MPI rank memory allocation (min/avg/max) = 11.35 | 11.35 | 11.35 Mbytes
Step Temp Press TotEng PotEng Enthalpy 
  240495    1913.3555    694.70692   -53406.579   -58266.677   -53223.593 
  260000    1887.8265    586.87573   -53455.817   -58251.068   -53301.207 
Loop time of 1627.89 on 2 procs for 19505 steps with 19652 atoms

Performance: 1.035 ns/day, 23.183 hours/ns, 11.982 timesteps/s
98.3% CPU use with 2 MPI tasks x no OpenMP threads

MPI task timing breakdown:
Section |  min time  |  avg time  |  max time  |%varavg| %total
---------------------------------------------------------------
Pair    | 867.38     | 869.97     | 872.56     |   8.8 | 53.44
Neigh   | 652.38     | 660.79     | 669.21     |  32.7 | 40.59
Comm    | 65.47      | 76.784     | 88.098     | 129.1 |  4.72
Output  | 0.059653   | 0.059665   | 0.059677   |   0.0 |  0.00
Modify  | 15.78      | 15.946     | 16.113     |   4.2 |  0.98
Other   |            | 4.335      |            |       |  0.27

Nlocal:    9826 ave 9850 max 9802 min
Histogram: 1 0 0 0 0 0 0 0 0 1
Nghost:    11657.5 ave 11706 max 11609 min
Histogram: 1 0 0 0 0 0 0 0 0 1
Neighs:    585578 ave 589281 max 581874 min
Histogram: 1 0 0 0 0 0 0 0 0 1

Total # of neighbors = 1171155
Ave neighs/atom = 59.5947
Neighbor list builds = 19505
Dangerous builds not checked
Setting up Verlet run ...
  Unit style    : metal
  Current step  : 260000
  Time step     : 0.001
Per MPI rank memory allocation (min/avg/max) = 11.35 | 11.35 | 11.35 Mbytes
Step Temp Press TotEng PotEng Enthalpy 
  260000    1887.8265    586.87573   -53455.817   -58251.068   -53301.207 
  260495    1858.3431    508.81261   -53635.897   -58356.258   -53502.352 
Loop time of 39.8625 on 2 procs for 495 steps with 19652 atoms

Performance: 1.073 ns/day, 22.370 hours/ns, 12.418 timesteps/s
99.2% CPU use with 2 MPI tasks x no OpenMP threads

MPI task timing breakdown:
Section |  min time  |  avg time  |  max time  |%varavg| %total
---------------------------------------------------------------
Pair    | 21.351     | 21.482     | 21.613     |   2.8 | 53.89
Neigh   | 16.357     | 16.588     | 16.818     |   5.7 | 41.61
Comm    | 1.1851     | 1.2787     | 1.3724     |   8.3 |  3.21
Output  | 7.2956e-05 | 0.00010347 | 0.00013399 |   0.0 |  0.00
Modify  | 0.39417    | 0.39978    | 0.40538    |   0.9 |  1.00
Other   |            | 0.1141     |            |       |  0.29

Nlocal:    9826 ave 9869 max 9783 min
Histogram: 1 0 0 0 0 0 0 0 0 1
Nghost:    11696 ave 11706 max 11686 min
Histogram: 1 0 0 0 0 0 0 0 0 1
Neighs:    587662 ave 588240 max 587085 min
Histogram: 1 0 0 0 0 0 0 0 0 1

Total # of neighbors = 1175325
Ave neighs/atom = 59.8069
Neighbor list builds = 495
Dangerous builds not checked
Setting up Verlet run ...
  Unit style    : metal
  Current step  : 260495
  Time step     : 0.001
Per MPI rank memory allocation (min/avg/max) = 11.35 | 11.35 | 11.35 Mbytes
Step Temp Press TotEng PotEng Enthalpy 
  260495    1858.3431    508.81261   -53635.897   -58356.258   -53502.352 
  280000    1856.0201   -284.47905   -53648.191   -58362.651   -53722.927 
Loop time of 1601.57 on 2 procs for 19505 steps with 19652 atoms

Performance: 1.052 ns/day, 22.809 hours/ns, 12.179 timesteps/s
98.3% CPU use with 2 MPI tasks x no OpenMP threads

MPI task timing breakdown:
Section |  min time  |  avg time  |  max time  |%varavg| %total
---------------------------------------------------------------
Pair    | 853.53     | 853.82     | 854.1      |   1.0 | 53.31
Neigh   | 634.25     | 647.22     | 660.2      |  51.0 | 40.41
Comm    | 65.277     | 78.34      | 91.404     | 147.6 |  4.89
Output  | 0.058325   | 0.058348   | 0.058372   |   0.0 |  0.00
Modify  | 17.688     | 17.895     | 18.102     |   4.9 |  1.12
Other   |            | 4.238      |            |       |  0.26

Nlocal:    9826 ave 9842 max 9810 min
Histogram: 1 0 0 0 0 0 0 0 0 1
Nghost:    11648.5 ave 11661 max 11636 min
Histogram: 1 0 0 0 0 0 0 0 0 1
Neighs:    587003 ave 591632 max 582374 min
Histogram: 1 0 0 0 0 0 0 0 0 1

Total # of neighbors = 1174006
Ave neighs/atom = 59.7398
Neighbor list builds = 19505
Dangerous builds not checked
Setting up Verlet run ...
  Unit style    : metal
  Current step  : 280000
  Time step     : 0.001
Per MPI rank memory allocation (min/avg/max) = 11.35 | 11.35 | 11.35 Mbytes
Step Temp Press TotEng PotEng Enthalpy 
  280000    1856.0201   -284.47905   -53648.191   -58362.651   -53722.927 
  280495    1806.2854    362.97947   -53924.065   -58512.194   -53829.393 
Loop time of 40.4766 on 2 procs for 495 steps with 19652 atoms

Performance: 1.057 ns/day, 22.714 hours/ns, 12.229 timesteps/s
98.1% CPU use with 2 MPI tasks x no OpenMP threads

MPI task timing breakdown:
Section |  min time  |  avg time  |  max time  |%varavg| %total
---------------------------------------------------------------
Pair    | 21.742     | 21.858     | 21.974     |   2.5 | 54.00
Neigh   | 16.035     | 16.504     | 16.973     |  11.5 | 40.77
Comm    | 1.2409     | 1.6014     | 1.9618     |  28.5 |  3.96
Output  | 0.0001111  | 0.00012457 | 0.00013804 |   0.0 |  0.00
Modify  | 0.39483    | 0.39971    | 0.40459    |   0.8 |  0.99
Other   |            | 0.1135     |            |       |  0.28

Nlocal:    9826 ave 9859 max 9793 min
Histogram: 1 0 0 0 0 0 0 0 0 1
Nghost:    11694 ave 11708 max 11680 min
Histogram: 1 0 0 0 0 0 0 0 0 1
Neighs:    591192 ave 592961 max 589424 min
Histogram: 1 0 0 0 0 0 0 0 0 1

Total # of neighbors = 1182385
Ave neighs/atom = 60.1661
Neighbor list builds = 495
Dangerous builds not checked
Setting up Verlet run ...
  Unit style    : metal
  Current step  : 280495
  Time step     : 0.001
Per MPI rank memory allocation (min/avg/max) = 11.35 | 11.35 | 11.35 Mbytes
Step Temp Press TotEng PotEng Enthalpy 
  280495    1806.2854    362.97947   -53924.065   -58512.194   -53829.393 
  300000    1785.1187   -160.88152   -54010.614   -58544.978   -54052.581 
Loop time of 1639.49 on 2 procs for 19505 steps with 19652 atoms

Performance: 1.028 ns/day, 23.349 hours/ns, 11.897 timesteps/s
92.9% CPU use with 2 MPI tasks x no OpenMP threads

MPI task timing breakdown:
Section |  min time  |  avg time  |  max time  |%varavg| %total
---------------------------------------------------------------
Pair    | 848.7      | 852.11     | 855.53     |  11.7 | 51.97
Neigh   | 597.18     | 604.1      | 611.02     |  28.2 | 36.85
Comm    | 143.85     | 153.25     | 162.65     |  75.9 |  9.35
Output  | 3.711      | 3.711      | 3.711      |   0.0 |  0.23
Modify  | 21.442     | 22.413     | 23.383     |  20.5 |  1.37
Other   |            | 3.908      |            |       |  0.24

Nlocal:    9826 ave 9834 max 9818 min
Histogram: 1 0 0 0 0 0 0 0 0 1
Nghost:    11691.5 ave 11713 max 11670 min
Histogram: 1 0 0 0 0 0 0 0 0 1
Neighs:    591265 ave 595070 max 587460 min
Histogram: 1 0 0 0 0 0 0 0 0 1

Total # of neighbors = 1182530
Ave neighs/atom = 60.1735
Neighbor list builds = 19505
Dangerous builds not checked
Setting up Verlet run ...
  Unit style    : metal
  Current step  : 300000
  Time step     : 0.001
Per MPI rank memory allocation (min/avg/max) = 11.35 | 11.35 | 11.35 Mbytes
Step Temp Press TotEng PotEng Enthalpy 
  300000    1785.1187   -160.88152   -54010.614   -58544.978   -54052.581 
  300495     1761.886    335.70924   -54202.041   -58677.392    -54115.07 
Loop time of 46.407 on 2 procs for 495 steps with 19652 atoms

Performance: 0.922 ns/day, 26.042 hours/ns, 10.666 timesteps/s
86.9% CPU use with 2 MPI tasks x no OpenMP threads

MPI task timing breakdown:
Section |  min time  |  avg time  |  max time  |%varavg| %total
---------------------------------------------------------------
Pair    | 23.921     | 24.02      | 24.119     |   2.0 | 51.76
Neigh   | 15.182     | 15.496     | 15.81      |   8.0 | 33.39
Comm    | 5.6471     | 6.2229     | 6.7987     |  23.1 | 13.41
Output  | 6.6996e-05 | 9.048e-05  | 0.00011396 |   0.0 |  0.00
Modify  | 0.39818    | 0.5597     | 0.72121    |  21.6 |  1.21
Other   |            | 0.1077     |            |       |  0.23

Nlocal:    9826 ave 9829 max 9823 min
Histogram: 1 0 0 0 0 0 0 0 0 1
Nghost:    11756 ave 11806 max 11706 min
Histogram: 1 0 0 0 0 0 0 0 0 1
Neighs:    595594 ave 599830 max 591358 min
Histogram: 1 0 0 0 0 0 0 0 0 1

Total # of neighbors = 1191188
Ave neighs/atom = 60.6141
Neighbor list builds = 495
Dangerous builds not checked
Setting up Verlet run ...
  Unit style    : metal
  Current step  : 300495
  Time step     : 0.001
Per MPI rank memory allocation (min/avg/max) = 11.35 | 11.35 | 11.35 Mbytes
Step Temp Press TotEng PotEng Enthalpy 
  300495     1761.886    335.70924   -54202.041   -58677.392    -54115.07 
  320000    1750.8745    114.49272   -54315.693   -58763.074   -54286.109 
Loop time of 1663.68 on 2 procs for 19505 steps with 19652 atoms

Performance: 1.013 ns/day, 23.693 hours/ns, 11.724 timesteps/s
93.3% CPU use with 2 MPI tasks x no OpenMP threads

MPI task timing breakdown:
Section |  min time  |  avg time  |  max time  |%varavg| %total
---------------------------------------------------------------
Pair    | 866.61     | 877.05     | 887.5      |  35.3 | 52.72
Neigh   | 583        | 595.84     | 608.67     |  52.6 | 35.81
Comm    | 142.48     | 165.42     | 188.36     | 178.4 |  9.94
Output  | 0.14434    | 0.14437    | 0.1444     |   0.0 |  0.01
Modify  | 20.85      | 21.3       | 21.749     |   9.7 |  1.28
Other   |            | 3.934      |            |       |  0.24

Nlocal:    9826 ave 9864 max 9788 min
Histogram: 1 0 0 0 0 0 0 0 0 1
Nghost:    11757 ave 11776 max 11738 min
Histogram: 1 0 0 0 0 0 0 0 0 1
Neighs:    597250 ave 606567 max 587934 min
Histogram: 1 0 0 0 0 0 0 0 0 1

Total # of neighbors = 1194501
Ave neighs/atom = 60.7827
Neighbor list builds = 19505
Dangerous builds not checked
Setting up Verlet run ...
  Unit style    : metal
  Current step  : 320000
  Time step     : 0.001
Per MPI rank memory allocation (min/avg/max) = 11.35 | 11.35 | 11.35 Mbytes
Step Temp Press TotEng PotEng Enthalpy 
  320000    1750.8745    114.49272   -54315.693   -58763.074   -54286.109 
  320495    1704.6237    869.46538   -54491.136   -58821.035   -54267.377 
Loop time of 40.5263 on 2 procs for 495 steps with 19652 atoms

Performance: 1.055 ns/day, 22.742 hours/ns, 12.214 timesteps/s
96.0% CPU use with 2 MPI tasks x no OpenMP threads

MPI task timing breakdown:
Section |  min time  |  avg time  |  max time  |%varavg| %total
---------------------------------------------------------------
Pair    | 21.435     | 21.451     | 21.466     |   0.3 | 52.93
Neigh   | 15.203     | 15.263     | 15.322     |   1.5 | 37.66
Comm    | 3.251      | 3.3267     | 3.4023     |   4.2 |  8.21
Output  | 8.9169e-05 | 0.00012159 | 0.00015402 |   0.0 |  0.00
Modify  | 0.38065    | 0.38132    | 0.382      |   0.1 |  0.94
Other   |            | 0.1049     |            |       |  0.26

Nlocal:    9826 ave 9846 max 9806 min
Histogram: 1 0 0 0 0 0 0 0 0 1
Nghost:    11776 ave 11808 max 11744 min
Histogram: 1 0 0 0 0 0 0 0 0 1
Neighs:    599580 ave 603572 max 595587 min
Histogram: 1 0 0 0 0 0 0 0 0 1

Total # of neighbors = 1199159
Ave neighs/atom = 61.0197
Neighbor list builds = 495
Dangerous builds not checked
Setting up Verlet run ...
  Unit style    : metal
  Current step  : 320495
  Time step     : 0.001
Per MPI rank memory allocation (min/avg/max) = 11.35 | 11.35 | 11.35 Mbytes
Step Temp Press TotEng PotEng Enthalpy 
  320495    1704.6237    869.46538   -54491.136   -58821.035   -54267.377 
  340000    1703.3345    740.30129   -54577.704   -58904.329   -54387.805 
Loop time of 1549.68 on 2 procs for 19505 steps with 19652 atoms

Performance: 1.087 ns/day, 22.070 hours/ns, 12.586 timesteps/s
95.4% CPU use with 2 MPI tasks x no OpenMP threads

MPI task timing breakdown:
Section |  min time  |  avg time  |  max time  |%varavg| %total
---------------------------------------------------------------
Pair    | 811.87     | 813.9      | 815.93     |   7.1 | 52.52
Neigh   | 589.36     | 591.5      | 593.64     |   8.8 | 38.17
Comm    | 115.01     | 119.2      | 123.39     |  38.4 |  7.69
Output  | 0.13624    | 0.13625    | 0.13626    |   0.0 |  0.01
Modify  | 21.099     | 21.124     | 21.149     |   0.5 |  1.36
Other   |            | 3.816      |            |       |  0.25

Nlocal:    9826 ave 9862 max 9790 min
Histogram: 1 0 0 0 0 0 0 0 0 1
Nghost:    11797 ave 11827 max 11767 min
Histogram: 1 0 0 0 0 0 0 0 0 1
Neighs:    601624 ave 610337 max 592911 min
Histogram: 1 0 0 0 0 0 0 0 0 1

Total # of neighbors = 1203248
Ave neighs/atom = 61.2278
Neighbor list builds = 19505
Dangerous builds not checked
Setting up Verlet run ...
  Unit style    : metal
  Current step  : 340000
  Time step     : 0.001
Per MPI rank memory allocation (min/avg/max) = 11.35 | 11.35 | 11.35 Mbytes
Step Temp Press TotEng PotEng Enthalpy 
  340000    1703.3345    740.30129   -54577.704   -58904.329   -54387.805 
  340495    1675.6909     437.1227   -54714.594   -58971.002   -54602.615 
Loop time of 31.5836 on 2 procs for 495 steps with 19652 atoms

Performance: 1.354 ns/day, 17.724 hours/ns, 15.673 timesteps/s
98.6% CPU use with 2 MPI tasks x no OpenMP threads

MPI task timing breakdown:
Section |  min time  |  avg time  |  max time  |%varavg| %total
---------------------------------------------------------------
Pair    | 16.445     | 16.461     | 16.477     |   0.4 | 52.12
Neigh   | 13.147     | 13.47      | 13.792     |   8.8 | 42.65
Comm    | 0.90871    | 1.2525     | 1.5963     |  30.7 |  3.97
Output  | 7.6056e-05 | 9.954e-05  | 0.00012302 |   0.0 |  0.00
Modify  | 0.31048    | 0.31506    | 0.31964    |   0.8 |  1.00
Other   |            | 0.08566    |            |       |  0.27

Nlocal:    9826 ave 9842 max 9810 min
Histogram: 1 0 0 0 0 0 0 0 0 1
Nghost:    11825 ave 11846 max 11804 min
Histogram: 1 0 0 0 0 0 0 0 0 1
Neighs:    602278 ave 610139 max 594418 min
Histogram: 1 0 0 0 0 0 0 0 0 1

Total # of neighbors = 1204557
Ave neighs/atom = 61.2944
Neighbor list builds = 495
Dangerous builds not checked
Setting up Verlet run ...
  Unit style    : metal
  Current step  : 340495
  Time step     : 0.001
Per MPI rank memory allocation (min/avg/max) = 11.35 | 11.35 | 11.35 Mbytes
Step Temp Press TotEng PotEng Enthalpy 
  340495    1675.6909     437.1227   -54714.594   -58971.002   -54602.615 
  360000     1623.111   -586.11506   -54903.247   -59026.097   -55053.264 
Loop time of 1362.62 on 2 procs for 19505 steps with 19652 atoms

Performance: 1.237 ns/day, 19.406 hours/ns, 14.314 timesteps/s
94.8% CPU use with 2 MPI tasks x no OpenMP threads

MPI task timing breakdown:
Section |  min time  |  avg time  |  max time  |%varavg| %total
---------------------------------------------------------------
Pair    | 691.18     | 691.78     | 692.37     |   2.3 | 50.77
Neigh   | 533.21     | 536.37     | 539.54     |  13.7 | 39.36
Comm    | 106.64     | 109.63     | 112.62     |  28.5 |  8.05
Output  | 0.15665    | 0.15666    | 0.15667    |   0.0 |  0.01
Modify  | 20.952     | 21.328     | 21.705     |   8.1 |  1.57
Other   |            | 3.357      |            |       |  0.25

Nlocal:    9826 ave 9835 max 9817 min
Histogram: 1 0 0 0 0 0 0 0 0 1
Nghost:    11847 ave 11892 max 11802 min
Histogram: 1 0 0 0 0 0 0 0 0 1
Neighs:    603309 ave 611453 max 595165 min
Histogram: 1 0 0 0 0 0 0 0 0 1

Total # of neighbors = 1206618
Ave neighs/atom = 61.3992
Neighbor list builds = 19505
Dangerous builds not checked
Setting up Verlet run ...
  Unit style    : metal
  Current step  : 360000
  Time step     : 0.001
Per MPI rank memory allocation (min/avg/max) = 11.35 | 11.35 | 11.35 Mbytes
Step Temp Press TotEng PotEng Enthalpy 
  360000     1623.111   -586.11506   -54903.247   -59026.097   -55053.264 
  360495    1602.3807     -86.2044   -55060.337    -59130.53   -55082.276 
Loop time of 43.493 on 2 procs for 495 steps with 19652 atoms

Performance: 0.983 ns/day, 24.407 hours/ns, 11.381 timesteps/s
88.4% CPU use with 2 MPI tasks x no OpenMP threads

MPI task timing breakdown:
Section |  min time  |  avg time  |  max time  |%varavg| %total
---------------------------------------------------------------
Pair    | 22.25      | 22.32      | 22.39      |   1.5 | 51.32
Neigh   | 14.359     | 14.705     | 15.051     |   9.0 | 33.81
Comm    | 5.7031     | 5.9929     | 6.2827     |  11.8 | 13.78
Output  | 7.0095e-05 | 9.3102e-05 | 0.00011611 |   0.0 |  0.00
Modify  | 0.36843    | 0.38048    | 0.39254    |   2.0 |  0.87
Other   |            | 0.09462    |            |       |  0.22

Nlocal:    9826 ave 9846 max 9806 min
Histogram: 1 0 0 0 0 0 0 0 0 1
Nghost:    11844.5 ave 11863 max 11826 min
Histogram: 1 0 0 0 0 0 0 0 0 1
Neighs:    606594 ave 615663 max 597524 min
Histogram: 1 0 0 0 0 0 0 0 0 1

Total # of neighbors = 1213187
Ave neighs/atom = 61.7335
Neighbor list builds = 495
Dangerous builds not checked
Setting up Verlet run ...
  Unit style    : metal
  Current step  : 360495
  Time step     : 0.001
Per MPI rank memory allocation (min/avg/max) = 11.35 | 11.35 | 11.35 Mbytes
Step Temp Press TotEng PotEng Enthalpy 
  360495    1602.3807     -86.2044   -55060.337    -59130.53   -55082.276 
  380000    1602.9541    51.283941   -55154.905   -59226.555   -55141.902 
Loop time of 1650.03 on 2 procs for 19505 steps with 19652 atoms

Performance: 1.021 ns/day, 23.499 hours/ns, 11.821 timesteps/s
93.4% CPU use with 2 MPI tasks x no OpenMP threads

MPI task timing breakdown:
Section |  min time  |  avg time  |  max time  |%varavg| %total
---------------------------------------------------------------
Pair    | 843.23     | 859.29     | 875.36     |  54.8 | 52.08
Neigh   | 577.68     | 591.71     | 605.74     |  57.7 | 35.86
Comm    | 143.48     | 173.73     | 203.99     | 229.5 | 10.53
Output  | 0.30103    | 0.30105    | 0.30106    |   0.0 |  0.02
Modify  | 21.139     | 21.188     | 21.237     |   1.1 |  1.28
Other   |            | 3.802      |            |       |  0.23

Nlocal:    9826 ave 9835 max 9817 min
Histogram: 1 0 0 0 0 0 0 0 0 1
Nghost:    11832 ave 11859 max 11805 min
Histogram: 1 0 0 0 0 0 0 0 0 1
Neighs:    608846 ave 613476 max 604217 min
Histogram: 1 0 0 0 0 0 0 0 0 1

Total # of neighbors = 1217693
Ave neighs/atom = 61.9628
Neighbor list builds = 19505
Dangerous builds not checked
Setting up Verlet run ...
  Unit style    : metal
  Current step  : 380000
  Time step     : 0.001
Per MPI rank memory allocation (min/avg/max) = 11.35 | 11.35 | 11.35 Mbytes
Step Temp Press TotEng PotEng Enthalpy 
  380000    1602.9541    51.283941   -55154.905   -59226.555   -55141.902 
  380495    1555.9273    822.81881   -55322.986   -59275.183   -55115.203 
Loop time of 37.1635 on 2 procs for 495 steps with 19652 atoms

Performance: 1.151 ns/day, 20.855 hours/ns, 13.320 timesteps/s
94.8% CPU use with 2 MPI tasks x no OpenMP threads

MPI task timing breakdown:
Section |  min time  |  avg time  |  max time  |%varavg| %total
---------------------------------------------------------------
Pair    | 19.11      | 19.224     | 19.338     |   2.6 | 51.73
Neigh   | 13.339     | 13.803     | 14.266     |  12.5 | 37.14
Comm    | 3.1492     | 3.5138     | 3.8784     |  19.5 |  9.45
Output  | 7.7963e-05 | 9.7513e-05 | 0.00011706 |   0.0 |  0.00
Modify  | 0.51697    | 0.5288     | 0.54063    |   1.6 |  1.42
Other   |            | 0.09393    |            |       |  0.25

Nlocal:    9826 ave 9830 max 9822 min
Histogram: 1 0 0 0 0 0 0 0 0 1
Nghost:    11822 ave 11830 max 11814 min
Histogram: 1 0 0 0 0 0 0 0 0 1
Neighs:    611326 ave 617877 max 604776 min
Histogram: 1 0 0 0 0 0 0 0 0 1

Total # of neighbors = 1222653
Ave neighs/atom = 62.2152
Neighbor list builds = 495
Dangerous builds not checked
Setting up Verlet run ...
  Unit style    : metal
  Current step  : 380495
  Time step     : 0.001
Per MPI rank memory allocation (min/avg/max) = 11.35 | 11.35 | 11.35 Mbytes
Step Temp Press TotEng PotEng Enthalpy 
  380495    1555.9273    822.81881   -55322.986   -59275.183   -55115.203 
  400000     1553.967   -26.469627    -55381.21   -59328.427   -55387.895 
Loop time of 1698.56 on 2 procs for 19505 steps with 19652 atoms

Performance: 0.992 ns/day, 24.190 hours/ns, 11.483 timesteps/s
91.2% CPU use with 2 MPI tasks x no OpenMP threads

MPI task timing breakdown:
Section |  min time  |  avg time  |  max time  |%varavg| %total
---------------------------------------------------------------
Pair    | 883.33     | 884.47     | 885.6      |   3.8 | 52.07
Neigh   | 576.28     | 579.92     | 583.57     |  15.1 | 34.14
Comm    | 196.86     | 201.72     | 206.57     |  34.2 | 11.88
Output  | 0.13826    | 0.13828    | 0.13831    |   0.0 |  0.01
Modify  | 28.473     | 28.553     | 28.634     |   1.5 |  1.68
Other   |            | 3.765      |            |       |  0.22

Nlocal:    9826 ave 9827 max 9825 min
Histogram: 1 0 0 0 0 0 0 0 0 1
Nghost:    11862 ave 11878 max 11846 min
Histogram: 1 0 0 0 0 0 0 0 0 1
Neighs:    611367 ave 617191 max 605543 min
Histogram: 1 0 0 0 0 0 0 0 0 1

Total # of neighbors = 1222734
Ave neighs/atom = 62.2193
Neighbor list builds = 19505
Dangerous builds not checked
Setting up Verlet run ...
  Unit style    : metal
  Current step  : 400000
  Time step     : 0.001
Per MPI rank memory allocation (min/avg/max) = 11.35 | 11.35 | 11.35 Mbytes
Step Temp Press TotEng PotEng Enthalpy 
  400000     1553.967   -26.469627    -55381.21   -59328.427   -55387.895 
  400495    1515.4961    373.53031   -55623.562   -59473.061   -55529.852 
Loop time of 43.9842 on 2 procs for 495 steps with 19652 atoms

Performance: 0.972 ns/day, 24.683 hours/ns, 11.254 timesteps/s
89.4% CPU use with 2 MPI tasks x no OpenMP threads

MPI task timing breakdown:
Section |  min time  |  avg time  |  max time  |%varavg| %total
---------------------------------------------------------------
Pair    | 24.173     | 24.251     | 24.329     |   1.6 | 55.14
Neigh   | 14.644     | 14.675     | 14.706     |   0.8 | 33.36
Comm    | 4.4945     | 4.6064     | 4.7182     |   5.2 | 10.47
Output  | 8.7023e-05 | 0.00010598 | 0.00012493 |   0.0 |  0.00
Modify  | 0.3507     | 0.35359    | 0.35649    |   0.5 |  0.80
Other   |            | 0.09804    |            |       |  0.22

Nlocal:    9826 ave 9853 max 9799 min
Histogram: 1 0 0 0 0 0 0 0 0 1
Nghost:    11891 ave 11986 max 11796 min
Histogram: 1 0 0 0 0 0 0 0 0 1
Neighs:    615520 ave 621875 max 609165 min
Histogram: 1 0 0 0 0 0 0 0 0 1

Total # of neighbors = 1231040
Ave neighs/atom = 62.642
Neighbor list builds = 495
Dangerous builds not checked
Setting up Verlet run ...
  Unit style    : metal
  Current step  : 400495
  Time step     : 0.001
Per MPI rank memory allocation (min/avg/max) = 11.35 | 11.35 | 11.35 Mbytes
Step Temp Press TotEng PotEng Enthalpy 
  400495    1515.4961    373.53031   -55623.562   -59473.061   -55529.852 
  420000    1511.4419   -515.81878   -55700.158   -59539.358   -55829.435 
Loop time of 1699.6 on 2 procs for 19505 steps with 19652 atoms

Performance: 0.992 ns/day, 24.205 hours/ns, 11.476 timesteps/s
88.8% CPU use with 2 MPI tasks x no OpenMP threads

MPI task timing breakdown:
Section |  min time  |  avg time  |  max time  |%varavg| %total
---------------------------------------------------------------
Pair    | 863.86     | 866.77     | 869.68     |   9.9 | 51.00
Neigh   | 564.35     | 570.84     | 577.32     |  27.2 | 33.59
Comm    | 220.15     | 229.53     | 238.9      |  61.9 | 13.50
Output  | 0.050383   | 0.050394   | 0.050404   |   0.0 |  0.00
Modify  | 28.723     | 28.777     | 28.831     |   1.0 |  1.69
Other   |            | 3.645      |            |       |  0.21

Nlocal:    9826 ave 9831 max 9821 min
Histogram: 1 0 0 0 0 0 0 0 0 1
Nghost:    11913 ave 11920 max 11906 min
Histogram: 1 0 0 0 0 0 0 0 0 1
Neighs:    616197 ave 621848 max 610546 min
Histogram: 1 0 0 0 0 0 0 0 0 1

Total # of neighbors = 1232394
Ave neighs/atom = 62.7109
Neighbor list builds = 19505
Dangerous builds not checked
Setting up Verlet run ...
  Unit style    : metal
  Current step  : 420000
  Time step     : 0.001
Per MPI rank memory allocation (min/avg/max) = 11.35 | 11.35 | 11.35 Mbytes
Step Temp Press TotEng PotEng Enthalpy 
  420000    1511.4419   -515.81878   -55700.158   -59539.358   -55829.435 
  420495    1463.3052   -160.92436   -55913.455   -59630.384   -55953.609 
Loop time of 29.0626 on 2 procs for 495 steps with 19652 atoms

Performance: 1.472 ns/day, 16.309 hours/ns, 17.032 timesteps/s
99.6% CPU use with 2 MPI tasks x no OpenMP threads

MPI task timing breakdown:
Section |  min time  |  avg time  |  max time  |%varavg| %total
---------------------------------------------------------------
Pair    | 14.984     | 15.126     | 15.268     |   3.6 | 52.05
Neigh   | 11.839     | 12.409     | 12.98      |  16.2 | 42.70
Comm    | 0.7288     | 1.1715     | 1.6142     |  40.9 |  4.03
Output  | 7.2002e-05 | 9.5487e-05 | 0.00011897 |   0.0 |  0.00
Modify  | 0.26901    | 0.27929    | 0.28957    |   1.9 |  0.96
Other   |            | 0.07661    |            |       |  0.26

Nlocal:    9826 ave 9849 max 9803 min
Histogram: 1 0 0 0 0 0 0 0 0 1
Nghost:    11951 ave 11959 max 11943 min
Histogram: 1 0 0 0 0 0 0 0 0 1
Neighs:    618988 ave 626380 max 611597 min
Histogram: 1 0 0 0 0 0 0 0 0 1

Total # of neighbors = 1237977
Ave neighs/atom = 62.995
Neighbor list builds = 495
Dangerous builds not checked
Setting up Verlet run ...
  Unit style    : metal
  Current step  : 420495
  Time step     : 0.001
Per MPI rank memory allocation (min/avg/max) = 11.35 | 11.35 | 11.35 Mbytes
Step Temp Press TotEng PotEng Enthalpy 
  420495    1463.3052   -160.92436   -55913.455   -59630.384   -55953.609 
  440000    1444.3499   -202.45738   -56005.628   -59674.408   -56056.046 
Loop time of 1408.92 on 2 procs for 19505 steps with 19652 atoms

Performance: 1.196 ns/day, 20.065 hours/ns, 13.844 timesteps/s
90.7% CPU use with 2 MPI tasks x no OpenMP threads

MPI task timing breakdown:
Section |  min time  |  avg time  |  max time  |%varavg| %total
---------------------------------------------------------------
Pair    | 690.36     | 693.69     | 697.02     |  12.6 | 49.24
Neigh   | 504.33     | 506.45     | 508.56     |   9.4 | 35.95
Comm    | 179.02     | 183.84     | 188.67     |  35.6 | 13.05
Output  | 0.38474    | 0.38474    | 0.38475    |   0.0 |  0.03
Modify  | 20.769     | 21.388     | 22.006     |  13.4 |  1.52
Other   |            | 3.161      |            |       |  0.22

Nlocal:    9826 ave 9838 max 9814 min
Histogram: 1 0 0 0 0 0 0 0 0 1
Nghost:    11949 ave 11977 max 11921 min
Histogram: 1 0 0 0 0 0 0 0 0 1
Neighs:    620450 ave 624135 max 616765 min
Histogram: 1 0 0 0 0 0 0 0 0 1

Total # of neighbors = 1240900
Ave neighs/atom = 63.1437
Neighbor list builds = 19505
Dangerous builds not checked
Setting up Verlet run ...
  Unit style    : metal
  Current step  : 440000
  Time step     : 0.001
Per MPI rank memory allocation (min/avg/max) = 11.35 | 11.35 | 11.35 Mbytes
Step Temp Press TotEng PotEng Enthalpy 
  440000    1444.3499   -202.45738   -56005.628   -59674.408   -56056.046 
  440495    1420.4147    269.03694   -56192.464   -59800.446   -56125.815 
Loop time of 39.3461 on 2 procs for 495 steps with 19652 atoms

Performance: 1.087 ns/day, 22.080 hours/ns, 12.581 timesteps/s
80.1% CPU use with 2 MPI tasks x no OpenMP threads

MPI task timing breakdown:
Section |  min time  |  avg time  |  max time  |%varavg| %total
---------------------------------------------------------------
Pair    | 20.278     | 20.296     | 20.313     |   0.4 | 51.58
Neigh   | 12.113     | 12.135     | 12.157     |   0.6 | 30.84
Comm    | 4.7373     | 4.9275     | 5.1177     |   8.6 | 12.52
Output  | 5.9128e-05 | 7.8559e-05 | 9.799e-05  |   0.0 |  0.00
Modify  | 1.6773     | 1.9071     | 2.1369     |  16.6 |  4.85
Other   |            | 0.08069    |            |       |  0.21

Nlocal:    9826 ave 9838 max 9814 min
Histogram: 1 0 0 0 0 0 0 0 0 1
Nghost:    11992.5 ave 12035 max 11950 min
Histogram: 1 0 0 0 0 0 0 0 0 1
Neighs:    623634 ave 627381 max 619886 min
Histogram: 1 0 0 0 0 0 0 0 0 1

Total # of neighbors = 1247267
Ave neighs/atom = 63.4677
Neighbor list builds = 495
Dangerous builds not checked
Setting up Verlet run ...
  Unit style    : metal
  Current step  : 440495
  Time step     : 0.001
Per MPI rank memory allocation (min/avg/max) = 11.35 | 11.35 | 11.35 Mbytes
Step Temp Press TotEng PotEng Enthalpy 
  440495    1420.4147    269.03694   -56192.464   -59800.446   -56125.815 
  460000    1391.2167    12.632576   -56276.018   -59809.836   -56272.892 
Loop time of 1459.85 on 2 procs for 19505 steps with 19652 atoms

Performance: 1.154 ns/day, 20.790 hours/ns, 13.361 timesteps/s
89.0% CPU use with 2 MPI tasks x no OpenMP threads

MPI task timing breakdown:
Section |  min time  |  avg time  |  max time  |%varavg| %total
---------------------------------------------------------------
Pair    | 726.79     | 727.26     | 727.73     |   1.7 | 49.82
Neigh   | 511        | 512.06     | 513.12     |   4.7 | 35.08
Comm    | 190.57     | 192.1      | 193.64     |  11.0 | 13.16
Output  | 0.11992    | 0.11993    | 0.11995    |   0.0 |  0.01
Modify  | 24.169     | 25.122     | 26.075     |  19.0 |  1.72
Other   |            | 3.182      |            |       |  0.22

Nlocal:    9826 ave 9836 max 9816 min
Histogram: 1 0 0 0 0 0 0 0 0 1
Nghost:    11944 ave 11947 max 11941 min
Histogram: 1 0 0 0 0 0 0 0 0 1
Neighs:    624591 ave 629278 max 619904 min
Histogram: 1 0 0 0 0 0 0 0 0 1

Total # of neighbors = 1249182
Ave neighs/atom = 63.5651
Neighbor list builds = 19505
Dangerous builds not checked
Setting up Verlet run ...
  Unit style    : metal
  Current step  : 460000
  Time step     : 0.001
Per MPI rank memory allocation (min/avg/max) = 11.35 | 11.35 | 11.35 Mbytes
Step Temp Press TotEng PotEng Enthalpy 
  460000    1391.2167    12.632576   -56276.018   -59809.836   -56272.892 
  460495    1374.0774   -510.36526   -56480.934   -59971.216   -56606.656 
Loop time of 40.2917 on 2 procs for 495 steps with 19652 atoms

Performance: 1.061 ns/day, 22.610 hours/ns, 12.285 timesteps/s
91.4% CPU use with 2 MPI tasks x no OpenMP threads

MPI task timing breakdown:
Section |  min time  |  avg time  |  max time  |%varavg| %total
---------------------------------------------------------------
Pair    | 20.109     | 20.277     | 20.445     |   3.7 | 50.33
Neigh   | 12.598     | 13.396     | 14.194     |  21.8 | 33.25
Comm    | 4.9016     | 5.885      | 6.8684     |  40.5 | 14.61
Output  | 6.0081e-05 | 8.0585e-05 | 0.00010109 |   0.0 |  0.00
Modify  | 0.63648    | 0.64525    | 0.65403    |   1.1 |  1.60
Other   |            | 0.08839    |            |       |  0.22

Nlocal:    9826 ave 9834 max 9818 min
Histogram: 1 0 0 0 0 0 0 0 0 1
Nghost:    11991 ave 12021 max 11961 min
Histogram: 1 0 0 0 0 0 0 0 0 1
Neighs:    627176 ave 631775 max 622577 min
Histogram: 1 0 0 0 0 0 0 0 0 1

Total # of neighbors = 1254352
Ave neighs/atom = 63.8282
Neighbor list builds = 495
Dangerous builds not checked
Setting up Verlet run ...
  Unit style    : metal
  Current step  : 460495
  Time step     : 0.001
Per MPI rank memory allocation (min/avg/max) = 11.35 | 11.35 | 11.35 Mbytes
Step Temp Press TotEng PotEng Enthalpy 
  460495    1374.0774   -510.36526   -56480.934   -59971.216   -56606.656 
  480000    1359.5124   -293.68231   -56541.911   -59995.196   -56614.144 
Loop time of 1354.68 on 2 procs for 19505 steps with 19652 atoms

Performance: 1.244 ns/day, 19.292 hours/ns, 14.398 timesteps/s
93.3% CPU use with 2 MPI tasks x no OpenMP threads

MPI task timing breakdown:
Section |  min time  |  avg time  |  max time  |%varavg| %total
---------------------------------------------------------------
Pair    | 683.48     | 687.55     | 691.62     |  15.5 | 50.75
Neigh   | 506.24     | 508.61     | 510.97     |  10.5 | 37.54
Comm    | 136.68     | 138.36     | 140.04     |  14.3 | 10.21
Output  | 0.24603    | 0.24604    | 0.24605    |   0.0 |  0.02
Modify  | 16.596     | 16.652     | 16.709     |   1.4 |  1.23
Other   |            | 3.259      |            |       |  0.24

Nlocal:    9826 ave 9834 max 9818 min
Histogram: 1 0 0 0 0 0 0 0 0 1
Nghost:    11984 ave 11995 max 11973 min
Histogram: 1 0 0 0 0 0 0 0 0 1
Neighs:    628092 ave 633370 max 622814 min
Histogram: 1 0 0 0 0 0 0 0 0 1

Total # of neighbors = 1256184
Ave neighs/atom = 63.9214
Neighbor list builds = 19505
Dangerous builds not checked
Setting up Verlet run ...
  Unit style    : metal
  Current step  : 480000
  Time step     : 0.001
Per MPI rank memory allocation (min/avg/max) = 11.35 | 11.35 | 11.35 Mbytes
Step Temp Press TotEng PotEng Enthalpy 
  480000    1359.5124   -293.68231   -56541.911   -59995.196   -56614.144 
  480495      1318.78   -113.38429   -56752.813   -60102.634   -56780.565 
Loop time of 30.7005 on 2 procs for 495 steps with 19652 atoms

Performance: 1.393 ns/day, 17.228 hours/ns, 16.124 timesteps/s
93.0% CPU use with 2 MPI tasks x no OpenMP threads

MPI task timing breakdown:
Section |  min time  |  avg time  |  max time  |%varavg| %total
---------------------------------------------------------------
Pair    | 15.483     | 15.53      | 15.576     |   1.2 | 50.58
Neigh   | 12.261     | 12.338     | 12.416     |   2.2 | 40.19
Comm    | 2.3185     | 2.3517     | 2.3849     |   2.2 |  7.66
Output  | 5.6028e-05 | 6.8069e-05 | 8.0109e-05 |   0.0 |  0.00
Modify  | 0.40233    | 0.40377    | 0.40521    |   0.2 |  1.32
Other   |            | 0.07713    |            |       |  0.25

Nlocal:    9826 ave 9855 max 9797 min
Histogram: 1 0 0 0 0 0 0 0 0 1
Nghost:    12042 ave 12068 max 12016 min
Histogram: 1 0 0 0 0 0 0 0 0 1
Neighs:    631407 ave 633805 max 629009 min
Histogram: 1 0 0 0 0 0 0 0 0 1

Total # of neighbors = 1262814
Ave neighs/atom = 64.2588
Neighbor list builds = 495
Dangerous builds not checked
Setting up Verlet run ...
  Unit style    : metal
  Current step  : 480495
  Time step     : 0.001
Per MPI rank memory allocation (min/avg/max) = 11.35 | 11.35 | 11.35 Mbytes
Step Temp Press TotEng PotEng Enthalpy 
  480495      1318.78   -113.38429   -56752.813   -60102.634   -56780.565 
  500000    1307.0548     139.2364   -56859.509   -60179.547   -56825.546 
Loop time of 1384.94 on 2 procs for 19505 steps with 19652 atoms

Performance: 1.217 ns/day, 19.723 hours/ns, 14.084 timesteps/s
89.9% CPU use with 2 MPI tasks x no OpenMP threads

MPI task timing breakdown:
Section |  min time  |  avg time  |  max time  |%varavg| %total
---------------------------------------------------------------
Pair    | 675.27     | 676.73     | 678.2      |   5.6 | 48.86
Neigh   | 489.91     | 493.09     | 496.27     |  14.3 | 35.60
Comm    | 184.19     | 184.79     | 185.39     |   4.4 | 13.34
Output  | 0.49041    | 0.49042    | 0.49044    |   0.0 |  0.04
Modify  | 25.55      | 26.658     | 27.766     |  21.5 |  1.92
Other   |            | 3.179      |            |       |  0.23

Nlocal:    9826 ave 9849 max 9803 min
Histogram: 1 0 0 0 0 0 0 0 0 1
Nghost:    12082 ave 12086 max 12078 min
Histogram: 1 0 0 0 0 0 0 0 0 1
Neighs:    633741 ave 637229 max 630253 min
Histogram: 1 0 0 0 0 0 0 0 0 1

Total # of neighbors = 1267482
Ave neighs/atom = 64.4963
Neighbor list builds = 19505
Dangerous builds not checked
Setting up Verlet run ...
  Unit style    : metal
  Current step  : 500000
  Time step     : 0.001
Per MPI rank memory allocation (min/avg/max) = 11.35 | 11.35 | 11.35 Mbytes
Step Temp Press TotEng PotEng Enthalpy 
  500000    1307.0548     139.2364   -56859.509   -60179.547   -56825.546 
  500495    1268.6937    598.70074   -57053.182   -60275.779    -56907.82 
Loop time of 31.3555 on 2 procs for 495 steps with 19652 atoms

Performance: 1.364 ns/day, 17.596 hours/ns, 15.787 timesteps/s
97.2% CPU use with 2 MPI tasks x no OpenMP threads

MPI task timing breakdown:
Section |  min time  |  avg time  |  max time  |%varavg| %total
---------------------------------------------------------------
Pair    | 16.311     | 16.482     | 16.653     |   4.2 | 52.56
Neigh   | 12.856     | 12.895     | 12.934     |   1.1 | 41.12
Comm    | 1.1971     | 1.3271     | 1.4571     |  11.3 |  4.23
Output  | 5.4121e-05 | 7.4029e-05 | 9.3937e-05 |   0.0 |  0.00
Modify  | 0.56954    | 0.57098    | 0.57242    |   0.2 |  1.82
Other   |            | 0.08079    |            |       |  0.26

Nlocal:    9826 ave 9847 max 9805 min
Histogram: 1 0 0 0 0 0 0 0 0 1
Nghost:    12073.5 ave 12116 max 12031 min
Histogram: 1 0 0 0 0 0 0 0 0 1
Neighs:    636554 ave 643214 max 629894 min
Histogram: 1 0 0 0 0 0 0 0 0 1

Total # of neighbors = 1273108
Ave neighs/atom = 64.7826
Neighbor list builds = 495
Dangerous builds not checked
Setting up Verlet run ...
  Unit style    : metal
  Current step  : 500495
  Time step     : 0.001
Per MPI rank memory allocation (min/avg/max) = 11.35 | 11.35 | 11.35 Mbytes
Step Temp Press TotEng PotEng Enthalpy 
  500495    1268.6937    598.70074   -57053.182   -60275.779    -56907.82 
  520000    1248.7433    145.59842   -57175.569   -60347.491   -57140.281 
Loop time of 1278.39 on 2 procs for 19505 steps with 19652 atoms

Performance: 1.318 ns/day, 18.206 hours/ns, 15.257 timesteps/s
92.9% CPU use with 2 MPI tasks x no OpenMP threads

MPI task timing breakdown:
Section |  min time  |  avg time  |  max time  |%varavg| %total
---------------------------------------------------------------
Pair    | 643.48     | 647.35     | 651.22     |  15.2 | 50.64
Neigh   | 486.44     | 489.88     | 493.33     |  15.6 | 38.32
Comm    | 108.14     | 116.69     | 125.24     |  79.2 |  9.13
Output  | 0.10634    | 0.10636    | 0.10637    |   0.0 |  0.01
Modify  | 20.069     | 21.292     | 22.515     |  26.5 |  1.67
Other   |            | 3.074      |            |       |  0.24

Nlocal:    9826 ave 9827 max 9825 min
Histogram: 1 0 0 0 0 0 0 0 0 1
Nghost:    12042.5 ave 12056 max 12029 min
Histogram: 1 0 0 0 0 0 0 0 0 1
Neighs:    638166 ave 644383 max 631949 min
Histogram: 1 0 0 0 0 0 0 0 0 1

Total # of neighbors = 1276332
Ave neighs/atom = 64.9467
Neighbor list builds = 19505
Dangerous builds not checked
Setting up Verlet run ...
  Unit style    : metal
  Current step  : 520000
  Time step     : 0.001
Per MPI rank memory allocation (min/avg/max) = 11.35 | 11.35 | 11.35 Mbytes
Step Temp Press TotEng PotEng Enthalpy 
  520000    1248.7433    145.59842   -57175.569   -60347.491   -57140.281 
  520495    1214.7607    765.33979   -57369.105   -60454.707   -57184.575 
Loop time of 39.4811 on 2 procs for 495 steps with 19652 atoms

Performance: 1.083 ns/day, 22.155 hours/ns, 12.538 timesteps/s
89.5% CPU use with 2 MPI tasks x no OpenMP threads

MPI task timing breakdown:
Section |  min time  |  avg time  |  max time  |%varavg| %total
---------------------------------------------------------------
Pair    | 17.411     | 17.442     | 17.472     |   0.7 | 44.18
Neigh   | 13.005     | 13.232     | 13.459     |   6.2 | 33.51
Comm    | 8.1391     | 8.4004     | 8.6618     |   9.0 | 21.28
Output  | 4.9114e-05 | 6.4611e-05 | 8.0109e-05 |   0.0 |  0.00
Modify  | 0.31608    | 0.32128    | 0.32647    |   0.9 |  0.81
Other   |            | 0.08576    |            |       |  0.22

Nlocal:    9826 ave 9836 max 9816 min
Histogram: 1 0 0 0 0 0 0 0 0 1
Nghost:    12127.5 ave 12166 max 12089 min
Histogram: 1 0 0 0 0 0 0 0 0 1
Neighs:    641326 ave 648684 max 633969 min
Histogram: 1 0 0 0 0 0 0 0 0 1

Total # of neighbors = 1282653
Ave neighs/atom = 65.2683
Neighbor list builds = 495
Dangerous builds not checked
Setting up Verlet run ...
  Unit style    : metal
  Current step  : 520495
  Time step     : 0.001
Per MPI rank memory allocation (min/avg/max) = 11.35 | 11.35 | 11.35 Mbytes
Step Temp Press TotEng PotEng Enthalpy 
  520495    1214.7607    765.33979   -57369.105   -60454.707   -57184.575 
  540000    1201.9104    687.18482   -57449.248    -60502.21   -57283.852 
Loop time of 1311.45 on 2 procs for 19505 steps with 19652 atoms

Performance: 1.285 ns/day, 18.677 hours/ns, 14.873 timesteps/s
94.8% CPU use with 2 MPI tasks x no OpenMP threads

MPI task timing breakdown:
Section |  min time  |  avg time  |  max time  |%varavg| %total
---------------------------------------------------------------
Pair    | 673.11     | 676.4      | 679.7      |  12.7 | 51.58
Neigh   | 498.7      | 503.21     | 507.73     |  20.1 | 38.37
Comm    | 104.47     | 113.24     | 122.01     |  82.4 |  8.63
Output  | 0.11888    | 0.11889    | 0.11891    |   0.0 |  0.01
Modify  | 14.322     | 15.255     | 16.187     |  23.9 |  1.16
Other   |            | 3.223      |            |       |  0.25

Nlocal:    9826 ave 9834 max 9818 min
Histogram: 1 0 0 0 0 0 0 0 0 1
Nghost:    12113.5 ave 12122 max 12105 min
Histogram: 1 0 0 0 0 0 0 0 0 1
Neighs:    642572 ave 647713 max 637430 min
Histogram: 1 0 0 0 0 0 0 0 0 1

Total # of neighbors = 1285143
Ave neighs/atom = 65.395
Neighbor list builds = 19505
Dangerous builds not checked
Setting up Verlet run ...
  Unit style    : metal
  Current step  : 540000
  Time step     : 0.001
Per MPI rank memory allocation (min/avg/max) = 11.35 | 11.35 | 11.35 Mbytes
Step Temp Press TotEng PotEng Enthalpy 
  540000    1201.9104    687.18482   -57449.248    -60502.21   -57283.852 
  540495    1170.1013   -96.590771   -57651.249   -60623.413   -57674.416 
Loop time of 35.7999 on 2 procs for 495 steps with 19652 atoms

Performance: 1.195 ns/day, 20.090 hours/ns, 13.827 timesteps/s
94.6% CPU use with 2 MPI tasks x no OpenMP threads

MPI task timing breakdown:
Section |  min time  |  avg time  |  max time  |%varavg| %total
---------------------------------------------------------------
Pair    | 19.406     | 19.461     | 19.516     |   1.2 | 54.36
Neigh   | 13.183     | 13.5       | 13.818     |   8.6 | 37.71
Comm    | 2.1463     | 2.4194     | 2.6926     |  17.6 |  6.76
Output  | 6.8903e-05 | 8.6904e-05 | 0.0001049  |   0.0 |  0.00
Modify  | 0.32597    | 0.33365    | 0.34134    |   1.3 |  0.93
Other   |            | 0.08536    |            |       |  0.24

Nlocal:    9826 ave 9858 max 9794 min
Histogram: 1 0 0 0 0 0 0 0 0 1
Nghost:    12145.5 ave 12164 max 12127 min
Histogram: 1 0 0 0 0 0 0 0 0 1
Neighs:    644752 ave 647725 max 641778 min
Histogram: 1 0 0 0 0 0 0 0 0 1

Total # of neighbors = 1289503
Ave neighs/atom = 65.6169
Neighbor list builds = 495
Dangerous builds not checked
Setting up Verlet run ...
  Unit style    : metal
  Current step  : 540495
  Time step     : 0.001
Per MPI rank memory allocation (min/avg/max) = 11.35 | 11.35 | 11.35 Mbytes
Step Temp Press TotEng PotEng Enthalpy 
  540495    1170.1013   -96.590771   -57651.249   -60623.413   -57674.416 
  560000    1143.1487      86.9063   -57801.858    -60705.56   -57781.077 
Loop time of 1445.1 on 2 procs for 19505 steps with 19652 atoms

Performance: 1.166 ns/day, 20.580 hours/ns, 13.497 timesteps/s
91.6% CPU use with 2 MPI tasks x no OpenMP threads

MPI task timing breakdown:
Section |  min time  |  avg time  |  max time  |%varavg| %total
---------------------------------------------------------------
Pair    | 740.66     | 744.89     | 749.13     |  15.5 | 51.55
Neigh   | 512.98     | 514.94     | 516.9      |   8.6 | 35.63
Comm    | 159.06     | 162.31     | 165.57     |  25.5 | 11.23
Output  | 0.046137   | 0.04614    | 0.046142   |   0.0 |  0.00
Modify  | 16.696     | 19.639     | 22.582     |  66.4 |  1.36
Other   |            | 3.274      |            |       |  0.23

Nlocal:    9826 ave 9844 max 9808 min
Histogram: 1 0 0 0 0 0 0 0 0 1
Nghost:    12138.5 ave 12142 max 12135 min
Histogram: 1 0 0 0 0 0 0 0 0 1
Neighs:    646884 ave 650831 max 642938 min
Histogram: 1 0 0 0 0 0 0 0 0 1

Total # of neighbors = 1293769
Ave neighs/atom = 65.834
Neighbor list builds = 19505
Dangerous builds not checked
Setting up Verlet run ...
  Unit style    : metal
  Current step  : 560000
  Time step     : 0.001
Per MPI rank memory allocation (min/avg/max) = 11.35 | 11.35 | 11.35 Mbytes
Step Temp Press TotEng PotEng Enthalpy 
[...]
Neighs:    716709 ave 717353 max 716065 min
Histogram: 1 0 0 0 0 0 0 0 0 1

Total # of neighbors = 1433418
Ave neighs/atom = 72.9401
Neighbor list builds = 19505
Dangerous builds not checked
Setting up Verlet run ...
  Unit style    : metal
  Current step  : 840000
  Time step     : 0.001
Per MPI rank memory allocation (min/avg/max) = 11.35 | 11.35 | 11.35 Mbytes
Step Temp Press TotEng PotEng Enthalpy 
  840000    450.24373   -708.39209   -62270.953   -63414.613   -62424.224 
  840495    418.63902   -352.33869   -62414.892   -63478.273   -62490.895 
Loop time of 43.9531 on 2 procs for 495 steps with 19652 atoms

Performance: 0.973 ns/day, 24.665 hours/ns, 11.262 timesteps/s
98.6% CPU use with 2 MPI tasks x no OpenMP threads

MPI task timing breakdown:
Section |  min time  |  avg time  |  max time  |%varavg| %total
---------------------------------------------------------------
Pair    | 23.252     | 23.64      | 24.028     |   8.0 | 53.78
Neigh   | 16.983     | 17.781     | 18.58      |  18.9 | 40.45
Comm    | 0.75223    | 1.9693     | 3.1864     |  86.7 |  4.48
Output  | 9.9897e-05 | 0.00013745 | 0.000175   |   0.0 |  0.00
Modify  | 0.41843    | 0.43868    | 0.45893    |   3.1 |  1.00
Other   |            | 0.1239     |            |       |  0.28

Nlocal:    9826 ave 9844 max 9808 min
Histogram: 1 0 0 0 0 0 0 0 0 1
Nghost:    12713 ave 12715 max 12711 min
Histogram: 1 0 0 0 0 0 0 0 0 1
Neighs:    718776 ave 720354 max 717198 min
Histogram: 1 0 0 0 0 0 0 0 0 1

Total # of neighbors = 1437552
Ave neighs/atom = 73.1504
Neighbor list builds = 495
Dangerous builds not checked
Setting up Verlet run ...
  Unit style    : metal
  Current step  : 840495
  Time step     : 0.001
Per MPI rank memory allocation (min/avg/max) = 11.35 | 11.35 | 11.35 Mbytes
Step Temp Press TotEng PotEng Enthalpy 
  840495    418.63902   -352.33869   -62414.892   -63478.273   -62490.895 
  860000     397.6184   -901.29515   -62653.329   -63663.316   -62846.692 
Loop time of 1734.49 on 2 procs for 19505 steps with 19652 atoms

Performance: 0.972 ns/day, 24.701 hours/ns, 11.245 timesteps/s
98.4% CPU use with 2 MPI tasks x no OpenMP threads

MPI task timing breakdown:
Section |  min time  |  avg time  |  max time  |%varavg| %total
---------------------------------------------------------------
Pair    | 936.16     | 938.3      | 940.44     |   7.0 | 54.10
Neigh   | 688.83     | 699.12     | 709.41     |  38.9 | 40.31
Comm    | 61.857     | 74.495     | 87.132     | 146.4 |  4.29
Output  | 0.26678    | 0.2668     | 0.26682    |   0.0 |  0.02
Modify  | 17.367     | 17.501     | 17.635     |   3.2 |  1.01
Other   |            | 4.806      |            |       |  0.28

Nlocal:    9826 ave 9826 max 9826 min
Histogram: 2 0 0 0 0 0 0 0 0 0
Nghost:    12741 ave 12744 max 12738 min
Histogram: 1 0 0 0 0 0 0 0 0 1
Neighs:    722330 ave 722979 max 721682 min
Histogram: 1 0 0 0 0 0 0 0 0 1

Total # of neighbors = 1444661
Ave neighs/atom = 73.5122
Neighbor list builds = 19505
Dangerous builds not checked
Setting up Verlet run ...
  Unit style    : metal
  Current step  : 860000
  Time step     : 0.001
Per MPI rank memory allocation (min/avg/max) = 11.35 | 11.35 | 11.35 Mbytes
Step Temp Press TotEng PotEng Enthalpy 
  860000     397.6184   -901.29515   -62653.329   -63663.316   -62846.692 
  860495    369.99967   -820.84027   -62809.573   -63749.406   -62985.171 
Loop time of 48.4516 on 2 procs for 495 steps with 19652 atoms

Performance: 0.883 ns/day, 27.189 hours/ns, 10.216 timesteps/s
99.9% CPU use with 2 MPI tasks x no OpenMP threads

MPI task timing breakdown:
Section |  min time  |  avg time  |  max time  |%varavg| %total
---------------------------------------------------------------
Pair    | 28.006     | 28.006     | 28.007     |   0.0 | 57.80
Neigh   | 18.752     | 18.8       | 18.848     |   1.1 | 38.80
Comm    | 0.90722    | 0.95782    | 1.0084     |   5.2 |  1.98
Output  | 0.00011206 | 0.00015295 | 0.00019383 |   0.0 |  0.00
Modify  | 0.53796    | 0.53986    | 0.54176    |   0.3 |  1.11
Other   |            | 0.1476     |            |       |  0.30

Nlocal:    9826 ave 9828 max 9824 min
Histogram: 1 0 0 0 0 0 0 0 0 1
Nghost:    12736.5 ave 12745 max 12728 min
Histogram: 1 0 0 0 0 0 0 0 0 1
Neighs:    723934 ave 724296 max 723571 min
Histogram: 1 0 0 0 0 0 0 0 0 1

Total # of neighbors = 1447867
Ave neighs/atom = 73.6753
Neighbor list builds = 495
Dangerous builds not checked
Setting up Verlet run ...
  Unit style    : metal
  Current step  : 860495
  Time step     : 0.001
Per MPI rank memory allocation (min/avg/max) = 11.35 | 11.35 | 11.35 Mbytes
Step Temp Press TotEng PotEng Enthalpy 
  860495    369.99967   -820.84027   -62809.573   -63749.406   -62985.171 
  880000    348.57388    68.326664   -63068.525   -63953.935   -63054.023 
Loop time of 1780.39 on 2 procs for 19505 steps with 19652 atoms

Performance: 0.947 ns/day, 25.355 hours/ns, 10.955 timesteps/s
97.4% CPU use with 2 MPI tasks x no OpenMP threads

MPI task timing breakdown:
Section |  min time  |  avg time  |  max time  |%varavg| %total
---------------------------------------------------------------
Pair    | 969.72     | 972.44     | 975.15     |   8.7 | 54.62
Neigh   | 704.94     | 710.17     | 715.41     |  19.6 | 39.89
Comm    | 71.891     | 74.518     | 77.145     |  30.4 |  4.19
Output  | 0.060286   | 0.060305   | 0.060324   |   0.0 |  0.00
Modify  | 18.137     | 18.192     | 18.247     |   1.3 |  1.02
Other   |            | 5.012      |            |       |  0.28

Nlocal:    9826 ave 9842 max 9810 min
Histogram: 1 0 0 0 0 0 0 0 0 1
Nghost:    12728.5 ave 12741 max 12716 min
Histogram: 1 0 0 0 0 0 0 0 0 1
Neighs:    728397 ave 730051 max 726743 min
Histogram: 1 0 0 0 0 0 0 0 0 1

Total # of neighbors = 1456794
Ave neighs/atom = 74.1296
Neighbor list builds = 19505
Dangerous builds not checked
Setting up Verlet run ...
  Unit style    : metal
  Current step  : 880000
  Time step     : 0.001
Per MPI rank memory allocation (min/avg/max) = 11.35 | 11.35 | 11.35 Mbytes
Step Temp Press TotEng PotEng Enthalpy 
  880000    348.57388    68.326664   -63068.525   -63953.935   -63054.023 
  880495    323.52581   -23.292823   -63214.505    -64036.29   -63219.435 
Loop time of 41.5538 on 2 procs for 495 steps with 19652 atoms

Performance: 1.029 ns/day, 23.319 hours/ns, 11.912 timesteps/s
99.5% CPU use with 2 MPI tasks x no OpenMP threads

MPI task timing breakdown:
Section |  min time  |  avg time  |  max time  |%varavg| %total
---------------------------------------------------------------
Pair    | 22.359     | 22.4       | 22.44      |   0.9 | 53.90
Neigh   | 16.44      | 17.116     | 17.792     |  16.3 | 41.19
Comm    | 0.83327    | 1.4964     | 2.1596     |  54.2 |  3.60
Output  | 8.0109e-05 | 0.00011766 | 0.00015521 |   0.0 |  0.00
Modify  | 0.40819    | 0.42427    | 0.44034    |   2.5 |  1.02
Other   |            | 0.1177     |            |       |  0.28

Nlocal:    9826 ave 9826 max 9826 min
Histogram: 2 0 0 0 0 0 0 0 0 0
Nghost:    12737.5 ave 12744 max 12731 min
Histogram: 1 0 0 0 0 0 0 0 0 1
Neighs:    729918 ave 730005 max 729830 min
Histogram: 1 0 0 0 0 0 0 0 0 1

Total # of neighbors = 1459835
Ave neighs/atom = 74.2843
Neighbor list builds = 495
Dangerous builds not checked
Setting up Verlet run ...
  Unit style    : metal
  Current step  : 880495
  Time step     : 0.001
Per MPI rank memory allocation (min/avg/max) = 11.35 | 11.35 | 11.35 Mbytes
Step Temp Press TotEng PotEng Enthalpy 
  880495    323.52581   -23.292823   -63214.505    -64036.29   -63219.435 
  900000     299.4724    678.50623   -63439.662   -64200.349   -63296.915 
Loop time of 1682.33 on 2 procs for 19505 steps with 19652 atoms

Performance: 1.002 ns/day, 23.959 hours/ns, 11.594 timesteps/s
99.3% CPU use with 2 MPI tasks x no OpenMP threads

MPI task timing breakdown:
Section |  min time  |  avg time  |  max time  |%varavg| %total
---------------------------------------------------------------
Pair    | 907.79     | 910.97     | 914.16     |  10.6 | 54.15
Neigh   | 667.49     | 682.56     | 697.62     |  57.7 | 40.57
Comm    | 48.502     | 67.281     | 86.06      | 228.9 |  4.00
Output  | 0.054325   | 0.054355   | 0.054385   |   0.0 |  0.00
Modify  | 16.522     | 16.795     | 17.068     |   6.7 |  1.00
Other   |            | 4.67       |            |       |  0.28

Nlocal:    9826 ave 9859 max 9793 min
Histogram: 1 0 0 0 0 0 0 0 0 1
Nghost:    12783.5 ave 12806 max 12761 min
Histogram: 1 0 0 0 0 0 0 0 0 1
Neighs:    732787 ave 736089 max 729485 min
Histogram: 1 0 0 0 0 0 0 0 0 1

Total # of neighbors = 1465574
Ave neighs/atom = 74.5763
Neighbor list builds = 19505
Dangerous builds not checked
Setting up Verlet run ...
  Unit style    : metal
  Current step  : 900000
  Time step     : 0.001
Per MPI rank memory allocation (min/avg/max) = 11.35 | 11.35 | 11.35 Mbytes
Step Temp Press TotEng PotEng Enthalpy 
  900000     299.4724    678.50623   -63439.662   -64200.349   -63296.915 
  900495    276.20043   -575.92487   -63583.624   -64285.198   -63704.672 
Loop time of 43.7004 on 2 procs for 495 steps with 19652 atoms

Performance: 0.979 ns/day, 24.523 hours/ns, 11.327 timesteps/s
99.2% CPU use with 2 MPI tasks x no OpenMP threads

MPI task timing breakdown:
Section |  min time  |  avg time  |  max time  |%varavg| %total
---------------------------------------------------------------
Pair    | 23.573     | 23.643     | 23.713     |   1.4 | 54.10
Neigh   | 17.734     | 17.974     | 18.214     |   5.7 | 41.13
Comm    | 1.1747     | 1.499      | 1.8234     |  26.5 |  3.43
Output  | 7.8917e-05 | 0.00011301 | 0.0001471  |   0.0 |  0.00
Modify  | 0.4476     | 0.4561     | 0.46459    |   1.3 |  1.04
Other   |            | 0.1283     |            |       |  0.29

Nlocal:    9826 ave 9837 max 9815 min
Histogram: 1 0 0 0 0 0 0 0 0 1
Nghost:    12794 ave 12808 max 12780 min
Histogram: 1 0 0 0 0 0 0 0 0 1
Neighs:    733470 ave 734834 max 732105 min
Histogram: 1 0 0 0 0 0 0 0 0 1

Total # of neighbors = 1466939
Ave neighs/atom = 74.6458
Neighbor list builds = 495
Dangerous builds not checked
Setting up Verlet run ...
  Unit style    : metal
  Current step  : 900495
  Time step     : 0.001
Per MPI rank memory allocation (min/avg/max) = 11.35 | 11.35 | 11.35 Mbytes
Step Temp Press TotEng PotEng Enthalpy 
  900495    276.20043   -575.92487   -63583.624   -64285.198   -63704.672 
  920000    249.14068    657.99295   -63769.964   -64402.804   -63632.345 
Loop time of 1596.76 on 2 procs for 19505 steps with 19652 atoms

Performance: 1.055 ns/day, 22.740 hours/ns, 12.215 timesteps/s
98.8% CPU use with 2 MPI tasks x no OpenMP threads

MPI task timing breakdown:
Section |  min time  |  avg time  |  max time  |%varavg| %total
---------------------------------------------------------------
Pair    | 860.06     | 860.89     | 861.72     |   2.8 | 53.91
Neigh   | 662.1      | 663.47     | 664.83     |   5.3 | 41.55
Comm    | 49.776     | 52.001     | 54.226     |  30.9 |  3.26
Output  | 0.056001   | 0.056016   | 0.056031   |   0.0 |  0.00
Modify  | 15.992     | 16.014     | 16.036     |   0.5 |  1.00
Other   |            | 4.331      |            |       |  0.27

Nlocal:    9826 ave 9846 max 9806 min
Histogram: 1 0 0 0 0 0 0 0 0 1
Nghost:    12812 ave 12828 max 12796 min
Histogram: 1 0 0 0 0 0 0 0 0 1
Neighs:    735880 ave 737772 max 733988 min
Histogram: 1 0 0 0 0 0 0 0 0 1

Total # of neighbors = 1471760
Ave neighs/atom = 74.8911
Neighbor list builds = 19505
Dangerous builds not checked
Setting up Verlet run ...
  Unit style    : metal
  Current step  : 920000
  Time step     : 0.001
Per MPI rank memory allocation (min/avg/max) = 11.35 | 11.35 | 11.35 Mbytes
Step Temp Press TotEng PotEng Enthalpy 
  920000    249.14068    657.99295   -63769.964   -64402.804   -63632.345 
  920495    224.50913   -634.51413   -63902.088   -64472.362   -64034.709 
Loop time of 37.9936 on 2 procs for 495 steps with 19652 atoms

Performance: 1.126 ns/day, 21.321 hours/ns, 13.029 timesteps/s
99.7% CPU use with 2 MPI tasks x no OpenMP threads

MPI task timing breakdown:
Section |  min time  |  avg time  |  max time  |%varavg| %total
---------------------------------------------------------------
Pair    | 20.378     | 20.408     | 20.437     |   0.7 | 53.71
Neigh   | 16.383     | 16.392     | 16.401     |   0.2 | 43.14
Comm    | 0.69374    | 0.71126    | 0.72878    |   2.1 |  1.87
Output  | 0.00010109 | 0.00012302 | 0.00014496 |   0.0 |  0.00
Modify  | 0.37647    | 0.37879    | 0.38111    |   0.4 |  1.00
Other   |            | 0.1042     |            |       |  0.27

Nlocal:    9826 ave 9832 max 9820 min
Histogram: 1 0 0 0 0 0 0 0 0 1
Nghost:    12834.5 ave 12848 max 12821 min
Histogram: 1 0 0 0 0 0 0 0 0 1
Neighs:    736499 ave 737144 max 735854 min
Histogram: 1 0 0 0 0 0 0 0 0 1

Total # of neighbors = 1472998
Ave neighs/atom = 74.9541
Neighbor list builds = 495
Dangerous builds not checked
Setting up Verlet run ...
  Unit style    : metal
  Current step  : 920495
  Time step     : 0.001
Per MPI rank memory allocation (min/avg/max) = 11.35 | 11.35 | 11.35 Mbytes
Step Temp Press TotEng PotEng Enthalpy 
  920495    224.50913   -634.51413   -63902.088   -64472.362   -64034.709 
  940000    199.75223   -150.49763   -64059.739   -64567.128   -64091.085 
Loop time of 1677.1 on 2 procs for 19505 steps with 19652 atoms

Performance: 1.005 ns/day, 23.884 hours/ns, 11.630 timesteps/s
98.6% CPU use with 2 MPI tasks x no OpenMP threads

MPI task timing breakdown:
Section |  min time  |  avg time  |  max time  |%varavg| %total
---------------------------------------------------------------
Pair    | 919.42     | 919.83     | 920.24     |   1.4 | 54.85
Neigh   | 668.56     | 675.64     | 682.72     |  27.3 | 40.29
Comm    | 52.575     | 60.331     | 68.087     |  99.9 |  3.60
Output  | 0.055077   | 0.055094   | 0.055111   |   0.0 |  0.00
Modify  | 16.517     | 16.651     | 16.784     |   3.3 |  0.99
Other   |            | 4.597      |            |       |  0.27

Nlocal:    9826 ave 9837 max 9815 min
Histogram: 1 0 0 0 0 0 0 0 0 1
Nghost:    12836 ave 12837 max 12835 min
Histogram: 1 0 0 0 0 0 0 0 0 1
Neighs:    738616 ave 739794 max 737439 min
Histogram: 1 0 0 0 0 0 0 0 0 1

Total # of neighbors = 1477233
Ave neighs/atom = 75.1696
Neighbor list builds = 19505
Dangerous builds not checked
Setting up Verlet run ...
  Unit style    : metal
  Current step  : 940000
  Time step     : 0.001
Per MPI rank memory allocation (min/avg/max) = 11.35 | 11.35 | 11.35 Mbytes
Step Temp Press TotEng PotEng Enthalpy 
  940000    199.75223   -150.49763   -64059.739   -64567.128   -64091.085 
  940495    176.08176   -66.416937   -64184.562   -64631.825   -64198.368 
Loop time of 39.616 on 2 procs for 495 steps with 19652 atoms

Performance: 1.080 ns/day, 22.231 hours/ns, 12.495 timesteps/s
99.4% CPU use with 2 MPI tasks x no OpenMP threads

MPI task timing breakdown:
Section |  min time  |  avg time  |  max time  |%varavg| %total
---------------------------------------------------------------
Pair    | 21.257     | 21.258     | 21.259     |   0.0 | 53.66
Neigh   | 17.028     | 17.044     | 17.061     |   0.4 | 43.02
Comm    | 0.76991    | 0.78477    | 0.79964    |   1.7 |  1.98
Output  | 8.1062e-05 | 0.00010264 | 0.00012422 |   0.0 |  0.00
Modify  | 0.412      | 0.41418    | 0.41635    |   0.3 |  1.05
Other   |            | 0.1147     |            |       |  0.29

Nlocal:    9826 ave 9840 max 9812 min
Histogram: 1 0 0 0 0 0 0 0 0 1
Nghost:    12861 ave 12871 max 12851 min
Histogram: 1 0 0 0 0 0 0 0 0 1
Neighs:    739644 ave 740809 max 738478 min
Histogram: 1 0 0 0 0 0 0 0 0 1

Total # of neighbors = 1479287
Ave neighs/atom = 75.2741
Neighbor list builds = 495
Dangerous builds not checked
Setting up Verlet run ...
  Unit style    : metal
  Current step  : 940495
  Time step     : 0.001
Per MPI rank memory allocation (min/avg/max) = 11.35 | 11.35 | 11.35 Mbytes
Step Temp Press TotEng PotEng Enthalpy 
  940495    176.08176   -66.416937   -64184.562   -64631.825   -64198.368 
  960000    150.10291   -2.5560078   -64331.898   -64713.173   -64332.428 
Loop time of 1676.83 on 2 procs for 19505 steps with 19652 atoms

Performance: 1.005 ns/day, 23.880 hours/ns, 11.632 timesteps/s
98.9% CPU use with 2 MPI tasks x no OpenMP threads

MPI task timing breakdown:
Section |  min time  |  avg time  |  max time  |%varavg| %total
---------------------------------------------------------------
Pair    | 912.15     | 913.06     | 913.98     |   3.0 | 54.45
Neigh   | 673.27     | 676.93     | 680.6      |  14.1 | 40.37
Comm    | 62.357     | 65.057     | 67.757     |  33.5 |  3.88
Output  | 0.058747   | 0.058768   | 0.058789   |   0.0 |  0.00
Modify  | 16.853     | 16.963     | 17.074     |   2.7 |  1.01
Other   |            | 4.757      |            |       |  0.28

Nlocal:    9826 ave 9837 max 9815 min
Histogram: 1 0 0 0 0 0 0 0 0 1
Nghost:    12864.5 ave 12870 max 12859 min
Histogram: 1 0 0 0 0 0 0 0 0 1
Neighs:    740906 ave 741839 max 739973 min
Histogram: 1 0 0 0 0 0 0 0 0 1

Total # of neighbors = 1481812
Ave neighs/atom = 75.4026
Neighbor list builds = 19505
Dangerous builds not checked
Setting up Verlet run ...
  Unit style    : metal
  Current step  : 960000
  Time step     : 0.001
Per MPI rank memory allocation (min/avg/max) = 11.35 | 11.35 | 11.35 Mbytes
Step Temp Press TotEng PotEng Enthalpy 
  960000    150.10291   -2.5560078   -64331.898   -64713.173   -64332.428 
  960495    127.12846   -92.628357   -64450.112    -64773.03   -64469.288 
Loop time of 53.6244 on 2 procs for 495 steps with 19652 atoms

Performance: 0.798 ns/day, 30.092 hours/ns, 9.231 timesteps/s
88.7% CPU use with 2 MPI tasks x no OpenMP threads

MPI task timing breakdown:
Section |  min time  |  avg time  |  max time  |%varavg| %total
---------------------------------------------------------------
Pair    | 28.842     | 28.904     | 28.967     |   1.2 | 53.90
Neigh   | 19.272     | 19.358     | 19.443     |   1.9 | 36.10
Comm    | 4.3339     | 4.3661     | 4.3984     |   1.5 |  8.14
Output  | 7.7009e-05 | 0.00011754 | 0.00015807 |   0.0 |  0.00
Modify  | 0.85122    | 0.86173    | 0.87223    |   1.1 |  1.61
Other   |            | 0.1342     |            |       |  0.25

Nlocal:    9826 ave 9831 max 9821 min
Histogram: 1 0 0 0 0 0 0 0 0 1
Nghost:    12869.5 ave 12898 max 12841 min
Histogram: 1 0 0 0 0 0 0 0 0 1
Neighs:    741938 ave 743113 max 740762 min
Histogram: 1 0 0 0 0 0 0 0 0 1

Total # of neighbors = 1483875
Ave neighs/atom = 75.5076
Neighbor list builds = 495
Dangerous builds not checked
Setting up Verlet run ...
  Unit style    : metal
  Current step  : 960495
  Time step     : 0.001
Per MPI rank memory allocation (min/avg/max) = 11.35 | 11.35 | 11.35 Mbytes
Step Temp Press TotEng PotEng Enthalpy 
  960495    127.12846   -92.628357   -64450.112    -64773.03   -64469.288 
  980000    100.02952    165.01795   -64592.929   -64847.013   -64558.849 
Loop time of 1715.5 on 2 procs for 19505 steps with 19652 atoms

Performance: 0.982 ns/day, 24.431 hours/ns, 11.370 timesteps/s
98.2% CPU use with 2 MPI tasks x no OpenMP threads

MPI task timing breakdown:
Section |  min time  |  avg time  |  max time  |%varavg| %total
---------------------------------------------------------------
Pair    | 931.45     | 931.65     | 931.84     |   0.6 | 54.31
Neigh   | 674.89     | 681.58     | 688.27     |  25.6 | 39.73
Comm    | 72.765     | 79.848     | 86.931     |  79.3 |  4.65
Output  | 0.056987   | 0.05701    | 0.057032   |   0.0 |  0.00
Modify  | 17.476     | 17.571     | 17.667     |   2.3 |  1.02
Other   |            | 4.796      |            |       |  0.28

Nlocal:    9826 ave 9827 max 9825 min
Histogram: 1 0 0 0 0 0 0 0 0 1
Nghost:    12889.5 ave 12913 max 12866 min
Histogram: 1 0 0 0 0 0 0 0 0 1
Neighs:    743440 ave 743678 max 743202 min
Histogram: 1 0 0 0 0 0 0 0 0 1

Total # of neighbors = 1486880
Ave neighs/atom = 75.6605
Neighbor list builds = 19505
Dangerous builds not checked
Total wall time: 22:37:31
