LAMMPS (12 Dec 2018)
Lattice spacing in x,y,z = 4 4 4
Created orthogonal box = (0 0 0) to (68 68 68)
  1 by 2 by 3 MPI processor grid
Created 19652 atoms
  Time spent = 0.000613213 secs
Setting atom values ...
  19281 settings made for type/fraction
Neighbor list info ...
  update every 1 steps, delay 0 steps, check no
  max neighbors/atom: 2000, page size: 100000
  master list distance cutoff = 8.5
  ghost atom cutoff = 8.5
  binsize = 4.25, bins = 16 16 16
  1 neighbor lists, perpetual/occasional/extra = 1 0 0
  (1) pair eam/alloy, perpetual
      attributes: half, newton on
      pair build: half/bin/atomonly/newton
      stencil: half/bin/3d/newton
      bin: standard
Setting up Verlet run ...
  Unit style    : metal
  Current step  : 0
  Time step     : 0.001
Per MPI rank memory allocation (min/avg/max) = 5.546 | 5.705 | 5.983 Mbytes
Step Temp Press TotEng PotEng Enthalpy 
       0          300   -68135.309    -76852.93   -77614.958   -90224.691 
    1000    2049.1697    112189.48   -76854.079   -82059.157   -54836.554 
Loop time of 22.4509 on 6 procs for 1000 steps with 19652 atoms

Performance: 3.848 ns/day, 6.236 hours/ns, 44.542 timesteps/s
99.2% CPU use with 6 MPI tasks x no OpenMP threads

MPI task timing breakdown:
Section |  min time  |  avg time  |  max time  |%varavg| %total
---------------------------------------------------------------
Pair    | 11.613     | 11.883     | 12.039     |   4.0 | 52.93
Neigh   | 9.2333     | 9.2974     | 9.3678     |   1.5 | 41.41
Comm    | 1.0009     | 1.1624     | 1.4197     |  12.3 |  5.18
Output  | 0.0002811  | 0.00030855 | 0.00037098 |   0.0 |  0.00
Modify  | 0.049659   | 0.05059    | 0.051616   |   0.3 |  0.23
Other   |            | 0.05743    |            |       |  0.26

Nlocal:    3275.33 ave 3298 max 3261 min
Histogram: 1 0 2 1 1 0 0 0 0 1
Nghost:    7477 ave 7522 max 7447 min
Histogram: 2 0 1 0 1 0 0 1 0 1
Neighs:    261434 ave 264962 max 258019 min
Histogram: 1 0 1 1 1 0 0 0 0 2

Total # of neighbors = 1568604
Ave neighs/atom = 79.8191
Neighbor list builds = 1000
Dangerous builds not checked
Setting up Verlet run ...
  Unit style    : metal
  Current step  : 1000
  Time step     : 0.001
Per MPI rank memory allocation (min/avg/max) = 5.559 | 5.842 | 5.987 Mbytes
Step Temp Press TotEng PotEng Enthalpy 
    1000    2049.1697    112189.48   -76854.079   -82059.157   -54836.554 
    2000    338.34191   -19.571688   -86824.274   -87683.694   -86828.691 
Loop time of 20.2422 on 6 procs for 1000 steps with 19652 atoms

Performance: 4.268 ns/day, 5.623 hours/ns, 49.402 timesteps/s
99.4% CPU use with 6 MPI tasks x no OpenMP threads

MPI task timing breakdown:
Section |  min time  |  avg time  |  max time  |%varavg| %total
---------------------------------------------------------------
Pair    | 10.099     | 10.269     | 10.413     |   3.4 | 50.73
Neigh   | 8.6629     | 8.6946     | 8.7294     |   0.8 | 42.95
Comm    | 0.64826    | 0.83782    | 0.95848    |  11.3 |  4.14
Output  | 5.1022e-05 | 6.1313e-05 | 9.3937e-05 |   0.0 |  0.00
Modify  | 0.31808    | 0.37902    | 0.41088    |   7.0 |  1.87
Other   |            | 0.06189    |            |       |  0.31

Nlocal:    3275.33 ave 3289 max 3265 min
Histogram: 2 0 1 0 0 1 0 1 0 1
Nghost:    6996.17 ave 7019 max 6978 min
Histogram: 2 0 1 0 1 0 0 0 1 1
Neighs:    227678 ave 232314 max 224797 min
Histogram: 2 0 1 1 0 0 1 0 0 1

Total # of neighbors = 1366067
Ave neighs/atom = 69.5129
Neighbor list builds = 1000
Dangerous builds not checked
Setting up Verlet run ...
  Unit style    : metal
  Current step  : 2000
  Time step     : 0.001
Per MPI rank memory allocation (min/avg/max) = 5.559 | 5.842 | 5.987 Mbytes
Step Temp Press TotEng PotEng Enthalpy 
    2000    338.34191   -19.571688   -86824.274   -87683.694   -86828.691 
   10000    2457.7733   -595.48835    -75475.76   -81718.728   -75620.844 
Loop time of 156.182 on 6 procs for 8000 steps with 19652 atoms

Performance: 4.426 ns/day, 5.423 hours/ns, 51.222 timesteps/s
99.3% CPU use with 6 MPI tasks x no OpenMP threads

MPI task timing breakdown:
Section |  min time  |  avg time  |  max time  |%varavg| %total
---------------------------------------------------------------
Pair    | 78.147     | 79.418     | 80.249     |   8.4 | 50.85
Neigh   | 66.623     | 67.221     | 67.569     |   4.0 | 43.04
Comm    | 6.0486     | 7.0602     | 8.4814     |  35.7 |  4.52
Output  | 4.5061e-05 | 5.7817e-05 | 8.9884e-05 |   0.0 |  0.00
Modify  | 1.8947     | 1.9887     | 2.042      |   4.7 |  1.27
Other   |            | 0.4946     |            |       |  0.32

Nlocal:    3275.33 ave 3292 max 3268 min
Histogram: 2 1 1 1 0 0 0 0 0 1
Nghost:    6747.83 ave 6762 max 6732 min
Histogram: 1 0 1 0 0 1 1 1 0 1
Neighs:    210777 ave 214862 max 208499 min
Histogram: 3 0 0 1 0 0 0 1 0 1

Total # of neighbors = 1264662
Ave neighs/atom = 64.3528
Neighbor list builds = 8000
Dangerous builds not checked
Setting up Verlet run ...
  Unit style    : metal
  Current step  : 10000
  Time step     : 0.001
Per MPI rank memory allocation (min/avg/max) = 5.561 | 5.843 | 5.988 Mbytes
Step Temp Press TotEng PotEng Enthalpy 
   10000    2457.7733   -595.48835    -75475.76   -81718.728   -75620.844 
   40000    2473.0183   -381.26843   -75445.985   -81727.677   -75538.827 
Loop time of 580.754 on 6 procs for 30000 steps with 19652 atoms

Performance: 4.463 ns/day, 5.377 hours/ns, 51.657 timesteps/s
99.3% CPU use with 6 MPI tasks x no OpenMP threads

MPI task timing breakdown:
Section |  min time  |  avg time  |  max time  |%varavg| %total
---------------------------------------------------------------
Pair    | 295.81     | 297.88     | 300.84     |   8.8 | 51.29
Neigh   | 246.08     | 248.44     | 250.9      |  11.6 | 42.78
Comm    | 22.607     | 25.632     | 29.874     |  51.6 |  4.41
Output  | 4.6015e-05 | 6.0439e-05 | 9.5129e-05 |   0.0 |  0.00
Modify  | 6.7255     | 7.02       | 7.2105     |   7.9 |  1.21
Other   |            | 1.783      |            |       |  0.31

Nlocal:    3275.33 ave 3298 max 3247 min
Histogram: 1 0 0 0 1 1 2 0 0 1
Nghost:    6782.17 ave 6817 max 6764 min
Histogram: 2 0 2 0 0 1 0 0 0 1
Neighs:    210885 ave 213564 max 207040 min
Histogram: 1 0 0 1 1 0 0 1 0 2

Total # of neighbors = 1265310
Ave neighs/atom = 64.3858
Neighbor list builds = 30000
Dangerous builds not checked
Setting up Verlet run ...
  Unit style    : metal
  Current step  : 40000
  Time step     : 0.001
Per MPI rank memory allocation (min/avg/max) = 5.561 | 5.843 | 5.988 Mbytes
Step Temp Press TotEng PotEng Enthalpy 
   40000    2473.0183   -381.26843   -75445.985   -81727.677   -75538.827 
   40495     2405.493    245.45424    -75674.76   -81784.931   -75615.165 
Loop time of 9.04131 on 6 procs for 495 steps with 19652 atoms

Performance: 4.730 ns/day, 5.074 hours/ns, 54.749 timesteps/s
99.7% CPU use with 6 MPI tasks x no OpenMP threads

MPI task timing breakdown:
Section |  min time  |  avg time  |  max time  |%varavg| %total
---------------------------------------------------------------
Pair    | 4.5553     | 4.5988     | 4.631      |   1.2 | 50.86
Neigh   | 3.9417     | 3.9587     | 3.9743     |   0.6 | 43.79
Comm    | 0.30408    | 0.3543     | 0.40874    |   5.7 |  3.92
Output  | 4.1008e-05 | 4.979e-05  | 9.0837e-05 |   0.0 |  0.00
Modify  | 0.095793   | 0.1003     | 0.1034     |   1.0 |  1.11
Other   |            | 0.02911    |            |       |  0.32

Nlocal:    3275.33 ave 3290 max 3253 min
Histogram: 1 0 0 2 0 0 0 0 0 3
Nghost:    6769.17 ave 6824 max 6747 min
Histogram: 1 2 2 0 0 0 0 0 0 1
Neighs:    211560 ave 214010 max 208676 min
Histogram: 1 1 0 0 0 1 1 0 0 2

Total # of neighbors = 1269363
Ave neighs/atom = 64.5921
Neighbor list builds = 495
Dangerous builds not checked
Setting up Verlet run ...
  Unit style    : metal
  Current step  : 40495
  Time step     : 0.001
Per MPI rank memory allocation (min/avg/max) = 5.561 | 5.843 | 5.988 Mbytes
Step Temp Press TotEng PotEng Enthalpy 
   40495     2405.493    245.45424    -75674.76   -81784.931   -75615.165 
   66667    2398.0412    2310.0534   -75703.274   -81794.517   -75144.544 
  106667    2417.6868   -218.42699   -75587.967   -81729.112   -75641.126 
Loop time of 1297.72 on 6 procs for 66172 steps with 19652 atoms

Performance: 4.406 ns/day, 5.448 hours/ns, 50.991 timesteps/s
99.4% CPU use with 6 MPI tasks x no OpenMP threads

MPI task timing breakdown:
Section |  min time  |  avg time  |  max time  |%varavg| %total
---------------------------------------------------------------
Pair    | 659.28     | 666.15     | 669.54     |  13.3 | 51.33
Neigh   | 545.56     | 549.81     | 553.86     |  13.9 | 42.37
Comm    | 54.434     | 61.54      | 71.891     |  77.0 |  4.74
Output  | 0.010546   | 0.010562   | 0.010621   |   0.0 |  0.00
Modify  | 16.042     | 16.207     | 16.293     |   2.1 |  1.25
Other   |            | 4.006      |            |       |  0.31

Nlocal:    3275.33 ave 3301 max 3251 min
Histogram: 2 0 0 0 1 0 1 1 0 1
Nghost:    6788.83 ave 6827 max 6757 min
Histogram: 2 0 0 1 1 0 0 0 0 2
Neighs:    211002 ave 215089 max 206112 min
Histogram: 1 0 0 0 1 1 2 0 0 1

Total # of neighbors = 1266012
Ave neighs/atom = 64.4215
Neighbor list builds = 66172
Dangerous builds not checked
Setting up Verlet run ...
  Unit style    : metal
  Current step  : 106667
  Time step     : 0.001
Per MPI rank memory allocation (min/avg/max) = 5.58 | 5.862 | 6.004 Mbytes
Step Temp Press TotEng PotEng Enthalpy 
  106667    2417.6868   -218.42699   -75587.967   -81729.112   -75641.126 
  107162    2356.1354   -1046.5666   -75886.032   -81870.831   -76139.676 
Loop time of 9.74528 on 6 procs for 495 steps with 19652 atoms

Performance: 4.389 ns/day, 5.469 hours/ns, 50.794 timesteps/s
99.7% CPU use with 6 MPI tasks x no OpenMP threads

MPI task timing breakdown:
Section |  min time  |  avg time  |  max time  |%varavg| %total
---------------------------------------------------------------
Pair    | 5.0122     | 5.1173     | 5.1942     |   3.0 | 52.51
Neigh   | 3.9126     | 3.9622     | 4.0143     |   2.2 | 40.66
Comm    | 0.39983    | 0.52574    | 0.60306    |   9.1 |  5.39
Output  | 3.7909e-05 | 4.2478e-05 | 6.2943e-05 |   0.0 |  0.00
Modify  | 0.10706    | 0.10822    | 0.10948    |   0.3 |  1.11
Other   |            | 0.0317     |            |       |  0.33

Nlocal:    3275.33 ave 3288 max 3254 min
Histogram: 1 0 0 1 0 1 0 0 1 2
Nghost:    6764.67 ave 6817 max 6729 min
Histogram: 2 1 0 0 0 2 0 0 0 1
Neighs:    211877 ave 215012 max 208039 min
Histogram: 1 0 1 0 1 0 1 0 0 2

Total # of neighbors = 1271261
Ave neighs/atom = 64.6886
Neighbor list builds = 495
Dangerous builds not checked
Setting up Verlet run ...
  Unit style    : metal
  Current step  : 107162
  Time step     : 0.001
Per MPI rank memory allocation (min/avg/max) = 5.58 | 5.862 | 6.004 Mbytes
Step Temp Press TotEng PotEng Enthalpy 
  107162    2356.1354   -1046.5666   -75886.032   -81870.831   -76139.676 
  133334    2371.1835    1160.0349   -75860.708    -81883.73   -75580.553 
  173334    2359.7052    514.30705   -75851.046   -81844.912   -75726.616 
Loop time of 1305.73 on 6 procs for 66172 steps with 19652 atoms

Performance: 4.379 ns/day, 5.481 hours/ns, 50.678 timesteps/s
99.3% CPU use with 6 MPI tasks x no OpenMP threads

MPI task timing breakdown:
Section |  min time  |  avg time  |  max time  |%varavg| %total
---------------------------------------------------------------
Pair    | 663.12     | 669.05     | 677.01     |  17.5 | 51.24
Neigh   | 546.22     | 550.41     | 554.04     |  11.2 | 42.15
Comm    | 56.031     | 66.459     | 76.638     |  80.1 |  5.09
Output  | 0.01049    | 0.010502   | 0.010548   |   0.0 |  0.00
Modify  | 15.719     | 15.845     | 16.012     |   3.0 |  1.21
Other   |            | 3.951      |            |       |  0.30

Nlocal:    3275.33 ave 3288 max 3263 min
Histogram: 1 0 1 0 1 0 2 0 0 1
Nghost:    6783.5 ave 6814 max 6757 min
Histogram: 1 0 1 1 0 1 1 0 0 1
Neighs:    212262 ave 215036 max 208243 min
Histogram: 1 0 1 0 1 0 0 0 1 2

Total # of neighbors = 1273573
Ave neighs/atom = 64.8063
Neighbor list builds = 66172
Dangerous builds not checked
Setting up Verlet run ...
  Unit style    : metal
  Current step  : 173334
  Time step     : 0.001
Per MPI rank memory allocation (min/avg/max) = 5.58 | 5.862 | 6.004 Mbytes
Step Temp Press TotEng PotEng Enthalpy 
  173334    2359.7052    514.30705   -75851.046   -81844.912   -75726.616 
  173829     2322.051   -84.641244   -76077.277   -81975.498   -76097.757 
Loop time of 9.45847 on 6 procs for 495 steps with 19652 atoms

Performance: 4.522 ns/day, 5.308 hours/ns, 52.334 timesteps/s
98.9% CPU use with 6 MPI tasks x no OpenMP threads

MPI task timing breakdown:
Section |  min time  |  avg time  |  max time  |%varavg| %total
---------------------------------------------------------------
Pair    | 4.6919     | 4.7914     | 4.9128     |   3.9 | 50.66
Neigh   | 3.9044     | 3.9565     | 4.0034     |   1.7 | 41.83
Comm    | 0.40864    | 0.57812    | 0.72441    |  13.9 |  6.11
Output  | 5.9128e-05 | 6.6797e-05 | 8.9884e-05 |   0.0 |  0.00
Modify  | 0.10264    | 0.1046     | 0.10753    |   0.6 |  1.11
Other   |            | 0.0278     |            |       |  0.29

Nlocal:    3275.33 ave 3289 max 3258 min
Histogram: 1 0 0 1 0 1 1 1 0 1
Nghost:    6775.67 ave 6803 max 6749 min
Histogram: 1 1 1 0 0 0 0 1 1 1
Neighs:    212156 ave 216186 max 209088 min
Histogram: 1 0 1 1 0 2 0 0 0 1

Total # of neighbors = 1272936
Ave neighs/atom = 64.7739
Neighbor list builds = 495
Dangerous builds not checked
Setting up Verlet run ...
  Unit style    : metal
  Current step  : 173829
  Time step     : 0.001
Per MPI rank memory allocation (min/avg/max) = 5.58 | 5.862 | 6.004 Mbytes
Step Temp Press TotEng PotEng Enthalpy 
  173829     2322.051   -84.641244   -76077.277   -81975.498   -76097.757 
  200001    2318.8029    480.41725   -76067.446   -81957.417   -75951.284 
  240001    2298.8477    64.692486   -76167.217     -82006.5   -76151.583 
Loop time of 2001.65 on 6 procs for 66172 steps with 19652 atoms

Performance: 2.856 ns/day, 8.403 hours/ns, 33.059 timesteps/s
98.9% CPU use with 6 MPI tasks x no OpenMP threads

MPI task timing breakdown:
Section |  min time  |  avg time  |  max time  |%varavg| %total
---------------------------------------------------------------
Pair    | 1074.4     | 1087.5     | 1098.9     |  25.0 | 54.33
Neigh   | 753.65     | 758.58     | 763.9      |  15.1 | 37.90
Comm    | 109.7      | 126.56     | 143.59     | 106.7 |  6.32
Output  | 0.015975   | 0.015997   | 0.016085   |   0.0 |  0.00
Modify  | 23.186     | 23.784     | 24.276     |   7.5 |  1.19
Other   |            | 5.177      |            |       |  0.26

Nlocal:    3275.33 ave 3287 max 3261 min
Histogram: 2 0 0 0 0 0 1 1 1 1
Nghost:    6806.83 ave 6842 max 6768 min
Histogram: 1 1 0 0 0 2 0 0 0 2
Neighs:    212550 ave 214844 max 210143 min
Histogram: 2 0 0 0 0 0 3 0 0 1

Total # of neighbors = 1275300
Ave neighs/atom = 64.8942
Neighbor list builds = 66172
Dangerous builds not checked
Setting up Verlet run ...
  Unit style    : metal
  Current step  : 240001
  Time step     : 0.001
Per MPI rank memory allocation (min/avg/max) = 5.58 | 5.862 | 6.004 Mbytes
Step Temp Press TotEng PotEng Enthalpy 
  240001    2298.8477    64.692486   -76167.217     -82006.5   -76151.583 
  240496    2261.6796    -592.9162   -76278.999   -82023.871   -76422.471 
Loop time of 15.024 on 6 procs for 495 steps with 19652 atoms

Performance: 2.847 ns/day, 8.431 hours/ns, 32.947 timesteps/s
98.4% CPU use with 6 MPI tasks x no OpenMP threads

MPI task timing breakdown:
Section |  min time  |  avg time  |  max time  |%varavg| %total
---------------------------------------------------------------
Pair    | 8.0652     | 8.1635     | 8.2736     |   2.6 | 54.34
Neigh   | 5.594      | 5.641      | 5.7173     |   2.0 | 37.55
Comm    | 0.94816    | 1.0192     | 1.1176     |   5.9 |  6.78
Output  | 6.7949e-05 | 7.693e-05  | 0.000108   |   0.0 |  0.00
Modify  | 0.15734    | 0.15946    | 0.1608     |   0.3 |  1.06
Other   |            | 0.04068    |            |       |  0.27

Nlocal:    3275.33 ave 3297 max 3250 min
Histogram: 1 0 0 1 1 1 0 0 1 1
Nghost:    6784.5 ave 6808 max 6763 min
Histogram: 1 0 1 0 2 0 0 1 0 1
Neighs:    212246 ave 215300 max 208627 min
Histogram: 1 1 1 0 0 0 0 0 1 2

Total # of neighbors = 1273478
Ave neighs/atom = 64.8014
Neighbor list builds = 495
Dangerous builds not checked
Setting up Verlet run ...
  Unit style    : metal
  Current step  : 240496
  Time step     : 0.001
Per MPI rank memory allocation (min/avg/max) = 5.58 | 5.862 | 6.004 Mbytes
Step Temp Press TotEng PotEng Enthalpy 
  240496    2261.6796    -592.9162   -76278.999   -82023.871   -76422.471 
  266668    2237.6554    344.72912   -76423.254   -82107.103    -76340.21 
  306668    2246.4392    1605.1578   -76392.857   -82099.018   -76006.793 
Loop time of 2063.88 on 6 procs for 66172 steps with 19652 atoms

Performance: 2.770 ns/day, 8.664 hours/ns, 32.062 timesteps/s
99.0% CPU use with 6 MPI tasks x no OpenMP threads

MPI task timing breakdown:
Section |  min time  |  avg time  |  max time  |%varavg| %total
---------------------------------------------------------------
Pair    | 1105.3     | 1121.6     | 1145.1     |  36.6 | 54.35
Neigh   | 752.3      | 756.07     | 762.99     |  12.3 | 36.63
Comm    | 132.55     | 155.51     | 174.83     | 110.2 |  7.53
Output  | 0.016577   | 0.016594   | 0.016663   |   0.0 |  0.00
Modify  | 24.248     | 25.344     | 26.093     |  13.2 |  1.23
Other   |            | 5.316      |            |       |  0.26

Nlocal:    3275.33 ave 3288 max 3262 min
Histogram: 1 1 0 0 0 2 0 0 0 2
Nghost:    6794 ave 6813 max 6771 min
Histogram: 1 0 0 1 1 0 1 0 1 1
Neighs:    213539 ave 218647 max 210100 min
Histogram: 1 0 2 0 2 0 0 0 0 1

Total # of neighbors = 1281235
Ave neighs/atom = 65.1962
Neighbor list builds = 66172
Dangerous builds not checked
Setting up Verlet run ...
  Unit style    : metal
  Current step  : 306668
  Time step     : 0.001
Per MPI rank memory allocation (min/avg/max) = 5.58 | 5.862 | 6.004 Mbytes
Step Temp Press TotEng PotEng Enthalpy 
  306668    2246.4392    1605.1578   -76392.857   -82099.018   -76006.793 
  307163    2218.6009    12.803815   -76493.377   -82128.825   -76490.294 
Loop time of 14.7475 on 6 procs for 495 steps with 19652 atoms

Performance: 2.900 ns/day, 8.276 hours/ns, 33.565 timesteps/s
98.9% CPU use with 6 MPI tasks x no OpenMP threads

MPI task timing breakdown:
Section |  min time  |  avg time  |  max time  |%varavg| %total
---------------------------------------------------------------
Pair    | 7.897      | 7.9577     | 8.0655     |   2.0 | 53.96
Neigh   | 4.6941     | 4.9853     | 5.4986     |  11.7 | 33.80
Comm    | 1.0126     | 1.5444     | 1.8889     |  22.9 | 10.47
Output  | 7.4148e-05 | 9.1354e-05 | 0.00015187 |   0.0 |  0.00
Modify  | 0.21614    | 0.22079    | 0.22755    |   0.8 |  1.50
Other   |            | 0.03918    |            |       |  0.27

Nlocal:    3275.33 ave 3286 max 3263 min
Histogram: 2 0 0 0 0 1 1 0 0 2
Nghost:    6809.17 ave 6821 max 6803 min
Histogram: 2 0 1 2 0 0 0 0 0 1
Neighs:    213297 ave 218017 max 209004 min
Histogram: 1 1 1 0 0 0 0 2 0 1

Total # of neighbors = 1279781
Ave neighs/atom = 65.1222
Neighbor list builds = 495
Dangerous builds not checked
Setting up Verlet run ...
  Unit style    : metal
  Current step  : 307163
  Time step     : 0.001
Per MPI rank memory allocation (min/avg/max) = 5.58 | 5.862 | 6.004 Mbytes
Step Temp Press TotEng PotEng Enthalpy 
  307163    2218.6009    12.803815   -76493.377   -82128.825   -76490.294 
  333335    2206.2208    465.89734    -76526.23   -82130.232   -76414.151 
  373335    2173.4922    547.58776   -76654.052    -82174.92   -76522.368 
Loop time of 2069.56 on 6 procs for 66172 steps with 19652 atoms

Performance: 2.763 ns/day, 8.688 hours/ns, 31.974 timesteps/s
99.0% CPU use with 6 MPI tasks x no OpenMP threads

MPI task timing breakdown:
Section |  min time  |  avg time  |  max time  |%varavg| %total
---------------------------------------------------------------
Pair    | 1128.9     | 1137.3     | 1151.1     |  25.0 | 54.95
Neigh   | 681.78     | 705.97     | 728.48     |  53.0 | 34.11
Comm    | 182.68     | 198.77     | 209.28     |  69.6 |  9.60
Output  | 0.015783   | 0.015825   | 0.015913   |   0.0 |  0.00
Modify  | 21.572     | 22.337     | 22.845     |   9.4 |  1.08
Other   |            | 5.195      |            |       |  0.25

Nlocal:    3275.33 ave 3299 max 3258 min
Histogram: 1 1 1 1 0 0 1 0 0 1
Nghost:    6804.17 ave 6830 max 6784 min
Histogram: 1 0 1 1 1 1 0 0 0 1
Neighs:    213529 ave 218243 max 208907 min
Histogram: 2 0 0 0 0 2 0 0 1 1

Total # of neighbors = 1281176
Ave neighs/atom = 65.1932
Neighbor list builds = 66172
Dangerous builds not checked
Setting up Verlet run ...
  Unit style    : metal
  Current step  : 373335
  Time step     : 0.001
Per MPI rank memory allocation (min/avg/max) = 5.58 | 5.862 | 6.004 Mbytes
Step Temp Press TotEng PotEng Enthalpy 
  373335    2173.4922    547.58776   -76654.052    -82174.92   -76522.368 
  373830    2156.0187   -934.69682   -76716.722   -82193.206   -76942.125 
Loop time of 12.6166 on 6 procs for 495 steps with 19652 atoms

Performance: 3.390 ns/day, 7.080 hours/ns, 39.234 timesteps/s
98.7% CPU use with 6 MPI tasks x no OpenMP threads

MPI task timing breakdown:
Section |  min time  |  avg time  |  max time  |%varavg| %total
---------------------------------------------------------------
Pair    | 6.7421     | 6.8114     | 6.9311     |   2.8 | 53.99
Neigh   | 4.3676     | 4.5928     | 4.8234     |   8.4 | 36.40
Comm    | 0.85571    | 1.0447     | 1.298      |  14.1 |  8.28
Output  | 4.8161e-05 | 5.722e-05  | 9.2983e-05 |   0.0 |  0.00
Modify  | 0.12624    | 0.12999    | 0.13428    |   0.7 |  1.03
Other   |            | 0.03768    |            |       |  0.30

Nlocal:    3275.33 ave 3287 max 3259 min
Histogram: 1 0 0 1 0 1 0 1 1 1
Nghost:    6792.83 ave 6835 max 6751 min
Histogram: 2 0 0 0 1 1 0 0 1 1
Neighs:    212955 ave 216338 max 210049 min
Histogram: 3 0 0 0 0 0 0 1 1 1

Total # of neighbors = 1277728
Ave neighs/atom = 65.0177
Neighbor list builds = 495
Dangerous builds not checked
Setting up Verlet run ...
  Unit style    : metal
  Current step  : 373830
  Time step     : 0.001
Per MPI rank memory allocation (min/avg/max) = 5.58 | 5.862 | 6.004 Mbytes
Step Temp Press TotEng PotEng Enthalpy 
  373830    2156.0187   -934.69682   -76716.722   -82193.206   -76942.125 
  400002     2165.368   -1085.1877   -76750.136   -82250.368   -77011.568 
  440002    2148.0849    415.98316   -76810.083   -82266.415   -76710.257 
Loop time of 2258.53 on 6 procs for 66172 steps with 19652 atoms

Performance: 2.531 ns/day, 9.481 hours/ns, 29.299 timesteps/s
99.0% CPU use with 6 MPI tasks x no OpenMP threads

MPI task timing breakdown:
Section |  min time  |  avg time  |  max time  |%varavg| %total
---------------------------------------------------------------
Pair    | 1242.4     | 1256.5     | 1274.7     |  30.7 | 55.63
Neigh   | 732.38     | 748.59     | 762.7      |  39.7 | 33.15
Comm    | 194.86     | 222.46     | 248.57     | 140.5 |  9.85
Output  | 0.01753    | 0.017555   | 0.017648   |   0.0 |  0.00
Modify  | 24.938     | 25.248     | 25.362     |   2.8 |  1.12
Other   |            | 5.734      |            |       |  0.25

Nlocal:    3275.33 ave 3306 max 3250 min
Histogram: 1 0 1 1 1 0 1 0 0 1
Nghost:    6816.17 ave 6857 max 6782 min
Histogram: 2 0 0 1 0 0 2 0 0 1
Neighs:    213944 ave 217949 max 210820 min
Histogram: 1 2 0 0 0 1 1 0 0 1

Total # of neighbors = 1283667
Ave neighs/atom = 65.3199
Neighbor list builds = 66172
Dangerous builds not checked
Setting up Verlet run ...
  Unit style    : metal
  Current step  : 440002
  Time step     : 0.001
Per MPI rank memory allocation (min/avg/max) = 5.58 | 5.862 | 6.004 Mbytes
Step Temp Press TotEng PotEng Enthalpy 
  440002    2148.0849    415.98316   -76810.083   -82266.415   -76710.257 
  440497    2100.8553    345.69266   -76967.277   -82303.641   -76884.406 
Loop time of 17.497 on 6 procs for 495 steps with 19652 atoms

Performance: 2.444 ns/day, 9.819 hours/ns, 28.291 timesteps/s
98.7% CPU use with 6 MPI tasks x no OpenMP threads

MPI task timing breakdown:
Section |  min time  |  avg time  |  max time  |%varavg| %total
---------------------------------------------------------------
Pair    | 9.5646     | 9.7086     | 9.8429     |   3.2 | 55.49
Neigh   | 5.2553     | 5.6336     | 6.0075     |  11.7 | 32.20
Comm    | 1.4149     | 1.9291     | 2.3481     |  26.5 | 11.03
Output  | 6.485e-05  | 7.9115e-05 | 0.00013113 |   0.0 |  0.00
Modify  | 0.17288    | 0.17755    | 0.18307    |   0.9 |  1.01
Other   |            | 0.04807    |            |       |  0.27

Nlocal:    3275.33 ave 3295 max 3264 min
Histogram: 2 0 0 2 1 0 0 0 0 1
Nghost:    6836.83 ave 6856 max 6809 min
Histogram: 1 1 0 0 0 0 1 0 1 2
Neighs:    214220 ave 218233 max 209359 min
Histogram: 1 0 1 0 0 1 1 0 1 1

Total # of neighbors = 1285318
Ave neighs/atom = 65.4039
Neighbor list builds = 495
Dangerous builds not checked
Setting up Verlet run ...
  Unit style    : metal
  Current step  : 440497
  Time step     : 0.001
Per MPI rank memory allocation (min/avg/max) = 5.58 | 5.862 | 6.004 Mbytes
Step Temp Press TotEng PotEng Enthalpy 
  440497    2100.8553    345.69266   -76967.277   -82303.641   -76884.406 
  466669    2103.8373    413.72051   -77029.289   -82373.228   -76930.289 
  506669    2101.4336      531.614   -76979.773   -82317.605   -76852.375 
Loop time of 2424.16 on 6 procs for 66172 steps with 19652 atoms

Performance: 2.358 ns/day, 10.176 hours/ns, 27.297 timesteps/s
98.9% CPU use with 6 MPI tasks x no OpenMP threads

MPI task timing breakdown:
Section |  min time  |  avg time  |  max time  |%varavg| %total
---------------------------------------------------------------
Pair    | 1334.3     | 1355.6     | 1379.2     |  44.6 | 55.92
Neigh   | 734.26     | 768.39     | 788.27     |  73.0 | 31.70
Comm    | 221.32     | 264.93     | 320.47     | 221.5 | 10.93
Output  | 0.016544   | 0.01656    | 0.016628   |   0.0 |  0.00
Modify  | 28.454     | 29.1       | 29.687     |   6.8 |  1.20
Other   |            | 6.107      |            |       |  0.25

Nlocal:    3275.33 ave 3292 max 3257 min
Histogram: 1 0 1 0 0 1 1 1 0 1
Nghost:    6820.17 ave 6864 max 6781 min
Histogram: 1 2 0 0 0 0 1 0 0 2
Neighs:    214387 ave 217878 max 209088 min
Histogram: 1 0 0 0 1 1 0 0 2 1

Total # of neighbors = 1286322
Ave neighs/atom = 65.455
Neighbor list builds = 66172
Dangerous builds not checked
Setting up Verlet run ...
  Unit style    : metal
  Current step  : 506669
  Time step     : 0.001
Per MPI rank memory allocation (min/avg/max) = 5.58 | 5.862 | 6.004 Mbytes
Step Temp Press TotEng PotEng Enthalpy 
  506669    2101.4336      531.614   -76979.773   -82317.605   -76852.375 
  507164      2063.28   -408.81045   -77213.063   -82453.982   -77310.952 
Loop time of 16.2722 on 6 procs for 495 steps with 19652 atoms

Performance: 2.628 ns/day, 9.131 hours/ns, 30.420 timesteps/s
98.8% CPU use with 6 MPI tasks x no OpenMP threads

MPI task timing breakdown:
Section |  min time  |  avg time  |  max time  |%varavg| %total
---------------------------------------------------------------
Pair    | 8.946      | 9.0078     | 9.042      |   1.2 | 55.36
Neigh   | 5.2553     | 5.4613     | 5.5429     |   4.3 | 33.56
Comm    | 1.3227     | 1.4845     | 1.6426     |  10.8 |  9.12
Output  | 7.0095e-05 | 9.2665e-05 | 0.00015593 |   0.0 |  0.00
Modify  | 0.16837    | 0.27148    | 0.32347    |  13.9 |  1.67
Other   |            | 0.04704    |            |       |  0.29

Nlocal:    3275.33 ave 3287 max 3265 min
Histogram: 1 1 0 1 0 1 0 0 1 1
Nghost:    6840.33 ave 6861 max 6809 min
Histogram: 1 0 0 0 1 0 1 1 1 1
Neighs:    214472 ave 216774 max 210562 min
Histogram: 1 0 0 0 2 0 0 0 1 2

Total # of neighbors = 1286831
Ave neighs/atom = 65.4809
Neighbor list builds = 495
Dangerous builds not checked
Setting up Verlet run ...
  Unit style    : metal
  Current step  : 507164
  Time step     : 0.001
Per MPI rank memory allocation (min/avg/max) = 5.58 | 5.862 | 6.004 Mbytes
Step Temp Press TotEng PotEng Enthalpy 
  507164      2063.28   -408.81045   -77213.063   -82453.982   -77310.952 
  533336    2056.9716    876.19945   -77184.602   -82409.497   -76975.406 
  573336    2039.1699    -718.7771   -77236.733    -82416.41   -77408.935 
Loop time of 2362.4 on 6 procs for 66172 steps with 19652 atoms

Performance: 2.420 ns/day, 9.917 hours/ns, 28.011 timesteps/s
98.9% CPU use with 6 MPI tasks x no OpenMP threads

MPI task timing breakdown:
Section |  min time  |  avg time  |  max time  |%varavg| %total
---------------------------------------------------------------
Pair    | 1313.1     | 1326.4     | 1341.7     |  28.4 | 56.14
Neigh   | 768.03     | 784.46     | 795.8      |  36.1 | 33.21
Comm    | 196.11     | 217.65     | 244.02     | 132.0 |  9.21
Output  | 0.017731   | 0.017756   | 0.01787    |   0.0 |  0.00
Modify  | 27.546     | 27.703     | 27.812     |   1.8 |  1.17
Other   |            | 6.207      |            |       |  0.26

Nlocal:    3275.33 ave 3295 max 3254 min
Histogram: 1 0 1 0 1 1 0 1 0 1
Nghost:    6835.83 ave 6857 max 6825 min
Histogram: 1 3 0 0 0 1 0 0 0 1
Neighs:    214382 ave 218330 max 211388 min
Histogram: 1 0 1 1 1 1 0 0 0 1

Total # of neighbors = 1286292
Ave neighs/atom = 65.4535
Neighbor list builds = 66172
Dangerous builds not checked
Setting up Verlet run ...
  Unit style    : metal
  Current step  : 573336
  Time step     : 0.001
Per MPI rank memory allocation (min/avg/max) = 5.58 | 5.862 | 6.004 Mbytes
Step Temp Press TotEng PotEng Enthalpy 
  573336    2039.1699    -718.7771   -77236.733    -82416.41   -77408.935 
  573831    2011.1359   -607.83823   -77465.299   -82573.767   -77610.688 
Loop time of 16.8687 on 6 procs for 495 steps with 19652 atoms

Performance: 2.535 ns/day, 9.466 hours/ns, 29.344 timesteps/s
98.8% CPU use with 6 MPI tasks x no OpenMP threads

MPI task timing breakdown:
Section |  min time  |  avg time  |  max time  |%varavg| %total
---------------------------------------------------------------
Pair    | 9.4317     | 9.5384     | 9.6808     |   2.5 | 56.55
Neigh   | 5.5269     | 5.6882     | 5.9293     |   5.6 | 33.72
Comm    | 1.2332     | 1.4241     | 1.6731     |  13.2 |  8.44
Output  | 5.6982e-05 | 7.3393e-05 | 0.00014019 |   0.0 |  0.00
Modify  | 0.16807    | 0.17127    | 0.17535    |   0.6 |  1.02
Other   |            | 0.04659    |            |       |  0.28

Nlocal:    3275.33 ave 3292 max 3252 min
Histogram: 1 0 0 1 1 0 0 0 1 2
Nghost:    6847.17 ave 6878 max 6819 min
Histogram: 1 0 0 2 1 0 1 0 0 1
Neighs:    214750 ave 216900 max 212783 min
Histogram: 1 1 0 1 1 0 0 0 0 2

Total # of neighbors = 1288499
Ave neighs/atom = 65.5658
Neighbor list builds = 495
Dangerous builds not checked
Setting up Verlet run ...
  Unit style    : metal
  Current step  : 573831
  Time step     : 0.001
Per MPI rank memory allocation (min/avg/max) = 5.58 | 5.862 | 6.004 Mbytes
Step Temp Press TotEng PotEng Enthalpy 
  573831    2011.1359   -607.83823   -77465.299   -82573.767   -77610.688 
  600003    2000.5837   -32.628507   -77486.583   -82568.248   -77494.377 
  640003    1993.8883   -815.32573   -77510.722    -82575.38    -77705.71 
Loop time of 2353.16 on 6 procs for 66172 steps with 19652 atoms

Performance: 2.430 ns/day, 9.878 hours/ns, 28.121 timesteps/s
98.9% CPU use with 6 MPI tasks x no OpenMP threads

MPI task timing breakdown:
Section |  min time  |  avg time  |  max time  |%varavg| %total
---------------------------------------------------------------
Pair    | 1309.2     | 1324.7     | 1341.6     |  29.8 | 56.30
Neigh   | 790.55     | 795.95     | 802.31     |  13.5 | 33.82
Comm    | 182.52     | 201.02     | 220.56     |  98.7 |  8.54
Output  | 0.016187   | 0.016208   | 0.016296   |   0.0 |  0.00
Modify  | 24.751     | 25.243     | 25.589     |   6.8 |  1.07
Other   |            | 6.205      |            |       |  0.26

Nlocal:    3275.33 ave 3293 max 3250 min
Histogram: 1 1 0 0 0 0 1 0 2 1
Nghost:    6829.17 ave 6837 max 6815 min
Histogram: 1 0 0 0 0 1 1 0 2 1
Neighs:    214796 ave 220307 max 209355 min
Histogram: 1 0 0 1 2 0 0 1 0 1

Total # of neighbors = 1288778
Ave neighs/atom = 65.58
Neighbor list builds = 66172
Dangerous builds not checked
Setting up Verlet run ...
  Unit style    : metal
  Current step  : 640003
  Time step     : 0.001
Per MPI rank memory allocation (min/avg/max) = 5.581 | 5.862 | 6.004 Mbytes
Step Temp Press TotEng PotEng Enthalpy 
  640003    1993.8883   -815.32573   -77510.722    -82575.38    -77705.71 
  640498    1955.5847   -672.95174   -77661.945   -82629.308   -77822.469 
Loop time of 15.9045 on 6 procs for 495 steps with 19652 atoms

Performance: 2.689 ns/day, 8.925 hours/ns, 31.123 timesteps/s
99.1% CPU use with 6 MPI tasks x no OpenMP threads

MPI task timing breakdown:
Section |  min time  |  avg time  |  max time  |%varavg| %total
---------------------------------------------------------------
Pair    | 8.6973     | 8.8066     | 8.9446     |   2.6 | 55.37
Neigh   | 5.2131     | 5.5637     | 5.8893     |   9.9 | 34.98
Comm    | 1.0218     | 1.3244     | 1.6238     |  18.2 |  8.33
Output  | 5.0068e-05 | 6.2307e-05 | 0.00011587 |   0.0 |  0.00
Modify  | 0.1617     | 0.16577    | 0.17044    |   0.7 |  1.04
Other   |            | 0.04398    |            |       |  0.28

Nlocal:    3275.33 ave 3306 max 3256 min
Histogram: 2 0 0 1 2 0 0 0 0 1
Nghost:    6831.67 ave 6869 max 6794 min
Histogram: 1 0 0 0 3 0 1 0 0 1
Neighs:    215319 ave 219143 max 212271 min
Histogram: 1 0 2 0 0 2 0 0 0 1

Total # of neighbors = 1291916
Ave neighs/atom = 65.7397
Neighbor list builds = 495
Dangerous builds not checked
Setting up Verlet run ...
  Unit style    : metal
  Current step  : 640498
  Time step     : 0.001
Per MPI rank memory allocation (min/avg/max) = 5.581 | 5.862 | 6.004 Mbytes
Step Temp Press TotEng PotEng Enthalpy 
  640498    1955.5847   -672.95174   -77661.945   -82629.308   -77822.469 
  666670    1955.0739   -90.170996   -77651.367   -82617.433    -77672.89 
  706670    1961.2821    346.24214   -77722.046   -82703.882   -77639.644 
Loop time of 2194.54 on 6 procs for 66172 steps with 19652 atoms

Performance: 2.605 ns/day, 9.212 hours/ns, 30.153 timesteps/s
99.0% CPU use with 6 MPI tasks x no OpenMP threads

MPI task timing breakdown:
Section |  min time  |  avg time  |  max time  |%varavg| %total
---------------------------------------------------------------
Pair    | 1207.9     | 1216.4     | 1233.8     |  26.5 | 55.43
Neigh   | 736.81     | 749.53     | 759.49     |  30.8 | 34.15
Comm    | 181.11     | 197.08     | 218.1      | 104.6 |  8.98
Output  | 0.015341   | 0.01536    | 0.015429   |   0.0 |  0.00
Modify  | 25.372     | 25.946     | 26.229     |   5.7 |  1.18
Other   |            | 5.561      |            |       |  0.25

Nlocal:    3275.33 ave 3294 max 3256 min
Histogram: 1 1 0 0 0 0 3 0 0 1
Nghost:    6852.33 ave 6876 max 6810 min
Histogram: 1 0 0 0 1 0 0 1 2 1
Neighs:    215850 ave 220255 max 209477 min
Histogram: 1 0 0 0 1 2 0 0 0 2

Total # of neighbors = 1295101
Ave neighs/atom = 65.9017
Neighbor list builds = 66172
Dangerous builds not checked
Setting up Verlet run ...
  Unit style    : metal
  Current step  : 706670
  Time step     : 0.001
Per MPI rank memory allocation (min/avg/max) = 5.581 | 5.862 | 6.004 Mbytes
Step Temp Press TotEng PotEng Enthalpy 
  706670    1961.2821    346.24214   -77722.046   -82703.882   -77639.644 
  707165    1928.0123   -97.458319   -77891.546   -82788.873   -77914.709 
Loop time of 16.5294 on 6 procs for 495 steps with 19652 atoms

Performance: 2.587 ns/day, 9.276 hours/ns, 29.947 timesteps/s
99.7% CPU use with 6 MPI tasks x no OpenMP threads

MPI task timing breakdown:
Section |  min time  |  avg time  |  max time  |%varavg| %total
---------------------------------------------------------------
Pair    | 9.1473     | 9.3144     | 9.5057     |   3.9 | 56.35
Neigh   | 5.5931     | 5.7332     | 5.8184     |   3.4 | 34.68
Comm    | 0.98218    | 1.2545     | 1.5649     |  16.9 |  7.59
Output  | 6.0081e-05 | 7.3393e-05 | 0.00012517 |   0.0 |  0.00
Modify  | 0.17694    | 0.17888    | 0.1804     |   0.2 |  1.08
Other   |            | 0.04828    |            |       |  0.29

Nlocal:    3275.33 ave 3314 max 3260 min
Histogram: 2 1 2 0 0 0 0 0 0 1
Nghost:    6839.17 ave 6859 max 6818 min
Histogram: 1 0 1 1 0 0 0 2 0 1
Neighs:    216190 ave 223913 max 211990 min
Histogram: 1 1 1 1 1 0 0 0 0 1

Total # of neighbors = 1297137
Ave neighs/atom = 66.0053
Neighbor list builds = 495
Dangerous builds not checked
Setting up Verlet run ...
  Unit style    : metal
  Current step  : 707165
  Time step     : 0.001
Per MPI rank memory allocation (min/avg/max) = 5.581 | 5.862 | 6.004 Mbytes
Step Temp Press TotEng PotEng Enthalpy 
  707165    1928.0123   -97.458319   -77891.546   -82788.873   -77914.709 
  733337    1879.4044    717.37104    -77984.55   -82758.409   -77814.083 
  773337    1900.1428    1432.1744   -77990.916   -82817.452   -77651.487 
Loop time of 2496.09 on 6 procs for 66172 steps with 19652 atoms

Performance: 2.290 ns/day, 10.478 hours/ns, 26.510 timesteps/s
98.5% CPU use with 6 MPI tasks x no OpenMP threads

MPI task timing breakdown:
Section |  min time  |  avg time  |  max time  |%varavg| %total
---------------------------------------------------------------
Pair    | 1388.4     | 1400.8     | 1421.7     |  29.5 | 56.12
Neigh   | 799.57     | 817.46     | 830.01     |  36.7 | 32.75
Comm    | 199.98     | 233.01     | 263.23     | 136.8 |  9.33
Output  | 0.01733    | 0.017356   | 0.017466   |   0.0 |  0.00
Modify  | 37.947     | 38.404     | 39.163     |   6.8 |  1.54
Other   |            | 6.413      |            |       |  0.26

Nlocal:    3275.33 ave 3289 max 3262 min
Histogram: 1 0 1 1 0 0 1 1 0 1
Nghost:    6863.83 ave 6883 max 6847 min
Histogram: 1 0 1 0 1 2 0 0 0 1
Neighs:    216636 ave 220447 max 211685 min
Histogram: 1 0 1 0 0 0 2 1 0 1

Total # of neighbors = 1299813
Ave neighs/atom = 66.1415
Neighbor list builds = 66172
Dangerous builds not checked
Setting up Verlet run ...
  Unit style    : metal
  Current step  : 773337
  Time step     : 0.001
Per MPI rank memory allocation (min/avg/max) = 5.581 | 5.862 | 6.004 Mbytes
Step Temp Press TotEng PotEng Enthalpy 
  773337    1900.1428    1432.1744   -77990.916   -82817.452   -77651.487 
  773832    1852.1077    273.65068   -78104.216   -82808.739   -78039.228 
Loop time of 19.9855 on 6 procs for 495 steps with 19652 atoms

Performance: 2.140 ns/day, 11.215 hours/ns, 24.768 timesteps/s
96.8% CPU use with 6 MPI tasks x no OpenMP threads

MPI task timing breakdown:
Section |  min time  |  avg time  |  max time  |%varavg| %total
---------------------------------------------------------------
Pair    | 11.062     | 11.303     | 11.661     |   6.8 | 56.56
Neigh   | 5.7896     | 6.1215     | 6.5133     |  11.2 | 30.63
Comm    | 1.4812     | 2.1485     | 2.7071     |  30.6 | 10.75
Output  | 4.6968e-05 | 8.1301e-05 | 0.0001328  |   0.0 |  0.00
Modify  | 0.31331    | 0.36319    | 0.42425    |   7.3 |  1.82
Other   |            | 0.04932    |            |       |  0.25

Nlocal:    3275.33 ave 3294 max 3254 min
Histogram: 1 1 0 0 0 2 0 0 0 2
Nghost:    6851 ave 6898 max 6809 min
Histogram: 1 0 0 1 2 0 1 0 0 1
Neighs:    216273 ave 221372 max 212197 min
Histogram: 2 0 1 0 0 1 0 1 0 1

Total # of neighbors = 1297637
Ave neighs/atom = 66.0308
Neighbor list builds = 495
Dangerous builds not checked
Setting up Verlet run ...
  Unit style    : metal
  Current step  : 773832
  Time step     : 0.001
Per MPI rank memory allocation (min/avg/max) = 5.581 | 5.862 | 6.004 Mbytes
Step Temp Press TotEng PotEng Enthalpy 
  773832    1852.1077    273.65068   -78104.216   -82808.739   -78039.228 
  800004    1846.2616    641.79912   -78177.356   -82867.029   -78024.959 
  840004    1853.1445    556.11768   -78166.331   -82873.487   -78034.545 
Loop time of 2315.28 on 6 procs for 66172 steps with 19652 atoms

Performance: 2.469 ns/day, 9.719 hours/ns, 28.581 timesteps/s
98.8% CPU use with 6 MPI tasks x no OpenMP threads

MPI task timing breakdown:
Section |  min time  |  avg time  |  max time  |%varavg| %total
---------------------------------------------------------------
Pair    | 1280.5     | 1288.6     | 1306.5     |  25.9 | 55.66
Neigh   | 755.36     | 770.39     | 777.09     |  27.1 | 33.27
Comm    | 198.54     | 221.63     | 244.73     | 102.4 |  9.57
Output  | 0.016766   | 0.016799   | 0.016934   |   0.0 |  0.00
Modify  | 28.73      | 28.873     | 29.006     |   1.7 |  1.25
Other   |            | 5.76       |            |       |  0.25

Nlocal:    3275.33 ave 3283 max 3257 min
Histogram: 1 0 0 0 0 0 1 1 0 3
Nghost:    6842 ave 6852 max 6831 min
Histogram: 2 1 0 0 0 0 0 0 1 2
Neighs:    216726 ave 220816 max 213155 min
Histogram: 1 1 0 1 0 1 0 1 0 1

Total # of neighbors = 1300359
Ave neighs/atom = 66.1693
Neighbor list builds = 66172
Dangerous builds not checked
Setting up Verlet run ...
  Unit style    : metal
  Current step  : 840004
  Time step     : 0.001
Per MPI rank memory allocation (min/avg/max) = 5.581 | 5.862 | 6.004 Mbytes
Step Temp Press TotEng PotEng Enthalpy 
  840004    1853.1445    556.11768   -78166.331   -82873.487   -78034.545 
  840499    1794.4699    340.77937   -78334.493   -82892.611   -78253.773 
Loop time of 15.134 on 6 procs for 495 steps with 19652 atoms

Performance: 2.826 ns/day, 8.493 hours/ns, 32.708 timesteps/s
99.1% CPU use with 6 MPI tasks x no OpenMP threads

MPI task timing breakdown:
Section |  min time  |  avg time  |  max time  |%varavg| %total
---------------------------------------------------------------
Pair    | 7.8496     | 8.2002     | 8.5294     |  10.7 | 54.18
Neigh   | 4.5066     | 4.6967     | 4.9444     |   7.0 | 31.03
Comm    | 1.6498     | 2.0632     | 2.5766     |  25.8 | 13.63
Output  | 8.893e-05  | 0.00011849 | 0.00017595 |   0.0 |  0.00
Modify  | 0.13739    | 0.13923    | 0.14245    |   0.5 |  0.92
Other   |            | 0.03459    |            |       |  0.23

Nlocal:    3275.33 ave 3303 max 3232 min
Histogram: 1 0 0 1 0 0 1 1 1 1
Nghost:    6860 ave 6911 max 6818 min
Histogram: 1 0 1 2 0 0 0 1 0 1
Neighs:    216888 ave 222683 max 213729 min
Histogram: 1 1 1 1 1 0 0 0 0 1

Total # of neighbors = 1301329
Ave neighs/atom = 66.2187
Neighbor list builds = 495
Dangerous builds not checked
Setting up Verlet run ...
  Unit style    : metal
  Current step  : 840499
  Time step     : 0.001
Per MPI rank memory allocation (min/avg/max) = 5.581 | 5.862 | 6.004 Mbytes
Step Temp Press TotEng PotEng Enthalpy 
  840499    1794.4699    340.77937   -78334.493   -82892.611   -78253.773 
  866671    1797.0252   -1270.2604   -78403.006   -82967.614   -78705.055 
  906671    1798.0456     795.8175   -78358.032   -82925.232   -78169.635 
Loop time of 2048.91 on 6 procs for 66172 steps with 19652 atoms

Performance: 2.790 ns/day, 8.601 hours/ns, 32.296 timesteps/s
99.8% CPU use with 6 MPI tasks x no OpenMP threads

MPI task timing breakdown:
Section |  min time  |  avg time  |  max time  |%varavg| %total
---------------------------------------------------------------
Pair    | 1108.8     | 1113.9     | 1124.5     |  15.6 | 54.37
Neigh   | 639.5      | 643.12     | 648.6      |  11.6 | 31.39
Comm    | 259.28     | 268.68     | 276.06     |  39.2 | 13.11
Output  | 0.039133   | 0.039166   | 0.039293   |   0.0 |  0.00
Modify  | 18.552     | 18.642     | 18.691     |   1.0 |  0.91
Other   |            | 4.478      |            |       |  0.22

Nlocal:    3275.33 ave 3304 max 3252 min
Histogram: 1 0 1 1 1 0 1 0 0 1
Nghost:    6848.17 ave 6875 max 6803 min
Histogram: 1 0 1 0 0 1 0 0 0 3
Neighs:    216985 ave 218661 max 213098 min
Histogram: 1 0 0 0 1 0 0 1 0 3

Total # of neighbors = 1301911
Ave neighs/atom = 66.2483
Neighbor list builds = 66172
Dangerous builds not checked
Setting up Verlet run ...
  Unit style    : metal
  Current step  : 906671
  Time step     : 0.001
Per MPI rank memory allocation (min/avg/max) = 5.581 | 5.862 | 6.004 Mbytes
Step Temp Press TotEng PotEng Enthalpy 
  906671    1798.0456     795.8175   -78358.032   -82925.232   -78169.635 
  907166    1762.4265    1655.5813   -78580.517   -83057.242   -78189.711 
Loop time of 14.0136 on 6 procs for 495 steps with 19652 atoms

Performance: 3.052 ns/day, 7.864 hours/ns, 35.323 timesteps/s
99.6% CPU use with 6 MPI tasks x no OpenMP threads

MPI task timing breakdown:
Section |  min time  |  avg time  |  max time  |%varavg| %total
---------------------------------------------------------------
Pair    | 7.6961     | 7.7619     | 7.8636     |   1.9 | 55.39
Neigh   | 4.1553     | 4.458      | 5.1073     |  15.2 | 31.81
Comm    | 1.0322     | 1.6287     | 1.9542     |  24.1 | 11.62
Output  | 0.00013018 | 0.00014257 | 0.000175   |   0.0 |  0.00
Modify  | 0.12838    | 0.13235    | 0.14081    |   1.1 |  0.94
Other   |            | 0.03253    |            |       |  0.23

Nlocal:    3275.33 ave 3287 max 3253 min
Histogram: 1 0 0 0 0 1 1 1 0 2
Nghost:    6875.83 ave 6892 max 6865 min
Histogram: 1 1 0 0 3 0 0 0 0 1
Neighs:    217628 ave 221044 max 213891 min
Histogram: 1 0 1 0 2 0 0 0 0 2

Total # of neighbors = 1305768
Ave neighs/atom = 66.4445
Neighbor list builds = 495
Dangerous builds not checked
Setting up Verlet run ...
  Unit style    : metal
  Current step  : 907166
  Time step     : 0.001
Per MPI rank memory allocation (min/avg/max) = 5.581 | 5.862 | 6.004 Mbytes
Step Temp Press TotEng PotEng Enthalpy 
  907166    1762.4265    1655.5813   -78580.517   -83057.242   -78189.711 
  933338    1744.9718    492.38574   -78664.658   -83097.046   -78548.564 
  973338     1756.319   -500.80015   -78607.592   -83068.803   -78726.238 
Loop time of 2045.38 on 6 procs for 66172 steps with 19652 atoms

Performance: 2.795 ns/day, 8.586 hours/ns, 32.352 timesteps/s
99.2% CPU use with 6 MPI tasks x no OpenMP threads

MPI task timing breakdown:
Section |  min time  |  avg time  |  max time  |%varavg| %total
---------------------------------------------------------------
Pair    | 1111.4     | 1118.2     | 1127.6     |  16.7 | 54.67
Neigh   | 652.27     | 658.95     | 673.07     |  27.3 | 32.22
Comm    | 225.32     | 240.86     | 251.96     |  63.3 | 11.78
Output  | 0.92711    | 0.92713    | 0.92719    |   0.0 |  0.05
Modify  | 21.326     | 21.892     | 22.327     |   8.1 |  1.07
Other   |            | 4.553      |            |       |  0.22

Nlocal:    3275.33 ave 3285 max 3267 min
Histogram: 1 1 0 0 0 2 1 0 0 1
Nghost:    6846 ave 6877 max 6832 min
Histogram: 3 1 0 0 0 0 1 0 0 1
Neighs:    216858 ave 220156 max 214195 min
Histogram: 2 0 0 1 1 0 0 0 1 1

Total # of neighbors = 1301148
Ave neighs/atom = 66.2094
Neighbor list builds = 66172
Dangerous builds not checked
Setting up Verlet run ...
  Unit style    : metal
  Current step  : 973338
  Time step     : 0.001
Per MPI rank memory allocation (min/avg/max) = 5.581 | 5.862 | 6.004 Mbytes
Step Temp Press TotEng PotEng Enthalpy 
  973338     1756.319   -500.80015   -78607.592   -83068.803   -78726.238 
  973833    1702.8908   -191.24919   -78846.493    -83171.99    -78891.66 
Loop time of 14.1232 on 6 procs for 495 steps with 19652 atoms

Performance: 3.028 ns/day, 7.925 hours/ns, 35.049 timesteps/s
99.9% CPU use with 6 MPI tasks x no OpenMP threads

MPI task timing breakdown:
Section |  min time  |  avg time  |  max time  |%varavg| %total
---------------------------------------------------------------
Pair    | 7.6369     | 7.6971     | 7.7498     |   1.4 | 54.50
Neigh   | 4.7842     | 5.0603     | 5.511      |  13.0 | 35.83
Comm    | 0.71423    | 1.1863     | 1.4791     |  26.5 |  8.40
Output  | 4.6968e-05 | 5.4359e-05 | 8.2016e-05 |   0.0 |  0.00
Modify  | 0.13912    | 0.14254    | 0.14842    |   0.9 |  1.01
Other   |            | 0.0369     |            |       |  0.26

Nlocal:    3275.33 ave 3313 max 3250 min
Histogram: 1 1 0 2 0 0 1 0 0 1
Nghost:    6860.17 ave 6901 max 6803 min
Histogram: 1 0 0 0 1 1 0 1 1 1
Neighs:    217493 ave 220110 max 214322 min
Histogram: 1 1 0 0 1 0 0 0 2 1

Total # of neighbors = 1304959
Ave neighs/atom = 66.4034
Neighbor list builds = 495
Dangerous builds not checked
Setting up Verlet run ...
  Unit style    : metal
  Current step  : 973833
  Time step     : 0.001
Per MPI rank memory allocation (min/avg/max) = 5.581 | 5.862 | 6.004 Mbytes
Step Temp Press TotEng PotEng Enthalpy 
  973833    1702.8908   -191.24919   -78846.493    -83171.99    -78891.66 
 1000005    1697.6009   -94.733315   -78838.517   -83150.578   -78860.919 
 1040005    1705.4964    621.46614   -78834.915   -83167.031   -78688.321 
Loop time of 2036.55 on 6 procs for 66172 steps with 19652 atoms

Performance: 2.807 ns/day, 8.549 hours/ns, 32.492 timesteps/s
99.3% CPU use with 6 MPI tasks x no OpenMP threads

MPI task timing breakdown:
Section |  min time  |  avg time  |  max time  |%varavg| %total
---------------------------------------------------------------
Pair    | 1114.2     | 1119.7     | 1129       |  16.2 | 54.98
Neigh   | 684.94     | 690.46     | 696.4      |  14.5 | 33.90
Comm    | 187.06     | 200.6      | 210.94     |  50.7 |  9.85
Output  | 0.016196   | 0.01622    | 0.016289   |   0.0 |  0.00
Modify  | 19.569     | 20.858     | 21.603     |  19.0 |  1.02
Other   |            | 4.927      |            |       |  0.24

Nlocal:    3275.33 ave 3293 max 3261 min
Histogram: 2 0 0 0 1 1 1 0 0 1
Nghost:    6858.17 ave 6893 max 6806 min
Histogram: 1 0 0 0 0 1 1 2 0 1
Neighs:    217792 ave 221699 max 212918 min
Histogram: 1 0 1 0 0 1 1 0 0 2

Total # of neighbors = 1306755
Ave neighs/atom = 66.4948
Neighbor list builds = 66172
Dangerous builds not checked
Setting up Verlet run ...
  Unit style    : metal
  Current step  : 1040005
  Time step     : 0.001
Per MPI rank memory allocation (min/avg/max) = 5.581 | 5.862 | 6.004 Mbytes
Step Temp Press TotEng PotEng Enthalpy 
 1040005    1705.4964    621.46614   -78834.915   -83167.031   -78688.321 
 1040500    1649.5848    -758.5008   -79056.722   -83246.817   -79235.581 
Loop time of 17.4783 on 6 procs for 495 steps with 19652 atoms

Performance: 2.447 ns/day, 9.808 hours/ns, 28.321 timesteps/s
93.8% CPU use with 6 MPI tasks x no OpenMP threads

MPI task timing breakdown:
Section |  min time  |  avg time  |  max time  |%varavg| %total
---------------------------------------------------------------
Pair    | 9.0265     | 9.0811     | 9.1537     |   1.6 | 51.96
Neigh   | 4.9091     | 5.0718     | 5.2514     |   5.6 | 29.02
Comm    | 2.1729     | 2.5836     | 3.1054     |  23.2 | 14.78
Output  | 4.6015e-05 | 5.4359e-05 | 8.1062e-05 |   0.0 |  0.00
Modify  | 0.14998    | 0.70426    | 0.98489    |  46.6 |  4.03
Other   |            | 0.03752    |            |       |  0.21

Nlocal:    3275.33 ave 3295 max 3259 min
Histogram: 2 1 0 0 0 0 1 0 1 1
Nghost:    6877.5 ave 6893 max 6847 min
Histogram: 1 0 0 0 0 0 2 1 0 2
Neighs:    217663 ave 220295 max 213156 min
Histogram: 1 0 0 0 1 0 1 1 0 2

Total # of neighbors = 1305976
Ave neighs/atom = 66.4551
Neighbor list builds = 495
Dangerous builds not checked
Setting up Verlet run ...
  Unit style    : metal
  Current step  : 1040500
  Time step     : 0.001
Per MPI rank memory allocation (min/avg/max) = 5.581 | 5.862 | 6.004 Mbytes
Step Temp Press TotEng PotEng Enthalpy 
 1040500    1649.5848    -758.5008   -79056.722   -83246.817   -79235.581 
 1066672    1644.8405    40.831017   -79142.198   -83320.243   -79132.581 
 1106672    1647.9195    206.45197   -79164.339   -83350.205    -79115.72 
Loop time of 2112.25 on 6 procs for 66172 steps with 19652 atoms

Performance: 2.707 ns/day, 8.867 hours/ns, 31.328 timesteps/s
99.4% CPU use with 6 MPI tasks x no OpenMP threads

MPI task timing breakdown:
Section |  min time  |  avg time  |  max time  |%varavg| %total
---------------------------------------------------------------
Pair    | 1155.6     | 1162.2     | 1171.5     |  17.4 | 55.02
Neigh   | 713.95     | 722.97     | 728.12     |  18.7 | 34.23
Comm    | 187.21     | 199.63     | 211.28     |  53.2 |  9.45
Output  | 0.016639   | 0.016657   | 0.016726   |   0.0 |  0.00
Modify  | 21.732     | 22.381     | 23.04      |  10.3 |  1.06
Other   |            | 5.083      |            |       |  0.24

Nlocal:    3275.33 ave 3305 max 3251 min
Histogram: 1 0 2 0 1 0 1 0 0 1
Nghost:    6884.5 ave 6936 max 6836 min
Histogram: 1 0 0 3 0 0 0 0 0 2
Neighs:    218169 ave 224408 max 214348 min
Histogram: 1 1 0 2 1 0 0 0 0 1

Total # of neighbors = 1309013
Ave neighs/atom = 66.6097
Neighbor list builds = 66172
Dangerous builds not checked
Setting up Verlet run ...
  Unit style    : metal
  Current step  : 1106672
  Time step     : 0.001
Per MPI rank memory allocation (min/avg/max) = 5.581 | 5.862 | 6.004 Mbytes
Step Temp Press TotEng PotEng Enthalpy 
 1106672    1647.9195    206.45197   -79164.339   -83350.205    -79115.72 
 1107167    1608.9058   -456.02851    -79310.17   -83396.938   -79417.609 
Loop time of 15.5979 on 6 procs for 495 steps with 19652 atoms

Performance: 2.742 ns/day, 8.753 hours/ns, 31.735 timesteps/s
99.5% CPU use with 6 MPI tasks x no OpenMP threads

MPI task timing breakdown:
Section |  min time  |  avg time  |  max time  |%varavg| %total
---------------------------------------------------------------
Pair    | 8.3487     | 8.4681     | 8.6013     |   3.2 | 54.29
Neigh   | 5.1978     | 5.3615     | 5.5375     |   4.8 | 34.37
Comm    | 1.3517     | 1.5699     | 1.768      |  11.9 | 10.06
Output  | 5.1022e-05 | 6.183e-05  | 0.00010395 |   0.0 |  0.00
Modify  | 0.15572    | 0.15766    | 0.16111    |   0.4 |  1.01
Other   |            | 0.04066    |            |       |  0.26

Nlocal:    3275.33 ave 3297 max 3252 min
Histogram: 1 0 0 2 0 1 0 0 0 2
Nghost:    6870 ave 6891 max 6836 min
Histogram: 1 0 0 1 1 0 0 0 0 3
Neighs:    218024 ave 224303 max 213778 min
Histogram: 2 0 0 1 1 1 0 0 0 1

Total # of neighbors = 1308147
Ave neighs/atom = 66.5656
Neighbor list builds = 495
Dangerous builds not checked
Setting up Verlet run ...
  Unit style    : metal
  Current step  : 1107167
  Time step     : 0.001
Per MPI rank memory allocation (min/avg/max) = 5.581 | 5.862 | 6.004 Mbytes
Step Temp Press TotEng PotEng Enthalpy 
 1107167    1608.9058   -456.02851    -79310.17   -83396.938   -79417.609 
 1133339    1603.1197    302.46641   -79350.221   -83422.292   -79279.162 
 1173339    1591.1104   -497.66223   -79348.647   -83390.212   -79465.738 
Loop time of 2205.2 on 6 procs for 66172 steps with 19652 atoms

Performance: 2.593 ns/day, 9.257 hours/ns, 30.007 timesteps/s
99.7% CPU use with 6 MPI tasks x no OpenMP threads

MPI task timing breakdown:
Section |  min time  |  avg time  |  max time  |%varavg| %total
---------------------------------------------------------------
Pair    | 1190       | 1201.1     | 1214       |  23.8 | 54.47
Neigh   | 755.79     | 764.83     | 772.73     |  22.9 | 34.68
Comm    | 196.54     | 212.24     | 228.15     |  72.2 |  9.62
Output  | 0.015987   | 0.016007   | 0.016081   |   0.0 |  0.00
Modify  | 21.357     | 21.739     | 22.106     |   5.9 |  0.99
Other   |            | 5.268      |            |       |  0.24

Nlocal:    3275.33 ave 3288 max 3253 min
Histogram: 1 1 0 0 0 0 0 0 2 2
Nghost:    6881.67 ave 6938 max 6844 min
Histogram: 1 0 2 0 1 1 0 0 0 1
Neighs:    218351 ave 222110 max 213594 min
Histogram: 2 0 0 0 0 0 1 1 0 2

Total # of neighbors = 1310106
Ave neighs/atom = 66.6653
Neighbor list builds = 66172
Dangerous builds not checked
Setting up Verlet run ...
  Unit style    : metal
  Current step  : 1173339
  Time step     : 0.001
Per MPI rank memory allocation (min/avg/max) = 5.581 | 5.862 | 6.004 Mbytes
Step Temp Press TotEng PotEng Enthalpy 
 1173339    1591.1104   -497.66223   -79348.647   -83390.212   -79465.738 
 1173834    1553.4284   -571.37201   -79564.572   -83510.421   -79698.938 
Loop time of 15.5161 on 6 procs for 495 steps with 19652 atoms

Performance: 2.756 ns/day, 8.707 hours/ns, 31.902 timesteps/s
99.9% CPU use with 6 MPI tasks x no OpenMP threads

MPI task timing breakdown:
Section |  min time  |  avg time  |  max time  |%varavg| %total
---------------------------------------------------------------
Pair    | 8.1825     | 8.327      | 8.4068     |   2.6 | 53.67
Neigh   | 5.1878     | 5.4518     | 5.9112     |  10.3 | 35.14
Comm    | 1.2262     | 1.5495     | 1.8588     |  16.3 |  9.99
Output  | 6.1035e-05 | 7.4387e-05 | 0.00012803 |   0.0 |  0.00
Modify  | 0.14548    | 0.14929    | 0.15523    |   0.8 |  0.96
Other   |            | 0.0384     |            |       |  0.25

Nlocal:    3275.33 ave 3303 max 3239 min
Histogram: 1 0 0 1 1 0 1 0 0 2
Nghost:    6853.33 ave 6920 max 6821 min
Histogram: 1 3 0 0 1 0 0 0 0 1
Neighs:    218469 ave 222110 max 214907 min
Histogram: 1 0 1 1 1 0 0 0 1 1

Total # of neighbors = 1310813
Ave neighs/atom = 66.7013
Neighbor list builds = 495
Dangerous builds not checked
Setting up Verlet run ...
  Unit style    : metal
  Current step  : 1173834
  Time step     : 0.001
Per MPI rank memory allocation (min/avg/max) = 5.581 | 5.862 | 6.004 Mbytes
Step Temp Press TotEng PotEng Enthalpy 
 1173834    1553.4284   -571.37201   -79564.572   -83510.421   -79698.938 
 1200006    1563.6877   -673.71385   -79573.233   -83545.142   -79731.383 
 1240006    1551.5308    708.22465    -79638.25    -83579.28   -79472.256 
Loop time of 2132.31 on 6 procs for 66172 steps with 19652 atoms

Performance: 2.681 ns/day, 8.951 hours/ns, 31.033 timesteps/s
99.6% CPU use with 6 MPI tasks x no OpenMP threads

MPI task timing breakdown:
Section |  min time  |  avg time  |  max time  |%varavg| %total
---------------------------------------------------------------
Pair    | 1149.6     | 1159.4     | 1168.2     |  19.7 | 54.37
Neigh   | 724.46     | 728.86     | 733.26     |  12.2 | 34.18
Comm    | 212.39     | 218.72     | 232.93     |  47.2 | 10.26
Output  | 0.015782   | 0.015802   | 0.015881   |   0.0 |  0.00
Modify  | 20.23      | 20.346     | 20.44      |   1.5 |  0.95
Other   |            | 5.019      |            |       |  0.24

Nlocal:    3275.33 ave 3305 max 3248 min
Histogram: 1 0 0 0 3 1 0 0 0 1
Nghost:    6883.5 ave 6911 max 6855 min
Histogram: 1 1 0 0 1 0 0 2 0 1
Neighs:    219263 ave 222794 max 214227 min
Histogram: 2 0 0 0 0 1 0 0 0 3

Total # of neighbors = 1315576
Ave neighs/atom = 66.9436
Neighbor list builds = 66172
Dangerous builds not checked
Setting up Verlet run ...
  Unit style    : metal
  Current step  : 1240006
  Time step     : 0.001
Per MPI rank memory allocation (min/avg/max) = 5.581 | 5.862 | 6.004 Mbytes
Step Temp Press TotEng PotEng Enthalpy 
 1240006    1551.5308    708.22465    -79638.25    -83579.28   -79472.256 
 1240501    1512.2916    992.50974   -79794.071    -83635.43   -79561.725 
Loop time of 13.3655 on 6 procs for 495 steps with 19652 atoms

Performance: 3.200 ns/day, 7.500 hours/ns, 37.036 timesteps/s
99.9% CPU use with 6 MPI tasks x no OpenMP threads

MPI task timing breakdown:
Section |  min time  |  avg time  |  max time  |%varavg| %total
---------------------------------------------------------------
Pair    | 7.1428     | 7.2047     | 7.2354     |   1.3 | 53.91
Neigh   | 4.3553     | 4.5789     | 5.0666     |  10.8 | 34.26
Comm    | 0.90262    | 1.4284     | 1.658      |  20.6 | 10.69
Output  | 3.5048e-05 | 4.7684e-05 | 0.00011086 |   0.0 |  0.00
Modify  | 0.11767    | 0.11962    | 0.1256     |   0.8 |  0.89
Other   |            | 0.03385    |            |       |  0.25

Nlocal:    3275.33 ave 3291 max 3257 min
Histogram: 2 0 0 0 0 0 1 2 0 1
Nghost:    6895.33 ave 6925 max 6870 min
Histogram: 1 0 2 0 0 0 2 0 0 1
Neighs:    219453 ave 224121 max 214876 min
Histogram: 1 0 1 0 1 1 1 0 0 1

Total # of neighbors = 1316716
Ave neighs/atom = 67.0016
Neighbor list builds = 495
Dangerous builds not checked
Setting up Verlet run ...
  Unit style    : metal
  Current step  : 1240501
  Time step     : 0.001
Per MPI rank memory allocation (min/avg/max) = 5.581 | 5.862 | 6.004 Mbytes
Step Temp Press TotEng PotEng Enthalpy 
 1240501    1512.2916    992.50974   -79794.071    -83635.43   -79561.725 
 1266673    1496.3605   -32.147195   -79858.492   -83659.384   -79866.026 
 1306673     1493.459    86.617726   -79887.436   -83680.958   -79867.123 
Loop time of 1635.76 on 6 procs for 66172 steps with 19652 atoms

Performance: 3.495 ns/day, 6.867 hours/ns, 40.453 timesteps/s
99.7% CPU use with 6 MPI tasks x no OpenMP threads

MPI task timing breakdown:
Section |  min time  |  avg time  |  max time  |%varavg| %total
---------------------------------------------------------------
Pair    | 857.15     | 862.73     | 871.46     |  18.0 | 52.74
Neigh   | 610.42     | 616.48     | 623.35     |  15.9 | 37.69
Comm    | 131.04     | 137.26     | 148.93     |  57.2 |  8.39
Output  | 0.010544   | 0.010557   | 0.010615   |   0.0 |  0.00
Modify  | 14.858     | 14.962     | 15.032     |   1.4 |  0.91
Other   |            | 4.31       |            |       |  0.26

Nlocal:    3275.33 ave 3287 max 3267 min
Histogram: 1 0 3 0 0 0 0 1 0 1
Nghost:    6881.17 ave 6893 max 6868 min
Histogram: 1 0 0 0 1 2 1 0 0 1
Neighs:    219153 ave 222605 max 215300 min
Histogram: 2 0 0 0 1 0 0 1 0 2

Total # of neighbors = 1314919
Ave neighs/atom = 66.9102
Neighbor list builds = 66172
Dangerous builds not checked
Setting up Verlet run ...
  Unit style    : metal
  Current step  : 1306673
  Time step     : 0.001
Per MPI rank memory allocation (min/avg/max) = 5.581 | 5.862 | 6.004 Mbytes
Step Temp Press TotEng PotEng Enthalpy 
 1306673     1493.459    86.617726   -79887.436   -83680.958   -79867.123 
 1307168    1460.8438    8.4487652   -80031.502   -83742.179   -80029.524 
Loop time of 9.25517 on 6 procs for 495 steps with 19652 atoms

Performance: 4.621 ns/day, 5.194 hours/ns, 53.484 timesteps/s
99.9% CPU use with 6 MPI tasks x no OpenMP threads

MPI task timing breakdown:
Section |  min time  |  avg time  |  max time  |%varavg| %total
---------------------------------------------------------------
Pair    | 4.6554     | 4.7151     | 4.7637     |   2.0 | 50.95
Neigh   | 4.1393     | 4.1549     | 4.1899     |   0.8 | 44.89
Comm    | 0.19069    | 0.26096    | 0.33102    |  10.3 |  2.82
Output  | 4.5061e-05 | 5.1777e-05 | 8.3208e-05 |   0.0 |  0.00
Modify  | 0.092898   | 0.093518   | 0.094841   |   0.2 |  1.01
Other   |            | 0.03061    |            |       |  0.33

Nlocal:    3275.33 ave 3289 max 3256 min
Histogram: 1 0 0 1 0 1 1 0 0 2
Nghost:    6887.83 ave 6928 max 6827 min
Histogram: 1 0 0 0 1 0 1 2 0 1
Neighs:    219426 ave 222582 max 216792 min
Histogram: 1 1 0 1 0 1 1 0 0 1

Total # of neighbors = 1316559
Ave neighs/atom = 66.9936
Neighbor list builds = 495
Dangerous builds not checked
Setting up Verlet run ...
  Unit style    : metal
  Current step  : 1307168
  Time step     : 0.001
Per MPI rank memory allocation (min/avg/max) = 5.581 | 5.862 | 6.004 Mbytes
Step Temp Press TotEng PotEng Enthalpy 
 1307168    1460.8438    8.4487652   -80031.502   -83742.179   -80029.524 
 1333340    1434.3461    617.14568     -80174.2    -83817.57   -80029.937 
 1373340    1446.8315    527.88017   -80163.189   -83838.272   -80039.752 
Loop time of 1503.81 on 6 procs for 66172 steps with 19652 atoms

Performance: 3.802 ns/day, 6.313 hours/ns, 44.003 timesteps/s
99.6% CPU use with 6 MPI tasks x no OpenMP threads

MPI task timing breakdown:
Section |  min time  |  avg time  |  max time  |%varavg| %total
---------------------------------------------------------------
Pair    | 776.8      | 784.8      | 794.02     |  20.6 | 52.19
Neigh   | 601.22     | 607.3      | 614.77     |  20.2 | 40.38
Comm    | 77.594     | 91.536     | 105.59     |  91.5 |  6.09
Output  | 0.010679   | 0.010694   | 0.010752   |   0.0 |  0.00
Modify  | 15.91      | 16.031     | 16.219     |   2.8 |  1.07
Other   |            | 4.135      |            |       |  0.27

Nlocal:    3275.33 ave 3295 max 3262 min
Histogram: 2 0 1 0 0 1 1 0 0 1
Nghost:    6902.33 ave 6923 max 6883 min
Histogram: 1 0 1 1 0 0 1 1 0 1
Neighs:    219776 ave 223767 max 217223 min
Histogram: 1 1 2 0 0 0 1 0 0 1

Total # of neighbors = 1318659
Ave neighs/atom = 67.1005
Neighbor list builds = 66172
Dangerous builds not checked
Setting up Verlet run ...
  Unit style    : metal
  Current step  : 1373340
  Time step     : 0.001
Per MPI rank memory allocation (min/avg/max) = 5.581 | 5.862 | 6.004 Mbytes
Step Temp Press TotEng PotEng Enthalpy 
 1373340    1446.8315    527.88017   -80163.189   -83838.272   -80039.752 
 1373835    1397.5438   -961.89323   -80312.897   -83862.786   -80537.664 
Loop time of 14.8098 on 6 procs for 495 steps with 19652 atoms

Performance: 2.888 ns/day, 8.311 hours/ns, 33.424 timesteps/s
99.9% CPU use with 6 MPI tasks x no OpenMP threads

MPI task timing breakdown:
Section |  min time  |  avg time  |  max time  |%varavg| %total
---------------------------------------------------------------
Pair    | 7.8092     | 7.9237     | 7.9924     |   2.6 | 53.50
Neigh   | 5.1744     | 5.3103     | 5.5036     |   5.3 | 35.86
Comm    | 1.1746     | 1.3992     | 1.5924     |  12.4 |  9.45
Output  | 4.5061e-05 | 5.5273e-05 | 9.6798e-05 |   0.0 |  0.00
Modify  | 0.13718    | 0.14008    | 0.1431     |   0.5 |  0.95
Other   |            | 0.03654    |            |       |  0.25

Nlocal:    3275.33 ave 3288 max 3259 min
Histogram: 1 1 0 0 0 1 0 1 1 1
Nghost:    6910.17 ave 6927 max 6883 min
Histogram: 1 0 0 0 1 0 1 1 1 1
Neighs:    219855 ave 224003 max 214496 min
Histogram: 1 0 0 1 1 0 0 1 1 1

Total # of neighbors = 1319131
Ave neighs/atom = 67.1245
Neighbor list builds = 495
Dangerous builds not checked
Setting up Verlet run ...
  Unit style    : metal
  Current step  : 1373835
  Time step     : 0.001
Per MPI rank memory allocation (min/avg/max) = 5.581 | 5.862 | 6.004 Mbytes
Step Temp Press TotEng PotEng Enthalpy 
 1373835    1397.5438   -961.89323   -80312.897   -83862.786   -80537.664 
 1400007    1392.2328   -1048.4294   -80382.012   -83918.411   -80626.982 
 1440007    1401.2281   -965.35758   -80363.552   -83922.799   -80589.357 
Loop time of 2112.86 on 6 procs for 66172 steps with 19652 atoms

Performance: 2.706 ns/day, 8.869 hours/ns, 31.319 timesteps/s
99.4% CPU use with 6 MPI tasks x no OpenMP threads

MPI task timing breakdown:
Section |  min time  |  avg time  |  max time  |%varavg| %total
---------------------------------------------------------------
Pair    | 1133.1     | 1140.9     | 1151.3     |  16.6 | 54.00
Neigh   | 714.92     | 736.33     | 746.55     |  37.0 | 34.85
Comm    | 195.5      | 208.29     | 237.86     |  96.8 |  9.86
Output  | 0.013515   | 0.013532   | 0.01359    |   0.0 |  0.00
Modify  | 22.221     | 22.457     | 22.78      |   4.9 |  1.06
Other   |            | 4.841      |            |       |  0.23

Nlocal:    3275.33 ave 3292 max 3257 min
Histogram: 1 0 0 2 0 1 0 0 1 1
Nghost:    6882.5 ave 6905 max 6849 min
Histogram: 1 0 0 0 1 1 1 0 0 2
Neighs:    219706 ave 223854 max 214435 min
Histogram: 1 0 0 0 1 2 0 0 1 1

Total # of neighbors = 1318234
Ave neighs/atom = 67.0789
Neighbor list builds = 66172
Dangerous builds not checked
Setting up Verlet run ...
  Unit style    : metal
  Current step  : 1440007
  Time step     : 0.001
Per MPI rank memory allocation (min/avg/max) = 5.581 | 5.862 | 6.004 Mbytes
Step Temp Press TotEng PotEng Enthalpy 
 1440007    1401.2281   -965.35758   -80363.552   -83922.799   -80589.357 
 1440502    1351.0441   -603.11618   -80559.099   -83990.874   -80699.854 
Loop time of 16.4224 on 6 procs for 495 steps with 19652 atoms

Performance: 2.604 ns/day, 9.216 hours/ns, 30.142 timesteps/s
98.1% CPU use with 6 MPI tasks x no OpenMP threads

MPI task timing breakdown:
Section |  min time  |  avg time  |  max time  |%varavg| %total
---------------------------------------------------------------
Pair    | 8.7734     | 8.9899     | 9.2417     |   4.8 | 54.74
Neigh   | 5.3691     | 5.7437     | 6.4021     |  15.1 | 34.98
Comm    | 0.73925    | 1.4907     | 1.9117     |  34.5 |  9.08
Output  | 5.5075e-05 | 6.6002e-05 | 0.00010395 |   0.0 |  0.00
Modify  | 0.15351    | 0.15911    | 0.16621    |   1.0 |  0.97
Other   |            | 0.03887    |            |       |  0.24

Nlocal:    3275.33 ave 3279 max 3270 min
Histogram: 1 0 1 0 0 1 0 0 2 1
Nghost:    6901 ave 6926 max 6872 min
Histogram: 1 0 1 0 0 1 1 0 1 1
Neighs:    220146 ave 223037 max 216324 min
Histogram: 2 0 0 0 0 1 0 1 0 2

Total # of neighbors = 1320873
Ave neighs/atom = 67.2132
Neighbor list builds = 495
Dangerous builds not checked
Setting up Verlet run ...
  Unit style    : metal
  Current step  : 1440502
  Time step     : 0.001
Per MPI rank memory allocation (min/avg/max) = 5.581 | 5.862 | 6.004 Mbytes
Step Temp Press TotEng PotEng Enthalpy 
 1440502    1351.0441   -603.11618   -80559.099   -83990.874   -80699.854 
 1466674    1354.9532    256.43161   -80628.649   -84070.353   -80568.886 
 1506674    1347.8333    -901.2399   -80616.475   -84040.094   -80827.164 
Loop time of 2175.55 on 6 procs for 66172 steps with 19652 atoms

Performance: 2.628 ns/day, 9.133 hours/ns, 30.416 timesteps/s
99.2% CPU use with 6 MPI tasks x no OpenMP threads

MPI task timing breakdown:
Section |  min time  |  avg time  |  max time  |%varavg| %total
---------------------------------------------------------------
Pair    | 1156.9     | 1172.9     | 1183.8     |  26.9 | 53.91
Neigh   | 784.64     | 788.35     | 791.47     |   9.4 | 36.24
Comm    | 171.75     | 185.46     | 203.62     |  82.4 |  8.52
Output  | 0.015397   | 0.015413   | 0.015484   |   0.0 |  0.00
Modify  | 22.931     | 23.555     | 24.1       |   9.5 |  1.08
Other   |            | 5.225      |            |       |  0.24

Nlocal:    3275.33 ave 3297 max 3261 min
Histogram: 1 1 0 2 0 1 0 0 0 1
Nghost:    6882.33 ave 6912 max 6848 min
Histogram: 2 0 0 0 0 1 0 1 0 2
Neighs:    219785 ave 225054 max 216575 min
Histogram: 2 0 1 0 1 1 0 0 0 1

Total # of neighbors = 1318709
Ave neighs/atom = 67.103
Neighbor list builds = 66172
Dangerous builds not checked
Setting up Verlet run ...
  Unit style    : metal
  Current step  : 1506674
  Time step     : 0.001
Per MPI rank memory allocation (min/avg/max) = 5.581 | 5.862 | 6.004 Mbytes
Step Temp Press TotEng PotEng Enthalpy 
 1506674    1347.8333    -901.2399   -80616.475   -84040.094   -80827.164 
 1507169    1315.9258   -262.87307   -80825.472   -84168.044   -80886.768 
Loop time of 15.1902 on 6 procs for 495 steps with 19652 atoms

Performance: 2.816 ns/day, 8.524 hours/ns, 32.587 timesteps/s
99.6% CPU use with 6 MPI tasks x no OpenMP threads

MPI task timing breakdown:
Section |  min time  |  avg time  |  max time  |%varavg| %total
---------------------------------------------------------------
Pair    | 8.0644     | 8.1781     | 8.3366     |   3.3 | 53.84
Neigh   | 5.4985     | 5.71       | 6.03       |   8.5 | 37.59
Comm    | 0.83307    | 1.113      | 1.3301     |  19.1 |  7.33
Output  | 5.5075e-05 | 6.6717e-05 | 0.00010419 |   0.0 |  0.00
Modify  | 0.1467     | 0.14964    | 0.15412    |   0.6 |  0.99
Other   |            | 0.03933    |            |       |  0.26

Nlocal:    3275.33 ave 3299 max 3263 min
Histogram: 1 2 0 2 0 0 0 0 0 1
Nghost:    6897.83 ave 6919 max 6882 min
Histogram: 1 1 0 0 2 1 0 0 0 1
Neighs:    220290 ave 222965 max 216575 min
Histogram: 2 0 0 0 0 1 0 0 0 3

Total # of neighbors = 1321743
Ave neighs/atom = 67.2574
Neighbor list builds = 495
Dangerous builds not checked
Setting up Verlet run ...
  Unit style    : metal
  Current step  : 1507169
  Time step     : 0.001
Per MPI rank memory allocation (min/avg/max) = 5.581 | 5.862 | 6.004 Mbytes
Step Temp Press TotEng PotEng Enthalpy 
 1507169    1315.9258   -262.87307   -80825.472   -84168.044   -80886.768 
 1533341    1293.8365   -862.69876   -80912.641   -84199.104   -81113.785 
 1573341    1309.6456    396.72624   -80882.367   -84208.986   -80790.117 
Loop time of 2384.17 on 6 procs for 66172 steps with 19652 atoms

Performance: 2.398 ns/day, 10.008 hours/ns, 27.755 timesteps/s
98.8% CPU use with 6 MPI tasks x no OpenMP threads

MPI task timing breakdown:
Section |  min time  |  avg time  |  max time  |%varavg| %total
---------------------------------------------------------------
Pair    | 1279.9     | 1294.4     | 1309.3     |  25.3 | 54.29
Neigh   | 849.97     | 869.11     | 877.93     |  31.1 | 36.45
Comm    | 162.83     | 182.86     | 216.72     | 125.6 |  7.67
Output  | 0.016385   | 0.016413   | 0.016516   |   0.0 |  0.00
Modify  | 31.777     | 32.023     | 32.356     |   4.2 |  1.34
Other   |            | 5.739      |            |       |  0.24

Nlocal:    3275.33 ave 3298 max 3261 min
Histogram: 1 1 0 1 2 0 0 0 0 1
Nghost:    6927.17 ave 6953 max 6885 min
Histogram: 1 0 0 0 0 1 2 0 0 2
Neighs:    220917 ave 224105 max 216718 min
Histogram: 2 0 0 0 0 1 0 0 1 2

Total # of neighbors = 1325500
Ave neighs/atom = 67.4486
Neighbor list builds = 66172
Dangerous builds not checked
Setting up Verlet run ...
  Unit style    : metal
  Current step  : 1573341
  Time step     : 0.001
Per MPI rank memory allocation (min/avg/max) = 5.581 | 5.862 | 6.004 Mbytes
Step Temp Press TotEng PotEng Enthalpy 
 1573341    1309.6456    396.72624   -80882.367   -84208.986   -80790.117 
 1573836    1271.0861    670.82206   -81057.595   -84286.269   -80901.774 
Loop time of 16.8741 on 6 procs for 495 steps with 19652 atoms

Performance: 2.535 ns/day, 9.469 hours/ns, 29.335 timesteps/s
99.4% CPU use with 6 MPI tasks x no OpenMP threads

MPI task timing breakdown:
Section |  min time  |  avg time  |  max time  |%varavg| %total
---------------------------------------------------------------
Pair    | 9          | 9.1225     | 9.2548     |   3.3 | 54.06
Neigh   | 6.2673     | 6.4459     | 6.6764     |   4.8 | 38.20
Comm    | 0.70977    | 1.0729     | 1.2713     |  18.1 |  6.36
Output  | 4.7922e-05 | 8.0744e-05 | 0.00022888 |   0.0 |  0.00
Modify  | 0.16845    | 0.18809    | 0.20282    |   3.2 |  1.11
Other   |            | 0.04463    |            |       |  0.26

Nlocal:    3275.33 ave 3288 max 3264 min
Histogram: 1 0 2 1 0 0 0 0 0 2
Nghost:    6930 ave 6965 max 6890 min
Histogram: 1 0 0 1 1 0 1 1 0 1
Neighs:    221163 ave 225785 max 217498 min
Histogram: 2 0 0 0 2 0 1 0 0 1

Total # of neighbors = 1326980
Ave neighs/atom = 67.5239
Neighbor list builds = 495
Dangerous builds not checked
Setting up Verlet run ...
  Unit style    : metal
  Current step  : 1573836
  Time step     : 0.001
Per MPI rank memory allocation (min/avg/max) = 5.581 | 5.862 | 6.004 Mbytes
Step Temp Press TotEng PotEng Enthalpy 
 1573836    1271.0861    670.82206   -81057.595   -84286.269   -80901.774 
 1600008    1277.7627    358.93431    -81117.84   -84363.474   -81034.408 
 1640008    1246.4606    102.50572   -81167.385   -84333.509   -81143.577 
Loop time of 2379.83 on 6 procs for 66172 steps with 19652 atoms

Performance: 2.402 ns/day, 9.990 hours/ns, 27.805 timesteps/s
99.2% CPU use with 6 MPI tasks x no OpenMP threads

MPI task timing breakdown:
Section |  min time  |  avg time  |  max time  |%varavg| %total
---------------------------------------------------------------
Pair    | 1280       | 1298.5     | 1314.2     |  32.3 | 54.56
Neigh   | 872.66     | 888.58     | 903.08     |  30.7 | 37.34
Comm    | 141.75     | 160.5      | 194.88     | 136.4 |  6.74
Output  | 0.020368   | 0.020396   | 0.020499   |   0.0 |  0.00
Modify  | 26.146     | 26.334     | 26.517     |   2.2 |  1.11
Other   |            | 5.924      |            |       |  0.25

Nlocal:    3275.33 ave 3296 max 3265 min
Histogram: 3 1 0 0 0 0 1 0 0 1
Nghost:    6909.83 ave 6941 max 6897 min
Histogram: 2 1 2 0 0 0 0 0 0 1
Neighs:    221278 ave 223556 max 218033 min
Histogram: 1 0 1 1 0 0 0 0 1 2

Total # of neighbors = 1327666
Ave neighs/atom = 67.5588
Neighbor list builds = 66172
Dangerous builds not checked
Setting up Verlet run ...
  Unit style    : metal
  Current step  : 1640008
  Time step     : 0.001
Per MPI rank memory allocation (min/avg/max) = 5.581 | 5.862 | 6.004 Mbytes
Step Temp Press TotEng PotEng Enthalpy 
 1640008    1246.4606    102.50572   -81167.385   -84333.509   -81143.577 
 1640503    1201.9113   -83.857709   -81351.493   -84404.457   -81370.946 
Loop time of 17.6316 on 6 procs for 495 steps with 19652 atoms

Performance: 2.426 ns/day, 9.894 hours/ns, 28.075 timesteps/s
99.4% CPU use with 6 MPI tasks x no OpenMP threads

MPI task timing breakdown:
Section |  min time  |  avg time  |  max time  |%varavg| %total
---------------------------------------------------------------
Pair    | 9.6323     | 9.7577     | 9.8725     |   2.6 | 55.34
Neigh   | 6.2613     | 6.5524     | 6.8208     |   7.0 | 37.16
Comm    | 0.82128    | 1.0793     | 1.3719     |  17.7 |  6.12
Output  | 9.6798e-05 | 0.0001361  | 0.00030684 |   0.0 |  0.00
Modify  | 0.19167    | 0.19616    | 0.20121    |   0.7 |  1.11
Other   |            | 0.04588    |            |       |  0.26

Nlocal:    3275.33 ave 3289 max 3260 min
Histogram: 1 0 1 0 0 2 0 0 1 1
Nghost:    6928.5 ave 6955 max 6904 min
Histogram: 1 1 0 1 0 0 1 1 0 1
Neighs:    221558 ave 224581 max 218158 min
Histogram: 2 0 0 0 0 0 2 0 1 1

Total # of neighbors = 1329349
Ave neighs/atom = 67.6445
Neighbor list builds = 495
Dangerous builds not checked
Setting up Verlet run ...
  Unit style    : metal
  Current step  : 1640503
  Time step     : 0.001
Per MPI rank memory allocation (min/avg/max) = 5.581 | 5.862 | 6.004 Mbytes
Step Temp Press TotEng PotEng Enthalpy 
 1640503    1201.9113   -83.857709   -81351.493   -84404.457   -81370.946 
 1666675    1201.8204   -231.09368   -81458.765   -84511.498   -81512.431 
 1706675    1200.2865   -486.72259   -81433.912   -84482.749   -81546.927 
Loop time of 2178.52 on 6 procs for 66172 steps with 19652 atoms

Performance: 2.624 ns/day, 9.145 hours/ns, 30.375 timesteps/s
99.7% CPU use with 6 MPI tasks x no OpenMP threads

MPI task timing breakdown:
Section |  min time  |  avg time  |  max time  |%varavg| %total
---------------------------------------------------------------
Pair    | 1159.1     | 1172.8     | 1185.9     |  26.0 | 53.83
Neigh   | 819.46     | 831.98     | 842.47     |  25.7 | 38.19
Comm    | 133.36     | 145.65     | 172.03     | 109.5 |  6.69
Output  | 0.015997   | 0.016014   | 0.016084   |   0.0 |  0.00
Modify  | 22.173     | 22.583     | 23.078     |   7.2 |  1.04
Other   |            | 5.501      |            |       |  0.25

Nlocal:    3275.33 ave 3296 max 3264 min
Histogram: 1 1 0 3 0 0 0 0 0 1
Nghost:    6918.5 ave 6944 max 6893 min
Histogram: 1 0 1 1 0 0 1 1 0 1
Neighs:    221418 ave 226508 max 217728 min
Histogram: 2 0 0 0 2 1 0 0 0 1

Total # of neighbors = 1328507
Ave neighs/atom = 67.6016
Neighbor list builds = 66172
Dangerous builds not checked
Setting up Verlet run ...
  Unit style    : metal
  Current step  : 1706675
  Time step     : 0.001
Per MPI rank memory allocation (min/avg/max) = 5.581 | 5.862 | 6.004 Mbytes
Step Temp Press TotEng PotEng Enthalpy 
 1706675    1200.2865   -486.72259   -81433.912   -84482.749   -81546.927 
 1707170    1162.7329   -842.12936   -81634.178   -84587.625   -81829.736 
Loop time of 14.979 on 6 procs for 495 steps with 19652 atoms

Performance: 2.855 ns/day, 8.406 hours/ns, 33.046 timesteps/s
99.9% CPU use with 6 MPI tasks x no OpenMP threads

MPI task timing breakdown:
Section |  min time  |  avg time  |  max time  |%varavg| %total
---------------------------------------------------------------
Pair    | 7.8734     | 8.0272     | 8.1425     |   3.5 | 53.59
Neigh   | 5.5593     | 5.7617     | 6.0801     |   8.4 | 38.46
Comm    | 0.78772    | 0.99938    | 1.1348     |  11.9 |  6.67
Output  | 6.1035e-05 | 7.4824e-05 | 0.00013208 |   0.0 |  0.00
Modify  | 0.14691    | 0.15058    | 0.15537    |   0.9 |  1.01
Other   |            | 0.04014    |            |       |  0.27

Nlocal:    3275.33 ave 3286 max 3261 min
Histogram: 1 0 1 0 0 1 0 1 1 1
Nghost:    6920 ave 6946 max 6905 min
Histogram: 2 1 0 1 0 1 0 0 0 1
[...]
Loop time of 14.5255 on 6 procs for 495 steps with 19652 atoms

Performance: 2.944 ns/day, 8.151 hours/ns, 34.078 timesteps/s
99.9% CPU use with 6 MPI tasks x no OpenMP threads

MPI task timing breakdown:
Section |  min time  |  avg time  |  max time  |%varavg| %total
---------------------------------------------------------------
Pair    | 7.5678     | 7.7669     | 7.9321     |   4.5 | 53.47
Neigh   | 5.2089     | 5.5429     | 5.9489     |  11.1 | 38.16
Comm    | 0.49325    | 1.0239     | 1.3303     |  25.9 |  7.05
Output  | 4.2915e-05 | 5.5035e-05 | 9.9897e-05 |   0.0 |  0.00
Modify  | 0.14643    | 0.15099    | 0.15751    |   1.0 |  1.04
Other   |            | 0.04071    |            |       |  0.28

Nlocal:    3275.33 ave 3292 max 3254 min
Histogram: 1 0 1 0 0 1 0 1 1 1
Nghost:    7001.67 ave 7020 max 6972 min
Histogram: 1 0 0 0 0 2 1 0 0 2
Neighs:    225084 ave 229205 max 222073 min
Histogram: 1 1 0 1 1 0 1 0 0 1

Total # of neighbors = 1350503
Ave neighs/atom = 68.7209
Neighbor list builds = 495
Dangerous builds not checked
Setting up Verlet run ...
  Unit style    : metal
  Current step  : 2707175
  Time step     : 0.001
Per MPI rank memory allocation (min/avg/max) = 5.581 | 5.863 | 6.004 Mbytes
Step Temp Press TotEng PotEng Enthalpy 
 2707175    427.30573    597.08257    -87181.51   -88266.905   -87045.143 
 2733347    403.36007    313.35791   -87373.246   -88397.817    -87301.69 
 2773347    404.18952   -104.93183   -87417.537   -88444.215   -87441.496 
Loop time of 2001.03 on 6 procs for 66172 steps with 19652 atoms

Performance: 2.857 ns/day, 8.400 hours/ns, 33.069 timesteps/s
99.5% CPU use with 6 MPI tasks x no OpenMP threads

MPI task timing breakdown:
Section |  min time  |  avg time  |  max time  |%varavg| %total
---------------------------------------------------------------
Pair    | 1056.1     | 1076.2     | 1095.2     |  40.2 | 53.78
Neigh   | 736.19     | 746.21     | 756.71     |  26.2 | 37.29
Comm    | 133.18     | 151.32     | 176.44     | 113.0 |  7.56
Output  | 1.0833     | 1.0834     | 1.0835     |   0.0 |  0.05
Modify  | 20.605     | 20.845     | 20.969     |   3.2 |  1.04
Other   |            | 5.372      |            |       |  0.27

Nlocal:    3275.33 ave 3287 max 3265 min
Histogram: 1 0 2 1 0 0 0 0 0 2
Nghost:    6979.33 ave 7001 max 6957 min
Histogram: 3 0 0 0 0 0 0 0 0 3
Neighs:    225120 ave 229182 max 221508 min
Histogram: 1 0 1 1 1 0 0 1 0 1

Total # of neighbors = 1350717
Ave neighs/atom = 68.7318
Neighbor list builds = 66172
Dangerous builds not checked
Setting up Verlet run ...
  Unit style    : metal
  Current step  : 2773347
  Time step     : 0.001
Per MPI rank memory allocation (min/avg/max) = 5.581 | 5.863 | 6.004 Mbytes
Step Temp Press TotEng PotEng Enthalpy 
 2773347    404.18952   -104.93183   -87417.537   -88444.215   -87441.496 
 2773842    373.16068   -219.77296   -87572.487   -88520.349   -87622.626 
Loop time of 14.6664 on 6 procs for 495 steps with 19652 atoms

Performance: 2.916 ns/day, 8.230 hours/ns, 33.751 timesteps/s
99.9% CPU use with 6 MPI tasks x no OpenMP threads

MPI task timing breakdown:
Section |  min time  |  avg time  |  max time  |%varavg| %total
---------------------------------------------------------------
Pair    | 7.604      | 7.8439     | 8.0454     |   5.3 | 53.48
Neigh   | 5.2329     | 5.6167     | 6.0587     |  14.9 | 38.30
Comm    | 0.562      | 1.0139     | 1.2883     |  25.9 |  6.91
Output  | 4.6968e-05 | 6.4691e-05 | 0.00011301 |   0.0 |  0.00
Modify  | 0.14687    | 0.1512     | 0.15749    |   1.0 |  1.03
Other   |            | 0.04065    |            |       |  0.28

Nlocal:    3275.33 ave 3284 max 3263 min
Histogram: 1 0 0 1 0 1 1 0 0 2
Nghost:    6978.5 ave 6999 max 6953 min
Histogram: 1 0 1 0 0 1 0 1 1 1
Neighs:    225322 ave 228558 max 221866 min
Histogram: 1 1 0 1 0 1 0 0 0 2

Total # of neighbors = 1351934
Ave neighs/atom = 68.7937
Neighbor list builds = 495
Dangerous builds not checked
Setting up Verlet run ...
  Unit style    : metal
  Current step  : 2773842
  Time step     : 0.001
Per MPI rank memory allocation (min/avg/max) = 5.581 | 5.863 | 6.004 Mbytes
Step Temp Press TotEng PotEng Enthalpy 
 2773842    373.16068   -219.77296   -87572.487   -88520.349   -87622.626 
 2800014    351.08567   -238.57099   -87732.892   -88624.681   -87787.306 
 2840014    346.43058    539.59303   -87751.621   -88631.586    -87628.54 
Loop time of 1978.92 on 6 procs for 66172 steps with 19652 atoms

Performance: 2.889 ns/day, 8.307 hours/ns, 33.438 timesteps/s
99.7% CPU use with 6 MPI tasks x no OpenMP threads

MPI task timing breakdown:
Section |  min time  |  avg time  |  max time  |%varavg| %total
---------------------------------------------------------------
Pair    | 1040.7     | 1061.2     | 1076.7     |  37.5 | 53.63
Neigh   | 733.99     | 745.11     | 762.32     |  35.7 | 37.65
Comm    | 128.11     | 147.06     | 174.47     | 122.7 |  7.43
Output  | 0.015691   | 0.015713   | 0.0158     |   0.0 |  0.00
Modify  | 19.975     | 20.133     | 20.338     |   2.6 |  1.02
Other   |            | 5.376      |            |       |  0.27

Nlocal:    3275.33 ave 3292 max 3264 min
Histogram: 1 2 0 0 1 0 1 0 0 1
Nghost:    6983.17 ave 7020 max 6924 min
Histogram: 1 0 0 0 0 2 1 0 1 1
Neighs:    225339 ave 229132 max 221771 min
Histogram: 2 0 0 0 1 0 1 1 0 1

Total # of neighbors = 1352035
Ave neighs/atom = 68.7988
Neighbor list builds = 66172
Dangerous builds not checked
Setting up Verlet run ...
  Unit style    : metal
  Current step  : 2840014
  Time step     : 0.001
Per MPI rank memory allocation (min/avg/max) = 5.581 | 5.863 | 6.004 Mbytes
Step Temp Press TotEng PotEng Enthalpy 
 2840014    346.43058    539.59303   -87751.621   -88631.586    -87628.54 
 2840509    323.35614   -392.67181   -87899.656    -88721.01   -87989.203 
Loop time of 14.6015 on 6 procs for 495 steps with 19652 atoms

Performance: 2.929 ns/day, 8.194 hours/ns, 33.901 timesteps/s
99.7% CPU use with 6 MPI tasks x no OpenMP threads

MPI task timing breakdown:
Section |  min time  |  avg time  |  max time  |%varavg| %total
---------------------------------------------------------------
Pair    | 7.6744     | 7.7964     | 7.9466     |   4.0 | 53.39
Neigh   | 5.1242     | 5.4543     | 6.0581     |  13.0 | 37.35
Comm    | 0.61441    | 1.1612     | 1.3912     |  24.1 |  7.95
Output  | 4.6968e-05 | 5.9446e-05 | 9.8944e-05 |   0.0 |  0.00
Modify  | 0.14548    | 0.1496     | 0.15865    |   1.1 |  1.02
Other   |            | 0.03991    |            |       |  0.27

Nlocal:    3275.33 ave 3288 max 3268 min
Histogram: 2 1 0 1 0 0 1 0 0 1
Nghost:    6985.33 ave 7025 max 6956 min
Histogram: 2 0 1 0 0 0 2 0 0 1
Neighs:    225312 ave 227870 max 222049 min
Histogram: 1 1 0 0 0 1 0 1 0 2

Total # of neighbors = 1351872
Ave neighs/atom = 68.7906
Neighbor list builds = 495
Dangerous builds not checked
Setting up Verlet run ...
  Unit style    : metal
  Current step  : 2840509
  Time step     : 0.001
Per MPI rank memory allocation (min/avg/max) = 5.581 | 5.863 | 6.004 Mbytes
Step Temp Press TotEng PotEng Enthalpy 
 2840509    323.35614   -392.67181   -87899.656    -88721.01   -87989.203 
 2866681    298.68819    49.791915   -88050.493   -88809.189    -88039.15 
 2906681    301.94039    44.577481   -88050.467   -88817.423   -88040.314 
Loop time of 1956.38 on 6 procs for 66172 steps with 19652 atoms

Performance: 2.922 ns/day, 8.213 hours/ns, 33.824 timesteps/s
99.6% CPU use with 6 MPI tasks x no OpenMP threads

MPI task timing breakdown:
Section |  min time  |  avg time  |  max time  |%varavg| %total
---------------------------------------------------------------
Pair    | 1031.5     | 1046       | 1067       |  38.0 | 53.47
Neigh   | 727.5      | 739.27     | 749.76     |  29.4 | 37.79
Comm    | 128.11     | 144.62     | 165.37     |  99.8 |  7.39
Output  | 0.040189   | 0.040205   | 0.040269   |   0.0 |  0.00
Modify  | 21.092     | 21.193     | 21.261     |   1.2 |  1.08
Other   |            | 5.266      |            |       |  0.27

Nlocal:    3275.33 ave 3288 max 3252 min
Histogram: 1 0 0 0 1 0 1 1 0 2
Nghost:    6990.5 ave 7031 max 6957 min
Histogram: 2 0 0 1 0 0 2 0 0 1
Neighs:    225552 ave 228523 max 222650 min
Histogram: 1 1 0 0 0 2 0 1 0 1

Total # of neighbors = 1353314
Ave neighs/atom = 68.8639
Neighbor list builds = 66172
Dangerous builds not checked
Setting up Verlet run ...
  Unit style    : metal
  Current step  : 2906681
  Time step     : 0.001
Per MPI rank memory allocation (min/avg/max) = 5.581 | 5.863 | 6.004 Mbytes
Step Temp Press TotEng PotEng Enthalpy 
 2906681    301.94039    44.577481   -88050.467   -88817.423   -88040.314 
 2907176    274.75651   -271.21983   -88193.491   -88891.397   -88255.251 
Loop time of 14.3637 on 6 procs for 495 steps with 19652 atoms

Performance: 2.978 ns/day, 8.060 hours/ns, 34.462 timesteps/s
99.7% CPU use with 6 MPI tasks x no OpenMP threads

MPI task timing breakdown:
Section |  min time  |  avg time  |  max time  |%varavg| %total
---------------------------------------------------------------
Pair    | 7.4243     | 7.5884     | 7.7265     |   4.4 | 52.83
Neigh   | 5.3066     | 5.5524     | 5.8653     |   8.6 | 38.66
Comm    | 0.81965    | 1.0318     | 1.368      |  17.6 |  7.18
Output  | 5.4121e-05 | 6.2307e-05 | 9.3937e-05 |   0.0 |  0.00
Modify  | 0.14801    | 0.15117    | 0.15495    |   0.7 |  1.05
Other   |            | 0.03991    |            |       |  0.28

Nlocal:    3275.33 ave 3288 max 3261 min
Histogram: 1 0 0 1 1 1 0 0 1 1
Nghost:    6982.17 ave 7013 max 6945 min
Histogram: 1 0 1 0 0 1 0 2 0 1
Neighs:    225587 ave 228855 max 221758 min
Histogram: 1 1 0 0 0 0 2 0 1 1

Total # of neighbors = 1353523
Ave neighs/atom = 68.8746
Neighbor list builds = 495
Dangerous builds not checked
Setting up Verlet run ...
  Unit style    : metal
  Current step  : 2907176
  Time step     : 0.001
Per MPI rank memory allocation (min/avg/max) = 5.581 | 5.863 | 6.004 Mbytes
Step Temp Press TotEng PotEng Enthalpy 
 2907176    274.75651   -271.21983   -88193.491   -88891.397   -88255.251 
 2933348    247.98843   -605.72605    -88339.54   -88969.453   -88477.409 
 2973348    250.14437    -124.6242   -88341.404   -88976.794    -88369.76 
Loop time of 2169.52 on 6 procs for 66172 steps with 19652 atoms

Performance: 2.635 ns/day, 9.107 hours/ns, 30.501 timesteps/s
98.0% CPU use with 6 MPI tasks x no OpenMP threads

MPI task timing breakdown:
Section |  min time  |  avg time  |  max time  |%varavg| %total
---------------------------------------------------------------
Pair    | 1139.6     | 1156.7     | 1178       |  40.5 | 53.32
Neigh   | 770.92     | 783.23     | 794.31     |  28.5 | 36.10
Comm    | 162.28     | 182.38     | 206.88     | 109.8 |  8.41
Output  | 0.016343   | 0.016365   | 0.016451   |   0.0 |  0.00
Modify  | 41.14      | 41.576     | 42.483     |   7.3 |  1.92
Other   |            | 5.585      |            |       |  0.26

Nlocal:    3275.33 ave 3296 max 3266 min
Histogram: 1 2 1 1 0 0 0 0 0 1
Nghost:    6996.83 ave 7037 max 6961 min
Histogram: 1 0 1 1 0 1 0 1 0 1
Neighs:    225783 ave 228812 max 222437 min
Histogram: 2 0 0 0 0 1 1 0 0 2

Total # of neighbors = 1354696
Ave neighs/atom = 68.9343
Neighbor list builds = 66172
Dangerous builds not checked
Setting up Verlet run ...
  Unit style    : metal
  Current step  : 2973348
  Time step     : 0.001
Per MPI rank memory allocation (min/avg/max) = 5.581 | 5.863 | 6.004 Mbytes
Step Temp Press TotEng PotEng Enthalpy 
 2973348    250.14437    -124.6242   -88341.404   -88976.794    -88369.76 
 2973843    225.50197    -468.1755   -88471.551   -89044.347   -88578.026 
Loop time of 18.9999 on 6 procs for 495 steps with 19652 atoms

Performance: 2.251 ns/day, 10.662 hours/ns, 26.053 timesteps/s
95.3% CPU use with 6 MPI tasks x no OpenMP threads

MPI task timing breakdown:
Section |  min time  |  avg time  |  max time  |%varavg| %total
---------------------------------------------------------------
Pair    | 9.6685     | 9.8029     | 10.027     |   3.7 | 51.59
Neigh   | 5.9389     | 6.1564     | 6.3448     |   5.2 | 32.40
Comm    | 1.9482     | 2.1085     | 2.3477     |   9.4 | 11.10
Output  | 4.4823e-05 | 5.8055e-05 | 0.00012112 |   0.0 |  0.00
Modify  | 0.83775    | 0.88809    | 1.0035     |   6.5 |  4.67
Other   |            | 0.04393    |            |       |  0.23

Nlocal:    3275.33 ave 3289 max 3262 min
Histogram: 1 1 0 1 0 0 0 2 0 1
Nghost:    7003.83 ave 7033 max 6969 min
Histogram: 1 0 0 0 1 1 2 0 0 1
Neighs:    225886 ave 228165 max 222814 min
Histogram: 2 0 0 0 0 0 0 2 0 2

Total # of neighbors = 1355316
Ave neighs/atom = 68.9658
Neighbor list builds = 495
Dangerous builds not checked
Setting up Verlet run ...
  Unit style    : metal
  Current step  : 2973843
  Time step     : 0.001
Per MPI rank memory allocation (min/avg/max) = 5.581 | 5.863 | 6.004 Mbytes
Step Temp Press TotEng PotEng Enthalpy 
 2973843    225.50197    -468.1755   -88471.551   -89044.347   -88578.026 
 3000015    200.79483   -227.94545   -88607.955   -89117.992   -88659.775 
 3040015    200.19212   -48.264687   -88607.974   -89116.481   -88618.943 
Loop time of 2254.64 on 6 procs for 66172 steps with 19652 atoms

Performance: 2.536 ns/day, 9.465 hours/ns, 29.349 timesteps/s
97.3% CPU use with 6 MPI tasks x no OpenMP threads

MPI task timing breakdown:
Section |  min time  |  avg time  |  max time  |%varavg| %total
---------------------------------------------------------------
Pair    | 1181.5     | 1198.4     | 1219.4     |  39.1 | 53.15
Neigh   | 791.55     | 800.18     | 812.26     |  29.2 | 35.49
Comm    | 185.08     | 200.02     | 226.19     | 102.0 |  8.87
Output  | 0.031532   | 0.031554   | 0.031647   |   0.0 |  0.00
Modify  | 49.509     | 50.237     | 50.848     |   6.5 |  2.23
Other   |            | 5.805      |            |       |  0.26

Nlocal:    3275.33 ave 3291 max 3264 min
Histogram: 2 0 1 1 0 0 0 0 1 1
Nghost:    6983.83 ave 7021 max 6949 min
Histogram: 1 0 1 1 0 0 1 1 0 1
Neighs:    226020 ave 229065 max 222563 min
Histogram: 1 1 0 0 1 0 1 0 1 1

Total # of neighbors = 1356122
Ave neighs/atom = 69.0068
Neighbor list builds = 66172
Dangerous builds not checked
Setting up Verlet run ...
  Unit style    : metal
  Current step  : 3040015
  Time step     : 0.001
Per MPI rank memory allocation (min/avg/max) = 5.581 | 5.863 | 6.004 Mbytes
Step Temp Press TotEng PotEng Enthalpy 
 3040015    200.19212   -48.264687   -88607.974   -89116.481   -88618.943 
 3040510    176.01495   -117.34593   -88737.352   -89184.446   -88763.999 
Loop time of 14.6377 on 6 procs for 495 steps with 19652 atoms

Performance: 2.922 ns/day, 8.214 hours/ns, 33.817 timesteps/s
97.3% CPU use with 6 MPI tasks x no OpenMP threads

MPI task timing breakdown:
Section |  min time  |  avg time  |  max time  |%varavg| %total
---------------------------------------------------------------
Pair    | 7.1445     | 7.3152     | 7.58       |   5.1 | 49.98
Neigh   | 4.134      | 4.7271     | 5.1564     |  19.8 | 32.29
Comm    | 1.0301     | 1.3797     | 1.9168     |  28.1 |  9.43
Output  | 4.7922e-05 | 0.17366    | 1.0417     |  93.2 |  1.19
Modify  | 0.12463    | 0.136      | 0.14484    |   2.1 |  0.93
Other   |            | 0.9061     |            |       |  6.19

Nlocal:    3275.33 ave 3293 max 3265 min
Histogram: 1 2 0 0 1 1 0 0 0 1
Nghost:    6992.67 ave 7027 max 6946 min
Histogram: 1 0 0 0 1 1 1 0 1 1
Neighs:    226167 ave 228878 max 222366 min
Histogram: 1 1 0 0 0 0 1 1 0 2

Total # of neighbors = 1357004
Ave neighs/atom = 69.0517
Neighbor list builds = 495
Dangerous builds not checked
Setting up Verlet run ...
  Unit style    : metal
  Current step  : 3040510
  Time step     : 0.001
Per MPI rank memory allocation (min/avg/max) = 5.581 | 5.863 | 6.004 Mbytes
Step Temp Press TotEng PotEng Enthalpy 
 3040510    176.01495   -117.34593   -88737.352   -89184.446   -88763.999 
 3066682    149.20475    276.70995    -88879.63   -89258.624   -88816.862 
 3106682    151.39637    46.785529   -88872.777   -89257.337    -88862.16 
Loop time of 1906.25 on 6 procs for 66172 steps with 19652 atoms

Performance: 2.999 ns/day, 8.002 hours/ns, 34.713 timesteps/s
99.4% CPU use with 6 MPI tasks x no OpenMP threads

MPI task timing breakdown:
Section |  min time  |  avg time  |  max time  |%varavg| %total
---------------------------------------------------------------
Pair    | 1005.3     | 1022       | 1039.7     |  38.8 | 53.61
Neigh   | 682.84     | 690.62     | 702.17     |  29.5 | 36.23
Comm    | 155.17     | 165.64     | 188.25     |  89.0 |  8.69
Output  | 0.016465   | 0.016489   | 0.016563   |   0.0 |  0.00
Modify  | 22.658     | 22.848     | 23.255     |   4.3 |  1.20
Other   |            | 5.149      |            |       |  0.27

Nlocal:    3275.33 ave 3289 max 3267 min
Histogram: 1 1 1 1 0 1 0 0 0 1
Nghost:    6995.83 ave 7028 max 6952 min
Histogram: 1 0 0 1 0 1 0 1 1 1
Neighs:    226356 ave 229086 max 223139 min
Histogram: 2 0 0 0 1 0 1 0 0 2

Total # of neighbors = 1358133
Ave neighs/atom = 69.1091
Neighbor list builds = 66172
Dangerous builds not checked
Setting up Verlet run ...
  Unit style    : metal
  Current step  : 3106682
  Time step     : 0.001
Per MPI rank memory allocation (min/avg/max) = 5.581 | 5.863 | 6.004 Mbytes
Step Temp Press TotEng PotEng Enthalpy 
 3106682    151.39637    46.785529   -88872.777   -89257.337    -88862.16 
 3107177    127.91427     273.6612   -88996.837   -89321.751   -88934.805 
Loop time of 14.0347 on 6 procs for 495 steps with 19652 atoms

Performance: 3.047 ns/day, 7.876 hours/ns, 35.270 timesteps/s
99.7% CPU use with 6 MPI tasks x no OpenMP threads

MPI task timing breakdown:
Section |  min time  |  avg time  |  max time  |%varavg| %total
---------------------------------------------------------------
Pair    | 7.3162     | 7.5156     | 7.655      |   4.1 | 53.55
Neigh   | 4.927      | 5.3144     | 5.819      |  14.3 | 37.87
Comm    | 0.69893    | 1.0148     | 1.4549     |  28.2 |  7.23
Output  | 4.6015e-05 | 5.7538e-05 | 0.00010109 |   0.0 |  0.00
Modify  | 0.14517    | 0.15078    | 0.15839    |   1.2 |  1.07
Other   |            | 0.03905    |            |       |  0.28

Nlocal:    3275.33 ave 3287 max 3264 min
Histogram: 1 1 0 0 1 1 0 0 1 1
Nghost:    6998 ave 7030 max 6947 min
Histogram: 1 0 0 0 1 0 0 3 0 1
Neighs:    226529 ave 229260 max 223378 min
Histogram: 1 1 0 0 0 1 1 0 0 2

Total # of neighbors = 1359176
Ave neighs/atom = 69.1622
Neighbor list builds = 495
Dangerous builds not checked
Setting up Verlet run ...
  Unit style    : metal
  Current step  : 3107177
  Time step     : 0.001
Per MPI rank memory allocation (min/avg/max) = 5.581 | 5.863 | 6.004 Mbytes
Step Temp Press TotEng PotEng Enthalpy 
 3107177    127.91427     273.6612   -88996.837   -89321.751   -88934.805 
 3133349    100.12557     158.6847   -89139.197   -89393.525   -89103.246 
 3173349    99.536063   -405.31614   -89142.322   -89395.153   -89234.188 
Loop time of 1903.74 on 6 procs for 66172 steps with 19652 atoms

Performance: 3.003 ns/day, 7.992 hours/ns, 34.759 timesteps/s
99.6% CPU use with 6 MPI tasks x no OpenMP threads

MPI task timing breakdown:
Section |  min time  |  avg time  |  max time  |%varavg| %total
---------------------------------------------------------------
Pair    | 1000.6     | 1020       | 1038.3     |  40.2 | 53.58
Neigh   | 708.34     | 719.47     | 729.97     |  30.4 | 37.79
Comm    | 120.89     | 137.55     | 157.09     |  97.9 |  7.23
Output  | 0.017193   | 0.017212   | 0.017292   |   0.0 |  0.00
Modify  | 21.06      | 21.363     | 21.516     |   3.1 |  1.12
Other   |            | 5.347      |            |       |  0.28

Nlocal:    3275.33 ave 3290 max 3268 min
Histogram: 2 0 2 0 1 0 0 0 0 1
Nghost:    7003.5 ave 7029 max 6962 min
Histogram: 1 0 1 0 0 1 0 0 0 3
Neighs:    226586 ave 229395 max 223602 min
Histogram: 2 0 0 0 0 1 1 0 0 2

Total # of neighbors = 1359514
Ave neighs/atom = 69.1794
Neighbor list builds = 66172
Dangerous builds not checked
Total wall time: 27:03:02
