LAMMPS (12 Dec 2018)
Lattice spacing in x,y,z = 4 4 4
Created orthogonal box = (0 0 0) to (68 68 68)
  1 by 1 by 1 MPI processor grid
Created 19652 atoms
  Time spent = 0.00406313 secs
Setting atom values ...
  206 settings made for type/fraction
Neighbor list info ...
  update every 1 steps, delay 0 steps, check no
  max neighbors/atom: 2000, page size: 100000
  master list distance cutoff = 8.5
  ghost atom cutoff = 8.5
  binsize = 4.25, bins = 16 16 16
  1 neighbor lists, perpetual/occasional/extra = 1 0 0
  (1) pair eam/alloy, perpetual
      attributes: half, newton on
      pair build: half/bin/atomonly/newton
      stencil: half/bin/3d/newton
      bin: standard
Setting up Verlet run ...
  Unit style    : metal
  Current step  : 0
  Time step     : 0.001
Per MPI rank memory allocation (min/avg/max) = 18.19 | 18.19 | 18.19 Mbytes
Step Temp Press TotEng PotEng Enthalpy Volume 
       0          300    264566.39   -21465.716   -22227.744    30456.241       314432 
     667    165.05201    261866.18   -21465.509   -21884.756    29926.524       314432 
    1000     164.5199    261828.24   -21465.508   -21883.404    29919.078       314432 
Loop time of 132.092 on 1 procs for 1000 steps with 19652 atoms

Performance: 0.654 ns/day, 36.692 hours/ns, 7.570 timesteps/s
98.9% CPU use with 1 MPI tasks x no OpenMP threads

MPI task timing breakdown:
Section |  min time  |  avg time  |  max time  |%varavg| %total
---------------------------------------------------------------
Pair    | 74.847     | 74.847     | 74.847     |   0.0 | 56.66
Neigh   | 55.256     | 55.256     | 55.256     |   0.0 | 41.83
Comm    | 1.0443     | 1.0443     | 1.0443     |   0.0 |  0.79
Output  | 0.26331    | 0.26331    | 0.26331    |   0.0 |  0.20
Modify  | 0.34967    | 0.34967    | 0.34967    |   0.0 |  0.26
Other   |            | 0.3313     |            |       |  0.25

Nlocal:    19652 ave 19652 max 19652 min
Histogram: 1 0 0 0 0 0 0 0 0 0
Nghost:    20102 ave 20102 max 20102 min
Histogram: 1 0 0 0 0 0 0 0 0 0
Neighs:    1.57002e+06 ave 1.57002e+06 max 1.57002e+06 min
Histogram: 1 0 0 0 0 0 0 0 0 0

Total # of neighbors = 1570022
Ave neighs/atom = 79.8912
Neighbor list builds = 1000
Dangerous builds not checked
Setting up Verlet run ...
  Unit style    : metal
  Current step  : 1000
  Time step     : 0.001
Per MPI rank memory allocation (min/avg/max) = 18.19 | 18.19 | 18.19 Mbytes
Step Temp Press TotEng PotEng Enthalpy Volume 
    1000     164.5199    261828.24   -21465.508   -21883.404    29919.078       314432 
    1334    159.47544    26195.057    -29150.44   -29555.523   -22250.471    422025.01 
    2000    266.93017    315.77086    -28726.17   -29404.197    -28636.77    453600.19 
Loop time of 127.683 on 1 procs for 1000 steps with 19652 atoms

Performance: 0.677 ns/day, 35.468 hours/ns, 7.832 timesteps/s
98.7% CPU use with 1 MPI tasks x no OpenMP threads

MPI task timing breakdown:
Section |  min time  |  avg time  |  max time  |%varavg| %total
---------------------------------------------------------------
Pair    | 67.419     | 67.419     | 67.419     |   0.0 | 52.80
Neigh   | 57.369     | 57.369     | 57.369     |   0.0 | 44.93
Comm    | 1.0294     | 1.0294     | 1.0294     |   0.0 |  0.81
Output  | 0.15991    | 0.15991    | 0.15991    |   0.0 |  0.13
Modify  | 1.3421     | 1.3421     | 1.3421     |   0.0 |  1.05
Other   |            | 0.3635     |            |       |  0.28

Nlocal:    19652 ave 19652 max 19652 min
Histogram: 1 0 0 0 0 0 0 0 0 0
Nghost:    14817 ave 14817 max 14817 min
Histogram: 1 0 0 0 0 0 0 0 0 0
Neighs:    1.1252e+06 ave 1.1252e+06 max 1.1252e+06 min
Histogram: 1 0 0 0 0 0 0 0 0 0

Total # of neighbors = 1125196
Ave neighs/atom = 57.2561
Neighbor list builds = 1000
Dangerous builds not checked
Setting up Verlet run ...
  Unit style    : metal
  Current step  : 2000
  Time step     : 0.001
Per MPI rank memory allocation (min/avg/max) = 18.19 | 18.19 | 18.19 Mbytes
Step Temp Press TotEng PotEng Enthalpy Volume 
    2000    266.93017    315.77086    -28726.17   -29404.197    -28636.77    453600.19 
    2001    266.75779    318.74115   -28726.162   -29403.751   -28635.922    453600.31 
    2668    372.93693   -259.49734   -28166.293   -29113.587   -28240.495       458133 
    3335    576.11149    363.88643   -27072.116   -28535.491   -26966.508    464985.65 
    4002    798.09967   -15.293391   -25744.655     -27771.9   -25749.202     476379.7 
    4669    990.84989    91.035443   -24454.456   -26971.305   -24426.722    488113.19 
    5336    1159.6128    314.56252    -23048.84   -25994.362   -22949.914     503866.2 
    6003    1330.0151    415.28539   -21175.489   -24553.848   -21037.476     532455.8 
    6670    1551.3309   -206.34199   -19687.635   -23628.157   -19759.246    556034.96 
    7337    1737.4996   -296.20495   -18622.102   -23035.509   -18727.857    572033.01 
    8004     1904.193    208.13749   -17513.855   -22350.679   -17437.214    589955.63 
    8671    2103.5389    149.93926   -16336.779   -21679.959   -16279.492    612136.42 
    9338    2262.3723    180.66339   -15234.452   -20981.084   -15162.677    636522.37 
   10000    2463.3195   -116.29528   -13995.582   -20252.638   -14043.993    666949.47 
Loop time of 857.57 on 1 procs for 8000 steps with 19652 atoms

Performance: 0.806 ns/day, 29.777 hours/ns, 9.329 timesteps/s
99.1% CPU use with 1 MPI tasks x no OpenMP threads

MPI task timing breakdown:
Section |  min time  |  avg time  |  max time  |%varavg| %total
---------------------------------------------------------------
Pair    | 445.69     | 445.69     | 445.69     |   0.0 | 51.97
Neigh   | 386.74     | 386.74     | 386.74     |   0.0 | 45.10
Comm    | 8.0305     | 8.0305     | 8.0305     |   0.0 |  0.94
Output  | 3.3718     | 3.3718     | 3.3718     |   0.0 |  0.39
Modify  | 10.704     | 10.704     | 10.704     |   0.0 |  1.25
Other   |            | 3.034      |            |       |  0.35

Nlocal:    19652 ave 19652 max 19652 min
Histogram: 1 0 0 0 0 0 0 0 0 0
Nghost:    13827 ave 13827 max 13827 min
Histogram: 1 0 0 0 0 0 0 0 0 0
Neighs:    736766 ave 736766 max 736766 min
Histogram: 1 0 0 0 0 0 0 0 0 0

Total # of neighbors = 736766
Ave neighs/atom = 37.4906
Neighbor list builds = 8000
Dangerous builds not checked
Setting up Verlet run ...
  Unit style    : metal
  Current step  : 10000
  Time step     : 0.001
Per MPI rank memory allocation (min/avg/max) = 18.2 | 18.2 | 18.2 Mbytes
Step Temp Press TotEng PotEng Enthalpy Volume 
   10000    2463.3195   -116.29528   -13995.582   -20252.638   -14043.993    666949.47 
   10005     2454.732    3.4226693   -13995.631   -20230.874   -13994.206    666949.27 
   10672    2442.6343   -99.404315   -13748.226    -19952.74   -13790.376    679369.57 
   11339    2465.6185   -296.10209   -13680.695   -19943.591   -13806.451    680446.91 
   12006    2453.4514    229.53704       -13717    -19948.99    -13619.81    678388.51 
   12673    2463.4145   -258.76118   -13704.241   -19961.538   -13814.288     681379.3 
   13340    2452.5384   -399.62122   -13817.431   -20047.102   -13986.487    677786.23 
   14007    2429.7293   -244.31887   -13829.036    -20000.77   -13932.615    679245.74 
   14674    2425.6433   -532.45958   -13671.553   -19832.908   -13900.134    687803.02 
   15341    2443.3268    169.63208    -13830.12   -20036.393    -13758.48     676640.5 
   16008    2433.4491   -93.476166   -13844.975   -20026.157   -13884.463    676827.08 
   16675    2450.2756   -453.58576   -13599.342   -19823.265   -13793.939    687365.03 
   17342    2458.9978    334.14429   -13791.319   -20037.397   -13650.493    675240.23 
   18009    2438.5571   -74.896627   -13841.164   -20035.321   -13872.845    677722.77 
   18676    2473.1788   -326.70349   -13615.634   -19897.733   -13755.386    685354.12 
   19343    2446.4312    39.021361   -13679.533   -19893.691   -13662.899    682988.28 
   20010    2437.0333    2.0952255   -13837.529   -20027.816   -13836.645    676221.45 
   20677    2465.3118    236.60793   -13747.373   -20009.489   -13647.403    676941.12 
   21344    2453.0278   -280.99502   -13755.772   -19986.686   -13874.909    679293.84 
   22011    2442.9158   -2.7585691   -13729.677   -19934.905   -13730.847    679742.37 
   22678    2482.8232    194.35255    -13627.09   -19933.687   -13544.417    681523.37 
   23345    2450.2378    248.79251   -13717.908   -19941.735   -13612.215     680643.1 
   24012    2442.0102    45.267385   -13750.787   -19953.716   -13731.566    680312.33 
   24679    2443.9966   -787.29486     -13707.2   -19915.174   -14044.746    686917.98 
   25346    2457.0293     114.3406   -13767.383   -20008.461   -13719.067    677007.25 
   26013    2437.3978     303.0215    -13769.97   -19961.182   -13641.622     678616.7 
   26680    2416.0559    86.709022   -13770.213   -19907.215   -13733.276     682497.6 
   27347    2438.3957    102.33382    -13740.86   -19934.607   -13697.524    678483.79 
   28014    2456.0464   -184.63217   -13615.074   -19853.655   -13694.027    685132.71 
   28681    2461.1085    201.67898   -13740.791   -19992.231   -13655.468    677824.02 
   29348    2444.4206    37.932657   -13835.724   -20044.775   -13819.748    674801.36 
   30015     2449.781   -56.304382   -13690.723    -19913.39   -13714.674    681551.53 
   30682    2457.1914    179.52754   -13773.107   -20014.598   -13697.239    677079.96 
   31349    2437.2956   -131.81465   -13870.317    -20061.27   -13925.858    675083.17 
   32016    2447.8013   -229.74379   -13685.855   -19903.493   -13783.788    682964.03 
   32683    2459.3284    603.74553   -13742.691    -19989.61   -13487.829    676336.57 
   33350    2433.9484   -223.09599   -13795.125   -19977.575   -13889.956    681039.28 
   34017    2434.8334   -32.827909   -13805.946   -19990.645   -13819.841     678131.7 
   34684    2446.2051    215.67765   -13861.485   -20075.069   -13770.813    673564.25 
   35351    2462.6236   -7.0821547   -13618.846   -19874.135   -13621.871    684354.65 
   36018    2446.9214    31.218446   -13702.221   -19917.624   -13688.918    682715.48 
   36685    2445.5781   -276.86227   -13857.204   -20069.195   -13974.256    677368.92 
   37352    2464.3781   -123.63277   -13648.471   -19908.215   -13701.211    683472.47 
   38019    2452.5958   -281.29749   -13719.006   -19948.823   -13838.742    681978.25 
   38686    2452.6883    40.089788   -13859.826   -20089.877   -13842.964    673860.32 
   39353    2437.2236   -306.54125   -13752.696   -19943.466   -13883.455    683426.28 
   40000    2468.5844    260.17919   -13675.473   -19945.903   -13565.064    679898.66 
Loop time of 2518.47 on 1 procs for 30000 steps with 19652 atoms

Performance: 1.029 ns/day, 23.319 hours/ns, 11.912 timesteps/s
99.4% CPU use with 1 MPI tasks x no OpenMP threads

MPI task timing breakdown:
Section |  min time  |  avg time  |  max time  |%varavg| %total
---------------------------------------------------------------
Pair    | 1226.4     | 1226.4     | 1226.4     |   0.0 | 48.70
Neigh   | 1218.6     | 1218.6     | 1218.6     |   0.0 | 48.39
Comm    | 25.698     | 25.698     | 25.698     |   0.0 |  1.02
Output  | 3.8423     | 3.8423     | 3.8423     |   0.0 |  0.15
Modify  | 34.497     | 34.497     | 34.497     |   0.0 |  1.37
Other   |            | 9.403      |            |       |  0.37

Nlocal:    19652 ave 19652 max 19652 min
Histogram: 1 0 0 0 0 0 0 0 0 0
Nghost:    13742 ave 13742 max 13742 min
Histogram: 1 0 0 0 0 0 0 0 0 0
Neighs:    722813 ave 722813 max 722813 min
Histogram: 1 0 0 0 0 0 0 0 0 0

Total # of neighbors = 722813
Ave neighs/atom = 36.7806
Neighbor list builds = 30000
Dangerous builds not checked
Setting up Verlet run ...
  Unit style    : metal
  Current step  : 40000
  Time step     : 0.001
Per MPI rank memory allocation (min/avg/max) = 18.2 | 18.2 | 18.2 Mbytes
Step Temp Press TotEng PotEng Enthalpy Volume 
   40000    2468.5844    260.17919   -13675.473   -19945.903   -13565.064    679898.66 
   40020    2461.5336    203.58021   -13677.274   -19929.794   -13590.882    679908.18 
   40495    2405.1542   -146.20583   -13923.661   -20032.972   -13985.426    676850.71 
Loop time of 35.3115 on 1 procs for 495 steps with 19652 atoms

Performance: 1.211 ns/day, 19.816 hours/ns, 14.018 timesteps/s
100.0% CPU use with 1 MPI tasks x no OpenMP threads

MPI task timing breakdown:
Section |  min time  |  avg time  |  max time  |%varavg| %total
---------------------------------------------------------------
Pair    | 16.569     | 16.569     | 16.569     |   0.0 | 46.92
Neigh   | 17.704     | 17.704     | 17.704     |   0.0 | 50.14
Comm    | 0.35553    | 0.35553    | 0.35553    |   0.0 |  1.01
Output  | 0.053634   | 0.053634   | 0.053634   |   0.0 |  0.15
Modify  | 0.49604    | 0.49604    | 0.49604    |   0.0 |  1.40
Other   |            | 0.1336     |            |       |  0.38

Nlocal:    19652 ave 19652 max 19652 min
Histogram: 1 0 0 0 0 0 0 0 0 0
Nghost:    13668 ave 13668 max 13668 min
Histogram: 1 0 0 0 0 0 0 0 0 0
Neighs:    726058 ave 726058 max 726058 min
Histogram: 1 0 0 0 0 0 0 0 0 0

Total # of neighbors = 726058
Ave neighs/atom = 36.9458
Neighbor list builds = 495
Dangerous builds not checked
Setting up Verlet run ...
  Unit style    : metal
  Current step  : 40495
  Time step     : 0.001
Per MPI rank memory allocation (min/avg/max) = 18.2 | 18.2 | 18.2 Mbytes
Step Temp Press TotEng PotEng Enthalpy Volume 
   40495    2405.1542   -146.20583   -13923.661   -20032.972   -13985.426    676850.71 
   40667    2397.4643   -573.86796   -14006.011   -20095.789   -14248.153    676032.08 
Loop time of 13.772 on 1 procs for 172 steps with 19652 atoms

Performance: 1.079 ns/day, 22.242 hours/ns, 12.489 timesteps/s
99.9% CPU use with 1 MPI tasks x no OpenMP threads

MPI task timing breakdown:
Section |  min time  |  avg time  |  max time  |%varavg| %total
---------------------------------------------------------------
Pair    | 6.5846     | 6.5846     | 6.5846     |   0.0 | 47.81
Neigh   | 6.7929     | 6.7929     | 6.7929     |   0.0 | 49.32
Comm    | 0.13781    | 0.13781    | 0.13781    |   0.0 |  1.00
Output  | 0.00013685 | 0.00013685 | 0.00013685 |   0.0 |  0.00
Modify  | 0.20285    | 0.20285    | 0.20285    |   0.0 |  1.47
Other   |            | 0.0537     |            |       |  0.39

Nlocal:    19652 ave 19652 max 19652 min
Histogram: 1 0 0 0 0 0 0 0 0 0
Nghost:    13741 ave 13741 max 13741 min
Histogram: 1 0 0 0 0 0 0 0 0 0
Neighs:    726735 ave 726735 max 726735 min
Histogram: 1 0 0 0 0 0 0 0 0 0

Total # of neighbors = 726735
Ave neighs/atom = 36.9802
Neighbor list builds = 172
Dangerous builds not checked
Setting up Verlet run ...
  Unit style    : metal
  Current step  : 40667
  Time step     : 0.001
Per MPI rank memory allocation (min/avg/max) = 18.2 | 18.2 | 18.2 Mbytes
Step Temp Press TotEng PotEng Enthalpy Volume 
   40667    2397.4643   -573.86796   -14006.011   -20095.789   -14248.153    676032.08 
   40687    2394.7284   -530.64722   -14005.968   -20088.796   -14229.864    676007.56 
   41162     2373.508    -116.1939   -14273.788   -20302.715   -14322.022    665091.34 
Loop time of 35.2297 on 1 procs for 495 steps with 19652 atoms

Performance: 1.214 ns/day, 19.770 hours/ns, 14.051 timesteps/s
99.2% CPU use with 1 MPI tasks x no OpenMP threads

MPI task timing breakdown:
Section |  min time  |  avg time  |  max time  |%varavg| %total
---------------------------------------------------------------
Pair    | 16.498     | 16.498     | 16.498     |   0.0 | 46.83
Neigh   | 17.684     | 17.684     | 17.684     |   0.0 | 50.20
Comm    | 0.34644    | 0.34644    | 0.34644    |   0.0 |  0.98
Output  | 0.059445   | 0.059445   | 0.059445   |   0.0 |  0.17
Modify  | 0.50117    | 0.50117    | 0.50117    |   0.0 |  1.42
Other   |            | 0.1402     |            |       |  0.40

Nlocal:    19652 ave 19652 max 19652 min
Histogram: 1 0 0 0 0 0 0 0 0 0
Nghost:    13866 ave 13866 max 13866 min
Histogram: 1 0 0 0 0 0 0 0 0 0
Neighs:    738771 ave 738771 max 738771 min
Histogram: 1 0 0 0 0 0 0 0 0 0

Total # of neighbors = 738771
Ave neighs/atom = 37.5927
Neighbor list builds = 495
Dangerous builds not checked
Setting up Verlet run ...
  Unit style    : metal
  Current step  : 41162
  Time step     : 0.001
Per MPI rank memory allocation (min/avg/max) = 18.2 | 18.2 | 18.2 Mbytes
Step Temp Press TotEng PotEng Enthalpy Volume 
   41162     2373.508    -116.1939   -14273.788   -20302.715   -14322.022    665091.34 
   41334    2352.2586   -92.806473   -14378.278   -20353.229   -14416.731    663840.43 
Loop time of 14.0556 on 1 procs for 172 steps with 19652 atoms

Performance: 1.057 ns/day, 22.700 hours/ns, 12.237 timesteps/s
100.0% CPU use with 1 MPI tasks x no OpenMP threads

MPI task timing breakdown:
Section |  min time  |  avg time  |  max time  |%varavg| %total
---------------------------------------------------------------
Pair    | 6.8156     | 6.8156     | 6.8156     |   0.0 | 48.49
Neigh   | 6.8358     | 6.8358     | 6.8358     |   0.0 | 48.63
Comm    | 0.14098    | 0.14098    | 0.14098    |   0.0 |  1.00
Output  | 0.00012112 | 0.00012112 | 0.00012112 |   0.0 |  0.00
Modify  | 0.20955    | 0.20955    | 0.20955    |   0.0 |  1.49
Other   |            | 0.05362    |            |       |  0.38

Nlocal:    19652 ave 19652 max 19652 min
Histogram: 1 0 0 0 0 0 0 0 0 0
Nghost:    13930 ave 13930 max 13930 min
Histogram: 1 0 0 0 0 0 0 0 0 0
Neighs:    739780 ave 739780 max 739780 min
Histogram: 1 0 0 0 0 0 0 0 0 0

Total # of neighbors = 739780
Ave neighs/atom = 37.644
Neighbor list builds = 172
Dangerous builds not checked
Setting up Verlet run ...
  Unit style    : metal
  Current step  : 41334
  Time step     : 0.001
Per MPI rank memory allocation (min/avg/max) = 18.2 | 18.2 | 18.2 Mbytes
Step Temp Press TotEng PotEng Enthalpy Volume 
   41334    2352.2586   -92.806473   -14378.278   -20353.229   -14416.731    663840.43 
   41354    2351.4071   -125.63439   -14378.367   -20351.155   -14430.422    663836.72 
   41829    2324.8624   -297.02612   -14648.664   -20554.026   -14770.239    655782.88 
Loop time of 38.5987 on 1 procs for 495 steps with 19652 atoms

Performance: 1.108 ns/day, 21.660 hours/ns, 12.824 timesteps/s
99.9% CPU use with 1 MPI tasks x no OpenMP threads

MPI task timing breakdown:
Section |  min time  |  avg time  |  max time  |%varavg| %total
---------------------------------------------------------------
Pair    | 18.559     | 18.559     | 18.559     |   0.0 | 48.08
Neigh   | 18.915     | 18.915     | 18.915     |   0.0 | 49.00
Comm    | 0.38087    | 0.38087    | 0.38087    |   0.0 |  0.99
Output  | 0.058685   | 0.058685   | 0.058685   |   0.0 |  0.15
Modify  | 0.54483    | 0.54483    | 0.54483    |   0.0 |  1.41
Other   |            | 0.1406     |            |       |  0.36

Nlocal:    19652 ave 19652 max 19652 min
Histogram: 1 0 0 0 0 0 0 0 0 0
Nghost:    13876 ave 13876 max 13876 min
Histogram: 1 0 0 0 0 0 0 0 0 0
Neighs:    748442 ave 748442 max 748442 min
Histogram: 1 0 0 0 0 0 0 0 0 0

Total # of neighbors = 748442
Ave neighs/atom = 38.0848
Neighbor list builds = 495
Dangerous builds not checked
Setting up Verlet run ...
  Unit style    : metal
  Current step  : 41829
  Time step     : 0.001
Per MPI rank memory allocation (min/avg/max) = 18.2 | 18.2 | 18.2 Mbytes
Step Temp Press TotEng PotEng Enthalpy Volume 
   41829    2324.8624   -297.02612   -14648.664   -20554.026   -14770.239    655782.88 
   42001    2299.9378   -187.89147   -14745.284   -20587.335   -14822.118    655174.42 
Loop time of 11.7839 on 1 procs for 172 steps with 19652 atoms

Performance: 1.261 ns/day, 19.031 hours/ns, 14.596 timesteps/s
100.0% CPU use with 1 MPI tasks x no OpenMP threads

MPI task timing breakdown:
Section |  min time  |  avg time  |  max time  |%varavg| %total
---------------------------------------------------------------
Pair    | 5.5337     | 5.5337     | 5.5337     |   0.0 | 46.96
Neigh   | 5.9249     | 5.9249     | 5.9249     |   0.0 | 50.28
Comm    | 0.11501    | 0.11501    | 0.11501    |   0.0 |  0.98
Output  | 0.00012994 | 0.00012994 | 0.00012994 |   0.0 |  0.00
Modify  | 0.16664    | 0.16664    | 0.16664    |   0.0 |  1.41
Other   |            | 0.04348    |            |       |  0.37

Nlocal:    19652 ave 19652 max 19652 min
Histogram: 1 0 0 0 0 0 0 0 0 0
Nghost:    13932 ave 13932 max 13932 min
Histogram: 1 0 0 0 0 0 0 0 0 0
Neighs:    749516 ave 749516 max 749516 min
Histogram: 1 0 0 0 0 0 0 0 0 0

Total # of neighbors = 749516
Ave neighs/atom = 38.1394
Neighbor list builds = 172
Dangerous builds not checked
Setting up Verlet run ...
  Unit style    : metal
  Current step  : 42001
  Time step     : 0.001
Per MPI rank memory allocation (min/avg/max) = 18.2 | 18.2 | 18.2 Mbytes
Step Temp Press TotEng PotEng Enthalpy Volume 
   42001    2299.9378   -187.89147   -14745.284   -20587.335   -14822.118    655174.42 
   42021     2298.354    -317.1111   -14745.263   -20583.291   -14874.936    655165.44 
   42496    2268.2746    145.59411   -15017.895   -20779.519    -14959.24    645455.63 
Loop time of 38.0041 on 1 procs for 495 steps with 19652 atoms

Performance: 1.125 ns/day, 21.327 hours/ns, 13.025 timesteps/s
99.9% CPU use with 1 MPI tasks x no OpenMP threads

MPI task timing breakdown:
Section |  min time  |  avg time  |  max time  |%varavg| %total
---------------------------------------------------------------
Pair    | 18.299     | 18.299     | 18.299     |   0.0 | 48.15
Neigh   | 18.596     | 18.596     | 18.596     |   0.0 | 48.93
Comm    | 0.37385    | 0.37385    | 0.37385    |   0.0 |  0.98
Output  | 0.061982   | 0.061982   | 0.061982   |   0.0 |  0.16
Modify  | 0.5357     | 0.5357     | 0.5357     |   0.0 |  1.41
Other   |            | 0.1374     |            |       |  0.36

Nlocal:    19652 ave 19652 max 19652 min
Histogram: 1 0 0 0 0 0 0 0 0 0
Nghost:    14028 ave 14028 max 14028 min
Histogram: 1 0 0 0 0 0 0 0 0 0
Neighs:    760913 ave 760913 max 760913 min
Histogram: 1 0 0 0 0 0 0 0 0 0

Total # of neighbors = 760913
Ave neighs/atom = 38.7194
Neighbor list builds = 495
Dangerous builds not checked
Setting up Verlet run ...
  Unit style    : metal
  Current step  : 42496
  Time step     : 0.001
Per MPI rank memory allocation (min/avg/max) = 18.2 | 18.2 | 18.2 Mbytes
Step Temp Press TotEng PotEng Enthalpy Volume 
   42496    2268.2746    145.59411   -15017.895   -20779.519    -14959.24    645455.63 
   42668    2244.6332   -448.18133   -15109.257    -20810.83   -15289.783    645351.45 
Loop time of 12.5164 on 1 procs for 172 steps with 19652 atoms

Performance: 1.187 ns/day, 20.214 hours/ns, 13.742 timesteps/s
100.0% CPU use with 1 MPI tasks x no OpenMP threads

MPI task timing breakdown:
Section |  min time  |  avg time  |  max time  |%varavg| %total
---------------------------------------------------------------
Pair    | 5.9801     | 5.9801     | 5.9801     |   0.0 | 47.78
Neigh   | 6.1883     | 6.1883     | 6.1883     |   0.0 | 49.44
Comm    | 0.12423    | 0.12423    | 0.12423    |   0.0 |  0.99
Output  | 0.00013018 | 0.00013018 | 0.00013018 |   0.0 |  0.00
Modify  | 0.17691    | 0.17691    | 0.17691    |   0.0 |  1.41
Other   |            | 0.04675    |            |       |  0.37

Nlocal:    19652 ave 19652 max 19652 min
Histogram: 1 0 0 0 0 0 0 0 0 0
Nghost:    14031 ave 14031 max 14031 min
Histogram: 1 0 0 0 0 0 0 0 0 0
Neighs:    761110 ave 761110 max 761110 min
Histogram: 1 0 0 0 0 0 0 0 0 0

Total # of neighbors = 761110
Ave neighs/atom = 38.7294
Neighbor list builds = 172
Dangerous builds not checked
Setting up Verlet run ...
  Unit style    : metal
  Current step  : 42668
  Time step     : 0.001
Per MPI rank memory allocation (min/avg/max) = 18.2 | 18.2 | 18.2 Mbytes
Step Temp Press TotEng PotEng Enthalpy Volume 
   42668    2244.6332   -448.18133   -15109.257    -20810.83   -15289.783    645351.45 
   42688     2254.303    -532.2163   -15109.273   -20835.408   -15323.641    645331.43 
   43163      2220.03   -158.31654   -15351.055   -20990.134   -15414.121     638224.4 
Loop time of 36.524 on 1 procs for 495 steps with 19652 atoms

Performance: 1.171 ns/day, 20.496 hours/ns, 13.553 timesteps/s
99.9% CPU use with 1 MPI tasks x no OpenMP threads

MPI task timing breakdown:
Section |  min time  |  avg time  |  max time  |%varavg| %total
---------------------------------------------------------------
Pair    | 17.532     | 17.532     | 17.532     |   0.0 | 48.00
Neigh   | 17.934     | 17.934     | 17.934     |   0.0 | 49.10
Comm    | 0.35415    | 0.35415    | 0.35415    |   0.0 |  0.97
Output  | 0.061284   | 0.061284   | 0.061284   |   0.0 |  0.17
Modify  | 0.5107     | 0.5107     | 0.5107     |   0.0 |  1.40
Other   |            | 0.1318     |            |       |  0.36

Nlocal:    19652 ave 19652 max 19652 min
Histogram: 1 0 0 0 0 0 0 0 0 0
Nghost:    14012 ave 14012 max 14012 min
Histogram: 1 0 0 0 0 0 0 0 0 0
Neighs:    769457 ave 769457 max 769457 min
Histogram: 1 0 0 0 0 0 0 0 0 0

Total # of neighbors = 769457
Ave neighs/atom = 39.1541
Neighbor list builds = 495
Dangerous builds not checked
Setting up Verlet run ...
  Unit style    : metal
  Current step  : 43163
  Time step     : 0.001
Per MPI rank memory allocation (min/avg/max) = 18.2 | 18.2 | 18.2 Mbytes
Step Temp Press TotEng PotEng Enthalpy Volume 
   43163      2220.03   -158.31654   -15351.055   -20990.134   -15414.121     638224.4 
   43335    2216.9359   -650.17687   -15446.903   -21078.123   -15705.499       637235 
Loop time of 12.4991 on 1 procs for 172 steps with 19652 atoms

Performance: 1.189 ns/day, 20.186 hours/ns, 13.761 timesteps/s
100.0% CPU use with 1 MPI tasks x no OpenMP threads

MPI task timing breakdown:
Section |  min time  |  avg time  |  max time  |%varavg| %total
---------------------------------------------------------------
Pair    | 6.0019     | 6.0019     | 6.0019     |   0.0 | 48.02
Neigh   | 6.1557     | 6.1557     | 6.1557     |   0.0 | 49.25
Comm    | 0.12162    | 0.12162    | 0.12162    |   0.0 |  0.97
Output  | 0.00012517 | 0.00012517 | 0.00012517 |   0.0 |  0.00
Modify  | 0.17467    | 0.17467    | 0.17467    |   0.0 |  1.40
Other   |            | 0.04506    |            |       |  0.36

Nlocal:    19652 ave 19652 max 19652 min
Histogram: 1 0 0 0 0 0 0 0 0 0
Nghost:    13999 ave 13999 max 13999 min
Histogram: 1 0 0 0 0 0 0 0 0 0
Neighs:    770237 ave 770237 max 770237 min
Histogram: 1 0 0 0 0 0 0 0 0 0

Total # of neighbors = 770237
Ave neighs/atom = 39.1938
Neighbor list builds = 172
Dangerous builds not checked
Setting up Verlet run ...
  Unit style    : metal
  Current step  : 43335
  Time step     : 0.001
Per MPI rank memory allocation (min/avg/max) = 18.2 | 18.2 | 18.2 Mbytes
Step Temp Press TotEng PotEng Enthalpy Volume 
   43335    2216.9359   -650.17687   -15446.903   -21078.123   -15705.499       637235 
   43355    2213.5625   -767.03851   -15448.898   -21071.548   -15753.959    637205.63 
   43830    2164.4648    280.01789   -15733.674   -21231.612   -15624.083    627046.73 
Loop time of 41.1235 on 1 procs for 495 steps with 19652 atoms

Performance: 1.040 ns/day, 23.077 hours/ns, 12.037 timesteps/s
99.9% CPU use with 1 MPI tasks x no OpenMP threads

MPI task timing breakdown:
Section |  min time  |  avg time  |  max time  |%varavg| %total
---------------------------------------------------------------
Pair    | 20.514     | 20.514     | 20.514     |   0.0 | 49.88
Neigh   | 19.433     | 19.433     | 19.433     |   0.0 | 47.25
Comm    | 0.41145    | 0.41145    | 0.41145    |   0.0 |  1.00
Output  | 0.062656   | 0.062656   | 0.062656   |   0.0 |  0.15
Modify  | 0.54842    | 0.54842    | 0.54842    |   0.0 |  1.33
Other   |            | 0.154      |            |       |  0.37

Nlocal:    19652 ave 19652 max 19652 min
Histogram: 1 0 0 0 0 0 0 0 0 0
Nghost:    14100 ave 14100 max 14100 min
Histogram: 1 0 0 0 0 0 0 0 0 0
Neighs:    783257 ave 783257 max 783257 min
Histogram: 1 0 0 0 0 0 0 0 0 0

Total # of neighbors = 783257
Ave neighs/atom = 39.8564
Neighbor list builds = 495
Dangerous builds not checked
Setting up Verlet run ...
  Unit style    : metal
  Current step  : 43830
  Time step     : 0.001
Per MPI rank memory allocation (min/avg/max) = 18.2 | 18.2 | 18.2 Mbytes
Step Temp Press TotEng PotEng Enthalpy Volume 
   43830    2164.4648    280.01789   -15733.674   -21231.612   -15624.083    627046.73 
   44002    2148.4518   -47.709322   -15830.276    -21287.54   -15848.947    626979.56 
Loop time of 16.8417 on 1 procs for 172 steps with 19652 atoms

Performance: 0.882 ns/day, 27.199 hours/ns, 10.213 timesteps/s
100.0% CPU use with 1 MPI tasks x no OpenMP threads

MPI task timing breakdown:
Section |  min time  |  avg time  |  max time  |%varavg| %total
---------------------------------------------------------------
Pair    | 8.6042     | 8.6042     | 8.6042     |   0.0 | 51.09
Neigh   | 7.7583     | 7.7583     | 7.7583     |   0.0 | 46.07
Comm    | 0.16664    | 0.16664    | 0.16664    |   0.0 |  0.99
Output  | 0.00018501 | 0.00018501 | 0.00018501 |   0.0 |  0.00
Modify  | 0.24577    | 0.24577    | 0.24577    |   0.0 |  1.46
Other   |            | 0.06665    |            |       |  0.40

Nlocal:    19652 ave 19652 max 19652 min
Histogram: 1 0 0 0 0 0 0 0 0 0
Nghost:    14093 ave 14093 max 14093 min
Histogram: 1 0 0 0 0 0 0 0 0 0
Neighs:    783404 ave 783404 max 783404 min
Histogram: 1 0 0 0 0 0 0 0 0 0

Total # of neighbors = 783404
Ave neighs/atom = 39.8638
Neighbor list builds = 172
Dangerous builds not checked
Setting up Verlet run ...
  Unit style    : metal
  Current step  : 44002
  Time step     : 0.001
Per MPI rank memory allocation (min/avg/max) = 18.2 | 18.2 | 18.2 Mbytes
Step Temp Press TotEng PotEng Enthalpy Volume 
   44002    2148.4518   -47.709322   -15830.276    -21287.54   -15848.947    626979.56 
   44022    2142.0125    78.835824    -15829.92   -21270.827   -15799.069    626979.79 
   44497    2112.0414   -216.92221   -16032.174   -21396.952   -16116.546    623164.35 
Loop time of 49.9135 on 1 procs for 495 steps with 19652 atoms

Performance: 0.857 ns/day, 28.010 hours/ns, 9.917 timesteps/s
99.9% CPU use with 1 MPI tasks x no OpenMP threads

MPI task timing breakdown:
Section |  min time  |  avg time  |  max time  |%varavg| %total
---------------------------------------------------------------
Pair    | 25.591     | 25.591     | 25.591     |   0.0 | 51.27
Neigh   | 22.828     | 22.828     | 22.828     |   0.0 | 45.74
Comm    | 0.50491    | 0.50491    | 0.50491    |   0.0 |  1.01
Output  | 0.088184   | 0.088184   | 0.088184   |   0.0 |  0.18
Modify  | 0.70851    | 0.70851    | 0.70851    |   0.0 |  1.42
Other   |            | 0.1929     |            |       |  0.39

Nlocal:    19652 ave 19652 max 19652 min
Histogram: 1 0 0 0 0 0 0 0 0 0
Nghost:    14143 ave 14143 max 14143 min
Histogram: 1 0 0 0 0 0 0 0 0 0
Neighs:    787619 ave 787619 max 787619 min
Histogram: 1 0 0 0 0 0 0 0 0 0

Total # of neighbors = 787619
Ave neighs/atom = 40.0783
Neighbor list builds = 495
Dangerous builds not checked
Setting up Verlet run ...
  Unit style    : metal
  Current step  : 44497
  Time step     : 0.001
Per MPI rank memory allocation (min/avg/max) = 18.2 | 18.2 | 18.2 Mbytes
Step Temp Press TotEng PotEng Enthalpy Volume 
   44497    2112.0414   -216.92221   -16032.174   -21396.952   -16116.546    623164.35 
   44669    2102.8845   -578.60821   -16121.392    -21462.91   -16346.113    622255.87 
Loop time of 14.9847 on 1 procs for 172 steps with 19652 atoms

Performance: 0.992 ns/day, 24.200 hours/ns, 11.478 timesteps/s
100.0% CPU use with 1 MPI tasks x no OpenMP threads

MPI task timing breakdown:
Section |  min time  |  avg time  |  max time  |%varavg| %total
---------------------------------------------------------------
Pair    | 7.541      | 7.541      | 7.541      |   0.0 | 50.32
Neigh   | 7.0223     | 7.0223     | 7.0223     |   0.0 | 46.86
Comm    | 0.15207    | 0.15207    | 0.15207    |   0.0 |  1.01
Output  | 0.00014496 | 0.00014496 | 0.00014496 |   0.0 |  0.00
Modify  | 0.21028    | 0.21028    | 0.21028    |   0.0 |  1.40
Other   |            | 0.05885    |            |       |  0.39

Nlocal:    19652 ave 19652 max 19652 min
Histogram: 1 0 0 0 0 0 0 0 0 0
Nghost:    14204 ave 14204 max 14204 min
Histogram: 1 0 0 0 0 0 0 0 0 0
Neighs:    789006 ave 789006 max 789006 min
Histogram: 1 0 0 0 0 0 0 0 0 0

Total # of neighbors = 789006
Ave neighs/atom = 40.1489
Neighbor list builds = 172
Dangerous builds not checked
Setting up Verlet run ...
  Unit style    : metal
  Current step  : 44669
  Time step     : 0.001
Per MPI rank memory allocation (min/avg/max) = 18.2 | 18.2 | 18.2 Mbytes
Step Temp Press TotEng PotEng Enthalpy Volume 
   44669    2102.8845   -578.60821   -16121.392    -21462.91   -16346.113    622255.87 
   44689    2098.6656   -526.67795   -16121.514   -21452.316   -16326.059    622233.32 
   45164    2078.3972    30.702965   -16387.064   -21666.382   -16375.304     613676.3 
Loop time of 44.3243 on 1 procs for 495 steps with 19652 atoms

Performance: 0.965 ns/day, 24.873 hours/ns, 11.168 timesteps/s
100.0% CPU use with 1 MPI tasks x no OpenMP threads

MPI task timing breakdown:
Section |  min time  |  avg time  |  max time  |%varavg| %total
---------------------------------------------------------------
Pair    | 22.387     | 22.387     | 22.387     |   0.0 | 50.51
Neigh   | 20.629     | 20.629     | 20.629     |   0.0 | 46.54
Comm    | 0.43573    | 0.43573    | 0.43573    |   0.0 |  0.98
Output  | 0.075586   | 0.075586   | 0.075586   |   0.0 |  0.17
Modify  | 0.62423    | 0.62423    | 0.62423    |   0.0 |  1.41
Other   |            | 0.1729     |            |       |  0.39

Nlocal:    19652 ave 19652 max 19652 min
Histogram: 1 0 0 0 0 0 0 0 0 0
Nghost:    14212 ave 14212 max 14212 min
Histogram: 1 0 0 0 0 0 0 0 0 0
Neighs:    800389 ave 800389 max 800389 min
Histogram: 1 0 0 0 0 0 0 0 0 0

Total # of neighbors = 800389
Ave neighs/atom = 40.7281
Neighbor list builds = 495
Dangerous builds not checked
Setting up Verlet run ...
  Unit style    : metal
  Current step  : 45164
  Time step     : 0.001
Per MPI rank memory allocation (min/avg/max) = 18.2 | 18.2 | 18.2 Mbytes
Step Temp Press TotEng PotEng Enthalpy Volume 
   45164    2078.3972    30.702965   -16387.064   -21666.382   -16375.304     613676.3 
   45336    2064.7003      -402.03   -16479.528   -21724.055   -16633.435    613353.82 
Loop time of 18.7943 on 1 procs for 172 steps with 19652 atoms

Performance: 0.791 ns/day, 30.352 hours/ns, 9.152 timesteps/s
98.1% CPU use with 1 MPI tasks x no OpenMP threads

MPI task timing breakdown:
Section |  min time  |  avg time  |  max time  |%varavg| %total
---------------------------------------------------------------
Pair    | 9.5089     | 9.5089     | 9.5089     |   0.0 | 50.59
Neigh   | 8.7499     | 8.7499     | 8.7499     |   0.0 | 46.56
Comm    | 0.1841     | 0.1841     | 0.1841     |   0.0 |  0.98
Output  | 0.00015211 | 0.00015211 | 0.00015211 |   0.0 |  0.00
Modify  | 0.26763    | 0.26763    | 0.26763    |   0.0 |  1.42
Other   |            | 0.08364    |            |       |  0.45

Nlocal:    19652 ave 19652 max 19652 min
Histogram: 1 0 0 0 0 0 0 0 0 0
Nghost:    14257 ave 14257 max 14257 min
Histogram: 1 0 0 0 0 0 0 0 0 0
Neighs:    800229 ave 800229 max 800229 min
Histogram: 1 0 0 0 0 0 0 0 0 0

Total # of neighbors = 800229
Ave neighs/atom = 40.72
Neighbor list builds = 172
Dangerous builds not checked
Setting up Verlet run ...
  Unit style    : metal
  Current step  : 45336
  Time step     : 0.001
Per MPI rank memory allocation (min/avg/max) = 18.2 | 18.2 | 18.2 Mbytes
Step Temp Press TotEng PotEng Enthalpy Volume 
   45336    2064.7003      -402.03   -16479.528   -21724.055   -16633.435    613353.82 
   45356    2067.6551   -411.33285    -16481.31   -21733.343   -16638.775    613336.59 
   45831    2015.6079    132.25113   -16712.009   -21831.837   -16661.898    607077.52 
Loop time of 41.9607 on 1 procs for 495 steps with 19652 atoms

Performance: 1.019 ns/day, 23.547 hours/ns, 11.797 timesteps/s
99.9% CPU use with 1 MPI tasks x no OpenMP threads

MPI task timing breakdown:
Section |  min time  |  avg time  |  max time  |%varavg| %total
---------------------------------------------------------------
Pair    | 20.606     | 20.606     | 20.606     |   0.0 | 49.11
Neigh   | 20.152     | 20.152     | 20.152     |   0.0 | 48.03
Comm    | 0.40641    | 0.40641    | 0.40641    |   0.0 |  0.97
Output  | 0.086244   | 0.086244   | 0.086244   |   0.0 |  0.21
Modify  | 0.54965    | 0.54965    | 0.54965    |   0.0 |  1.31
Other   |            | 0.1597     |            |       |  0.38

Nlocal:    19652 ave 19652 max 19652 min
Histogram: 1 0 0 0 0 0 0 0 0 0
Nghost:    14439 ave 14439 max 14439 min
Histogram: 1 0 0 0 0 0 0 0 0 0
Neighs:    808513 ave 808513 max 808513 min
Histogram: 1 0 0 0 0 0 0 0 0 0

Total # of neighbors = 808513
Ave neighs/atom = 41.1415
Neighbor list builds = 495
Dangerous builds not checked
Setting up Verlet run ...
  Unit style    : metal
  Current step  : 45831
  Time step     : 0.001
Per MPI rank memory allocation (min/avg/max) = 18.2 | 18.2 | 18.2 Mbytes
Step Temp Press TotEng PotEng Enthalpy Volume 
   45831    2015.6079    132.25113   -16712.009   -21831.837   -16661.898    607077.52 
   46003    1994.8719   -522.27219   -16806.046   -21873.202   -17003.893    606936.19 
Loop time of 15.5555 on 1 procs for 172 steps with 19652 atoms

Performance: 0.955 ns/day, 25.122 hours/ns, 11.057 timesteps/s
100.0% CPU use with 1 MPI tasks x no OpenMP threads

MPI task timing breakdown:
Section |  min time  |  avg time  |  max time  |%varavg| %total
---------------------------------------------------------------
Pair    | 7.7008     | 7.7008     | 7.7008     |   0.0 | 49.51
Neigh   | 7.4277     | 7.4277     | 7.4277     |   0.0 | 47.75
Comm    | 0.15455    | 0.15455    | 0.15455    |   0.0 |  0.99
Output  | 0.00019288 | 0.00019288 | 0.00019288 |   0.0 |  0.00
Modify  | 0.2113     | 0.2113     | 0.2113     |   0.0 |  1.36
Other   |            | 0.06095    |            |       |  0.39

Nlocal:    19652 ave 19652 max 19652 min
Histogram: 1 0 0 0 0 0 0 0 0 0
Nghost:    14380 ave 14380 max 14380 min
Histogram: 1 0 0 0 0 0 0 0 0 0
Neighs:    808795 ave 808795 max 808795 min
Histogram: 1 0 0 0 0 0 0 0 0 0

Total # of neighbors = 808795
Ave neighs/atom = 41.1559
Neighbor list builds = 172
Dangerous builds not checked
Setting up Verlet run ...
  Unit style    : metal
  Current step  : 46003
  Time step     : 0.001
Per MPI rank memory allocation (min/avg/max) = 18.2 | 18.2 | 18.2 Mbytes
Step Temp Press TotEng PotEng Enthalpy Volume 
   46003    1994.8719   -522.27219   -16806.046   -21873.202   -17003.893    606936.19 
   46023    2004.0811   -606.13645   -16806.145   -21896.694   -17035.753    606912.64 
   46498     1975.884    121.74153    -17047.67   -22066.596   -17002.056    600309.96 
Loop time of 44.3716 on 1 procs for 495 steps with 19652 atoms

Performance: 0.964 ns/day, 24.900 hours/ns, 11.156 timesteps/s
99.9% CPU use with 1 MPI tasks x no OpenMP threads

MPI task timing breakdown:
Section |  min time  |  avg time  |  max time  |%varavg| %total
---------------------------------------------------------------
Pair    | 22.072     | 22.072     | 22.072     |   0.0 | 49.74
Neigh   | 21.06      | 21.06      | 21.06      |   0.0 | 47.46
Comm    | 0.43588    | 0.43588    | 0.43588    |   0.0 |  0.98
Output  | 0.060341   | 0.060341   | 0.060341   |   0.0 |  0.14
Modify  | 0.57534    | 0.57534    | 0.57534    |   0.0 |  1.30
Other   |            | 0.168      |            |       |  0.38

Nlocal:    19652 ave 19652 max 19652 min
Histogram: 1 0 0 0 0 0 0 0 0 0
Nghost:    14393 ave 14393 max 14393 min
Histogram: 1 0 0 0 0 0 0 0 0 0
Neighs:    818116 ave 818116 max 818116 min
Histogram: 1 0 0 0 0 0 0 0 0 0

Total # of neighbors = 818116
Ave neighs/atom = 41.6302
Neighbor list builds = 495
Dangerous builds not checked
Setting up Verlet run ...
  Unit style    : metal
  Current step  : 46498
  Time step     : 0.001
Per MPI rank memory allocation (min/avg/max) = 18.2 | 18.2 | 18.2 Mbytes
Step Temp Press TotEng PotEng Enthalpy Volume 
   46498     1975.884    121.74153    -17047.67   -22066.596   -17002.056    600309.96 
   46670    1943.5434   -208.83899   -17133.523     -22070.3   -17211.749    600142.05 
Loop time of 19.0544 on 1 procs for 172 steps with 19652 atoms

Performance: 0.780 ns/day, 30.773 hours/ns, 9.027 timesteps/s
89.7% CPU use with 1 MPI tasks x no OpenMP threads

MPI task timing breakdown:
Section |  min time  |  avg time  |  max time  |%varavg| %total
---------------------------------------------------------------
Pair    | 9.7        | 9.7        | 9.7        |   0.0 | 50.91
Neigh   | 8.8071     | 8.8071     | 8.8071     |   0.0 | 46.22
Comm    | 0.22606    | 0.22606    | 0.22606    |   0.0 |  1.19
Output  | 0.00015712 | 0.00015712 | 0.00015712 |   0.0 |  0.00
Modify  | 0.25415    | 0.25415    | 0.25415    |   0.0 |  1.33
Other   |            | 0.06694    |            |       |  0.35

Nlocal:    19652 ave 19652 max 19652 min
Histogram: 1 0 0 0 0 0 0 0 0 0
Nghost:    14467 ave 14467 max 14467 min
Histogram: 1 0 0 0 0 0 0 0 0 0
Neighs:    818037 ave 818037 max 818037 min
Histogram: 1 0 0 0 0 0 0 0 0 0

Total # of neighbors = 818037
Ave neighs/atom = 41.6261
Neighbor list builds = 172
Dangerous builds not checked
Setting up Verlet run ...
  Unit style    : metal
  Current step  : 46670
  Time step     : 0.001
Per MPI rank memory allocation (min/avg/max) = 18.2 | 18.2 | 18.2 Mbytes
Step Temp Press TotEng PotEng Enthalpy Volume 
   46670    1943.5434   -208.83899   -17133.523     -22070.3   -17211.749    600142.05 
   46690    1938.9231   -102.57298   -17132.848   -22057.889   -17171.269    600134.57 
   47165    1905.1431    220.19914   -17372.667   -22211.904   -17290.983    594336.16 
Loop time of 43.7479 on 1 procs for 495 steps with 19652 atoms

Performance: 0.978 ns/day, 24.550 hours/ns, 11.315 timesteps/s
99.9% CPU use with 1 MPI tasks x no OpenMP threads

MPI task timing breakdown:
Section |  min time  |  avg time  |  max time  |%varavg| %total
---------------------------------------------------------------
Pair    | 21.598     | 21.598     | 21.598     |   0.0 | 49.37
Neigh   | 20.903     | 20.903     | 20.903     |   0.0 | 47.78
Comm    | 0.41909    | 0.41909    | 0.41909    |   0.0 |  0.96
Output  | 0.088978   | 0.088978   | 0.088978   |   0.0 |  0.20
Modify  | 0.57588    | 0.57588    | 0.57588    |   0.0 |  1.32
Other   |            | 0.1632     |            |       |  0.37

Nlocal:    19652 ave 19652 max 19652 min
Histogram: 1 0 0 0 0 0 0 0 0 0
Nghost:    14469 ave 14469 max 14469 min
Histogram: 1 0 0 0 0 0 0 0 0 0
Neighs:    826085 ave 826085 max 826085 min
Histogram: 1 0 0 0 0 0 0 0 0 0

Total # of neighbors = 826085
Ave neighs/atom = 42.0357
Neighbor list builds = 495
Dangerous builds not checked
Setting up Verlet run ...
  Unit style    : metal
  Current step  : 47165
  Time step     : 0.001
Per MPI rank memory allocation (min/avg/max) = 18.2 | 18.2 | 18.2 Mbytes
Step Temp Press TotEng PotEng Enthalpy Volume 
   47165    1905.1431    220.19914   -17372.667   -22211.904   -17290.983    594336.16 
   47337     1886.624   -374.74287   -17450.459   -22242.656   -17589.509    594492.55 
Loop time of 13.2417 on 1 procs for 172 steps with 19652 atoms

Performance: 1.122 ns/day, 21.385 hours/ns, 12.989 timesteps/s
100.0% CPU use with 1 MPI tasks x no OpenMP threads

MPI task timing breakdown:
Section |  min time  |  avg time  |  max time  |%varavg| %total
---------------------------------------------------------------
Pair    | 6.4142     | 6.4142     | 6.4142     |   0.0 | 48.44
Neigh   | 6.4791     | 6.4791     | 6.4791     |   0.0 | 48.93
Comm    | 0.12448    | 0.12448    | 0.12448    |   0.0 |  0.94
Output  | 0.00017786 | 0.00017786 | 0.00017786 |   0.0 |  0.00
Modify  | 0.17325    | 0.17325    | 0.17325    |   0.0 |  1.31
Other   |            | 0.05052    |            |       |  0.38

Nlocal:    19652 ave 19652 max 19652 min
Histogram: 1 0 0 0 0 0 0 0 0 0
Nghost:    14540 ave 14540 max 14540 min
Histogram: 1 0 0 0 0 0 0 0 0 0
Neighs:    825854 ave 825854 max 825854 min
Histogram: 1 0 0 0 0 0 0 0 0 0

Total # of neighbors = 825854
Ave neighs/atom = 42.0239
Neighbor list builds = 172
Dangerous builds not checked
Setting up Verlet run ...
  Unit style    : metal
  Current step  : 47337
  Time step     : 0.001
Per MPI rank memory allocation (min/avg/max) = 18.2 | 18.2 | 18.2 Mbytes
Step Temp Press TotEng PotEng Enthalpy Volume 
   47337     1886.624   -374.74287   -17450.459   -22242.656   -17589.509    594492.55 
   47357    1905.7234   -573.23628   -17449.975   -22290.686   -17662.669    594473.69 
   47832    1877.5313    31.394376   -17702.802   -22471.903   -17691.288    587631.02 
Loop time of 46.6779 on 1 procs for 495 steps with 19652 atoms

Performance: 0.916 ns/day, 26.194 hours/ns, 10.605 timesteps/s
100.0% CPU use with 1 MPI tasks x no OpenMP threads

MPI task timing breakdown:
Section |  min time  |  avg time  |  max time  |%varavg| %total
---------------------------------------------------------------
Pair    | 23.413     | 23.413     | 23.413     |   0.0 | 50.16
Neigh   | 21.984     | 21.984     | 21.984     |   0.0 | 47.10
Comm    | 0.44127    | 0.44127    | 0.44127    |   0.0 |  0.95
Output  | 0.056222   | 0.056222   | 0.056222   |   0.0 |  0.12
Modify  | 0.6115     | 0.6115     | 0.6115     |   0.0 |  1.31
Other   |            | 0.1711     |            |       |  0.37

Nlocal:    19652 ave 19652 max 19652 min
Histogram: 1 0 0 0 0 0 0 0 0 0
Nghost:    14622 ave 14622 max 14622 min
Histogram: 1 0 0 0 0 0 0 0 0 0
Neighs:    835786 ave 835786 max 835786 min
Histogram: 1 0 0 0 0 0 0 0 0 0

Total # of neighbors = 835786
Ave neighs/atom = 42.5293
Neighbor list builds = 495
Dangerous builds not checked
Setting up Verlet run ...
  Unit style    : metal
  Current step  : 47832
  Time step     : 0.001
Per MPI rank memory allocation (min/avg/max) = 18.2 | 18.2 | 18.2 Mbytes
Step Temp Press TotEng PotEng Enthalpy Volume 
   47832    1877.5313    31.394376   -17702.802   -22471.903   -17691.288    587631.02 
   48004    1851.5169   -222.71281   -17784.466   -22487.488   -17866.176    587814.86 
Loop time of 14.0283 on 1 procs for 172 steps with 19652 atoms

Performance: 1.059 ns/day, 22.655 hours/ns, 12.261 timesteps/s
100.0% CPU use with 1 MPI tasks x no OpenMP threads

MPI task timing breakdown:
Section |  min time  |  avg time  |  max time  |%varavg| %total
---------------------------------------------------------------
Pair    | 6.8883     | 6.8883     | 6.8883     |   0.0 | 49.10
Neigh   | 6.7698     | 6.7698     | 6.7698     |   0.0 | 48.26
Comm    | 0.13382    | 0.13382    | 0.13382    |   0.0 |  0.95
Output  | 0.00014591 | 0.00014591 | 0.00014591 |   0.0 |  0.00
Modify  | 0.18296    | 0.18296    | 0.18296    |   0.0 |  1.30
Other   |            | 0.05323    |            |       |  0.38

Nlocal:    19652 ave 19652 max 19652 min
Histogram: 1 0 0 0 0 0 0 0 0 0
Nghost:    14588 ave 14588 max 14588 min
Histogram: 1 0 0 0 0 0 0 0 0 0
Neighs:    835617 ave 835617 max 835617 min
Histogram: 1 0 0 0 0 0 0 0 0 0

Total # of neighbors = 835617
Ave neighs/atom = 42.5207
Neighbor list builds = 172
Dangerous builds not checked
Setting up Verlet run ...
  Unit style    : metal
  Current step  : 48004
  Time step     : 0.001
Per MPI rank memory allocation (min/avg/max) = 18.2 | 18.2 | 18.2 Mbytes
Step Temp Press TotEng PotEng Enthalpy Volume 
   48004    1851.5169   -222.71281   -17784.466   -22487.488   -17866.176    587814.86 
   48024    1850.5599   -291.36582   -17784.862   -22485.453   -17891.758    587804.45 
   48499    1815.8974   -11.939351   -18019.754   -22632.299   -18024.097    582849.32 
Loop time of 50.5386 on 1 procs for 495 steps with 19652 atoms

Performance: 0.846 ns/day, 28.361 hours/ns, 9.794 timesteps/s
99.8% CPU use with 1 MPI tasks x no OpenMP threads

MPI task timing breakdown:
Section |  min time  |  avg time  |  max time  |%varavg| %total
---------------------------------------------------------------
Pair    | 25.809     | 25.809     | 25.809     |   0.0 | 51.07
Neigh   | 23.315     | 23.315     | 23.315     |   0.0 | 46.13
Comm    | 0.48439    | 0.48439    | 0.48439    |   0.0 |  0.96
Output  | 0.063978   | 0.063978   | 0.063978   |   0.0 |  0.13
Modify  | 0.67764    | 0.67764    | 0.67764    |   0.0 |  1.34
Other   |            | 0.1884     |            |       |  0.37

Nlocal:    19652 ave 19652 max 19652 min
Histogram: 1 0 0 0 0 0 0 0 0 0
Nghost:    14690 ave 14690 max 14690 min
Histogram: 1 0 0 0 0 0 0 0 0 0
Neighs:    843329 ave 843329 max 843329 min
Histogram: 1 0 0 0 0 0 0 0 0 0

Total # of neighbors = 843329
Ave neighs/atom = 42.9131
Neighbor list builds = 495
Dangerous builds not checked
Setting up Verlet run ...
  Unit style    : metal
  Current step  : 48499
  Time step     : 0.001
Per MPI rank memory allocation (min/avg/max) = 18.2 | 18.2 | 18.2 Mbytes
Step Temp Press TotEng PotEng Enthalpy Volume 
   48499    1815.8974   -11.939351   -18019.754   -22632.299   -18024.097    582849.32 
   48671    1804.6561   -498.64309   -18079.547   -22663.538   -18260.995    583005.24 
Loop time of 14.5049 on 1 procs for 172 steps with 19652 atoms

Performance: 1.025 ns/day, 23.425 hours/ns, 11.858 timesteps/s
100.0% CPU use with 1 MPI tasks x no OpenMP threads

MPI task timing breakdown:
Section |  min time  |  avg time  |  max time  |%varavg| %total
---------------------------------------------------------------
Pair    | 7.1832     | 7.1832     | 7.1832     |   0.0 | 49.52
Neigh   | 6.9414     | 6.9414     | 6.9414     |   0.0 | 47.86
Comm    | 0.13869    | 0.13869    | 0.13869    |   0.0 |  0.96
Output  | 0.00017309 | 0.00017309 | 0.00017309 |   0.0 |  0.00
Modify  | 0.18632    | 0.18632    | 0.18632    |   0.0 |  1.28
Other   |            | 0.05502    |            |       |  0.38

Nlocal:    19652 ave 19652 max 19652 min
Histogram: 1 0 0 0 0 0 0 0 0 0
Nghost:    14668 ave 14668 max 14668 min
Histogram: 1 0 0 0 0 0 0 0 0 0
Neighs:    842450 ave 842450 max 842450 min
Histogram: 1 0 0 0 0 0 0 0 0 0

Total # of neighbors = 842450
Ave neighs/atom = 42.8684
Neighbor list builds = 172
Dangerous builds not checked
Setting up Verlet run ...
  Unit style    : metal
  Current step  : 48671
  Time step     : 0.001
Per MPI rank memory allocation (min/avg/max) = 18.2 | 18.2 | 18.2 Mbytes
Step Temp Press TotEng PotEng Enthalpy Volume 
   48671    1804.6561   -498.64309   -18079.547   -22663.538   -18260.995    583005.24 
   48691     1797.556   -483.51655   -18080.179   -22646.135   -18256.116    582983.09 
   49166    1766.1397    11.858396   -18316.583   -22802.739   -18312.312    577080.55 
Loop time of 45.9866 on 1 procs for 495 steps with 19652 atoms

Performance: 0.930 ns/day, 25.806 hours/ns, 10.764 timesteps/s
100.0% CPU use with 1 MPI tasks x no OpenMP threads

MPI task timing breakdown:
Section |  min time  |  avg time  |  max time  |%varavg| %total
---------------------------------------------------------------
Pair    | 23.209     | 23.209     | 23.209     |   0.0 | 50.47
Neigh   | 21.511     | 21.511     | 21.511     |   0.0 | 46.78
Comm    | 0.43349    | 0.43349    | 0.43349    |   0.0 |  0.94
Output  | 0.062745   | 0.062745   | 0.062745   |   0.0 |  0.14
Modify  | 0.59804    | 0.59804    | 0.59804    |   0.0 |  1.30
Other   |            | 0.1731     |            |       |  0.38

Nlocal:    19652 ave 19652 max 19652 min
Histogram: 1 0 0 0 0 0 0 0 0 0
Nghost:    14691 ave 14691 max 14691 min
Histogram: 1 0 0 0 0 0 0 0 0 0
Neighs:    851043 ave 851043 max 851043 min
Histogram: 1 0 0 0 0 0 0 0 0 0

Total # of neighbors = 851043
Ave neighs/atom = 43.3057
Neighbor list builds = 495
Dangerous builds not checked
Setting up Verlet run ...
  Unit style    : metal
  Current step  : 49166
  Time step     : 0.001
Per MPI rank memory allocation (min/avg/max) = 18.2 | 18.2 | 18.2 Mbytes
Step Temp Press TotEng PotEng Enthalpy Volume 
   49166    1766.1397    11.858396   -18316.583   -22802.739   -18312.312    577080.55 
   49338    1754.0466   -67.929084   -18398.976   -22854.414   -18423.426    576673.98 
Loop time of 15.1279 on 1 procs for 172 steps with 19652 atoms

Performance: 0.982 ns/day, 24.431 hours/ns, 11.370 timesteps/s
100.0% CPU use with 1 MPI tasks x no OpenMP threads

MPI task timing breakdown:
Section |  min time  |  avg time  |  max time  |%varavg| %total
---------------------------------------------------------------
Pair    | 7.584      | 7.584      | 7.584      |   0.0 | 50.13
Neigh   | 7.1441     | 7.1441     | 7.1441     |   0.0 | 47.22
Comm    | 0.14391    | 0.14391    | 0.14391    |   0.0 |  0.95
Output  | 0.00015211 | 0.00015211 | 0.00015211 |   0.0 |  0.00
Modify  | 0.19729    | 0.19729    | 0.19729    |   0.0 |  1.30
Other   |            | 0.05843    |            |       |  0.39

Nlocal:    19652 ave 19652 max 19652 min
Histogram: 1 0 0 0 0 0 0 0 0 0
Nghost:    14612 ave 14612 max 14612 min
Histogram: 1 0 0 0 0 0 0 0 0 0
Neighs:    851532 ave 851532 max 851532 min
Histogram: 1 0 0 0 0 0 0 0 0 0

Total # of neighbors = 851532
Ave neighs/atom = 43.3306
Neighbor list builds = 172
Dangerous builds not checked
Setting up Verlet run ...
  Unit style    : metal
  Current step  : 49338
  Time step     : 0.001
Per MPI rank memory allocation (min/avg/max) = 18.2 | 18.2 | 18.2 Mbytes
Step Temp Press TotEng PotEng Enthalpy Volume 
   49338    1754.0466   -67.929084   -18398.976   -22854.414   -18423.426    576673.98 
   49358    1754.4556   -37.908628   -18399.408   -22855.885   -18413.052    576672.13 
   49833    1717.1026    62.013065   -18604.761   -22966.358   -18582.581    573058.09 
Loop time of 45.7042 on 1 procs for 495 steps with 19652 atoms

Performance: 0.936 ns/day, 25.648 hours/ns, 10.831 timesteps/s
99.9% CPU use with 1 MPI tasks x no OpenMP threads

MPI task timing breakdown:
Section |  min time  |  avg time  |  max time  |%varavg| %total
---------------------------------------------------------------
Pair    | 23.17      | 23.17      | 23.17      |   0.0 | 50.69
Neigh   | 21.296     | 21.296     | 21.296     |   0.0 | 46.60
Comm    | 0.43093    | 0.43093    | 0.43093    |   0.0 |  0.94
Output  | 0.060693   | 0.060693   | 0.060693   |   0.0 |  0.13
Modify  | 0.58091    | 0.58091    | 0.58091    |   0.0 |  1.27
Other   |            | 0.1663     |            |       |  0.36

Nlocal:    19652 ave 19652 max 19652 min
Histogram: 1 0 0 0 0 0 0 0 0 0
Nghost:    14732 ave 14732 max 14732 min
Histogram: 1 0 0 0 0 0 0 0 0 0
Neighs:    857088 ave 857088 max 857088 min
Histogram: 1 0 0 0 0 0 0 0 0 0

Total # of neighbors = 857088
Ave neighs/atom = 43.6133
Neighbor list builds = 495
Dangerous builds not checked
Setting up Verlet run ...
  Unit style    : metal
  Current step  : 49833
  Time step     : 0.001
Per MPI rank memory allocation (min/avg/max) = 18.2 | 18.2 | 18.2 Mbytes
Step Temp Press TotEng PotEng Enthalpy Volume 
   49833    1717.1026    62.013065   -18604.761   -22966.358   -18582.581    573058.09 
   50005    1702.8905   -397.34515   -18680.757   -23006.254   -18822.796    572732.38 
Loop time of 13.4955 on 1 procs for 172 steps with 19652 atoms

Performance: 1.101 ns/day, 21.795 hours/ns, 12.745 timesteps/s
100.0% CPU use with 1 MPI tasks x no OpenMP threads

MPI task timing breakdown:
Section |  min time  |  avg time  |  max time  |%varavg| %total
---------------------------------------------------------------
Pair    | 6.6164     | 6.6164     | 6.6164     |   0.0 | 49.03
Neigh   | 6.5315     | 6.5315     | 6.5315     |   0.0 | 48.40
Comm    | 0.12512    | 0.12512    | 0.12512    |   0.0 |  0.93
Output  | 0.00018406 | 0.00018406 | 0.00018406 |   0.0 |  0.00
Modify  | 0.17224    | 0.17224    | 0.17224    |   0.0 |  1.28
Other   |            | 0.05005    |            |       |  0.37

Nlocal:    19652 ave 19652 max 19652 min
Histogram: 1 0 0 0 0 0 0 0 0 0
Nghost:    14639 ave 14639 max 14639 min
Histogram: 1 0 0 0 0 0 0 0 0 0
Neighs:    857754 ave 857754 max 857754 min
Histogram: 1 0 0 0 0 0 0 0 0 0

Total # of neighbors = 857754
Ave neighs/atom = 43.6472
Neighbor list builds = 172
Dangerous builds not checked
Setting up Verlet run ...
  Unit style    : metal
  Current step  : 50005
  Time step     : 0.001
Per MPI rank memory allocation (min/avg/max) = 18.2 | 18.2 | 18.2 Mbytes
Step Temp Press TotEng PotEng Enthalpy Volume 
   50005    1702.8905   -397.34515   -18680.757   -23006.254   -18822.796    572732.38 
   50025     1708.361   -496.16007   -18681.275   -23020.668   -18858.633    572713.77 
   50500    1670.4202    44.634583   -18948.533   -23191.553   -18932.726     567416.8 
Loop time of 48.2966 on 1 procs for 495 steps with 19652 atoms

Performance: 0.886 ns/day, 27.102 hours/ns, 10.249 timesteps/s
99.9% CPU use with 1 MPI tasks x no OpenMP threads

MPI task timing breakdown:
Section |  min time  |  avg time  |  max time  |%varavg| %total
---------------------------------------------------------------
Pair    | 24.317     | 24.317     | 24.317     |   0.0 | 50.35
Neigh   | 22.63      | 22.63      | 22.63      |   0.0 | 46.86
Comm    | 0.45153    | 0.45153    | 0.45153    |   0.0 |  0.93
Output  | 0.094571   | 0.094571   | 0.094571   |   0.0 |  0.20
Modify  | 0.63022    | 0.63022    | 0.63022    |   0.0 |  1.30
Other   |            | 0.1725     |            |       |  0.36

Nlocal:    19652 ave 19652 max 19652 min
Histogram: 1 0 0 0 0 0 0 0 0 0
Nghost:    14744 ave 14744 max 14744 min
Histogram: 1 0 0 0 0 0 0 0 0 0
Neighs:    866081 ave 866081 max 866081 min
Histogram: 1 0 0 0 0 0 0 0 0 0

Total # of neighbors = 866081
Ave neighs/atom = 44.0709
Neighbor list builds = 495
Dangerous builds not checked
Setting up Verlet run ...
  Unit style    : metal
  Current step  : 50500
  Time step     : 0.001
Per MPI rank memory allocation (min/avg/max) = 18.2 | 18.2 | 18.2 Mbytes
Step Temp Press TotEng PotEng Enthalpy Volume 
   50500    1670.4202    44.634583   -18948.533   -23191.553   -18932.726     567416.8 
   50672    1645.9208   -13.121689   -19026.092   -23206.881   -19030.736    567008.67 
Loop time of 13.6606 on 1 procs for 172 steps with 19652 atoms

Performance: 1.088 ns/day, 22.062 hours/ns, 12.591 timesteps/s
100.0% CPU use with 1 MPI tasks x no OpenMP threads

MPI task timing breakdown:
Section |  min time  |  avg time  |  max time  |%varavg| %total
---------------------------------------------------------------
Pair    | 6.6731     | 6.6731     | 6.6731     |   0.0 | 48.85
Neigh   | 6.6437     | 6.6437     | 6.6437     |   0.0 | 48.63
Comm    | 0.12178    | 0.12178    | 0.12178    |   0.0 |  0.89
Output  | 0.00013685 | 0.00013685 | 0.00013685 |   0.0 |  0.00
Modify  | 0.17587    | 0.17587    | 0.17587    |   0.0 |  1.29
Other   |            | 0.04599    |            |       |  0.34

Nlocal:    19652 ave 19652 max 19652 min
Histogram: 1 0 0 0 0 0 0 0 0 0
Nghost:    14766 ave 14766 max 14766 min
Histogram: 1 0 0 0 0 0 0 0 0 0
Neighs:    866243 ave 866243 max 866243 min
Histogram: 1 0 0 0 0 0 0 0 0 0

Total # of neighbors = 866243
Ave neighs/atom = 44.0791
Neighbor list builds = 172
Dangerous builds not checked
Setting up Verlet run ...
  Unit style    : metal
  Current step  : 50672
  Time step     : 0.001
Per MPI rank memory allocation (min/avg/max) = 18.2 | 18.2 | 18.2 Mbytes
Step Temp Press TotEng PotEng Enthalpy Volume 
   50672    1645.9208   -13.121689   -19026.092   -23206.881   -19030.736    567008.67 
   50692    1646.3332   -91.413475   -19025.922   -23207.759   -19058.273    567006.37 
   51167     1610.418    233.70085   -19249.021   -23339.629   -19167.033    562080.71 
Loop time of 39.4657 on 1 procs for 495 steps with 19652 atoms

Performance: 1.084 ns/day, 22.147 hours/ns, 12.543 timesteps/s
99.3% CPU use with 1 MPI tasks x no OpenMP threads

MPI task timing breakdown:
Section |  min time  |  avg time  |  max time  |%varavg| %total
---------------------------------------------------------------
Pair    | 19.219     | 19.219     | 19.219     |   0.0 | 48.70
Neigh   | 18.964     | 18.964     | 18.964     |   0.0 | 48.05
Comm    | 0.35763    | 0.35763    | 0.35763    |   0.0 |  0.91
Output  | 0.28833    | 0.28833    | 0.28833    |   0.0 |  0.73
Modify  | 0.50271    | 0.50271    | 0.50271    |   0.0 |  1.27
Other   |            | 0.1346     |            |       |  0.34

Nlocal:    19652 ave 19652 max 19652 min
Histogram: 1 0 0 0 0 0 0 0 0 0
Nghost:    14792 ave 14792 max 14792 min
Histogram: 1 0 0 0 0 0 0 0 0 0
Neighs:    873771 ave 873771 max 873771 min
Histogram: 1 0 0 0 0 0 0 0 0 0

Total # of neighbors = 873771
Ave neighs/atom = 44.4622
Neighbor list builds = 495
Dangerous builds not checked
Setting up Verlet run ...
  Unit style    : metal
  Current step  : 51167
  Time step     : 0.001
Per MPI rank memory allocation (min/avg/max) = 18.2 | 18.2 | 18.2 Mbytes
Step Temp Press TotEng PotEng Enthalpy Volume 
   51167     1610.418    233.70085   -19249.021   -23339.629   -19167.033    562080.71 
   51339    1588.6349       15.247   -19322.184   -23357.462   -19316.834    562223.37 
Loop time of 14.116 on 1 procs for 172 steps with 19652 atoms

Performance: 1.053 ns/day, 22.797 hours/ns, 12.185 timesteps/s
99.9% CPU use with 1 MPI tasks x no OpenMP threads

MPI task timing breakdown:
Section |  min time  |  avg time  |  max time  |%varavg| %total
---------------------------------------------------------------
Pair    | 7.018      | 7.018      | 7.018      |   0.0 | 49.72
Neigh   | 6.7335     | 6.7335     | 6.7335     |   0.0 | 47.70
Comm    | 0.13001    | 0.13001    | 0.13001    |   0.0 |  0.92
Output  | 0.00015593 | 0.00015593 | 0.00015593 |   0.0 |  0.00
Modify  | 0.18313    | 0.18313    | 0.18313    |   0.0 |  1.30
Other   |            | 0.05114    |            |       |  0.36

Nlocal:    19652 ave 19652 max 19652 min
Histogram: 1 0 0 0 0 0 0 0 0 0
Nghost:    14815 ave 14815 max 14815 min
Histogram: 1 0 0 0 0 0 0 0 0 0
Neighs:    874094 ave 874094 max 874094 min
Histogram: 1 0 0 0 0 0 0 0 0 0

Total # of neighbors = 874094
Ave neighs/atom = 44.4786
Neighbor list builds = 172
Dangerous builds not checked
Setting up Verlet run ...
  Unit style    : metal
  Current step  : 51339
  Time step     : 0.001
Per MPI rank memory allocation (min/avg/max) = 18.2 | 18.2 | 18.2 Mbytes
Step Temp Press TotEng PotEng Enthalpy Volume 
   51339    1588.6349       15.247   -19322.184   -23357.462   -19316.834    562223.37 
   51359    1605.3248   -194.44804   -19321.536   -23399.208    -19389.77    562221.58 
   51834    1568.5719   -9.7561619   -19533.897   -23518.213   -19537.299    558704.46 
Loop time of 40.7694 on 1 procs for 495 steps with 19652 atoms

Performance: 1.049 ns/day, 22.878 hours/ns, 12.141 timesteps/s
99.7% CPU use with 1 MPI tasks x no OpenMP threads

MPI task timing breakdown:
Section |  min time  |  avg time  |  max time  |%varavg| %total
---------------------------------------------------------------
Pair    | 20.241     | 20.241     | 20.241     |   0.0 | 49.65
Neigh   | 19.349     | 19.349     | 19.349     |   0.0 | 47.46
Comm    | 0.37169    | 0.37169    | 0.37169    |   0.0 |  0.91
Output  | 0.15669    | 0.15669    | 0.15669    |   0.0 |  0.38
Modify  | 0.50966    | 0.50966    | 0.50966    |   0.0 |  1.25
Other   |            | 0.1407     |            |       |  0.35

Nlocal:    19652 ave 19652 max 19652 min
Histogram: 1 0 0 0 0 0 0 0 0 0
Nghost:    14823 ave 14823 max 14823 min
Histogram: 1 0 0 0 0 0 0 0 0 0
Neighs:    879704 ave 879704 max 879704 min
Histogram: 1 0 0 0 0 0 0 0 0 0

Total # of neighbors = 879704
Ave neighs/atom = 44.7641
Neighbor list builds = 495
Dangerous builds not checked
Setting up Verlet run ...
  Unit style    : metal
  Current step  : 51834
  Time step     : 0.001
Per MPI rank memory allocation (min/avg/max) = 18.2 | 18.2 | 18.2 Mbytes
Step Temp Press TotEng PotEng Enthalpy Volume 
   51834    1568.5719   -9.7561619   -19533.897   -23518.213   -19537.299    558704.46 
   52006    1543.7499   -202.63233   -19606.631   -23527.896   -19677.241    558305.88 
Loop time of 15.2421 on 1 procs for 172 steps with 19652 atoms

Performance: 0.975 ns/day, 24.616 hours/ns, 11.285 timesteps/s
99.6% CPU use with 1 MPI tasks x no OpenMP threads

MPI task timing breakdown:
Section |  min time  |  avg time  |  max time  |%varavg| %total
---------------------------------------------------------------
Pair    | 7.6377     | 7.6377     | 7.6377     |   0.0 | 50.11
Neigh   | 7.205      | 7.205      | 7.205      |   0.0 | 47.27
Comm    | 0.14648    | 0.14648    | 0.14648    |   0.0 |  0.96
Output  | 0.00013423 | 0.00013423 | 0.00013423 |   0.0 |  0.00
Modify  | 0.19849    | 0.19849    | 0.19849    |   0.0 |  1.30
Other   |            | 0.05436    |            |       |  0.36

Nlocal:    19652 ave 19652 max 19652 min
Histogram: 1 0 0 0 0 0 0 0 0 0
Nghost:    14854 ave 14854 max 14854 min
Histogram: 1 0 0 0 0 0 0 0 0 0
Neighs:    879803 ave 879803 max 879803 min
Histogram: 1 0 0 0 0 0 0 0 0 0

Total # of neighbors = 879803
Ave neighs/atom = 44.7691
Neighbor list builds = 172
Dangerous builds not checked
Setting up Verlet run ...
  Unit style    : metal
  Current step  : 52006
  Time step     : 0.001
Per MPI rank memory allocation (min/avg/max) = 18.2 | 18.2 | 18.2 Mbytes
Step Temp Press TotEng PotEng Enthalpy Volume 
   52006    1543.7499   -202.63233   -19606.631   -23527.896   -19677.241    558305.88 
   52026    1552.4689   -210.80237   -19606.119   -23549.532   -19679.576    558297.44 
   52501    1524.1282   -85.338315   -19839.846   -23711.271   -19869.366    554221.25 
Loop time of 40.646 on 1 procs for 495 steps with 19652 atoms

Performance: 1.052 ns/day, 22.809 hours/ns, 12.178 timesteps/s
100.0% CPU use with 1 MPI tasks x no OpenMP threads

MPI task timing breakdown:
Section |  min time  |  avg time  |  max time  |%varavg| %total
---------------------------------------------------------------
Pair    | 20.262     | 20.262     | 20.262     |   0.0 | 49.85
Neigh   | 19.311     | 19.311     | 19.311     |   0.0 | 47.51
Comm    | 0.3688     | 0.3688     | 0.3688     |   0.0 |  0.91
Output  | 0.062014   | 0.062014   | 0.062014   |   0.0 |  0.15
Modify  | 0.50383    | 0.50383    | 0.50383    |   0.0 |  1.24
Other   |            | 0.1386     |            |       |  0.34

Nlocal:    19652 ave 19652 max 19652 min
Histogram: 1 0 0 0 0 0 0 0 0 0
Nghost:    14819 ave 14819 max 14819 min
Histogram: 1 0 0 0 0 0 0 0 0 0
Neighs:    886723 ave 886723 max 886723 min
Histogram: 1 0 0 0 0 0 0 0 0 0

Total # of neighbors = 886723
Ave neighs/atom = 45.1213
Neighbor list builds = 495
Dangerous builds not checked
Setting up Verlet run ...
  Unit style    : metal
  Current step  : 52501
  Time step     : 0.001
Per MPI rank memory allocation (min/avg/max) = 18.2 | 18.2 | 18.2 Mbytes
Step Temp Press TotEng PotEng Enthalpy Volume 
   52501    1524.1282   -85.338315   -19839.846   -23711.271   -19869.366    554221.25 
   52673    1504.3335   -101.12371   -19904.683   -23725.827   -19939.631    553700.93 
Loop time of 13.4133 on 1 procs for 172 steps with 19652 atoms

Performance: 1.108 ns/day, 21.662 hours/ns, 12.823 timesteps/s
100.0% CPU use with 1 MPI tasks x no OpenMP threads

MPI task timing breakdown:
Section |  min time  |  avg time  |  max time  |%varavg| %total
---------------------------------------------------------------
Pair    | 6.6048     | 6.6048     | 6.6048     |   0.0 | 49.24
Neigh   | 6.4731     | 6.4731     | 6.4731     |   0.0 | 48.26
Comm    | 0.12052    | 0.12052    | 0.12052    |   0.0 |  0.90
Output  | 0.00012803 | 0.00012803 | 0.00012803 |   0.0 |  0.00
Modify  | 0.16916    | 0.16916    | 0.16916    |   0.0 |  1.26
Other   |            | 0.04554    |            |       |  0.34

Nlocal:    19652 ave 19652 max 19652 min
Histogram: 1 0 0 0 0 0 0 0 0 0
Nghost:    14924 ave 14924 max 14924 min
Histogram: 1 0 0 0 0 0 0 0 0 0
Neighs:    887765 ave 887765 max 887765 min
Histogram: 1 0 0 0 0 0 0 0 0 0

Total # of neighbors = 887765
Ave neighs/atom = 45.1743
Neighbor list builds = 172
Dangerous builds not checked
Setting up Verlet run ...
  Unit style    : metal
  Current step  : 52673
  Time step     : 0.001
Per MPI rank memory allocation (min/avg/max) = 18.2 | 18.2 | 18.2 Mbytes
Step Temp Press TotEng PotEng Enthalpy Volume 
   52673    1504.3335   -101.12371   -19904.683   -23725.827   -19939.631    553700.93 
   52693    1503.1143   -154.71338   -19905.237   -23723.285   -19958.705    553694.89 
   53168      1477.63   -19.020072   -20122.986   -23876.301   -20129.513    549750.09 
Loop time of 39.9168 on 1 procs for 495 steps with 19652 atoms

Performance: 1.071 ns/day, 22.400 hours/ns, 12.401 timesteps/s
100.0% CPU use with 1 MPI tasks x no OpenMP threads

MPI task timing breakdown:
Section |  min time  |  avg time  |  max time  |%varavg| %total
---------------------------------------------------------------
Pair    | 19.708     | 19.708     | 19.708     |   0.0 | 49.37
Neigh   | 19.156     | 19.156     | 19.156     |   0.0 | 47.99
Comm    | 0.3577     | 0.3577     | 0.3577     |   0.0 |  0.90
Output  | 0.059576   | 0.059576   | 0.059576   |   0.0 |  0.15
Modify  | 0.50123    | 0.50123    | 0.50123    |   0.0 |  1.26
Other   |            | 0.1342     |            |       |  0.34

Nlocal:    19652 ave 19652 max 19652 min
Histogram: 1 0 0 0 0 0 0 0 0 0
Nghost:    15000 ave 15000 max 15000 min
Histogram: 1 0 0 0 0 0 0 0 0 0
Neighs:    894340 ave 894340 max 894340 min
Histogram: 1 0 0 0 0 0 0 0 0 0

Total # of neighbors = 894340
Ave neighs/atom = 45.5089
Neighbor list builds = 495
Dangerous builds not checked
Setting up Verlet run ...
  Unit style    : metal
  Current step  : 53168
  Time step     : 0.001
Per MPI rank memory allocation (min/avg/max) = 18.2 | 18.2 | 18.2 Mbytes
Step Temp Press TotEng PotEng Enthalpy Volume 
   53168      1477.63   -19.020072   -20122.986   -23876.301   -20129.513    549750.09 
   53340    1456.2415   -200.46062   -20191.578   -23890.564   -20260.358     549717.4 
Loop time of 13.4966 on 1 procs for 172 steps with 19652 atoms

Performance: 1.101 ns/day, 21.797 hours/ns, 12.744 timesteps/s
100.0% CPU use with 1 MPI tasks x no OpenMP threads

MPI task timing breakdown:
Section |  min time  |  avg time  |  max time  |%varavg| %total
---------------------------------------------------------------
Pair    | 6.6676     | 6.6676     | 6.6676     |   0.0 | 49.40
Neigh   | 6.4904     | 6.4904     | 6.4904     |   0.0 | 48.09
Comm    | 0.12144    | 0.12144    | 0.12144    |   0.0 |  0.90
Output  | 0.00013685 | 0.00013685 | 0.00013685 |   0.0 |  0.00
Modify  | 0.17032    | 0.17032    | 0.17032    |   0.0 |  1.26
Other   |            | 0.04669    |            |       |  0.35

Nlocal:    19652 ave 19652 max 19652 min
Histogram: 1 0 0 0 0 0 0 0 0 0
Nghost:    14929 ave 14929 max 14929 min
Histogram: 1 0 0 0 0 0 0 0 0 0
Neighs:    894672 ave 894672 max 894672 min
Histogram: 1 0 0 0 0 0 0 0 0 0

Total # of neighbors = 894672
Ave neighs/atom = 45.5257
Neighbor list builds = 172
Dangerous builds not checked
Setting up Verlet run ...
  Unit style    : metal
  Current step  : 53340
  Time step     : 0.001
Per MPI rank memory allocation (min/avg/max) = 18.2 | 18.2 | 18.2 Mbytes
Step Temp Press TotEng PotEng Enthalpy Volume 
   53340    1456.2415   -200.46062   -20191.578   -23890.564   -20260.358     549717.4 
   53360    1459.3891   -195.85317   -20192.388   -23899.369   -20259.585     549708.3 
   53835    1409.2897    805.27555   -20457.213   -24036.938   -20183.697    544188.98 
Loop time of 41.9908 on 1 procs for 495 steps with 19652 atoms

Performance: 1.019 ns/day, 23.564 hours/ns, 11.788 timesteps/s
99.3% CPU use with 1 MPI tasks x no OpenMP threads

MPI task timing breakdown:
Section |  min time  |  avg time  |  max time  |%varavg| %total
---------------------------------------------------------------
Pair    | 20.927     | 20.927     | 20.927     |   0.0 | 49.84
Neigh   | 19.97      | 19.97      | 19.97      |   0.0 | 47.56
Comm    | 0.37108    | 0.37108    | 0.37108    |   0.0 |  0.88
Output  | 0.061128   | 0.061128   | 0.061128   |   0.0 |  0.15
Modify  | 0.52461    | 0.52461    | 0.52461    |   0.0 |  1.25
Other   |            | 0.1376     |            |       |  0.33

Nlocal:    19652 ave 19652 max 19652 min
Histogram: 1 0 0 0 0 0 0 0 0 0
Nghost:    14961 ave 14961 max 14961 min
Histogram: 1 0 0 0 0 0 0 0 0 0
Neighs:    904208 ave 904208 max 904208 min
Histogram: 1 0 0 0 0 0 0 0 0 0

Total # of neighbors = 904208
Ave neighs/atom = 46.011
Neighbor list builds = 495
Dangerous builds not checked
Setting up Verlet run ...
  Unit style    : metal
  Current step  : 53835
  Time step     : 0.001
Per MPI rank memory allocation (min/avg/max) = 18.2 | 18.2 | 18.2 Mbytes
Step Temp Press TotEng PotEng Enthalpy Volume 
   53835    1409.2897    805.27555   -20457.213   -24036.938   -20183.697    544188.98 
   54007    1408.9612    -347.7834   -20531.085   -24109.975    -20649.45    545284.44 
Loop time of 13.4567 on 1 procs for 172 steps with 19652 atoms

Performance: 1.104 ns/day, 21.732 hours/ns, 12.782 timesteps/s
100.0% CPU use with 1 MPI tasks x no OpenMP threads

MPI task timing breakdown:
Section |  min time  |  avg time  |  max time  |%varavg| %total
---------------------------------------------------------------
Pair    | 6.6562     | 6.6562     | 6.6562     |   0.0 | 49.46
Neigh   | 6.4694     | 6.4694     | 6.4694     |   0.0 | 48.08
Comm    | 0.11825    | 0.11825    | 0.11825    |   0.0 |  0.88
Output  | 0.00013494 | 0.00013494 | 0.00013494 |   0.0 |  0.00
Modify  | 0.16768    | 0.16768    | 0.16768    |   0.0 |  1.25
Other   |            | 0.04501    |            |       |  0.33

Nlocal:    19652 ave 19652 max 19652 min
Histogram: 1 0 0 0 0 0 0 0 0 0
Nghost:    14958 ave 14958 max 14958 min
Histogram: 1 0 0 0 0 0 0 0 0 0
Neighs:    901935 ave 901935 max 901935 min
Histogram: 1 0 0 0 0 0 0 0 0 0

Total # of neighbors = 901935
Ave neighs/atom = 45.8953
Neighbor list builds = 172
Dangerous builds not checked
Setting up Verlet run ...
  Unit style    : metal
  Current step  : 54007
  Time step     : 0.001
Per MPI rank memory allocation (min/avg/max) = 18.2 | 18.2 | 18.2 Mbytes
Step Temp Press TotEng PotEng Enthalpy Volume 
   54007    1408.9612    -347.7834   -20531.085   -24109.975    -20649.45    545284.44 
   54027    1395.9609   -223.10717   -20531.594   -24077.462   -20607.525    545270.07 
   54502     1359.442    139.28843   -20758.508   -24211.614   -20711.462    541151.59 
Loop time of 41.8672 on 1 procs for 495 steps with 19652 atoms

Performance: 1.022 ns/day, 23.494 hours/ns, 11.823 timesteps/s
99.9% CPU use with 1 MPI tasks x no OpenMP threads

MPI task timing breakdown:
Section |  min time  |  avg time  |  max time  |%varavg| %total
---------------------------------------------------------------
Pair    | 21.002     | 21.002     | 21.002     |   0.0 | 50.16
Neigh   | 19.781     | 19.781     | 19.781     |   0.0 | 47.25
Comm    | 0.37277    | 0.37277    | 0.37277    |   0.0 |  0.89
Output  | 0.060866   | 0.060866   | 0.060866   |   0.0 |  0.15
Modify  | 0.51389    | 0.51389    | 0.51389    |   0.0 |  1.23
Other   |            | 0.1371     |            |       |  0.33

Nlocal:    19652 ave 19652 max 19652 min
Histogram: 1 0 0 0 0 0 0 0 0 0
Nghost:    15002 ave 15002 max 15002 min
Histogram: 1 0 0 0 0 0 0 0 0 0
Neighs:    909285 ave 909285 max 909285 min
Histogram: 1 0 0 0 0 0 0 0 0 0

Total # of neighbors = 909285
Ave neighs/atom = 46.2693
Neighbor list builds = 495
Dangerous builds not checked
Setting up Verlet run ...
  Unit style    : metal
  Current step  : 54502
  Time step     : 0.001
Per MPI rank memory allocation (min/avg/max) = 18.2 | 18.2 | 18.2 Mbytes
Step Temp Press TotEng PotEng Enthalpy Volume 
   54502     1359.442    139.28843   -20758.508   -24211.614   -20711.462    541151.59 
   54674    1360.1384   -376.64394    -20826.49   -24281.366   -20953.646    540897.13 
Loop time of 13.9913 on 1 procs for 172 steps with 19652 atoms

Performance: 1.062 ns/day, 22.596 hours/ns, 12.293 timesteps/s
100.0% CPU use with 1 MPI tasks x no OpenMP threads

MPI task timing breakdown:
Section |  min time  |  avg time  |  max time  |%varavg| %total
---------------------------------------------------------------
Pair    | 6.9912     | 6.9912     | 6.9912     |   0.0 | 49.97
Neigh   | 6.6567     | 6.6567     | 6.6567     |   0.0 | 47.58
Comm    | 0.12233    | 0.12233    | 0.12233    |   0.0 |  0.87
Output  | 0.00012803 | 0.00012803 | 0.00012803 |   0.0 |  0.00
Modify  | 0.17486    | 0.17486    | 0.17486    |   0.0 |  1.25
Other   |            | 0.04605    |            |       |  0.33

Nlocal:    19652 ave 19652 max 19652 min
Histogram: 1 0 0 0 0 0 0 0 0 0
Nghost:    15064 ave 15064 max 15064 min
Histogram: 1 0 0 0 0 0 0 0 0 0
Neighs:    909054 ave 909054 max 909054 min
Histogram: 1 0 0 0 0 0 0 0 0 0

Total # of neighbors = 909054
Ave neighs/atom = 46.2576
Neighbor list builds = 172
Dangerous builds not checked
Setting up Verlet run ...
  Unit style    : metal
  Current step  : 54674
  Time step     : 0.001
Per MPI rank memory allocation (min/avg/max) = 18.2 | 18.2 | 18.2 Mbytes
Step Temp Press TotEng PotEng Enthalpy Volume 
   54674    1360.1384   -376.64394    -20826.49   -24281.366   -20953.646    540897.13 
   54694    1358.6322    -372.4295   -20827.641   -24278.691    -20953.37       540879 
   55169    1325.3296    72.099469    -21066.95   -24433.408   -21042.791    536834.53 
Loop time of 44.3108 on 1 procs for 495 steps with 19652 atoms

Performance: 0.965 ns/day, 24.866 hours/ns, 11.171 timesteps/s
99.9% CPU use with 1 MPI tasks x no OpenMP threads

MPI task timing breakdown:
Section |  min time  |  avg time  |  max time  |%varavg| %total
---------------------------------------------------------------
Pair    | 22.344     | 22.344     | 22.344     |   0.0 | 50.42
Neigh   | 20.797     | 20.797     | 20.797     |   0.0 | 46.93
Comm    | 0.3964     | 0.3964     | 0.3964     |   0.0 |  0.89
Output  | 0.057836   | 0.057836   | 0.057836   |   0.0 |  0.13
Modify  | 0.56574    | 0.56574    | 0.56574    |   0.0 |  1.28
Other   |            | 0.1501     |            |       |  0.34

Nlocal:    19652 ave 19652 max 19652 min
Histogram: 1 0 0 0 0 0 0 0 0 0
Nghost:    15151 ave 15151 max 15151 min
Histogram: 1 0 0 0 0 0 0 0 0 0
Neighs:    917221 ave 917221 max 917221 min
Histogram: 1 0 0 0 0 0 0 0 0 0

Total # of neighbors = 917221
Ave neighs/atom = 46.6732
Neighbor list builds = 495
Dangerous builds not checked
Setting up Verlet run ...
  Unit style    : metal
  Current step  : 55169
  Time step     : 0.001
Per MPI rank memory allocation (min/avg/max) = 18.2 | 18.2 | 18.2 Mbytes
Step Temp Press TotEng PotEng Enthalpy Volume 
   55169    1325.3296    72.099469    -21066.95   -24433.408   -21042.791    536834.53 
   55341    1304.0394   -171.81093   -21139.069   -24451.447   -21196.646       536919 
Loop time of 13.6838 on 1 procs for 172 steps with 19652 atoms

Performance: 1.086 ns/day, 22.099 hours/ns, 12.570 timesteps/s
100.0% CPU use with 1 MPI tasks x no OpenMP threads

MPI task timing breakdown:
Section |  min time  |  avg time  |  max time  |%varavg| %total
---------------------------------------------------------------
Pair    | 6.8254     | 6.8254     | 6.8254     |   0.0 | 49.88
Neigh   | 6.5204     | 6.5204     | 6.5204     |   0.0 | 47.65
Comm    | 0.12142    | 0.12142    | 0.12142    |   0.0 |  0.89
Output  | 0.00013113 | 0.00013113 | 0.00013113 |   0.0 |  0.00
Modify  | 0.17021    | 0.17021    | 0.17021    |   0.0 |  1.24
Other   |            | 0.04623    |            |       |  0.34

Nlocal:    19652 ave 19652 max 19652 min
Histogram: 1 0 0 0 0 0 0 0 0 0
Nghost:    15086 ave 15086 max 15086 min
Histogram: 1 0 0 0 0 0 0 0 0 0
Neighs:    916866 ave 916866 max 916866 min
Histogram: 1 0 0 0 0 0 0 0 0 0

Total # of neighbors = 916866
Ave neighs/atom = 46.6551
Neighbor list builds = 172
Dangerous builds not checked
Setting up Verlet run ...
  Unit style    : metal
  Current step  : 55341
  Time step     : 0.001
[...]
Modify  | 0.5787     | 0.5787     | 0.5787     |   0.0 |  1.19
Other   |            | 0.1706     |            |       |  0.35

Nlocal:    19652 ave 19652 max 19652 min
Histogram: 1 0 0 0 0 0 0 0 0 0
Nghost:    15860 ave 15860 max 15860 min
Histogram: 1 0 0 0 0 0 0 0 0 0
Neighs:    1.05318e+06 ave 1.05318e+06 max 1.05318e+06 min
Histogram: 1 0 0 0 0 0 0 0 0 0

Total # of neighbors = 1053180
Ave neighs/atom = 53.5915
Neighbor list builds = 495
Dangerous builds not checked
Setting up Verlet run ...
  Unit style    : metal
  Current step  : 67175
  Time step     : 0.001
Per MPI rank memory allocation (min/avg/max) = 18.21 | 18.21 | 18.21 Mbytes
Step Temp Press TotEng PotEng Enthalpy Volume 
   67175    423.69477    25.361532   -26702.285   -27778.509   -26694.748    476167.07 
   67347    415.20674   -11.848041   -26762.079   -27816.742   -26765.597    475726.78 
Loop time of 17.1853 on 1 procs for 172 steps with 19652 atoms

Performance: 0.865 ns/day, 27.754 hours/ns, 10.009 timesteps/s
100.0% CPU use with 1 MPI tasks x no OpenMP threads

MPI task timing breakdown:
Section |  min time  |  avg time  |  max time  |%varavg| %total
---------------------------------------------------------------
Pair    | 8.8789     | 8.8789     | 8.8789     |   0.0 | 51.67
Neigh   | 7.8985     | 7.8985     | 7.8985     |   0.0 | 45.96
Comm    | 0.14585    | 0.14585    | 0.14585    |   0.0 |  0.85
Output  | 0.0001781  | 0.0001781  | 0.0001781  |   0.0 |  0.00
Modify  | 0.20066    | 0.20066    | 0.20066    |   0.0 |  1.17
Other   |            | 0.06118    |            |       |  0.36

Nlocal:    19652 ave 19652 max 19652 min
Histogram: 1 0 0 0 0 0 0 0 0 0
Nghost:    15811 ave 15811 max 15811 min
Histogram: 1 0 0 0 0 0 0 0 0 0
Neighs:    1.05461e+06 ave 1.05461e+06 max 1.05461e+06 min
Histogram: 1 0 0 0 0 0 0 0 0 0

Total # of neighbors = 1054610
Ave neighs/atom = 53.6643
Neighbor list builds = 172
Dangerous builds not checked
Setting up Verlet run ...
  Unit style    : metal
  Current step  : 67347
  Time step     : 0.001
Per MPI rank memory allocation (min/avg/max) = 18.21 | 18.21 | 18.21 Mbytes
Step Temp Press TotEng PotEng Enthalpy Volume 
   67347    415.20674   -11.848041   -26762.079   -27816.742   -26765.597    475726.78 
   67367    417.56497   -75.011307   -26763.901   -27824.554   -26786.173    475722.46 
   67842    377.02414    152.51026   -27001.254    -27958.93   -26956.202    473292.42 
Loop time of 50.8063 on 1 procs for 495 steps with 19652 atoms

Performance: 0.842 ns/day, 28.511 hours/ns, 9.743 timesteps/s
98.4% CPU use with 1 MPI tasks x no OpenMP threads

MPI task timing breakdown:
Section |  min time  |  avg time  |  max time  |%varavg| %total
---------------------------------------------------------------
Pair    | 26.321     | 26.321     | 26.321     |   0.0 | 51.81
Neigh   | 23.199     | 23.199     | 23.199     |   0.0 | 45.66
Comm    | 0.431      | 0.431      | 0.431      |   0.0 |  0.85
Output  | 0.084078   | 0.084078   | 0.084078   |   0.0 |  0.17
Modify  | 0.57857    | 0.57857    | 0.57857    |   0.0 |  1.14
Other   |            | 0.1932     |            |       |  0.38

Nlocal:    19652 ave 19652 max 19652 min
Histogram: 1 0 0 0 0 0 0 0 0 0
Nghost:    15908 ave 15908 max 15908 min
Histogram: 1 0 0 0 0 0 0 0 0 0
Neighs:    1.06134e+06 ave 1.06134e+06 max 1.06134e+06 min
Histogram: 1 0 0 0 0 0 0 0 0 0

Total # of neighbors = 1061338
Ave neighs/atom = 54.0066
Neighbor list builds = 495
Dangerous builds not checked
Setting up Verlet run ...
  Unit style    : metal
  Current step  : 67842
  Time step     : 0.001
Per MPI rank memory allocation (min/avg/max) = 18.21 | 18.21 | 18.21 Mbytes
Step Temp Press TotEng PotEng Enthalpy Volume 
   67842    377.02414    152.51026   -27001.254    -27958.93   -26956.202    473292.42 
   68014    369.39542   -174.85352   -27060.446   -27998.744   -27112.085    473168.91 
Loop time of 18.9219 on 1 procs for 172 steps with 19652 atoms

Performance: 0.785 ns/day, 30.559 hours/ns, 9.090 timesteps/s
100.0% CPU use with 1 MPI tasks x no OpenMP threads

MPI task timing breakdown:
Section |  min time  |  avg time  |  max time  |%varavg| %total
---------------------------------------------------------------
Pair    | 9.9028     | 9.9028     | 9.9028     |   0.0 | 52.34
Neigh   | 8.5731     | 8.5731     | 8.5731     |   0.0 | 45.31
Comm    | 0.16156    | 0.16156    | 0.16156    |   0.0 |  0.85
Output  | 0.00018287 | 0.00018287 | 0.00018287 |   0.0 |  0.00
Modify  | 0.22086    | 0.22086    | 0.22086    |   0.0 |  1.17
Other   |            | 0.06335    |            |       |  0.33

Nlocal:    19652 ave 19652 max 19652 min
Histogram: 1 0 0 0 0 0 0 0 0 0
Nghost:    15849 ave 15849 max 15849 min
Histogram: 1 0 0 0 0 0 0 0 0 0
Neighs:    1.06155e+06 ave 1.06155e+06 max 1.06155e+06 min
Histogram: 1 0 0 0 0 0 0 0 0 0

Total # of neighbors = 1061554
Ave neighs/atom = 54.0176
Neighbor list builds = 172
Dangerous builds not checked
Setting up Verlet run ...
  Unit style    : metal
  Current step  : 68014
  Time step     : 0.001
Per MPI rank memory allocation (min/avg/max) = 18.21 | 18.21 | 18.21 Mbytes
Step Temp Press TotEng PotEng Enthalpy Volume 
   68014    369.39542   -174.85352   -27060.446   -27998.744   -27112.085    473168.91 
   68034    366.82973   -137.86514   -27062.517   -27994.298   -27103.231    473145.85 
   68509    326.23577    107.35654   -27294.192    -28122.86    -27262.65    470729.49 
Loop time of 56.5512 on 1 procs for 495 steps with 19652 atoms

Performance: 0.756 ns/day, 31.735 hours/ns, 8.753 timesteps/s
98.5% CPU use with 1 MPI tasks x no OpenMP threads

MPI task timing breakdown:
Section |  min time  |  avg time  |  max time  |%varavg| %total
---------------------------------------------------------------
Pair    | 29.824     | 29.824     | 29.824     |   0.0 | 52.74
Neigh   | 25.341     | 25.341     | 25.341     |   0.0 | 44.81
Comm    | 0.48087    | 0.48087    | 0.48087    |   0.0 |  0.85
Output  | 0.056732   | 0.056732   | 0.056732   |   0.0 |  0.10
Modify  | 0.6619     | 0.6619     | 0.6619     |   0.0 |  1.17
Other   |            | 0.1866     |            |       |  0.33

Nlocal:    19652 ave 19652 max 19652 min
Histogram: 1 0 0 0 0 0 0 0 0 0
Nghost:    15885 ave 15885 max 15885 min
Histogram: 1 0 0 0 0 0 0 0 0 0
Neighs:    1.06865e+06 ave 1.06865e+06 max 1.06865e+06 min
Histogram: 1 0 0 0 0 0 0 0 0 0

Total # of neighbors = 1068652
Ave neighs/atom = 54.3788
Neighbor list builds = 495
Dangerous builds not checked
Setting up Verlet run ...
  Unit style    : metal
  Current step  : 68509
  Time step     : 0.001
Per MPI rank memory allocation (min/avg/max) = 18.21 | 18.21 | 18.21 Mbytes
Step Temp Press TotEng PotEng Enthalpy Volume 
   68509    326.23577    107.35654   -27294.192    -28122.86    -27262.65    470729.49 
   68681    316.61161   -103.11428   -27353.648    -28157.87   -27383.938    470640.62 
Loop time of 16.7744 on 1 procs for 172 steps with 19652 atoms

Performance: 0.886 ns/day, 27.090 hours/ns, 10.254 timesteps/s
100.0% CPU use with 1 MPI tasks x no OpenMP threads

MPI task timing breakdown:
Section |  min time  |  avg time  |  max time  |%varavg| %total
---------------------------------------------------------------
Pair    | 8.7087     | 8.7087     | 8.7087     |   0.0 | 51.92
Neigh   | 7.6743     | 7.6743     | 7.6743     |   0.0 | 45.75
Comm    | 0.14378    | 0.14378    | 0.14378    |   0.0 |  0.86
Output  | 0.00015807 | 0.00015807 | 0.00015807 |   0.0 |  0.00
Modify  | 0.19065    | 0.19065    | 0.19065    |   0.0 |  1.14
Other   |            | 0.05672    |            |       |  0.34

Nlocal:    19652 ave 19652 max 19652 min
Histogram: 1 0 0 0 0 0 0 0 0 0
Nghost:    15902 ave 15902 max 15902 min
Histogram: 1 0 0 0 0 0 0 0 0 0
Neighs:    1.06933e+06 ave 1.06933e+06 max 1.06933e+06 min
Histogram: 1 0 0 0 0 0 0 0 0 0

Total # of neighbors = 1069333
Ave neighs/atom = 54.4134
Neighbor list builds = 172
Dangerous builds not checked
Setting up Verlet run ...
  Unit style    : metal
  Current step  : 68681
  Time step     : 0.001
Per MPI rank memory allocation (min/avg/max) = 18.21 | 18.21 | 18.21 Mbytes
Step Temp Press TotEng PotEng Enthalpy Volume 
   68681    316.61161   -103.11428   -27353.648    -28157.87   -27383.938    470640.62 
   68701    315.69457   -144.52632    -27355.49   -28157.383   -27397.943    470621.17 
   69176    277.78698    134.49759   -27580.749   -28286.353   -27541.439    468269.41 
Loop time of 53.1076 on 1 procs for 495 steps with 19652 atoms

Performance: 0.805 ns/day, 29.802 hours/ns, 9.321 timesteps/s
100.0% CPU use with 1 MPI tasks x no OpenMP threads

MPI task timing breakdown:
Section |  min time  |  avg time  |  max time  |%varavg| %total
---------------------------------------------------------------
Pair    | 27.76      | 27.76      | 27.76      |   0.0 | 52.27
Neigh   | 24.011     | 24.011     | 24.011     |   0.0 | 45.21
Comm    | 0.45634    | 0.45634    | 0.45634    |   0.0 |  0.86
Output  | 0.084133   | 0.084133   | 0.084133   |   0.0 |  0.16
Modify  | 0.61511    | 0.61511    | 0.61511    |   0.0 |  1.16
Other   |            | 0.181      |            |       |  0.34

Nlocal:    19652 ave 19652 max 19652 min
Histogram: 1 0 0 0 0 0 0 0 0 0
Nghost:    15975 ave 15975 max 15975 min
Histogram: 1 0 0 0 0 0 0 0 0 0
Neighs:    1.07546e+06 ave 1.07546e+06 max 1.07546e+06 min
Histogram: 1 0 0 0 0 0 0 0 0 0

Total # of neighbors = 1075464
Ave neighs/atom = 54.7254
Neighbor list builds = 495
Dangerous builds not checked
Setting up Verlet run ...
  Unit style    : metal
  Current step  : 69176
  Time step     : 0.001
Per MPI rank memory allocation (min/avg/max) = 18.21 | 18.21 | 18.21 Mbytes
Step Temp Press TotEng PotEng Enthalpy Volume 
   69176    277.78698    134.49759   -27580.749   -28286.353   -27541.439    468269.41 
   69348    265.32982    60.160198   -27638.844   -28312.806   -27621.271    468001.51 
Loop time of 19.536 on 1 procs for 172 steps with 19652 atoms

Performance: 0.761 ns/day, 31.550 hours/ns, 8.804 timesteps/s
100.0% CPU use with 1 MPI tasks x no OpenMP threads

MPI task timing breakdown:
Section |  min time  |  avg time  |  max time  |%varavg| %total
---------------------------------------------------------------
Pair    | 10.319     | 10.319     | 10.319     |   0.0 | 52.82
Neigh   | 8.7484     | 8.7484     | 8.7484     |   0.0 | 44.78
Comm    | 0.17462    | 0.17462    | 0.17462    |   0.0 |  0.89
Output  | 0.00016093 | 0.00016093 | 0.00016093 |   0.0 |  0.00
Modify  | 0.22694    | 0.22694    | 0.22694    |   0.0 |  1.16
Other   |            | 0.06691    |            |       |  0.34

Nlocal:    19652 ave 19652 max 19652 min
Histogram: 1 0 0 0 0 0 0 0 0 0
Nghost:    15909 ave 15909 max 15909 min
Histogram: 1 0 0 0 0 0 0 0 0 0
Neighs:    1.07667e+06 ave 1.07667e+06 max 1.07667e+06 min
Histogram: 1 0 0 0 0 0 0 0 0 0

Total # of neighbors = 1076670
Ave neighs/atom = 54.7868
Neighbor list builds = 172
Dangerous builds not checked
Setting up Verlet run ...
  Unit style    : metal
  Current step  : 69348
  Time step     : 0.001
Per MPI rank memory allocation (min/avg/max) = 18.21 | 18.21 | 18.21 Mbytes
Step Temp Press TotEng PotEng Enthalpy Volume 
   69348    265.32982    60.160198   -27638.844   -28312.806   -27621.271    468001.51 
   69368    267.41382    3.7906613   -27640.671   -28319.927   -27639.564    468010.48 
   69843     230.2257    30.959103   -27857.854   -28442.648   -27848.847    466128.92 
Loop time of 53.0857 on 1 procs for 495 steps with 19652 atoms

Performance: 0.806 ns/day, 29.790 hours/ns, 9.325 timesteps/s
99.9% CPU use with 1 MPI tasks x no OpenMP threads

MPI task timing breakdown:
Section |  min time  |  avg time  |  max time  |%varavg| %total
---------------------------------------------------------------
Pair    | 27.962     | 27.962     | 27.962     |   0.0 | 52.67
Neigh   | 23.835     | 23.835     | 23.835     |   0.0 | 44.90
Comm    | 0.45335    | 0.45335    | 0.45335    |   0.0 |  0.85
Output  | 0.065154   | 0.065154   | 0.065154   |   0.0 |  0.12
Modify  | 0.5969     | 0.5969     | 0.5969     |   0.0 |  1.12
Other   |            | 0.1734     |            |       |  0.33

Nlocal:    19652 ave 19652 max 19652 min
Histogram: 1 0 0 0 0 0 0 0 0 0
Nghost:    15947 ave 15947 max 15947 min
Histogram: 1 0 0 0 0 0 0 0 0 0
Neighs:    1.0821e+06 ave 1.0821e+06 max 1.0821e+06 min
Histogram: 1 0 0 0 0 0 0 0 0 0

Total # of neighbors = 1082095
Ave neighs/atom = 55.0628
Neighbor list builds = 495
Dangerous builds not checked
Setting up Verlet run ...
  Unit style    : metal
  Current step  : 69843
  Time step     : 0.001
Per MPI rank memory allocation (min/avg/max) = 18.21 | 18.21 | 18.21 Mbytes
Step Temp Press TotEng PotEng Enthalpy Volume 
   69843     230.2257    30.959103   -27857.854   -28442.648   -27848.847    466128.92 
   70015    221.37636   -68.670064   -27915.229   -28477.545   -27935.194    465801.06 
Loop time of 17.3212 on 1 procs for 172 steps with 19652 atoms

Performance: 0.858 ns/day, 27.973 hours/ns, 9.930 timesteps/s
100.0% CPU use with 1 MPI tasks x no OpenMP threads

MPI task timing breakdown:
Section |  min time  |  avg time  |  max time  |%varavg| %total
---------------------------------------------------------------
Pair    | 9.0516     | 9.0516     | 9.0516     |   0.0 | 52.26
Neigh   | 7.8649     | 7.8649     | 7.8649     |   0.0 | 45.41
Comm    | 0.14452    | 0.14452    | 0.14452    |   0.0 |  0.83
Output  | 0.0001421  | 0.0001421  | 0.0001421  |   0.0 |  0.00
Modify  | 0.19997    | 0.19997    | 0.19997    |   0.0 |  1.15
Other   |            | 0.06006    |            |       |  0.35

Nlocal:    19652 ave 19652 max 19652 min
Histogram: 1 0 0 0 0 0 0 0 0 0
Nghost:    15907 ave 15907 max 15907 min
Histogram: 1 0 0 0 0 0 0 0 0 0
Neighs:    1.08309e+06 ave 1.08309e+06 max 1.08309e+06 min
Histogram: 1 0 0 0 0 0 0 0 0 0

Total # of neighbors = 1083088
Ave neighs/atom = 55.1134
Neighbor list builds = 172
Dangerous builds not checked
Setting up Verlet run ...
  Unit style    : metal
  Current step  : 70015
  Time step     : 0.001
Per MPI rank memory allocation (min/avg/max) = 18.21 | 18.21 | 18.21 Mbytes
Step Temp Press TotEng PotEng Enthalpy Volume 
   70015    221.37636   -68.670064   -27915.229   -28477.545   -27935.194    465801.06 
   70035    220.93026   -89.549209   -27917.702   -28478.885   -27943.735    465781.44 
   70510    181.38972    130.80703   -28127.891   -28588.638   -28090.017    463903.25 
Loop time of 51.2221 on 1 procs for 495 steps with 19652 atoms

Performance: 0.835 ns/day, 28.744 hours/ns, 9.664 timesteps/s
99.1% CPU use with 1 MPI tasks x no OpenMP threads

MPI task timing breakdown:
Section |  min time  |  avg time  |  max time  |%varavg| %total
---------------------------------------------------------------
Pair    | 26.828     | 26.828     | 26.828     |   0.0 | 52.38
Neigh   | 23.157     | 23.157     | 23.157     |   0.0 | 45.21
Comm    | 0.43284    | 0.43284    | 0.43284    |   0.0 |  0.85
Output  | 0.061954   | 0.061954   | 0.061954   |   0.0 |  0.12
Modify  | 0.57338    | 0.57338    | 0.57338    |   0.0 |  1.12
Other   |            | 0.1695     |            |       |  0.33

Nlocal:    19652 ave 19652 max 19652 min
Histogram: 1 0 0 0 0 0 0 0 0 0
Nghost:    15957 ave 15957 max 15957 min
Histogram: 1 0 0 0 0 0 0 0 0 0
Neighs:    1.08874e+06 ave 1.08874e+06 max 1.08874e+06 min
Histogram: 1 0 0 0 0 0 0 0 0 0

Total # of neighbors = 1088741
Ave neighs/atom = 55.401
Neighbor list builds = 495
Dangerous builds not checked
Setting up Verlet run ...
  Unit style    : metal
  Current step  : 70510
  Time step     : 0.001
Per MPI rank memory allocation (min/avg/max) = 18.21 | 18.21 | 18.21 Mbytes
Step Temp Press TotEng PotEng Enthalpy Volume 
   70510    181.38972    130.80703   -28127.891   -28588.638   -28090.017    463903.25 
   70682    171.95053    151.50282   -28183.736   -28620.506   -28139.921    463354.42 
Loop time of 17.3712 on 1 procs for 172 steps with 19652 atoms

Performance: 0.855 ns/day, 28.054 hours/ns, 9.901 timesteps/s
99.8% CPU use with 1 MPI tasks x no OpenMP threads

MPI task timing breakdown:
Section |  min time  |  avg time  |  max time  |%varavg| %total
---------------------------------------------------------------
Pair    | 9.1029     | 9.1029     | 9.1029     |   0.0 | 52.40
Neigh   | 7.8719     | 7.8719     | 7.8719     |   0.0 | 45.32
Comm    | 0.14755    | 0.14755    | 0.14755    |   0.0 |  0.85
Output  | 0.00011086 | 0.00011086 | 0.00011086 |   0.0 |  0.00
Modify  | 0.19332    | 0.19332    | 0.19332    |   0.0 |  1.11
Other   |            | 0.05534    |            |       |  0.32

Nlocal:    19652 ave 19652 max 19652 min
Histogram: 1 0 0 0 0 0 0 0 0 0
Nghost:    15959 ave 15959 max 15959 min
Histogram: 1 0 0 0 0 0 0 0 0 0
Neighs:    1.08991e+06 ave 1.08991e+06 max 1.08991e+06 min
Histogram: 1 0 0 0 0 0 0 0 0 0

Total # of neighbors = 1089910
Ave neighs/atom = 55.4605
Neighbor list builds = 172
Dangerous builds not checked
Setting up Verlet run ...
  Unit style    : metal
  Current step  : 70682
  Time step     : 0.001
Per MPI rank memory allocation (min/avg/max) = 18.21 | 18.21 | 18.21 Mbytes
Step Temp Press TotEng PotEng Enthalpy Volume 
   70682    171.95053    151.50282   -28183.736   -28620.506   -28139.921    463354.42 
   70702     170.7046    133.31275   -28186.278   -28619.883    -28147.72    463401.31 
   71177    132.66543   -75.913427   -28390.069   -28727.052   -28411.969    462196.46 
Loop time of 46.5965 on 1 procs for 495 steps with 19652 atoms

Performance: 0.918 ns/day, 26.148 hours/ns, 10.623 timesteps/s
99.8% CPU use with 1 MPI tasks x no OpenMP threads

MPI task timing breakdown:
Section |  min time  |  avg time  |  max time  |%varavg| %total
---------------------------------------------------------------
Pair    | 24.042     | 24.042     | 24.042     |   0.0 | 51.60
Neigh   | 21.471     | 21.471     | 21.471     |   0.0 | 46.08
Comm    | 0.36774    | 0.36774    | 0.36774    |   0.0 |  0.79
Output  | 0.060117   | 0.060117   | 0.060117   |   0.0 |  0.13
Modify  | 0.51848    | 0.51848    | 0.51848    |   0.0 |  1.11
Other   |            | 0.1377     |            |       |  0.30

Nlocal:    19652 ave 19652 max 19652 min
Histogram: 1 0 0 0 0 0 0 0 0 0
Nghost:    15977 ave 15977 max 15977 min
Histogram: 1 0 0 0 0 0 0 0 0 0
Neighs:    1.09351e+06 ave 1.09351e+06 max 1.09351e+06 min
Histogram: 1 0 0 0 0 0 0 0 0 0

Total # of neighbors = 1093508
Ave neighs/atom = 55.6436
Neighbor list builds = 495
Dangerous builds not checked
Setting up Verlet run ...
  Unit style    : metal
  Current step  : 71177
  Time step     : 0.001
Per MPI rank memory allocation (min/avg/max) = 18.21 | 18.21 | 18.21 Mbytes
Step Temp Press TotEng PotEng Enthalpy Volume 
   71177    132.66543   -75.913427   -28390.069   -28727.052   -28411.969    462196.46 
   71349    123.13997    -87.99813   -28444.742   -28757.528    -28470.11       461879 
Loop time of 15.2539 on 1 procs for 172 steps with 19652 atoms

Performance: 0.974 ns/day, 24.635 hours/ns, 11.276 timesteps/s
99.5% CPU use with 1 MPI tasks x no OpenMP threads

MPI task timing breakdown:
Section |  min time  |  avg time  |  max time  |%varavg| %total
---------------------------------------------------------------
Pair    | 7.838      | 7.838      | 7.838      |   0.0 | 51.38
Neigh   | 7.087      | 7.087      | 7.087      |   0.0 | 46.46
Comm    | 0.11792    | 0.11792    | 0.11792    |   0.0 |  0.77
Output  | 0.00013804 | 0.00013804 | 0.00013804 |   0.0 |  0.00
Modify  | 0.1666     | 0.1666     | 0.1666     |   0.0 |  1.09
Other   |            | 0.04415    |            |       |  0.29

Nlocal:    19652 ave 19652 max 19652 min
Histogram: 1 0 0 0 0 0 0 0 0 0
Nghost:    15984 ave 15984 max 15984 min
Histogram: 1 0 0 0 0 0 0 0 0 0
Neighs:    1.09476e+06 ave 1.09476e+06 max 1.09476e+06 min
Histogram: 1 0 0 0 0 0 0 0 0 0

Total # of neighbors = 1094756
Ave neighs/atom = 55.7071
Neighbor list builds = 172
Dangerous builds not checked
Total wall time: 1:50:20
