LAMMPS (12 Dec 2018)
Lattice spacing in x,y,z = 4 4 4
Created orthogonal box = (0 0 0) to (68 68 68)
  1 by 1 by 2 MPI processor grid
Created 19652 atoms
  Time spent = 0.00169015 secs
Setting atom values ...
  0 settings made for type/fraction
Neighbor list info ...
  update every 1 steps, delay 0 steps, check no
  max neighbors/atom: 2000, page size: 100000
  master list distance cutoff = 8.5
  ghost atom cutoff = 8.5
  binsize = 4.25, bins = 16 16 16
  1 neighbor lists, perpetual/occasional/extra = 1 0 0
  (1) pair eam/alloy, perpetual
      attributes: half, newton on
      pair build: half/bin/atomonly/newton
      stencil: half/bin/3d/newton
      bin: standard
Setting up Verlet run ...
  Unit style    : metal
  Current step  : 0
  Time step     : 0.001
Per MPI rank memory allocation (min/avg/max) = 11.15 | 11.15 | 11.15 Mbytes
Step Temp Press TotEng PotEng Enthalpy 
       0          300    270988.05   -20809.105   -21571.132    32373.122 
    1000     146.1001    268921.29   -20808.869   -21179.977    31967.751 
Loop time of 191.629 on 2 procs for 1000 steps with 19652 atoms

Performance: 0.451 ns/day, 53.230 hours/ns, 5.218 timesteps/s
71.7% CPU use with 2 MPI tasks x no OpenMP threads

MPI task timing breakdown:
Section |  min time  |  avg time  |  max time  |%varavg| %total
---------------------------------------------------------------
Pair    | 90.665     | 90.799     | 90.933     |   1.4 | 47.38
Neigh   | 43.108     | 45.337     | 47.565     |  33.1 | 23.66
Comm    | 52.709     | 54.854     | 56.999     |  29.0 | 28.63
Output  | 0.00017214 | 0.00018597 | 0.00019979 |   0.0 |  0.00
Modify  | 0.29417    | 0.32133    | 0.34848    |   4.8 |  0.17
Other   |            | 0.3173     |            |       |  0.17

Nlocal:    9826 ave 9883 max 9769 min
Histogram: 1 0 0 0 0 0 0 0 0 1
Nghost:    14211 ave 14268 max 14154 min
Histogram: 1 0 0 0 0 0 0 0 0 1
Neighs:    786593 ave 791438 max 781748 min
Histogram: 1 0 0 0 0 0 0 0 0 1

Total # of neighbors = 1573186
Ave neighs/atom = 80.0522
Neighbor list builds = 1000
Dangerous builds not checked
Setting up Verlet run ...
  Unit style    : metal
  Current step  : 1000
  Time step     : 0.001
Per MPI rank memory allocation (min/avg/max) = 11.15 | 11.15 | 11.15 Mbytes
Step Temp Press TotEng PotEng Enthalpy 
    1000     146.1001    268921.29   -20808.869   -21179.977    31967.751 
    2000    256.69368    317.60893   -28438.602   -29090.627   -28348.303 
Loop time of 132.776 on 2 procs for 1000 steps with 19652 atoms

Performance: 0.651 ns/day, 36.882 hours/ns, 7.532 timesteps/s
75.4% CPU use with 2 MPI tasks x no OpenMP threads

MPI task timing breakdown:
Section |  min time  |  avg time  |  max time  |%varavg| %total
---------------------------------------------------------------
Pair    | 72.623     | 72.914     | 73.205     |   3.4 | 54.92
Neigh   | 45.213     | 46.397     | 47.581     |  17.4 | 34.94
Comm    | 10.343     | 11.256     | 12.169     |  27.2 |  8.48
Output  | 0.00010896 | 0.00014448 | 0.00018001 |   0.0 |  0.00
Modify  | 1.8592     | 1.8604     | 1.8617     |   0.1 |  1.40
Other   |            | 0.3484     |            |       |  0.26

Nlocal:    9826 ave 9853 max 9799 min
Histogram: 1 0 0 0 0 0 0 0 0 1
Nghost:    10346 ave 10373 max 10319 min
Histogram: 1 0 0 0 0 0 0 0 0 1
Neighs:    557433 ave 559395 max 555471 min
Histogram: 1 0 0 0 0 0 0 0 0 1

Total # of neighbors = 1114866
Ave neighs/atom = 56.7304
Neighbor list builds = 1000
Dangerous builds not checked
Setting up Verlet run ...
  Unit style    : metal
  Current step  : 2000
  Time step     : 0.001
Per MPI rank memory allocation (min/avg/max) = 11.15 | 11.15 | 11.15 Mbytes
Step Temp Press TotEng PotEng Enthalpy 
    2000    256.69368    317.60893   -28438.602   -29090.627   -28348.303 
   10000    2449.8693    50.134065   -13461.544   -19684.435   -13440.381 
Loop time of 821.352 on 2 procs for 8000 steps with 19652 atoms

Performance: 0.842 ns/day, 28.519 hours/ns, 9.740 timesteps/s
78.9% CPU use with 2 MPI tasks x no OpenMP threads

MPI task timing breakdown:
Section |  min time  |  avg time  |  max time  |%varavg| %total
---------------------------------------------------------------
Pair    | 421.87     | 422.34     | 422.81     |   2.3 | 51.42
Neigh   | 245.19     | 254.62     | 264.05     |  59.1 | 31.00
Comm    | 113.03     | 123.08     | 133.12     |  90.5 | 14.98
Output  | 0.00011516 | 0.0001421  | 0.00016904 |   0.0 |  0.00
Modify  | 19.215     | 19.241     | 19.267     |   0.6 |  2.34
Other   |            | 2.072      |            |       |  0.25

Nlocal:    9826 ave 9837 max 9815 min
Histogram: 1 0 0 0 0 0 0 0 0 1
Nghost:    9625 ave 9630 max 9620 min
Histogram: 1 0 0 0 0 0 0 0 0 1
Neighs:    362846 ave 363775 max 361917 min
Histogram: 1 0 0 0 0 0 0 0 0 1

Total # of neighbors = 725692
Ave neighs/atom = 36.9271
Neighbor list builds = 8000
Dangerous builds not checked
Setting up Verlet run ...
  Unit style    : metal
  Current step  : 10000
  Time step     : 0.001
Per MPI rank memory allocation (min/avg/max) = 11.17 | 11.17 | 11.17 Mbytes
Step Temp Press TotEng PotEng Enthalpy 
   10000    2449.8693    50.134065   -13461.544   -19684.435   -13440.381 
   40000    2428.8785    394.70259   -13413.882   -19583.455   -13246.119 
Loop time of 2776.92 on 2 procs for 30000 steps with 19652 atoms

Performance: 0.933 ns/day, 25.712 hours/ns, 10.803 timesteps/s
78.7% CPU use with 2 MPI tasks x no OpenMP threads

MPI task timing breakdown:
Section |  min time  |  avg time  |  max time  |%varavg| %total
---------------------------------------------------------------
Pair    | 1419.1     | 1420.1     | 1421.1     |   2.7 | 51.14
Neigh   | 917        | 940.39     | 963.77     |  76.3 | 33.86
Comm    | 341.17     | 356.32     | 371.47     |  80.3 | 12.83
Output  | 9.4891e-05 | 0.00010896 | 0.00012302 |   0.0 |  0.00
Modify  | 44.681     | 52.144     | 59.606     | 103.3 |  1.88
Other   |            | 7.943      |            |       |  0.29

Nlocal:    9826 ave 9861 max 9791 min
Histogram: 1 0 0 0 0 0 0 0 0 1
Nghost:    9515 ave 9571 max 9459 min
Histogram: 1 0 0 0 0 0 0 0 0 1
Neighs:    360614 ave 363156 max 358073 min
Histogram: 1 0 0 0 0 0 0 0 0 1

Total # of neighbors = 721229
Ave neighs/atom = 36.7
Neighbor list builds = 30000
Dangerous builds not checked
Setting up Verlet run ...
  Unit style    : metal
  Current step  : 40000
  Time step     : 0.001
Per MPI rank memory allocation (min/avg/max) = 11.17 | 11.17 | 11.17 Mbytes
Step Temp Press TotEng PotEng Enthalpy 
   40000    2428.8785    394.70259   -13413.882   -19583.455   -13246.119 
   40495    2415.3368   -161.26872   -13512.918   -19648.093   -13581.459 
Loop time of 19.1676 on 2 procs for 495 steps with 19652 atoms

Performance: 2.231 ns/day, 10.756 hours/ns, 25.825 timesteps/s
99.4% CPU use with 2 MPI tasks x no OpenMP threads

MPI task timing breakdown:
Section |  min time  |  avg time  |  max time  |%varavg| %total
---------------------------------------------------------------
Pair    | 9.1112     | 9.1129     | 9.1146     |   0.1 | 47.54
Neigh   | 9.0986     | 9.158      | 9.2174     |   2.0 | 47.78
Comm    | 0.49736    | 0.55655    | 0.61573    |   7.9 |  2.90
Output  | 7.7963e-05 | 0.00010455 | 0.00013113 |   0.0 |  0.00
Modify  | 0.26884    | 0.26963    | 0.27042    |   0.2 |  1.41
Other   |            | 0.07039    |            |       |  0.37

Nlocal:    9826 ave 9854 max 9798 min
Histogram: 1 0 0 0 0 0 0 0 0 1
Nghost:    9481.5 ave 9489 max 9474 min
Histogram: 1 0 0 0 0 0 0 0 0 1
Neighs:    360748 ave 362981 max 358515 min
Histogram: 1 0 0 0 0 0 0 0 0 1

Total # of neighbors = 721496
Ave neighs/atom = 36.7136
Neighbor list builds = 495
Dangerous builds not checked
Setting up Verlet run ...
  Unit style    : metal
  Current step  : 40495
  Time step     : 0.001
Per MPI rank memory allocation (min/avg/max) = 11.17 | 11.17 | 11.17 Mbytes
Step Temp Press TotEng PotEng Enthalpy 
   40495    2415.3368   -161.26872   -13512.918   -19648.093   -13581.459 
   50000    2404.0568   -315.52535   -13582.443   -19688.966   -13716.162 
   90000    2395.9556   -152.80413   -13704.882   -19790.827   -13769.103 
Loop time of 3642.75 on 2 procs for 49505 steps with 19652 atoms

Performance: 1.174 ns/day, 20.440 hours/ns, 13.590 timesteps/s
90.1% CPU use with 2 MPI tasks x no OpenMP threads

MPI task timing breakdown:
Section |  min time  |  avg time  |  max time  |%varavg| %total
---------------------------------------------------------------
Pair    | 1893.6     | 1895.8     | 1898       |   5.1 | 52.04
Neigh   | 1345.6     | 1371.3     | 1397.1     |  69.6 | 37.65
Comm    | 276.89     | 307.04     | 337.18     | 172.0 |  8.43
Output  | 0.099568   | 0.099634   | 0.099699   |   0.0 |  0.00
Modify  | 54.722     | 56.292     | 57.861     |  20.9 |  1.55
Other   |            | 12.19      |            |       |  0.33

Nlocal:    9826 ave 9834 max 9818 min
Histogram: 1 0 0 0 0 0 0 0 0 1
Nghost:    9610.5 ave 9613 max 9608 min
Histogram: 1 0 0 0 0 0 0 0 0 1
Neighs:    364586 ave 365312 max 363861 min
Histogram: 1 0 0 0 0 0 0 0 0 1

Total # of neighbors = 729173
Ave neighs/atom = 37.1043
Neighbor list builds = 49505
Dangerous builds not checked
Setting up Verlet run ...
  Unit style    : metal
  Current step  : 90000
  Time step     : 0.001
Per MPI rank memory allocation (min/avg/max) = 11.31 | 11.31 | 11.31 Mbytes
Step Temp Press TotEng PotEng Enthalpy 
   90000    2395.9556   -152.80413   -13704.882   -19790.827   -13769.103 
   90495     2366.831   -226.18118   -13859.885   -19871.852   -13954.752 
Loop time of 57.5582 on 2 procs for 495 steps with 19652 atoms

Performance: 0.743 ns/day, 32.300 hours/ns, 8.600 timesteps/s
66.9% CPU use with 2 MPI tasks x no OpenMP threads

MPI task timing breakdown:
Section |  min time  |  avg time  |  max time  |%varavg| %total
---------------------------------------------------------------
Pair    | 29.724     | 29.749     | 29.774     |   0.5 | 51.69
Neigh   | 19.068     | 19.688     | 20.308     |  14.0 | 34.21
Comm    | 6.0804     | 6.7429     | 7.4054     |  25.5 | 11.71
Output  | 8.893e-05  | 0.00011492 | 0.00014091 |   0.0 |  0.00
Modify  | 1.1331     | 1.1835     | 1.2338     |   4.6 |  2.06
Other   |            | 0.1942     |            |       |  0.34

Nlocal:    9826 ave 9851 max 9801 min
Histogram: 1 0 0 0 0 0 0 0 0 1
Nghost:    9577.5 ave 9594 max 9561 min
Histogram: 1 0 0 0 0 0 0 0 0 1
Neighs:    365601 ave 367933 max 363269 min
Histogram: 1 0 0 0 0 0 0 0 0 1

Total # of neighbors = 731202
Ave neighs/atom = 37.2075
Neighbor list builds = 495
Dangerous builds not checked
Setting up Verlet run ...
  Unit style    : metal
  Current step  : 90495
  Time step     : 0.001
Per MPI rank memory allocation (min/avg/max) = 11.31 | 11.31 | 11.31 Mbytes
Step Temp Press TotEng PotEng Enthalpy 
   90495     2366.831   -226.18118   -13859.885   -19871.852   -13954.752 
  100000    2358.5808    255.60682   -14120.003   -20111.013   -14014.797 
  140000    2352.1058    84.080208    -14099.59   -20074.153   -14064.932 
Loop time of 4528.4 on 2 procs for 49505 steps with 19652 atoms

Performance: 0.945 ns/day, 25.409 hours/ns, 10.932 timesteps/s
80.7% CPU use with 2 MPI tasks x no OpenMP threads

MPI task timing breakdown:
Section |  min time  |  avg time  |  max time  |%varavg| %total
---------------------------------------------------------------
Pair    | 2368.3     | 2405.5     | 2442.8     |  76.0 | 53.12
Neigh   | 1569.8     | 1580.6     | 1591.3     |  27.0 | 34.90
Comm    | 393.49     | 442.68     | 491.86     | 233.8 |  9.78
Output  | 0.095692   | 0.095742   | 0.095792   |   0.0 |  0.00
Modify  | 84.955     | 84.998     | 85.04      |   0.5 |  1.88
Other   |            | 14.49      |            |       |  0.32

Nlocal:    9826 ave 9901 max 9751 min
Histogram: 1 0 0 0 0 0 0 0 0 1
Nghost:    9704.5 ave 9707 max 9702 min
Histogram: 1 0 0 0 0 0 0 0 0 1
Neighs:    371998 ave 377186 max 366811 min
Histogram: 1 0 0 0 0 0 0 0 0 1

Total # of neighbors = 743997
Ave neighs/atom = 37.8586
Neighbor list builds = 49505
Dangerous builds not checked
Setting up Verlet run ...
  Unit style    : metal
  Current step  : 140000
  Time step     : 0.001
Per MPI rank memory allocation (min/avg/max) = 11.35 | 11.35 | 11.35 Mbytes
Step Temp Press TotEng PotEng Enthalpy 
  140000    2352.1058    84.080208    -14099.59   -20074.153   -14064.932 
  140495    2304.8466   -107.75176   -14265.594   -20120.114   -14309.981 
Loop time of 19.4209 on 2 procs for 495 steps with 19652 atoms

Performance: 2.202 ns/day, 10.898 hours/ns, 25.488 timesteps/s
99.9% CPU use with 2 MPI tasks x no OpenMP threads

MPI task timing breakdown:
Section |  min time  |  avg time  |  max time  |%varavg| %total
---------------------------------------------------------------
Pair    | 9.318      | 9.3278     | 9.3376     |   0.3 | 48.03
Neigh   | 9.0455     | 9.1452     | 9.245      |   3.3 | 47.09
Comm    | 0.47389    | 0.58345    | 0.693      |  14.3 |  3.00
Output  | 6.1989e-05 | 8.8453e-05 | 0.00011492 |   0.0 |  0.00
Modify  | 0.27618    | 0.27802    | 0.27986    |   0.3 |  1.43
Other   |            | 0.08632    |            |       |  0.44

Nlocal:    9826 ave 9855 max 9797 min
Histogram: 1 0 0 0 0 0 0 0 0 1
Nghost:    9697 ave 9722 max 9672 min
Histogram: 1 0 0 0 0 0 0 0 0 1
Neighs:    372066 ave 374042 max 370091 min
Histogram: 1 0 0 0 0 0 0 0 0 1

Total # of neighbors = 744133
Ave neighs/atom = 37.8655
Neighbor list builds = 495
Dangerous builds not checked
Setting up Verlet run ...
  Unit style    : metal
  Current step  : 140495
  Time step     : 0.001
Per MPI rank memory allocation (min/avg/max) = 11.35 | 11.35 | 11.35 Mbytes
Step Temp Press TotEng PotEng Enthalpy 
  140495    2304.8466   -107.75176   -14265.594   -20120.114   -14309.981 
  150000    2299.0644    135.68052    -14497.64   -20337.473   -14442.584 
  190000    2290.9349   -285.74172   -14385.374   -20204.557   -14502.509 
Loop time of 4225.06 on 2 procs for 49505 steps with 19652 atoms

Performance: 1.012 ns/day, 23.707 hours/ns, 11.717 timesteps/s
86.7% CPU use with 2 MPI tasks x no OpenMP threads

MPI task timing breakdown:
Section |  min time  |  avg time  |  max time  |%varavg| %total
---------------------------------------------------------------
Pair    | 2164.4     | 2197.7     | 2231       |  71.0 | 52.02
Neigh   | 1441.2     | 1444       | 1446.9     |   7.6 | 34.18
Comm    | 465.54     | 500.46     | 535.37     | 156.1 | 11.84
Output  | 0.052265   | 0.052297   | 0.052329   |   0.0 |  0.00
Modify  | 65.882     | 68.74      | 71.598     |  34.5 |  1.63
Other   |            | 14.05      |            |       |  0.33

Nlocal:    9826 ave 9856 max 9796 min
Histogram: 1 0 0 0 0 0 0 0 0 1
Nghost:    9697 ave 9731 max 9663 min
Histogram: 1 0 0 0 0 0 0 0 0 1
Neighs:    373748 ave 375308 max 372188 min
Histogram: 1 0 0 0 0 0 0 0 0 1

Total # of neighbors = 747496
Ave neighs/atom = 38.0366
Neighbor list builds = 49505
Dangerous builds not checked
Setting up Verlet run ...
  Unit style    : metal
  Current step  : 190000
  Time step     : 0.001
Per MPI rank memory allocation (min/avg/max) = 11.36 | 11.36 | 11.36 Mbytes
Step Temp Press TotEng PotEng Enthalpy 
  190000    2290.9349   -285.74172   -14385.374   -20204.557   -14502.509 
  190495     2251.562    371.33314   -14616.331   -20335.504    -14465.94 
Loop time of 21.0052 on 2 procs for 495 steps with 19652 atoms

Performance: 2.036 ns/day, 11.787 hours/ns, 23.566 timesteps/s
99.8% CPU use with 2 MPI tasks x no OpenMP threads

MPI task timing breakdown:
Section |  min time  |  avg time  |  max time  |%varavg| %total
---------------------------------------------------------------
Pair    | 10.109     | 10.313     | 10.517     |   6.3 | 49.10
Neigh   | 9.4304     | 9.4382     | 9.446      |   0.3 | 44.93
Comm    | 0.6101     | 0.84776    | 1.0854     |  25.8 |  4.04
Output  | 8.297e-05  | 0.00010598 | 0.00012898 |   0.0 |  0.00
Modify  | 0.30618    | 0.30653    | 0.30688    |   0.1 |  1.46
Other   |            | 0.09967    |            |       |  0.47

Nlocal:    9826 ave 9882 max 9770 min
Histogram: 1 0 0 0 0 0 0 0 0 1
Nghost:    9735.5 ave 9790 max 9681 min
Histogram: 1 0 0 0 0 0 0 0 0 1
Neighs:    378126 ave 380891 max 375361 min
Histogram: 1 0 0 0 0 0 0 0 0 1

Total # of neighbors = 756252
Ave neighs/atom = 38.4822
Neighbor list builds = 495
Dangerous builds not checked
Setting up Verlet run ...
  Unit style    : metal
  Current step  : 190495
  Time step     : 0.001
Per MPI rank memory allocation (min/avg/max) = 11.36 | 11.36 | 11.36 Mbytes
Step Temp Press TotEng PotEng Enthalpy 
  190495     2251.562    371.33314   -14616.331   -20335.504    -14465.94 
  200000    2233.5177    -148.2919   -14840.893   -20514.232   -14900.465 
  240000     2248.131    156.96952   -14734.444   -20444.901   -14671.275 
Loop time of 4528.19 on 2 procs for 49505 steps with 19652 atoms

Performance: 0.945 ns/day, 25.408 hours/ns, 10.933 timesteps/s
83.7% CPU use with 2 MPI tasks x no OpenMP threads

MPI task timing breakdown:
Section |  min time  |  avg time  |  max time  |%varavg| %total
---------------------------------------------------------------
Pair    | 2424.4     | 2453.7     | 2483       |  59.1 | 54.19
Neigh   | 1536.9     | 1555.6     | 1574.4     |  47.7 | 34.35
Comm    | 421.71     | 433.54     | 445.38     |  56.8 |  9.57
Output  | 0.057838   | 0.057902   | 0.057966   |   0.0 |  0.00
Modify  | 69.578     | 69.829     | 70.079     |   3.0 |  1.54
Other   |            | 15.42      |            |       |  0.34

Nlocal:    9826 ave 9879 max 9773 min
Histogram: 1 0 0 0 0 0 0 0 0 1
Nghost:    9758 ave 9760 max 9756 min
Histogram: 1 0 0 0 0 0 0 0 0 1
Neighs:    380567 ave 384322 max 376812 min
Histogram: 1 0 0 0 0 0 0 0 0 1

Total # of neighbors = 761134
Ave neighs/atom = 38.7306
Neighbor list builds = 49505
Dangerous builds not checked
Setting up Verlet run ...
  Unit style    : metal
  Current step  : 240000
  Time step     : 0.001
Per MPI rank memory allocation (min/avg/max) = 11.36 | 11.36 | 11.36 Mbytes
Step Temp Press TotEng PotEng Enthalpy 
  240000     2248.131    156.96952   -14734.444   -20444.901   -14671.275 
  240495    2202.4315   -268.06047   -14934.428   -20528.804   -15042.129 
Loop time of 29.5795 on 2 procs for 495 steps with 19652 atoms

Performance: 1.446 ns/day, 16.599 hours/ns, 16.735 timesteps/s
98.8% CPU use with 2 MPI tasks x no OpenMP threads

MPI task timing breakdown:
Section |  min time  |  avg time  |  max time  |%varavg| %total
---------------------------------------------------------------
Pair    | 15.267     | 15.301     | 15.335     |   0.9 | 51.73
Neigh   | 12.575     | 12.648     | 12.722     |   2.1 | 42.76
Comm    | 0.99063    | 1.0453     | 1.1        |   5.3 |  3.53
Output  | 0.00013399 | 0.00015807 | 0.00018215 |   0.0 |  0.00
Modify  | 0.44769    | 0.45469    | 0.46169    |   1.0 |  1.54
Other   |            | 0.1302     |            |       |  0.44

Nlocal:    9826 ave 9885 max 9767 min
Histogram: 1 0 0 0 0 0 0 0 0 1
Nghost:    9738 ave 9744 max 9732 min
Histogram: 1 0 0 0 0 0 0 0 0 1
Neighs:    381164 ave 385518 max 376810 min
Histogram: 1 0 0 0 0 0 0 0 0 1

Total # of neighbors = 762328
Ave neighs/atom = 38.7914
Neighbor list builds = 495
Dangerous builds not checked
Setting up Verlet run ...
  Unit style    : metal
  Current step  : 240495
  Time step     : 0.001
Per MPI rank memory allocation (min/avg/max) = 11.36 | 11.36 | 11.36 Mbytes
Step Temp Press TotEng PotEng Enthalpy 
  240495    2202.4315   -268.06047   -14934.428   -20528.804   -15042.129 
  250000    2186.8414   -291.00541    -15123.46   -20678.236    -15239.28 
  290000    2198.6449   -291.64228   -15044.519   -20629.277   -15161.098 
Loop time of 4290.93 on 2 procs for 49505 steps with 19652 atoms

Performance: 0.997 ns/day, 24.077 hours/ns, 11.537 timesteps/s
86.3% CPU use with 2 MPI tasks x no OpenMP threads

MPI task timing breakdown:
Section |  min time  |  avg time  |  max time  |%varavg| %total
---------------------------------------------------------------
Pair    | 2292.7     | 2318       | 2343.4     |  52.6 | 54.02
Neigh   | 1467       | 1502.6     | 1538.3     |  91.9 | 35.02
Comm    | 328.9      | 392.38     | 455.85     | 320.4 |  9.14
Output  | 0.055442   | 0.055508   | 0.055573   |   0.0 |  0.00
Modify  | 62.566     | 63.1       | 63.635     |   6.7 |  1.47
Other   |            | 14.73      |            |       |  0.34

Nlocal:    9826 ave 9844 max 9808 min
Histogram: 1 0 0 0 0 0 0 0 0 1
Nghost:    9800 ave 9814 max 9786 min
Histogram: 1 0 0 0 0 0 0 0 0 1
Neighs:    383226 ave 385371 max 381080 min
Histogram: 1 0 0 0 0 0 0 0 0 1

Total # of neighbors = 766451
Ave neighs/atom = 39.0012
Neighbor list builds = 49505
Dangerous builds not checked
Setting up Verlet run ...
  Unit style    : metal
  Current step  : 290000
  Time step     : 0.001
Per MPI rank memory allocation (min/avg/max) = 11.36 | 11.36 | 11.36 Mbytes
Step Temp Press TotEng PotEng Enthalpy 
  290000    2198.6449   -291.64228   -15044.519   -20629.277   -15161.098 
  290495    2152.5632     338.1864   -15317.457   -20785.163   -15183.995 
Loop time of 55.1093 on 2 procs for 495 steps with 19652 atoms

Performance: 0.776 ns/day, 30.926 hours/ns, 8.982 timesteps/s
75.4% CPU use with 2 MPI tasks x no OpenMP threads

MPI task timing breakdown:
Section |  min time  |  avg time  |  max time  |%varavg| %total
---------------------------------------------------------------
Pair    | 29.758     | 29.868     | 29.979     |   2.0 | 54.20
Neigh   | 18.553     | 18.763     | 18.973     |   4.8 | 34.05
Comm    | 5.2631     | 5.376      | 5.4889     |   4.9 |  9.76
Output  | 8.2016e-05 | 0.00012398 | 0.00016594 |   0.0 |  0.00
Modify  | 0.87956    | 0.90356    | 0.92755    |   2.5 |  1.64
Other   |            | 0.1988     |            |       |  0.36

Nlocal:    9826 ave 9886 max 9766 min
Histogram: 1 0 0 0 0 0 0 0 0 1
Nghost:    9897.5 ave 9921 max 9874 min
Histogram: 1 0 0 0 0 0 0 0 0 1
Neighs:    388450 ave 392334 max 384567 min
Histogram: 1 0 0 0 0 0 0 0 0 1

Total # of neighbors = 776901
Ave neighs/atom = 39.5329
Neighbor list builds = 495
Dangerous builds not checked
Setting up Verlet run ...
  Unit style    : metal
  Current step  : 290495
  Time step     : 0.001
Per MPI rank memory allocation (min/avg/max) = 11.36 | 11.36 | 11.36 Mbytes
Step Temp Press TotEng PotEng Enthalpy 
  290495    2152.5632     338.1864   -15317.457   -20785.163   -15183.995 
  300000    2169.8645   -42.203653   -15340.519   -20852.173   -15357.139 
  340000     2159.915    25.274538   -15404.034   -20890.415   -15394.119 
Loop time of 4321 on 2 procs for 49505 steps with 19652 atoms

Performance: 0.990 ns/day, 24.246 hours/ns, 11.457 timesteps/s
85.7% CPU use with 2 MPI tasks x no OpenMP threads

MPI task timing breakdown:
Section |  min time  |  avg time  |  max time  |%varavg| %total
---------------------------------------------------------------
Pair    | 2293       | 2320.8     | 2348.6     |  57.7 | 53.71
Neigh   | 1430.2     | 1478.9     | 1527.5     | 126.4 | 34.23
Comm    | 363.32     | 442.65     | 521.98     | 377.1 | 10.24
Output  | 0.12031    | 0.12036    | 0.1204     |   0.0 |  0.00
Modify  | 63.5       | 64.139     | 64.778     |   8.0 |  1.48
Other   |            | 14.42      |            |       |  0.33

Nlocal:    9826 ave 9900 max 9752 min
Histogram: 1 0 0 0 0 0 0 0 0 1
Nghost:    9866.5 ave 9936 max 9797 min
Histogram: 1 0 0 0 0 0 0 0 0 1
Neighs:    390326 ave 395774 max 384878 min
Histogram: 1 0 0 0 0 0 0 0 0 1

Total # of neighbors = 780652
Ave neighs/atom = 39.7238
Neighbor list builds = 49505
Dangerous builds not checked
Setting up Verlet run ...
  Unit style    : metal
  Current step  : 340000
  Time step     : 0.001
Per MPI rank memory allocation (min/avg/max) = 11.37 | 11.37 | 11.37 Mbytes
Step Temp Press TotEng PotEng Enthalpy 
  340000     2159.915    25.274538   -15404.034   -20890.415   -15394.119 
  340495    2110.4614    277.78804    -15628.34   -20989.104   -15519.722 
Loop time of 32.9497 on 2 procs for 495 steps with 19652 atoms

Performance: 1.298 ns/day, 18.490 hours/ns, 15.023 timesteps/s
99.3% CPU use with 2 MPI tasks x no OpenMP threads

MPI task timing breakdown:
Section |  min time  |  avg time  |  max time  |%varavg| %total
---------------------------------------------------------------
Pair    | 16.728     | 17.265     | 17.802     |  12.9 | 52.40
Neigh   | 10.497     | 12.112     | 13.726     |  46.4 | 36.76
Comm    | 0.78153    | 3.0036     | 5.2256     | 128.2 |  9.12
Output  | 7.9155e-05 | 0.00011706 | 0.00015497 |   0.0 |  0.00
Modify  | 0.41054    | 0.44659    | 0.48263    |   5.4 |  1.36
Other   |            | 0.1224     |            |       |  0.37

Nlocal:    9826 ave 9866 max 9786 min
Histogram: 1 0 0 0 0 0 0 0 0 1
Nghost:    9901 ave 9914 max 9888 min
Histogram: 1 0 0 0 0 0 0 0 0 1
Neighs:    391693 ave 394869 max 388517 min
Histogram: 1 0 0 0 0 0 0 0 0 1

Total # of neighbors = 783386
Ave neighs/atom = 39.8629
Neighbor list builds = 495
Dangerous builds not checked
Setting up Verlet run ...
  Unit style    : metal
  Current step  : 340495
  Time step     : 0.001
Per MPI rank memory allocation (min/avg/max) = 11.37 | 11.37 | 11.37 Mbytes
Step Temp Press TotEng PotEng Enthalpy 
  340495    2110.4614    277.78804    -15628.34   -20989.104   -15519.722 
  350000    2100.1721   -46.272249   -15814.347   -21148.975   -15832.265 
  390000    2095.8095   -314.56429     -15742.2   -21065.748   -15864.719 
Loop time of 4229.45 on 2 procs for 49505 steps with 19652 atoms

Performance: 1.011 ns/day, 23.732 hours/ns, 11.705 timesteps/s
88.6% CPU use with 2 MPI tasks x no OpenMP threads

MPI task timing breakdown:
Section |  min time  |  avg time  |  max time  |%varavg| %total
---------------------------------------------------------------
Pair    | 2293.2     | 2307.2     | 2321.2     |  29.1 | 54.55
Neigh   | 1436.7     | 1475.3     | 1513.8     | 100.4 | 34.88
Comm    | 309.95     | 365.27     | 420.59     | 289.4 |  8.64
Output  | 0.057276   | 0.057333   | 0.057391   |   0.0 |  0.00
Modify  | 66.689     | 67.541     | 68.394     |  10.4 |  1.60
Other   |            | 14.14      |            |       |  0.33

Nlocal:    9826 ave 9839 max 9813 min
Histogram: 1 0 0 0 0 0 0 0 0 1
Nghost:    9918.5 ave 9952 max 9885 min
Histogram: 1 0 0 0 0 0 0 0 0 1
Neighs:    393111 ave 393195 max 393027 min
Histogram: 1 0 0 0 0 0 0 0 0 1

Total # of neighbors = 786222
Ave neighs/atom = 40.0072
Neighbor list builds = 49505
Dangerous builds not checked
Setting up Verlet run ...
  Unit style    : metal
  Current step  : 390000
  Time step     : 0.001
Per MPI rank memory allocation (min/avg/max) = 11.37 | 11.37 | 11.37 Mbytes
Step Temp Press TotEng PotEng Enthalpy 
  390000    2095.8095   -314.56429     -15742.2   -21065.748   -15864.719 
  390495    2055.4233   -232.29626   -15944.779   -21165.742   -16034.523 
Loop time of 32.4374 on 2 procs for 495 steps with 19652 atoms

Performance: 1.318 ns/day, 18.203 hours/ns, 15.260 timesteps/s
99.8% CPU use with 2 MPI tasks x no OpenMP threads

MPI task timing breakdown:
Section |  min time  |  avg time  |  max time  |%varavg| %total
---------------------------------------------------------------
Pair    | 16.947     | 17.233     | 17.519     |   6.9 | 53.13
Neigh   | 13.089     | 13.563     | 14.038     |  12.9 | 41.81
Comm    | 0.8844     | 1.0733     | 1.2622     |  18.2 |  3.31
Output  | 0.00010991 | 0.00014639 | 0.00018287 |   0.0 |  0.00
Modify  | 0.43357    | 0.44161    | 0.44965    |   1.2 |  1.36
Other   |            | 0.1265     |            |       |  0.39

Nlocal:    9826 ave 9829 max 9823 min
Histogram: 1 0 0 0 0 0 0 0 0 1
Nghost:    9972.5 ave 9996 max 9949 min
Histogram: 1 0 0 0 0 0 0 0 0 1
Neighs:    396394 ave 396582 max 396205 min
Histogram: 1 0 0 0 0 0 0 0 0 1

Total # of neighbors = 792787
Ave neighs/atom = 40.3413
Neighbor list builds = 495
Dangerous builds not checked
Setting up Verlet run ...
  Unit style    : metal
  Current step  : 390495
  Time step     : 0.001
Per MPI rank memory allocation (min/avg/max) = 11.37 | 11.37 | 11.37 Mbytes
Step Temp Press TotEng PotEng Enthalpy 
  390495    2055.4233   -232.29626   -15944.779   -21165.742   -16034.523 
  400000    2046.3642   -83.531428   -16097.098    -21295.05   -16129.173 
  440000    2041.3233    297.58052    -16122.07   -21307.217   -16008.064 
Loop time of 3882.7 on 2 procs for 49505 steps with 19652 atoms

Performance: 1.102 ns/day, 21.786 hours/ns, 12.750 timesteps/s
92.8% CPU use with 2 MPI tasks x no OpenMP threads

MPI task timing breakdown:
Section |  min time  |  avg time  |  max time  |%varavg| %total
---------------------------------------------------------------
Pair    | 2037.5     | 2063.7     | 2089.8     |  57.6 | 53.15
Neigh   | 1352.5     | 1374.9     | 1397.3     |  60.3 | 35.41
Comm    | 314.09     | 364.71     | 415.33     | 265.1 |  9.39
Output  | 0.058622   | 0.058704   | 0.058785   |   0.0 |  0.00
Modify  | 65.806     | 66.145     | 66.484     |   4.2 |  1.70
Other   |            | 13.2       |            |       |  0.34

Nlocal:    9826 ave 9855 max 9797 min
Histogram: 1 0 0 0 0 0 0 0 0 1
Nghost:    10040.5 ave 10060 max 10021 min
Histogram: 1 0 0 0 0 0 0 0 0 1
Neighs:    399712 ave 401210 max 398215 min
Histogram: 1 0 0 0 0 0 0 0 0 1

Total # of neighbors = 799425
Ave neighs/atom = 40.6791
Neighbor list builds = 49505
Dangerous builds not checked
Setting up Verlet run ...
  Unit style    : metal
  Current step  : 440000
  Time step     : 0.001
Per MPI rank memory allocation (min/avg/max) = 11.37 | 11.37 | 11.37 Mbytes
Step Temp Press TotEng PotEng Enthalpy 
  440000    2041.3233    297.58052    -16122.07   -21307.217   -16008.064 
  440495    2008.3859   -529.57503   -16265.958   -21367.442   -16469.129 
Loop time of 33.3438 on 2 procs for 495 steps with 19652 atoms

Performance: 1.283 ns/day, 18.711 hours/ns, 14.845 timesteps/s
99.3% CPU use with 2 MPI tasks x no OpenMP threads

MPI task timing breakdown:
Section |  min time  |  avg time  |  max time  |%varavg| %total
---------------------------------------------------------------
Pair    | 17.729     | 17.889     | 18.049     |   3.8 | 53.65
Neigh   | 12.455     | 12.736     | 13.017     |   7.9 | 38.20
Comm    | 1.6734     | 2.1204     | 2.5675     |  30.7 |  6.36
Output  | 8.4877e-05 | 0.0001359  | 0.00018692 |   0.0 |  0.00
Modify  | 0.44858    | 0.46323    | 0.47787    |   2.2 |  1.39
Other   |            | 0.1353     |            |       |  0.41

Nlocal:    9826 ave 9830 max 9822 min
Histogram: 1 0 0 0 0 0 0 0 0 1
Nghost:    10015.5 ave 10042 max 9989 min
Histogram: 1 0 0 0 0 0 0 0 0 1
Neighs:    399216 ave 399931 max 398500 min
Histogram: 1 0 0 0 0 0 0 0 0 1

Total # of neighbors = 798431
Ave neighs/atom = 40.6285
Neighbor list builds = 495
Dangerous builds not checked
Setting up Verlet run ...
  Unit style    : metal
  Current step  : 440495
  Time step     : 0.001
Per MPI rank memory allocation (min/avg/max) = 11.37 | 11.37 | 11.37 Mbytes
Step Temp Press TotEng PotEng Enthalpy 
  440495    2008.3859   -529.57503   -16265.958   -21367.442   -16469.129 
  450000    2008.2521   -123.54179   -16445.027   -21546.171   -16491.835 
  490000    1991.3522   -21.935797   -16416.992   -21475.208   -16425.336 
Loop time of 3393.77 on 2 procs for 49505 steps with 19652 atoms

Performance: 1.260 ns/day, 19.043 hours/ns, 14.587 timesteps/s
96.9% CPU use with 2 MPI tasks x no OpenMP threads

MPI task timing breakdown:
Section |  min time  |  avg time  |  max time  |%varavg| %total
---------------------------------------------------------------
Pair    | 1753.4     | 1765.7     | 1778.1     |  29.4 | 52.03
Neigh   | 1307.2     | 1311.5     | 1315.8     |  11.9 | 38.64
Comm    | 239.75     | 252.05     | 264.36     |  77.5 |  7.43
Output  | 0.083071   | 0.08314    | 0.08321    |   0.0 |  0.00
Modify  | 49.406     | 52.685     | 55.965     |  45.2 |  1.55
Other   |            | 11.72      |            |       |  0.35

Nlocal:    9826 ave 9842 max 9810 min
Histogram: 1 0 0 0 0 0 0 0 0 1
Nghost:    10017 ave 10064 max 9970 min
Histogram: 1 0 0 0 0 0 0 0 0 1
Neighs:    402483 ave 404692 max 400274 min
Histogram: 1 0 0 0 0 0 0 0 0 1

Total # of neighbors = 804966
Ave neighs/atom = 40.961
Neighbor list builds = 49505
Dangerous builds not checked
Setting up Verlet run ...
  Unit style    : metal
  Current step  : 490000
  Time step     : 0.001
Per MPI rank memory allocation (min/avg/max) = 11.37 | 11.37 | 11.37 Mbytes
Step Temp Press TotEng PotEng Enthalpy 
  490000    1991.3522   -21.935797   -16416.992   -21475.208   -16425.336 
  490495    1950.8293   -51.366084    -16580.67   -21535.954   -16600.116 
Loop time of 33.3619 on 2 procs for 495 steps with 19652 atoms

Performance: 1.282 ns/day, 18.722 hours/ns, 14.837 timesteps/s
99.4% CPU use with 2 MPI tasks x no OpenMP threads

MPI task timing breakdown:
Section |  min time  |  avg time  |  max time  |%varavg| %total
---------------------------------------------------------------
Pair    | 17.275     | 17.56      | 17.844     |   6.8 | 52.63
Neigh   | 11.368     | 12.763     | 14.159     |  39.0 | 38.26
Comm    | 0.77479    | 2.4922     | 4.2096     | 108.8 |  7.47
Output  | 9.2983e-05 | 0.000139   | 0.00018501 |   0.0 |  0.00
Modify  | 0.39167    | 0.42731    | 0.46295    |   5.5 |  1.28
Other   |            | 0.1189     |            |       |  0.36

Nlocal:    9826 ave 9863 max 9789 min
Histogram: 1 0 0 0 0 0 0 0 0 1
Nghost:    10006.5 ave 10032 max 9981 min
Histogram: 1 0 0 0 0 0 0 0 0 1
Neighs:    404552 ave 405321 max 403782 min
Histogram: 1 0 0 0 0 0 0 0 0 1

Total # of neighbors = 809103
Ave neighs/atom = 41.1715
Neighbor list builds = 495
Dangerous builds not checked
Setting up Verlet run ...
  Unit style    : metal
  Current step  : 490495
  Time step     : 0.001
Per MPI rank memory allocation (min/avg/max) = 11.37 | 11.37 | 11.37 Mbytes
Step Temp Press TotEng PotEng Enthalpy 
  490495    1950.8293   -51.366084    -16580.67   -21535.954   -16600.116 
  500000    1948.7496   -216.16732   -16734.296   -21684.297   -16815.633 
  540000      1941.74   -100.15456    -16707.58   -21639.776   -16745.324 
Loop time of 3371.55 on 2 procs for 49505 steps with 19652 atoms

Performance: 1.269 ns/day, 18.918 hours/ns, 14.683 timesteps/s
98.7% CPU use with 2 MPI tasks x no OpenMP threads

MPI task timing breakdown:
Section |  min time  |  avg time  |  max time  |%varavg| %total
---------------------------------------------------------------
Pair    | 1756.3     | 1777.5     | 1798.6     |  50.1 | 52.72
Neigh   | 1330       | 1343.8     | 1357.7     |  37.7 | 39.86
Comm    | 160.03     | 196.32     | 232.6      | 259.0 |  5.82
Output  | 0.14094    | 0.14099    | 0.14104    |   0.0 |  0.00
Modify  | 41.898     | 42.336     | 42.774     |   6.7 |  1.26
Other   |            | 11.45      |            |       |  0.34

Nlocal:    9826 ave 9839 max 9813 min
Histogram: 1 0 0 0 0 0 0 0 0 1
Nghost:    10052 ave 10086 max 10018 min
Histogram: 1 0 0 0 0 0 0 0 0 1
Neighs:    406420 ave 410373 max 402467 min
Histogram: 1 0 0 0 0 0 0 0 0 1

Total # of neighbors = 812840
Ave neighs/atom = 41.3617
Neighbor list builds = 49505
Dangerous builds not checked
Setting up Verlet run ...
  Unit style    : metal
  Current step  : 540000
  Time step     : 0.001
Per MPI rank memory allocation (min/avg/max) = 11.37 | 11.37 | 11.37 Mbytes
Step Temp Press TotEng PotEng Enthalpy 
  540000      1941.74   -100.15456    -16707.58   -21639.776   -16745.324 
  540495    1915.1038   -314.59253   -16910.628   -21775.166   -17028.434 
Loop time of 31.4997 on 2 procs for 495 steps with 19652 atoms

Performance: 1.358 ns/day, 17.677 hours/ns, 15.714 timesteps/s
99.5% CPU use with 2 MPI tasks x no OpenMP threads

MPI task timing breakdown:
Section |  min time  |  avg time  |  max time  |%varavg| %total
---------------------------------------------------------------
Pair    | 16.294     | 16.355     | 16.416     |   1.5 | 51.92
Neigh   | 12.496     | 12.958     | 13.419     |  12.8 | 41.14
Comm    | 1.1269     | 1.6492     | 2.1716     |  40.7 |  5.24
Output  | 8.9884e-05 | 0.00011694 | 0.000144   |   0.0 |  0.00
Modify  | 0.40987    | 0.41751    | 0.42516    |   1.2 |  1.33
Other   |            | 0.12       |            |       |  0.38

Nlocal:    9826 ave 9856 max 9796 min
Histogram: 1 0 0 0 0 0 0 0 0 1
Nghost:    10019 ave 10028 max 10010 min
Histogram: 1 0 0 0 0 0 0 0 0 1
Neighs:    409038 ave 413903 max 404174 min
Histogram: 1 0 0 0 0 0 0 0 0 1

Total # of neighbors = 818077
Ave neighs/atom = 41.6282
Neighbor list builds = 495
Dangerous builds not checked
Setting up Verlet run ...
  Unit style    : metal
  Current step  : 540495
  Time step     : 0.001
Per MPI rank memory allocation (min/avg/max) = 11.37 | 11.37 | 11.37 Mbytes
Step Temp Press TotEng PotEng Enthalpy 
  540495    1915.1038   -314.59253   -16910.628   -21775.166   -17028.434 
  550000    1882.3883    163.15251   -17042.696   -21824.134   -16981.888 
  590000    1912.3166    426.61396   -16989.638   -21847.096   -16830.822 
Loop time of 3411.42 on 2 procs for 49505 steps with 19652 atoms

Performance: 1.254 ns/day, 19.142 hours/ns, 14.512 timesteps/s
94.5% CPU use with 2 MPI tasks x no OpenMP threads

MPI task timing breakdown:
Section |  min time  |  avg time  |  max time  |%varavg| %total
---------------------------------------------------------------
Pair    | 1734.9     | 1751       | 1767.1     |  38.6 | 51.33
Neigh   | 1259.2     | 1274.2     | 1289.1     |  41.8 | 37.35
Comm    | 296.19     | 328.63     | 361.06     | 178.9 |  9.63
Output  | 1.5029     | 1.503      | 1.503      |   0.0 |  0.04
Modify  | 44.781     | 45.444     | 46.108     |   9.8 |  1.33
Other   |            | 10.68      |            |       |  0.31

Nlocal:    9826 ave 9859 max 9793 min
Histogram: 1 0 0 0 0 0 0 0 0 1
Nghost:    10083 ave 10101 max 10065 min
Histogram: 1 0 0 0 0 0 0 0 0 1
Neighs:    411516 ave 417430 max 405603 min
Histogram: 1 0 0 0 0 0 0 0 0 1

Total # of neighbors = 823033
Ave neighs/atom = 41.8804
Neighbor list builds = 49505
Dangerous builds not checked
Setting up Verlet run ...
  Unit style    : metal
  Current step  : 590000
  Time step     : 0.001
Per MPI rank memory allocation (min/avg/max) = 11.37 | 11.37 | 11.37 Mbytes
Step Temp Press TotEng PotEng Enthalpy 
  590000    1912.3166    426.61396   -16989.638   -21847.096   -16830.822 
  590495    1862.3153   -210.91171   -17198.314   -21928.765   -17276.604 
Loop time of 28.6985 on 2 procs for 495 steps with 19652 atoms

Performance: 1.490 ns/day, 16.105 hours/ns, 17.248 timesteps/s
97.9% CPU use with 2 MPI tasks x no OpenMP threads

MPI task timing breakdown:
Section |  min time  |  avg time  |  max time  |%varavg| %total
---------------------------------------------------------------
Pair    | 14.772     | 14.774     | 14.776     |   0.0 | 51.48
Neigh   | 11.532     | 11.603     | 11.673     |   2.1 | 40.43
Comm    | 1.7001     | 1.7781     | 1.8561     |   5.8 |  6.20
Output  | 8.2016e-05 | 0.00011051 | 0.000139   |   0.0 |  0.00
Modify  | 0.44248    | 0.44733    | 0.45218    |   0.7 |  1.56
Other   |            | 0.09645    |            |       |  0.34

Nlocal:    9826 ave 9832 max 9820 min
Histogram: 1 0 0 0 0 0 0 0 0 1
Nghost:    10129.5 ave 10136 max 10123 min
Histogram: 1 0 0 0 0 0 0 0 0 1
Neighs:    412716 ave 415440 max 409992 min
Histogram: 1 0 0 0 0 0 0 0 0 1

Total # of neighbors = 825432
Ave neighs/atom = 42.0024
Neighbor list builds = 495
Dangerous builds not checked
Setting up Verlet run ...
  Unit style    : metal
  Current step  : 590495
  Time step     : 0.001
Per MPI rank memory allocation (min/avg/max) = 11.37 | 11.37 | 11.37 Mbytes
Step Temp Press TotEng PotEng Enthalpy 
  590495    1862.3153   -210.91171   -17198.314   -21928.765   -17276.604 
  600000    1841.9995   -379.72516   -17376.342   -22055.189   -17516.712 
  640000    1845.8002    642.03869   -17390.294   -22078.795   -17154.578 
Loop time of 3201.99 on 2 procs for 49505 steps with 19652 atoms

Performance: 1.336 ns/day, 17.967 hours/ns, 15.461 timesteps/s
93.8% CPU use with 2 MPI tasks x no OpenMP threads

MPI task timing breakdown:
Section |  min time  |  avg time  |  max time  |%varavg| %total
---------------------------------------------------------------
Pair    | 1546.1     | 1557.1     | 1568       |  27.7 | 48.63
Neigh   | 1178.1     | 1190.1     | 1202       |  34.6 | 37.17
Comm    | 350.61     | 375.39     | 400.17     | 127.9 | 11.72
Output  | 2.2292     | 2.2292     | 2.2293     |   0.0 |  0.07
Modify  | 66.262     | 67.404     | 68.545     |  13.9 |  2.11
Other   |            | 9.828      |            |       |  0.31

Nlocal:    9826 ave 9856 max 9796 min
Histogram: 1 0 0 0 0 0 0 0 0 1
Nghost:    10160.5 ave 10186 max 10135 min
Histogram: 1 0 0 0 0 0 0 0 0 1
Neighs:    417208 ave 423347 max 411070 min
Histogram: 1 0 0 0 0 0 0 0 0 1

Total # of neighbors = 834417
Ave neighs/atom = 42.4596
Neighbor list builds = 49505
Dangerous builds not checked
Setting up Verlet run ...
  Unit style    : metal
  Current step  : 640000
  Time step     : 0.001
Per MPI rank memory allocation (min/avg/max) = 11.37 | 11.37 | 11.37 Mbytes
Step Temp Press TotEng PotEng Enthalpy 
  640000    1845.8002    642.03869   -17390.294   -22078.795   -17154.578 
  640495    1809.8845   -427.73206   -17479.244   -22076.516    -17636.87 
Loop time of 32.646 on 2 procs for 495 steps with 19652 atoms

Performance: 1.310 ns/day, 18.320 hours/ns, 15.163 timesteps/s
93.1% CPU use with 2 MPI tasks x no OpenMP threads

MPI task timing breakdown:
Section |  min time  |  avg time  |  max time  |%varavg| %total
---------------------------------------------------------------
Pair    | 14.413     | 14.571     | 14.728     |   4.1 | 44.63
Neigh   | 11.565     | 11.674     | 11.783     |   3.2 | 35.76
Comm    | 5.6765     | 5.9462     | 6.2159     |  11.1 | 18.21
Output  | 9.799e-05  | 0.00011289 | 0.00012779 |   0.0 |  0.00
Modify  | 0.35237    | 0.35646    | 0.36056    |   0.7 |  1.09
Other   |            | 0.09854    |            |       |  0.30

Nlocal:    9826 ave 9848 max 9804 min
Histogram: 1 0 0 0 0 0 0 0 0 1
Nghost:    10135 ave 10162 max 10108 min
Histogram: 1 0 0 0 0 0 0 0 0 1
Neighs:    415868 ave 418522 max 413214 min
Histogram: 1 0 0 0 0 0 0 0 0 1

Total # of neighbors = 831736
Ave neighs/atom = 42.3232
Neighbor list builds = 495
Dangerous builds not checked
Setting up Verlet run ...
  Unit style    : metal
  Current step  : 640495
  Time step     : 0.001
Per MPI rank memory allocation (min/avg/max) = 11.37 | 11.37 | 11.37 Mbytes
Step Temp Press TotEng PotEng Enthalpy 
  640495    1809.8845   -427.73206   -17479.244   -22076.516    -17636.87 
  650000    1798.5503   -146.30271    -17607.03   -22175.512   -17660.671 
  690000    1804.0914   -480.59407   -17585.602   -22168.159   -17762.075 
Loop time of 2949.91 on 2 procs for 49505 steps with 19652 atoms

Performance: 1.450 ns/day, 16.552 hours/ns, 16.782 timesteps/s
98.9% CPU use with 2 MPI tasks x no OpenMP threads

MPI task timing breakdown:
Section |  min time  |  avg time  |  max time  |%varavg| %total
---------------------------------------------------------------
Pair    | 1506.1     | 1516.1     | 1526.2     |  25.7 | 51.40
Neigh   | 1207.4     | 1210.4     | 1213.3     |   8.5 | 41.03
Comm    | 161.96     | 175.71     | 189.46     | 103.7 |  5.96
Output  | 0.12122    | 0.12127    | 0.12133    |   0.0 |  0.00
Modify  | 37.545     | 37.599     | 37.652     |   0.9 |  1.27
Other   |            | 9.974      |            |       |  0.34

Nlocal:    9826 ave 9848 max 9804 min
Histogram: 1 0 0 0 0 0 0 0 0 1
Nghost:    10212 ave 10219 max 10205 min
Histogram: 1 0 0 0 0 0 0 0 0 1
Neighs:    417030 ave 422214 max 411846 min
Histogram: 1 0 0 0 0 0 0 0 0 1

Total # of neighbors = 834060
Ave neighs/atom = 42.4415
Neighbor list builds = 49505
Dangerous builds not checked
Setting up Verlet run ...
  Unit style    : metal
  Current step  : 690000
  Time step     : 0.001
Per MPI rank memory allocation (min/avg/max) = 11.37 | 11.37 | 11.37 Mbytes
Step Temp Press TotEng PotEng Enthalpy 
  690000    1804.0914   -480.59407   -17585.602   -22168.159   -17762.075 
  690495    1763.9851    186.40561   -17856.631   -22337.314   -17788.945 
Loop time of 30.3543 on 2 procs for 495 steps with 19652 atoms

Performance: 1.409 ns/day, 17.034 hours/ns, 16.307 timesteps/s
98.4% CPU use with 2 MPI tasks x no OpenMP threads

MPI task timing breakdown:
Section |  min time  |  avg time  |  max time  |%varavg| %total
---------------------------------------------------------------
Pair    | 15.675     | 15.688     | 15.7       |   0.3 | 51.68
Neigh   | 12.073     | 12.487     | 12.902     |  11.7 | 41.14
Comm    | 1.2602     | 1.6821     | 2.104      |  32.5 |  5.54
Output  | 7.5102e-05 | 0.00011003 | 0.00014496 |   0.0 |  0.00
Modify  | 0.37695    | 0.3899     | 0.40284    |   2.1 |  1.28
Other   |            | 0.1074     |            |       |  0.35

Nlocal:    9826 ave 9835 max 9817 min
Histogram: 1 0 0 0 0 0 0 0 0 1
Nghost:    10301.5 ave 10331 max 10272 min
Histogram: 1 0 0 0 0 0 0 0 0 1
Neighs:    421992 ave 425281 max 418703 min
Histogram: 1 0 0 0 0 0 0 0 0 1

Total # of neighbors = 843984
Ave neighs/atom = 42.9465
Neighbor list builds = 495
Dangerous builds not checked
Setting up Verlet run ...
  Unit style    : metal
  Current step  : 690495
  Time step     : 0.001
Per MPI rank memory allocation (min/avg/max) = 11.37 | 11.37 | 11.37 Mbytes
Step Temp Press TotEng PotEng Enthalpy 
  690495    1763.9851    186.40561   -17856.631   -22337.314   -17788.945 
  700000    1757.5798     427.5804   -17969.364   -22433.777    -17814.89 
  740000    1743.7854    -481.3033   -18016.202   -22445.576   -18190.771 
Loop time of 2813.79 on 2 procs for 49505 steps with 19652 atoms

Performance: 1.520 ns/day, 15.788 hours/ns, 17.594 timesteps/s
99.2% CPU use with 2 MPI tasks x no OpenMP threads

MPI task timing breakdown:
Section |  min time  |  avg time  |  max time  |%varavg| %total
---------------------------------------------------------------
Pair    | 1444       | 1451.6     | 1459.3     |  20.1 | 51.59
Neigh   | 1162.8     | 1166       | 1169.3     |   9.6 | 41.44
Comm    | 138.74     | 149.94     | 161.13     |  91.4 |  5.33
Output  | 2.8291     | 2.8292     | 2.8292     |   0.0 |  0.10
Modify  | 33.891     | 33.932     | 33.973     |   0.7 |  1.21
Other   |            | 9.397      |            |       |  0.33

Nlocal:    9826 ave 9852 max 9800 min
Histogram: 1 0 0 0 0 0 0 0 0 1
Nghost:    10186 ave 10202 max 10170 min
Histogram: 1 0 0 0 0 0 0 0 0 1
Neighs:    422280 ave 424002 max 420558 min
Histogram: 1 0 0 0 0 0 0 0 0 1

Total # of neighbors = 844560
Ave neighs/atom = 42.9758
Neighbor list builds = 49505
Dangerous builds not checked
Setting up Verlet run ...
  Unit style    : metal
  Current step  : 740000
  Time step     : 0.001
Per MPI rank memory allocation (min/avg/max) = 11.37 | 11.37 | 11.37 Mbytes
Step Temp Press TotEng PotEng Enthalpy 
  740000    1743.7854    -481.3033   -18016.202   -22445.576   -18190.771 
  740495    1714.6923    86.952352   -18201.552   -22557.026   -18170.251 
Loop time of 20.066 on 2 procs for 495 steps with 19652 atoms

Performance: 2.131 ns/day, 11.260 hours/ns, 24.669 timesteps/s
100.0% CPU use with 2 MPI tasks x no OpenMP threads

MPI task timing breakdown:
Section |  min time  |  avg time  |  max time  |%varavg| %total
---------------------------------------------------------------
Pair    | 9.7173     | 9.7307     | 9.7441     |   0.4 | 48.49
Neigh   | 9.6433     | 9.67       | 9.6966     |   0.9 | 48.19
Comm    | 0.32168    | 0.338      | 0.35432    |   2.8 |  1.68
Output  | 6.3896e-05 | 9.3937e-05 | 0.00012398 |   0.0 |  0.00
Modify  | 0.25125    | 0.25206    | 0.25287    |   0.2 |  1.26
Other   |            | 0.07511    |            |       |  0.37

Nlocal:    9826 ave 9843 max 9809 min
Histogram: 1 0 0 0 0 0 0 0 0 1
Nghost:    10278.5 ave 10292 max 10265 min
Histogram: 1 0 0 0 0 0 0 0 0 1
Neighs:    425694 ave 429969 max 421418 min
Histogram: 1 0 0 0 0 0 0 0 0 1

Total # of neighbors = 851387
Ave neighs/atom = 43.3232
Neighbor list builds = 495
Dangerous builds not checked
Setting up Verlet run ...
  Unit style    : metal
  Current step  : 740495
  Time step     : 0.001
Per MPI rank memory allocation (min/avg/max) = 11.37 | 11.37 | 11.37 Mbytes
Step Temp Press TotEng PotEng Enthalpy 
  740495    1714.6923    86.952352   -18201.552   -22557.026   -18170.251 
  750000    1691.1833   -75.692267   -18310.261    -22606.02    -18337.43 
  790000    1698.5192     19.71276   -18295.231   -22609.625   -18288.164 
Loop time of 2239.36 on 2 procs for 49505 steps with 19652 atoms

Performance: 1.910 ns/day, 12.565 hours/ns, 22.107 timesteps/s
98.0% CPU use with 2 MPI tasks x no OpenMP threads

MPI task timing breakdown:
Section |  min time  |  avg time  |  max time  |%varavg| %total
---------------------------------------------------------------
Pair    | 1077.9     | 1082.6     | 1087.2     |  14.2 | 48.34
Neigh   | 996.93     | 999.86     | 1002.8     |   9.3 | 44.65
Comm    | 108.9      | 117.24     | 125.59     |  77.1 |  5.24
Output  | 0.13658    | 0.13661    | 0.13664    |   0.0 |  0.01
Modify  | 31.337     | 31.802     | 32.266     |   8.2 |  1.42
Other   |            | 7.753      |            |       |  0.35

Nlocal:    9826 ave 9845 max 9807 min
Histogram: 1 0 0 0 0 0 0 0 0 1
Nghost:    10241 ave 10272 max 10210 min
Histogram: 1 0 0 0 0 0 0 0 0 1
Neighs:    427310 ave 428193 max 426428 min
Histogram: 1 0 0 0 0 0 0 0 0 1

Total # of neighbors = 854621
Ave neighs/atom = 43.4877
Neighbor list builds = 49505
Dangerous builds not checked
Setting up Verlet run ...
  Unit style    : metal
  Current step  : 790000
  Time step     : 0.001
Per MPI rank memory allocation (min/avg/max) = 11.37 | 11.37 | 11.37 Mbytes
Step Temp Press TotEng PotEng Enthalpy 
  790000    1698.5192     19.71276   -18295.231   -22609.625   -18288.164 
  790495    1666.5015    253.44094   -18491.732   -22724.797   -18401.332 
Loop time of 20.0656 on 2 procs for 495 steps with 19652 atoms

Performance: 2.131 ns/day, 11.260 hours/ns, 24.669 timesteps/s
100.0% CPU use with 2 MPI tasks x no OpenMP threads

MPI task timing breakdown:
Section |  min time  |  avg time  |  max time  |%varavg| %total
---------------------------------------------------------------
Pair    | 9.6373     | 9.7161     | 9.795      |   2.5 | 48.42
Neigh   | 9.5316     | 9.5695     | 9.6074     |   1.2 | 47.69
Comm    | 0.41147    | 0.44836    | 0.48525    |   5.5 |  2.23
Output  | 5.3883e-05 | 8.9884e-05 | 0.00012589 |   0.0 |  0.00
Modify  | 0.25387    | 0.25503    | 0.2562     |   0.2 |  1.27
Other   |            | 0.07646    |            |       |  0.38

Nlocal:    9826 ave 9853 max 9799 min
Histogram: 1 0 0 0 0 0 0 0 0 1
Nghost:    10231.5 ave 10233 max 10230 min
Histogram: 1 0 0 0 0 0 0 0 0 1
Neighs:    429628 ave 430954 max 428303 min
Histogram: 1 0 0 0 0 0 0 0 0 1

Total # of neighbors = 859257
Ave neighs/atom = 43.7236
Neighbor list builds = 495
Dangerous builds not checked
Setting up Verlet run ...
  Unit style    : metal
  Current step  : 790495
  Time step     : 0.001
Per MPI rank memory allocation (min/avg/max) = 11.37 | 11.37 | 11.37 Mbytes
Step Temp Press TotEng PotEng Enthalpy 
  790495    1666.5015    253.44094   -18491.732   -22724.797   -18401.332 
  800000    1651.1452    389.15794   -18604.885   -22798.945   -18466.804 
  840000    1642.3085   -611.41783   -18514.787     -22686.4    -18733.95 
Loop time of 2075.73 on 2 procs for 49505 steps with 19652 atoms

Performance: 2.061 ns/day, 11.647 hours/ns, 23.849 timesteps/s
99.1% CPU use with 2 MPI tasks x no OpenMP threads

MPI task timing breakdown:
Section |  min time  |  avg time  |  max time  |%varavg| %total
---------------------------------------------------------------
Pair    | 996.06     | 1001.1     | 1006.2     |  16.0 | 48.23
Neigh   | 973.76     | 974.09     | 974.41     |   1.0 | 46.93
Comm    | 61.242     | 66.184     | 71.126     |  60.7 |  3.19
Output  | 0.20748    | 0.20752    | 0.20756    |   0.0 |  0.01
Modify  | 26.612     | 26.674     | 26.736     |   1.2 |  1.29
Other   |            | 7.467      |            |       |  0.36

Nlocal:    9826 ave 9840 max 9812 min
Histogram: 1 0 0 0 0 0 0 0 0 1
Nghost:    10331.5 ave 10350 max 10313 min
Histogram: 1 0 0 0 0 0 0 0 0 1
Neighs:    427692 ave 432593 max 422790 min
Histogram: 1 0 0 0 0 0 0 0 0 1

Total # of neighbors = 855383
Ave neighs/atom = 43.5265
Neighbor list builds = 49505
Dangerous builds not checked
Setting up Verlet run ...
  Unit style    : metal
  Current step  : 840000
  Time step     : 0.001
Per MPI rank memory allocation (min/avg/max) = 11.37 | 11.37 | 11.37 Mbytes
Step Temp Press TotEng PotEng Enthalpy 
  840000    1642.3085   -611.41783   -18514.787     -22686.4    -18733.95 
  840495    1618.9554    222.91462   -18775.066    -22887.36   -18696.204 
Loop time of 19.7917 on 2 procs for 495 steps with 19652 atoms

Performance: 2.161 ns/day, 11.106 hours/ns, 25.011 timesteps/s
100.0% CPU use with 2 MPI tasks x no OpenMP threads

MPI task timing breakdown:
Section |  min time  |  avg time  |  max time  |%varavg| %total
---------------------------------------------------------------
Pair    | 9.4581     | 9.5339     | 9.6097     |   2.5 | 48.17
Neigh   | 9.4923     | 9.5065     | 9.5207     |   0.5 | 48.03
Comm    | 0.3293     | 0.42169    | 0.51407    |  14.2 |  2.13
Output  | 5.6982e-05 | 8.4043e-05 | 0.0001111  |   0.0 |  0.00
Modify  | 0.25119    | 0.25125    | 0.25131    |   0.0 |  1.27
Other   |            | 0.07821    |            |       |  0.40

Nlocal:    9826 ave 9845 max 9807 min
Histogram: 1 0 0 0 0 0 0 0 0 1
Nghost:    10309 ave 10333 max 10285 min
Histogram: 1 0 0 0 0 0 0 0 0 1
Neighs:    433370 ave 435722 max 431018 min
Histogram: 1 0 0 0 0 0 0 0 0 1

Total # of neighbors = 866740
Ave neighs/atom = 44.1044
Neighbor list builds = 495
Dangerous builds not checked
Setting up Verlet run ...
  Unit style    : metal
  Current step  : 840495
  Time step     : 0.001
Per MPI rank memory allocation (min/avg/max) = 11.37 | 11.37 | 11.37 Mbytes
Step Temp Press TotEng PotEng Enthalpy 
  840495    1618.9554    222.91462   -18775.066    -22887.36   -18696.204 
  850000    1594.5191    37.218352   -18894.039   -22944.262   -18880.893 
  890000    1598.2802    547.14952    -18927.43   -22987.207   -18735.078 
Loop time of 2096.94 on 2 procs for 49505 steps with 19652 atoms

Performance: 2.040 ns/day, 11.766 hours/ns, 23.608 timesteps/s
99.6% CPU use with 2 MPI tasks x no OpenMP threads

MPI task timing breakdown:
Section |  min time  |  avg time  |  max time  |%varavg| %total
---------------------------------------------------------------
Pair    | 1016.9     | 1021.9     | 1026.9     |  15.5 | 48.73
Neigh   | 977.39     | 979.42     | 981.45     |   6.5 | 46.71
Comm    | 53.7       | 61.171     | 68.642     |  95.5 |  2.92
Output  | 0.04645    | 0.046488   | 0.046525   |   0.0 |  0.00
Modify  | 26.687     | 26.982     | 27.277     |   5.7 |  1.29
Other   |            | 7.408      |            |       |  0.35

Nlocal:    9826 ave 9840 max 9812 min
Histogram: 1 0 0 0 0 0 0 0 0 1
Nghost:    10341 ave 10364 max 10318 min
Histogram: 1 0 0 0 0 0 0 0 0 1
Neighs:    436163 ave 440632 max 431694 min
Histogram: 1 0 0 0 0 0 0 0 0 1

Total # of neighbors = 872326
Ave neighs/atom = 44.3887
Neighbor list builds = 49505
Dangerous builds not checked
Setting up Verlet run ...
  Unit style    : metal
  Current step  : 890000
  Time step     : 0.001
Per MPI rank memory allocation (min/avg/max) = 11.37 | 11.37 | 11.37 Mbytes
Step Temp Press TotEng PotEng Enthalpy 
  890000    1598.2802    547.14952    -18927.43   -22987.207   -18735.078 
  890495    1558.0609   -222.85451   -19069.029   -23026.645    -19147.52 
Loop time of 19.6718 on 2 procs for 495 steps with 19652 atoms

Performance: 2.174 ns/day, 11.039 hours/ns, 25.163 timesteps/s
100.0% CPU use with 2 MPI tasks x no OpenMP threads

MPI task timing breakdown:
Section |  min time  |  avg time  |  max time  |%varavg| %total
---------------------------------------------------------------
Pair    | 9.411      | 9.4789     | 9.5468     |   2.2 | 48.18
Neigh   | 9.3917     | 9.4419     | 9.4922     |   1.6 | 48.00
Comm    | 0.31582    | 0.43688    | 0.55794    |  18.3 |  2.22
Output  | 5.3883e-05 | 7.5936e-05 | 9.799e-05  |   0.0 |  0.00
Modify  | 0.24529    | 0.24606    | 0.24683    |   0.2 |  1.25
Other   |            | 0.06803    |            |       |  0.35

Nlocal:    9826 ave 9830 max 9822 min
Histogram: 1 0 0 0 0 0 0 0 0 1
Nghost:    10282 ave 10290 max 10274 min
Histogram: 1 0 0 0 0 0 0 0 0 1
Neighs:    435428 ave 439839 max 431017 min
Histogram: 1 0 0 0 0 0 0 0 0 1

Total # of neighbors = 870856
Ave neighs/atom = 44.3139
Neighbor list builds = 495
Dangerous builds not checked
Setting up Verlet run ...
  Unit style    : metal
  Current step  : 890495
  Time step     : 0.001
Per MPI rank memory allocation (min/avg/max) = 11.37 | 11.37 | 11.37 Mbytes
Step Temp Press TotEng PotEng Enthalpy 
  890495    1558.0609   -222.85451   -19069.029   -23026.645    -19147.52 
  900000    1560.3196   -513.19065   -19148.361   -23111.715   -19328.796 
  940000    1557.8409    424.68158   -19156.496   -23113.553   -19007.889 
Loop time of 2128.92 on 2 procs for 49505 steps with 19652 atoms

Performance: 2.009 ns/day, 11.946 hours/ns, 23.254 timesteps/s
99.4% CPU use with 2 MPI tasks x no OpenMP threads

MPI task timing breakdown:
Section |  min time  |  avg time  |  max time  |%varavg| %total
---------------------------------------------------------------
Pair    | 1036.5     | 1041.8     | 1047.1     |  16.5 | 48.94
Neigh   | 982.46     | 984.9      | 987.34     |   7.8 | 46.26
Comm    | 59.692     | 67.927     | 76.161     |  99.9 |  3.19
Output  | 0.045845   | 0.045897   | 0.04595    |   0.0 |  0.00
Modify  | 26.472     | 26.643     | 26.813     |   3.3 |  1.25
Other   |            | 7.593      |            |       |  0.36

Nlocal:    9826 ave 9833 max 9819 min
Histogram: 1 0 0 0 0 0 0 0 0 1
Nghost:    10325.5 ave 10342 max 10309 min
Histogram: 1 0 0 0 0 0 0 0 0 1
Neighs:    438034 ave 442409 max 433659 min
Histogram: 1 0 0 0 0 0 0 0 0 1

Total # of neighbors = 876068
Ave neighs/atom = 44.5791
Neighbor list builds = 49505
Dangerous builds not checked
Setting up Verlet run ...
  Unit style    : metal
  Current step  : 940000
  Time step     : 0.001
Per MPI rank memory allocation (min/avg/max) = 11.37 | 11.37 | 11.37 Mbytes
Step Temp Press TotEng PotEng Enthalpy 
  940000    1557.8409    424.68158   -19156.496   -23113.553   -19007.889 
  940495    1509.4331    116.13446   -19389.746   -23223.844   -19349.291 
Loop time of 19.8063 on 2 procs for 495 steps with 19652 atoms

Performance: 2.159 ns/day, 11.115 hours/ns, 24.992 timesteps/s
100.0% CPU use with 2 MPI tasks x no OpenMP threads

MPI task timing breakdown:
Section |  min time  |  avg time  |  max time  |%varavg| %total
---------------------------------------------------------------
Pair    | 9.5369     | 9.5964     | 9.656      |   1.9 | 48.45
Neigh   | 9.4599     | 9.4869     | 9.514      |   0.9 | 47.90
Comm    | 0.31723    | 0.40685    | 0.49648    |  14.1 |  2.05
Output  | 5.6028e-05 | 8.1062e-05 | 0.0001061  |   0.0 |  0.00
Modify  | 0.24627    | 0.24687    | 0.24747    |   0.1 |  1.25
Other   |            | 0.06912    |            |       |  0.35

Nlocal:    9826 ave 9826 max 9826 min
Histogram: 2 0 0 0 0 0 0 0 0 0
Nghost:    10383 ave 10403 max 10363 min
Histogram: 1 0 0 0 0 0 0 0 0 1
Neighs:    440349 ave 444324 max 436374 min
Histogram: 1 0 0 0 0 0 0 0 0 1

Total # of neighbors = 880698
Ave neighs/atom = 44.8147
Neighbor list builds = 495
Dangerous builds not checked
Setting up Verlet run ...
  Unit style    : metal
  Current step  : 940495
  Time step     : 0.001
Per MPI rank memory allocation (min/avg/max) = 11.37 | 11.37 | 11.37 Mbytes
Step Temp Press TotEng PotEng Enthalpy 
  940495    1509.4331    116.13446   -19389.746   -23223.844   -19349.291 
  950000    1493.1406   -713.45345   -19526.896    -23319.61   -19775.184 
  990000    1508.2108   -266.62137   -19443.817    -23274.81   -19536.692 
Loop time of 2085.1 on 2 procs for 49505 steps with 19652 atoms

Performance: 2.051 ns/day, 11.700 hours/ns, 23.742 timesteps/s
99.9% CPU use with 2 MPI tasks x no OpenMP threads

MPI task timing breakdown:
Section |  min time  |  avg time  |  max time  |%varavg| %total
---------------------------------------------------------------
Pair    | 1020       | 1024       | 1028       |  12.5 | 49.11
Neigh   | 973.92     | 977.69     | 981.47     |  12.1 | 46.89
Comm    | 42.796     | 50.783     | 58.771     | 112.1 |  2.44
Output  | 0.044647   | 0.044688   | 0.044729   |   0.0 |  0.00
Modify  | 25.25      | 25.29      | 25.33      |   0.8 |  1.21
Other   |            | 7.329      |            |       |  0.35

Nlocal:    9826 ave 9854 max 9798 min
Histogram: 1 0 0 0 0 0 0 0 0 1
Nghost:    10338.5 ave 10343 max 10334 min
Histogram: 1 0 0 0 0 0 0 0 0 1
Neighs:    440274 ave 442232 max 438317 min
Histogram: 1 0 0 0 0 0 0 0 0 1

Total # of neighbors = 880549
Ave neighs/atom = 44.8071
Neighbor list builds = 49505
Dangerous builds not checked
Setting up Verlet run ...
  Unit style    : metal
  Current step  : 990000
  Time step     : 0.001
Per MPI rank memory allocation (min/avg/max) = 11.37 | 11.37 | 11.37 Mbytes
Step Temp Press TotEng PotEng Enthalpy 
  990000    1508.2108   -266.62137   -19443.817    -23274.81   -19536.692 
  990495    1466.3459    463.94038   -19678.483   -23403.136   -19518.226 
Loop time of 20.2284 on 2 procs for 495 steps with 19652 atoms

Performance: 2.114 ns/day, 11.352 hours/ns, 24.471 timesteps/s
100.0% CPU use with 2 MPI tasks x no OpenMP threads

MPI task timing breakdown:
Section |  min time  |  avg time  |  max time  |%varavg| %total
---------------------------------------------------------------
Pair    | 9.816      | 9.8463     | 9.8767     |   1.0 | 48.68
Neigh   | 9.3936     | 9.5427     | 9.6918     |   4.8 | 47.17
Comm    | 0.33377    | 0.51188    | 0.69       |  24.9 |  2.53
Output  | 5.6982e-05 | 7.7486e-05 | 9.799e-05  |   0.0 |  0.00
Modify  | 0.24986    | 0.25094    | 0.25202    |   0.2 |  1.24
Other   |            | 0.07645    |            |       |  0.38

Nlocal:    9826 ave 9838 max 9814 min
Histogram: 1 0 0 0 0 0 0 0 0 1
Nghost:    10380 ave 10411 max 10349 min
Histogram: 1 0 0 0 0 0 0 0 0 1
Neighs:    444127 ave 446095 max 442159 min
Histogram: 1 0 0 0 0 0 0 0 0 1

Total # of neighbors = 888254
Ave neighs/atom = 45.1992
Neighbor list builds = 495
Dangerous builds not checked
Setting up Verlet run ...
  Unit style    : metal
  Current step  : 990495
  Time step     : 0.001
Per MPI rank memory allocation (min/avg/max) = 11.37 | 11.37 | 11.37 Mbytes
Step Temp Press TotEng PotEng Enthalpy 
  990495    1466.3459    463.94038   -19678.483   -23403.136   -19518.226 
 1000000    1444.0926    475.89165   -19846.976   -23515.103   -19683.531 
 1040000     1440.863    87.620776   -19802.362   -23462.285   -19772.156 
Loop time of 2817.99 on 2 procs for 49505 steps with 19652 atoms

Performance: 1.518 ns/day, 15.812 hours/ns, 17.567 timesteps/s
90.4% CPU use with 2 MPI tasks x no OpenMP threads

MPI task timing breakdown:
Section |  min time  |  avg time  |  max time  |%varavg| %total
---------------------------------------------------------------
Pair    | 1339       | 1339.1     | 1339.3     |   0.4 | 47.52
Neigh   | 1033       | 1041.2     | 1049.5     |  25.5 | 36.95
Comm    | 352.3      | 361.82     | 371.33     |  50.0 | 12.84
Output  | 0.045008   | 0.045035   | 0.045061   |   0.0 |  0.00
Modify  | 66.21      | 67.602     | 68.994     |  16.9 |  2.40
Other   |            | 8.169      |            |       |  0.29

Nlocal:    9826 ave 9830 max 9822 min
Histogram: 1 0 0 0 0 0 0 0 0 1
Nghost:    10409 ave 10435 max 10383 min
Histogram: 1 0 0 0 0 0 0 0 0 1
Neighs:    445012 ave 449343 max 440680 min
Histogram: 1 0 0 0 0 0 0 0 0 1

Total # of neighbors = 890023
Ave neighs/atom = 45.2892
Neighbor list builds = 49505
Dangerous builds not checked
Setting up Verlet run ...
  Unit style    : metal
  Current step  : 1040000
  Time step     : 0.001
Per MPI rank memory allocation (min/avg/max) = 11.37 | 11.37 | 11.37 Mbytes
Step Temp Press TotEng PotEng Enthalpy 
 1040000     1440.863    87.620776   -19802.362   -23462.285   -19772.156 
 1040495    1409.4914    80.465336   -19996.805   -23577.042   -19969.188 
Loop time of 25.6989 on 2 procs for 495 steps with 19652 atoms

Performance: 1.664 ns/day, 14.421 hours/ns, 19.262 timesteps/s
99.1% CPU use with 2 MPI tasks x no OpenMP threads

MPI task timing breakdown:
Section |  min time  |  avg time  |  max time  |%varavg| %total
---------------------------------------------------------------
Pair    | 12.991     | 13.037     | 13.082     |   1.3 | 50.73
Neigh   | 10.395     | 10.825     | 11.255     |  13.1 | 42.12
Comm    | 0.95605    | 1.4393     | 1.9225     |  40.3 |  5.60
Output  | 6.6042e-05 | 9.1076e-05 | 0.00011611 |   0.0 |  0.00
Modify  | 0.30025    | 0.30847    | 0.31669    |   1.5 |  1.20
Other   |            | 0.0894     |            |       |  0.35

Nlocal:    9826 ave 9848 max 9804 min
Histogram: 1 0 0 0 0 0 0 0 0 1
Nghost:    10492.5 ave 10522 max 10463 min
Histogram: 1 0 0 0 0 0 0 0 0 1
Neighs:    447024 ave 452502 max 441546 min
Histogram: 1 0 0 0 0 0 0 0 0 1

Total # of neighbors = 894048
Ave neighs/atom = 45.494
Neighbor list builds = 495
Dangerous builds not checked
Setting up Verlet run ...
  Unit style    : metal
  Current step  : 1040495
  Time step     : 0.001
Per MPI rank memory allocation (min/avg/max) = 11.37 | 11.37 | 11.37 Mbytes
Step Temp Press TotEng PotEng Enthalpy 
 1040495    1409.4914    80.465336   -19996.805   -23577.042   -19969.188 
 1050000    1396.5167   -321.47804   -20130.103   -23677.383   -20240.155 
 1090000    1393.1313    457.66312   -20108.917   -23647.598   -19952.495 
Loop time of 2217.77 on 2 procs for 49505 steps with 19652 atoms

Performance: 1.929 ns/day, 12.444 hours/ns, 22.322 timesteps/s
99.2% CPU use with 2 MPI tasks x no OpenMP threads

MPI task timing breakdown:
Section |  min time  |  avg time  |  max time  |%varavg| %total
---------------------------------------------------------------
Pair    | 1113       | 1116.1     | 1119.3     |   9.4 | 50.33
Neigh   | 988.94     | 996.85     | 1004.8     |  25.1 | 44.95
Comm    | 58.99      | 70.412     | 81.834     | 136.1 |  3.17
Output  | 0.055815   | 0.05586    | 0.055905   |   0.0 |  0.00
Modify  | 26.639     | 26.773     | 26.908     |   2.6 |  1.21
Other   |            | 7.539      |            |       |  0.34

Nlocal:    9826 ave 9857 max 9795 min
Histogram: 1 0 0 0 0 0 0 0 0 1
Nghost:    10429.5 ave 10461 max 10398 min
Histogram: 1 0 0 0 0 0 0 0 0 1
Neighs:    448967 ave 450551 max 447383 min
Histogram: 1 0 0 0 0 0 0 0 0 1

Total # of neighbors = 897934
Ave neighs/atom = 45.6917
Neighbor list builds = 49505
Dangerous builds not checked
Setting up Verlet run ...
  Unit style    : metal
  Current step  : 1090000
  Time step     : 0.001
Per MPI rank memory allocation (min/avg/max) = 11.37 | 11.37 | 11.37 Mbytes
Step Temp Press TotEng PotEng Enthalpy 
 1090000    1393.1313    457.66312   -20108.917   -23647.598   -19952.495 
 1090495    1367.5392     174.6108   -20294.126     -23767.8   -20234.705 
Loop time of 19.8803 on 2 procs for 495 steps with 19652 atoms

Performance: 2.151 ns/day, 11.156 hours/ns, 24.899 timesteps/s
100.0% CPU use with 2 MPI tasks x no OpenMP threads

MPI task timing breakdown:
Section |  min time  |  avg time  |  max time  |%varavg| %total
---------------------------------------------------------------
Pair    | 9.6309     | 9.7089     | 9.7869     |   2.5 | 48.84
Neigh   | 9.45       | 9.4551     | 9.4602     |   0.2 | 47.56
Comm    | 0.31741    | 0.39281    | 0.46822    |  12.0 |  1.98
Output  | 5.9843e-05 | 7.689e-05  | 9.3937e-05 |   0.0 |  0.00
Modify  | 0.24714    | 0.24742    | 0.24771    |   0.1 |  1.24
Other   |            | 0.07592    |            |       |  0.38

Nlocal:    9826 ave 9831 max 9821 min
Histogram: 1 0 0 0 0 0 0 0 0 1
Nghost:    10483.5 ave 10500 max 10467 min
Histogram: 1 0 0 0 0 0 0 0 0 1
Neighs:    451183 ave 454561 max 447805 min
Histogram: 1 0 0 0 0 0 0 0 0 1

Total # of neighbors = 902366
Ave neighs/atom = 45.9173
Neighbor list builds = 495
Dangerous builds not checked
Setting up Verlet run ...
  Unit style    : metal
  Current step  : 1090495
  Time step     : 0.001
Per MPI rank memory allocation (min/avg/max) = 11.37 | 11.37 | 11.37 Mbytes
Step Temp Press TotEng PotEng Enthalpy 
 1090495    1367.5392     174.6108   -20294.126     -23767.8   -20234.705 
 1100000    1344.9192    354.02855   -20438.366   -23854.584   -20318.469 
 1140000     1344.144   -110.01904   -20396.591    -23810.84   -20433.976 
Loop time of 2116.39 on 2 procs for 49505 steps with 19652 atoms

Performance: 2.021 ns/day, 11.875 hours/ns, 23.391 timesteps/s
99.4% CPU use with 2 MPI tasks x no OpenMP threads

MPI task timing breakdown:
Section |  min time  |  avg time  |  max time  |%varavg| %total
---------------------------------------------------------------
Pair    | 1040.6     | 1045.8     | 1050.9     |  15.9 | 49.41
Neigh   | 968.02     | 975.38     | 982.75     |  23.6 | 46.09
Comm    | 49.237     | 61.988     | 74.739     | 162.0 |  2.93
Output  | 0.060536   | 0.060577   | 0.060618   |   0.0 |  0.00
Modify  | 25.735     | 25.849     | 25.963     |   2.2 |  1.22
Other   |            | 7.348      |            |       |  0.35

Nlocal:    9826 ave 9841 max 9811 min
Histogram: 1 0 0 0 0 0 0 0 0 1
Nghost:    10472 ave 10495 max 10449 min
Histogram: 1 0 0 0 0 0 0 0 0 1
Neighs:    451520 ave 454620 max 448420 min
Histogram: 1 0 0 0 0 0 0 0 0 1

Total # of neighbors = 903040
Ave neighs/atom = 45.9516
Neighbor list builds = 49505
Dangerous builds not checked
Setting up Verlet run ...
  Unit style    : metal
  Current step  : 1140000
  Time step     : 0.001
Per MPI rank memory allocation (min/avg/max) = 11.37 | 11.37 | 11.37 Mbytes
Step Temp Press TotEng PotEng Enthalpy 
 1140000     1344.144   -110.01904   -20396.591    -23810.84   -20433.976 
 1140495    1312.4457     82.41281   -20605.162   -23938.894   -20577.313 
Loop time of 19.9616 on 2 procs for 495 steps with 19652 atoms

Performance: 2.143 ns/day, 11.202 hours/ns, 24.798 timesteps/s
100.0% CPU use with 2 MPI tasks x no OpenMP threads

MPI task timing breakdown:
Section |  min time  |  avg time  |  max time  |%varavg| %total
---------------------------------------------------------------
Pair    | 9.7767     | 9.8056     | 9.8345     |   0.9 | 49.12
Neigh   | 9.5        | 9.5106     | 9.5213     |   0.3 | 47.64
Comm    | 0.28517    | 0.32384    | 0.36252    |   6.8 |  1.62
Output  | 6.1035e-05 | 9.1076e-05 | 0.00012112 |   0.0 |  0.00
Modify  | 0.24691    | 0.24711    | 0.24731    |   0.0 |  1.24
Other   |            | 0.0743     |            |       |  0.37

Nlocal:    9826 ave 9844 max 9808 min
Histogram: 1 0 0 0 0 0 0 0 0 1
Nghost:    10510.5 ave 10553 max 10468 min
Histogram: 1 0 0 0 0 0 0 0 0 1
Neighs:    454467 ave 457422 max 451512 min
Histogram: 1 0 0 0 0 0 0 0 0 1

Total # of neighbors = 908934
Ave neighs/atom = 46.2515
Neighbor list builds = 495
Dangerous builds not checked
Setting up Verlet run ...
  Unit style    : metal
  Current step  : 1140495
  Time step     : 0.001
Per MPI rank memory allocation (min/avg/max) = 11.37 | 11.37 | 11.37 Mbytes
Step Temp Press TotEng PotEng Enthalpy 
 1140495    1312.4457     82.41281   -20605.162   -23938.894   -20577.313 
 1150000    1290.3969   -87.606447   -20741.462   -24019.187   -20770.977 
 1190000    1293.2107    173.15696    -20774.03   -24058.903   -20715.819 
Loop time of 2143.37 on 2 procs for 49505 steps with 19652 atoms

Performance: 1.996 ns/day, 12.027 hours/ns, 23.097 timesteps/s
99.1% CPU use with 2 MPI tasks x no OpenMP threads

MPI task timing breakdown:
Section |  min time  |  avg time  |  max time  |%varavg| %total
---------------------------------------------------------------
Pair    | 1063.9     | 1064.1     | 1064.4     |   0.8 | 49.65
Neigh   | 976.54     | 977.41     | 978.29     |   2.8 | 45.60
Comm    | 66.711     | 68.073     | 69.434     |  16.5 |  3.18
Output  | 0.15391    | 0.15396    | 0.15402    |   0.0 |  0.01
Modify  | 26.232     | 26.24      | 26.247     |   0.1 |  1.22
Other   |            | 7.347      |            |       |  0.34

Nlocal:    9826 ave 9840 max 9812 min
Histogram: 1 0 0 0 0 0 0 0 0 1
Nghost:    10573 ave 10588 max 10558 min
Histogram: 1 0 0 0 0 0 0 0 0 1
Neighs:    456699 ave 461126 max 452272 min
Histogram: 1 0 0 0 0 0 0 0 0 1

Total # of neighbors = 913398
Ave neighs/atom = 46.4786
Neighbor list builds = 49505
Dangerous builds not checked
Setting up Verlet run ...
  Unit style    : metal
  Current step  : 1190000
  Time step     : 0.001
Per MPI rank memory allocation (min/avg/max) = 11.37 | 11.37 | 11.37 Mbytes
Step Temp Press TotEng PotEng Enthalpy 
 1190000    1293.2107    173.15696    -20774.03   -24058.903   -20715.819 
 1190495    1267.4534   -35.649123   -20925.801   -24145.248   -20937.759 
Loop time of 22.1509 on 2 procs for 495 steps with 19652 atoms

Performance: 1.931 ns/day, 12.430 hours/ns, 22.347 timesteps/s
98.9% CPU use with 2 MPI tasks x no OpenMP threads

MPI task timing breakdown:
Section |  min time  |  avg time  |  max time  |%varavg| %total
---------------------------------------------------------------
Pair    | 11.05      | 11.05      | 11.05      |   0.0 | 49.89
Neigh   | 9.855      | 9.9667     | 10.078     |   3.5 | 44.99
Comm    | 0.6412     | 0.75411    | 0.86702    |  13.0 |  3.40
Output  | 7.1049e-05 | 9.954e-05  | 0.00012803 |   0.0 |  0.00
Modify  | 0.30092    | 0.30292    | 0.30493    |   0.4 |  1.37
Other   |            | 0.07692    |            |       |  0.35

Nlocal:    9826 ave 9828 max 9824 min
Histogram: 1 0 0 0 0 0 0 0 0 1
Nghost:    10539.5 ave 10572 max 10507 min
Histogram: 1 0 0 0 0 0 0 0 0 1
Neighs:    458004 ave 461209 max 454800 min
Histogram: 1 0 0 0 0 0 0 0 0 1

Total # of neighbors = 916009
Ave neighs/atom = 46.6115
Neighbor list builds = 495
Dangerous builds not checked
Setting up Verlet run ...
  Unit style    : metal
  Current step  : 1190495
  Time step     : 0.001
Per MPI rank memory allocation (min/avg/max) = 11.37 | 11.37 | 11.37 Mbytes
Step Temp Press TotEng PotEng Enthalpy 
 1190495    1267.4534   -35.649123   -20925.801   -24145.248   -20937.759 
 1200000    1249.1783   -384.92032   -21011.594   -24184.621   -21140.591 
 1240000    1244.5145   -280.58193   -21050.867   -24212.047   -21144.758 
Loop time of 2120.51 on 2 procs for 49505 steps with 19652 atoms

Performance: 2.017 ns/day, 11.898 hours/ns, 23.346 timesteps/s
99.9% CPU use with 2 MPI tasks x no OpenMP threads

MPI task timing breakdown:
Section |  min time  |  avg time  |  max time  |%varavg| %total
---------------------------------------------------------------
Pair    | 1052.7     | 1057.4     | 1062.1     |  14.5 | 49.87
Neigh   | 975.81     | 980.94     | 986.07     |  16.4 | 46.26
Comm    | 39.191     | 49.318     | 59.445     | 144.2 |  2.33
Output  | 0.096788   | 0.096826   | 0.096865   |   0.0 |  0.00
Modify  | 25.286     | 25.385     | 25.484     |   2.0 |  1.20
Other   |            | 7.351      |            |       |  0.35

Nlocal:    9826 ave 9849 max 9803 min
Histogram: 1 0 0 0 0 0 0 0 0 1
Nghost:    10547 ave 10563 max 10531 min
Histogram: 1 0 0 0 0 0 0 0 0 1
Neighs:    459136 ave 464287 max 453986 min
Histogram: 1 0 0 0 0 0 0 0 0 1

Total # of neighbors = 918273
Ave neighs/atom = 46.7267
Neighbor list builds = 49505
Dangerous builds not checked
Setting up Verlet run ...
  Unit style    : metal
  Current step  : 1240000
  Time step     : 0.001
Per MPI rank memory allocation (min/avg/max) = 11.37 | 11.37 | 11.37 Mbytes
Step Temp Press TotEng PotEng Enthalpy 
 1240000    1244.5145   -280.58193   -21050.867   -24212.047   -21144.758 
 1240495    1210.6281   -6.3750096   -21223.969   -24299.075   -21226.093 
Loop time of 20.7593 on 2 procs for 495 steps with 19652 atoms

Performance: 2.060 ns/day, 11.649 hours/ns, 23.845 timesteps/s
100.0% CPU use with 2 MPI tasks x no OpenMP threads

MPI task timing breakdown:
Section |  min time  |  avg time  |  max time  |%varavg| %total
---------------------------------------------------------------
Pair    | 10.309     | 10.319     | 10.329     |   0.3 | 49.71
Neigh   | 9.7079     | 9.729      | 9.75       |   0.7 | 46.87
Comm    | 0.36713    | 0.37613    | 0.38514    |   1.5 |  1.81
Output  | 5.5075e-05 | 8.0109e-05 | 0.00010514 |   0.0 |  0.00
Modify  | 0.25438    | 0.25497    | 0.25556    |   0.1 |  1.23
Other   |            | 0.08056    |            |       |  0.39

Nlocal:    9826 ave 9840 max 9812 min
Histogram: 1 0 0 0 0 0 0 0 0 1
Nghost:    10598.5 ave 10605 max 10592 min
Histogram: 1 0 0 0 0 0 0 0 0 1
Neighs:    461500 ave 463730 max 459271 min
Histogram: 1 0 0 0 0 0 0 0 0 1

Total # of neighbors = 923001
Ave neighs/atom = 46.9673
Neighbor list builds = 495
Dangerous builds not checked
Setting up Verlet run ...
  Unit style    : metal
  Current step  : 1240495
  Time step     : 0.001
Per MPI rank memory allocation (min/avg/max) = 11.37 | 11.37 | 11.37 Mbytes
Step Temp Press TotEng PotEng Enthalpy 
 1240495    1210.6281   -6.3750096   -21223.969   -24299.075   -21226.093 
 1250000    1198.0873    282.09759   -21363.551   -24406.802   -21270.068 
 1290000    1207.7679    0.8433559   -21283.555   -24351.395   -21283.274 
Loop time of 2217.12 on 2 procs for 49505 steps with 19652 atoms

Performance: 1.929 ns/day, 12.440 hours/ns, 22.329 timesteps/s
99.9% CPU use with 2 MPI tasks x no OpenMP threads

MPI task timing breakdown:
Section |  min time  |  avg time  |  max time  |%varavg| %total
---------------------------------------------------------------
Pair    | 1115.6     | 1119.4     | 1123.3     |  11.5 | 50.49
Neigh   | 991.47     | 998.81     | 1006.1     |  23.2 | 45.05
Comm    | 53.596     | 65.076     | 76.555     | 142.3 |  2.94
Output  | 0.044571   | 0.044597   | 0.044623   |   0.0 |  0.00
Modify  | 26.01      | 26.134     | 26.258     |   2.4 |  1.18
Other   |            | 7.62       |            |       |  0.34

Nlocal:    9826 ave 9851 max 9801 min
Histogram: 1 0 0 0 0 0 0 0 0 1
Nghost:    10531.5 ave 10542 max 10521 min
Histogram: 1 0 0 0 0 0 0 0 0 1
Neighs:    462404 ave 464200 max 460607 min
Histogram: 1 0 0 0 0 0 0 0 0 1

Total # of neighbors = 924807
Ave neighs/atom = 47.0592
Neighbor list builds = 49505
Dangerous builds not checked
Setting up Verlet run ...
  Unit style    : metal
  Current step  : 1290000
  Time step     : 0.001
Per MPI rank memory allocation (min/avg/max) = 11.37 | 11.37 | 11.37 Mbytes
Step Temp Press TotEng PotEng Enthalpy 
 1290000    1207.7679    0.8433559   -21283.555   -24351.395   -21283.274 
 1290495    1162.7734    452.15056   -21520.987   -24474.537   -21371.715 
Loop time of 20.813 on 2 procs for 495 steps with 19652 atoms

Performance: 2.055 ns/day, 11.680 hours/ns, 23.783 timesteps/s
100.0% CPU use with 2 MPI tasks x no OpenMP threads

MPI task timing breakdown:
Section |  min time  |  avg time  |  max time  |%varavg| %total
---------------------------------------------------------------
Pair    | 10.229     | 10.334     | 10.439     |   3.3 | 49.65
Neigh   | 9.6393     | 9.682      | 9.7246     |   1.4 | 46.52
Comm    | 0.31113    | 0.46873    | 0.62633    |  23.0 |  2.25
Output  | 5.7936e-05 | 7.5459e-05 | 9.2983e-05 |   0.0 |  0.00
Modify  | 0.24925    | 0.25168    | 0.25411    |   0.5 |  1.21
Other   |            | 0.07635    |            |       |  0.37

Nlocal:    9826 ave 9852 max 9800 min
Histogram: 1 0 0 0 0 0 0 0 0 1
Nghost:    10619.5 ave 10642 max 10597 min
Histogram: 1 0 0 0 0 0 0 0 0 1
Neighs:    465792 ave 467099 max 464484 min
Histogram: 1 0 0 0 0 0 0 0 0 1

Total # of neighbors = 931583
Ave neighs/atom = 47.404
[...]
Loop time of 29.3772 on 2 procs for 495 steps with 19652 atoms

Performance: 1.456 ns/day, 16.486 hours/ns, 16.850 timesteps/s
100.0% CPU use with 2 MPI tasks x no OpenMP threads

MPI task timing breakdown:
Section |  min time  |  avg time  |  max time  |%varavg| %total
---------------------------------------------------------------
Pair    | 15.233     | 15.315     | 15.397     |   2.1 | 52.13
Neigh   | 12.573     | 12.668     | 12.763     |   2.7 | 43.12
Comm    | 0.93124    | 0.94481    | 0.95838    |   1.4 |  3.22
Output  | 6.8903e-05 | 0.00010002 | 0.00013113 |   0.0 |  0.00
Modify  | 0.34785    | 0.35099    | 0.35412    |   0.5 |  1.19
Other   |            | 0.09856    |            |       |  0.34

Nlocal:    9826 ave 9833 max 9819 min
Histogram: 1 0 0 0 0 0 0 0 0 1
Nghost:    11074 ave 11092 max 11056 min
Histogram: 1 0 0 0 0 0 0 0 0 1
Neighs:    526092 ave 526208 max 525977 min
Histogram: 1 0 0 0 0 0 0 0 0 1

Total # of neighbors = 1052185
Ave neighs/atom = 53.5409
Neighbor list builds = 495
Dangerous builds not checked
Setting up Verlet run ...
  Unit style    : metal
  Current step  : 2040495
  Time step     : 0.001
Per MPI rank memory allocation (min/avg/max) = 11.37 | 11.37 | 11.37 Mbytes
Step Temp Press TotEng PotEng Enthalpy 
 2040495    422.76273   -192.99771   -26373.825   -27447.681   -26431.371 
 2050000    408.73703    49.942473   -26507.622   -27545.851   -26492.789 
 2090000    400.31684    252.97831    -26557.55   -27574.391   -26482.568 
Loop time of 2918.27 on 2 procs for 49505 steps with 19652 atoms

Performance: 1.466 ns/day, 16.375 hours/ns, 16.964 timesteps/s
99.4% CPU use with 2 MPI tasks x no OpenMP threads

MPI task timing breakdown:
Section |  min time  |  avg time  |  max time  |%varavg| %total
---------------------------------------------------------------
Pair    | 1516.3     | 1524.2     | 1532.1     |  20.2 | 52.23
Neigh   | 1216.8     | 1245.2     | 1273.6     |  80.6 | 42.67
Comm    | 82.832     | 104.34     | 125.85     | 210.6 |  3.58
Output  | 0.056037   | 0.056072   | 0.056108   |   0.0 |  0.00
Modify  | 33.774     | 34.482     | 35.191     |  12.1 |  1.18
Other   |            | 9.974      |            |       |  0.34

Nlocal:    9826 ave 9865 max 9787 min
Histogram: 1 0 0 0 0 0 0 0 0 1
Nghost:    11074 ave 11092 max 11056 min
Histogram: 1 0 0 0 0 0 0 0 0 1
Neighs:    530280 ave 533252 max 527309 min
Histogram: 1 0 0 0 0 0 0 0 0 1

Total # of neighbors = 1060561
Ave neighs/atom = 53.9671
Neighbor list builds = 49505
Dangerous builds not checked
Setting up Verlet run ...
  Unit style    : metal
  Current step  : 2090000
  Time step     : 0.001
Per MPI rank memory allocation (min/avg/max) = 11.37 | 11.37 | 11.37 Mbytes
Step Temp Press TotEng PotEng Enthalpy 
 2090000    400.31684    252.97831    -26557.55   -27574.391   -26482.568 
 2090495    373.59776   -234.40715   -26708.155   -27657.128   -26777.557 
Loop time of 30.2375 on 2 procs for 495 steps with 19652 atoms

Performance: 1.414 ns/day, 16.968 hours/ns, 16.370 timesteps/s
98.7% CPU use with 2 MPI tasks x no OpenMP threads

MPI task timing breakdown:
Section |  min time  |  avg time  |  max time  |%varavg| %total
---------------------------------------------------------------
Pair    | 15.76      | 15.931     | 16.103     |   4.3 | 52.69
Neigh   | 12.019     | 12.56      | 13.1       |  15.3 | 41.54
Comm    | 0.90789    | 1.2919     | 1.6759     |  33.8 |  4.27
Output  | 7.4863e-05 | 0.00010133 | 0.00012779 |   0.0 |  0.00
Modify  | 0.34367    | 0.35332    | 0.36297    |   1.6 |  1.17
Other   |            | 0.1011     |            |       |  0.33

Nlocal:    9826 ave 9838 max 9814 min
Histogram: 1 0 0 0 0 0 0 0 0 1
Nghost:    11063 ave 11063 max 11063 min
Histogram: 2 0 0 0 0 0 0 0 0 0
Neighs:    531331 ave 531698 max 530964 min
Histogram: 1 0 0 0 0 0 0 0 0 1

Total # of neighbors = 1062662
Ave neighs/atom = 54.074
Neighbor list builds = 495
Dangerous builds not checked
Setting up Verlet run ...
  Unit style    : metal
  Current step  : 2090495
  Time step     : 0.001
Per MPI rank memory allocation (min/avg/max) = 11.37 | 11.37 | 11.37 Mbytes
Step Temp Press TotEng PotEng Enthalpy 
 2090495    373.59776   -234.40715   -26708.155   -27657.128   -26777.557 
 2100000    351.46436    338.01079   -26846.054   -27738.805   -26746.431 
 2140000    351.08725   -376.60026   -26863.956    -27755.75   -26975.115 
Loop time of 2880.77 on 2 procs for 49505 steps with 19652 atoms

Performance: 1.485 ns/day, 16.164 hours/ns, 17.185 timesteps/s
99.6% CPU use with 2 MPI tasks x no OpenMP threads

MPI task timing breakdown:
Section |  min time  |  avg time  |  max time  |%varavg| %total
---------------------------------------------------------------
Pair    | 1503       | 1506.9     | 1510.8     |  10.1 | 52.31
Neigh   | 1228.4     | 1233.3     | 1238.2     |  13.9 | 42.81
Comm    | 96.006     | 96.772     | 97.539     |   7.8 |  3.36
Output  | 0.062611   | 0.062643   | 0.062676   |   0.0 |  0.00
Modify  | 34.179     | 34.2       | 34.222     |   0.4 |  1.19
Other   |            | 9.556      |            |       |  0.33

Nlocal:    9826 ave 9833 max 9819 min
Histogram: 1 0 0 0 0 0 0 0 0 1
Nghost:    11120.5 ave 11123 max 11118 min
Histogram: 1 0 0 0 0 0 0 0 0 1
Neighs:    533099 ave 534028 max 532170 min
Histogram: 1 0 0 0 0 0 0 0 0 1

Total # of neighbors = 1066198
Ave neighs/atom = 54.2539
Neighbor list builds = 49505
Dangerous builds not checked
Setting up Verlet run ...
  Unit style    : metal
  Current step  : 2140000
  Time step     : 0.001
Per MPI rank memory allocation (min/avg/max) = 11.37 | 11.37 | 11.37 Mbytes
Step Temp Press TotEng PotEng Enthalpy 
 2140000    351.08725   -376.60026   -26863.956    -27755.75   -26975.115 
 2140495    322.89337    163.04681   -27011.979   -27832.158   -26964.056 
Loop time of 27.8185 on 2 procs for 495 steps with 19652 atoms

Performance: 1.537 ns/day, 15.611 hours/ns, 17.794 timesteps/s
100.0% CPU use with 2 MPI tasks x no OpenMP threads

MPI task timing breakdown:
Section |  min time  |  avg time  |  max time  |%varavg| %total
---------------------------------------------------------------
Pair    | 14.407     | 14.548     | 14.689     |   3.7 | 52.30
Neigh   | 11.572     | 11.91      | 12.248     |   9.8 | 42.81
Comm    | 0.73803    | 0.94331    | 1.1486     |  21.1 |  3.39
Output  | 7.0095e-05 | 0.00010264 | 0.00013518 |   0.0 |  0.00
Modify  | 0.3162     | 0.32524    | 0.33428    |   1.6 |  1.17
Other   |            | 0.0918     |            |       |  0.33

Nlocal:    9826 ave 9835 max 9817 min
Histogram: 1 0 0 0 0 0 0 0 0 1
Nghost:    11126.5 ave 11127 max 11126 min
Histogram: 1 0 0 0 0 0 0 0 0 1
Neighs:    535654 ave 536183 max 535124 min
Histogram: 1 0 0 0 0 0 0 0 0 1

Total # of neighbors = 1071307
Ave neighs/atom = 54.5139
Neighbor list builds = 495
Dangerous builds not checked
Setting up Verlet run ...
  Unit style    : metal
  Current step  : 2140495
  Time step     : 0.001
Per MPI rank memory allocation (min/avg/max) = 11.37 | 11.37 | 11.37 Mbytes
Step Temp Press TotEng PotEng Enthalpy 
 2140495    322.89337    163.04681   -27011.979   -27832.158   -26964.056 
 2150000    302.23519   -70.784263   -27138.121   -27905.826   -27158.895 
 2190000     297.7887    478.40198   -27165.792   -27922.202   -27025.701 
Loop time of 2811.15 on 2 procs for 49505 steps with 19652 atoms

Performance: 1.522 ns/day, 15.774 hours/ns, 17.610 timesteps/s
99.7% CPU use with 2 MPI tasks x no OpenMP threads

MPI task timing breakdown:
Section |  min time  |  avg time  |  max time  |%varavg| %total
---------------------------------------------------------------
Pair    | 1467.9     | 1472.1     | 1476.4     |  11.1 | 52.37
Neigh   | 1193.7     | 1197.3     | 1201       |  10.4 | 42.59
Comm    | 98.71      | 99.605     | 100.5      |   9.0 |  3.54
Output  | 0.087967   | 0.088013   | 0.08806    |   0.0 |  0.00
Modify  | 32.764     | 32.887     | 33.01      |   2.1 |  1.17
Other   |            | 9.112      |            |       |  0.32

Nlocal:    9826 ave 9833 max 9819 min
Histogram: 1 0 0 0 0 0 0 0 0 1
Nghost:    11153.5 ave 11177 max 11130 min
Histogram: 1 0 0 0 0 0 0 0 0 1
Neighs:    538339 ave 539019 max 537659 min
Histogram: 1 0 0 0 0 0 0 0 0 1

Total # of neighbors = 1076678
Ave neighs/atom = 54.7872
Neighbor list builds = 49505
Dangerous builds not checked
Setting up Verlet run ...
  Unit style    : metal
  Current step  : 2190000
  Time step     : 0.001
Per MPI rank memory allocation (min/avg/max) = 11.37 | 11.37 | 11.37 Mbytes
Step Temp Press TotEng PotEng Enthalpy 
 2190000     297.7887    478.40198   -27165.792   -27922.202   -27025.701 
 2190495    274.38308    87.671483   -27299.525   -27996.483   -27273.878 
Loop time of 29.4435 on 2 procs for 495 steps with 19652 atoms

Performance: 1.453 ns/day, 16.523 hours/ns, 16.812 timesteps/s
100.0% CPU use with 2 MPI tasks x no OpenMP threads

MPI task timing breakdown:
Section |  min time  |  avg time  |  max time  |%varavg| %total
---------------------------------------------------------------
Pair    | 15.54      | 15.58      | 15.62      |   1.0 | 52.91
Neigh   | 11.922     | 12.176     | 12.43      |   7.3 | 41.36
Comm    | 1.0273     | 1.2555     | 1.4837     |  20.4 |  4.26
Output  | 8.2016e-05 | 0.0001055  | 0.00012898 |   0.0 |  0.00
Modify  | 0.33065    | 0.33865    | 0.34665    |   1.4 |  1.15
Other   |            | 0.0931     |            |       |  0.32

Nlocal:    9826 ave 9828 max 9824 min
Histogram: 1 0 0 0 0 0 0 0 0 1
Nghost:    11165.5 ave 11169 max 11162 min
Histogram: 1 0 0 0 0 0 0 0 0 1
Neighs:    539240 ave 539380 max 539101 min
Histogram: 1 0 0 0 0 0 0 0 0 1

Total # of neighbors = 1078481
Ave neighs/atom = 54.8789
Neighbor list builds = 495
Dangerous builds not checked
Setting up Verlet run ...
  Unit style    : metal
  Current step  : 2190495
  Time step     : 0.001
Per MPI rank memory allocation (min/avg/max) = 11.37 | 11.37 | 11.37 Mbytes
Step Temp Press TotEng PotEng Enthalpy 
 2190495    274.38308    87.671483   -27299.525   -27996.483   -27273.878 
 2200000    247.68162     233.5145   -27428.358   -28057.492   -27360.229 
 2240000    251.23383    287.51385   -27434.324   -28072.481   -27350.471 
Loop time of 2900.8 on 2 procs for 49505 steps with 19652 atoms

Performance: 1.474 ns/day, 16.277 hours/ns, 17.066 timesteps/s
99.6% CPU use with 2 MPI tasks x no OpenMP threads

MPI task timing breakdown:
Section |  min time  |  avg time  |  max time  |%varavg| %total
---------------------------------------------------------------
Pair    | 1521.7     | 1524       | 1526.3     |   5.9 | 52.54
Neigh   | 1227.5     | 1231.6     | 1235.6     |  11.7 | 42.46
Comm    | 94.671     | 101.58     | 108.49     |  68.6 |  3.50
Output  | 0.062747   | 0.062786   | 0.062824   |   0.0 |  0.00
Modify  | 34.004     | 34.056     | 34.107     |   0.9 |  1.17
Other   |            | 9.515      |            |       |  0.33

Nlocal:    9826 ave 9832 max 9820 min
Histogram: 1 0 0 0 0 0 0 0 0 1
Nghost:    11174 ave 11183 max 11165 min
Histogram: 1 0 0 0 0 0 0 0 0 1
Neighs:    541364 ave 541652 max 541077 min
Histogram: 1 0 0 0 0 0 0 0 0 1

Total # of neighbors = 1082729
Ave neighs/atom = 55.0951
Neighbor list builds = 49505
Dangerous builds not checked
Setting up Verlet run ...
  Unit style    : metal
  Current step  : 2240000
  Time step     : 0.001
Per MPI rank memory allocation (min/avg/max) = 11.37 | 11.37 | 11.37 Mbytes
Step Temp Press TotEng PotEng Enthalpy 
 2240000    251.23383    287.51385   -27434.324   -28072.481   -27350.471 
 2240495    225.50865    254.84047   -27572.461   -28145.274   -27498.295 
Loop time of 26.878 on 2 procs for 495 steps with 19652 atoms

Performance: 1.591 ns/day, 15.083 hours/ns, 18.417 timesteps/s
100.0% CPU use with 2 MPI tasks x no OpenMP threads

MPI task timing breakdown:
Section |  min time  |  avg time  |  max time  |%varavg| %total
---------------------------------------------------------------
Pair    | 13.987     | 14.025     | 14.064     |   1.0 | 52.18
Neigh   | 11.471     | 11.618     | 11.765     |   4.3 | 43.23
Comm    | 0.72068    | 0.83606    | 0.95145    |  12.6 |  3.11
Output  | 7.4148e-05 | 0.00010455 | 0.00013494 |   0.0 |  0.00
Modify  | 0.30808    | 0.31       | 0.31192    |   0.3 |  1.15
Other   |            | 0.08832    |            |       |  0.33

Nlocal:    9826 ave 9827 max 9825 min
Histogram: 1 0 0 0 0 0 0 0 0 1
Nghost:    11189 ave 11191 max 11187 min
Histogram: 1 0 0 0 0 0 0 0 0 1
Neighs:    542871 ave 543134 max 542608 min
Histogram: 1 0 0 0 0 0 0 0 0 1

Total # of neighbors = 1085742
Ave neighs/atom = 55.2484
Neighbor list builds = 495
Dangerous builds not checked
Setting up Verlet run ...
  Unit style    : metal
  Current step  : 2240495
  Time step     : 0.001
Per MPI rank memory allocation (min/avg/max) = 11.37 | 11.37 | 11.37 Mbytes
Step Temp Press TotEng PotEng Enthalpy 
 2240495    225.50865    254.84047   -27572.461   -28145.274   -27498.295 
 2250000    199.09455    305.56427   -27703.117   -28208.835   -27614.398 
 2290000    200.65224   -286.98411   -27701.494   -28211.169   -27784.986 
Loop time of 2949.62 on 2 procs for 49505 steps with 19652 atoms

Performance: 1.450 ns/day, 16.551 hours/ns, 16.783 timesteps/s
99.3% CPU use with 2 MPI tasks x no OpenMP threads

MPI task timing breakdown:
Section |  min time  |  avg time  |  max time  |%varavg| %total
---------------------------------------------------------------
Pair    | 1550.9     | 1555.5     | 1560.1     |  11.7 | 52.74
Neigh   | 1223.4     | 1245.3     | 1267.2     |  62.0 | 42.22
Comm    | 86.501     | 104.58     | 122.66     | 176.8 |  3.55
Output  | 0.061931   | 0.061978   | 0.062025   |   0.0 |  0.00
Modify  | 34.288     | 34.798     | 35.307     |   8.6 |  1.18
Other   |            | 9.365      |            |       |  0.32

Nlocal:    9826 ave 9832 max 9820 min
Histogram: 1 0 0 0 0 0 0 0 0 1
Nghost:    11198.5 ave 11200 max 11197 min
Histogram: 1 0 0 0 0 0 0 0 0 1
Neighs:    543171 ave 543625 max 542717 min
Histogram: 1 0 0 0 0 0 0 0 0 1

Total # of neighbors = 1086342
Ave neighs/atom = 55.279
Neighbor list builds = 49505
Dangerous builds not checked
Setting up Verlet run ...
  Unit style    : metal
  Current step  : 2290000
  Time step     : 0.001
Per MPI rank memory allocation (min/avg/max) = 11.37 | 11.37 | 11.37 Mbytes
Step Temp Press TotEng PotEng Enthalpy 
 2290000    200.65224   -286.98411   -27701.494   -28211.169   -27784.986 
 2290495    176.94569   -126.65391   -27834.205   -28283.663   -27870.947 
Loop time of 29.2552 on 2 procs for 495 steps with 19652 atoms

Performance: 1.462 ns/day, 16.417 hours/ns, 16.920 timesteps/s
100.0% CPU use with 2 MPI tasks x no OpenMP threads

MPI task timing breakdown:
Section |  min time  |  avg time  |  max time  |%varavg| %total
---------------------------------------------------------------
Pair    | 15.387     | 15.397     | 15.407     |   0.3 | 52.63
Neigh   | 12.531     | 12.635     | 12.738     |   2.9 | 43.19
Comm    | 0.67803    | 0.77796    | 0.8779     |  11.3 |  2.66
Output  | 7.4148e-05 | 0.00011003 | 0.00014591 |   0.0 |  0.00
Modify  | 0.34432    | 0.34604    | 0.34776    |   0.3 |  1.18
Other   |            | 0.0993     |            |       |  0.34

Nlocal:    9826 ave 9831 max 9821 min
Histogram: 1 0 0 0 0 0 0 0 0 1
Nghost:    11184.5 ave 11213 max 11156 min
Histogram: 1 0 0 0 0 0 0 0 0 1
Neighs:    545210 ave 545576 max 544843 min
Histogram: 1 0 0 0 0 0 0 0 0 1

Total # of neighbors = 1090419
Ave neighs/atom = 55.4864
Neighbor list builds = 495
Dangerous builds not checked
Setting up Verlet run ...
  Unit style    : metal
  Current step  : 2290495
  Time step     : 0.001
Per MPI rank memory allocation (min/avg/max) = 11.37 | 11.37 | 11.37 Mbytes
Step Temp Press TotEng PotEng Enthalpy 
 2290495    176.94569   -126.65391   -27834.205   -28283.663   -27870.947 
 2300000    149.94756    93.802312   -27974.032   -28354.913   -27946.895 
 2340000    148.42736   -43.818937   -27980.707   -28357.726   -27993.388 
Loop time of 2878.62 on 2 procs for 49505 steps with 19652 atoms

Performance: 1.486 ns/day, 16.152 hours/ns, 17.197 timesteps/s
99.5% CPU use with 2 MPI tasks x no OpenMP threads

MPI task timing breakdown:
Section |  min time  |  avg time  |  max time  |%varavg| %total
---------------------------------------------------------------
Pair    | 1517.1     | 1518.8     | 1520.5     |   4.4 | 52.76
Neigh   | 1216.6     | 1217.6     | 1218.6     |   2.9 | 42.30
Comm    | 95.716     | 98.871     | 102.03     |  31.7 |  3.43
Output  | 0.062939   | 0.062964   | 0.06299    |   0.0 |  0.00
Modify  | 33.77      | 33.794     | 33.818     |   0.4 |  1.17
Other   |            | 9.449      |            |       |  0.33

Nlocal:    9826 ave 9828 max 9824 min
Histogram: 1 0 0 0 0 0 0 0 0 1
Nghost:    11209.5 ave 11219 max 11200 min
Histogram: 1 0 0 0 0 0 0 0 0 1
Neighs:    546845 ave 546937 max 546753 min
Histogram: 1 0 0 0 0 0 0 0 0 1

Total # of neighbors = 1093690
Ave neighs/atom = 55.6529
Neighbor list builds = 49505
Dangerous builds not checked
Setting up Verlet run ...
  Unit style    : metal
  Current step  : 2340000
  Time step     : 0.001
Per MPI rank memory allocation (min/avg/max) = 11.37 | 11.37 | 11.37 Mbytes
Step Temp Press TotEng PotEng Enthalpy 
 2340000    148.42736   -43.818937   -27980.707   -28357.726   -27993.388 
 2340495    127.25021   -30.830687   -28094.885   -28418.113   -28103.793 
Loop time of 28.4719 on 2 procs for 495 steps with 19652 atoms

Performance: 1.502 ns/day, 15.977 hours/ns, 17.386 timesteps/s
99.1% CPU use with 2 MPI tasks x no OpenMP threads

MPI task timing breakdown:
Section |  min time  |  avg time  |  max time  |%varavg| %total
---------------------------------------------------------------
Pair    | 14.943     | 14.987     | 15.03      |   1.1 | 52.64
Neigh   | 11.946     | 12.113     | 12.279     |   4.8 | 42.54
Comm    | 0.8232     | 0.94448    | 1.0658     |  12.5 |  3.32
Output  | 7.2002e-05 | 9.6917e-05 | 0.00012183 |   0.0 |  0.00
Modify  | 0.33216    | 0.33374    | 0.33532    |   0.3 |  1.17
Other   |            | 0.09398    |            |       |  0.33

Nlocal:    9826 ave 9831 max 9821 min
Histogram: 1 0 0 0 0 0 0 0 0 1
Nghost:    11211 ave 11213 max 11209 min
Histogram: 1 0 0 0 0 0 0 0 0 1
Neighs:    548162 ave 548278 max 548046 min
Histogram: 1 0 0 0 0 0 0 0 0 1

Total # of neighbors = 1096324
Ave neighs/atom = 55.7869
Neighbor list builds = 495
Dangerous builds not checked
Setting up Verlet run ...
  Unit style    : metal
  Current step  : 2340495
  Time step     : 0.001
Per MPI rank memory allocation (min/avg/max) = 11.37 | 11.37 | 11.37 Mbytes
Step Temp Press TotEng PotEng Enthalpy 
 2340495    127.25021   -30.830687   -28094.885   -28418.113   -28103.793 
 2350000    99.523605    119.06713   -28237.634   -28490.433   -28203.325 
 2390000     100.6887    24.464231   -28233.514   -28489.273   -28226.464 
Loop time of 2959.47 on 2 procs for 49505 steps with 19652 atoms

Performance: 1.445 ns/day, 16.606 hours/ns, 16.728 timesteps/s
99.2% CPU use with 2 MPI tasks x no OpenMP threads

MPI task timing breakdown:
Section |  min time  |  avg time  |  max time  |%varavg| %total
---------------------------------------------------------------
Pair    | 1563.2     | 1566.3     | 1569.4     |   7.8 | 52.93
Neigh   | 1229.7     | 1240.4     | 1251.1     |  30.3 | 41.91
Comm    | 100.02     | 107.88     | 115.74     |  75.7 |  3.65
Output  | 0.058512   | 0.058552   | 0.058591   |   0.0 |  0.00
Modify  | 34.565     | 34.838     | 35.111     |   4.6 |  1.18
Other   |            | 9.981      |            |       |  0.34

Nlocal:    9826 ave 9834 max 9818 min
Histogram: 1 0 0 0 0 0 0 0 0 1
Nghost:    11231 ave 11246 max 11216 min
Histogram: 1 0 0 0 0 0 0 0 0 1
Neighs:    549846 ave 550379 max 549312 min
Histogram: 1 0 0 0 0 0 0 0 0 1

Total # of neighbors = 1099691
Ave neighs/atom = 55.9582
Neighbor list builds = 49505
Dangerous builds not checked
Total wall time: 37:56:43
