LAMMPS (12 Dec 2018)
Lattice spacing in x,y,z = 4 4 4
Created orthogonal box = (0 0 0) to (68 68 68)
  1 by 1 by 1 MPI processor grid
Created 19652 atoms
  Time spent = 0.00313807 secs
Setting atom values ...
  0 settings made for type/fraction
Neighbor list info ...
  update every 1 steps, delay 0 steps, check no
  max neighbors/atom: 2000, page size: 100000
  master list distance cutoff = 8.5
  ghost atom cutoff = 8.5
  binsize = 4.25, bins = 16 16 16
  1 neighbor lists, perpetual/occasional/extra = 1 0 0
  (1) pair eam/alloy, perpetual
      attributes: half, newton on
      pair build: half/bin/atomonly/newton
      stencil: half/bin/3d/newton
      bin: standard
Setting up Verlet run ...
  Unit style    : metal
  Current step  : 0
  Time step     : 0.001
Per MPI rank memory allocation (min/avg/max) = 18.19 | 18.19 | 18.19 Mbytes
Step Temp Press TotEng PotEng Enthalpy 
       0          300   -103068.88   -75432.214   -76194.241   -95659.795 
    1000    149.30433   -92732.497   -75432.163    -75811.41   -93631.197 
Loop time of 154.072 on 1 procs for 1000 steps with 19652 atoms

Performance: 0.561 ns/day, 42.798 hours/ns, 6.490 timesteps/s
99.6% CPU use with 1 MPI tasks x no OpenMP threads

MPI task timing breakdown:
Section |  min time  |  avg time  |  max time  |%varavg| %total
---------------------------------------------------------------
Pair    | 87.5       | 87.5       | 87.5       |   0.0 | 56.79
Neigh   | 64.591     | 64.591     | 64.591     |   0.0 | 41.92
Comm    | 1.1706     | 1.1706     | 1.1706     |   0.0 |  0.76
Output  | 0.000175   | 0.000175   | 0.000175   |   0.0 |  0.00
Modify  | 0.4188     | 0.4188     | 0.4188     |   0.0 |  0.27
Other   |            | 0.3907     |            |       |  0.25

Nlocal:    19652 ave 19652 max 19652 min
Histogram: 1 0 0 0 0 0 0 0 0 0
Nghost:    20102 ave 20102 max 20102 min
Histogram: 1 0 0 0 0 0 0 0 0 0
Neighs:    1.57487e+06 ave 1.57487e+06 max 1.57487e+06 min
Histogram: 1 0 0 0 0 0 0 0 0 0

Total # of neighbors = 1574874
Ave neighs/atom = 80.1381
Neighbor list builds = 1000
Dangerous builds not checked
Setting up Verlet run ...
  Unit style    : metal
  Current step  : 1000
  Time step     : 0.001
Per MPI rank memory allocation (min/avg/max) = 18.19 | 18.19 | 18.19 Mbytes
Step Temp Press TotEng PotEng Enthalpy 
    1000    149.30433   -92732.497   -75432.163    -75811.41   -93631.197 
    2000    308.02307    28.446795   -75320.268   -76102.674   -75314.988 
Loop time of 173.063 on 1 procs for 1000 steps with 19652 atoms

Performance: 0.499 ns/day, 48.073 hours/ns, 5.778 timesteps/s
99.6% CPU use with 1 MPI tasks x no OpenMP threads

MPI task timing breakdown:
Section |  min time  |  avg time  |  max time  |%varavg| %total
---------------------------------------------------------------
Pair    | 93.048     | 93.048     | 93.048     |   0.0 | 53.77
Neigh   | 77.11      | 77.11      | 77.11      |   0.0 | 44.56
Comm    | 1.1013     | 1.1013     | 1.1013     |   0.0 |  0.64
Output  | 0.00016308 | 0.00016308 | 0.00016308 |   0.0 |  0.00
Modify  | 1.4193     | 1.4193     | 1.4193     |   0.0 |  0.82
Other   |            | 0.3848     |            |       |  0.22

Nlocal:    19652 ave 19652 max 19652 min
Histogram: 1 0 0 0 0 0 0 0 0 0
Nghost:    20102 ave 20102 max 20102 min
Histogram: 1 0 0 0 0 0 0 0 0 0
Neighs:    1.70948e+06 ave 1.70948e+06 max 1.70948e+06 min
Histogram: 1 0 0 0 0 0 0 0 0 0

Total # of neighbors = 1709481
Ave neighs/atom = 86.9876
Neighbor list builds = 1000
Dangerous builds not checked
Setting up Verlet run ...
  Unit style    : metal
  Current step  : 2000
  Time step     : 0.001
Per MPI rank memory allocation (min/avg/max) = 18.19 | 18.19 | 18.19 Mbytes
Step Temp Press TotEng PotEng Enthalpy 
    2000    308.02307    28.446795   -75320.268   -76102.674   -75314.988 
    6667    1561.9088    243.61284   -67970.853   -71938.244   -67922.532 
   10000    2450.1252   -930.66811   -59288.592   -65512.133   -59498.545 
Loop time of 1395.09 on 1 procs for 8000 steps with 19652 atoms

Performance: 0.495 ns/day, 48.441 hours/ns, 5.734 timesteps/s
99.4% CPU use with 1 MPI tasks x no OpenMP threads

MPI task timing breakdown:
Section |  min time  |  avg time  |  max time  |%varavg| %total
---------------------------------------------------------------
Pair    | 761.94     | 761.94     | 761.94     |   0.0 | 54.62
Neigh   | 606.78     | 606.78     | 606.78     |   0.0 | 43.49
Comm    | 10.26      | 10.26      | 10.26      |   0.0 |  0.74
Output  | 0.063156   | 0.063156   | 0.063156   |   0.0 |  0.00
Modify  | 12.529     | 12.529     | 12.529     |   0.0 |  0.90
Other   |            | 3.521      |            |       |  0.25

Nlocal:    19652 ave 19652 max 19652 min
Histogram: 1 0 0 0 0 0 0 0 0 0
Nghost:    17654 ave 17654 max 17654 min
Histogram: 1 0 0 0 0 0 0 0 0 0
Neighs:    1.3688e+06 ave 1.3688e+06 max 1.3688e+06 min
Histogram: 1 0 0 0 0 0 0 0 0 0

Total # of neighbors = 1368801
Ave neighs/atom = 69.652
Neighbor list builds = 8000
Dangerous builds not checked
Setting up Verlet run ...
  Unit style    : metal
  Current step  : 10000
  Time step     : 0.001
Per MPI rank memory allocation (min/avg/max) = 18.19 | 18.19 | 18.19 Mbytes
Step Temp Press TotEng PotEng Enthalpy 
   10000    2450.1252   -930.66811   -59288.592   -65512.133   -59498.545 
   13334    2449.6297   -1141.6571   -59206.764   -65429.046   -59464.839 
   20001    2473.7194   -504.62997   -58970.962   -65254.435   -59085.396 
   26668     2427.331   -81.271237   -59267.195   -65432.837   -59285.542 
   33335    2431.0722   -1480.6216   -59239.136   -65414.281   -59573.822 
   40000    2465.6851    522.28127   -59104.551   -65367.616   -58986.529 
Loop time of 4451.54 on 1 procs for 30000 steps with 19652 atoms

Performance: 0.582 ns/day, 41.218 hours/ns, 6.739 timesteps/s
99.6% CPU use with 1 MPI tasks x no OpenMP threads

MPI task timing breakdown:
Section |  min time  |  avg time  |  max time  |%varavg| %total
---------------------------------------------------------------
Pair    | 2343       | 2343       | 2343       |   0.0 | 52.63
Neigh   | 2023.9     | 2023.9     | 2023.9     |   0.0 | 45.47
Comm    | 31.854     | 31.854     | 31.854     |   0.0 |  0.72
Output  | 0.46769    | 0.46769    | 0.46769    |   0.0 |  0.01
Modify  | 41.191     | 41.191     | 41.191     |   0.0 |  0.93
Other   |            | 11.14      |            |       |  0.25

Nlocal:    19652 ave 19652 max 19652 min
Histogram: 1 0 0 0 0 0 0 0 0 0
Nghost:    17722 ave 17722 max 17722 min
Histogram: 1 0 0 0 0 0 0 0 0 0
Neighs:    1.36656e+06 ave 1.36656e+06 max 1.36656e+06 min
Histogram: 1 0 0 0 0 0 0 0 0 0

Total # of neighbors = 1366565
Ave neighs/atom = 69.5382
Neighbor list builds = 30000
Dangerous builds not checked
Setting up Verlet run ...
  Unit style    : metal
  Current step  : 40000
  Time step     : 0.001
Per MPI rank memory allocation (min/avg/max) = 18.19 | 18.19 | 18.19 Mbytes
Step Temp Press TotEng PotEng Enthalpy 
   40000    2465.6851    522.28127   -59104.551   -65367.616   -58986.529 
   40002    2466.6476    493.16557   -59104.569   -65370.078   -58993.125 
   40495    2410.4143    613.92094   -59418.053   -65540.725    -59279.91 
Loop time of 61.2757 on 1 procs for 495 steps with 19652 atoms

Performance: 0.698 ns/day, 34.386 hours/ns, 8.078 timesteps/s
100.0% CPU use with 1 MPI tasks x no OpenMP threads

MPI task timing breakdown:
Section |  min time  |  avg time  |  max time  |%varavg| %total
---------------------------------------------------------------
Pair    | 31.572     | 31.572     | 31.572     |   0.0 | 51.53
Neigh   | 28.487     | 28.487     | 28.487     |   0.0 | 46.49
Comm    | 0.429      | 0.429      | 0.429      |   0.0 |  0.70
Output  | 0.054363   | 0.054363   | 0.054363   |   0.0 |  0.09
Modify  | 0.57853    | 0.57853    | 0.57853    |   0.0 |  0.94
Other   |            | 0.1548     |            |       |  0.25

Nlocal:    19652 ave 19652 max 19652 min
Histogram: 1 0 0 0 0 0 0 0 0 0
Nghost:    17701 ave 17701 max 17701 min
Histogram: 1 0 0 0 0 0 0 0 0 0
Neighs:    1.37263e+06 ave 1.37263e+06 max 1.37263e+06 min
Histogram: 1 0 0 0 0 0 0 0 0 0

Total # of neighbors = 1372631
Ave neighs/atom = 69.8469
Neighbor list builds = 495
Dangerous builds not checked
Setting up Verlet run ...
  Unit style    : metal
  Current step  : 40495
  Time step     : 0.001
Per MPI rank memory allocation (min/avg/max) = 18.19 | 18.19 | 18.19 Mbytes
Step Temp Press TotEng PotEng Enthalpy 
   40495    2410.4143    613.92094   -59418.053   -65540.725    -59279.91 
   46667    2376.8768   -1626.5051   -59612.924   -65650.408   -59978.592 
Loop time of 769.083 on 1 procs for 6172 steps with 19652 atoms

Performance: 0.693 ns/day, 34.613 hours/ns, 8.025 timesteps/s
100.0% CPU use with 1 MPI tasks x no OpenMP threads

MPI task timing breakdown:
Section |  min time  |  avg time  |  max time  |%varavg| %total
---------------------------------------------------------------
Pair    | 397.83     | 397.83     | 397.83     |   0.0 | 51.73
Neigh   | 356.75     | 356.75     | 356.75     |   0.0 | 46.39
Comm    | 5.4364     | 5.4364     | 5.4364     |   0.0 |  0.71
Output  | 0.00022101 | 0.00022101 | 0.00022101 |   0.0 |  0.00
Modify  | 7.149      | 7.149      | 7.149      |   0.0 |  0.93
Other   |            | 1.92       |            |       |  0.25

Nlocal:    19652 ave 19652 max 19652 min
Histogram: 1 0 0 0 0 0 0 0 0 0
Nghost:    17738 ave 17738 max 17738 min
Histogram: 1 0 0 0 0 0 0 0 0 0
Neighs:    1.3735e+06 ave 1.3735e+06 max 1.3735e+06 min
Histogram: 1 0 0 0 0 0 0 0 0 0

Total # of neighbors = 1373499
Ave neighs/atom = 69.8911
Neighbor list builds = 6172
Dangerous builds not checked
Setting up Verlet run ...
  Unit style    : metal
  Current step  : 46667
  Time step     : 0.001
Per MPI rank memory allocation (min/avg/max) = 18.19 | 18.19 | 18.19 Mbytes
Step Temp Press TotEng PotEng Enthalpy 
   46667    2376.8768   -1626.5051   -59612.924   -65650.408   -59978.592 
   46669    2375.9917   -1587.3644   -59612.901   -65648.136   -59969.769 
   47162    2375.2442   -1514.1652   -59639.205   -65672.541   -59979.531 
Loop time of 55.9079 on 1 procs for 495 steps with 19652 atoms

Performance: 0.765 ns/day, 31.374 hours/ns, 8.854 timesteps/s
100.0% CPU use with 1 MPI tasks x no OpenMP threads

MPI task timing breakdown:
Section |  min time  |  avg time  |  max time  |%varavg| %total
---------------------------------------------------------------
Pair    | 28.752     | 28.752     | 28.752     |   0.0 | 51.43
Neigh   | 26.022     | 26.022     | 26.022     |   0.0 | 46.54
Comm    | 0.39832    | 0.39832    | 0.39832    |   0.0 |  0.71
Output  | 0.064328   | 0.064328   | 0.064328   |   0.0 |  0.12
Modify  | 0.52772    | 0.52772    | 0.52772    |   0.0 |  0.94
Other   |            | 0.1441     |            |       |  0.26

Nlocal:    19652 ave 19652 max 19652 min
Histogram: 1 0 0 0 0 0 0 0 0 0
Nghost:    17674 ave 17674 max 17674 min
Histogram: 1 0 0 0 0 0 0 0 0 0
Neighs:    1.3737e+06 ave 1.3737e+06 max 1.3737e+06 min
Histogram: 1 0 0 0 0 0 0 0 0 0

Total # of neighbors = 1373702
Ave neighs/atom = 69.9014
Neighbor list builds = 495
Dangerous builds not checked
Setting up Verlet run ...
  Unit style    : metal
  Current step  : 47162
  Time step     : 0.001
Per MPI rank memory allocation (min/avg/max) = 18.19 | 18.19 | 18.19 Mbytes
Step Temp Press TotEng PotEng Enthalpy 
   47162    2375.2442   -1514.1652   -59639.205   -65672.541   -59979.531 
   53334    2351.5142   -152.28291   -59790.064   -65763.125   -59824.171 
Loop time of 760.683 on 1 procs for 6172 steps with 19652 atoms

Performance: 0.701 ns/day, 34.235 hours/ns, 8.114 timesteps/s
100.0% CPU use with 1 MPI tasks x no OpenMP threads

MPI task timing breakdown:
Section |  min time  |  avg time  |  max time  |%varavg| %total
---------------------------------------------------------------
Pair    | 397.32     | 397.32     | 397.32     |   0.0 | 52.23
Neigh   | 348.94     | 348.94     | 348.94     |   0.0 | 45.87
Comm    | 5.476      | 5.476      | 5.476      |   0.0 |  0.72
Output  | 0.00020003 | 0.00020003 | 0.00020003 |   0.0 |  0.00
Modify  | 7.0004     | 7.0004     | 7.0004     |   0.0 |  0.92
Other   |            | 1.947      |            |       |  0.26

Nlocal:    19652 ave 19652 max 19652 min
Histogram: 1 0 0 0 0 0 0 0 0 0
Nghost:    17731 ave 17731 max 17731 min
Histogram: 1 0 0 0 0 0 0 0 0 0
Neighs:    1.37873e+06 ave 1.37873e+06 max 1.37873e+06 min
Histogram: 1 0 0 0 0 0 0 0 0 0

Total # of neighbors = 1378731
Ave neighs/atom = 70.1573
Neighbor list builds = 6172
Dangerous builds not checked
Setting up Verlet run ...
  Unit style    : metal
  Current step  : 53334
  Time step     : 0.001
Per MPI rank memory allocation (min/avg/max) = 18.19 | 18.19 | 18.19 Mbytes
Step Temp Press TotEng PotEng Enthalpy 
   53334    2351.5142   -152.28291   -59790.064   -65763.125   -59824.171 
   53336    2351.1588   -131.83376   -59790.067   -65762.224   -59819.593 
   53829    2302.1546    599.50116   -60046.092   -65893.775   -59912.328 
Loop time of 64.6299 on 1 procs for 495 steps with 19652 atoms

Performance: 0.662 ns/day, 36.268 hours/ns, 7.659 timesteps/s
99.9% CPU use with 1 MPI tasks x no OpenMP threads

MPI task timing breakdown:
Section |  min time  |  avg time  |  max time  |%varavg| %total
---------------------------------------------------------------
Pair    | 34.043     | 34.043     | 34.043     |   0.0 | 52.67
Neigh   | 29.229     | 29.229     | 29.229     |   0.0 | 45.22
Comm    | 0.49904    | 0.49904    | 0.49904    |   0.0 |  0.77
Output  | 0.051847   | 0.051847   | 0.051847   |   0.0 |  0.08
Modify  | 0.62945    | 0.62945    | 0.62945    |   0.0 |  0.97
Other   |            | 0.1777     |            |       |  0.27

Nlocal:    19652 ave 19652 max 19652 min
Histogram: 1 0 0 0 0 0 0 0 0 0
Nghost:    17850 ave 17850 max 17850 min
Histogram: 1 0 0 0 0 0 0 0 0 0
Neighs:    1.38337e+06 ave 1.38337e+06 max 1.38337e+06 min
Histogram: 1 0 0 0 0 0 0 0 0 0

Total # of neighbors = 1383370
Ave neighs/atom = 70.3933
Neighbor list builds = 495
Dangerous builds not checked
Setting up Verlet run ...
  Unit style    : metal
  Current step  : 53829
  Time step     : 0.001
Per MPI rank memory allocation (min/avg/max) = 18.19 | 18.19 | 18.19 Mbytes
Step Temp Press TotEng PotEng Enthalpy 
   53829    2302.1546    599.50116   -60046.092   -65893.775   -59912.328 
   60001    2314.5403   -981.45966   -60101.901   -65981.044    -60320.82 
Loop time of 956.363 on 1 procs for 6172 steps with 19652 atoms

Performance: 0.558 ns/day, 43.042 hours/ns, 6.454 timesteps/s
99.9% CPU use with 1 MPI tasks x no OpenMP threads

MPI task timing breakdown:
Section |  min time  |  avg time  |  max time  |%varavg| %total
---------------------------------------------------------------
Pair    | 513.45     | 513.45     | 513.45     |   0.0 | 53.69
Neigh   | 424.2      | 424.2      | 424.2      |   0.0 | 44.36
Comm    | 7.1726     | 7.1726     | 7.1726     |   0.0 |  0.75
Output  | 0.00025678 | 0.00025678 | 0.00025678 |   0.0 |  0.00
Modify  | 9.0534     | 9.0534     | 9.0534     |   0.0 |  0.95
Other   |            | 2.489      |            |       |  0.26

Nlocal:    19652 ave 19652 max 19652 min
Histogram: 1 0 0 0 0 0 0 0 0 0
Nghost:    17811 ave 17811 max 17811 min
Histogram: 1 0 0 0 0 0 0 0 0 0
Neighs:    1.38477e+06 ave 1.38477e+06 max 1.38477e+06 min
Histogram: 1 0 0 0 0 0 0 0 0 0

Total # of neighbors = 1384766
Ave neighs/atom = 70.4644
Neighbor list builds = 6172
Dangerous builds not checked
Setting up Verlet run ...
  Unit style    : metal
  Current step  : 60001
  Time step     : 0.001
Per MPI rank memory allocation (min/avg/max) = 18.19 | 18.19 | 18.19 Mbytes
Step Temp Press TotEng PotEng Enthalpy 
   60001    2314.5403   -981.45966   -60101.901   -65981.044    -60320.82 
   60003    2315.7261   -1022.9292   -60101.918   -65984.073   -60330.087 
   60496    2253.0956   -1131.7944    -60373.28   -66096.348   -60625.003 
Loop time of 83.7913 on 1 procs for 495 steps with 19652 atoms

Performance: 0.510 ns/day, 47.021 hours/ns, 5.908 timesteps/s
100.0% CPU use with 1 MPI tasks x no OpenMP threads

MPI task timing breakdown:
Section |  min time  |  avg time  |  max time  |%varavg| %total
---------------------------------------------------------------
Pair    | 45.35      | 45.35      | 45.35      |   0.0 | 54.12
Neigh   | 36.705     | 36.705     | 36.705     |   0.0 | 43.81
Comm    | 0.63816    | 0.63816    | 0.63816    |   0.0 |  0.76
Output  | 0.065569   | 0.065569   | 0.065569   |   0.0 |  0.08
Modify  | 0.81504    | 0.81504    | 0.81504    |   0.0 |  0.97
Other   |            | 0.2173     |            |       |  0.26

Nlocal:    19652 ave 19652 max 19652 min
Histogram: 1 0 0 0 0 0 0 0 0 0
Nghost:    17852 ave 17852 max 17852 min
Histogram: 1 0 0 0 0 0 0 0 0 0
Neighs:    1.38865e+06 ave 1.38865e+06 max 1.38865e+06 min
Histogram: 1 0 0 0 0 0 0 0 0 0

Total # of neighbors = 1388647
Ave neighs/atom = 70.6619
Neighbor list builds = 495
Dangerous builds not checked
Setting up Verlet run ...
  Unit style    : metal
  Current step  : 60496
  Time step     : 0.001
Per MPI rank memory allocation (min/avg/max) = 18.19 | 18.19 | 18.19 Mbytes
Step Temp Press TotEng PotEng Enthalpy 
   60496    2253.0956   -1131.7944    -60373.28   -66096.348   -60625.003 
   66668    2236.0103   -2099.5114   -60508.495   -66188.164   -60975.168 
Loop time of 1069.16 on 1 procs for 6172 steps with 19652 atoms

Performance: 0.499 ns/day, 48.119 hours/ns, 5.773 timesteps/s
100.0% CPU use with 1 MPI tasks x no OpenMP threads

MPI task timing breakdown:
Section |  min time  |  avg time  |  max time  |%varavg| %total
---------------------------------------------------------------
Pair    | 576.53     | 576.53     | 576.53     |   0.0 | 53.92
Neigh   | 472.36     | 472.36     | 472.36     |   0.0 | 44.18
Comm    | 7.7061     | 7.7061     | 7.7061     |   0.0 |  0.72
Output  | 0.013877   | 0.013877   | 0.013877   |   0.0 |  0.00
Modify  | 9.8562     | 9.8562     | 9.8562     |   0.0 |  0.92
Other   |            | 2.699      |            |       |  0.25

Nlocal:    19652 ave 19652 max 19652 min
Histogram: 1 0 0 0 0 0 0 0 0 0
Nghost:    17741 ave 17741 max 17741 min
Histogram: 1 0 0 0 0 0 0 0 0 0
Neighs:    1.3894e+06 ave 1.3894e+06 max 1.3894e+06 min
Histogram: 1 0 0 0 0 0 0 0 0 0

Total # of neighbors = 1389404
Ave neighs/atom = 70.7004
Neighbor list builds = 6172
Dangerous builds not checked
Setting up Verlet run ...
  Unit style    : metal
  Current step  : 66668
  Time step     : 0.001
Per MPI rank memory allocation (min/avg/max) = 18.19 | 18.19 | 18.19 Mbytes
Step Temp Press TotEng PotEng Enthalpy 
   66668    2236.0103   -2099.5114   -60508.495   -66188.164   -60975.168 
   66670     2235.494    -2104.172   -60508.479   -66186.838   -60976.189 
   67163    2205.3417   -862.42575   -60720.835   -66322.604   -60911.601 
Loop time of 83.4081 on 1 procs for 495 steps with 19652 atoms

Performance: 0.513 ns/day, 46.806 hours/ns, 5.935 timesteps/s
100.0% CPU use with 1 MPI tasks x no OpenMP threads

MPI task timing breakdown:
Section |  min time  |  avg time  |  max time  |%varavg| %total
---------------------------------------------------------------
Pair    | 44.867     | 44.867     | 44.867     |   0.0 | 53.79
Neigh   | 36.738     | 36.738     | 36.738     |   0.0 | 44.05
Comm    | 0.64969    | 0.64969    | 0.64969    |   0.0 |  0.78
Output  | 0.076801   | 0.076801   | 0.076801   |   0.0 |  0.09
Modify  | 0.84605    | 0.84605    | 0.84605    |   0.0 |  1.01
Other   |            | 0.2303     |            |       |  0.28

Nlocal:    19652 ave 19652 max 19652 min
Histogram: 1 0 0 0 0 0 0 0 0 0
Nghost:    17853 ave 17853 max 17853 min
Histogram: 1 0 0 0 0 0 0 0 0 0
Neighs:    1.39652e+06 ave 1.39652e+06 max 1.39652e+06 min
Histogram: 1 0 0 0 0 0 0 0 0 0

Total # of neighbors = 1396524
Ave neighs/atom = 71.0627
Neighbor list builds = 495
Dangerous builds not checked
Setting up Verlet run ...
  Unit style    : metal
  Current step  : 67163
  Time step     : 0.001
Per MPI rank memory allocation (min/avg/max) = 18.19 | 18.19 | 18.19 Mbytes
Step Temp Press TotEng PotEng Enthalpy 
   67163    2205.3417   -862.42575   -60720.835   -66322.604   -60911.601 
   73335    2189.0224   -333.21085   -60785.379   -66345.696   -60859.052 
Loop time of 1080.23 on 1 procs for 6172 steps with 19652 atoms

Performance: 0.494 ns/day, 48.617 hours/ns, 5.714 timesteps/s
99.9% CPU use with 1 MPI tasks x no OpenMP threads

MPI task timing breakdown:
Section |  min time  |  avg time  |  max time  |%varavg| %total
---------------------------------------------------------------
Pair    | 580.91     | 580.91     | 580.91     |   0.0 | 53.78
Neigh   | 478.22     | 478.22     | 478.22     |   0.0 | 44.27
Comm    | 7.9283     | 7.9283     | 7.9283     |   0.0 |  0.73
Output  | 0.013705   | 0.013705   | 0.013705   |   0.0 |  0.00
Modify  | 10.361     | 10.361     | 10.361     |   0.0 |  0.96
Other   |            | 2.794      |            |       |  0.26

Nlocal:    19652 ave 19652 max 19652 min
Histogram: 1 0 0 0 0 0 0 0 0 0
Nghost:    17852 ave 17852 max 17852 min
Histogram: 1 0 0 0 0 0 0 0 0 0
Neighs:    1.39678e+06 ave 1.39678e+06 max 1.39678e+06 min
Histogram: 1 0 0 0 0 0 0 0 0 0

Total # of neighbors = 1396776
Ave neighs/atom = 71.0755
Neighbor list builds = 6172
Dangerous builds not checked
Setting up Verlet run ...
  Unit style    : metal
  Current step  : 73335
  Time step     : 0.001
Per MPI rank memory allocation (min/avg/max) = 18.19 | 18.19 | 18.19 Mbytes
Step Temp Press TotEng PotEng Enthalpy 
   73335    2189.0224   -333.21085   -60785.379   -66345.696   -60859.052 
   73337     2189.477   -368.07066   -60785.368   -66346.839   -60866.748 
   73830     2151.871    794.31512   -61044.951   -66510.899   -60870.157 
Loop time of 82.0774 on 1 procs for 495 steps with 19652 atoms

Performance: 0.521 ns/day, 46.059 hours/ns, 6.031 timesteps/s
100.0% CPU use with 1 MPI tasks x no OpenMP threads

MPI task timing breakdown:
Section |  min time  |  avg time  |  max time  |%varavg| %total
---------------------------------------------------------------
Pair    | 43.501     | 43.501     | 43.501     |   0.0 | 53.00
Neigh   | 36.841     | 36.841     | 36.841     |   0.0 | 44.89
Comm    | 0.61664    | 0.61664    | 0.61664    |   0.0 |  0.75
Output  | 0.077587   | 0.077587   | 0.077587   |   0.0 |  0.09
Modify  | 0.82071    | 0.82071    | 0.82071    |   0.0 |  1.00
Other   |            | 0.2204     |            |       |  0.27

Nlocal:    19652 ave 19652 max 19652 min
Histogram: 1 0 0 0 0 0 0 0 0 0
Nghost:    17856 ave 17856 max 17856 min
Histogram: 1 0 0 0 0 0 0 0 0 0
Neighs:    1.40344e+06 ave 1.40344e+06 max 1.40344e+06 min
Histogram: 1 0 0 0 0 0 0 0 0 0

Total # of neighbors = 1403439
Ave neighs/atom = 71.4146
Neighbor list builds = 495
Dangerous builds not checked
Setting up Verlet run ...
  Unit style    : metal
  Current step  : 73830
  Time step     : 0.001
Per MPI rank memory allocation (min/avg/max) = 18.19 | 18.19 | 18.19 Mbytes
Step Temp Press TotEng PotEng Enthalpy 
   73830     2151.871    794.31512   -61044.951   -66510.899   -60870.157 
   80002    2162.7193   -1606.9289   -61039.474   -66532.978   -61393.674 
Loop time of 1104.93 on 1 procs for 6172 steps with 19652 atoms

Performance: 0.483 ns/day, 49.728 hours/ns, 5.586 timesteps/s
99.9% CPU use with 1 MPI tasks x no OpenMP threads

MPI task timing breakdown:
Section |  min time  |  avg time  |  max time  |%varavg| %total
---------------------------------------------------------------
Pair    | 601.22     | 601.22     | 601.22     |   0.0 | 54.41
Neigh   | 482.54     | 482.54     | 482.54     |   0.0 | 43.67
Comm    | 8.1262     | 8.1262     | 8.1262     |   0.0 |  0.74
Output  | 0.012238   | 0.012238   | 0.012238   |   0.0 |  0.00
Modify  | 10.275     | 10.275     | 10.275     |   0.0 |  0.93
Other   |            | 2.751      |            |       |  0.25

Nlocal:    19652 ave 19652 max 19652 min
Histogram: 1 0 0 0 0 0 0 0 0 0
Nghost:    17888 ave 17888 max 17888 min
Histogram: 1 0 0 0 0 0 0 0 0 0
Neighs:    1.40158e+06 ave 1.40158e+06 max 1.40158e+06 min
Histogram: 1 0 0 0 0 0 0 0 0 0

Total # of neighbors = 1401581
Ave neighs/atom = 71.32
Neighbor list builds = 6172
Dangerous builds not checked
Setting up Verlet run ...
  Unit style    : metal
  Current step  : 80002
  Time step     : 0.001
Per MPI rank memory allocation (min/avg/max) = 18.19 | 18.19 | 18.19 Mbytes
Step Temp Press TotEng PotEng Enthalpy 
   80002    2162.7193   -1606.9289   -61039.474   -66532.978   -61393.674 
   80004    2163.5168   -1640.1327   -61039.489   -66535.019   -61401.007 
   80497     2091.894   -56.942073   -61371.508   -66685.109   -61383.997 
Loop time of 92.3835 on 1 procs for 495 steps with 19652 atoms

Performance: 0.463 ns/day, 51.843 hours/ns, 5.358 timesteps/s
100.0% CPU use with 1 MPI tasks x no OpenMP threads

MPI task timing breakdown:
Section |  min time  |  avg time  |  max time  |%varavg| %total
---------------------------------------------------------------
Pair    | 51.393     | 51.393     | 51.393     |   0.0 | 55.63
Neigh   | 39.018     | 39.018     | 39.018     |   0.0 | 42.23
Comm    | 0.75018    | 0.75018    | 0.75018    |   0.0 |  0.81
Output  | 0.068243   | 0.068243   | 0.068243   |   0.0 |  0.07
Modify  | 0.91879    | 0.91879    | 0.91879    |   0.0 |  0.99
Other   |            | 0.2353     |            |       |  0.25

Nlocal:    19652 ave 19652 max 19652 min
Histogram: 1 0 0 0 0 0 0 0 0 0
Nghost:    17907 ave 17907 max 17907 min
Histogram: 1 0 0 0 0 0 0 0 0 0
Neighs:    1.40841e+06 ave 1.40841e+06 max 1.40841e+06 min
Histogram: 1 0 0 0 0 0 0 0 0 0

Total # of neighbors = 1408408
Ave neighs/atom = 71.6674
Neighbor list builds = 495
Dangerous builds not checked
Setting up Verlet run ...
  Unit style    : metal
  Current step  : 80497
  Time step     : 0.001
Per MPI rank memory allocation (min/avg/max) = 18.19 | 18.19 | 18.19 Mbytes
Step Temp Press TotEng PotEng Enthalpy 
   80497     2091.894   -56.942073   -61371.508   -66685.109   -61383.997 
   86669    2103.1855   -40.357841   -61423.804   -66766.087   -61432.639 
Loop time of 1100.85 on 1 procs for 6172 steps with 19652 atoms

Performance: 0.484 ns/day, 49.545 hours/ns, 5.607 timesteps/s
100.0% CPU use with 1 MPI tasks x no OpenMP threads

MPI task timing breakdown:
Section |  min time  |  avg time  |  max time  |%varavg| %total
---------------------------------------------------------------
Pair    | 598.45     | 598.45     | 598.45     |   0.0 | 54.36
Neigh   | 480.88     | 480.88     | 480.88     |   0.0 | 43.68
Comm    | 8.2669     | 8.2669     | 8.2669     |   0.0 |  0.75
Output  | 0.00025511 | 0.00025511 | 0.00025511 |   0.0 |  0.00
Modify  | 10.358     | 10.358     | 10.358     |   0.0 |  0.94
Other   |            | 2.894      |            |       |  0.26

Nlocal:    19652 ave 19652 max 19652 min
Histogram: 1 0 0 0 0 0 0 0 0 0
Nghost:    17977 ave 17977 max 17977 min
Histogram: 1 0 0 0 0 0 0 0 0 0
Neighs:    1.4104e+06 ave 1.4104e+06 max 1.4104e+06 min
Histogram: 1 0 0 0 0 0 0 0 0 0

Total # of neighbors = 1410403
Ave neighs/atom = 71.7689
Neighbor list builds = 6172
Dangerous builds not checked
Setting up Verlet run ...
  Unit style    : metal
  Current step  : 86669
  Time step     : 0.001
Per MPI rank memory allocation (min/avg/max) = 18.19 | 18.19 | 18.19 Mbytes
Step Temp Press TotEng PotEng Enthalpy 
   86669    2103.1855   -40.357841   -61423.804   -66766.087   -61432.639 
   86671    2103.1854   -59.284517   -61423.808    -66766.09   -61436.786 
   87164    2052.2815    1728.6095   -61709.339   -66922.321   -61332.705 
Loop time of 85.3925 on 1 procs for 495 steps with 19652 atoms

Performance: 0.501 ns/day, 47.919 hours/ns, 5.797 timesteps/s
100.0% CPU use with 1 MPI tasks x no OpenMP threads

MPI task timing breakdown:
Section |  min time  |  avg time  |  max time  |%varavg| %total
---------------------------------------------------------------
Pair    | 46.517     | 46.517     | 46.517     |   0.0 | 54.47
Neigh   | 37.194     | 37.194     | 37.194     |   0.0 | 43.56
Comm    | 0.62163    | 0.62163    | 0.62163    |   0.0 |  0.73
Output  | 0.068979   | 0.068979   | 0.068979   |   0.0 |  0.08
Modify  | 0.76585    | 0.76585    | 0.76585    |   0.0 |  0.90
Other   |            | 0.225      |            |       |  0.26

Nlocal:    19652 ave 19652 max 19652 min
Histogram: 1 0 0 0 0 0 0 0 0 0
Nghost:    18001 ave 18001 max 18001 min
Histogram: 1 0 0 0 0 0 0 0 0 0
Neighs:    1.41709e+06 ave 1.41709e+06 max 1.41709e+06 min
Histogram: 1 0 0 0 0 0 0 0 0 0

Total # of neighbors = 1417089
Ave neighs/atom = 72.1091
Neighbor list builds = 495
Dangerous builds not checked
Setting up Verlet run ...
  Unit style    : metal
  Current step  : 87164
  Time step     : 0.001
Per MPI rank memory allocation (min/avg/max) = 18.19 | 18.19 | 18.19 Mbytes
Step Temp Press TotEng PotEng Enthalpy 
   87164    2052.2815    1728.6095   -61709.339   -66922.321   -61332.705 
   93336    2071.0241   -116.20106   -61769.395   -67029.985   -61794.695 
Loop time of 1117.03 on 1 procs for 6172 steps with 19652 atoms

Performance: 0.477 ns/day, 50.273 hours/ns, 5.525 timesteps/s
100.0% CPU use with 1 MPI tasks x no OpenMP threads

MPI task timing breakdown:
Section |  min time  |  avg time  |  max time  |%varavg| %total
---------------------------------------------------------------
Pair    | 611.37     | 611.37     | 611.37     |   0.0 | 54.73
Neigh   | 484.21     | 484.21     | 484.21     |   0.0 | 43.35
Comm    | 8.3301     | 8.3301     | 8.3301     |   0.0 |  0.75
Output  | 0.019383   | 0.019383   | 0.019383   |   0.0 |  0.00
Modify  | 10.241     | 10.241     | 10.241     |   0.0 |  0.92
Other   |            | 2.868      |            |       |  0.26

Nlocal:    19652 ave 19652 max 19652 min
Histogram: 1 0 0 0 0 0 0 0 0 0
Nghost:    17910 ave 17910 max 17910 min
Histogram: 1 0 0 0 0 0 0 0 0 0
Neighs:    1.41874e+06 ave 1.41874e+06 max 1.41874e+06 min
Histogram: 1 0 0 0 0 0 0 0 0 0

Total # of neighbors = 1418738
Ave neighs/atom = 72.1931
Neighbor list builds = 6172
Dangerous builds not checked
Setting up Verlet run ...
  Unit style    : metal
  Current step  : 93336
  Time step     : 0.001
Per MPI rank memory allocation (min/avg/max) = 18.19 | 18.19 | 18.19 Mbytes
Step Temp Press TotEng PotEng Enthalpy 
   93336    2071.0241   -116.20106   -61769.395   -67029.985   -61794.695 
   93338    2069.9945   -63.936245   -61769.416   -67027.391   -61783.336 
   93831    2026.6229    606.44982   -61992.685   -67140.492   -61861.005 
Loop time of 90.5896 on 1 procs for 495 steps with 19652 atoms

Performance: 0.472 ns/day, 50.836 hours/ns, 5.464 timesteps/s
100.0% CPU use with 1 MPI tasks x no OpenMP threads

MPI task timing breakdown:
Section |  min time  |  avg time  |  max time  |%varavg| %total
---------------------------------------------------------------
Pair    | 49.505     | 49.505     | 49.505     |   0.0 | 54.65
Neigh   | 39.247     | 39.247     | 39.247     |   0.0 | 43.32
Comm    | 0.66608    | 0.66608    | 0.66608    |   0.0 |  0.74
Output  | 0.083469   | 0.083469   | 0.083469   |   0.0 |  0.09
Modify  | 0.85159    | 0.85159    | 0.85159    |   0.0 |  0.94
Other   |            | 0.2369     |            |       |  0.26

Nlocal:    19652 ave 19652 max 19652 min
Histogram: 1 0 0 0 0 0 0 0 0 0
Nghost:    17954 ave 17954 max 17954 min
Histogram: 1 0 0 0 0 0 0 0 0 0
Neighs:    1.42234e+06 ave 1.42234e+06 max 1.42234e+06 min
Histogram: 1 0 0 0 0 0 0 0 0 0

Total # of neighbors = 1422343
Ave neighs/atom = 72.3765
Neighbor list builds = 495
Dangerous builds not checked
Setting up Verlet run ...
  Unit style    : metal
  Current step  : 93831
  Time step     : 0.001
Per MPI rank memory allocation (min/avg/max) = 18.19 | 18.19 | 18.19 Mbytes
Step Temp Press TotEng PotEng Enthalpy 
   93831    2026.6229    606.44982   -61992.685   -67140.492   -61861.005 
  100003    1989.6466   -2693.1748   -62136.486   -67190.369    -62721.89 
Loop time of 1131.88 on 1 procs for 6172 steps with 19652 atoms

Performance: 0.471 ns/day, 50.942 hours/ns, 5.453 timesteps/s
100.0% CPU use with 1 MPI tasks x no OpenMP threads

MPI task timing breakdown:
Section |  min time  |  avg time  |  max time  |%varavg| %total
---------------------------------------------------------------
Pair    | 620.04     | 620.04     | 620.04     |   0.0 | 54.78
Neigh   | 489.02     | 489.02     | 489.02     |   0.0 | 43.20
Comm    | 8.8203     | 8.8203     | 8.8203     |   0.0 |  0.78
Output  | 0.00026393 | 0.00026393 | 0.00026393 |   0.0 |  0.00
Modify  | 11.052     | 11.052     | 11.052     |   0.0 |  0.98
Other   |            | 2.95       |            |       |  0.26

Nlocal:    19652 ave 19652 max 19652 min
Histogram: 1 0 0 0 0 0 0 0 0 0
Nghost:    17927 ave 17927 max 17927 min
Histogram: 1 0 0 0 0 0 0 0 0 0
Neighs:    1.42144e+06 ave 1.42144e+06 max 1.42144e+06 min
Histogram: 1 0 0 0 0 0 0 0 0 0

Total # of neighbors = 1421437
Ave neighs/atom = 72.3304
Neighbor list builds = 6172
Dangerous builds not checked
Setting up Verlet run ...
  Unit style    : metal
  Current step  : 100003
  Time step     : 0.001
Per MPI rank memory allocation (min/avg/max) = 18.19 | 18.19 | 18.19 Mbytes
Step Temp Press TotEng PotEng Enthalpy 
  100003    1989.6466   -2693.1748   -62136.486   -67190.369    -62721.89 
  100005    1990.1784    -2705.991   -62136.477   -67191.711   -62724.666 
  100498    1955.7662   -1821.0363   -62329.343   -67297.168   -62724.122 
Loop time of 90.0459 on 1 procs for 495 steps with 19652 atoms

Performance: 0.475 ns/day, 50.531 hours/ns, 5.497 timesteps/s
100.0% CPU use with 1 MPI tasks x no OpenMP threads

MPI task timing breakdown:
Section |  min time  |  avg time  |  max time  |%varavg| %total
---------------------------------------------------------------
Pair    | 49.441     | 49.441     | 49.441     |   0.0 | 54.91
Neigh   | 38.611     | 38.611     | 38.611     |   0.0 | 42.88
Comm    | 0.74695    | 0.74695    | 0.74695    |   0.0 |  0.83
Output  | 0.067049   | 0.067049   | 0.067049   |   0.0 |  0.07
Modify  | 0.93631    | 0.93631    | 0.93631    |   0.0 |  1.04
Other   |            | 0.2439     |            |       |  0.27

Nlocal:    19652 ave 19652 max 19652 min
Histogram: 1 0 0 0 0 0 0 0 0 0
Nghost:    18035 ave 18035 max 18035 min
Histogram: 1 0 0 0 0 0 0 0 0 0
Neighs:    1.42472e+06 ave 1.42472e+06 max 1.42472e+06 min
Histogram: 1 0 0 0 0 0 0 0 0 0

Total # of neighbors = 1424722
Ave neighs/atom = 72.4976
Neighbor list builds = 495
Dangerous builds not checked
Setting up Verlet run ...
  Unit style    : metal
  Current step  : 100498
  Time step     : 0.001
Per MPI rank memory allocation (min/avg/max) = 18.19 | 18.19 | 18.19 Mbytes
Step Temp Press TotEng PotEng Enthalpy 
  100498    1955.7662   -1821.0363   -62329.343   -67297.168   -62724.122 
  106670    1938.7229  -0.83220104   -62486.258   -67410.791   -62486.438 
Loop time of 1119.73 on 1 procs for 6172 steps with 19652 atoms

Performance: 0.476 ns/day, 50.395 hours/ns, 5.512 timesteps/s
100.0% CPU use with 1 MPI tasks x no OpenMP threads

MPI task timing breakdown:
Section |  min time  |  avg time  |  max time  |%varavg| %total
---------------------------------------------------------------
Pair    | 612.27     | 612.27     | 612.27     |   0.0 | 54.68
Neigh   | 485.43     | 485.43     | 485.43     |   0.0 | 43.35
Comm    | 8.4318     | 8.4318     | 8.4318     |   0.0 |  0.75
Output  | 0.018085   | 0.018085   | 0.018085   |   0.0 |  0.00
Modify  | 10.688     | 10.688     | 10.688     |   0.0 |  0.95
Other   |            | 2.903      |            |       |  0.26

Nlocal:    19652 ave 19652 max 19652 min
Histogram: 1 0 0 0 0 0 0 0 0 0
Nghost:    17946 ave 17946 max 17946 min
Histogram: 1 0 0 0 0 0 0 0 0 0
Neighs:    1.43086e+06 ave 1.43086e+06 max 1.43086e+06 min
Histogram: 1 0 0 0 0 0 0 0 0 0

Total # of neighbors = 1430865
Ave neighs/atom = 72.8101
Neighbor list builds = 6172
Dangerous builds not checked
Setting up Verlet run ...
  Unit style    : metal
  Current step  : 106670
  Time step     : 0.001
Per MPI rank memory allocation (min/avg/max) = 18.19 | 18.19 | 18.19 Mbytes
Step Temp Press TotEng PotEng Enthalpy 
  106670    1938.7229  -0.83220104   -62486.258   -67410.791   -62486.438 
  106672    1938.8909   -36.178721   -62486.247   -67411.206   -62494.057 
  107165    1916.8658    410.87355   -62681.151   -67550.165   -62592.737 
Loop time of 87.6072 on 1 procs for 495 steps with 19652 atoms

Performance: 0.488 ns/day, 49.162 hours/ns, 5.650 timesteps/s
99.9% CPU use with 1 MPI tasks x no OpenMP threads

MPI task timing breakdown:
Section |  min time  |  avg time  |  max time  |%varavg| %total
---------------------------------------------------------------
Pair    | 48.14      | 48.14      | 48.14      |   0.0 | 54.95
Neigh   | 37.606     | 37.606     | 37.606     |   0.0 | 42.93
Comm    | 0.67301    | 0.67301    | 0.67301    |   0.0 |  0.77
Output  | 0.08317    | 0.08317    | 0.08317    |   0.0 |  0.09
Modify  | 0.87146    | 0.87146    | 0.87146    |   0.0 |  0.99
Other   |            | 0.2333     |            |       |  0.27

Nlocal:    19652 ave 19652 max 19652 min
Histogram: 1 0 0 0 0 0 0 0 0 0
Nghost:    18015 ave 18015 max 18015 min
Histogram: 1 0 0 0 0 0 0 0 0 0
Neighs:    1.43592e+06 ave 1.43592e+06 max 1.43592e+06 min
Histogram: 1 0 0 0 0 0 0 0 0 0

Total # of neighbors = 1435917
Ave neighs/atom = 73.0672
Neighbor list builds = 495
Dangerous builds not checked
Setting up Verlet run ...
  Unit style    : metal
  Current step  : 107165
  Time step     : 0.001
Per MPI rank memory allocation (min/avg/max) = 18.19 | 18.19 | 18.19 Mbytes
Step Temp Press TotEng PotEng Enthalpy 
  107165    1916.8658    410.87355   -62681.151   -67550.165   -62592.737 
  113337     1892.676   -1515.8705   -62823.488   -67631.057   -63149.716 
Loop time of 1115.16 on 1 procs for 6172 steps with 19652 atoms

Performance: 0.478 ns/day, 50.189 hours/ns, 5.535 timesteps/s
100.0% CPU use with 1 MPI tasks x no OpenMP threads

MPI task timing breakdown:
Section |  min time  |  avg time  |  max time  |%varavg| %total
---------------------------------------------------------------
Pair    | 612.45     | 612.45     | 612.45     |   0.0 | 54.92
Neigh   | 480.36     | 480.36     | 480.36     |   0.0 | 43.08
Comm    | 8.6212     | 8.6212     | 8.6212     |   0.0 |  0.77
Output  | 0.010045   | 0.010045   | 0.010045   |   0.0 |  0.00
Modify  | 10.825     | 10.825     | 10.825     |   0.0 |  0.97
Other   |            | 2.898      |            |       |  0.26

Nlocal:    19652 ave 19652 max 19652 min
Histogram: 1 0 0 0 0 0 0 0 0 0
Nghost:    18058 ave 18058 max 18058 min
Histogram: 1 0 0 0 0 0 0 0 0 0
Neighs:    1.43511e+06 ave 1.43511e+06 max 1.43511e+06 min
Histogram: 1 0 0 0 0 0 0 0 0 0

Total # of neighbors = 1435106
Ave neighs/atom = 73.026
Neighbor list builds = 6172
Dangerous builds not checked
Setting up Verlet run ...
  Unit style    : metal
  Current step  : 113337
  Time step     : 0.001
Per MPI rank memory allocation (min/avg/max) = 18.19 | 18.19 | 18.19 Mbytes
Step Temp Press TotEng PotEng Enthalpy 
  113337     1892.676   -1515.8705   -62823.488   -67631.057   -63149.716 
  113339    1892.9563   -1530.8391   -62823.481   -67631.762   -63152.931 
  113832    1878.6864   -171.03446   -62999.552   -67771.587    -63036.22 
Loop time of 85.5649 on 1 procs for 495 steps with 19652 atoms

Performance: 0.500 ns/day, 48.016 hours/ns, 5.785 timesteps/s
100.0% CPU use with 1 MPI tasks x no OpenMP threads

MPI task timing breakdown:
Section |  min time  |  avg time  |  max time  |%varavg| %total
---------------------------------------------------------------
Pair    | 46.712     | 46.712     | 46.712     |   0.0 | 54.59
Neigh   | 37.015     | 37.015     | 37.015     |   0.0 | 43.26
Comm    | 0.6896     | 0.6896     | 0.6896     |   0.0 |  0.81
Output  | 0.075323   | 0.075323   | 0.075323   |   0.0 |  0.09
Modify  | 0.84212    | 0.84212    | 0.84212    |   0.0 |  0.98
Other   |            | 0.2306     |            |       |  0.27

Nlocal:    19652 ave 19652 max 19652 min
Histogram: 1 0 0 0 0 0 0 0 0 0
Nghost:    18005 ave 18005 max 18005 min
Histogram: 1 0 0 0 0 0 0 0 0 0
Neighs:    1.44075e+06 ave 1.44075e+06 max 1.44075e+06 min
Histogram: 1 0 0 0 0 0 0 0 0 0

Total # of neighbors = 1440748
Ave neighs/atom = 73.313
Neighbor list builds = 495
Dangerous builds not checked
Setting up Verlet run ...
  Unit style    : metal
  Current step  : 113832
  Time step     : 0.001
Per MPI rank memory allocation (min/avg/max) = 18.19 | 18.19 | 18.19 Mbytes
Step Temp Press TotEng PotEng Enthalpy 
  113832    1878.6864   -171.03446   -62999.552   -67771.587    -63036.22 
  120004    1867.3797    776.10268   -63047.757   -67791.071   -62881.511 
Loop time of 1118.93 on 1 procs for 6172 steps with 19652 atoms

Performance: 0.477 ns/day, 50.359 hours/ns, 5.516 timesteps/s
100.0% CPU use with 1 MPI tasks x no OpenMP threads

MPI task timing breakdown:
Section |  min time  |  avg time  |  max time  |%varavg| %total
---------------------------------------------------------------
Pair    | 614.11     | 614.11     | 614.11     |   0.0 | 54.88
Neigh   | 482.88     | 482.88     | 482.88     |   0.0 | 43.16
Comm    | 8.4094     | 8.4094     | 8.4094     |   0.0 |  0.75
Output  | 0.000247   | 0.000247   | 0.000247   |   0.0 |  0.00
Modify  | 10.627     | 10.627     | 10.627     |   0.0 |  0.95
Other   |            | 2.898      |            |       |  0.26

Nlocal:    19652 ave 19652 max 19652 min
Histogram: 1 0 0 0 0 0 0 0 0 0
Nghost:    18023 ave 18023 max 18023 min
Histogram: 1 0 0 0 0 0 0 0 0 0
Neighs:    1.44163e+06 ave 1.44163e+06 max 1.44163e+06 min
Histogram: 1 0 0 0 0 0 0 0 0 0

Total # of neighbors = 1441630
Ave neighs/atom = 73.3579
Neighbor list builds = 6172
Dangerous builds not checked
Setting up Verlet run ...
  Unit style    : metal
  Current step  : 120004
  Time step     : 0.001
Per MPI rank memory allocation (min/avg/max) = 18.19 | 18.19 | 18.19 Mbytes
Step Temp Press TotEng PotEng Enthalpy 
  120004    1867.3797    776.10268   -63047.757   -67791.071   -62881.511 
  120006    1867.1066    767.23204   -63047.773   -67790.394   -62883.427 
  120499    1816.0849    366.03108   -63331.212   -67944.233   -63253.054 
Loop time of 86.0917 on 1 procs for 495 steps with 19652 atoms

Performance: 0.497 ns/day, 48.312 hours/ns, 5.750 timesteps/s
99.9% CPU use with 1 MPI tasks x no OpenMP threads

MPI task timing breakdown:
Section |  min time  |  avg time  |  max time  |%varavg| %total
---------------------------------------------------------------
Pair    | 46.687     | 46.687     | 46.687     |   0.0 | 54.23
Neigh   | 37.635     | 37.635     | 37.635     |   0.0 | 43.72
Comm    | 0.64734    | 0.64734    | 0.64734    |   0.0 |  0.75
Output  | 0.068062   | 0.068062   | 0.068062   |   0.0 |  0.08
Modify  | 0.82391    | 0.82391    | 0.82391    |   0.0 |  0.96
Other   |            | 0.2307     |            |       |  0.27

Nlocal:    19652 ave 19652 max 19652 min
Histogram: 1 0 0 0 0 0 0 0 0 0
Nghost:    18095 ave 18095 max 18095 min
Histogram: 1 0 0 0 0 0 0 0 0 0
Neighs:    1.44614e+06 ave 1.44614e+06 max 1.44614e+06 min
Histogram: 1 0 0 0 0 0 0 0 0 0

Total # of neighbors = 1446136
Ave neighs/atom = 73.5872
Neighbor list builds = 495
Dangerous builds not checked
Setting up Verlet run ...
  Unit style    : metal
  Current step  : 120499
  Time step     : 0.001
Per MPI rank memory allocation (min/avg/max) = 18.19 | 18.19 | 18.19 Mbytes
Step Temp Press TotEng PotEng Enthalpy 
  120499    1816.0849    366.03108   -63331.212   -67944.233   -63253.054 
  126671    1811.6863   -779.14181   -63425.996   -68027.844   -63592.256 
Loop time of 1105.55 on 1 procs for 6172 steps with 19652 atoms

Performance: 0.482 ns/day, 49.757 hours/ns, 5.583 timesteps/s
100.0% CPU use with 1 MPI tasks x no OpenMP threads

MPI task timing breakdown:
Section |  min time  |  avg time  |  max time  |%varavg| %total
---------------------------------------------------------------
Pair    | 605.23     | 605.23     | 605.23     |   0.0 | 54.74
Neigh   | 478.35     | 478.35     | 478.35     |   0.0 | 43.27
Comm    | 8.4232     | 8.4232     | 8.4232     |   0.0 |  0.76
Output  | 0.021092   | 0.021092   | 0.021092   |   0.0 |  0.00
Modify  | 10.667     | 10.667     | 10.667     |   0.0 |  0.96
Other   |            | 2.859      |            |       |  0.26

Nlocal:    19652 ave 19652 max 19652 min
Histogram: 1 0 0 0 0 0 0 0 0 0
Nghost:    18153 ave 18153 max 18153 min
Histogram: 1 0 0 0 0 0 0 0 0 0
Neighs:    1.44748e+06 ave 1.44748e+06 max 1.44748e+06 min
Histogram: 1 0 0 0 0 0 0 0 0 0

Total # of neighbors = 1447484
Ave neighs/atom = 73.6558
Neighbor list builds = 6172
Dangerous builds not checked
Setting up Verlet run ...
  Unit style    : metal
  Current step  : 126671
  Time step     : 0.001
Per MPI rank memory allocation (min/avg/max) = 18.19 | 18.19 | 18.19 Mbytes
Step Temp Press TotEng PotEng Enthalpy 
  126671    1811.6863   -779.14181   -63425.996   -68027.844   -63592.256 
  126673     1811.878   -799.14639   -63426.009   -68028.344   -63596.537 
  127166    1755.6708   -2.0422959   -63664.017   -68123.581   -63664.452 
Loop time of 84.7124 on 1 procs for 495 steps with 19652 atoms

Performance: 0.505 ns/day, 47.538 hours/ns, 5.843 timesteps/s
100.0% CPU use with 1 MPI tasks x no OpenMP threads

MPI task timing breakdown:
Section |  min time  |  avg time  |  max time  |%varavg| %total
---------------------------------------------------------------
Pair    | 45.783     | 45.783     | 45.783     |   0.0 | 54.04
Neigh   | 37.151     | 37.151     | 37.151     |   0.0 | 43.85
Comm    | 0.63503    | 0.63503    | 0.63503    |   0.0 |  0.75
Output  | 0.074652   | 0.074652   | 0.074652   |   0.0 |  0.09
Modify  | 0.83811    | 0.83811    | 0.83811    |   0.0 |  0.99
Other   |            | 0.2312     |            |       |  0.27

Nlocal:    19652 ave 19652 max 19652 min
Histogram: 1 0 0 0 0 0 0 0 0 0
Nghost:    18089 ave 18089 max 18089 min
Histogram: 1 0 0 0 0 0 0 0 0 0
Neighs:    1.45098e+06 ave 1.45098e+06 max 1.45098e+06 min
Histogram: 1 0 0 0 0 0 0 0 0 0

Total # of neighbors = 1450980
Ave neighs/atom = 73.8337
Neighbor list builds = 495
Dangerous builds not checked
Setting up Verlet run ...
  Unit style    : metal
  Current step  : 127166
  Time step     : 0.001
Per MPI rank memory allocation (min/avg/max) = 18.19 | 18.19 | 18.19 Mbytes
Step Temp Press TotEng PotEng Enthalpy 
  127166    1755.6708   -2.0422959   -63664.017   -68123.581   -63664.452 
  133338    1765.9147    554.59821   -63828.284   -68313.868    -63710.75 
Loop time of 1083.21 on 1 procs for 6172 steps with 19652 atoms

Performance: 0.492 ns/day, 48.751 hours/ns, 5.698 timesteps/s
99.9% CPU use with 1 MPI tasks x no OpenMP threads

MPI task timing breakdown:
Section |  min time  |  avg time  |  max time  |%varavg| %total
---------------------------------------------------------------
Pair    | 589.97     | 589.97     | 589.97     |   0.0 | 54.46
Neigh   | 471.99     | 471.99     | 471.99     |   0.0 | 43.57
Comm    | 8.0492     | 8.0492     | 8.0492     |   0.0 |  0.74
Output  | 0.013712   | 0.013712   | 0.013712   |   0.0 |  0.00
Modify  | 10.381     | 10.381     | 10.381     |   0.0 |  0.96
Other   |            | 2.806      |            |       |  0.26

Nlocal:    19652 ave 19652 max 19652 min
Histogram: 1 0 0 0 0 0 0 0 0 0
Nghost:    18180 ave 18180 max 18180 min
Histogram: 1 0 0 0 0 0 0 0 0 0
Neighs:    1.45673e+06 ave 1.45673e+06 max 1.45673e+06 min
Histogram: 1 0 0 0 0 0 0 0 0 0

Total # of neighbors = 1456730
Ave neighs/atom = 74.1263
Neighbor list builds = 6172
Dangerous builds not checked
Setting up Verlet run ...
  Unit style    : metal
  Current step  : 133338
  Time step     : 0.001
Per MPI rank memory allocation (min/avg/max) = 18.19 | 18.19 | 18.19 Mbytes
Step Temp Press TotEng PotEng Enthalpy 
  133338    1765.9147    554.59821   -63828.284   -68313.868    -63710.75 
  133340    1765.9163    553.05404     -63828.3   -68313.889   -63711.094 
  133833    1706.2147   -241.07099   -64022.829    -68356.77   -64073.882 
Loop time of 86.1853 on 1 procs for 495 steps with 19652 atoms

Performance: 0.496 ns/day, 48.364 hours/ns, 5.743 timesteps/s
100.0% CPU use with 1 MPI tasks x no OpenMP threads

MPI task timing breakdown:
Section |  min time  |  avg time  |  max time  |%varavg| %total
---------------------------------------------------------------
Pair    | 46.947     | 46.947     | 46.947     |   0.0 | 54.47
Neigh   | 37.464     | 37.464     | 37.464     |   0.0 | 43.47
Comm    | 0.64228    | 0.64228    | 0.64228    |   0.0 |  0.75
Output  | 0.078018   | 0.078018   | 0.078018   |   0.0 |  0.09
Modify  | 0.82276    | 0.82276    | 0.82276    |   0.0 |  0.95
Other   |            | 0.2314     |            |       |  0.27

Nlocal:    19652 ave 19652 max 19652 min
Histogram: 1 0 0 0 0 0 0 0 0 0
Nghost:    18157 ave 18157 max 18157 min
Histogram: 1 0 0 0 0 0 0 0 0 0
Neighs:    1.45809e+06 ave 1.45809e+06 max 1.45809e+06 min
Histogram: 1 0 0 0 0 0 0 0 0 0

Total # of neighbors = 1458090
Ave neighs/atom = 74.1955
Neighbor list builds = 495
Dangerous builds not checked
Setting up Verlet run ...
  Unit style    : metal
  Current step  : 133833
  Time step     : 0.001
Per MPI rank memory allocation (min/avg/max) = 18.19 | 18.19 | 18.19 Mbytes
Step Temp Press TotEng PotEng Enthalpy 
  133833    1706.2147   -241.07099   -64022.829    -68356.77   -64073.882 
  140005    1703.3075    2775.7464   -64221.771   -68548.328   -63637.291 
Loop time of 1085.07 on 1 procs for 6172 steps with 19652 atoms

Performance: 0.491 ns/day, 48.835 hours/ns, 5.688 timesteps/s
100.0% CPU use with 1 MPI tasks x no OpenMP threads

MPI task timing breakdown:
Section |  min time  |  avg time  |  max time  |%varavg| %total
---------------------------------------------------------------
Pair    | 592.38     | 592.38     | 592.38     |   0.0 | 54.59
Neigh   | 471.34     | 471.34     | 471.34     |   0.0 | 43.44
Comm    | 8.0929     | 8.0929     | 8.0929     |   0.0 |  0.75
Output  | 0.00036383 | 0.00036383 | 0.00036383 |   0.0 |  0.00
Modify  | 10.417     | 10.417     | 10.417     |   0.0 |  0.96
Other   |            | 2.844      |            |       |  0.26

Nlocal:    19652 ave 19652 max 19652 min
Histogram: 1 0 0 0 0 0 0 0 0 0
Nghost:    18174 ave 18174 max 18174 min
Histogram: 1 0 0 0 0 0 0 0 0 0
Neighs:    1.46618e+06 ave 1.46618e+06 max 1.46618e+06 min
Histogram: 1 0 0 0 0 0 0 0 0 0

Total # of neighbors = 1466181
Ave neighs/atom = 74.6072
Neighbor list builds = 6172
Dangerous builds not checked
Setting up Verlet run ...
  Unit style    : metal
  Current step  : 140005
  Time step     : 0.001
Per MPI rank memory allocation (min/avg/max) = 18.19 | 18.19 | 18.19 Mbytes
Step Temp Press TotEng PotEng Enthalpy 
  140005    1703.3075    2775.7464   -64221.771   -68548.328   -63637.291 
  140007    1703.7503    2753.2512   -64221.777   -68549.457   -63642.032 
  140500    1656.9631   -332.40725   -64390.564   -68599.401   -64460.632 
Loop time of 85.3331 on 1 procs for 495 steps with 19652 atoms

Performance: 0.501 ns/day, 47.886 hours/ns, 5.801 timesteps/s
100.0% CPU use with 1 MPI tasks x no OpenMP threads

MPI task timing breakdown:
Section |  min time  |  avg time  |  max time  |%varavg| %total
---------------------------------------------------------------
Pair    | 46.243     | 46.243     | 46.243     |   0.0 | 54.19
Neigh   | 37.334     | 37.334     | 37.334     |   0.0 | 43.75
Comm    | 0.62411    | 0.62411    | 0.62411    |   0.0 |  0.73
Output  | 0.066288   | 0.066288   | 0.066288   |   0.0 |  0.08
Modify  | 0.83892    | 0.83892    | 0.83892    |   0.0 |  0.98
Other   |            | 0.2263     |            |       |  0.27

Nlocal:    19652 ave 19652 max 19652 min
Histogram: 1 0 0 0 0 0 0 0 0 0
Nghost:    18214 ave 18214 max 18214 min
Histogram: 1 0 0 0 0 0 0 0 0 0
Neighs:    1.46456e+06 ave 1.46456e+06 max 1.46456e+06 min
Histogram: 1 0 0 0 0 0 0 0 0 0

Total # of neighbors = 1464565
Ave neighs/atom = 74.525
Neighbor list builds = 495
Dangerous builds not checked
Setting up Verlet run ...
  Unit style    : metal
  Current step  : 140500
  Time step     : 0.001
Per MPI rank memory allocation (min/avg/max) = 18.19 | 18.19 | 18.19 Mbytes
Step Temp Press TotEng PotEng Enthalpy 
  140500    1656.9631   -332.40725   -64390.564   -68599.401   -64460.632 
  146672    1659.0655    1432.0978   -64483.285   -68697.463   -64182.331 
Loop time of 1098.7 on 1 procs for 6172 steps with 19652 atoms

Performance: 0.485 ns/day, 49.448 hours/ns, 5.618 timesteps/s
100.0% CPU use with 1 MPI tasks x no OpenMP threads

MPI task timing breakdown:
Section |  min time  |  avg time  |  max time  |%varavg| %total
---------------------------------------------------------------
Pair    | 600.06     | 600.06     | 600.06     |   0.0 | 54.62
Neigh   | 476.67     | 476.67     | 476.67     |   0.0 | 43.38
Comm    | 8.3722     | 8.3722     | 8.3722     |   0.0 |  0.76
Output  | 0.00025392 | 0.00025392 | 0.00025392 |   0.0 |  0.00
Modify  | 10.675     | 10.675     | 10.675     |   0.0 |  0.97
Other   |            | 2.922      |            |       |  0.27

Nlocal:    19652 ave 19652 max 19652 min
Histogram: 1 0 0 0 0 0 0 0 0 0
Nghost:    18223 ave 18223 max 18223 min
Histogram: 1 0 0 0 0 0 0 0 0 0
Neighs:    1.46928e+06 ave 1.46928e+06 max 1.46928e+06 min
Histogram: 1 0 0 0 0 0 0 0 0 0

Total # of neighbors = 1469278
Ave neighs/atom = 74.7648
Neighbor list builds = 6172
Dangerous builds not checked
Setting up Verlet run ...
  Unit style    : metal
  Current step  : 146672
  Time step     : 0.001
Per MPI rank memory allocation (min/avg/max) = 18.19 | 18.19 | 18.19 Mbytes
Step Temp Press TotEng PotEng Enthalpy 
  146672    1659.0655    1432.0978   -64483.285   -68697.463   -64182.331 
  146674    1658.6941     1427.375   -64483.295   -68696.529   -64183.333 
  147167    1611.1172   -1429.4714   -64715.785   -68808.169   -65016.229 
Loop time of 83.6262 on 1 procs for 495 steps with 19652 atoms

Performance: 0.511 ns/day, 46.928 hours/ns, 5.919 timesteps/s
99.8% CPU use with 1 MPI tasks x no OpenMP threads

MPI task timing breakdown:
Section |  min time  |  avg time  |  max time  |%varavg| %total
---------------------------------------------------------------
Pair    | 45.229     | 45.229     | 45.229     |   0.0 | 54.08
Neigh   | 36.628     | 36.628     | 36.628     |   0.0 | 43.80
Comm    | 0.636      | 0.636      | 0.636      |   0.0 |  0.76
Output  | 0.068965   | 0.068965   | 0.068965   |   0.0 |  0.08
Modify  | 0.83184    | 0.83184    | 0.83184    |   0.0 |  0.99
Other   |            | 0.2326     |            |       |  0.28

Nlocal:    19652 ave 19652 max 19652 min
Histogram: 1 0 0 0 0 0 0 0 0 0
Nghost:    18234 ave 18234 max 18234 min
Histogram: 1 0 0 0 0 0 0 0 0 0
Neighs:    1.46903e+06 ave 1.46903e+06 max 1.46903e+06 min
Histogram: 1 0 0 0 0 0 0 0 0 0

Total # of neighbors = 1469026
Ave neighs/atom = 74.752
Neighbor list builds = 495
Dangerous builds not checked
Setting up Verlet run ...
  Unit style    : metal
  Current step  : 147167
  Time step     : 0.001
Per MPI rank memory allocation (min/avg/max) = 18.19 | 18.19 | 18.19 Mbytes
Step Temp Press TotEng PotEng Enthalpy 
  147167    1611.1172   -1429.4714   -64715.785   -68808.169   -65016.229 
  153339     1599.236   -139.37472   -64819.041   -68881.246   -64848.258 
Loop time of 961.018 on 1 procs for 6172 steps with 19652 atoms

Performance: 0.555 ns/day, 43.252 hours/ns, 6.422 timesteps/s
100.0% CPU use with 1 MPI tasks x no OpenMP threads

MPI task timing breakdown:
Section |  min time  |  avg time  |  max time  |%varavg| %total
---------------------------------------------------------------
Pair    | 521.65     | 521.65     | 521.65     |   0.0 | 54.28
Neigh   | 420.31     | 420.31     | 420.31     |   0.0 | 43.74
Comm    | 7.3101     | 7.3101     | 7.3101     |   0.0 |  0.76
Output  | 0.0002079  | 0.0002079  | 0.0002079  |   0.0 |  0.00
Modify  | 9.1823     | 9.1823     | 9.1823     |   0.0 |  0.96
Other   |            | 2.561      |            |       |  0.27

Nlocal:    19652 ave 19652 max 19652 min
Histogram: 1 0 0 0 0 0 0 0 0 0
Nghost:    18285 ave 18285 max 18285 min
Histogram: 1 0 0 0 0 0 0 0 0 0
Neighs:    1.47279e+06 ave 1.47279e+06 max 1.47279e+06 min
Histogram: 1 0 0 0 0 0 0 0 0 0

Total # of neighbors = 1472788
Ave neighs/atom = 74.9434
Neighbor list builds = 6172
Dangerous builds not checked
Setting up Verlet run ...
  Unit style    : metal
  Current step  : 153339
  Time step     : 0.001
Per MPI rank memory allocation (min/avg/max) = 18.19 | 18.19 | 18.19 Mbytes
Step Temp Press TotEng PotEng Enthalpy 
  153339     1599.236   -139.37472   -64819.041   -68881.246   -64848.258 
  153341    1600.1383   -163.92878   -64819.042   -68883.539   -64853.406 
  153834    1562.6565   -805.99381   -65056.438   -69025.728   -65225.003 
Loop time of 59.1868 on 1 procs for 495 steps with 19652 atoms

Performance: 0.723 ns/day, 33.214 hours/ns, 8.363 timesteps/s
99.8% CPU use with 1 MPI tasks x no OpenMP threads

MPI task timing breakdown:
Section |  min time  |  avg time  |  max time  |%varavg| %total
---------------------------------------------------------------
Pair    | 31.348     | 31.348     | 31.348     |   0.0 | 52.96
Neigh   | 26.577     | 26.577     | 26.577     |   0.0 | 44.90
Comm    | 0.44209    | 0.44209    | 0.44209    |   0.0 |  0.75
Output  | 0.10464    | 0.10464    | 0.10464    |   0.0 |  0.18
Modify  | 0.55086    | 0.55086    | 0.55086    |   0.0 |  0.93
Other   |            | 0.164      |            |       |  0.28

Nlocal:    19652 ave 19652 max 19652 min
Histogram: 1 0 0 0 0 0 0 0 0 0
Nghost:    18227 ave 18227 max 18227 min
Histogram: 1 0 0 0 0 0 0 0 0 0
Neighs:    1.4761e+06 ave 1.4761e+06 max 1.4761e+06 min
Histogram: 1 0 0 0 0 0 0 0 0 0

Total # of neighbors = 1476099
Ave neighs/atom = 75.1119
Neighbor list builds = 495
Dangerous builds not checked
Setting up Verlet run ...
  Unit style    : metal
  Current step  : 153834
  Time step     : 0.001
Per MPI rank memory allocation (min/avg/max) = 18.19 | 18.19 | 18.19 Mbytes
Step Temp Press TotEng PotEng Enthalpy 
  153834    1562.6565   -805.99381   -65056.438   -69025.728   -65225.003 
  160006     1558.598   -45.383634   -65107.604   -69066.585   -65117.082 
Loop time of 767.293 on 1 procs for 6172 steps with 19652 atoms

Performance: 0.695 ns/day, 34.533 hours/ns, 8.044 timesteps/s
99.9% CPU use with 1 MPI tasks x no OpenMP threads

MPI task timing breakdown:
Section |  min time  |  avg time  |  max time  |%varavg| %total
---------------------------------------------------------------
Pair    | 408.88     | 408.88     | 408.88     |   0.0 | 53.29
Neigh   | 343.78     | 343.78     | 343.78     |   0.0 | 44.80
Comm    | 5.6149     | 5.6149     | 5.6149     |   0.0 |  0.73
Output  | 0.00024605 | 0.00024605 | 0.00024605 |   0.0 |  0.00
Modify  | 6.9942     | 6.9942     | 6.9942     |   0.0 |  0.91
Other   |            | 2.019      |            |       |  0.26

Nlocal:    19652 ave 19652 max 19652 min
Histogram: 1 0 0 0 0 0 0 0 0 0
Nghost:    18233 ave 18233 max 18233 min
Histogram: 1 0 0 0 0 0 0 0 0 0
Neighs:    1.47792e+06 ave 1.47792e+06 max 1.47792e+06 min
Histogram: 1 0 0 0 0 0 0 0 0 0

Total # of neighbors = 1477915
Ave neighs/atom = 75.2043
Neighbor list builds = 6172
Dangerous builds not checked
Setting up Verlet run ...
  Unit style    : metal
  Current step  : 160006
  Time step     : 0.001
Per MPI rank memory allocation (min/avg/max) = 18.19 | 18.19 | 18.19 Mbytes
Step Temp Press TotEng PotEng Enthalpy 
  160006     1558.598   -45.383634   -65107.604   -69066.585   -65117.082 
  160008    1558.9437    -57.86565   -65107.613   -69067.472   -65119.699 
  160501    1519.5938     42.05415   -65384.863    -69244.77    -65376.11 
Loop time of 56.7494 on 1 procs for 495 steps with 19652 atoms

Performance: 0.754 ns/day, 31.846 hours/ns, 8.723 timesteps/s
100.0% CPU use with 1 MPI tasks x no OpenMP threads

MPI task timing breakdown:
Section |  min time  |  avg time  |  max time  |%varavg| %total
---------------------------------------------------------------
Pair    | 29.88      | 29.88      | 29.88      |   0.0 | 52.65
Neigh   | 25.761     | 25.761     | 25.761     |   0.0 | 45.39
Comm    | 0.40519    | 0.40519    | 0.40519    |   0.0 |  0.71
Output  | 0.041293   | 0.041293   | 0.041293   |   0.0 |  0.07
Modify  | 0.51359    | 0.51359    | 0.51359    |   0.0 |  0.91
Other   |            | 0.1476     |            |       |  0.26

Nlocal:    19652 ave 19652 max 19652 min
Histogram: 1 0 0 0 0 0 0 0 0 0
Nghost:    18231 ave 18231 max 18231 min
Histogram: 1 0 0 0 0 0 0 0 0 0
Neighs:    1.48332e+06 ave 1.48332e+06 max 1.48332e+06 min
Histogram: 1 0 0 0 0 0 0 0 0 0

Total # of neighbors = 1483322
Ave neighs/atom = 75.4794
Neighbor list builds = 495
Dangerous builds not checked
Setting up Verlet run ...
  Unit style    : metal
  Current step  : 160501
  Time step     : 0.001
Per MPI rank memory allocation (min/avg/max) = 18.19 | 18.19 | 18.19 Mbytes
Step Temp Press TotEng PotEng Enthalpy 
  160501    1519.5938     42.05415   -65384.863    -69244.77    -65376.11 
  166673    1506.7794   -1836.5684   -65531.672   -69359.029   -65913.749 
Loop time of 822.619 on 1 procs for 6172 steps with 19652 atoms

Performance: 0.648 ns/day, 37.023 hours/ns, 7.503 timesteps/s
99.7% CPU use with 1 MPI tasks x no OpenMP threads

MPI task timing breakdown:
Section |  min time  |  avg time  |  max time  |%varavg| %total
---------------------------------------------------------------
Pair    | 440.05     | 440.05     | 440.05     |   0.0 | 53.49
Neigh   | 366.79     | 366.79     | 366.79     |   0.0 | 44.59
Comm    | 6.039      | 6.039      | 6.039      |   0.0 |  0.73
Output  | 0.00017095 | 0.00017095 | 0.00017095 |   0.0 |  0.00
Modify  | 7.5671     | 7.5671     | 7.5671     |   0.0 |  0.92
Other   |            | 2.169      |            |       |  0.26

Nlocal:    19652 ave 19652 max 19652 min
Histogram: 1 0 0 0 0 0 0 0 0 0
Nghost:    18333 ave 18333 max 18333 min
Histogram: 1 0 0 0 0 0 0 0 0 0
Neighs:    1.48333e+06 ave 1.48333e+06 max 1.48333e+06 min
Histogram: 1 0 0 0 0 0 0 0 0 0

Total # of neighbors = 1483329
Ave neighs/atom = 75.4798
Neighbor list builds = 6172
Dangerous builds not checked
Setting up Verlet run ...
  Unit style    : metal
  Current step  : 166673
  Time step     : 0.001
Per MPI rank memory allocation (min/avg/max) = 18.19 | 18.19 | 18.19 Mbytes
Step Temp Press TotEng PotEng Enthalpy 
  166673    1506.7794   -1836.5684   -65531.672   -69359.029   -65913.749 
  166675    1506.9247   -1834.2686   -65531.679   -69359.405   -65913.278 
  167168    1464.2094   -279.09049   -65759.182   -69478.408   -65817.027 
Loop time of 67.3785 on 1 procs for 495 steps with 19652 atoms

Performance: 0.635 ns/day, 37.811 hours/ns, 7.347 timesteps/s
99.9% CPU use with 1 MPI tasks x no OpenMP threads

MPI task timing breakdown:
Section |  min time  |  avg time  |  max time  |%varavg| %total
---------------------------------------------------------------
Pair    | 36.203     | 36.203     | 36.203     |   0.0 | 53.73
Neigh   | 29.814     | 29.814     | 29.814     |   0.0 | 44.25
Comm    | 0.49635    | 0.49635    | 0.49635    |   0.0 |  0.74
Output  | 0.057325   | 0.057325   | 0.057325   |   0.0 |  0.09
Modify  | 0.62761    | 0.62761    | 0.62761    |   0.0 |  0.93
Other   |            | 0.1797     |            |       |  0.27

Nlocal:    19652 ave 19652 max 19652 min
Histogram: 1 0 0 0 0 0 0 0 0 0
Nghost:    18332 ave 18332 max 18332 min
Histogram: 1 0 0 0 0 0 0 0 0 0
Neighs:    1.48876e+06 ave 1.48876e+06 max 1.48876e+06 min
Histogram: 1 0 0 0 0 0 0 0 0 0

Total # of neighbors = 1488760
Ave neighs/atom = 75.7562
Neighbor list builds = 495
Dangerous builds not checked
Setting up Verlet run ...
  Unit style    : metal
  Current step  : 167168
  Time step     : 0.001
Per MPI rank memory allocation (min/avg/max) = 18.19 | 18.19 | 18.19 Mbytes
Step Temp Press TotEng PotEng Enthalpy 
  167168    1464.2094   -279.09049   -65759.182   -69478.408   -65817.027 
  173340    1452.0702    303.01141   -65905.065   -69593.456    -65842.42 
Loop time of 845.395 on 1 procs for 6172 steps with 19652 atoms

Performance: 0.631 ns/day, 38.048 hours/ns, 7.301 timesteps/s
99.8% CPU use with 1 MPI tasks x no OpenMP threads

MPI task timing breakdown:
Section |  min time  |  avg time  |  max time  |%varavg| %total
---------------------------------------------------------------
Pair    | 454.55     | 454.55     | 454.55     |   0.0 | 53.77
Neigh   | 374.67     | 374.67     | 374.67     |   0.0 | 44.32
Comm    | 6.1949     | 6.1949     | 6.1949     |   0.0 |  0.73
Output  | 0.00016117 | 0.00016117 | 0.00016117 |   0.0 |  0.00
Modify  | 7.7607     | 7.7607     | 7.7607     |   0.0 |  0.92
Other   |            | 2.22       |            |       |  0.26

Nlocal:    19652 ave 19652 max 19652 min
Histogram: 1 0 0 0 0 0 0 0 0 0
Nghost:    18335 ave 18335 max 18335 min
Histogram: 1 0 0 0 0 0 0 0 0 0
Neighs:    1.49247e+06 ave 1.49247e+06 max 1.49247e+06 min
Histogram: 1 0 0 0 0 0 0 0 0 0

Total # of neighbors = 1492468
Ave neighs/atom = 75.9448
Neighbor list builds = 6172
Dangerous builds not checked
Setting up Verlet run ...
  Unit style    : metal
  Current step  : 173340
  Time step     : 0.001
Per MPI rank memory allocation (min/avg/max) = 18.19 | 18.19 | 18.19 Mbytes
Step Temp Press TotEng PotEng Enthalpy 
  173340    1452.0702    303.01141   -65905.065   -69593.456    -65842.42 
  173342    1451.8171    312.79267   -65905.067   -69592.815   -65840.399 
  173835    1400.3633   -857.28153   -66118.721   -69675.771   -66295.834 
Loop time of 66.9873 on 1 procs for 495 steps with 19652 atoms

Performance: 0.638 ns/day, 37.591 hours/ns, 7.389 timesteps/s
99.6% CPU use with 1 MPI tasks x no OpenMP threads

MPI task timing breakdown:
Section |  min time  |  avg time  |  max time  |%varavg| %total
---------------------------------------------------------------
Pair    | 35.934     | 35.934     | 35.934     |   0.0 | 53.64
Neigh   | 29.73      | 29.73      | 29.73      |   0.0 | 44.38
Comm    | 0.48511    | 0.48511    | 0.48511    |   0.0 |  0.72
Output  | 0.049661   | 0.049661   | 0.049661   |   0.0 |  0.07
Modify  | 0.61206    | 0.61206    | 0.61206    |   0.0 |  0.91
Other   |            | 0.1763     |            |       |  0.26

Nlocal:    19652 ave 19652 max 19652 min
Histogram: 1 0 0 0 0 0 0 0 0 0
Nghost:    18360 ave 18360 max 18360 min
Histogram: 1 0 0 0 0 0 0 0 0 0
Neighs:    1.49317e+06 ave 1.49317e+06 max 1.49317e+06 min
Histogram: 1 0 0 0 0 0 0 0 0 0

Total # of neighbors = 1493170
Ave neighs/atom = 75.9806
Neighbor list builds = 495
Dangerous builds not checked
Setting up Verlet run ...
  Unit style    : metal
  Current step  : 173835
  Time step     : 0.001
Per MPI rank memory allocation (min/avg/max) = 18.19 | 18.19 | 18.19 Mbytes
Step Temp Press TotEng PotEng Enthalpy 
  173835    1400.3633   -857.28153   -66118.721   -69675.771   -66295.834 
  180007    1399.4179   -2195.1804    -66241.46   -69796.109   -66694.468 
Loop time of 856.263 on 1 procs for 6172 steps with 19652 atoms

Performance: 0.623 ns/day, 38.537 hours/ns, 7.208 timesteps/s
99.9% CPU use with 1 MPI tasks x no OpenMP threads

MPI task timing breakdown:
Section |  min time  |  avg time  |  max time  |%varavg| %total
---------------------------------------------------------------
Pair    | 461.38     | 461.38     | 461.38     |   0.0 | 53.88
Neigh   | 378.05     | 378.05     | 378.05     |   0.0 | 44.15
Comm    | 6.4458     | 6.4458     | 6.4458     |   0.0 |  0.75
Output  | 0.00026202 | 0.00026202 | 0.00026202 |   0.0 |  0.00
Modify  | 8.0195     | 8.0195     | 8.0195     |   0.0 |  0.94
Other   |            | 2.375      |            |       |  0.28

Nlocal:    19652 ave 19652 max 19652 min
Histogram: 1 0 0 0 0 0 0 0 0 0
Nghost:    18299 ave 18299 max 18299 min
Histogram: 1 0 0 0 0 0 0 0 0 0
Neighs:    1.49511e+06 ave 1.49511e+06 max 1.49511e+06 min
Histogram: 1 0 0 0 0 0 0 0 0 0

Total # of neighbors = 1495114
Ave neighs/atom = 76.0795
Neighbor list builds = 6172
Dangerous builds not checked
Setting up Verlet run ...
  Unit style    : metal
  Current step  : 180007
  Time step     : 0.001
Per MPI rank memory allocation (min/avg/max) = 18.19 | 18.19 | 18.19 Mbytes
Step Temp Press TotEng PotEng Enthalpy 
  180007    1399.4179   -2195.1804    -66241.46   -69796.109   -66694.468 
  180009     1399.019   -2167.8431    -66241.46   -69795.096   -66688.826 
  180502    1360.8596   -464.23862   -66455.293   -69912.001   -66550.739 
Loop time of 76.0144 on 1 procs for 495 steps with 19652 atoms

Performance: 0.563 ns/day, 42.657 hours/ns, 6.512 timesteps/s
99.9% CPU use with 1 MPI tasks x no OpenMP threads

MPI task timing breakdown:
Section |  min time  |  avg time  |  max time  |%varavg| %total
---------------------------------------------------------------
Pair    | 41.423     | 41.423     | 41.423     |   0.0 | 54.49
Neigh   | 33.038     | 33.038     | 33.038     |   0.0 | 43.46
Comm    | 0.57185    | 0.57185    | 0.57185    |   0.0 |  0.75
Output  | 0.051776   | 0.051776   | 0.051776   |   0.0 |  0.07
Modify  | 0.71766    | 0.71766    | 0.71766    |   0.0 |  0.94
Other   |            | 0.2119     |            |       |  0.28

Nlocal:    19652 ave 19652 max 19652 min
Histogram: 1 0 0 0 0 0 0 0 0 0
Nghost:    18338 ave 18338 max 18338 min
Histogram: 1 0 0 0 0 0 0 0 0 0
Neighs:    1.49995e+06 ave 1.49995e+06 max 1.49995e+06 min
Histogram: 1 0 0 0 0 0 0 0 0 0

Total # of neighbors = 1499949
Ave neighs/atom = 76.3255
Neighbor list builds = 495
Dangerous builds not checked
Setting up Verlet run ...
  Unit style    : metal
  Current step  : 180502
  Time step     : 0.001
Per MPI rank memory allocation (min/avg/max) = 18.19 | 18.19 | 18.19 Mbytes
Step Temp Press TotEng PotEng Enthalpy 
  180502    1360.8596   -464.23862   -66455.293   -69912.001   -66550.739 
  186674    1358.6401    1487.4947    -66592.97   -70044.039   -66288.211 
Loop time of 886.43 on 1 procs for 6172 steps with 19652 atoms

Performance: 0.602 ns/day, 39.895 hours/ns, 6.963 timesteps/s
99.9% CPU use with 1 MPI tasks x no OpenMP threads

MPI task timing breakdown:
Section |  min time  |  avg time  |  max time  |%varavg| %total
---------------------------------------------------------------
Pair    | 480.61     | 480.61     | 480.61     |   0.0 | 54.22
Neigh   | 388.63     | 388.63     | 388.63     |   0.0 | 43.84
Comm    | 6.5932     | 6.5932     | 6.5932     |   0.0 |  0.74
Output  | 0.00018907 | 0.00018907 | 0.00018907 |   0.0 |  0.00
Modify  | 8.2219     | 8.2219     | 8.2219     |   0.0 |  0.93
Other   |            | 2.372      |            |       |  0.27

Nlocal:    19652 ave 19652 max 19652 min
Histogram: 1 0 0 0 0 0 0 0 0 0
Nghost:    18400 ave 18400 max 18400 min
Histogram: 1 0 0 0 0 0 0 0 0 0
Neighs:    1.50479e+06 ave 1.50479e+06 max 1.50479e+06 min
Histogram: 1 0 0 0 0 0 0 0 0 0

Total # of neighbors = 1504793
Ave neighs/atom = 76.572
Neighbor list builds = 6172
Dangerous builds not checked
Setting up Verlet run ...
  Unit style    : metal
  Current step  : 186674
  Time step     : 0.001
Per MPI rank memory allocation (min/avg/max) = 18.19 | 18.19 | 18.19 Mbytes
Step Temp Press TotEng PotEng Enthalpy 
  186674    1358.6401    1487.4947    -66592.97   -70044.039   -66288.211 
  186676    1358.8776    1471.9374   -66592.979   -70044.652   -66291.408 
  187169    1313.1872   -968.69469   -66800.599   -70136.215   -66999.031 
Loop time of 69.412 on 1 procs for 495 steps with 19652 atoms

Performance: 0.616 ns/day, 38.952 hours/ns, 7.131 timesteps/s
99.9% CPU use with 1 MPI tasks x no OpenMP threads

MPI task timing breakdown:
Section |  min time  |  avg time  |  max time  |%varavg| %total
---------------------------------------------------------------
Pair    | 37.484     | 37.484     | 37.484     |   0.0 | 54.00
Neigh   | 30.515     | 30.515     | 30.515     |   0.0 | 43.96
Comm    | 0.51978    | 0.51978    | 0.51978    |   0.0 |  0.75
Output  | 0.042801   | 0.042801   | 0.042801   |   0.0 |  0.06
Modify  | 0.66027    | 0.66027    | 0.66027    |   0.0 |  0.95
Other   |            | 0.19       |            |       |  0.27

Nlocal:    19652 ave 19652 max 19652 min
Histogram: 1 0 0 0 0 0 0 0 0 0
Nghost:    18450 ave 18450 max 18450 min
Histogram: 1 0 0 0 0 0 0 0 0 0
Neighs:    1.50572e+06 ave 1.50572e+06 max 1.50572e+06 min
Histogram: 1 0 0 0 0 0 0 0 0 0

Total # of neighbors = 1505716
Ave neighs/atom = 76.619
Neighbor list builds = 495
Dangerous builds not checked
Setting up Verlet run ...
  Unit style    : metal
  Current step  : 187169
  Time step     : 0.001
Per MPI rank memory allocation (min/avg/max) = 18.19 | 18.19 | 18.19 Mbytes
Step Temp Press TotEng PotEng Enthalpy 
  187169    1313.1872   -968.69469   -66800.599   -70136.215   -66999.031 
  193341    1290.6341   -849.47575   -66978.374   -70256.702   -67152.007 
Loop time of 871.212 on 1 procs for 6172 steps with 19652 atoms

Performance: 0.612 ns/day, 39.210 hours/ns, 7.084 timesteps/s
99.8% CPU use with 1 MPI tasks x no OpenMP threads

MPI task timing breakdown:
Section |  min time  |  avg time  |  max time  |%varavg| %total
---------------------------------------------------------------
Pair    | 470.42     | 470.42     | 470.42     |   0.0 | 54.00
Neigh   | 383.7      | 383.7      | 383.7      |   0.0 | 44.04
Comm    | 6.5664     | 6.5664     | 6.5664     |   0.0 |  0.75
Output  | 0.00022316 | 0.00022316 | 0.00022316 |   0.0 |  0.00
Modify  | 8.1513     | 8.1513     | 8.1513     |   0.0 |  0.94
Other   |            | 2.371      |            |       |  0.27

Nlocal:    19652 ave 19652 max 19652 min
Histogram: 1 0 0 0 0 0 0 0 0 0
Nghost:    18381 ave 18381 max 18381 min
Histogram: 1 0 0 0 0 0 0 0 0 0
Neighs:    1.50846e+06 ave 1.50846e+06 max 1.50846e+06 min
Histogram: 1 0 0 0 0 0 0 0 0 0

Total # of neighbors = 1508462
Ave neighs/atom = 76.7587
Neighbor list builds = 6172
Dangerous builds not checked
Setting up Verlet run ...
  Unit style    : metal
  Current step  : 193341
  Time step     : 0.001
Per MPI rank memory allocation (min/avg/max) = 18.19 | 18.19 | 18.19 Mbytes
Step Temp Press TotEng PotEng Enthalpy 
  193341    1290.6341   -849.47575   -66978.374   -70256.702   -67152.007 
  193343    1290.6011   -853.71036   -66978.365   -70256.609   -67152.864 
  193836    1263.7687    1232.0827    -67170.33   -70380.417    -66919.52 
Loop time of 71.8948 on 1 procs for 495 steps with 19652 atoms

Performance: 0.595 ns/day, 40.345 hours/ns, 6.885 timesteps/s
99.9% CPU use with 1 MPI tasks x no OpenMP threads

MPI task timing breakdown:
Section |  min time  |  avg time  |  max time  |%varavg| %total
---------------------------------------------------------------
Pair    | 38.974     | 38.974     | 38.974     |   0.0 | 54.21
Neigh   | 31.422     | 31.422     | 31.422     |   0.0 | 43.71
Comm    | 0.54518    | 0.54518    | 0.54518    |   0.0 |  0.76
Output  | 0.066528   | 0.066528   | 0.066528   |   0.0 |  0.09
Modify  | 0.68706    | 0.68706    | 0.68706    |   0.0 |  0.96
Other   |            | 0.2001     |            |       |  0.28

Nlocal:    19652 ave 19652 max 19652 min
Histogram: 1 0 0 0 0 0 0 0 0 0
Nghost:    18408 ave 18408 max 18408 min
Histogram: 1 0 0 0 0 0 0 0 0 0
Neighs:    1.51427e+06 ave 1.51427e+06 max 1.51427e+06 min
Histogram: 1 0 0 0 0 0 0 0 0 0

Total # of neighbors = 1514271
Ave neighs/atom = 77.0543
Neighbor list builds = 495
Dangerous builds not checked
Setting up Verlet run ...
  Unit style    : metal
  Current step  : 193836
  Time step     : 0.001
Per MPI rank memory allocation (min/avg/max) = 18.19 | 18.19 | 18.19 Mbytes
Step Temp Press TotEng PotEng Enthalpy 
  193836    1263.7687    1232.0827    -67170.33   -70380.417    -66919.52 
  200008    1251.4443    1839.0967   -67303.927   -70482.709   -66930.246 
Loop time of 879.969 on 1 procs for 6172 steps with 19652 atoms

Performance: 0.606 ns/day, 39.604 hours/ns, 7.014 timesteps/s
99.9% CPU use with 1 MPI tasks x no OpenMP threads

MPI task timing breakdown:
Section |  min time  |  avg time  |  max time  |%varavg| %total
---------------------------------------------------------------
Pair    | 476.81     | 476.81     | 476.81     |   0.0 | 54.19
Neigh   | 385.99     | 385.99     | 385.99     |   0.0 | 43.86
Comm    | 6.598      | 6.598      | 6.598      |   0.0 |  0.75
Output  | 0.00016594 | 0.00016594 | 0.00016594 |   0.0 |  0.00
Modify  | 8.1851     | 8.1851     | 8.1851     |   0.0 |  0.93
Other   |            | 2.381      |            |       |  0.27

Nlocal:    19652 ave 19652 max 19652 min
Histogram: 1 0 0 0 0 0 0 0 0 0
Nghost:    18366 ave 18366 max 18366 min
Histogram: 1 0 0 0 0 0 0 0 0 0
Neighs:    1.51694e+06 ave 1.51694e+06 max 1.51694e+06 min
Histogram: 1 0 0 0 0 0 0 0 0 0

Total # of neighbors = 1516940
Ave neighs/atom = 77.1901
Neighbor list builds = 6172
Dangerous builds not checked
Setting up Verlet run ...
  Unit style    : metal
  Current step  : 200008
  Time step     : 0.001
Per MPI rank memory allocation (min/avg/max) = 18.19 | 18.19 | 18.19 Mbytes
Step Temp Press TotEng PotEng Enthalpy 
  200008    1251.4443    1839.0967   -67303.927   -70482.709   -66930.246 
  200010    1251.6425    1826.2207   -67303.929   -70483.215   -66932.865 
  200503     1209.047   -590.25674   -67488.852   -70559.942     -67608.8 
Loop time of 69.351 on 1 procs for 495 steps with 19652 atoms

Performance: 0.617 ns/day, 38.918 hours/ns, 7.138 timesteps/s
99.9% CPU use with 1 MPI tasks x no OpenMP threads

MPI task timing breakdown:
Section |  min time  |  avg time  |  max time  |%varavg| %total
---------------------------------------------------------------
Pair    | 37.308     | 37.308     | 37.308     |   0.0 | 53.80
Neigh   | 30.64      | 30.64      | 30.64      |   0.0 | 44.18
Comm    | 0.514      | 0.514      | 0.514      |   0.0 |  0.74
Output  | 0.045414   | 0.045414   | 0.045414   |   0.0 |  0.07
Modify  | 0.65454    | 0.65454    | 0.65454    |   0.0 |  0.94
Other   |            | 0.1891     |            |       |  0.27

Nlocal:    19652 ave 19652 max 19652 min
Histogram: 1 0 0 0 0 0 0 0 0 0
Nghost:    18411 ave 18411 max 18411 min
Histogram: 1 0 0 0 0 0 0 0 0 0
Neighs:    1.51696e+06 ave 1.51696e+06 max 1.51696e+06 min
Histogram: 1 0 0 0 0 0 0 0 0 0

Total # of neighbors = 1516957
Ave neighs/atom = 77.191
Neighbor list builds = 495
Dangerous builds not checked
Setting up Verlet run ...
  Unit style    : metal
  Current step  : 200503
  Time step     : 0.001
Per MPI rank memory allocation (min/avg/max) = 18.19 | 18.19 | 18.19 Mbytes
Step Temp Press TotEng PotEng Enthalpy 
  200503     1209.047   -590.25674   -67488.852   -70559.942     -67608.8 
  206675    1193.0365   -1904.2408   -67687.844   -70718.266   -68074.123 
Loop time of 879.406 on 1 procs for 6172 steps with 19652 atoms

Performance: 0.606 ns/day, 39.579 hours/ns, 7.018 timesteps/s
99.9% CPU use with 1 MPI tasks x no OpenMP threads

MPI task timing breakdown:
Section |  min time  |  avg time  |  max time  |%varavg| %total
---------------------------------------------------------------
Pair    | 477.59     | 477.59     | 477.59     |   0.0 | 54.31
Neigh   | 384.66     | 384.66     | 384.66     |   0.0 | 43.74
Comm    | 6.5746     | 6.5746     | 6.5746     |   0.0 |  0.75
Output  | 0.00023389 | 0.00023389 | 0.00023389 |   0.0 |  0.00
Modify  | 8.2042     | 8.2042     | 8.2042     |   0.0 |  0.93
Other   |            | 2.375      |            |       |  0.27

Nlocal:    19652 ave 19652 max 19652 min
Histogram: 1 0 0 0 0 0 0 0 0 0
Nghost:    18492 ave 18492 max 18492 min
Histogram: 1 0 0 0 0 0 0 0 0 0
Neighs:    1.51892e+06 ave 1.51892e+06 max 1.51892e+06 min
Histogram: 1 0 0 0 0 0 0 0 0 0

Total # of neighbors = 1518917
Ave neighs/atom = 77.2907
Neighbor list builds = 6172
Dangerous builds not checked
Setting up Verlet run ...
  Unit style    : metal
  Current step  : 206675
[...]
100.0% CPU use with 1 MPI tasks x no OpenMP threads

MPI task timing breakdown:
Section |  min time  |  avg time  |  max time  |%varavg| %total
---------------------------------------------------------------
Pair    | 30.028     | 30.028     | 30.028     |   0.0 | 51.83
Neigh   | 26.854     | 26.854     | 26.854     |   0.0 | 46.35
Comm    | 0.38676    | 0.38676    | 0.38676    |   0.0 |  0.67
Output  | 0.042022   | 0.042022   | 0.042022   |   0.0 |  0.07
Modify  | 0.48889    | 0.48889    | 0.48889    |   0.0 |  0.84
Other   |            | 0.1346     |            |       |  0.23

Nlocal:    19652 ave 19652 max 19652 min
Histogram: 1 0 0 0 0 0 0 0 0 0
Nghost:    18882 ave 18882 max 18882 min
Histogram: 1 0 0 0 0 0 0 0 0 0
Neighs:    1.5933e+06 ave 1.5933e+06 max 1.5933e+06 min
Histogram: 1 0 0 0 0 0 0 0 0 0

Total # of neighbors = 1593301
Ave neighs/atom = 81.0758
Neighbor list builds = 495
Dangerous builds not checked
Setting up Verlet run ...
  Unit style    : metal
  Current step  : 307175
  Time step     : 0.001
Per MPI rank memory allocation (min/avg/max) = 18.19 | 18.19 | 18.19 Mbytes
Step Temp Press TotEng PotEng Enthalpy 
  307175    420.48993    47.959057   -73201.368   -74269.451   -73192.192 
  313347    404.35683    219.66858   -73326.732   -74353.835   -73284.761 
Loop time of 724.308 on 1 procs for 6172 steps with 19652 atoms

Performance: 0.736 ns/day, 32.598 hours/ns, 8.521 timesteps/s
100.0% CPU use with 1 MPI tasks x no OpenMP threads

MPI task timing breakdown:
Section |  min time  |  avg time  |  max time  |%varavg| %total
---------------------------------------------------------------
Pair    | 375.73     | 375.73     | 375.73     |   0.0 | 51.87
Neigh   | 335.98     | 335.98     | 335.98     |   0.0 | 46.39
Comm    | 4.8218     | 4.8218     | 4.8218     |   0.0 |  0.67
Output  | 0.00016713 | 0.00016713 | 0.00016713 |   0.0 |  0.00
Modify  | 6.0917     | 6.0917     | 6.0917     |   0.0 |  0.84
Other   |            | 1.681      |            |       |  0.23

Nlocal:    19652 ave 19652 max 19652 min
Histogram: 1 0 0 0 0 0 0 0 0 0
Nghost:    18914 ave 18914 max 18914 min
Histogram: 1 0 0 0 0 0 0 0 0 0
Neighs:    1.59494e+06 ave 1.59494e+06 max 1.59494e+06 min
Histogram: 1 0 0 0 0 0 0 0 0 0

Total # of neighbors = 1594937
Ave neighs/atom = 81.159
Neighbor list builds = 6172
Dangerous builds not checked
Setting up Verlet run ...
  Unit style    : metal
  Current step  : 313347
  Time step     : 0.001
Per MPI rank memory allocation (min/avg/max) = 18.19 | 18.19 | 18.19 Mbytes
Step Temp Press TotEng PotEng Enthalpy 
  313347    404.35683    219.66858   -73326.732   -74353.835   -73284.761 
  313349    404.62599    210.21285   -73326.737   -74354.524   -73286.573 
  313842    371.67695     10.46982   -73490.174   -74434.267   -73488.176 
Loop time of 58.1206 on 1 procs for 495 steps with 19652 atoms

Performance: 0.736 ns/day, 32.615 hours/ns, 8.517 timesteps/s
100.0% CPU use with 1 MPI tasks x no OpenMP threads

MPI task timing breakdown:
Section |  min time  |  avg time  |  max time  |%varavg| %total
---------------------------------------------------------------
Pair    | 30.145     | 30.145     | 30.145     |   0.0 | 51.87
Neigh   | 26.926     | 26.926     | 26.926     |   0.0 | 46.33
Comm    | 0.3849     | 0.3849     | 0.3849     |   0.0 |  0.66
Output  | 0.041535   | 0.041535   | 0.041535   |   0.0 |  0.07
Modify  | 0.48823    | 0.48823    | 0.48823    |   0.0 |  0.84
Other   |            | 0.1343     |            |       |  0.23

Nlocal:    19652 ave 19652 max 19652 min
Histogram: 1 0 0 0 0 0 0 0 0 0
Nghost:    18943 ave 18943 max 18943 min
Histogram: 1 0 0 0 0 0 0 0 0 0
Neighs:    1.59682e+06 ave 1.59682e+06 max 1.59682e+06 min
Histogram: 1 0 0 0 0 0 0 0 0 0

Total # of neighbors = 1596819
Ave neighs/atom = 81.2548
Neighbor list builds = 495
Dangerous builds not checked
Setting up Verlet run ...
  Unit style    : metal
  Current step  : 313842
  Time step     : 0.001
Per MPI rank memory allocation (min/avg/max) = 18.19 | 18.19 | 18.19 Mbytes
Step Temp Press TotEng PotEng Enthalpy 
  313842    371.67695     10.46982   -73490.174   -74434.267   -73488.176 
  320014    350.83906   -361.20674   -73635.485   -74526.648   -73704.346 
Loop time of 720.573 on 1 procs for 6172 steps with 19652 atoms

Performance: 0.740 ns/day, 32.430 hours/ns, 8.565 timesteps/s
100.0% CPU use with 1 MPI tasks x no OpenMP threads

MPI task timing breakdown:
Section |  min time  |  avg time  |  max time  |%varavg| %total
---------------------------------------------------------------
Pair    | 372.86     | 372.86     | 372.86     |   0.0 | 51.74
Neigh   | 335.17     | 335.17     | 335.17     |   0.0 | 46.51
Comm    | 4.8003     | 4.8003     | 4.8003     |   0.0 |  0.67
Output  | 0.00016809 | 0.00016809 | 0.00016809 |   0.0 |  0.00
Modify  | 6.0731     | 6.0731     | 6.0731     |   0.0 |  0.84
Other   |            | 1.672      |            |       |  0.23

Nlocal:    19652 ave 19652 max 19652 min
Histogram: 1 0 0 0 0 0 0 0 0 0
Nghost:    18947 ave 18947 max 18947 min
Histogram: 1 0 0 0 0 0 0 0 0 0
Neighs:    1.59727e+06 ave 1.59727e+06 max 1.59727e+06 min
Histogram: 1 0 0 0 0 0 0 0 0 0

Total # of neighbors = 1597269
Ave neighs/atom = 81.2777
Neighbor list builds = 6172
Dangerous builds not checked
Setting up Verlet run ...
  Unit style    : metal
  Current step  : 320014
  Time step     : 0.001
Per MPI rank memory allocation (min/avg/max) = 18.19 | 18.19 | 18.19 Mbytes
Step Temp Press TotEng PotEng Enthalpy 
  320014    350.83906   -361.20674   -73635.485   -74526.648   -73704.346 
  320016    350.83741   -364.58588   -73635.486   -74526.645   -73704.991 
  320509    322.14254    -603.4799   -73773.929     -74592.2   -73888.885 
Loop time of 57.7188 on 1 procs for 495 steps with 19652 atoms

Performance: 0.741 ns/day, 32.390 hours/ns, 8.576 timesteps/s
100.0% CPU use with 1 MPI tasks x no OpenMP threads

MPI task timing breakdown:
Section |  min time  |  avg time  |  max time  |%varavg| %total
---------------------------------------------------------------
Pair    | 29.896     | 29.896     | 29.896     |   0.0 | 51.80
Neigh   | 26.779     | 26.779     | 26.779     |   0.0 | 46.40
Comm    | 0.38348    | 0.38348    | 0.38348    |   0.0 |  0.66
Output  | 0.0417     | 0.0417     | 0.0417     |   0.0 |  0.07
Modify  | 0.48549    | 0.48549    | 0.48549    |   0.0 |  0.84
Other   |            | 0.1332     |            |       |  0.23

Nlocal:    19652 ave 19652 max 19652 min
Histogram: 1 0 0 0 0 0 0 0 0 0
Nghost:    18958 ave 18958 max 18958 min
Histogram: 1 0 0 0 0 0 0 0 0 0
Neighs:    1.59856e+06 ave 1.59856e+06 max 1.59856e+06 min
Histogram: 1 0 0 0 0 0 0 0 0 0

Total # of neighbors = 1598565
Ave neighs/atom = 81.3436
Neighbor list builds = 495
Dangerous builds not checked
Setting up Verlet run ...
  Unit style    : metal
  Current step  : 320509
  Time step     : 0.001
Per MPI rank memory allocation (min/avg/max) = 18.19 | 18.19 | 18.19 Mbytes
Step Temp Press TotEng PotEng Enthalpy 
  320509    322.14254    -603.4799   -73773.929     -74592.2   -73888.885 
  326681    301.22762   -1138.9775   -73901.649   -74666.795   -74118.451 
Loop time of 718.68 on 1 procs for 6172 steps with 19652 atoms

Performance: 0.742 ns/day, 32.345 hours/ns, 8.588 timesteps/s
100.0% CPU use with 1 MPI tasks x no OpenMP threads

MPI task timing breakdown:
Section |  min time  |  avg time  |  max time  |%varavg| %total
---------------------------------------------------------------
Pair    | 372.83     | 372.83     | 372.83     |   0.0 | 51.88
Neigh   | 333.43     | 333.43     | 333.43     |   0.0 | 46.39
Comm    | 4.7335     | 4.7335     | 4.7335     |   0.0 |  0.66
Output  | 0.0001812  | 0.0001812  | 0.0001812  |   0.0 |  0.00
Modify  | 6.0356     | 6.0356     | 6.0356     |   0.0 |  0.84
Other   |            | 1.656      |            |       |  0.23

Nlocal:    19652 ave 19652 max 19652 min
Histogram: 1 0 0 0 0 0 0 0 0 0
Nghost:    18970 ave 18970 max 18970 min
Histogram: 1 0 0 0 0 0 0 0 0 0
Neighs:    1.59938e+06 ave 1.59938e+06 max 1.59938e+06 min
Histogram: 1 0 0 0 0 0 0 0 0 0

Total # of neighbors = 1599380
Ave neighs/atom = 81.3851
Neighbor list builds = 6172
Dangerous builds not checked
Setting up Verlet run ...
  Unit style    : metal
  Current step  : 326681
  Time step     : 0.001
Per MPI rank memory allocation (min/avg/max) = 18.19 | 18.19 | 18.19 Mbytes
Step Temp Press TotEng PotEng Enthalpy 
  326681    301.22762   -1138.9775   -73901.649   -74666.795   -74118.451 
  326683    301.16849   -1133.7228   -73901.651   -74666.646   -74117.452 
  327176    272.88574    463.21307   -74038.054   -74731.208   -73950.061 
Loop time of 57.3901 on 1 procs for 495 steps with 19652 atoms

Performance: 0.745 ns/day, 32.205 hours/ns, 8.625 timesteps/s
100.0% CPU use with 1 MPI tasks x no OpenMP threads

MPI task timing breakdown:
Section |  min time  |  avg time  |  max time  |%varavg| %total
---------------------------------------------------------------
Pair    | 29.772     | 29.772     | 29.772     |   0.0 | 51.88
Neigh   | 26.594     | 26.594     | 26.594     |   0.0 | 46.34
Comm    | 0.37151    | 0.37151    | 0.37151    |   0.0 |  0.65
Output  | 0.041036   | 0.041036   | 0.041036   |   0.0 |  0.07
Modify  | 0.48062    | 0.48062    | 0.48062    |   0.0 |  0.84
Other   |            | 0.1308     |            |       |  0.23

Nlocal:    19652 ave 19652 max 19652 min
Histogram: 1 0 0 0 0 0 0 0 0 0
Nghost:    18948 ave 18948 max 18948 min
Histogram: 1 0 0 0 0 0 0 0 0 0
Neighs:    1.60141e+06 ave 1.60141e+06 max 1.60141e+06 min
Histogram: 1 0 0 0 0 0 0 0 0 0

Total # of neighbors = 1601407
Ave neighs/atom = 81.4882
Neighbor list builds = 495
Dangerous builds not checked
Setting up Verlet run ...
  Unit style    : metal
  Current step  : 327176
  Time step     : 0.001
Per MPI rank memory allocation (min/avg/max) = 18.19 | 18.19 | 18.19 Mbytes
Step Temp Press TotEng PotEng Enthalpy 
  327176    272.88574    463.21307   -74038.054   -74731.208   -73950.061 
  333348    250.77024    885.59134   -74164.758   -74801.738   -73996.737 
Loop time of 716.33 on 1 procs for 6172 steps with 19652 atoms

Performance: 0.744 ns/day, 32.239 hours/ns, 8.616 timesteps/s
100.0% CPU use with 1 MPI tasks x no OpenMP threads

MPI task timing breakdown:
Section |  min time  |  avg time  |  max time  |%varavg| %total
---------------------------------------------------------------
Pair    | 372.46     | 372.46     | 372.46     |   0.0 | 52.00
Neigh   | 331.61     | 331.61     | 331.61     |   0.0 | 46.29
Comm    | 4.6589     | 4.6589     | 4.6589     |   0.0 |  0.65
Output  | 0.00016403 | 0.00016403 | 0.00016403 |   0.0 |  0.00
Modify  | 5.9774     | 5.9774     | 5.9774     |   0.0 |  0.83
Other   |            | 1.623      |            |       |  0.23

Nlocal:    19652 ave 19652 max 19652 min
Histogram: 1 0 0 0 0 0 0 0 0 0
Nghost:    18991 ave 18991 max 18991 min
Histogram: 1 0 0 0 0 0 0 0 0 0
Neighs:    1.60399e+06 ave 1.60399e+06 max 1.60399e+06 min
Histogram: 1 0 0 0 0 0 0 0 0 0

Total # of neighbors = 1603991
Ave neighs/atom = 81.6197
Neighbor list builds = 6172
Dangerous builds not checked
Setting up Verlet run ...
  Unit style    : metal
  Current step  : 333348
  Time step     : 0.001
Per MPI rank memory allocation (min/avg/max) = 18.19 | 18.19 | 18.19 Mbytes
Step Temp Press TotEng PotEng Enthalpy 
  333348    250.77024    885.59134   -74164.758   -74801.738   -73996.737 
  333350    250.80041    879.79245    -74164.76   -74801.816   -73997.838 
  333843    223.17582   -574.48087   -74300.099   -74866.986   -74409.085 
Loop time of 57.37 on 1 procs for 495 steps with 19652 atoms

Performance: 0.745 ns/day, 32.194 hours/ns, 8.628 timesteps/s
100.0% CPU use with 1 MPI tasks x no OpenMP threads

MPI task timing breakdown:
Section |  min time  |  avg time  |  max time  |%varavg| %total
---------------------------------------------------------------
Pair    | 29.742     | 29.742     | 29.742     |   0.0 | 51.84
Neigh   | 26.602     | 26.602     | 26.602     |   0.0 | 46.37
Comm    | 0.37434    | 0.37434    | 0.37434    |   0.0 |  0.65
Output  | 0.041289   | 0.041289   | 0.041289   |   0.0 |  0.07
Modify  | 0.48023    | 0.48023    | 0.48023    |   0.0 |  0.84
Other   |            | 0.1302     |            |       |  0.23

Nlocal:    19652 ave 19652 max 19652 min
Histogram: 1 0 0 0 0 0 0 0 0 0
Nghost:    19014 ave 19014 max 19014 min
Histogram: 1 0 0 0 0 0 0 0 0 0
Neighs:    1.60321e+06 ave 1.60321e+06 max 1.60321e+06 min
Histogram: 1 0 0 0 0 0 0 0 0 0

Total # of neighbors = 1603206
Ave neighs/atom = 81.5798
Neighbor list builds = 495
Dangerous builds not checked
Setting up Verlet run ...
  Unit style    : metal
  Current step  : 333843
  Time step     : 0.001
Per MPI rank memory allocation (min/avg/max) = 18.19 | 18.19 | 18.19 Mbytes
Step Temp Press TotEng PotEng Enthalpy 
  333843    223.17582   -574.48087   -74300.099   -74866.986   -74409.085 
  340015    199.84993    214.98501   -74435.633    -74943.27   -74394.909 
Loop time of 711.742 on 1 procs for 6172 steps with 19652 atoms

Performance: 0.749 ns/day, 32.033 hours/ns, 8.672 timesteps/s
100.0% CPU use with 1 MPI tasks x no OpenMP threads

MPI task timing breakdown:
Section |  min time  |  avg time  |  max time  |%varavg| %total
---------------------------------------------------------------
Pair    | 369.42     | 369.42     | 369.42     |   0.0 | 51.90
Neigh   | 330.08     | 330.08     | 330.08     |   0.0 | 46.38
Comm    | 4.6352     | 4.6352     | 4.6352     |   0.0 |  0.65
Output  | 0.00019407 | 0.00019407 | 0.00019407 |   0.0 |  0.00
Modify  | 5.9673     | 5.9673     | 5.9673     |   0.0 |  0.84
Other   |            | 1.632      |            |       |  0.23

Nlocal:    19652 ave 19652 max 19652 min
Histogram: 1 0 0 0 0 0 0 0 0 0
Nghost:    18978 ave 18978 max 18978 min
Histogram: 1 0 0 0 0 0 0 0 0 0
Neighs:    1.60556e+06 ave 1.60556e+06 max 1.60556e+06 min
Histogram: 1 0 0 0 0 0 0 0 0 0

Total # of neighbors = 1605559
Ave neighs/atom = 81.6995
Neighbor list builds = 6172
Dangerous builds not checked
Setting up Verlet run ...
  Unit style    : metal
  Current step  : 340015
  Time step     : 0.001
Per MPI rank memory allocation (min/avg/max) = 18.19 | 18.19 | 18.19 Mbytes
Step Temp Press TotEng PotEng Enthalpy 
  340015    199.84993    214.98501   -74435.633    -74943.27   -74394.909 
  340017    199.93413    213.92108   -74435.633   -74943.484    -74395.11 
  340510    175.08248    312.03826   -74561.955   -75006.681   -74502.905 
Loop time of 55.7004 on 1 procs for 495 steps with 19652 atoms

Performance: 0.768 ns/day, 31.257 hours/ns, 8.887 timesteps/s
100.0% CPU use with 1 MPI tasks x no OpenMP threads

MPI task timing breakdown:
Section |  min time  |  avg time  |  max time  |%varavg| %total
---------------------------------------------------------------
Pair    | 28.896     | 28.896     | 28.896     |   0.0 | 51.88
Neigh   | 25.811     | 25.811     | 25.811     |   0.0 | 46.34
Comm    | 0.35736    | 0.35736    | 0.35736    |   0.0 |  0.64
Output  | 0.039185   | 0.039185   | 0.039185   |   0.0 |  0.07
Modify  | 0.46794    | 0.46794    | 0.46794    |   0.0 |  0.84
Other   |            | 0.1292     |            |       |  0.23

Nlocal:    19652 ave 19652 max 19652 min
Histogram: 1 0 0 0 0 0 0 0 0 0
Nghost:    18994 ave 18994 max 18994 min
Histogram: 1 0 0 0 0 0 0 0 0 0
Neighs:    1.60664e+06 ave 1.60664e+06 max 1.60664e+06 min
Histogram: 1 0 0 0 0 0 0 0 0 0

Total # of neighbors = 1606642
Ave neighs/atom = 81.7546
Neighbor list builds = 495
Dangerous builds not checked
Setting up Verlet run ...
  Unit style    : metal
  Current step  : 340510
  Time step     : 0.001
Per MPI rank memory allocation (min/avg/max) = 18.19 | 18.19 | 18.19 Mbytes
Step Temp Press TotEng PotEng Enthalpy 
  340510    175.08248    312.03826   -74561.955   -75006.681   -74502.905 
  346682    149.08379   -824.62045   -74698.762   -75077.448   -74854.769 
Loop time of 1144.34 on 1 procs for 6172 steps with 19652 atoms

Performance: 0.466 ns/day, 51.502 hours/ns, 5.394 timesteps/s
99.5% CPU use with 1 MPI tasks x no OpenMP threads

MPI task timing breakdown:
Section |  min time  |  avg time  |  max time  |%varavg| %total
---------------------------------------------------------------
Pair    | 612.86     | 612.86     | 612.86     |   0.0 | 53.56
Neigh   | 506.02     | 506.02     | 506.02     |   0.0 | 44.22
Comm    | 9.8542     | 9.8542     | 9.8542     |   0.0 |  0.86
Output  | 0.0002141  | 0.0002141  | 0.0002141  |   0.0 |  0.00
Modify  | 11.984     | 11.984     | 11.984     |   0.0 |  1.05
Other   |            | 3.622      |            |       |  0.32

Nlocal:    19652 ave 19652 max 19652 min
Histogram: 1 0 0 0 0 0 0 0 0 0
Nghost:    19030 ave 19030 max 19030 min
Histogram: 1 0 0 0 0 0 0 0 0 0
Neighs:    1.6071e+06 ave 1.6071e+06 max 1.6071e+06 min
Histogram: 1 0 0 0 0 0 0 0 0 0

Total # of neighbors = 1607099
Ave neighs/atom = 81.7779
Neighbor list builds = 6172
Dangerous builds not checked
Setting up Verlet run ...
  Unit style    : metal
  Current step  : 346682
  Time step     : 0.001
Per MPI rank memory allocation (min/avg/max) = 18.19 | 18.19 | 18.19 Mbytes
Step Temp Press TotEng PotEng Enthalpy 
  346682    149.08379   -824.62045   -74698.762   -75077.448   -74854.769 
  346684    149.15083   -818.29476   -74698.761   -75077.618   -74853.572 
  347177    126.70854    365.60822    -74815.71   -75137.562   -74746.656 
Loop time of 101.722 on 1 procs for 495 steps with 19652 atoms

Performance: 0.420 ns/day, 57.083 hours/ns, 4.866 timesteps/s
99.3% CPU use with 1 MPI tasks x no OpenMP threads

MPI task timing breakdown:
Section |  min time  |  avg time  |  max time  |%varavg| %total
---------------------------------------------------------------
Pair    | 54.867     | 54.867     | 54.867     |   0.0 | 53.94
Neigh   | 44.48      | 44.48      | 44.48      |   0.0 | 43.73
Comm    | 0.89912    | 0.89912    | 0.89912    |   0.0 |  0.88
Output  | 0.070956   | 0.070956   | 0.070956   |   0.0 |  0.07
Modify  | 1.0815     | 1.0815     | 1.0815     |   0.0 |  1.06
Other   |            | 0.3231     |            |       |  0.32

Nlocal:    19652 ave 19652 max 19652 min
Histogram: 1 0 0 0 0 0 0 0 0 0
Nghost:    19019 ave 19019 max 19019 min
Histogram: 1 0 0 0 0 0 0 0 0 0
Neighs:    1.60913e+06 ave 1.60913e+06 max 1.60913e+06 min
Histogram: 1 0 0 0 0 0 0 0 0 0

Total # of neighbors = 1609127
Ave neighs/atom = 81.8811
Neighbor list builds = 495
Dangerous builds not checked
Setting up Verlet run ...
  Unit style    : metal
  Current step  : 347177
  Time step     : 0.001
Per MPI rank memory allocation (min/avg/max) = 18.19 | 18.19 | 18.19 Mbytes
Step Temp Press TotEng PotEng Enthalpy 
  347177    126.70854    365.60822    -74815.71   -75137.562   -74746.656 
  353349    99.727787   -43.691235   -74953.691   -75207.009   -74961.937 
Loop time of 1174.79 on 1 procs for 6172 steps with 19652 atoms

Performance: 0.454 ns/day, 52.873 hours/ns, 5.254 timesteps/s
99.7% CPU use with 1 MPI tasks x no OpenMP threads

MPI task timing breakdown:
Section |  min time  |  avg time  |  max time  |%varavg| %total
---------------------------------------------------------------
Pair    | 626.72     | 626.72     | 626.72     |   0.0 | 53.35
Neigh   | 522.68     | 522.68     | 522.68     |   0.0 | 44.49
Comm    | 9.676      | 9.676      | 9.676      |   0.0 |  0.82
Output  | 0.026953   | 0.026953   | 0.026953   |   0.0 |  0.00
Modify  | 12.115     | 12.115     | 12.115     |   0.0 |  1.03
Other   |            | 3.564      |            |       |  0.30

Nlocal:    19652 ave 19652 max 19652 min
Histogram: 1 0 0 0 0 0 0 0 0 0
Nghost:    19020 ave 19020 max 19020 min
Histogram: 1 0 0 0 0 0 0 0 0 0
Neighs:    1.60992e+06 ave 1.60992e+06 max 1.60992e+06 min
Histogram: 1 0 0 0 0 0 0 0 0 0

Total # of neighbors = 1609922
Ave neighs/atom = 81.9215
Neighbor list builds = 6172
Dangerous builds not checked
Total wall time: 14:47:02
