LAMMPS (12 Dec 2018)
Lattice spacing in x,y,z = 4 4 4
Created orthogonal box = (0 0 0) to (68 68 68)
  1 by 1 by 2 MPI processor grid
Created 19652 atoms
  Time spent = 0.00158191 secs
Setting atom values ...
  0 settings made for type/fraction
Neighbor list info ...
  update every 1 steps, delay 0 steps, check no
  max neighbors/atom: 2000, page size: 100000
  master list distance cutoff = 8.5
  ghost atom cutoff = 8.5
  binsize = 4.25, bins = 16 16 16
  1 neighbor lists, perpetual/occasional/extra = 1 0 0
  (1) pair eam/alloy, perpetual
      attributes: half, newton on
      pair build: half/bin/atomonly/newton
      stencil: half/bin/3d/newton
      bin: standard
Setting up Verlet run ...
  Unit style    : metal
  Current step  : 0
  Time step     : 0.001
Per MPI rank memory allocation (min/avg/max) = 11.15 | 11.15 | 11.15 Mbytes
Step Temp Press TotEng PotEng Enthalpy 
       0          300    270988.05   -20809.105   -21571.132    32373.122 
    1000    146.34534    268944.92   -20808.869   -21180.599    31972.388 
Loop time of 103.129 on 2 procs for 1000 steps with 19652 atoms

Performance: 0.838 ns/day, 28.647 hours/ns, 9.697 timesteps/s
96.6% CPU use with 2 MPI tasks x no OpenMP threads

MPI task timing breakdown:
Section |  min time  |  avg time  |  max time  |%varavg| %total
---------------------------------------------------------------
Pair    | 57.974     | 58.3       | 58.626     |   4.3 | 56.53
Neigh   | 36.147     | 36.477     | 36.808     |   5.5 | 35.37
Comm    | 7.8472     | 7.8582     | 7.8693     |   0.4 |  7.62
Output  | 0.00010204 | 0.00011194 | 0.00012183 |   0.0 |  0.00
Modify  | 0.24958    | 0.25465    | 0.25972    |   1.0 |  0.25
Other   |            | 0.2389     |            |       |  0.23

Nlocal:    9826 ave 9851 max 9801 min
Histogram: 1 0 0 0 0 0 0 0 0 1
Nghost:    14211 ave 14236 max 14186 min
Histogram: 1 0 0 0 0 0 0 0 0 1
Neighs:    786827 ave 789452 max 784202 min
Histogram: 1 0 0 0 0 0 0 0 0 1

Total # of neighbors = 1573654
Ave neighs/atom = 80.076
Neighbor list builds = 1000
Dangerous builds not checked
Setting up Verlet run ...
  Unit style    : metal
  Current step  : 1000
  Time step     : 0.001
Per MPI rank memory allocation (min/avg/max) = 11.15 | 11.15 | 11.15 Mbytes
Step Temp Press TotEng PotEng Enthalpy 
    1000    146.34534    268944.92   -20808.869   -21180.599    31972.388 
    2000    256.98711    317.38113   -28438.377   -29091.147   -28348.144 
Loop time of 106.464 on 2 procs for 1000 steps with 19652 atoms

Performance: 0.812 ns/day, 29.573 hours/ns, 9.393 timesteps/s
87.7% CPU use with 2 MPI tasks x no OpenMP threads

MPI task timing breakdown:
Section |  min time  |  avg time  |  max time  |%varavg| %total
---------------------------------------------------------------
Pair    | 49.663     | 49.957     | 50.251     |   4.2 | 46.92
Neigh   | 33.3       | 33.477     | 33.655     |   3.1 | 31.44
Comm    | 21.402     | 21.875     | 22.349     |  10.1 | 20.55
Output  | 6.7949e-05 | 9.346e-05  | 0.00011897 |   0.0 |  0.00
Modify  | 0.92166    | 0.92192    | 0.92217    |   0.0 |  0.87
Other   |            | 0.2322     |            |       |  0.22

Nlocal:    9826 ave 9851 max 9801 min
Histogram: 1 0 0 0 0 0 0 0 0 1
Nghost:    10346 ave 10371 max 10321 min
Histogram: 1 0 0 0 0 0 0 0 0 1
Neighs:    557594 ave 559178 max 556011 min
Histogram: 1 0 0 0 0 0 0 0 0 1

Total # of neighbors = 1115189
Ave neighs/atom = 56.7468
Neighbor list builds = 1000
Dangerous builds not checked
Setting up Verlet run ...
  Unit style    : metal
  Current step  : 2000
  Time step     : 0.001
Per MPI rank memory allocation (min/avg/max) = 11.15 | 11.15 | 11.15 Mbytes
Step Temp Press TotEng PotEng Enthalpy 
    2000    256.98711    317.38113   -28438.377   -29091.147   -28348.144 
   10000    2434.0492    31.841893   -13488.246   -19670.953   -13474.783 
Loop time of 633.453 on 2 procs for 8000 steps with 19652 atoms

Performance: 1.091 ns/day, 21.995 hours/ns, 12.629 timesteps/s
97.5% CPU use with 2 MPI tasks x no OpenMP threads

MPI task timing breakdown:
Section |  min time  |  avg time  |  max time  |%varavg| %total
---------------------------------------------------------------
Pair    | 337.81     | 339.87     | 341.93     |  11.2 | 53.65
Neigh   | 228.04     | 238.92     | 249.8      |  70.4 | 37.72
Comm    | 31.257     | 44.392     | 57.528     | 197.1 |  7.01
Output  | 0.00010896 | 0.00015104 | 0.00019312 |   0.0 |  0.00
Modify  | 8.1372     | 8.2014     | 8.2656     |   2.2 |  1.29
Other   |            | 2.063      |            |       |  0.33

Nlocal:    9826 ave 9870 max 9782 min
Histogram: 1 0 0 0 0 0 0 0 0 1
Nghost:    9622.5 ave 9640 max 9605 min
Histogram: 1 0 0 0 0 0 0 0 0 1
Neighs:    362464 ave 365470 max 359457 min
Histogram: 1 0 0 0 0 0 0 0 0 1

Total # of neighbors = 724927
Ave neighs/atom = 36.8882
Neighbor list builds = 8000
Dangerous builds not checked
Setting up Verlet run ...
  Unit style    : metal
  Current step  : 10000
  Time step     : 0.001
Per MPI rank memory allocation (min/avg/max) = 11.17 | 11.17 | 11.17 Mbytes
Step Temp Press TotEng PotEng Enthalpy 
   10000    2434.0492    31.841893   -13488.246   -19670.953   -13474.783 
   40000    2447.2923    160.41303   -13333.814    -19550.16   -13265.385 
Loop time of 2364.12 on 2 procs for 30000 steps with 19652 atoms

Performance: 1.096 ns/day, 21.890 hours/ns, 12.690 timesteps/s
92.4% CPU use with 2 MPI tasks x no OpenMP threads

MPI task timing breakdown:
Section |  min time  |  avg time  |  max time  |%varavg| %total
---------------------------------------------------------------
Pair    | 1243.4     | 1249.6     | 1255.8     |  17.6 | 52.86
Neigh   | 902.56     | 911.68     | 920.81     |  30.2 | 38.56
Comm    | 144.02     | 159.89     | 175.76     | 125.5 |  6.76
Output  | 9.3937e-05 | 0.00013852 | 0.00018311 |   0.0 |  0.00
Modify  | 34.749     | 34.976     | 35.202     |   3.8 |  1.48
Other   |            | 7.935      |            |       |  0.34

Nlocal:    9826 ave 9870 max 9782 min
Histogram: 1 0 0 0 0 0 0 0 0 1
Nghost:    9547 ave 9553 max 9541 min
Histogram: 1 0 0 0 0 0 0 0 0 1
Neighs:    359242 ave 362301 max 356183 min
Histogram: 1 0 0 0 0 0 0 0 0 1

Total # of neighbors = 718484
Ave neighs/atom = 36.5604
Neighbor list builds = 30000
Dangerous builds not checked
Setting up Verlet run ...
  Unit style    : metal
  Current step  : 40000
  Time step     : 0.001
Per MPI rank memory allocation (min/avg/max) = 11.17 | 11.17 | 11.17 Mbytes
Step Temp Press TotEng PotEng Enthalpy 
   40000    2447.2923    160.41303   -13333.814    -19550.16   -13265.385 
   40495    2413.9942    126.15708   -13540.054   -19671.819   -13486.561 
Loop time of 27.8336 on 2 procs for 495 steps with 19652 atoms

Performance: 1.537 ns/day, 15.619 hours/ns, 17.784 timesteps/s
99.9% CPU use with 2 MPI tasks x no OpenMP threads

MPI task timing breakdown:
Section |  min time  |  avg time  |  max time  |%varavg| %total
---------------------------------------------------------------
Pair    | 13.925     | 14.003     | 14.08      |   2.1 | 50.31
Neigh   | 12.131     | 12.291     | 12.452     |   4.6 | 44.16
Comm    | 0.93465    | 1.0022     | 1.0697     |   6.7 |  3.60
Output  | 8.0109e-05 | 0.00011206 | 0.000144   |   0.0 |  0.00
Modify  | 0.42033    | 0.42494    | 0.42955    |   0.7 |  1.53
Other   |            | 0.1123     |            |       |  0.40

Nlocal:    9826 ave 9871 max 9781 min
Histogram: 1 0 0 0 0 0 0 0 0 1
Nghost:    9544 ave 9555 max 9533 min
Histogram: 1 0 0 0 0 0 0 0 0 1
Neighs:    361780 ave 364437 max 359123 min
Histogram: 1 0 0 0 0 0 0 0 0 1

Total # of neighbors = 723560
Ave neighs/atom = 36.8186
Neighbor list builds = 495
Dangerous builds not checked
Setting up Verlet run ...
  Unit style    : metal
  Current step  : 40495
  Time step     : 0.001
Per MPI rank memory allocation (min/avg/max) = 11.17 | 11.17 | 11.17 Mbytes
Step Temp Press TotEng PotEng Enthalpy 
   40495    2413.9942    126.15708   -13540.054   -19671.819   -13486.561 
   50000    2390.3395   -206.39888   -13652.756   -19724.436   -13739.979 
   90000    2387.9904     604.6445   -13653.207   -19718.921   -13398.985 
Loop time of 3741.58 on 2 procs for 49505 steps with 19652 atoms

Performance: 1.143 ns/day, 20.994 hours/ns, 13.231 timesteps/s
93.1% CPU use with 2 MPI tasks x no OpenMP threads

MPI task timing breakdown:
Section |  min time  |  avg time  |  max time  |%varavg| %total
---------------------------------------------------------------
Pair    | 1989.7     | 1990.5     | 1991.3     |   1.8 | 53.20
Neigh   | 1415       | 1428.3     | 1441.7     |  35.3 | 38.17
Comm    | 244.41     | 258.82     | 273.23     |  89.6 |  6.92
Output  | 0.055337   | 0.055395   | 0.055452   |   0.0 |  0.00
Modify  | 51.341     | 51.408     | 51.475     |   0.9 |  1.37
Other   |            | 12.46      |            |       |  0.33

Nlocal:    9826 ave 9874 max 9778 min
Histogram: 1 0 0 0 0 0 0 0 0 1
Nghost:    9653 ave 9676 max 9630 min
Histogram: 1 0 0 0 0 0 0 0 0 1
Neighs:    364626 ave 368061 max 361192 min
Histogram: 1 0 0 0 0 0 0 0 0 1

Total # of neighbors = 729253
Ave neighs/atom = 37.1083
Neighbor list builds = 49505
Dangerous builds not checked
Setting up Verlet run ...
  Unit style    : metal
  Current step  : 90000
  Time step     : 0.001
Per MPI rank memory allocation (min/avg/max) = 11.32 | 11.32 | 11.32 Mbytes
Step Temp Press TotEng PotEng Enthalpy 
   90000    2387.9904     604.6445   -13653.207   -19718.921   -13398.985 
   90495       2374.3   -531.30362   -13829.403   -19860.341   -14052.686 
Loop time of 32.7308 on 2 procs for 495 steps with 19652 atoms

Performance: 1.307 ns/day, 18.367 hours/ns, 15.123 timesteps/s
98.0% CPU use with 2 MPI tasks x no OpenMP threads

MPI task timing breakdown:
Section |  min time  |  avg time  |  max time  |%varavg| %total
---------------------------------------------------------------
Pair    | 16.76      | 17.091     | 17.422     |   8.0 | 52.22
Neigh   | 12.631     | 13.089     | 13.546     |  12.6 | 39.99
Comm    | 1.1721     | 1.9665     | 2.7609     |  56.6 |  6.01
Output  | 8.0109e-05 | 0.00010812 | 0.00013614 |   0.0 |  0.00
Modify  | 0.46747    | 0.47086    | 0.47425    |   0.5 |  1.44
Other   |            | 0.1136     |            |       |  0.35

Nlocal:    9826 ave 9838 max 9814 min
Histogram: 1 0 0 0 0 0 0 0 0 1
Nghost:    9680 ave 9723 max 9637 min
Histogram: 1 0 0 0 0 0 0 0 0 1
Neighs:    364776 ave 365383 max 364170 min
Histogram: 1 0 0 0 0 0 0 0 0 1

Total # of neighbors = 729553
Ave neighs/atom = 37.1236
Neighbor list builds = 495
Dangerous builds not checked
Setting up Verlet run ...
  Unit style    : metal
  Current step  : 90495
  Time step     : 0.001
Per MPI rank memory allocation (min/avg/max) = 11.32 | 11.32 | 11.32 Mbytes
Step Temp Press TotEng PotEng Enthalpy 
   90495       2374.3   -531.30362   -13829.403   -19860.341   -14052.686 
  100000    2350.3008    100.00111   -13989.863   -19959.841   -13948.331 
  140000    2353.5574   -65.742228   -14092.411   -20070.661   -14119.558 
Loop time of 3823.73 on 2 procs for 49505 steps with 19652 atoms

Performance: 1.119 ns/day, 21.455 hours/ns, 12.947 timesteps/s
94.3% CPU use with 2 MPI tasks x no OpenMP threads

MPI task timing breakdown:
Section |  min time  |  avg time  |  max time  |%varavg| %total
---------------------------------------------------------------
Pair    | 2022.4     | 2031.1     | 2039.7     |  19.1 | 53.12
Neigh   | 1426.5     | 1428.1     | 1429.8     |   4.4 | 37.35
Comm    | 285.53     | 295.06     | 304.59     |  55.5 |  7.72
Output  | 0.070104   | 0.070182   | 0.070261   |   0.0 |  0.00
Modify  | 54.676     | 57.223     | 59.771     |  33.7 |  1.50
Other   |            | 12.17      |            |       |  0.32

Nlocal:    9826 ave 9830 max 9822 min
Histogram: 1 0 0 0 0 0 0 0 0 1
Nghost:    9672.5 ave 9715 max 9630 min
Histogram: 1 0 0 0 0 0 0 0 0 1
Neighs:    370966 ave 371108 max 370825 min
Histogram: 1 0 0 0 0 0 0 0 0 1

Total # of neighbors = 741933
Ave neighs/atom = 37.7536
Neighbor list builds = 49505
Dangerous builds not checked
Setting up Verlet run ...
  Unit style    : metal
  Current step  : 140000
  Time step     : 0.001
Per MPI rank memory allocation (min/avg/max) = 11.35 | 11.35 | 11.35 Mbytes
Step Temp Press TotEng PotEng Enthalpy 
  140000    2353.5574   -65.742228   -14092.411   -20070.661   -14119.558 
  140495    2308.4755    139.56234   -14306.903   -20170.641    -14249.62 
Loop time of 38.2564 on 2 procs for 495 steps with 19652 atoms

Performance: 1.118 ns/day, 21.468 hours/ns, 12.939 timesteps/s
91.3% CPU use with 2 MPI tasks x no OpenMP threads

MPI task timing breakdown:
Section |  min time  |  avg time  |  max time  |%varavg| %total
---------------------------------------------------------------
Pair    | 20.256     | 20.287     | 20.317     |   0.7 | 53.03
Neigh   | 11.203     | 13.821     | 16.439     |  70.4 | 36.13
Comm    | 0.81633    | 3.4781     | 6.1398     | 142.7 |  9.09
Output  | 8.7023e-05 | 0.00012743 | 0.00016785 |   0.0 |  0.00
Modify  | 0.50247    | 0.54634    | 0.5902     |   5.9 |  1.43
Other   |            | 0.1243     |            |       |  0.32

Nlocal:    9826 ave 9850 max 9802 min
Histogram: 1 0 0 0 0 0 0 0 0 1
Nghost:    9692.5 ave 9702 max 9683 min
Histogram: 1 0 0 0 0 0 0 0 0 1
Neighs:    373438 ave 374533 max 372344 min
Histogram: 1 0 0 0 0 0 0 0 0 1

Total # of neighbors = 746877
Ave neighs/atom = 38.0051
Neighbor list builds = 495
Dangerous builds not checked
Setting up Verlet run ...
  Unit style    : metal
  Current step  : 140495
  Time step     : 0.001
Per MPI rank memory allocation (min/avg/max) = 11.35 | 11.35 | 11.35 Mbytes
Step Temp Press TotEng PotEng Enthalpy 
  140495    2308.4755    139.56234   -14306.903   -20170.641    -14249.62 
  150000    2294.7614    137.42858   -14454.057    -20282.96   -14398.073 
  190000    2308.3901   -208.59229   -14390.814   -20254.336   -14475.946 
Loop time of 4038.05 on 2 procs for 49505 steps with 19652 atoms

Performance: 1.059 ns/day, 22.658 hours/ns, 12.260 timesteps/s
92.3% CPU use with 2 MPI tasks x no OpenMP threads

MPI task timing breakdown:
Section |  min time  |  avg time  |  max time  |%varavg| %total
---------------------------------------------------------------
Pair    | 2138.5     | 2166.7     | 2195       |  60.7 | 53.66
Neigh   | 1483.3     | 1499.7     | 1516.1     |  42.4 | 37.14
Comm    | 252.56     | 300.21     | 347.86     | 275.0 |  7.43
Output  | 0.07555    | 0.075599   | 0.075647   |   0.0 |  0.00
Modify  | 55.584     | 58.162     | 60.741     |  33.8 |  1.44
Other   |            | 13.14      |            |       |  0.33

Nlocal:    9826 ave 9854 max 9798 min
Histogram: 1 0 0 0 0 0 0 0 0 1
Nghost:    9675.5 ave 9703 max 9648 min
Histogram: 1 0 0 0 0 0 0 0 0 1
Neighs:    375216 ave 376885 max 373547 min
Histogram: 1 0 0 0 0 0 0 0 0 1

Total # of neighbors = 750432
Ave neighs/atom = 38.186
Neighbor list builds = 49505
Dangerous builds not checked
Setting up Verlet run ...
  Unit style    : metal
  Current step  : 190000
  Time step     : 0.001
Per MPI rank memory allocation (min/avg/max) = 11.36 | 11.36 | 11.36 Mbytes
Step Temp Press TotEng PotEng Enthalpy 
  190000    2308.3901   -208.59229   -14390.814   -20254.336   -14475.946 
  190495    2254.3006    295.54518   -14592.303   -20318.432   -14472.268 
Loop time of 36.569 on 2 procs for 495 steps with 19652 atoms

Performance: 1.170 ns/day, 20.521 hours/ns, 13.536 timesteps/s
99.2% CPU use with 2 MPI tasks x no OpenMP threads

MPI task timing breakdown:
Section |  min time  |  avg time  |  max time  |%varavg| %total
---------------------------------------------------------------
Pair    | 18.342     | 19.142     | 19.942     |  18.3 | 52.35
Neigh   | 12.123     | 13.616     | 15.11      |  40.5 | 37.23
Comm    | 0.84979    | 3.1889     | 5.528      | 131.0 |  8.72
Output  | 5.6982e-05 | 8.297e-05  | 0.00010896 |   0.0 |  0.00
Modify  | 0.48283    | 0.49588    | 0.50894    |   1.9 |  1.36
Other   |            | 0.1256     |            |       |  0.34

Nlocal:    9826 ave 9871 max 9781 min
Histogram: 1 0 0 0 0 0 0 0 0 1
Nghost:    9731.5 ave 9765 max 9698 min
Histogram: 1 0 0 0 0 0 0 0 0 1
Neighs:    377161 ave 380343 max 373979 min
Histogram: 1 0 0 0 0 0 0 0 0 1

Total # of neighbors = 754322
Ave neighs/atom = 38.384
Neighbor list builds = 495
Dangerous builds not checked
Setting up Verlet run ...
  Unit style    : metal
  Current step  : 190495
  Time step     : 0.001
Per MPI rank memory allocation (min/avg/max) = 11.36 | 11.36 | 11.36 Mbytes
Step Temp Press TotEng PotEng Enthalpy 
  190495    2254.3006    295.54518   -14592.303   -20318.432   -14472.268 
  200000    2244.4899   -156.48096   -14789.915   -20491.124   -14852.923 
  240000    2244.3728    206.70973   -14799.163   -20500.074   -14716.227 
Loop time of 4871.08 on 2 procs for 49505 steps with 19652 atoms

Performance: 0.878 ns/day, 27.332 hours/ns, 10.163 timesteps/s
89.1% CPU use with 2 MPI tasks x no OpenMP threads

MPI task timing breakdown:
Section |  min time  |  avg time  |  max time  |%varavg| %total
---------------------------------------------------------------
Pair    | 2554.9     | 2662.8     | 2770.7     | 209.1 | 54.67
Neigh   | 1639       | 1660.9     | 1682.8     |  53.7 | 34.10
Comm    | 324.54     | 455.21     | 585.88     | 612.5 |  9.35
Output  | 0.056153   | 0.056216   | 0.056279   |   0.0 |  0.00
Modify  | 74.939     | 76.401     | 77.864     |  16.7 |  1.57
Other   |            | 15.67      |            |       |  0.32

Nlocal:    9826 ave 9840 max 9812 min
Histogram: 1 0 0 0 0 0 0 0 0 1
Nghost:    9787 ave 9828 max 9746 min
Histogram: 1 0 0 0 0 0 0 0 0 1
Neighs:    381608 ave 382390 max 380826 min
Histogram: 1 0 0 0 0 0 0 0 0 1

Total # of neighbors = 763216
Ave neighs/atom = 38.8366
Neighbor list builds = 49505
Dangerous builds not checked
Setting up Verlet run ...
  Unit style    : metal
  Current step  : 240000
  Time step     : 0.001
Per MPI rank memory allocation (min/avg/max) = 11.36 | 11.36 | 11.36 Mbytes
Step Temp Press TotEng PotEng Enthalpy 
  240000    2244.3728    206.70973   -14799.163   -20500.074   -14716.227 
  240495    2207.1142   -364.73597   -14966.497   -20572.768   -15112.643 
Loop time of 95.8674 on 2 procs for 495 steps with 19652 atoms

Performance: 0.446 ns/day, 53.798 hours/ns, 5.163 timesteps/s
64.9% CPU use with 2 MPI tasks x no OpenMP threads

MPI task timing breakdown:
Section |  min time  |  avg time  |  max time  |%varavg| %total
---------------------------------------------------------------
Pair    | 50.598     | 50.82      | 51.043     |   3.1 | 53.01
Neigh   | 19.955     | 24.719     | 29.483     |  95.8 | 25.78
Comm    | 12.175     | 17.327     | 22.479     | 123.8 | 18.07
Output  | 7.1049e-05 | 0.00011647 | 0.00016189 |   0.0 |  0.00
Modify  | 2.6789     | 2.787      | 2.8951     |   6.5 |  2.91
Other   |            | 0.2137     |            |       |  0.22

Nlocal:    9826 ave 9828 max 9824 min
Histogram: 1 0 0 0 0 0 0 0 0 1
Nghost:    9824.5 ave 9867 max 9782 min
Histogram: 1 0 0 0 0 0 0 0 0 1
Neighs:    382195 ave 382767 max 381623 min
Histogram: 1 0 0 0 0 0 0 0 0 1

Total # of neighbors = 764390
Ave neighs/atom = 38.8963
Neighbor list builds = 495
Dangerous builds not checked
Setting up Verlet run ...
  Unit style    : metal
  Current step  : 240495
  Time step     : 0.001
Per MPI rank memory allocation (min/avg/max) = 11.36 | 11.36 | 11.36 Mbytes
Step Temp Press TotEng PotEng Enthalpy 
  240495    2207.1142   -364.73597   -14966.497   -20572.768   -15112.643 
  250000     2204.584   -678.77266   -14996.719   -20596.563   -15268.447 
  290000    2214.1211   -355.65652   -15089.717   -20713.786   -15231.051 
Loop time of 5506.7 on 2 procs for 49505 steps with 19652 atoms

Performance: 0.777 ns/day, 30.899 hours/ns, 8.990 timesteps/s
88.6% CPU use with 2 MPI tasks x no OpenMP threads

MPI task timing breakdown:
Section |  min time  |  avg time  |  max time  |%varavg| %total
---------------------------------------------------------------
Pair    | 2937.8     | 3073       | 3208.2     | 243.9 | 55.80
Neigh   | 1730.7     | 1807.9     | 1885.1     | 181.6 | 32.83
Comm    | 308.45     | 523.33     | 738.22     | 939.3 |  9.50
Output  | 0.093822   | 0.093887   | 0.093952   |   0.0 |  0.00
Modify  | 83.845     | 84.837     | 85.83      |  10.8 |  1.54
Other   |            | 17.5       |            |       |  0.32

Nlocal:    9826 ave 9848 max 9804 min
Histogram: 1 0 0 0 0 0 0 0 0 1
Nghost:    9862 ave 9900 max 9824 min
Histogram: 1 0 0 0 0 0 0 0 0 1
Neighs:    385294 ave 386968 max 383619 min
Histogram: 1 0 0 0 0 0 0 0 0 1

Total # of neighbors = 770587
Ave neighs/atom = 39.2116
Neighbor list builds = 49505
Dangerous builds not checked
Setting up Verlet run ...
  Unit style    : metal
  Current step  : 290000
  Time step     : 0.001
Per MPI rank memory allocation (min/avg/max) = 11.36 | 11.36 | 11.36 Mbytes
Step Temp Press TotEng PotEng Enthalpy 
  290000    2214.1211   -355.65652   -15089.717   -20713.786   -15231.051 
  290495    2160.4687    16.642486   -15294.274   -20782.062   -15287.701 
Loop time of 41.5941 on 2 procs for 495 steps with 19652 atoms

Performance: 1.028 ns/day, 23.341 hours/ns, 11.901 timesteps/s
99.6% CPU use with 2 MPI tasks x no OpenMP threads

MPI task timing breakdown:
Section |  min time  |  avg time  |  max time  |%varavg| %total
---------------------------------------------------------------
Pair    | 21.72      | 23.047     | 24.374     |  27.6 | 55.41
Neigh   | 15.268     | 15.278     | 15.289     |   0.3 | 36.73
Comm    | 1.1371     | 2.4968     | 3.8565     |  86.0 |  6.00
Output  | 8.5115e-05 | 0.00012159 | 0.00015807 |   0.0 |  0.00
Modify  | 0.61751    | 0.61859    | 0.61967    |   0.1 |  1.49
Other   |            | 0.1535     |            |       |  0.37

Nlocal:    9826 ave 9826 max 9826 min
Histogram: 2 0 0 0 0 0 0 0 0 0
Nghost:    9967 ave 9996 max 9938 min
Histogram: 1 0 0 0 0 0 0 0 0 1
Neighs:    387688 ave 388225 max 387150 min
Histogram: 1 0 0 0 0 0 0 0 0 1

Total # of neighbors = 775375
Ave neighs/atom = 39.4553
Neighbor list builds = 495
Dangerous builds not checked
Setting up Verlet run ...
  Unit style    : metal
  Current step  : 290495
  Time step     : 0.001
Per MPI rank memory allocation (min/avg/max) = 11.36 | 11.36 | 11.36 Mbytes
Step Temp Press TotEng PotEng Enthalpy 
  290495    2160.4687    16.642486   -15294.274   -20782.062   -15287.701 
  300000    2148.4412   -585.74728   -15387.908   -20845.144    -15619.23 
  340000    2165.5658     309.7158   -15407.441   -20908.175   -15285.973 
Loop time of 4406.49 on 2 procs for 49505 steps with 19652 atoms

Performance: 0.971 ns/day, 24.725 hours/ns, 11.235 timesteps/s
99.0% CPU use with 2 MPI tasks x no OpenMP threads

MPI task timing breakdown:
Section |  min time  |  avg time  |  max time  |%varavg| %total
---------------------------------------------------------------
Pair    | 2304.8     | 2441.8     | 2578.7     | 277.2 | 55.41
Neigh   | 1513.1     | 1542.7     | 1572.2     |  75.2 | 35.01
Comm    | 178        | 346.14     | 514.28     | 903.7 |  7.86
Output  | 0.10082    | 0.10088    | 0.10093    |   0.0 |  0.00
Modify  | 59.13      | 60.742     | 62.354     |  20.7 |  1.38
Other   |            | 15.07      |            |       |  0.34

Nlocal:    9826 ave 9829 max 9823 min
Histogram: 1 0 0 0 0 0 0 0 0 1
Nghost:    9857 ave 9908 max 9806 min
Histogram: 1 0 0 0 0 0 0 0 0 1
Neighs:    390524 ave 390721 max 390326 min
Histogram: 1 0 0 0 0 0 0 0 0 1

Total # of neighbors = 781047
Ave neighs/atom = 39.7439
Neighbor list builds = 49505
Dangerous builds not checked
Setting up Verlet run ...
  Unit style    : metal
  Current step  : 340000
  Time step     : 0.001
Per MPI rank memory allocation (min/avg/max) = 11.36 | 11.36 | 11.36 Mbytes
Step Temp Press TotEng PotEng Enthalpy 
  340000    2165.5658     309.7158   -15407.441   -20908.175   -15285.973 
  340495    2103.9095   -186.37842   -15630.461   -20974.582   -15703.334 
Loop time of 39.4772 on 2 procs for 495 steps with 19652 atoms

Performance: 1.083 ns/day, 22.153 hours/ns, 12.539 timesteps/s
98.5% CPU use with 2 MPI tasks x no OpenMP threads

MPI task timing breakdown:
Section |  min time  |  avg time  |  max time  |%varavg| %total
---------------------------------------------------------------
Pair    | 20.097     | 21.637     | 23.177     |  33.1 | 54.81
Neigh   | 13.492     | 13.979     | 14.466     |  13.0 | 35.41
Comm    | 2.0615     | 3.1415     | 4.2215     |  60.9 |  7.96
Output  | 0.00012302 | 0.00013804 | 0.00015306 |   0.0 |  0.00
Modify  | 0.55305    | 0.56596    | 0.57886    |   1.7 |  1.43
Other   |            | 0.1534     |            |       |  0.39

Nlocal:    9826 ave 9828 max 9824 min
Histogram: 1 0 0 0 0 0 0 0 0 1
Nghost:    9905 ave 9919 max 9891 min
Histogram: 1 0 0 0 0 0 0 0 0 1
Neighs:    391730 ave 391911 max 391550 min
Histogram: 1 0 0 0 0 0 0 0 0 1

Total # of neighbors = 783461
Ave neighs/atom = 39.8667
Neighbor list builds = 495
Dangerous builds not checked
Setting up Verlet run ...
  Unit style    : metal
  Current step  : 340495
  Time step     : 0.001
Per MPI rank memory allocation (min/avg/max) = 11.36 | 11.36 | 11.36 Mbytes
Step Temp Press TotEng PotEng Enthalpy 
  340495    2103.9095   -186.37842   -15630.461   -20974.582   -15703.334 
  350000    2112.5845   -72.518443   -15662.477   -21028.634   -15690.754 
  390000    2078.7677   -16.256152    -15795.29   -21075.549   -15801.612 
Loop time of 4453.47 on 2 procs for 49505 steps with 19652 atoms

Performance: 0.960 ns/day, 24.989 hours/ns, 11.116 timesteps/s
98.7% CPU use with 2 MPI tasks x no OpenMP threads

MPI task timing breakdown:
Section |  min time  |  avg time  |  max time  |%varavg| %total
---------------------------------------------------------------
Pair    | 2324.8     | 2462       | 2599.2     | 276.5 | 55.28
Neigh   | 1512       | 1563.4     | 1614.8     | 130.0 | 35.10
Comm    | 161.02     | 351.57     | 542.12     |1016.2 |  7.89
Output  | 0.061622   | 0.061686   | 0.061749   |   0.0 |  0.00
Modify  | 60.121     | 61.602     | 63.083     |  18.9 |  1.38
Other   |            | 14.89      |            |       |  0.33

Nlocal:    9826 ave 9839 max 9813 min
Histogram: 1 0 0 0 0 0 0 0 0 1
Nghost:    9934.5 ave 9957 max 9912 min
Histogram: 1 0 0 0 0 0 0 0 0 1
Neighs:    393684 ave 394293 max 393075 min
Histogram: 1 0 0 0 0 0 0 0 0 1

Total # of neighbors = 787368
Ave neighs/atom = 40.0655
Neighbor list builds = 49505
Dangerous builds not checked
Setting up Verlet run ...
  Unit style    : metal
  Current step  : 390000
  Time step     : 0.001
Per MPI rank memory allocation (min/avg/max) = 11.36 | 11.36 | 11.36 Mbytes
Step Temp Press TotEng PotEng Enthalpy 
  390000    2078.7677   -16.256152    -15795.29   -21075.549   -15801.612 
  390495     2058.213    36.078127   -15925.181   -21153.229   -15911.207 
Loop time of 44.7611 on 2 procs for 495 steps with 19652 atoms

Performance: 0.955 ns/day, 25.118 hours/ns, 11.059 timesteps/s
94.9% CPU use with 2 MPI tasks x no OpenMP threads

MPI task timing breakdown:
Section |  min time  |  avg time  |  max time  |%varavg| %total
---------------------------------------------------------------
Pair    | 23.377     | 24.435     | 25.493     |  21.4 | 54.59
Neigh   | 15.37      | 15.652     | 15.933     |   7.1 | 34.97
Comm    | 2.3566     | 3.737      | 5.1174     |  71.4 |  8.35
Output  | 0.00011086 | 0.00014687 | 0.00018287 |   0.0 |  0.00
Modify  | 0.76515    | 0.77405    | 0.78294    |   1.0 |  1.73
Other   |            | 0.1633     |            |       |  0.36

Nlocal:    9826 ave 9842 max 9810 min
Histogram: 1 0 0 0 0 0 0 0 0 1
Nghost:    9980.5 ave 10027 max 9934 min
Histogram: 1 0 0 0 0 0 0 0 0 1
Neighs:    395628 ave 395630 max 395627 min
Histogram: 1 0 0 0 0 0 0 0 0 1

Total # of neighbors = 791257
Ave neighs/atom = 40.2634
Neighbor list builds = 495
Dangerous builds not checked
Setting up Verlet run ...
  Unit style    : metal
  Current step  : 390495
  Time step     : 0.001
Per MPI rank memory allocation (min/avg/max) = 11.36 | 11.36 | 11.36 Mbytes
Step Temp Press TotEng PotEng Enthalpy 
  390495     2058.213    36.078127   -15925.181   -21153.229   -15911.207 
  400000    2070.3212    532.41736   -16034.554   -21293.358   -15830.446 
  440000    2034.0341   -236.88409   -16106.289   -21272.921   -16197.211 
Loop time of 4390.98 on 2 procs for 49505 steps with 19652 atoms

Performance: 0.974 ns/day, 24.638 hours/ns, 11.274 timesteps/s
98.8% CPU use with 2 MPI tasks x no OpenMP threads

MPI task timing breakdown:
Section |  min time  |  avg time  |  max time  |%varavg| %total
---------------------------------------------------------------
Pair    | 2278.2     | 2415       | 2551.8     | 278.3 | 55.00
Neigh   | 1502.1     | 1554.3     | 1606.5     | 132.4 | 35.40
Comm    | 154.67     | 345.86     | 537.05     |1028.1 |  7.88
Output  | 0.092091   | 0.092154   | 0.092216   |   0.0 |  0.00
Modify  | 59.2       | 60.817     | 62.434     |  20.7 |  1.39
Other   |            | 14.88      |            |       |  0.34

Nlocal:    9826 ave 9866 max 9786 min
Histogram: 1 0 0 0 0 0 0 0 0 1
Nghost:    9971.5 ave 9998 max 9945 min
Histogram: 1 0 0 0 0 0 0 0 0 1
Neighs:    398699 ave 400725 max 396673 min
Histogram: 1 0 0 0 0 0 0 0 0 1

Total # of neighbors = 797398
Ave neighs/atom = 40.5759
Neighbor list builds = 49505
Dangerous builds not checked
Setting up Verlet run ...
  Unit style    : metal
  Current step  : 440000
  Time step     : 0.001
Per MPI rank memory allocation (min/avg/max) = 11.36 | 11.36 | 11.36 Mbytes
Step Temp Press TotEng PotEng Enthalpy 
  440000    2034.0341   -236.88409   -16106.289   -21272.921   -16197.211 
  440495    2003.6291     45.53256   -16296.813   -21386.214   -16279.429 
Loop time of 36.9122 on 2 procs for 495 steps with 19652 atoms

Performance: 1.159 ns/day, 20.714 hours/ns, 13.410 timesteps/s
99.6% CPU use with 2 MPI tasks x no OpenMP threads

MPI task timing breakdown:
Section |  min time  |  avg time  |  max time  |%varavg| %total
---------------------------------------------------------------
Pair    | 19.064     | 19.981     | 20.898     |  20.5 | 54.13
Neigh   | 13.325     | 13.329     | 13.334     |   0.1 | 36.11
Comm    | 1.9605     | 2.8974     | 3.8343     |  55.0 |  7.85
Output  | 8.297e-05  | 0.00011456 | 0.00014615 |   0.0 |  0.00
Modify  | 0.53661    | 0.56202    | 0.58744    |   3.4 |  1.52
Other   |            | 0.142      |            |       |  0.38

Nlocal:    9826 ave 9866 max 9786 min
Histogram: 1 0 0 0 0 0 0 0 0 1
Nghost:    9977 ave 9983 max 9971 min
Histogram: 1 0 0 0 0 0 0 0 0 1
Neighs:    401284 ave 401891 max 400676 min
Histogram: 1 0 0 0 0 0 0 0 0 1

Total # of neighbors = 802567
Ave neighs/atom = 40.8389
Neighbor list builds = 495
Dangerous builds not checked
Setting up Verlet run ...
  Unit style    : metal
  Current step  : 440495
  Time step     : 0.001
Per MPI rank memory allocation (min/avg/max) = 11.36 | 11.36 | 11.36 Mbytes
Step Temp Press TotEng PotEng Enthalpy 
  440495    2003.6291     45.53256   -16296.813   -21386.214   -16279.429 
  450000    2012.1211    416.26568    -16394.84   -21505.811   -16237.166 
  490000    1996.7501    150.90464   -16412.025   -21483.952    -16354.77 
Loop time of 4525.95 on 2 procs for 49505 steps with 19652 atoms

Performance: 0.945 ns/day, 25.396 hours/ns, 10.938 timesteps/s
96.7% CPU use with 2 MPI tasks x no OpenMP threads

MPI task timing breakdown:
Section |  min time  |  avg time  |  max time  |%varavg| %total
---------------------------------------------------------------
Pair    | 2352       | 2453.4     | 2554.9     | 204.9 | 54.21
Neigh   | 1590.1     | 1630.1     | 1670.1     |  99.0 | 36.02
Comm    | 224.74     | 366.04     | 507.33     | 738.5 |  8.09
Output  | 0.082317   | 0.082385   | 0.082453   |   0.0 |  0.00
Modify  | 58.635     | 61.78      | 64.925     |  40.0 |  1.37
Other   |            | 14.52      |            |       |  0.32

Nlocal:    9826 ave 9830 max 9822 min
Histogram: 1 0 0 0 0 0 0 0 0 1
Nghost:    10038.5 ave 10055 max 10022 min
Histogram: 1 0 0 0 0 0 0 0 0 1
Neighs:    403335 ave 406231 max 400439 min
Histogram: 1 0 0 0 0 0 0 0 0 1

Total # of neighbors = 806670
Ave neighs/atom = 41.0477
Neighbor list builds = 49505
Dangerous builds not checked
Setting up Verlet run ...
  Unit style    : metal
  Current step  : 490000
  Time step     : 0.001
Per MPI rank memory allocation (min/avg/max) = 11.36 | 11.36 | 11.36 Mbytes
Step Temp Press TotEng PotEng Enthalpy 
  490000    1996.7501    150.90464   -16412.025   -21483.952    -16354.77 
  490495     1958.257    128.72367    -16620.66   -21594.811   -16572.118 
Loop time of 36.6899 on 2 procs for 495 steps with 19652 atoms

Performance: 1.166 ns/day, 20.589 hours/ns, 13.491 timesteps/s
99.3% CPU use with 2 MPI tasks x no OpenMP threads

MPI task timing breakdown:
Section |  min time  |  avg time  |  max time  |%varavg| %total
---------------------------------------------------------------
Pair    | 18.725     | 19.216     | 19.707     |  11.2 | 52.37
Neigh   | 14.644     | 15.009     | 15.374     |   9.4 | 40.91
Comm    | 0.94878    | 1.8262     | 2.7035     |  64.9 |  4.98
Output  | 7.9155e-05 | 0.00012016 | 0.00016117 |   0.0 |  0.00
Modify  | 0.49732    | 0.50059    | 0.50387    |   0.5 |  1.36
Other   |            | 0.1381     |            |       |  0.38

Nlocal:    9826 ave 9870 max 9782 min
Histogram: 1 0 0 0 0 0 0 0 0 1
Nghost:    10044.5 ave 10088 max 10001 min
Histogram: 1 0 0 0 0 0 0 0 0 1
Neighs:    406208 ave 406445 max 405971 min
Histogram: 1 0 0 0 0 0 0 0 0 1

Total # of neighbors = 812416
Ave neighs/atom = 41.3401
Neighbor list builds = 495
Dangerous builds not checked
Setting up Verlet run ...
  Unit style    : metal
  Current step  : 490495
  Time step     : 0.001
Per MPI rank memory allocation (min/avg/max) = 11.36 | 11.36 | 11.36 Mbytes
Step Temp Press TotEng PotEng Enthalpy 
  490495     1958.257    128.72367    -16620.66   -21594.811   -16572.118 
  500000    1965.6454    168.32724   -16602.678   -21595.596   -16539.085 
  540000    1961.7646    210.96754   -16693.084   -21676.145   -16613.776 
Loop time of 4233.79 on 2 procs for 49505 steps with 19652 atoms

Performance: 1.010 ns/day, 23.756 hours/ns, 11.693 timesteps/s
98.2% CPU use with 2 MPI tasks x no OpenMP threads

MPI task timing breakdown:
Section |  min time  |  avg time  |  max time  |%varavg| %total
---------------------------------------------------------------
Pair    | 2191.7     | 2284.9     | 2378       | 194.8 | 53.97
Neigh   | 1493       | 1534.8     | 1576.7     | 106.9 | 36.25
Comm    | 197.01     | 333.98     | 470.96     | 749.5 |  7.89
Output  | 0.066941   | 0.066983   | 0.067026   |   0.0 |  0.00
Modify  | 65.394     | 66.515     | 67.637     |  13.8 |  1.57
Other   |            | 13.53      |            |       |  0.32

Nlocal:    9826 ave 9832 max 9820 min
Histogram: 1 0 0 0 0 0 0 0 0 1
Nghost:    10067.5 ave 10068 max 10067 min
Histogram: 1 0 0 0 0 0 0 0 0 1
Neighs:    407490 ave 410518 max 404463 min
Histogram: 1 0 0 0 0 0 0 0 0 1

Total # of neighbors = 814981
Ave neighs/atom = 41.4706
Neighbor list builds = 49505
Dangerous builds not checked
Setting up Verlet run ...
  Unit style    : metal
  Current step  : 540000
  Time step     : 0.001
Per MPI rank memory allocation (min/avg/max) = 11.36 | 11.36 | 11.36 Mbytes
Step Temp Press TotEng PotEng Enthalpy 
  540000    1961.7646    210.96754   -16693.084   -21676.145   -16613.776 
  540495     1913.039   -412.44231   -16910.237    -21769.53   -17064.978 
Loop time of 40.2078 on 2 procs for 495 steps with 19652 atoms

Performance: 1.064 ns/day, 22.563 hours/ns, 12.311 timesteps/s
99.4% CPU use with 2 MPI tasks x no OpenMP threads

MPI task timing breakdown:
Section |  min time  |  avg time  |  max time  |%varavg| %total
---------------------------------------------------------------
Pair    | 21.077     | 21.677     | 22.276     |  12.9 | 53.91
Neigh   | 14.219     | 14.99      | 15.761     |  19.9 | 37.28
Comm    | 1.4701     | 2.8788     | 4.2876     |  83.0 |  7.16
Output  | 7.2002e-05 | 0.00010002 | 0.00012803 |   0.0 |  0.00
Modify  | 0.51604    | 0.52039    | 0.52475    |   0.6 |  1.29
Other   |            | 0.1416     |            |       |  0.35

Nlocal:    9826 ave 9838 max 9814 min
Histogram: 1 0 0 0 0 0 0 0 0 1
Nghost:    10020.5 ave 10043 max 9998 min
Histogram: 1 0 0 0 0 0 0 0 0 1
Neighs:    408309 ave 411516 max 405102 min
Histogram: 1 0 0 0 0 0 0 0 0 1

Total # of neighbors = 816618
Ave neighs/atom = 41.5539
Neighbor list builds = 495
Dangerous builds not checked
Setting up Verlet run ...
  Unit style    : metal
  Current step  : 540495
  Time step     : 0.001
Per MPI rank memory allocation (min/avg/max) = 11.36 | 11.36 | 11.36 Mbytes
Step Temp Press TotEng PotEng Enthalpy 
  540495     1913.039   -412.44231   -16910.237    -21769.53   -17064.978 
  550000    1901.7837    23.314901   -17040.868   -21871.572   -17032.191 
  590000    1897.2337    -109.2401    -17047.62   -21866.767   -17088.338 
Loop time of 4097.61 on 2 procs for 49505 steps with 19652 atoms

Performance: 1.044 ns/day, 22.992 hours/ns, 12.081 timesteps/s
98.7% CPU use with 2 MPI tasks x no OpenMP threads

MPI task timing breakdown:
Section |  min time  |  avg time  |  max time  |%varavg| %total
---------------------------------------------------------------
Pair    | 2143.5     | 2215       | 2286.4     | 151.7 | 54.05
Neigh   | 1512.1     | 1536.9     | 1561.8     |  63.4 | 37.51
Comm    | 182.2      | 279.96     | 377.71     | 584.2 |  6.83
Output  | 0.063776   | 0.063832   | 0.063888   |   0.0 |  0.00
Modify  | 51.334     | 52.337     | 53.34      |  13.9 |  1.28
Other   |            | 13.37      |            |       |  0.33

Nlocal:    9826 ave 9844 max 9808 min
Histogram: 1 0 0 0 0 0 0 0 0 1
Nghost:    10121.5 ave 10126 max 10117 min
Histogram: 1 0 0 0 0 0 0 0 0 1
Neighs:    411002 ave 413883 max 408121 min
Histogram: 1 0 0 0 0 0 0 0 0 1

Total # of neighbors = 822004
Ave neighs/atom = 41.828
Neighbor list builds = 49505
Dangerous builds not checked
Setting up Verlet run ...
  Unit style    : metal
  Current step  : 590000
  Time step     : 0.001
Per MPI rank memory allocation (min/avg/max) = 11.36 | 11.36 | 11.36 Mbytes
Step Temp Press TotEng PotEng Enthalpy 
  590000    1897.2337    -109.2401    -17047.62   -21866.767   -17088.338 
  590495    1854.9382    107.94428   -17256.016   -21967.728   -17216.058 
Loop time of 44.118 on 2 procs for 495 steps with 19652 atoms

Performance: 0.969 ns/day, 24.758 hours/ns, 11.220 timesteps/s
97.7% CPU use with 2 MPI tasks x no OpenMP threads

MPI task timing breakdown:
Section |  min time  |  avg time  |  max time  |%varavg| %total
---------------------------------------------------------------
Pair    | 24.248     | 24.712     | 25.175     |   9.3 | 56.01
Neigh   | 15.968     | 16.174     | 16.381     |   5.1 | 36.66
Comm    | 2.1527     | 2.4278     | 2.703      |  17.7 |  5.50
Output  | 0.000108   | 0.00014102 | 0.00017405 |   0.0 |  0.00
Modify  | 0.61407    | 0.6524     | 0.69073    |   4.7 |  1.48
Other   |            | 0.1516     |            |       |  0.34

Nlocal:    9826 ave 9841 max 9811 min
Histogram: 1 0 0 0 0 0 0 0 0 1
Nghost:    10131 ave 10157 max 10105 min
Histogram: 1 0 0 0 0 0 0 0 0 1
Neighs:    413570 ave 416265 max 410874 min
Histogram: 1 0 0 0 0 0 0 0 0 1

Total # of neighbors = 827139
Ave neighs/atom = 42.0893
Neighbor list builds = 495
Dangerous builds not checked
Setting up Verlet run ...
  Unit style    : metal
  Current step  : 590495
  Time step     : 0.001
Per MPI rank memory allocation (min/avg/max) = 11.36 | 11.36 | 11.36 Mbytes
Step Temp Press TotEng PotEng Enthalpy 
  590495    1854.9382    107.94428   -17256.016   -21967.728   -17216.058 
  600000    1847.1414    201.45547   -17405.154   -22097.062    -17331.04 
  640000     1843.823    36.149944   -17326.195   -22009.673   -17312.849 
Loop time of 4183.53 on 2 procs for 49505 steps with 19652 atoms

Performance: 1.022 ns/day, 23.474 hours/ns, 11.833 timesteps/s
96.8% CPU use with 2 MPI tasks x no OpenMP threads

MPI task timing breakdown:
Section |  min time  |  avg time  |  max time  |%varavg| %total
---------------------------------------------------------------
Pair    | 2185.3     | 2254.9     | 2324.4     | 146.5 | 53.90
Neigh   | 1477.3     | 1493.7     | 1510.1     |  42.4 | 35.71
Comm    | 275.7      | 362.87     | 450.03     | 457.6 |  8.67
Output  | 0.063573   | 0.063631   | 0.063689   |   0.0 |  0.00
Modify  | 57.249     | 58.661     | 60.072     |  18.4 |  1.40
Other   |            | 13.32      |            |       |  0.32

Nlocal:    9826 ave 9837 max 9815 min
Histogram: 1 0 0 0 0 0 0 0 0 1
Nghost:    10086.5 ave 10089 max 10084 min
Histogram: 1 0 0 0 0 0 0 0 0 1
Neighs:    414689 ave 417802 max 411576 min
Histogram: 1 0 0 0 0 0 0 0 0 1

Total # of neighbors = 829378
Ave neighs/atom = 42.2032
Neighbor list builds = 49505
Dangerous builds not checked
Setting up Verlet run ...
  Unit style    : metal
  Current step  : 640000
  Time step     : 0.001
Per MPI rank memory allocation (min/avg/max) = 11.36 | 11.36 | 11.36 Mbytes
Step Temp Press TotEng PotEng Enthalpy 
  640000     1843.823    36.149944   -17326.195   -22009.673   -17312.849 
  640495    1822.5082   -250.87068   -17561.207   -22190.544    -17653.12 
Loop time of 48.386 on 2 procs for 495 steps with 19652 atoms

Performance: 0.884 ns/day, 27.153 hours/ns, 10.230 timesteps/s
87.9% CPU use with 2 MPI tasks x no OpenMP threads

MPI task timing breakdown:
Section |  min time  |  avg time  |  max time  |%varavg| %total
---------------------------------------------------------------
Pair    | 25.745     | 26.443     | 27.141     |  13.6 | 54.65
Neigh   | 17.008     | 17.29      | 17.572     |   6.8 | 35.73
Comm    | 3.3592     | 3.7739     | 4.1885     |  21.3 |  7.80
Output  | 0.00010204 | 0.00012958 | 0.00015712 |   0.0 |  0.00
Modify  | 0.7123     | 0.72333    | 0.73436    |   1.3 |  1.49
Other   |            | 0.1557     |            |       |  0.32

Nlocal:    9826 ave 9839 max 9813 min
Histogram: 1 0 0 0 0 0 0 0 0 1
Nghost:    10122 ave 10143 max 10101 min
Histogram: 1 0 0 0 0 0 0 0 0 1
Neighs:    417863 ave 420536 max 415190 min
Histogram: 1 0 0 0 0 0 0 0 0 1

Total # of neighbors = 835726
Ave neighs/atom = 42.5263
Neighbor list builds = 495
Dangerous builds not checked
Setting up Verlet run ...
  Unit style    : metal
  Current step  : 640495
  Time step     : 0.001
Per MPI rank memory allocation (min/avg/max) = 11.36 | 11.36 | 11.36 Mbytes
Step Temp Press TotEng PotEng Enthalpy 
  640495    1822.5082   -250.87068   -17561.207   -22190.544    -17653.12 
  650000     1808.702    378.05533   -17597.758   -22192.026    -17459.48 
  690000    1800.7917    280.62441   -17717.331   -22291.506   -17615.234 
Loop time of 3907.88 on 2 procs for 49505 steps with 19652 atoms

Performance: 1.095 ns/day, 21.928 hours/ns, 12.668 timesteps/s
96.1% CPU use with 2 MPI tasks x no OpenMP threads

MPI task timing breakdown:
Section |  min time  |  avg time  |  max time  |%varavg| %total
---------------------------------------------------------------
Pair    | 2043.2     | 2094.2     | 2145.1     | 111.4 | 53.59
Neigh   | 1396.7     | 1457.1     | 1517.5     | 158.3 | 37.29
Comm    | 181.66     | 295.32     | 408.98     | 661.4 |  7.56
Output  | 0.20524    | 0.20531    | 0.20537    |   0.0 |  0.01
Modify  | 48.77      | 48.86      | 48.95      |   1.3 |  1.25
Other   |            | 12.21      |            |       |  0.31

Nlocal:    9826 ave 9842 max 9810 min
Histogram: 1 0 0 0 0 0 0 0 0 1
Nghost:    10175.5 ave 10196 max 10155 min
Histogram: 1 0 0 0 0 0 0 0 0 1
Neighs:    421018 ave 424163 max 417874 min
Histogram: 1 0 0 0 0 0 0 0 0 1

Total # of neighbors = 842037
Ave neighs/atom = 42.8474
Neighbor list builds = 49505
Dangerous builds not checked
Setting up Verlet run ...
  Unit style    : metal
  Current step  : 690000
  Time step     : 0.001
Per MPI rank memory allocation (min/avg/max) = 11.36 | 11.36 | 11.36 Mbytes
Step Temp Press TotEng PotEng Enthalpy 
  690000    1800.7917    280.62441   -17717.331   -22291.506   -17615.234 
  690495    1757.3874    10.636326   -17848.431   -22312.355   -17844.556 
Loop time of 35.5025 on 2 procs for 495 steps with 19652 atoms

Performance: 1.205 ns/day, 19.923 hours/ns, 13.943 timesteps/s
99.2% CPU use with 2 MPI tasks x no OpenMP threads

MPI task timing breakdown:
Section |  min time  |  avg time  |  max time  |%varavg| %total
---------------------------------------------------------------
Pair    | 18.879     | 18.897     | 18.916     |   0.4 | 53.23
Neigh   | 12.702     | 13.657     | 14.611     |  25.8 | 38.47
Comm    | 1.3781     | 2.3776     | 3.377      |  64.8 |  6.70
Output  | 0.00011706 | 0.00014853 | 0.00018001 |   0.0 |  0.00
Modify  | 0.44319    | 0.45244    | 0.4617     |   1.4 |  1.27
Other   |            | 0.1182     |            |       |  0.33

Nlocal:    9826 ave 9848 max 9804 min
Histogram: 1 0 0 0 0 0 0 0 0 1
Nghost:    10149 ave 10155 max 10143 min
Histogram: 1 0 0 0 0 0 0 0 0 1
Neighs:    420555 ave 422337 max 418773 min
Histogram: 1 0 0 0 0 0 0 0 0 1

Total # of neighbors = 841110
Ave neighs/atom = 42.8002
Neighbor list builds = 495
Dangerous builds not checked
Setting up Verlet run ...
  Unit style    : metal
  Current step  : 690495
  Time step     : 0.001
Per MPI rank memory allocation (min/avg/max) = 11.36 | 11.36 | 11.36 Mbytes
Step Temp Press TotEng PotEng Enthalpy 
  690495    1757.3874    10.636326   -17848.431   -22312.355   -17844.556 
  700000    1740.2752   -195.79664   -18003.032    -22423.49   -18073.987 
  740000    1748.6804   -753.30312       -17938   -22379.807     -18212.3 
Loop time of 3520.57 on 2 procs for 49505 steps with 19652 atoms

Performance: 1.215 ns/day, 19.754 hours/ns, 14.062 timesteps/s
99.3% CPU use with 2 MPI tasks x no OpenMP threads

MPI task timing breakdown:
Section |  min time  |  avg time  |  max time  |%varavg| %total
---------------------------------------------------------------
Pair    | 1842.3     | 1886.8     | 1931.3     | 102.4 | 53.59
Neigh   | 1324.3     | 1337.8     | 1351.4     |  37.1 | 38.00
Comm    | 209.96     | 241.5      | 273.04     | 203.0 |  6.86
Output  | 0.062359   | 0.062482   | 0.062605   |   0.0 |  0.00
Modify  | 41.762     | 42.791     | 43.821     |  15.7 |  1.22
Other   |            | 11.6       |            |       |  0.33

Nlocal:    9826 ave 9851 max 9801 min
Histogram: 1 0 0 0 0 0 0 0 0 1
Nghost:    10202.5 ave 10248 max 10157 min
Histogram: 1 0 0 0 0 0 0 0 0 1
Neighs:    420831 ave 422671 max 418991 min
Histogram: 1 0 0 0 0 0 0 0 0 1

Total # of neighbors = 841662
Ave neighs/atom = 42.8283
Neighbor list builds = 49505
Dangerous builds not checked
Setting up Verlet run ...
  Unit style    : metal
  Current step  : 740000
  Time step     : 0.001
Per MPI rank memory allocation (min/avg/max) = 11.36 | 11.36 | 11.36 Mbytes
Step Temp Press TotEng PotEng Enthalpy 
  740000    1748.6804   -753.30312       -17938   -22379.807     -18212.3 
  740495    1714.5084    70.834475   -18156.455   -22511.463   -18130.919 
Loop time of 35.2003 on 2 procs for 495 steps with 19652 atoms

Performance: 1.215 ns/day, 19.753 hours/ns, 14.062 timesteps/s
98.5% CPU use with 2 MPI tasks x no OpenMP threads

MPI task timing breakdown:
Section |  min time  |  avg time  |  max time  |%varavg| %total
---------------------------------------------------------------
Pair    | 18.624     | 18.9       | 19.177     |   6.4 | 53.69
Neigh   | 12.837     | 13.371     | 13.905     |  14.6 | 37.98
Comm    | 2.0912     | 2.3606     | 2.63       |  17.5 |  6.71
Output  | 8.1062e-05 | 0.00011551 | 0.00014997 |   0.0 |  0.00
Modify  | 0.42053    | 0.44662    | 0.47271    |   3.9 |  1.27
Other   |            | 0.1221     |            |       |  0.35

Nlocal:    9826 ave 9832 max 9820 min
Histogram: 1 0 0 0 0 0 0 0 0 1
Nghost:    10229.5 ave 10243 max 10216 min
Histogram: 1 0 0 0 0 0 0 0 0 1
Neighs:    425086 ave 428591 max 421581 min
Histogram: 1 0 0 0 0 0 0 0 0 1

Total # of neighbors = 850172
Ave neighs/atom = 43.2613
Neighbor list builds = 495
Dangerous builds not checked
Setting up Verlet run ...
  Unit style    : metal
  Current step  : 740495
  Time step     : 0.001
Per MPI rank memory allocation (min/avg/max) = 11.36 | 11.36 | 11.36 Mbytes
Step Temp Press TotEng PotEng Enthalpy 
  740495    1714.5084    70.834475   -18156.455   -22511.463   -18130.919 
  750000    1700.4254    115.78884   -18284.254    -22603.49   -18242.724 
  790000     1689.244   -652.13916   -18317.022   -22607.856   -18551.965 
Loop time of 3353.06 on 2 procs for 49505 steps with 19652 atoms

Performance: 1.276 ns/day, 18.814 hours/ns, 14.764 timesteps/s
98.3% CPU use with 2 MPI tasks x no OpenMP threads

MPI task timing breakdown:
Section |  min time  |  avg time  |  max time  |%varavg| %total
---------------------------------------------------------------
Pair    | 1740.3     | 1775.4     | 1810.5     |  83.4 | 52.95
Neigh   | 1298.3     | 1308.1     | 1317.9     |  27.0 | 39.01
Comm    | 169.49     | 215.79     | 262.09     | 315.2 |  6.44
Output  | 0.19739    | 0.19745    | 0.1975     |   0.0 |  0.01
Modify  | 42.186     | 42.515     | 42.843     |   5.0 |  1.27
Other   |            | 11.07      |            |       |  0.33

Nlocal:    9826 ave 9838 max 9814 min
Histogram: 1 0 0 0 0 0 0 0 0 1
Nghost:    10293 ave 10304 max 10282 min
Histogram: 1 0 0 0 0 0 0 0 0 1
Neighs:    425328 ave 429905 max 420751 min
Histogram: 1 0 0 0 0 0 0 0 0 1

Total # of neighbors = 850656
Ave neighs/atom = 43.286
Neighbor list builds = 49505
Dangerous builds not checked
Setting up Verlet run ...
  Unit style    : metal
  Current step  : 790000
  Time step     : 0.001
Per MPI rank memory allocation (min/avg/max) = 11.36 | 11.36 | 11.36 Mbytes
Step Temp Press TotEng PotEng Enthalpy 
  790000     1689.244   -652.13916   -18317.022   -22607.856   -18551.965 
  790495    1660.8697    -216.1217   -18435.314   -22654.075   -18512.755 
Loop time of 34.6692 on 2 procs for 495 steps with 19652 atoms

Performance: 1.234 ns/day, 19.455 hours/ns, 14.278 timesteps/s
99.6% CPU use with 2 MPI tasks x no OpenMP threads

MPI task timing breakdown:
Section |  min time  |  avg time  |  max time  |%varavg| %total
---------------------------------------------------------------
Pair    | 18.224     | 18.435     | 18.647     |   4.9 | 53.17
Neigh   | 11.479     | 12.786     | 14.094     |  36.6 | 36.88
Comm    | 1.3613     | 2.9161     | 4.4709     |  91.0 |  8.41
Output  | 9.0122e-05 | 0.00013459 | 0.00017905 |   0.0 |  0.00
Modify  | 0.41581    | 0.42902    | 0.44224    |   2.0 |  1.24
Other   |            | 0.1024     |            |       |  0.30

Nlocal:    9826 ave 9831 max 9821 min
Histogram: 1 0 0 0 0 0 0 0 0 1
Nghost:    10301 ave 10305 max 10297 min
Histogram: 1 0 0 0 0 0 0 0 0 1
Neighs:    427628 ave 430934 max 424323 min
Histogram: 1 0 0 0 0 0 0 0 0 1

Total # of neighbors = 855257
Ave neighs/atom = 43.5201
Neighbor list builds = 495
Dangerous builds not checked
Setting up Verlet run ...
  Unit style    : metal
  Current step  : 790495
  Time step     : 0.001
Per MPI rank memory allocation (min/avg/max) = 11.36 | 11.36 | 11.36 Mbytes
Step Temp Press TotEng PotEng Enthalpy 
  790495    1660.8697    -216.1217   -18435.314   -22654.075   -18512.755 
  800000    1635.9073    147.47678   -18686.568   -22841.921   -18634.288 
  840000    1650.8241    88.652744   -18599.065   -22792.308    -18567.54 
Loop time of 3282.91 on 2 procs for 49505 steps with 19652 atoms

Performance: 1.303 ns/day, 18.421 hours/ns, 15.080 timesteps/s
99.5% CPU use with 2 MPI tasks x no OpenMP threads

MPI task timing breakdown:
Section |  min time  |  avg time  |  max time  |%varavg| %total
---------------------------------------------------------------
Pair    | 1720.8     | 1742.4     | 1763.9     |  51.6 | 53.07
Neigh   | 1270.9     | 1290.2     | 1309.4     |  53.6 | 39.30
Comm    | 197.38     | 199.82     | 202.25     |  17.2 |  6.09
Output  | 0.048868   | 0.048907   | 0.048946   |   0.0 |  0.00
Modify  | 38.808     | 39.585     | 40.362     |  12.4 |  1.21
Other   |            | 10.92      |            |       |  0.33

Nlocal:    9826 ave 9845 max 9807 min
Histogram: 1 0 0 0 0 0 0 0 0 1
Nghost:    10264.5 ave 10303 max 10226 min
Histogram: 1 0 0 0 0 0 0 0 0 1
Neighs:    431014 ave 436494 max 425535 min
Histogram: 1 0 0 0 0 0 0 0 0 1

Total # of neighbors = 862029
Ave neighs/atom = 43.8647
Neighbor list builds = 49505
Dangerous builds not checked
Setting up Verlet run ...
  Unit style    : metal
  Current step  : 840000
  Time step     : 0.001
Per MPI rank memory allocation (min/avg/max) = 11.36 | 11.36 | 11.36 Mbytes
Step Temp Press TotEng PotEng Enthalpy 
  840000    1650.8241    88.652744   -18599.065   -22792.308    -18567.54 
  840495     1607.588    253.53245   -18791.006   -22874.426   -18701.254 
Loop time of 29.839 on 2 procs for 495 steps with 19652 atoms

Performance: 1.433 ns/day, 16.745 hours/ns, 16.589 timesteps/s
97.3% CPU use with 2 MPI tasks x no OpenMP threads

MPI task timing breakdown:
Section |  min time  |  avg time  |  max time  |%varavg| %total
---------------------------------------------------------------
Pair    | 14.724     | 15.301     | 15.879     |  14.8 | 51.28
Neigh   | 11.431     | 11.636     | 11.841     |   6.0 | 39.00
Comm    | 1.6207     | 2.4243     | 3.2278     |  51.6 |  8.12
Output  | 5.6028e-05 | 8.3447e-05 | 0.00011086 |   0.0 |  0.00
Modify  | 0.36167    | 0.36567    | 0.36966    |   0.7 |  1.23
Other   |            | 0.1118     |            |       |  0.37

Nlocal:    9826 ave 9847 max 9805 min
Histogram: 1 0 0 0 0 0 0 0 0 1
Nghost:    10339 ave 10344 max 10334 min
Histogram: 1 0 0 0 0 0 0 0 0 1
Neighs:    433039 ave 438068 max 428010 min
Histogram: 1 0 0 0 0 0 0 0 0 1

Total # of neighbors = 866078
Ave neighs/atom = 44.0707
Neighbor list builds = 495
Dangerous builds not checked
Setting up Verlet run ...
  Unit style    : metal
  Current step  : 840495
  Time step     : 0.001
Per MPI rank memory allocation (min/avg/max) = 11.36 | 11.36 | 11.36 Mbytes
Step Temp Press TotEng PotEng Enthalpy 
  840495     1607.588    253.53245   -18791.006   -22874.426   -18701.254 
  850000    1613.5415    481.74129   -18877.475   -22976.017   -18707.947 
  890000    1600.8631    111.73556   -18842.068   -22908.406   -18802.552 
Loop time of 3079.09 on 2 procs for 49505 steps with 19652 atoms

Performance: 1.389 ns/day, 17.277 hours/ns, 16.078 timesteps/s
98.5% CPU use with 2 MPI tasks x no OpenMP threads

MPI task timing breakdown:
Section |  min time  |  avg time  |  max time  |%varavg| %total
---------------------------------------------------------------
Pair    | 1608.8     | 1609.1     | 1609.4     |   0.6 | 52.26
Neigh   | 1218.3     | 1244.9     | 1271.6     |  75.4 | 40.43
Comm    | 151.32     | 178.26     | 205.2      | 201.8 |  5.79
Output  | 0.050757   | 0.050797   | 0.050837   |   0.0 |  0.00
Modify  | 36.077     | 36.877     | 37.678     |  13.2 |  1.20
Other   |            | 9.862      |            |       |  0.32

Nlocal:    9826 ave 9854 max 9798 min
Histogram: 1 0 0 0 0 0 0 0 0 1
Nghost:    10320.5 ave 10346 max 10295 min
Histogram: 1 0 0 0 0 0 0 0 0 1
Neighs:    433247 ave 434485 max 432009 min
Histogram: 1 0 0 0 0 0 0 0 0 1

Total # of neighbors = 866494
Ave neighs/atom = 44.0919
Neighbor list builds = 49505
Dangerous builds not checked
Setting up Verlet run ...
  Unit style    : metal
  Current step  : 890000
  Time step     : 0.001
Per MPI rank memory allocation (min/avg/max) = 11.36 | 11.36 | 11.36 Mbytes
Step Temp Press TotEng PotEng Enthalpy 
  890000    1600.8631    111.73556   -18842.068   -22908.406   -18802.552 
  890495    1565.2283    263.56223   -19082.879   -23058.701   -18990.327 
Loop time of 26.2815 on 2 procs for 495 steps with 19652 atoms

Performance: 1.627 ns/day, 14.748 hours/ns, 18.835 timesteps/s
99.9% CPU use with 2 MPI tasks x no OpenMP threads

MPI task timing breakdown:
Section |  min time  |  avg time  |  max time  |%varavg| %total
---------------------------------------------------------------
Pair    | 13.489     | 13.494     | 13.5       |   0.1 | 51.34
Neigh   | 10.734     | 11.18      | 11.627     |  13.4 | 42.54
Comm    | 0.73535    | 1.1971     | 1.6589     |  42.2 |  4.56
Output  | 7.6056e-05 | 0.00010598 | 0.0001359  |   0.0 |  0.00
Modify  | 0.30739    | 0.31649    | 0.32559    |   1.6 |  1.20
Other   |            | 0.09348    |            |       |  0.36

Nlocal:    9826 ave 9834 max 9818 min
Histogram: 1 0 0 0 0 0 0 0 0 1
Nghost:    10342.5 ave 10360 max 10325 min
Histogram: 1 0 0 0 0 0 0 0 0 1
Neighs:    436699 ave 439203 max 434195 min
Histogram: 1 0 0 0 0 0 0 0 0 1

Total # of neighbors = 873398
Ave neighs/atom = 44.4432
Neighbor list builds = 495
Dangerous builds not checked
Setting up Verlet run ...
  Unit style    : metal
  Current step  : 890495
  Time step     : 0.001
Per MPI rank memory allocation (min/avg/max) = 11.36 | 11.36 | 11.36 Mbytes
Step Temp Press TotEng PotEng Enthalpy 
  890495    1565.2283    263.56223   -19082.879   -23058.701   -18990.327 
  900000    1550.3109    38.603511   -19163.463   -23101.393   -19149.933 
  940000     1561.751    348.64962   -19162.577   -23129.567   -19040.643 
Loop time of 2469.1 on 2 procs for 49505 steps with 19652 atoms

Performance: 1.732 ns/day, 13.854 hours/ns, 20.050 timesteps/s
99.0% CPU use with 2 MPI tasks x no OpenMP threads

MPI task timing breakdown:
Section |  min time  |  avg time  |  max time  |%varavg| %total
---------------------------------------------------------------
Pair    | 1249.9     | 1250.1     | 1250.3     |   0.6 | 50.63
Neigh   | 1068.9     | 1069.3     | 1069.7     |   1.2 | 43.31
Comm    | 110.67     | 111.72     | 112.77     |  10.0 |  4.52
Output  | 0.048118   | 0.048157   | 0.048196   |   0.0 |  0.00
Modify  | 29.693     | 29.698     | 29.704     |   0.1 |  1.20
Other   |            | 8.223      |            |       |  0.33

Nlocal:    9826 ave 9852 max 9800 min
Histogram: 1 0 0 0 0 0 0 0 0 1
Nghost:    10385 ave 10421 max 10349 min
Histogram: 1 0 0 0 0 0 0 0 0 1
Neighs:    438407 ave 439186 max 437628 min
Histogram: 1 0 0 0 0 0 0 0 0 1

Total # of neighbors = 876814
Ave neighs/atom = 44.617
Neighbor list builds = 49505
Dangerous builds not checked
Setting up Verlet run ...
  Unit style    : metal
  Current step  : 940000
  Time step     : 0.001
Per MPI rank memory allocation (min/avg/max) = 11.36 | 11.36 | 11.36 Mbytes
Step Temp Press TotEng PotEng Enthalpy 
  940000     1561.751    348.64962   -19162.577   -23129.567   -19040.643 
  940495    1516.7718   -100.03718   -19379.575   -23232.314   -19414.458 
Loop time of 26.1031 on 2 procs for 495 steps with 19652 atoms

Performance: 1.638 ns/day, 14.648 hours/ns, 18.963 timesteps/s
99.9% CPU use with 2 MPI tasks x no OpenMP threads

MPI task timing breakdown:
Section |  min time  |  avg time  |  max time  |%varavg| %total
---------------------------------------------------------------
Pair    | 13.228     | 13.388     | 13.548     |   4.4 | 51.29
Neigh   | 10.58      | 10.734     | 10.887     |   4.7 | 41.12
Comm    | 1.2511     | 1.576      | 1.9008     |  25.9 |  6.04
Output  | 9.799e-05  | 0.000108   | 0.00011802 |   0.0 |  0.00
Modify  | 0.31845    | 0.31992    | 0.32139    |   0.3 |  1.23
Other   |            | 0.08551    |            |       |  0.33

Nlocal:    9826 ave 9840 max 9812 min
Histogram: 1 0 0 0 0 0 0 0 0 1
Nghost:    10380 ave 10411 max 10349 min
Histogram: 1 0 0 0 0 0 0 0 0 1
Neighs:    439783 ave 441841 max 437725 min
Histogram: 1 0 0 0 0 0 0 0 0 1

Total # of neighbors = 879566
Ave neighs/atom = 44.7571
Neighbor list builds = 495
Dangerous builds not checked
Setting up Verlet run ...
  Unit style    : metal
  Current step  : 940495
  Time step     : 0.001
Per MPI rank memory allocation (min/avg/max) = 11.36 | 11.36 | 11.36 Mbytes
Step Temp Press TotEng PotEng Enthalpy 
  940495    1516.7718   -100.03718   -19379.575   -23232.314   -19414.458 
  950000    1489.4469      5.82627   -19513.495   -23296.826   -19511.471 
  990000    1519.9637    94.209431   -19434.705   -23295.551   -19401.984 
Loop time of 2437.95 on 2 procs for 49505 steps with 19652 atoms

Performance: 1.754 ns/day, 13.680 hours/ns, 20.306 timesteps/s
99.5% CPU use with 2 MPI tasks x no OpenMP threads

MPI task timing breakdown:
Section |  min time  |  avg time  |  max time  |%varavg| %total
---------------------------------------------------------------
Pair    | 1228.9     | 1231.7     | 1234.5     |   8.0 | 50.52
Neigh   | 1058.7     | 1067.7     | 1076.7     |  27.4 | 43.80
Comm    | 90.167     | 97.007     | 103.85     |  69.4 |  3.98
Output  | 0.28018    | 0.28025    | 0.28031    |   0.0 |  0.01
Modify  | 32.849     | 33.009     | 33.17      |   2.8 |  1.35
Other   |            | 8.248      |            |       |  0.34

Nlocal:    9826 ave 9844 max 9808 min
Histogram: 1 0 0 0 0 0 0 0 0 1
Nghost:    10379.5 ave 10385 max 10374 min
Histogram: 1 0 0 0 0 0 0 0 0 1
Neighs:    441398 ave 444193 max 438602 min
Histogram: 1 0 0 0 0 0 0 0 0 1

Total # of neighbors = 882795
Ave neighs/atom = 44.9214
Neighbor list builds = 49505
Dangerous builds not checked
Setting up Verlet run ...
  Unit style    : metal
  Current step  : 990000
  Time step     : 0.001
Per MPI rank memory allocation (min/avg/max) = 11.36 | 11.36 | 11.36 Mbytes
Step Temp Press TotEng PotEng Enthalpy 
  990000    1519.9637    94.209431   -19434.705   -23295.551   -19401.984 
  990495     1455.271    159.67453   -19711.758   -23408.279    -19656.59 
Loop time of 31.0935 on 2 procs for 495 steps with 19652 atoms

Performance: 1.375 ns/day, 17.449 hours/ns, 15.920 timesteps/s
98.3% CPU use with 2 MPI tasks x no OpenMP threads

MPI task timing breakdown:
Section |  min time  |  avg time  |  max time  |%varavg| %total
---------------------------------------------------------------
Pair    | 16.266     | 16.316     | 16.367     |   1.3 | 52.48
Neigh   | 11.48      | 12.431     | 13.382     |  27.0 | 39.98
Comm    | 0.9381     | 1.8671     | 2.7961     |  68.0 |  6.00
Output  | 9.5844e-05 | 0.00013041 | 0.00016499 |   0.0 |  0.00
Modify  | 0.35496    | 0.38098    | 0.40699    |   4.2 |  1.23
Other   |            | 0.09829    |            |       |  0.32

Nlocal:    9826 ave 9854 max 9798 min
Histogram: 1 0 0 0 0 0 0 0 0 1
Nghost:    10397 ave 10401 max 10393 min
Histogram: 1 0 0 0 0 0 0 0 0 1
Neighs:    443868 ave 446073 max 441663 min
Histogram: 1 0 0 0 0 0 0 0 0 1

Total # of neighbors = 887736
Ave neighs/atom = 45.1728
Neighbor list builds = 495
Dangerous builds not checked
Setting up Verlet run ...
  Unit style    : metal
  Current step  : 990495
  Time step     : 0.001
Per MPI rank memory allocation (min/avg/max) = 11.36 | 11.36 | 11.36 Mbytes
Step Temp Press TotEng PotEng Enthalpy 
  990495     1455.271    159.67453   -19711.758   -23408.279    -19656.59 
 1000000    1456.5116   -83.861466   -19785.728     -23485.4   -19814.641 
 1040000    1464.9557   -137.49301   -19738.878   -23459.999    -19786.36 
Loop time of 3023.98 on 2 procs for 49505 steps with 19652 atoms

Performance: 1.414 ns/day, 16.968 hours/ns, 16.371 timesteps/s
97.5% CPU use with 2 MPI tasks x no OpenMP threads

MPI task timing breakdown:
Section |  min time  |  avg time  |  max time  |%varavg| %total
---------------------------------------------------------------
Pair    | 1564.7     | 1582.2     | 1599.7     |  43.9 | 52.32
Neigh   | 1196.6     | 1222.5     | 1248.5     |  74.3 | 40.43
Comm    | 164.03     | 173.18     | 182.33     |  69.5 |  5.73
Output  | 0.06887    | 0.06892    | 0.06897    |   0.0 |  0.00
Modify  | 36.121     | 36.578     | 37.035     |   7.6 |  1.21
Other   |            | 9.392      |            |       |  0.31

Nlocal:    9826 ave 9834 max 9818 min
Histogram: 1 0 0 0 0 0 0 0 0 1
Nghost:    10415 ave 10430 max 10400 min
Histogram: 1 0 0 0 0 0 0 0 0 1
Neighs:    444098 ave 447912 max 440285 min
Histogram: 1 0 0 0 0 0 0 0 0 1

Total # of neighbors = 888197
Ave neighs/atom = 45.1963
Neighbor list builds = 49505
Dangerous builds not checked
Setting up Verlet run ...
  Unit style    : metal
  Current step  : 1040000
  Time step     : 0.001
Per MPI rank memory allocation (min/avg/max) = 11.36 | 11.36 | 11.36 Mbytes
Step Temp Press TotEng PotEng Enthalpy 
 1040000    1464.9557   -137.49301   -19738.878   -23459.999    -19786.36 
 1040495    1416.8639   -227.41802   -19988.781   -23587.744   -20066.833 
Loop time of 25.8936 on 2 procs for 495 steps with 19652 atoms

Performance: 1.652 ns/day, 14.531 hours/ns, 19.117 timesteps/s
99.9% CPU use with 2 MPI tasks x no OpenMP threads

MPI task timing breakdown:
Section |  min time  |  avg time  |  max time  |%varavg| %total
---------------------------------------------------------------
Pair    | 13.139     | 13.271     | 13.402     |   3.6 | 51.25
Neigh   | 10.319     | 10.801     | 11.283     |  14.7 | 41.71
Comm    | 1.0506     | 1.4167     | 1.7828     |  30.8 |  5.47
Output  | 7.6056e-05 | 0.00011206 | 0.00014806 |   0.0 |  0.00
Modify  | 0.30395    | 0.31877    | 0.33359    |   2.6 |  1.23
Other   |            | 0.08648    |            |       |  0.33

Nlocal:    9826 ave 9836 max 9816 min
Histogram: 1 0 0 0 0 0 0 0 0 1
Nghost:    10458.5 ave 10482 max 10435 min
Histogram: 1 0 0 0 0 0 0 0 0 1
Neighs:    446664 ave 450506 max 442823 min
Histogram: 1 0 0 0 0 0 0 0 0 1

Total # of neighbors = 893329
Ave neighs/atom = 45.4574
Neighbor list builds = 495
Dangerous builds not checked
Setting up Verlet run ...
  Unit style    : metal
  Current step  : 1040495
  Time step     : 0.001
Per MPI rank memory allocation (min/avg/max) = 11.36 | 11.36 | 11.36 Mbytes
Step Temp Press TotEng PotEng Enthalpy 
 1040495    1416.8639   -227.41802   -19988.781   -23587.744   -20066.833 
 1050000    1406.4751   -256.45463    -20089.82   -23662.395   -20177.677 
 1090000    1380.2435    240.54584   -20102.219   -23608.163   -20019.917 
Loop time of 2503.36 on 2 procs for 49505 steps with 19652 atoms

Performance: 1.709 ns/day, 14.047 hours/ns, 19.775 timesteps/s
99.2% CPU use with 2 MPI tasks x no OpenMP threads

MPI task timing breakdown:
Section |  min time  |  avg time  |  max time  |%varavg| %total
---------------------------------------------------------------
Pair    | 1258.8     | 1271.7     | 1284.7     |  36.3 | 50.80
Neigh   | 1053.9     | 1075.7     | 1097.4     |  66.3 | 42.97
Comm    | 108.2      | 117.81     | 127.41     |  88.5 |  4.71
Output  | 0.084326   | 0.08439    | 0.084454   |   0.0 |  0.00
Modify  | 29.552     | 29.986     | 30.42      |   7.9 |  1.20
Other   |            | 8.087      |            |       |  0.32

Nlocal:    9826 ave 9826 max 9826 min
Histogram: 2 0 0 0 0 0 0 0 0 0
Nghost:    10408.5 ave 10417 max 10400 min
Histogram: 1 0 0 0 0 0 0 0 0 1
Neighs:    448577 ave 453215 max 443939 min
Histogram: 1 0 0 0 0 0 0 0 0 1

Total # of neighbors = 897154
Ave neighs/atom = 45.652
Neighbor list builds = 49505
Dangerous builds not checked
Setting up Verlet run ...
  Unit style    : metal
  Current step  : 1090000
  Time step     : 0.001
Per MPI rank memory allocation (min/avg/max) = 11.36 | 11.36 | 11.36 Mbytes
Step Temp Press TotEng PotEng Enthalpy 
 1090000    1380.2435    240.54584   -20102.219   -23608.163   -20019.917 
 1090495    1375.6587   -3.4517683   -20282.557   -23776.855   -20283.732 
Loop time of 23.3958 on 2 procs for 495 steps with 19652 atoms

Performance: 1.828 ns/day, 13.129 hours/ns, 21.158 timesteps/s
99.6% CPU use with 2 MPI tasks x no OpenMP threads

MPI task timing breakdown:
Section |  min time  |  avg time  |  max time  |%varavg| %total
---------------------------------------------------------------
Pair    | 11.826     | 11.876     | 11.927     |   1.5 | 50.76
Neigh   | 10.067     | 10.2       | 10.333     |   4.2 | 43.60
Comm    | 0.773      | 0.95738    | 1.1418     |  18.8 |  4.09
Output  | 5.4836e-05 | 9.0361e-05 | 0.00012589 |   0.0 |  0.00
Modify  | 0.28513    | 0.28575    | 0.28638    |   0.1 |  1.22
Other   |            | 0.07617    |            |       |  0.33

Nlocal:    9826 ave 9838 max 9814 min
Histogram: 1 0 0 0 0 0 0 0 0 1
Nghost:    10484 ave 10489 max 10479 min
Histogram: 1 0 0 0 0 0 0 0 0 1
Neighs:    450466 ave 455555 max 445377 min
Histogram: 1 0 0 0 0 0 0 0 0 1

Total # of neighbors = 900932
Ave neighs/atom = 45.8443
Neighbor list builds = 495
Dangerous builds not checked
Setting up Verlet run ...
  Unit style    : metal
  Current step  : 1090495
  Time step     : 0.001
Per MPI rank memory allocation (min/avg/max) = 11.36 | 11.36 | 11.36 Mbytes
Step Temp Press TotEng PotEng Enthalpy 
 1090495    1375.6587   -3.4517683   -20282.557   -23776.855   -20283.732 
 1100000    1344.2209     425.4978   -20473.097    -23887.54   -20329.243 
 1140000     1344.169   -17.086773   -20455.663   -23869.975   -20461.456 
Loop time of 2407.63 on 2 procs for 49505 steps with 19652 atoms

Performance: 1.777 ns/day, 13.509 hours/ns, 20.562 timesteps/s
99.3% CPU use with 2 MPI tasks x no OpenMP threads

MPI task timing breakdown:
Section |  min time  |  avg time  |  max time  |%varavg| %total
---------------------------------------------------------------
Pair    | 1218.1     | 1221.4     | 1224.6     |   9.4 | 50.73
Neigh   | 1037.7     | 1048.4     | 1059.1     |  33.2 | 43.54
Comm    | 86.604     | 100.81     | 115.02     | 141.5 |  4.19
Output  | 0.046115   | 0.04615    | 0.046184   |   0.0 |  0.00
Modify  | 28.532     | 28.719     | 28.905     |   3.5 |  1.19
Other   |            | 8.298      |            |       |  0.34

Nlocal:    9826 ave 9832 max 9820 min
Histogram: 1 0 0 0 0 0 0 0 0 1
Nghost:    10545.5 ave 10558 max 10533 min
Histogram: 1 0 0 0 0 0 0 0 0 1
Neighs:    452792 ave 455370 max 450215 min
Histogram: 1 0 0 0 0 0 0 0 0 1

Total # of neighbors = 905585
Ave neighs/atom = 46.0811
Neighbor list builds = 49505
Dangerous builds not checked
Setting up Verlet run ...
  Unit style    : metal
  Current step  : 1140000
  Time step     : 0.001
Per MPI rank memory allocation (min/avg/max) = 11.36 | 11.36 | 11.36 Mbytes
Step Temp Press TotEng PotEng Enthalpy 
 1140000     1344.169   -17.086773   -20455.663   -23869.975   -20461.456 
 1140495    1315.7773   -190.23497   -20624.174   -23966.368   -20688.484 
Loop time of 27.8475 on 2 procs for 495 steps with 19652 atoms

Performance: 1.536 ns/day, 15.627 hours/ns, 17.775 timesteps/s
98.8% CPU use with 2 MPI tasks x no OpenMP threads

MPI task timing breakdown:
Section |  min time  |  avg time  |  max time  |%varavg| %total
---------------------------------------------------------------
Pair    | 14.118     | 14.343     | 14.568     |   6.0 | 51.51
Neigh   | 11.076     | 11.621     | 12.166     |  16.0 | 41.73
Comm    | 0.64801    | 1.4366     | 2.2253     |  65.8 |  5.16
Output  | 7.5102e-05 | 7.7486e-05 | 7.987e-05  |   0.0 |  0.00
Modify  | 0.33596    | 0.34793    | 0.35991    |   2.0 |  1.25
Other   |            | 0.09878    |            |       |  0.35

Nlocal:    9826 ave 9857 max 9795 min
Histogram: 1 0 0 0 0 0 0 0 0 1
Nghost:    10507 ave 10542 max 10472 min
Histogram: 1 0 0 0 0 0 0 0 0 1
Neighs:    454118 ave 455453 max 452782 min
Histogram: 1 0 0 0 0 0 0 0 0 1

Total # of neighbors = 908235
Ave neighs/atom = 46.2159
Neighbor list builds = 495
Dangerous builds not checked
Setting up Verlet run ...
  Unit style    : metal
  Current step  : 1140495
  Time step     : 0.001
Per MPI rank memory allocation (min/avg/max) = 11.36 | 11.36 | 11.36 Mbytes
Step Temp Press TotEng PotEng Enthalpy 
 1140495    1315.7773   -190.23497   -20624.174   -23966.368   -20688.484 
 1150000    1298.1057    459.24766   -20662.792   -23960.098   -20508.076 
 1190000    1296.0649     318.2819   -20713.382   -24005.505   -20606.175 
Loop time of 2549.69 on 2 procs for 49505 steps with 19652 atoms

Performance: 1.678 ns/day, 14.307 hours/ns, 19.416 timesteps/s
99.2% CPU use with 2 MPI tasks x no OpenMP threads

MPI task timing breakdown:
Section |  min time  |  avg time  |  max time  |%varavg| %total
---------------------------------------------------------------
Pair    | 1309.1     | 1312.4     | 1315.7     |   9.1 | 51.47
Neigh   | 1078.1     | 1083.9     | 1089.7     |  17.6 | 42.51
Comm    | 110.92     | 113.03     | 115.14     |  19.8 |  4.43
Output  | 1.914      | 1.9141     | 1.9141     |   0.0 |  0.08
Modify  | 29.984     | 30.11      | 30.236     |   2.3 |  1.18
Other   |            | 8.322      |            |       |  0.33

Nlocal:    9826 ave 9829 max 9823 min
Histogram: 1 0 0 0 0 0 0 0 0 1
Nghost:    10553 ave 10582 max 10524 min
Histogram: 1 0 0 0 0 0 0 0 0 1
Neighs:    455826 ave 460172 max 451480 min
Histogram: 1 0 0 0 0 0 0 0 0 1

Total # of neighbors = 911652
Ave neighs/atom = 46.3898
Neighbor list builds = 49505
Dangerous builds not checked
Setting up Verlet run ...
  Unit style    : metal
  Current step  : 1190000
  Time step     : 0.001
Per MPI rank memory allocation (min/avg/max) = 11.36 | 11.36 | 11.36 Mbytes
Step Temp Press TotEng PotEng Enthalpy 
 1190000    1296.0649     318.2819   -20713.382   -24005.505   -20606.175 
 1190495    1275.0707   -92.635889   -20903.912   -24142.708   -20934.986 
Loop time of 27.1162 on 2 procs for 495 steps with 19652 atoms

Performance: 1.577 ns/day, 15.217 hours/ns, 18.255 timesteps/s
97.3% CPU use with 2 MPI tasks x no OpenMP threads

MPI task timing breakdown:
Section |  min time  |  avg time  |  max time  |%varavg| %total
---------------------------------------------------------------
Pair    | 13.697     | 13.731     | 13.766     |   0.9 | 50.64
Neigh   | 10.545     | 10.837     | 11.128     |   8.8 | 39.96
Comm    | 1.7126     | 2.0422     | 2.3719     |  23.1 |  7.53
Output  | 6.7949e-05 | 0.00010097 | 0.00013399 |   0.0 |  0.00
Modify  | 0.41568    | 0.42305    | 0.43041    |   1.1 |  1.56
Other   |            | 0.08288    |            |       |  0.31

Nlocal:    9826 ave 9853 max 9799 min
Histogram: 1 0 0 0 0 0 0 0 0 1
Nghost:    10516 ave 10519 max 10513 min
Histogram: 1 0 0 0 0 0 0 0 0 1
Neighs:    457716 ave 463859 max 451572 min
Histogram: 1 0 0 0 0 0 0 0 0 1

Total # of neighbors = 915431
Ave neighs/atom = 46.5821
Neighbor list builds = 495
Dangerous builds not checked
Setting up Verlet run ...
  Unit style    : metal
  Current step  : 1190495
  Time step     : 0.001
Per MPI rank memory allocation (min/avg/max) = 11.36 | 11.36 | 11.36 Mbytes
Step Temp Press TotEng PotEng Enthalpy 
 1190495    1275.0707   -92.635889   -20903.912   -24142.708   -20934.986 
 1200000    1240.4363     467.3001   -21057.241   -24208.062   -20901.357 
 1240000    1243.5461    119.01206   -21012.016   -24170.736   -20972.211 
Loop time of 2736.68 on 2 procs for 49505 steps with 19652 atoms

Performance: 1.563 ns/day, 15.356 hours/ns, 18.089 timesteps/s
99.0% CPU use with 2 MPI tasks x no OpenMP threads

MPI task timing breakdown:
Section |  min time  |  avg time  |  max time  |%varavg| %total
---------------------------------------------------------------
Pair    | 1398.5     | 1418.1     | 1437.7     |  52.0 | 51.82
Neigh   | 1122.5     | 1140.8     | 1159.2     |  54.3 | 41.69
Comm    | 135.39     | 136.38     | 137.37     |   8.5 |  4.98
Output  | 0.052149   | 0.052197   | 0.052244   |   0.0 |  0.00
Modify  | 32.112     | 32.558     | 33.004     |   7.8 |  1.19
Other   |            | 8.76       |            |       |  0.32

Nlocal:    9826 ave 9832 max 9820 min
Histogram: 1 0 0 0 0 0 0 0 0 1
Nghost:    10568 ave 10572 max 10564 min
Histogram: 1 0 0 0 0 0 0 0 0 1
Neighs:    458991 ave 463120 max 454862 min
Histogram: 1 0 0 0 0 0 0 0 0 1

Total # of neighbors = 917982
Ave neighs/atom = 46.7119
Neighbor list builds = 49505
Dangerous builds not checked
Setting up Verlet run ...
  Unit style    : metal
  Current step  : 1240000
  Time step     : 0.001
Per MPI rank memory allocation (min/avg/max) = 11.36 | 11.36 | 11.36 Mbytes
Step Temp Press TotEng PotEng Enthalpy 
 1240000    1243.5461    119.01206   -21012.016   -24170.736   -20972.211 
 1240495    1212.1731    302.14414   -21190.561   -24269.592   -21089.931 
Loop time of 29.5991 on 2 procs for 495 steps with 19652 atoms

Performance: 1.445 ns/day, 16.610 hours/ns, 16.723 timesteps/s
99.1% CPU use with 2 MPI tasks x no OpenMP threads

MPI task timing breakdown:
Section |  min time  |  avg time  |  max time  |%varavg| %total
---------------------------------------------------------------
Pair    | 15.265     | 15.359     | 15.452     |   2.4 | 51.89
Neigh   | 12.594     | 12.651     | 12.709     |   1.6 | 42.74
Comm    | 0.97122    | 1.122      | 1.2728     |  14.2 |  3.79
Output  | 7.081e-05  | 0.00010884 | 0.00014687 |   0.0 |  0.00
Modify  | 0.36296    | 0.36745    | 0.37193    |   0.7 |  1.24
Other   |            | 0.0994     |            |       |  0.34

Nlocal:    9826 ave 9835 max 9817 min
Histogram: 1 0 0 0 0 0 0 0 0 1
Nghost:    10599.5 ave 10609 max 10590 min
Histogram: 1 0 0 0 0 0 0 0 0 1
Neighs:    461318 ave 464515 max 458120 min
Histogram: 1 0 0 0 0 0 0 0 0 1

Total # of neighbors = 922635
Ave neighs/atom = 46.9487
Neighbor list builds = 495
Dangerous builds not checked
Setting up Verlet run ...
  Unit style    : metal
  Current step  : 1240495
  Time step     : 0.001
Per MPI rank memory allocation (min/avg/max) = 11.36 | 11.36 | 11.36 Mbytes
Step Temp Press TotEng PotEng Enthalpy 
 1240495    1212.1731    302.14414   -21190.561   -24269.592   -21089.931 
 1250000    1196.7039   -520.85285   -21358.647   -24398.384   -21531.809 
 1290000    1209.2987    311.29542   -21282.015   -24353.744   -21178.703 
Loop time of 2785.71 on 2 procs for 49505 steps with 19652 atoms

Performance: 1.535 ns/day, 15.631 hours/ns, 17.771 timesteps/s
99.2% CPU use with 2 MPI tasks x no OpenMP threads

MPI task timing breakdown:
Section |  min time  |  avg time  |  max time  |%varavg| %total
---------------------------------------------------------------
Pair    | 1438.7     | 1452.8     | 1466.9     |  37.0 | 52.15
Neigh   | 1152.1     | 1156.9     | 1161.8     |  14.3 | 41.53
Comm    | 114.84     | 133.93     | 153.02     | 165.0 |  4.81
Output  | 0.058227   | 0.058255   | 0.058284   |   0.0 |  0.00
Modify  | 32.933     | 33.027     | 33.121     |   1.6 |  1.19
Other   |            | 8.953      |            |       |  0.32

Nlocal:    9826 ave 9832 max 9820 min
Histogram: 1 0 0 0 0 0 0 0 0 1
Nghost:    10628 ave 10667 max 10589 min
Histogram: 1 0 0 0 0 0 0 0 0 1
Neighs:    463030 ave 466853 max 459208 min
Histogram: 1 0 0 0 0 0 0 0 0 1

Total # of neighbors = 926061
Ave neighs/atom = 47.123
Neighbor list builds = 49505
Dangerous builds not checked
Setting up Verlet run ...
  Unit style    : metal
  Current step  : 1290000
  Time step     : 0.001
Per MPI rank memory allocation (min/avg/max) = 11.36 | 11.36 | 11.37 Mbytes
Step Temp Press TotEng PotEng Enthalpy 
 1290000    1209.2987    311.29542   -21282.015   -24353.744   -21178.703 
 1290495     1163.174    308.41517   -21517.752    -24472.32   -21415.825 
Loop time of 30.8112 on 2 procs for 495 steps with 19652 atoms

Performance: 1.388 ns/day, 17.290 hours/ns, 16.066 timesteps/s
99.6% CPU use with 2 MPI tasks x no OpenMP threads

MPI task timing breakdown:
Section |  min time  |  avg time  |  max time  |%varavg| %total
---------------------------------------------------------------
Pair    | 16.088     | 16.277     | 16.466     |   4.7 | 52.83
Neigh   | 12.598     | 12.808     | 13.018     |   5.9 | 41.57
Comm    | 1.2312     | 1.2566     | 1.282      |   2.3 |  4.08
Output  | 7.1049e-05 | 0.00010145 | 0.00013185 |   0.0 |  0.00
Modify  | 0.36271    | 0.36847    | 0.37423    |   0.9 |  1.20
Other   |            | 0.1007     |            |       |  0.33

Nlocal:    9826 ave 9856 max 9796 min
Histogram: 1 0 0 0 0 0 0 0 0 1
Nghost:    10586.5 ave 10623 max 10550 min
Histogram: 1 0 0 0 0 0 0 0 0 1
Neighs:    465143 ave 471094 max 459192 min
Histogram: 1 0 0 0 0 0 0 0 0 1

Total # of neighbors = 930286
Ave neighs/atom = 47.338
Neighbor list builds = 495
[...]
Loop time of 44.8507 on 2 procs for 495 steps with 19652 atoms

Performance: 0.954 ns/day, 25.169 hours/ns, 11.037 timesteps/s
78.5% CPU use with 2 MPI tasks x no OpenMP threads

MPI task timing breakdown:
Section |  min time  |  avg time  |  max time  |%varavg| %total
---------------------------------------------------------------
Pair    | 23.442     | 24.086     | 24.729     |  13.1 | 53.70
Neigh   | 14.116     | 16.157     | 18.197     |  50.8 | 36.02
Comm    | 2.4348     | 3.8855     | 5.3361     |  73.6 |  8.66
Output  | 6.7949e-05 | 0.00010157 | 0.00013518 |   0.0 |  0.00
Modify  | 0.57736    | 0.60442    | 0.63148    |   3.5 |  1.35
Other   |            | 0.1185     |            |       |  0.26

Nlocal:    9826 ave 9829 max 9823 min
Histogram: 1 0 0 0 0 0 0 0 0 1
Nghost:    11077 ave 11098 max 11056 min
Histogram: 1 0 0 0 0 0 0 0 0 1
Neighs:    526002 ave 526227 max 525776 min
Histogram: 1 0 0 0 0 0 0 0 0 1

Total # of neighbors = 1052003
Ave neighs/atom = 53.5316
Neighbor list builds = 495
Dangerous builds not checked
Setting up Verlet run ...
  Unit style    : metal
  Current step  : 2040495
  Time step     : 0.001
Per MPI rank memory allocation (min/avg/max) = 11.36 | 11.36 | 11.37 Mbytes
Step Temp Press TotEng PotEng Enthalpy 
 2040495    421.23294   -188.68411   -26371.877   -27441.847   -26428.145 
 2050000    397.68246   -404.65814   -26529.046   -27539.196   -26649.393 
 2090000    399.62341     86.55223   -26556.926   -27572.006   -26531.255 
Loop time of 3523.39 on 2 procs for 49505 steps with 19652 atoms

Performance: 1.214 ns/day, 19.770 hours/ns, 14.050 timesteps/s
89.8% CPU use with 2 MPI tasks x no OpenMP threads

MPI task timing breakdown:
Section |  min time  |  avg time  |  max time  |%varavg| %total
---------------------------------------------------------------
Pair    | 1860.3     | 1867       | 1873.7     |  15.5 | 52.99
Neigh   | 1351.1     | 1376.3     | 1401.4     |  67.9 | 39.06
Comm    | 205.97     | 225.34     | 244.72     | 129.1 |  6.40
Output  | 0.044165   | 0.044207   | 0.044248   |   0.0 |  0.00
Modify  | 43.528     | 44.008     | 44.487     |   7.2 |  1.25
Other   |            | 10.7       |            |       |  0.30

Nlocal:    9826 ave 9850 max 9802 min
Histogram: 1 0 0 0 0 0 0 0 0 1
Nghost:    11085 ave 11100 max 11070 min
Histogram: 1 0 0 0 0 0 0 0 0 1
Neighs:    529704 ave 531165 max 528243 min
Histogram: 1 0 0 0 0 0 0 0 0 1

Total # of neighbors = 1059408
Ave neighs/atom = 53.9084
Neighbor list builds = 49505
Dangerous builds not checked
Setting up Verlet run ...
  Unit style    : metal
  Current step  : 2090000
  Time step     : 0.001
Per MPI rank memory allocation (min/avg/max) = 11.36 | 11.36 | 11.37 Mbytes
Step Temp Press TotEng PotEng Enthalpy 
 2090000    399.62341     86.55223   -26556.926   -27572.006   -26531.255 
 2090495    373.76147    11.920149   -26708.496   -27657.884   -26704.969 
Loop time of 30.0115 on 2 procs for 495 steps with 19652 atoms

Performance: 1.425 ns/day, 16.841 hours/ns, 16.494 timesteps/s
98.1% CPU use with 2 MPI tasks x no OpenMP threads

MPI task timing breakdown:
Section |  min time  |  avg time  |  max time  |%varavg| %total
---------------------------------------------------------------
Pair    | 15.626     | 15.802     | 15.978     |   4.4 | 52.65
Neigh   | 11.287     | 12.311     | 13.336     |  29.2 | 41.02
Comm    | 0.60086    | 1.4759     | 2.3509     |  72.0 |  4.92
Output  | 7.7009e-05 | 0.00010645 | 0.0001359  |   0.0 |  0.00
Modify  | 0.317      | 0.33572    | 0.35444    |   3.2 |  1.12
Other   |            | 0.08655    |            |       |  0.29

Nlocal:    9826 ave 9830 max 9822 min
Histogram: 1 0 0 0 0 0 0 0 0 1
Nghost:    11092.5 ave 11115 max 11070 min
Histogram: 1 0 0 0 0 0 0 0 0 1
Neighs:    531418 ave 531913 max 530923 min
Histogram: 1 0 0 0 0 0 0 0 0 1

Total # of neighbors = 1062836
Ave neighs/atom = 54.0828
Neighbor list builds = 495
Dangerous builds not checked
Setting up Verlet run ...
  Unit style    : metal
  Current step  : 2090495
  Time step     : 0.001
Per MPI rank memory allocation (min/avg/max) = 11.36 | 11.36 | 11.37 Mbytes
Step Temp Press TotEng PotEng Enthalpy 
 2090495    373.76147    11.920149   -26708.496   -27657.884   -26704.969 
 2100000    347.61755    10.701908   -26856.866   -27739.846   -26853.708 
 2140000    350.98497    223.90064   -26866.642   -27758.176   -26800.665 
Loop time of 2958 on 2 procs for 49505 steps with 19652 atoms

Performance: 1.446 ns/day, 16.598 hours/ns, 16.736 timesteps/s
99.2% CPU use with 2 MPI tasks x no OpenMP threads

MPI task timing breakdown:
Section |  min time  |  avg time  |  max time  |%varavg| %total
---------------------------------------------------------------
Pair    | 1547.4     | 1550.2     | 1553.1     |   7.3 | 52.41
Neigh   | 1230.2     | 1242       | 1253.8     |  33.5 | 41.99
Comm    | 112.56     | 121.88     | 131.2      |  84.4 |  4.12
Output  | 0.058204   | 0.058249   | 0.058293   |   0.0 |  0.00
Modify  | 33.912     | 34.153     | 34.393     |   4.1 |  1.15
Other   |            | 9.659      |            |       |  0.33

Nlocal:    9826 ave 9851 max 9801 min
Histogram: 1 0 0 0 0 0 0 0 0 1
Nghost:    11114 ave 11120 max 11108 min
Histogram: 1 0 0 0 0 0 0 0 0 1
Neighs:    534154 ave 536211 max 532097 min
Histogram: 1 0 0 0 0 0 0 0 0 1

Total # of neighbors = 1068308
Ave neighs/atom = 54.3613
Neighbor list builds = 49505
Dangerous builds not checked
Setting up Verlet run ...
  Unit style    : metal
  Current step  : 2140000
  Time step     : 0.001
Per MPI rank memory allocation (min/avg/max) = 11.36 | 11.36 | 11.37 Mbytes
Step Temp Press TotEng PotEng Enthalpy 
 2140000    350.98497    223.90064   -26866.642   -27758.176   -26800.665 
 2140495    321.49883   -113.53756   -27009.253    -27825.89    -27042.68 
Loop time of 30.0639 on 2 procs for 495 steps with 19652 atoms

Performance: 1.423 ns/day, 16.871 hours/ns, 16.465 timesteps/s
99.6% CPU use with 2 MPI tasks x no OpenMP threads

MPI task timing breakdown:
Section |  min time  |  avg time  |  max time  |%varavg| %total
---------------------------------------------------------------
Pair    | 15.58      | 15.811     | 16.041     |   5.8 | 52.59
Neigh   | 12.251     | 12.483     | 12.716     |   6.6 | 41.52
Comm    | 1.3236     | 1.3319     | 1.3403     |   0.7 |  4.43
Output  | 7.7963e-05 | 9.7036e-05 | 0.00011611 |   0.0 |  0.00
Modify  | 0.33673    | 0.34018    | 0.34363    |   0.6 |  1.13
Other   |            | 0.09766    |            |       |  0.32

Nlocal:    9826 ave 9832 max 9820 min
Histogram: 1 0 0 0 0 0 0 0 0 1
Nghost:    11107.5 ave 11118 max 11097 min
Histogram: 1 0 0 0 0 0 0 0 0 1
Neighs:    535080 ave 535865 max 534296 min
Histogram: 1 0 0 0 0 0 0 0 0 1

Total # of neighbors = 1070161
Ave neighs/atom = 54.4556
Neighbor list builds = 495
Dangerous builds not checked
Setting up Verlet run ...
  Unit style    : metal
  Current step  : 2140495
  Time step     : 0.001
Per MPI rank memory allocation (min/avg/max) = 11.36 | 11.36 | 11.37 Mbytes
Step Temp Press TotEng PotEng Enthalpy 
 2140495    321.49883   -113.53756   -27009.253    -27825.89    -27042.68 
 2150000    300.85603    36.220647   -27136.649   -27900.851   -27126.019 
 2190000    300.77706   -134.79067   -27152.148   -27916.149   -27191.708 
Loop time of 3546.15 on 2 procs for 49505 steps with 19652 atoms

Performance: 1.206 ns/day, 19.898 hours/ns, 13.960 timesteps/s
90.7% CPU use with 2 MPI tasks x no OpenMP threads

MPI task timing breakdown:
Section |  min time  |  avg time  |  max time  |%varavg| %total
---------------------------------------------------------------
Pair    | 1881.6     | 1888.4     | 1895.1     |  15.5 | 53.25
Neigh   | 1356.6     | 1371.7     | 1386.9     |  40.9 | 38.68
Comm    | 223.66     | 232.19     | 240.72     |  56.0 |  6.55
Output  | 0.060722   | 0.060768   | 0.060814   |   0.0 |  0.00
Modify  | 42.718     | 43.092     | 43.466     |   5.7 |  1.22
Other   |            | 10.71      |            |       |  0.30

Nlocal:    9826 ave 9826 max 9826 min
Histogram: 2 0 0 0 0 0 0 0 0 0
Nghost:    11112.5 ave 11120 max 11105 min
Histogram: 1 0 0 0 0 0 0 0 0 1
Neighs:    537306 ave 537597 max 537015 min
Histogram: 1 0 0 0 0 0 0 0 0 1

Total # of neighbors = 1074612
Ave neighs/atom = 54.6821
Neighbor list builds = 49505
Dangerous builds not checked
Setting up Verlet run ...
  Unit style    : metal
  Current step  : 2190000
  Time step     : 0.001
Per MPI rank memory allocation (min/avg/max) = 11.36 | 11.36 | 11.37 Mbytes
Step Temp Press TotEng PotEng Enthalpy 
 2190000    300.77706   -134.79067   -27152.148   -27916.149   -27191.708 
 2190495       275.38    44.318118   -27297.023   -27996.513   -27284.056 
Loop time of 24.6456 on 2 procs for 495 steps with 19652 atoms

Performance: 1.735 ns/day, 13.830 hours/ns, 20.085 timesteps/s
98.3% CPU use with 2 MPI tasks x no OpenMP threads

MPI task timing breakdown:
Section |  min time  |  avg time  |  max time  |%varavg| %total
---------------------------------------------------------------
Pair    | 12.546     | 12.743     | 12.939     |   5.5 | 51.70
Neigh   | 10.148     | 10.767     | 11.386     |  18.9 | 43.69
Comm    | 0.33019    | 0.77641    | 1.2226     |  50.6 |  3.15
Output  | 8.0824e-05 | 0.00010836 | 0.0001359  |   0.0 |  0.00
Modify  | 0.26767    | 0.28156    | 0.29545    |   2.6 |  1.14
Other   |            | 0.07814    |            |       |  0.32

Nlocal:    9826 ave 9829 max 9823 min
Histogram: 1 0 0 0 0 0 0 0 0 1
Nghost:    11154.5 ave 11155 max 11154 min
Histogram: 1 0 0 0 0 0 0 0 0 1
Neighs:    539176 ave 539792 max 538560 min
Histogram: 1 0 0 0 0 0 0 0 0 1

Total # of neighbors = 1078352
Ave neighs/atom = 54.8724
Neighbor list builds = 495
Dangerous builds not checked
Setting up Verlet run ...
  Unit style    : metal
  Current step  : 2190495
  Time step     : 0.001
Per MPI rank memory allocation (min/avg/max) = 11.36 | 11.36 | 11.37 Mbytes
Step Temp Press TotEng PotEng Enthalpy 
 2190495       275.38    44.318118   -27297.023   -27996.513   -27284.056 
 2200000    250.03557     185.9528    -27431.56   -28066.673   -27377.294 
 2240000     249.6551   -187.93479   -27428.255   -28062.402   -27483.175 
Loop time of 3275.06 on 2 procs for 49505 steps with 19652 atoms

Performance: 1.306 ns/day, 18.377 hours/ns, 15.116 timesteps/s
95.9% CPU use with 2 MPI tasks x no OpenMP threads

MPI task timing breakdown:
Section |  min time  |  avg time  |  max time  |%varavg| %total
---------------------------------------------------------------
Pair    | 1732.6     | 1734       | 1735.5     |   3.4 | 52.95
Neigh   | 1325       | 1335.3     | 1345.5     |  28.0 | 40.77
Comm    | 144.61     | 156.57     | 168.54     |  95.6 |  4.78
Output  | 0.058897   | 0.058945   | 0.058993   |   0.0 |  0.00
Modify  | 38.783     | 38.997     | 39.211     |   3.4 |  1.19
Other   |            | 10.14      |            |       |  0.31

Nlocal:    9826 ave 9839 max 9813 min
Histogram: 1 0 0 0 0 0 0 0 0 1
Nghost:    11148.5 ave 11159 max 11138 min
Histogram: 1 0 0 0 0 0 0 0 0 1
Neighs:    540214 ave 541213 max 539215 min
Histogram: 1 0 0 0 0 0 0 0 0 1

Total # of neighbors = 1080428
Ave neighs/atom = 54.978
Neighbor list builds = 49505
Dangerous builds not checked
Setting up Verlet run ...
  Unit style    : metal
  Current step  : 2240000
  Time step     : 0.001
Per MPI rank memory allocation (min/avg/max) = 11.36 | 11.36 | 11.37 Mbytes
Step Temp Press TotEng PotEng Enthalpy 
 2240000     249.6551   -187.93479   -27428.255   -28062.402   -27483.175 
 2240495    223.80721   -236.29787   -27566.718   -28135.209   -27635.613 
Loop time of 31.2173 on 2 procs for 495 steps with 19652 atoms

Performance: 1.370 ns/day, 17.518 hours/ns, 15.857 timesteps/s
99.9% CPU use with 2 MPI tasks x no OpenMP threads

MPI task timing breakdown:
Section |  min time  |  avg time  |  max time  |%varavg| %total
---------------------------------------------------------------
Pair    | 16.433     | 16.538     | 16.643     |   2.6 | 52.98
Neigh   | 12.664     | 12.826     | 12.988     |   4.5 | 41.09
Comm    | 1.1271     | 1.3984     | 1.6697     |  22.9 |  4.48
Output  | 7.9155e-05 | 0.00011158 | 0.000144   |   0.0 |  0.00
Modify  | 0.35907    | 0.36188    | 0.3647     |   0.5 |  1.16
Other   |            | 0.09316    |            |       |  0.30

Nlocal:    9826 ave 9834 max 9818 min
Histogram: 1 0 0 0 0 0 0 0 0 1
Nghost:    11165.5 ave 11180 max 11151 min
Histogram: 1 0 0 0 0 0 0 0 0 1
Neighs:    541697 ave 543039 max 540355 min
Histogram: 1 0 0 0 0 0 0 0 0 1

Total # of neighbors = 1083394
Ave neighs/atom = 55.1289
Neighbor list builds = 495
Dangerous builds not checked
Setting up Verlet run ...
  Unit style    : metal
  Current step  : 2240495
  Time step     : 0.001
Per MPI rank memory allocation (min/avg/max) = 11.36 | 11.36 | 11.37 Mbytes
Step Temp Press TotEng PotEng Enthalpy 
 2240495    223.80721   -236.29787   -27566.718   -28135.209   -27635.613 
 2250000    199.59453   -97.542802   -27702.744   -28209.733   -27731.108 
 2290000    201.13962    119.72897   -27698.324   -28209.237   -27663.533 
Loop time of 3472.3 on 2 procs for 49505 steps with 19652 atoms

Performance: 1.232 ns/day, 19.483 hours/ns, 14.257 timesteps/s
93.2% CPU use with 2 MPI tasks x no OpenMP threads

MPI task timing breakdown:
Section |  min time  |  avg time  |  max time  |%varavg| %total
---------------------------------------------------------------
Pair    | 1847.2     | 1850       | 1852.7     |   6.3 | 53.28
Neigh   | 1359       | 1364.5     | 1370       |  15.0 | 39.30
Comm    | 196.54     | 204.89     | 213.24     |  58.3 |  5.90
Output  | 0.054163   | 0.054211   | 0.05426    |   0.0 |  0.00
Modify  | 42.212     | 42.281     | 42.35      |   1.1 |  1.22
Other   |            | 10.61      |            |       |  0.31

Nlocal:    9826 ave 9828 max 9824 min
Histogram: 1 0 0 0 0 0 0 0 0 1
Nghost:    11185.5 ave 11187 max 11184 min
Histogram: 1 0 0 0 0 0 0 0 0 1
Neighs:    544012 ave 544689 max 543335 min
Histogram: 1 0 0 0 0 0 0 0 0 1

Total # of neighbors = 1088024
Ave neighs/atom = 55.3645
Neighbor list builds = 49505
Dangerous builds not checked
Setting up Verlet run ...
  Unit style    : metal
  Current step  : 2290000
  Time step     : 0.001
Per MPI rank memory allocation (min/avg/max) = 11.36 | 11.36 | 11.37 Mbytes
Step Temp Press TotEng PotEng Enthalpy 
 2290000    201.13962    119.72897   -27698.324   -28209.237   -27663.533 
 2290495    177.33969   -6.3241608    -27831.13   -28281.588   -27832.964 
Loop time of 40.229 on 2 procs for 495 steps with 19652 atoms

Performance: 1.063 ns/day, 22.575 hours/ns, 12.305 timesteps/s
84.5% CPU use with 2 MPI tasks x no OpenMP threads

MPI task timing breakdown:
Section |  min time  |  avg time  |  max time  |%varavg| %total
---------------------------------------------------------------
Pair    | 21.31      | 21.465     | 21.621     |   3.4 | 53.36
Neigh   | 14.695     | 14.764     | 14.834     |   1.8 | 36.70
Comm    | 3.1194     | 3.361      | 3.6027     |  13.2 |  8.35
Output  | 5.1022e-05 | 7.9989e-05 | 0.00010896 |   0.0 |  0.00
Modify  | 0.53384    | 0.53685    | 0.53986    |   0.4 |  1.33
Other   |            | 0.1018     |            |       |  0.25

Nlocal:    9826 ave 9831 max 9821 min
Histogram: 1 0 0 0 0 0 0 0 0 1
Nghost:    11171 ave 11189 max 11153 min
Histogram: 1 0 0 0 0 0 0 0 0 1
Neighs:    545368 ave 546014 max 544721 min
Histogram: 1 0 0 0 0 0 0 0 0 1

Total # of neighbors = 1090735
Ave neighs/atom = 55.5025
Neighbor list builds = 495
Dangerous builds not checked
Setting up Verlet run ...
  Unit style    : metal
  Current step  : 2290495
  Time step     : 0.001
Per MPI rank memory allocation (min/avg/max) = 11.36 | 11.36 | 11.37 Mbytes
Step Temp Press TotEng PotEng Enthalpy 
 2290495    177.33969   -6.3241608    -27831.13   -28281.588   -27832.964 
 2300000    149.48899   -88.564466   -27969.652   -28349.368   -27995.295 
 2340000    150.94153    29.727675   -27971.365    -28354.77   -27962.762 
Loop time of 3532.86 on 2 procs for 49505 steps with 19652 atoms

Performance: 1.211 ns/day, 19.823 hours/ns, 14.013 timesteps/s
92.6% CPU use with 2 MPI tasks x no OpenMP threads

MPI task timing breakdown:
Section |  min time  |  avg time  |  max time  |%varavg| %total
---------------------------------------------------------------
Pair    | 1884.1     | 1887.8     | 1891.5     |   8.5 | 53.44
Neigh   | 1363.5     | 1375.8     | 1388.1     |  33.2 | 38.94
Comm    | 198.13     | 214.93     | 231.73     | 114.6 |  6.08
Output  | 0.055612   | 0.055659   | 0.055705   |   0.0 |  0.00
Modify  | 43.337     | 43.546     | 43.755     |   3.2 |  1.23
Other   |            | 10.74      |            |       |  0.30

Nlocal:    9826 ave 9833 max 9819 min
Histogram: 1 0 0 0 0 0 0 0 0 1
Nghost:    11184.5 ave 11193 max 11176 min
Histogram: 1 0 0 0 0 0 0 0 0 1
Neighs:    547016 ave 548067 max 545965 min
Histogram: 1 0 0 0 0 0 0 0 0 1

Total # of neighbors = 1094032
Ave neighs/atom = 55.6703
Neighbor list builds = 49505
Dangerous builds not checked
Setting up Verlet run ...
  Unit style    : metal
  Current step  : 2340000
  Time step     : 0.001
Per MPI rank memory allocation (min/avg/max) = 11.36 | 11.36 | 11.37 Mbytes
Step Temp Press TotEng PotEng Enthalpy 
 2340000    150.94153    29.727675   -27971.365    -28354.77   -27962.762 
 2340495    127.00678   -10.091389   -28089.695   -28412.304   -28092.611 
Loop time of 33.8035 on 2 procs for 495 steps with 19652 atoms

Performance: 1.265 ns/day, 18.969 hours/ns, 14.643 timesteps/s
98.7% CPU use with 2 MPI tasks x no OpenMP threads

MPI task timing breakdown:
Section |  min time  |  avg time  |  max time  |%varavg| %total
---------------------------------------------------------------
Pair    | 17.642     | 17.97      | 18.297     |   7.7 | 53.16
Neigh   | 13.084     | 13.508     | 13.933     |  11.5 | 39.96
Comm    | 1.0128     | 1.7892     | 2.5655     |  58.0 |  5.29
Output  | 6.6996e-05 | 0.000103   | 0.000139   |   0.0 |  0.00
Modify  | 0.41775    | 0.42916    | 0.44057    |   1.7 |  1.27
Other   |            | 0.107      |            |       |  0.32

Nlocal:    9826 ave 9831 max 9821 min
Histogram: 1 0 0 0 0 0 0 0 0 1
Nghost:    11199 ave 11208 max 11190 min
Histogram: 1 0 0 0 0 0 0 0 0 1
Neighs:    548348 ave 548520 max 548175 min
Histogram: 1 0 0 0 0 0 0 0 0 1

Total # of neighbors = 1096695
Ave neighs/atom = 55.8058
Neighbor list builds = 495
Dangerous builds not checked
Setting up Verlet run ...
  Unit style    : metal
  Current step  : 2340495
  Time step     : 0.001
Per MPI rank memory allocation (min/avg/max) = 11.36 | 11.36 | 11.37 Mbytes
Step Temp Press TotEng PotEng Enthalpy 
 2340495    127.00678   -10.091389   -28089.695   -28412.304   -28092.611 
 2350000    100.00423    165.25448    -28229.57    -28483.59   -28181.962 
 2390000    99.255127    145.44508    -28235.67   -28487.787   -28193.768 
Loop time of 3328.95 on 2 procs for 49505 steps with 19652 atoms

Performance: 1.285 ns/day, 18.679 hours/ns, 14.871 timesteps/s
96.0% CPU use with 2 MPI tasks x no OpenMP threads

MPI task timing breakdown:
Section |  min time  |  avg time  |  max time  |%varavg| %total
---------------------------------------------------------------
Pair    | 1772.2     | 1777       | 1781.8     |  11.4 | 53.38
Neigh   | 1328       | 1328.2     | 1328.4     |   0.5 | 39.90
Comm    | 169.85     | 174.38     | 178.91     |  34.3 |  5.24
Output  | 0.11112    | 0.11116    | 0.1112     |   0.0 |  0.00
Modify  | 39.267     | 39.344     | 39.42      |   1.2 |  1.18
Other   |            | 9.946      |            |       |  0.30

Nlocal:    9826 ave 9828 max 9824 min
Histogram: 1 0 0 0 0 0 0 0 0 1
Nghost:    11206 ave 11220 max 11192 min
Histogram: 1 0 0 0 0 0 0 0 0 1
Neighs:    550184 ave 550584 max 549785 min
Histogram: 1 0 0 0 0 0 0 0 0 1

Total # of neighbors = 1100369
Ave neighs/atom = 55.9927
Neighbor list builds = 49505
Dangerous builds not checked
Total wall time: 46:08:12
