LAMMPS (12 Dec 2018)
Lattice spacing in x,y,z = 4 4 4
Created orthogonal box = (0 0 0) to (68 68 68)
  1 by 1 by 1 MPI processor grid
Created 19652 atoms
  Time spent = 0.00405288 secs
Setting atom values ...
  417 settings made for type/fraction
Neighbor list info ...
  update every 1 steps, delay 0 steps, check no
  max neighbors/atom: 2000, page size: 100000
  master list distance cutoff = 8.2
  ghost atom cutoff = 8.2
  binsize = 4.1, bins = 17 17 17
  1 neighbor lists, perpetual/occasional/extra = 1 0 0
  (1) pair eam/alloy, perpetual
      attributes: half, newton on
      pair build: half/bin/atomonly/newton
      stencil: half/bin/3d/newton
      bin: standard
Setting up Verlet run ...
  Unit style    : metal
  Current step  : 0
  Time step     : 0.001
Per MPI rank memory allocation (min/avg/max) = 17.03 | 17.03 | 17.03 Mbytes
Step Temp Press TotEng PotEng Enthalpy 
       0          300   -244041.94   -60108.252   -60870.279   -108002.22 
    1000      731.769   -68748.151   -60108.345   -61967.105   -73600.378 
Loop time of 148.105 on 1 procs for 1000 steps with 19652 atoms

Performance: 0.583 ns/day, 41.140 hours/ns, 6.752 timesteps/s
98.4% CPU use with 1 MPI tasks x no OpenMP threads

MPI task timing breakdown:
Section |  min time  |  avg time  |  max time  |%varavg| %total
---------------------------------------------------------------
Pair    | 78.847     | 78.847     | 78.847     |   0.0 | 53.24
Neigh   | 67.246     | 67.246     | 67.246     |   0.0 | 45.40
Comm    | 1.2019     | 1.2019     | 1.2019     |   0.0 |  0.81
Output  | 0.00016713 | 0.00016713 | 0.00016713 |   0.0 |  0.00
Modify  | 0.41748    | 0.41748    | 0.41748    |   0.0 |  0.28
Other   |            | 0.3925     |            |       |  0.27

Nlocal:    19652 ave 19652 max 19652 min
Histogram: 1 0 0 0 0 0 0 0 0 0
Nghost:    18362 ave 18362 max 18362 min
Histogram: 1 0 0 0 0 0 0 0 0 0
Neighs:    1.44444e+06 ave 1.44444e+06 max 1.44444e+06 min
Histogram: 1 0 0 0 0 0 0 0 0 0

Total # of neighbors = 1444438
Ave neighs/atom = 73.5008
Neighbor list builds = 1000
Dangerous builds not checked
Setting up Verlet run ...
  Unit style    : metal
  Current step  : 1000
  Time step     : 0.001
Per MPI rank memory allocation (min/avg/max) = 17.03 | 17.03 | 17.03 Mbytes
Step Temp Press TotEng PotEng Enthalpy 
    1000      731.769   -68748.151   -60108.345   -61967.105   -73600.378 
    2000    399.08462   -2165.2346   -65501.238    -66514.95   -65836.618 
Loop time of 173.995 on 1 procs for 1000 steps with 19652 atoms

Performance: 0.497 ns/day, 48.332 hours/ns, 5.747 timesteps/s
98.6% CPU use with 1 MPI tasks x no OpenMP threads

MPI task timing breakdown:
Section |  min time  |  avg time  |  max time  |%varavg| %total
---------------------------------------------------------------
Pair    | 93.864     | 93.864     | 93.864     |   0.0 | 53.95
Neigh   | 77.103     | 77.103     | 77.103     |   0.0 | 44.31
Comm    | 1.104      | 1.104      | 1.104      |   0.0 |  0.63
Output  | 0.069662   | 0.069662   | 0.069662   |   0.0 |  0.04
Modify  | 1.4616     | 1.4616     | 1.4616     |   0.0 |  0.84
Other   |            | 0.3938     |            |       |  0.23

Nlocal:    19652 ave 19652 max 19652 min
Histogram: 1 0 0 0 0 0 0 0 0 0
Nghost:    19949 ave 19949 max 19949 min
Histogram: 1 0 0 0 0 0 0 0 0 0
Neighs:    1.77821e+06 ave 1.77821e+06 max 1.77821e+06 min
Histogram: 1 0 0 0 0 0 0 0 0 0

Total # of neighbors = 1778207
Ave neighs/atom = 90.4848
Neighbor list builds = 1000
Dangerous builds not checked
Setting up Verlet run ...
  Unit style    : metal
  Current step  : 2000
  Time step     : 0.001
Per MPI rank memory allocation (min/avg/max) = 18.56 | 18.56 | 18.56 Mbytes
Step Temp Press TotEng PotEng Enthalpy 
    2000    399.08462   -2165.2346   -65501.238    -66514.95   -65836.618 
    4000    812.92338    303.27644   -64688.463   -66753.363   -64642.725 
    6000    1356.6236   -2399.7024   -62035.841   -65481.789   -62407.176 
    8000     1850.144   -1184.0558   -58110.647   -62810.181   -58303.241 
   10000    2434.0129   -2819.9525   -53136.692   -59319.307   -53631.364 
Loop time of 1375.72 on 1 procs for 8000 steps with 19652 atoms

Performance: 0.502 ns/day, 47.768 hours/ns, 5.815 timesteps/s
98.7% CPU use with 1 MPI tasks x no OpenMP threads

MPI task timing breakdown:
Section |  min time  |  avg time  |  max time  |%varavg| %total
---------------------------------------------------------------
Pair    | 743.7      | 743.7      | 743.7      |   0.0 | 54.06
Neigh   | 608.98     | 608.98     | 608.98     |   0.0 | 44.27
Comm    | 8.4096     | 8.4096     | 8.4096     |   0.0 |  0.61
Output  | 0.42945    | 0.42945    | 0.42945    |   0.0 |  0.03
Modify  | 11.141     | 11.141     | 11.141     |   0.0 |  0.81
Other   |            | 3.059      |            |       |  0.22

Nlocal:    19652 ave 19652 max 19652 min
Histogram: 1 0 0 0 0 0 0 0 0 0
Nghost:    18721 ave 18721 max 18721 min
Histogram: 1 0 0 0 0 0 0 0 0 0
Neighs:    1.57331e+06 ave 1.57331e+06 max 1.57331e+06 min
Histogram: 1 0 0 0 0 0 0 0 0 0

Total # of neighbors = 1573313
Ave neighs/atom = 80.0587
Neighbor list builds = 8000
Dangerous builds not checked
Setting up Verlet run ...
  Unit style    : metal
  Current step  : 10000
  Time step     : 0.001
Per MPI rank memory allocation (min/avg/max) = 18.56 | 18.56 | 18.56 Mbytes
Step Temp Press TotEng PotEng Enthalpy 
   10000    2434.0129   -2819.9525   -53136.692   -59319.307   -53631.364 
   12000    2446.3873   -2128.6918   -53117.196   -59331.243   -53490.431 
   14000    2437.3548   -451.65972   -53119.686   -59310.789   -53198.787 
   16000    2445.6565    1502.4847   -53127.681   -59339.871   -52865.278 
   18000    2455.6475    1698.0492   -53050.974   -59288.543   -52753.869 
   20000    2431.2355   -50.111165   -53056.793   -59232.352    -53065.58 
   22000    2436.2125   -203.51236   -53104.359   -59292.561   -53140.012 
   24000    2467.0055   -1284.1155   -52981.932    -59248.35   -53207.317 
   26000    2447.1558    533.03856   -53052.282    -59268.28   -52958.929 
   28000    2428.8271   -287.59543   -53163.001   -59332.443   -53213.344 
   30000    2447.6675   -2922.3548   -53098.665   -59315.963   -53611.369 
   32000    2431.0396    224.53126   -53084.531   -59259.593   -53045.181 
   34000    2477.1035    2611.4136   -52989.511   -59281.579   -52532.773 
   36000    2457.6512   -329.15625    -53011.94   -59254.598   -53069.643 
   38000    2437.6181   -1334.6914   -53092.058    -59283.83   -53326.237 
   40000    2443.9167   -287.93639   -53041.245   -59249.016   -53091.734 
Loop time of 5175.34 on 1 procs for 30000 steps with 19652 atoms

Performance: 0.501 ns/day, 47.920 hours/ns, 5.797 timesteps/s
99.0% CPU use with 1 MPI tasks x no OpenMP threads

MPI task timing breakdown:
Section |  min time  |  avg time  |  max time  |%varavg| %total
---------------------------------------------------------------
Pair    | 2726.2     | 2726.2     | 2726.2     |   0.0 | 52.68
Neigh   | 2359.9     | 2359.9     | 2359.9     |   0.0 | 45.60
Comm    | 32.429     | 32.429     | 32.429     |   0.0 |  0.63
Output  | 3.9298     | 3.9298     | 3.9298     |   0.0 |  0.08
Modify  | 41.765     | 41.765     | 41.765     |   0.0 |  0.81
Other   |            | 11.11      |            |       |  0.21

Nlocal:    19652 ave 19652 max 19652 min
Histogram: 1 0 0 0 0 0 0 0 0 0
Nghost:    18802 ave 18802 max 18802 min
Histogram: 1 0 0 0 0 0 0 0 0 0
Neighs:    1.5736e+06 ave 1.5736e+06 max 1.5736e+06 min
Histogram: 1 0 0 0 0 0 0 0 0 0

Total # of neighbors = 1573601
Ave neighs/atom = 80.0733
Neighbor list builds = 30000
Dangerous builds not checked
Setting up Verlet run ...
  Unit style    : metal
  Current step  : 40000
  Time step     : 0.001
Per MPI rank memory allocation (min/avg/max) = 18.56 | 18.56 | 18.56 Mbytes
Step Temp Press TotEng PotEng Enthalpy 
   40000    2443.9167   -287.93639   -53041.245   -59249.016   -53091.734 
   40495    2413.9291    1482.3394   -53307.453   -59439.053   -53049.035 
Loop time of 74.2113 on 1 procs for 495 steps with 19652 atoms

Performance: 0.576 ns/day, 41.645 hours/ns, 6.670 timesteps/s
100.0% CPU use with 1 MPI tasks x no OpenMP threads

MPI task timing breakdown:
Section |  min time  |  avg time  |  max time  |%varavg| %total
---------------------------------------------------------------
Pair    | 38.788     | 38.788     | 38.788     |   0.0 | 52.27
Neigh   | 34.184     | 34.184     | 34.184     |   0.0 | 46.06
Comm    | 0.47276    | 0.47276    | 0.47276    |   0.0 |  0.64
Output  | 0.00015306 | 0.00015306 | 0.00015306 |   0.0 |  0.00
Modify  | 0.60413    | 0.60413    | 0.60413    |   0.0 |  0.81
Other   |            | 0.162      |            |       |  0.22

Nlocal:    19652 ave 19652 max 19652 min
Histogram: 1 0 0 0 0 0 0 0 0 0
Nghost:    18800 ave 18800 max 18800 min
Histogram: 1 0 0 0 0 0 0 0 0 0
Neighs:    1.58289e+06 ave 1.58289e+06 max 1.58289e+06 min
Histogram: 1 0 0 0 0 0 0 0 0 0

Total # of neighbors = 1582892
Ave neighs/atom = 80.5461
Neighbor list builds = 495
Dangerous builds not checked
Setting up Verlet run ...
  Unit style    : metal
  Current step  : 40495
  Time step     : 0.001
Per MPI rank memory allocation (min/avg/max) = 18.56 | 18.56 | 18.56 Mbytes
Step Temp Press TotEng PotEng Enthalpy 
   40495    2413.9291    1482.3394   -53307.453   -59439.053   -53049.035 
   42000    2403.4176   -22.048635   -53362.903   -59467.803   -53366.752 
Loop time of 254.872 on 1 procs for 1505 steps with 19652 atoms

Performance: 0.510 ns/day, 47.042 hours/ns, 5.905 timesteps/s
99.5% CPU use with 1 MPI tasks x no OpenMP threads

MPI task timing breakdown:
Section |  min time  |  avg time  |  max time  |%varavg| %total
---------------------------------------------------------------
Pair    | 134.51     | 134.51     | 134.51     |   0.0 | 52.78
Neigh   | 116.07     | 116.07     | 116.07     |   0.0 | 45.54
Comm    | 1.6024     | 1.6024     | 1.6024     |   0.0 |  0.63
Output  | 0.069849   | 0.069849   | 0.069849   |   0.0 |  0.03
Modify  | 2.0725     | 2.0725     | 2.0725     |   0.0 |  0.81
Other   |            | 0.5496     |            |       |  0.22

Nlocal:    19652 ave 19652 max 19652 min
Histogram: 1 0 0 0 0 0 0 0 0 0
Nghost:    18731 ave 18731 max 18731 min
Histogram: 1 0 0 0 0 0 0 0 0 0
Neighs:    1.58047e+06 ave 1.58047e+06 max 1.58047e+06 min
Histogram: 1 0 0 0 0 0 0 0 0 0

Total # of neighbors = 1580473
Ave neighs/atom = 80.423
Neighbor list builds = 1505
Dangerous builds not checked
Setting up Verlet run ...
  Unit style    : metal
  Current step  : 42000
  Time step     : 0.001
Per MPI rank memory allocation (min/avg/max) = 18.56 | 18.56 | 18.56 Mbytes
Step Temp Press TotEng PotEng Enthalpy 
   42000    2403.4176   -22.048635   -53362.903   -59467.803   -53366.752 
   42495    2352.0072    1382.5618    -53574.15   -59548.463   -53333.602 
Loop time of 83.6841 on 1 procs for 495 steps with 19652 atoms

Performance: 0.511 ns/day, 46.961 hours/ns, 5.915 timesteps/s
99.4% CPU use with 1 MPI tasks x no OpenMP threads

MPI task timing breakdown:
Section |  min time  |  avg time  |  max time  |%varavg| %total
---------------------------------------------------------------
Pair    | 44.157     | 44.157     | 44.157     |   0.0 | 52.77
Neigh   | 38.133     | 38.133     | 38.133     |   0.0 | 45.57
Comm    | 0.52161    | 0.52161    | 0.52161    |   0.0 |  0.62
Output  | 0.00018001 | 0.00018001 | 0.00018001 |   0.0 |  0.00
Modify  | 0.69178    | 0.69178    | 0.69178    |   0.0 |  0.83
Other   |            | 0.1813     |            |       |  0.22

Nlocal:    19652 ave 19652 max 19652 min
Histogram: 1 0 0 0 0 0 0 0 0 0
Nghost:    18845 ave 18845 max 18845 min
Histogram: 1 0 0 0 0 0 0 0 0 0
Neighs:    1.58546e+06 ave 1.58546e+06 max 1.58546e+06 min
Histogram: 1 0 0 0 0 0 0 0 0 0

Total # of neighbors = 1585459
Ave neighs/atom = 80.6767
Neighbor list builds = 495
Dangerous builds not checked
Setting up Verlet run ...
  Unit style    : metal
  Current step  : 42495
  Time step     : 0.001
Per MPI rank memory allocation (min/avg/max) = 18.56 | 18.56 | 18.56 Mbytes
Step Temp Press TotEng PotEng Enthalpy 
   42495    2352.0072    1382.5618    -53574.15   -59548.463   -53333.602 
   44000    2364.1242   -3479.9384   -53598.843   -59603.934    -54205.79 
Loop time of 237.816 on 1 procs for 1505 steps with 19652 atoms

Performance: 0.547 ns/day, 43.894 hours/ns, 6.328 timesteps/s
99.6% CPU use with 1 MPI tasks x no OpenMP threads

MPI task timing breakdown:
Section |  min time  |  avg time  |  max time  |%varavg| %total
---------------------------------------------------------------
Pair    | 125.88     | 125.88     | 125.88     |   0.0 | 52.93
Neigh   | 107.88     | 107.88     | 107.88     |   0.0 | 45.36
Comm    | 1.4793     | 1.4793     | 1.4793     |   0.0 |  0.62
Output  | 0.18883    | 0.18883    | 0.18883    |   0.0 |  0.08
Modify  | 1.8868     | 1.8868     | 1.8868     |   0.0 |  0.79
Other   |            | 0.5016     |            |       |  0.21

Nlocal:    19652 ave 19652 max 19652 min
Histogram: 1 0 0 0 0 0 0 0 0 0
Nghost:    18857 ave 18857 max 18857 min
Histogram: 1 0 0 0 0 0 0 0 0 0
Neighs:    1.58191e+06 ave 1.58191e+06 max 1.58191e+06 min
Histogram: 1 0 0 0 0 0 0 0 0 0

Total # of neighbors = 1581910
Ave neighs/atom = 80.4961
Neighbor list builds = 1505
Dangerous builds not checked
Setting up Verlet run ...
  Unit style    : metal
  Current step  : 44000
  Time step     : 0.001
Per MPI rank memory allocation (min/avg/max) = 18.56 | 18.56 | 18.56 Mbytes
Step Temp Press TotEng PotEng Enthalpy 
   44000    2364.1242   -3479.9384   -53598.843   -59603.934    -54205.79 
   44495    2307.0931    192.78574   -53910.692   -59770.919   -53877.276 
Loop time of 79.2799 on 1 procs for 495 steps with 19652 atoms

Performance: 0.539 ns/day, 44.489 hours/ns, 6.244 timesteps/s
99.0% CPU use with 1 MPI tasks x no OpenMP threads

MPI task timing breakdown:
Section |  min time  |  avg time  |  max time  |%varavg| %total
---------------------------------------------------------------
Pair    | 41.865     | 41.865     | 41.865     |   0.0 | 52.81
Neigh   | 36.087     | 36.087     | 36.087     |   0.0 | 45.52
Comm    | 0.49839    | 0.49839    | 0.49839    |   0.0 |  0.63
Output  | 0.00015903 | 0.00015903 | 0.00015903 |   0.0 |  0.00
Modify  | 0.65583    | 0.65583    | 0.65583    |   0.0 |  0.83
Other   |            | 0.1737     |            |       |  0.22

Nlocal:    19652 ave 19652 max 19652 min
Histogram: 1 0 0 0 0 0 0 0 0 0
Nghost:    18794 ave 18794 max 18794 min
Histogram: 1 0 0 0 0 0 0 0 0 0
Neighs:    1.591e+06 ave 1.591e+06 max 1.591e+06 min
Histogram: 1 0 0 0 0 0 0 0 0 0

Total # of neighbors = 1590999
Ave neighs/atom = 80.9586
Neighbor list builds = 495
Dangerous builds not checked
Setting up Verlet run ...
  Unit style    : metal
  Current step  : 44495
  Time step     : 0.001
Per MPI rank memory allocation (min/avg/max) = 18.56 | 18.56 | 18.56 Mbytes
Step Temp Press TotEng PotEng Enthalpy 
   44495    2307.0931    192.78574   -53910.692   -59770.919   -53877.276 
   46000    2288.2902    652.50645   -53963.461   -59775.927   -53850.487 
Loop time of 246.168 on 1 procs for 1505 steps with 19652 atoms

Performance: 0.528 ns/day, 45.435 hours/ns, 6.114 timesteps/s
99.5% CPU use with 1 MPI tasks x no OpenMP threads

MPI task timing breakdown:
Section |  min time  |  avg time  |  max time  |%varavg| %total
---------------------------------------------------------------
Pair    | 129.78     | 129.78     | 129.78     |   0.0 | 52.72
Neigh   | 112.24     | 112.24     | 112.24     |   0.0 | 45.59
Comm    | 1.5392     | 1.5392     | 1.5392     |   0.0 |  0.63
Output  | 0.085517   | 0.085517   | 0.085517   |   0.0 |  0.03
Modify  | 1.9938     | 1.9938     | 1.9938     |   0.0 |  0.81
Other   |            | 0.5325     |            |       |  0.22

Nlocal:    19652 ave 19652 max 19652 min
Histogram: 1 0 0 0 0 0 0 0 0 0
Nghost:    18930 ave 18930 max 18930 min
Histogram: 1 0 0 0 0 0 0 0 0 0
Neighs:    1.59294e+06 ave 1.59294e+06 max 1.59294e+06 min
Histogram: 1 0 0 0 0 0 0 0 0 0

Total # of neighbors = 1592935
Ave neighs/atom = 81.0571
Neighbor list builds = 1505
Dangerous builds not checked
Setting up Verlet run ...
  Unit style    : metal
  Current step  : 46000
  Time step     : 0.001
Per MPI rank memory allocation (min/avg/max) = 18.56 | 18.56 | 18.56 Mbytes
Step Temp Press TotEng PotEng Enthalpy 
   46000    2288.2902    652.50645   -53963.461   -59775.927   -53850.487 
   46495     2267.313    567.43122   -54195.928    -59955.11   -54098.001 
Loop time of 74.5602 on 1 procs for 495 steps with 19652 atoms

Performance: 0.574 ns/day, 41.841 hours/ns, 6.639 timesteps/s
100.0% CPU use with 1 MPI tasks x no OpenMP threads

MPI task timing breakdown:
Section |  min time  |  avg time  |  max time  |%varavg| %total
---------------------------------------------------------------
Pair    | 39.124     | 39.124     | 39.124     |   0.0 | 52.47
Neigh   | 34.193     | 34.193     | 34.193     |   0.0 | 45.86
Comm    | 0.46628    | 0.46628    | 0.46628    |   0.0 |  0.63
Output  | 0.00017595 | 0.00017595 | 0.00017595 |   0.0 |  0.00
Modify  | 0.61106    | 0.61106    | 0.61106    |   0.0 |  0.82
Other   |            | 0.165      |            |       |  0.22

Nlocal:    19652 ave 19652 max 19652 min
Histogram: 1 0 0 0 0 0 0 0 0 0
Nghost:    18874 ave 18874 max 18874 min
Histogram: 1 0 0 0 0 0 0 0 0 0
Neighs:    1.59751e+06 ave 1.59751e+06 max 1.59751e+06 min
Histogram: 1 0 0 0 0 0 0 0 0 0

Total # of neighbors = 1597511
Ave neighs/atom = 81.29
Neighbor list builds = 495
Dangerous builds not checked
Setting up Verlet run ...
  Unit style    : metal
  Current step  : 46495
  Time step     : 0.001
Per MPI rank memory allocation (min/avg/max) = 18.56 | 18.56 | 18.56 Mbytes
Step Temp Press TotEng PotEng Enthalpy 
   46495     2267.313    567.43122   -54195.928    -59955.11   -54098.001 
   48000    2245.3673   -867.05783   -54273.431   -59976.869   -54423.153 
Loop time of 233.637 on 1 procs for 1505 steps with 19652 atoms

Performance: 0.557 ns/day, 43.122 hours/ns, 6.442 timesteps/s
99.7% CPU use with 1 MPI tasks x no OpenMP threads

MPI task timing breakdown:
Section |  min time  |  avg time  |  max time  |%varavg| %total
---------------------------------------------------------------
Pair    | 123.25     | 123.25     | 123.25     |   0.0 | 52.75
Neigh   | 106.46     | 106.46     | 106.46     |   0.0 | 45.57
Comm    | 1.4613     | 1.4613     | 1.4613     |   0.0 |  0.63
Output  | 0.08652    | 0.08652    | 0.08652    |   0.0 |  0.04
Modify  | 1.8726     | 1.8726     | 1.8726     |   0.0 |  0.80
Other   |            | 0.5032     |            |       |  0.22

Nlocal:    19652 ave 19652 max 19652 min
Histogram: 1 0 0 0 0 0 0 0 0 0
Nghost:    18779 ave 18779 max 18779 min
Histogram: 1 0 0 0 0 0 0 0 0 0
Neighs:    1.5967e+06 ave 1.5967e+06 max 1.5967e+06 min
Histogram: 1 0 0 0 0 0 0 0 0 0

Total # of neighbors = 1596701
Ave neighs/atom = 81.2488
Neighbor list builds = 1505
Dangerous builds not checked
Setting up Verlet run ...
  Unit style    : metal
  Current step  : 48000
  Time step     : 0.001
Per MPI rank memory allocation (min/avg/max) = 18.56 | 18.56 | 18.56 Mbytes
Step Temp Press TotEng PotEng Enthalpy 
   48000    2245.3673   -867.05783   -54273.431   -59976.869   -54423.153 
   48495    2210.3046    191.96083   -54511.074   -60125.449   -54478.051 
Loop time of 76.518 on 1 procs for 495 steps with 19652 atoms

Performance: 0.559 ns/day, 42.939 hours/ns, 6.469 timesteps/s
100.0% CPU use with 1 MPI tasks x no OpenMP threads

MPI task timing breakdown:
Section |  min time  |  avg time  |  max time  |%varavg| %total
---------------------------------------------------------------
Pair    | 40.35      | 40.35      | 40.35      |   0.0 | 52.73
Neigh   | 34.89      | 34.89      | 34.89      |   0.0 | 45.60
Comm    | 0.48096    | 0.48096    | 0.48096    |   0.0 |  0.63
Output  | 0.0001719  | 0.0001719  | 0.0001719  |   0.0 |  0.00
Modify  | 0.62795    | 0.62795    | 0.62795    |   0.0 |  0.82
Other   |            | 0.1687     |            |       |  0.22

Nlocal:    19652 ave 19652 max 19652 min
Histogram: 1 0 0 0 0 0 0 0 0 0
Nghost:    18963 ave 18963 max 18963 min
Histogram: 1 0 0 0 0 0 0 0 0 0
Neighs:    1.6026e+06 ave 1.6026e+06 max 1.6026e+06 min
Histogram: 1 0 0 0 0 0 0 0 0 0

Total # of neighbors = 1602603
Ave neighs/atom = 81.5491
Neighbor list builds = 495
Dangerous builds not checked
Setting up Verlet run ...
  Unit style    : metal
  Current step  : 48495
  Time step     : 0.001
Per MPI rank memory allocation (min/avg/max) = 18.56 | 18.56 | 18.56 Mbytes
Step Temp Press TotEng PotEng Enthalpy 
   48495    2210.3046    191.96083   -54511.074   -60125.449   -54478.051 
   50000    2196.4193    1022.9591   -54615.179   -60194.284   -54439.634 
Loop time of 242.861 on 1 procs for 1505 steps with 19652 atoms

Performance: 0.535 ns/day, 44.825 hours/ns, 6.197 timesteps/s
99.3% CPU use with 1 MPI tasks x no OpenMP threads

MPI task timing breakdown:
Section |  min time  |  avg time  |  max time  |%varavg| %total
---------------------------------------------------------------
Pair    | 127.96     | 127.96     | 127.96     |   0.0 | 52.69
Neigh   | 110.69     | 110.69     | 110.69     |   0.0 | 45.58
Comm    | 1.5245     | 1.5245     | 1.5245     |   0.0 |  0.63
Output  | 0.19491    | 0.19491    | 0.19491    |   0.0 |  0.08
Modify  | 1.9677     | 1.9677     | 1.9677     |   0.0 |  0.81
Other   |            | 0.5208     |            |       |  0.21

Nlocal:    19652 ave 19652 max 19652 min
Histogram: 1 0 0 0 0 0 0 0 0 0
Nghost:    18979 ave 18979 max 18979 min
Histogram: 1 0 0 0 0 0 0 0 0 0
Neighs:    1.60641e+06 ave 1.60641e+06 max 1.60641e+06 min
Histogram: 1 0 0 0 0 0 0 0 0 0

Total # of neighbors = 1606411
Ave neighs/atom = 81.7429
Neighbor list builds = 1505
Dangerous builds not checked
Setting up Verlet run ...
  Unit style    : metal
  Current step  : 50000
  Time step     : 0.001
Per MPI rank memory allocation (min/avg/max) = 18.56 | 18.56 | 18.56 Mbytes
Step Temp Press TotEng PotEng Enthalpy 
   50000    2196.4193    1022.9591   -54615.179   -60194.284   -54439.634 
   50495    2167.4029    587.93894       -54824     -60329.4    -54723.39 
Loop time of 83.6893 on 1 procs for 495 steps with 19652 atoms

Performance: 0.511 ns/day, 46.964 hours/ns, 5.915 timesteps/s
98.9% CPU use with 1 MPI tasks x no OpenMP threads

MPI task timing breakdown:
Section |  min time  |  avg time  |  max time  |%varavg| %total
---------------------------------------------------------------
Pair    | 44.278     | 44.278     | 44.278     |   0.0 | 52.91
Neigh   | 38.008     | 38.008     | 38.008     |   0.0 | 45.42
Comm    | 0.51245    | 0.51245    | 0.51245    |   0.0 |  0.61
Output  | 0.000139   | 0.000139   | 0.000139   |   0.0 |  0.00
Modify  | 0.69172    | 0.69172    | 0.69172    |   0.0 |  0.83
Other   |            | 0.1994     |            |       |  0.24

Nlocal:    19652 ave 19652 max 19652 min
Histogram: 1 0 0 0 0 0 0 0 0 0
Nghost:    18867 ave 18867 max 18867 min
Histogram: 1 0 0 0 0 0 0 0 0 0
Neighs:    1.61029e+06 ave 1.61029e+06 max 1.61029e+06 min
Histogram: 1 0 0 0 0 0 0 0 0 0

Total # of neighbors = 1610293
Ave neighs/atom = 81.9404
Neighbor list builds = 495
Dangerous builds not checked
Setting up Verlet run ...
  Unit style    : metal
  Current step  : 50495
  Time step     : 0.001
Per MPI rank memory allocation (min/avg/max) = 18.56 | 18.56 | 18.56 Mbytes
Step Temp Press TotEng PotEng Enthalpy 
   50495    2167.4029    587.93894       -54824     -60329.4    -54723.39 
   52000    2152.0585    500.00568   -54923.385   -60389.809   -54837.903 
Loop time of 230.184 on 1 procs for 1505 steps with 19652 atoms

Performance: 0.565 ns/day, 42.485 hours/ns, 6.538 timesteps/s
99.9% CPU use with 1 MPI tasks x no OpenMP threads

MPI task timing breakdown:
Section |  min time  |  avg time  |  max time  |%varavg| %total
---------------------------------------------------------------
Pair    | 121.32     | 121.32     | 121.32     |   0.0 | 52.70
Neigh   | 105        | 105        | 105        |   0.0 | 45.61
Comm    | 1.4443     | 1.4443     | 1.4443     |   0.0 |  0.63
Output  | 0.067099   | 0.067099   | 0.067099   |   0.0 |  0.03
Modify  | 1.8575     | 1.8575     | 1.8575     |   0.0 |  0.81
Other   |            | 0.5029     |            |       |  0.22

Nlocal:    19652 ave 19652 max 19652 min
Histogram: 1 0 0 0 0 0 0 0 0 0
Nghost:    18932 ave 18932 max 18932 min
Histogram: 1 0 0 0 0 0 0 0 0 0
Neighs:    1.61267e+06 ave 1.61267e+06 max 1.61267e+06 min
Histogram: 1 0 0 0 0 0 0 0 0 0

Total # of neighbors = 1612672
Ave neighs/atom = 82.0615
Neighbor list builds = 1505
Dangerous builds not checked
Setting up Verlet run ...
  Unit style    : metal
  Current step  : 52000
  Time step     : 0.001
Per MPI rank memory allocation (min/avg/max) = 18.56 | 18.56 | 18.56 Mbytes
Step Temp Press TotEng PotEng Enthalpy 
   52000    2152.0585    500.00568   -54923.385   -60389.809   -54837.903 
   52495    2105.9519    1167.4791   -55153.147   -60502.457   -54954.071 
Loop time of 69.4429 on 1 procs for 495 steps with 19652 atoms

Performance: 0.616 ns/day, 38.969 hours/ns, 7.128 timesteps/s
99.9% CPU use with 1 MPI tasks x no OpenMP threads

MPI task timing breakdown:
Section |  min time  |  avg time  |  max time  |%varavg| %total
---------------------------------------------------------------
Pair    | 36.492     | 36.492     | 36.492     |   0.0 | 52.55
Neigh   | 31.817     | 31.817     | 31.817     |   0.0 | 45.82
Comm    | 0.43403    | 0.43403    | 0.43403    |   0.0 |  0.63
Output  | 0.00016999 | 0.00016999 | 0.00016999 |   0.0 |  0.00
Modify  | 0.54865    | 0.54865    | 0.54865    |   0.0 |  0.79
Other   |            | 0.1511     |            |       |  0.22

Nlocal:    19652 ave 19652 max 19652 min
Histogram: 1 0 0 0 0 0 0 0 0 0
Nghost:    18977 ave 18977 max 18977 min
Histogram: 1 0 0 0 0 0 0 0 0 0
Neighs:    1.61648e+06 ave 1.61648e+06 max 1.61648e+06 min
Histogram: 1 0 0 0 0 0 0 0 0 0

Total # of neighbors = 1616482
Ave neighs/atom = 82.2553
Neighbor list builds = 495
Dangerous builds not checked
Setting up Verlet run ...
  Unit style    : metal
  Current step  : 52495
  Time step     : 0.001
Per MPI rank memory allocation (min/avg/max) = 18.56 | 18.56 | 18.56 Mbytes
Step Temp Press TotEng PotEng Enthalpy 
   52495    2105.9519    1167.4791   -55153.147   -60502.457   -54954.071 
   54000    2112.8965   -1356.0846   -55152.262   -60519.212   -55383.747 
Loop time of 225.974 on 1 procs for 1505 steps with 19652 atoms

Performance: 0.575 ns/day, 41.708 hours/ns, 6.660 timesteps/s
99.9% CPU use with 1 MPI tasks x no OpenMP threads

MPI task timing breakdown:
Section |  min time  |  avg time  |  max time  |%varavg| %total
---------------------------------------------------------------
Pair    | 118.55     | 118.55     | 118.55     |   0.0 | 52.46
Neigh   | 103.63     | 103.63     | 103.63     |   0.0 | 45.86
Comm    | 1.4008     | 1.4008     | 1.4008     |   0.0 |  0.62
Output  | 0.06843    | 0.06843    | 0.06843    |   0.0 |  0.03
Modify  | 1.8296     | 1.8296     | 1.8296     |   0.0 |  0.81
Other   |            | 0.4944     |            |       |  0.22

Nlocal:    19652 ave 19652 max 19652 min
Histogram: 1 0 0 0 0 0 0 0 0 0
Nghost:    18946 ave 18946 max 18946 min
Histogram: 1 0 0 0 0 0 0 0 0 0
Neighs:    1.61411e+06 ave 1.61411e+06 max 1.61411e+06 min
Histogram: 1 0 0 0 0 0 0 0 0 0

Total # of neighbors = 1614112
Ave neighs/atom = 82.1347
Neighbor list builds = 1505
Dangerous builds not checked
Setting up Verlet run ...
  Unit style    : metal
  Current step  : 54000
  Time step     : 0.001
Per MPI rank memory allocation (min/avg/max) = 18.56 | 18.56 | 18.56 Mbytes
Step Temp Press TotEng PotEng Enthalpy 
   54000    2112.8965   -1356.0846   -55152.262   -60519.212   -55383.747 
   54495    2066.3041   -632.13474   -55417.312   -60665.913   -55524.846 
Loop time of 76.584 on 1 procs for 495 steps with 19652 atoms

Performance: 0.558 ns/day, 42.976 hours/ns, 6.463 timesteps/s
98.9% CPU use with 1 MPI tasks x no OpenMP threads

MPI task timing breakdown:
Section |  min time  |  avg time  |  max time  |%varavg| %total
---------------------------------------------------------------
Pair    | 39.828     | 39.828     | 39.828     |   0.0 | 52.01
Neigh   | 35.482     | 35.482     | 35.482     |   0.0 | 46.33
Comm    | 0.47056    | 0.47056    | 0.47056    |   0.0 |  0.61
Output  | 0.00016308 | 0.00016308 | 0.00016308 |   0.0 |  0.00
Modify  | 0.63399    | 0.63399    | 0.63399    |   0.0 |  0.83
Other   |            | 0.169      |            |       |  0.22

Nlocal:    19652 ave 19652 max 19652 min
Histogram: 1 0 0 0 0 0 0 0 0 0
Nghost:    18964 ave 18964 max 18964 min
Histogram: 1 0 0 0 0 0 0 0 0 0
Neighs:    1.61976e+06 ave 1.61976e+06 max 1.61976e+06 min
Histogram: 1 0 0 0 0 0 0 0 0 0

Total # of neighbors = 1619761
Ave neighs/atom = 82.4222
Neighbor list builds = 495
Dangerous builds not checked
Setting up Verlet run ...
  Unit style    : metal
  Current step  : 54495
  Time step     : 0.001
Per MPI rank memory allocation (min/avg/max) = 18.56 | 18.56 | 18.56 Mbytes
Step Temp Press TotEng PotEng Enthalpy 
   54495    2066.3041   -632.13474   -55417.312   -60665.913   -55524.846 
   56000    2065.1335    726.03446   -55510.942   -60756.569   -55387.773 
Loop time of 225.525 on 1 procs for 1505 steps with 19652 atoms

Performance: 0.577 ns/day, 41.625 hours/ns, 6.673 timesteps/s
99.5% CPU use with 1 MPI tasks x no OpenMP threads

MPI task timing breakdown:
Section |  min time  |  avg time  |  max time  |%varavg| %total
---------------------------------------------------------------
Pair    | 116.84     | 116.84     | 116.84     |   0.0 | 51.81
Neigh   | 104.78     | 104.78     | 104.78     |   0.0 | 46.46
Comm    | 1.3995     | 1.3995     | 1.3995     |   0.0 |  0.62
Output  | 0.16427    | 0.16427    | 0.16427    |   0.0 |  0.07
Modify  | 1.8417     | 1.8417     | 1.8417     |   0.0 |  0.82
Other   |            | 0.4958     |            |       |  0.22

Nlocal:    19652 ave 19652 max 19652 min
Histogram: 1 0 0 0 0 0 0 0 0 0
Nghost:    18973 ave 18973 max 18973 min
Histogram: 1 0 0 0 0 0 0 0 0 0
Neighs:    1.62396e+06 ave 1.62396e+06 max 1.62396e+06 min
Histogram: 1 0 0 0 0 0 0 0 0 0

Total # of neighbors = 1623959
Ave neighs/atom = 82.6358
Neighbor list builds = 1505
Dangerous builds not checked
Setting up Verlet run ...
  Unit style    : metal
  Current step  : 56000
  Time step     : 0.001
Per MPI rank memory allocation (min/avg/max) = 18.56 | 18.56 | 18.56 Mbytes
Step Temp Press TotEng PotEng Enthalpy 
   56000    2065.1335    726.03446   -55510.942   -60756.569   -55387.773 
   56495     2016.021    349.16976   -55777.635   -60898.512   -55718.578 
Loop time of 71.5807 on 1 procs for 495 steps with 19652 atoms

Performance: 0.597 ns/day, 40.169 hours/ns, 6.915 timesteps/s
100.0% CPU use with 1 MPI tasks x no OpenMP threads

MPI task timing breakdown:
Section |  min time  |  avg time  |  max time  |%varavg| %total
---------------------------------------------------------------
Pair    | 37.173     | 37.173     | 37.173     |   0.0 | 51.93
Neigh   | 33.202     | 33.202     | 33.202     |   0.0 | 46.38
Comm    | 0.44577    | 0.44577    | 0.44577    |   0.0 |  0.62
Output  | 0.00014281 | 0.00014281 | 0.00014281 |   0.0 |  0.00
Modify  | 0.5972     | 0.5972     | 0.5972     |   0.0 |  0.83
Other   |            | 0.1626     |            |       |  0.23

Nlocal:    19652 ave 19652 max 19652 min
Histogram: 1 0 0 0 0 0 0 0 0 0
Nghost:    18977 ave 18977 max 18977 min
Histogram: 1 0 0 0 0 0 0 0 0 0
Neighs:    1.62837e+06 ave 1.62837e+06 max 1.62837e+06 min
Histogram: 1 0 0 0 0 0 0 0 0 0

Total # of neighbors = 1628368
Ave neighs/atom = 82.8602
Neighbor list builds = 495
Dangerous builds not checked
Setting up Verlet run ...
  Unit style    : metal
  Current step  : 56495
  Time step     : 0.001
Per MPI rank memory allocation (min/avg/max) = 18.56 | 18.56 | 18.56 Mbytes
Step Temp Press TotEng PotEng Enthalpy 
   56495     2016.021    349.16976   -55777.635   -60898.512   -55718.578 
   58000    1991.7758    -451.5597   -55897.167   -60956.459   -55973.481 
Loop time of 215.262 on 1 procs for 1505 steps with 19652 atoms

Performance: 0.604 ns/day, 39.731 hours/ns, 6.991 timesteps/s
99.6% CPU use with 1 MPI tasks x no OpenMP threads

MPI task timing breakdown:
Section |  min time  |  avg time  |  max time  |%varavg| %total
---------------------------------------------------------------
Pair    | 111.74     | 111.74     | 111.74     |   0.0 | 51.91
Neigh   | 99.848     | 99.848     | 99.848     |   0.0 | 46.38
Comm    | 1.3457     | 1.3457     | 1.3457     |   0.0 |  0.63
Output  | 0.065026   | 0.065026   | 0.065026   |   0.0 |  0.03
Modify  | 1.7816     | 1.7816     | 1.7816     |   0.0 |  0.83
Other   |            | 0.4832     |            |       |  0.22

Nlocal:    19652 ave 19652 max 19652 min
Histogram: 1 0 0 0 0 0 0 0 0 0
Nghost:    19026 ave 19026 max 19026 min
Histogram: 1 0 0 0 0 0 0 0 0 0
Neighs:    1.63006e+06 ave 1.63006e+06 max 1.63006e+06 min
Histogram: 1 0 0 0 0 0 0 0 0 0

Total # of neighbors = 1630065
Ave neighs/atom = 82.9465
Neighbor list builds = 1505
Dangerous builds not checked
Setting up Verlet run ...
  Unit style    : metal
  Current step  : 58000
  Time step     : 0.001
Per MPI rank memory allocation (min/avg/max) = 18.56 | 18.56 | 18.56 Mbytes
Step Temp Press TotEng PotEng Enthalpy 
   58000    1991.7758    -451.5597   -55897.167   -60956.459   -55973.481 
   58495    1955.2534    1496.6485   -56061.124   -61027.646   -55808.881 
Loop time of 65.2656 on 1 procs for 495 steps with 19652 atoms

Performance: 0.655 ns/day, 36.625 hours/ns, 7.584 timesteps/s
100.0% CPU use with 1 MPI tasks x no OpenMP threads

MPI task timing breakdown:
Section |  min time  |  avg time  |  max time  |%varavg| %total
---------------------------------------------------------------
Pair    | 33.822     | 33.822     | 33.822     |   0.0 | 51.82
Neigh   | 30.362     | 30.362     | 30.362     |   0.0 | 46.52
Comm    | 0.40154    | 0.40154    | 0.40154    |   0.0 |  0.62
Output  | 0.00013304 | 0.00013304 | 0.00013304 |   0.0 |  0.00
Modify  | 0.53338    | 0.53338    | 0.53338    |   0.0 |  0.82
Other   |            | 0.1462     |            |       |  0.22

Nlocal:    19652 ave 19652 max 19652 min
Histogram: 1 0 0 0 0 0 0 0 0 0
Nghost:    19111 ave 19111 max 19111 min
Histogram: 1 0 0 0 0 0 0 0 0 0
Neighs:    1.63447e+06 ave 1.63447e+06 max 1.63447e+06 min
Histogram: 1 0 0 0 0 0 0 0 0 0

Total # of neighbors = 1634472
Ave neighs/atom = 83.1708
Neighbor list builds = 495
Dangerous builds not checked
Setting up Verlet run ...
  Unit style    : metal
  Current step  : 58495
  Time step     : 0.001
Per MPI rank memory allocation (min/avg/max) = 18.56 | 18.56 | 18.56 Mbytes
Step Temp Press TotEng PotEng Enthalpy 
   58495    1955.2534    1496.6485   -56061.124   -61027.646   -55808.881 
   60000    1959.6786   -651.14345   -56136.277   -61114.039   -56245.995 
Loop time of 240.286 on 1 procs for 1505 steps with 19652 atoms

Performance: 0.541 ns/day, 44.350 hours/ns, 6.263 timesteps/s
99.5% CPU use with 1 MPI tasks x no OpenMP threads

MPI task timing breakdown:
Section |  min time  |  avg time  |  max time  |%varavg| %total
---------------------------------------------------------------
Pair    | 127.71     | 127.71     | 127.71     |   0.0 | 53.15
Neigh   | 108.39     | 108.39     | 108.39     |   0.0 | 45.11
Comm    | 1.5587     | 1.5587     | 1.5587     |   0.0 |  0.65
Output  | 0.097414   | 0.097414   | 0.097414   |   0.0 |  0.04
Modify  | 1.9592     | 1.9592     | 1.9592     |   0.0 |  0.82
Other   |            | 0.5657     |            |       |  0.24

Nlocal:    19652 ave 19652 max 19652 min
Histogram: 1 0 0 0 0 0 0 0 0 0
Nghost:    18997 ave 18997 max 18997 min
Histogram: 1 0 0 0 0 0 0 0 0 0
Neighs:    1.63404e+06 ave 1.63404e+06 max 1.63404e+06 min
Histogram: 1 0 0 0 0 0 0 0 0 0

Total # of neighbors = 1634037
Ave neighs/atom = 83.1486
Neighbor list builds = 1505
Dangerous builds not checked
Setting up Verlet run ...
  Unit style    : metal
  Current step  : 60000
  Time step     : 0.001
Per MPI rank memory allocation (min/avg/max) = 18.56 | 18.56 | 18.56 Mbytes
Step Temp Press TotEng PotEng Enthalpy 
   60000    1959.6786   -651.14345   -56136.277   -61114.039   -56245.995 
   60495    1912.2812    1077.3059   -56367.933   -61225.302   -56187.051 
Loop time of 68.8759 on 1 procs for 495 steps with 19652 atoms

Performance: 0.621 ns/day, 38.651 hours/ns, 7.187 timesteps/s
99.9% CPU use with 1 MPI tasks x no OpenMP threads

MPI task timing breakdown:
Section |  min time  |  avg time  |  max time  |%varavg| %total
---------------------------------------------------------------
Pair    | 35.862     | 35.862     | 35.862     |   0.0 | 52.07
Neigh   | 31.867     | 31.867     | 31.867     |   0.0 | 46.27
Comm    | 0.42722    | 0.42722    | 0.42722    |   0.0 |  0.62
Output  | 0.00013399 | 0.00013399 | 0.00013399 |   0.0 |  0.00
Modify  | 0.56635    | 0.56635    | 0.56635    |   0.0 |  0.82
Other   |            | 0.1534     |            |       |  0.22

Nlocal:    19652 ave 19652 max 19652 min
Histogram: 1 0 0 0 0 0 0 0 0 0
Nghost:    19081 ave 19081 max 19081 min
Histogram: 1 0 0 0 0 0 0 0 0 0
Neighs:    1.63957e+06 ave 1.63957e+06 max 1.63957e+06 min
Histogram: 1 0 0 0 0 0 0 0 0 0

Total # of neighbors = 1639574
Ave neighs/atom = 83.4304
Neighbor list builds = 495
Dangerous builds not checked
Setting up Verlet run ...
  Unit style    : metal
  Current step  : 60495
  Time step     : 0.001
Per MPI rank memory allocation (min/avg/max) = 18.56 | 18.56 | 18.56 Mbytes
Step Temp Press TotEng PotEng Enthalpy 
   60495    1912.2812    1077.3059   -56367.933   -61225.302   -56187.051 
   62000    1896.4376   -1369.9337   -56463.588   -61280.712   -56693.652 
Loop time of 227.407 on 1 procs for 1505 steps with 19652 atoms

Performance: 0.572 ns/day, 41.972 hours/ns, 6.618 timesteps/s
99.3% CPU use with 1 MPI tasks x no OpenMP threads

MPI task timing breakdown:
Section |  min time  |  avg time  |  max time  |%varavg| %total
---------------------------------------------------------------
Pair    | 118.86     | 118.86     | 118.86     |   0.0 | 52.27
Neigh   | 104.66     | 104.66     | 104.66     |   0.0 | 46.02
Comm    | 1.4224     | 1.4224     | 1.4224     |   0.0 |  0.63
Output  | 0.10741    | 0.10741    | 0.10741    |   0.0 |  0.05
Modify  | 1.8543     | 1.8543     | 1.8543     |   0.0 |  0.82
Other   |            | 0.5083     |            |       |  0.22

Nlocal:    19652 ave 19652 max 19652 min
Histogram: 1 0 0 0 0 0 0 0 0 0
Nghost:    19095 ave 19095 max 19095 min
Histogram: 1 0 0 0 0 0 0 0 0 0
Neighs:    1.63964e+06 ave 1.63964e+06 max 1.63964e+06 min
Histogram: 1 0 0 0 0 0 0 0 0 0

Total # of neighbors = 1639637
Ave neighs/atom = 83.4336
Neighbor list builds = 1505
Dangerous builds not checked
Setting up Verlet run ...
  Unit style    : metal
  Current step  : 62000
  Time step     : 0.001
Per MPI rank memory allocation (min/avg/max) = 18.56 | 18.56 | 18.56 Mbytes
Step Temp Press TotEng PotEng Enthalpy 
   62000    1896.4376   -1369.9337   -56463.588   -61280.712   -56693.652 
   62495    1860.3537   -2585.8481   -56670.665   -61396.133   -57104.275 
Loop time of 83.6747 on 1 procs for 495 steps with 19652 atoms

Performance: 0.511 ns/day, 46.955 hours/ns, 5.916 timesteps/s
99.9% CPU use with 1 MPI tasks x no OpenMP threads

MPI task timing breakdown:
Section |  min time  |  avg time  |  max time  |%varavg| %total
---------------------------------------------------------------
Pair    | 44.443     | 44.443     | 44.443     |   0.0 | 53.11
Neigh   | 37.828     | 37.828     | 37.828     |   0.0 | 45.21
Comm    | 0.52563    | 0.52563    | 0.52563    |   0.0 |  0.63
Output  | 0.000144   | 0.000144   | 0.000144   |   0.0 |  0.00
Modify  | 0.69414    | 0.69414    | 0.69414    |   0.0 |  0.83
Other   |            | 0.1834     |            |       |  0.22

Nlocal:    19652 ave 19652 max 19652 min
Histogram: 1 0 0 0 0 0 0 0 0 0
Nghost:    19150 ave 19150 max 19150 min
Histogram: 1 0 0 0 0 0 0 0 0 0
Neighs:    1.64211e+06 ave 1.64211e+06 max 1.64211e+06 min
Histogram: 1 0 0 0 0 0 0 0 0 0

Total # of neighbors = 1642113
Ave neighs/atom = 83.5596
Neighbor list builds = 495
Dangerous builds not checked
Setting up Verlet run ...
  Unit style    : metal
  Current step  : 62495
  Time step     : 0.001
Per MPI rank memory allocation (min/avg/max) = 18.56 | 18.56 | 18.56 Mbytes
Step Temp Press TotEng PotEng Enthalpy 
   62495    1860.3537   -2585.8481   -56670.665   -61396.133   -57104.275 
   64000    1864.6329    207.74129     -56766.3   -61502.637   -56731.595 
Loop time of 214.121 on 1 procs for 1505 steps with 19652 atoms

Performance: 0.607 ns/day, 39.520 hours/ns, 7.029 timesteps/s
99.8% CPU use with 1 MPI tasks x no OpenMP threads

MPI task timing breakdown:
Section |  min time  |  avg time  |  max time  |%varavg| %total
---------------------------------------------------------------
Pair    | 111.83     | 111.83     | 111.83     |   0.0 | 52.23
Neigh   | 98.652     | 98.652     | 98.652     |   0.0 | 46.07
Comm    | 1.34       | 1.34       | 1.34       |   0.0 |  0.63
Output  | 0.08735    | 0.08735    | 0.08735    |   0.0 |  0.04
Modify  | 1.7342     | 1.7342     | 1.7342     |   0.0 |  0.81
Other   |            | 0.4768     |            |       |  0.22

Nlocal:    19652 ave 19652 max 19652 min
Histogram: 1 0 0 0 0 0 0 0 0 0
Nghost:    19140 ave 19140 max 19140 min
Histogram: 1 0 0 0 0 0 0 0 0 0
Neighs:    1.64742e+06 ave 1.64742e+06 max 1.64742e+06 min
Histogram: 1 0 0 0 0 0 0 0 0 0

Total # of neighbors = 1647420
Ave neighs/atom = 83.8296
Neighbor list builds = 1505
Dangerous builds not checked
Setting up Verlet run ...
  Unit style    : metal
  Current step  : 64000
  Time step     : 0.001
Per MPI rank memory allocation (min/avg/max) = 18.56 | 18.56 | 18.56 Mbytes
Step Temp Press TotEng PotEng Enthalpy 
   64000    1864.6329    207.74129     -56766.3   -61502.637   -56731.595 
   64495    1821.8619    1283.8508   -56978.727   -61606.422   -56764.943 
Loop time of 69.0601 on 1 procs for 495 steps with 19652 atoms

Performance: 0.619 ns/day, 38.754 hours/ns, 7.168 timesteps/s
99.3% CPU use with 1 MPI tasks x no OpenMP threads

MPI task timing breakdown:
Section |  min time  |  avg time  |  max time  |%varavg| %total
---------------------------------------------------------------
Pair    | 35.947     | 35.947     | 35.947     |   0.0 | 52.05
Neigh   | 31.97      | 31.97      | 31.97      |   0.0 | 46.29
Comm    | 0.42521    | 0.42521    | 0.42521    |   0.0 |  0.62
Output  | 0.00016689 | 0.00016689 | 0.00016689 |   0.0 |  0.00
Modify  | 0.56356    | 0.56356    | 0.56356    |   0.0 |  0.82
Other   |            | 0.1546     |            |       |  0.22

Nlocal:    19652 ave 19652 max 19652 min
Histogram: 1 0 0 0 0 0 0 0 0 0
Nghost:    19173 ave 19173 max 19173 min
Histogram: 1 0 0 0 0 0 0 0 0 0
Neighs:    1.65252e+06 ave 1.65252e+06 max 1.65252e+06 min
Histogram: 1 0 0 0 0 0 0 0 0 0

Total # of neighbors = 1652515
Ave neighs/atom = 84.0889
Neighbor list builds = 495
Dangerous builds not checked
Setting up Verlet run ...
  Unit style    : metal
  Current step  : 64495
  Time step     : 0.001
Per MPI rank memory allocation (min/avg/max) = 18.56 | 18.56 | 18.56 Mbytes
Step Temp Press TotEng PotEng Enthalpy 
   64495    1821.8619    1283.8508   -56978.727   -61606.422   -56764.943 
   66000    1800.7135    697.57991   -57144.345   -61718.322    -57028.43 
Loop time of 217.02 on 1 procs for 1505 steps with 19652 atoms

Performance: 0.599 ns/day, 40.055 hours/ns, 6.935 timesteps/s
99.9% CPU use with 1 MPI tasks x no OpenMP threads

MPI task timing breakdown:
Section |  min time  |  avg time  |  max time  |%varavg| %total
---------------------------------------------------------------
Pair    | 113.62     | 113.62     | 113.62     |   0.0 | 52.36
Neigh   | 99.738     | 99.738     | 99.738     |   0.0 | 45.96
Comm    | 1.354      | 1.354      | 1.354      |   0.0 |  0.62
Output  | 0.064082   | 0.064082   | 0.064082   |   0.0 |  0.03
Modify  | 1.7567     | 1.7567     | 1.7567     |   0.0 |  0.81
Other   |            | 0.4847     |            |       |  0.22

Nlocal:    19652 ave 19652 max 19652 min
Histogram: 1 0 0 0 0 0 0 0 0 0
Nghost:    19193 ave 19193 max 19193 min
Histogram: 1 0 0 0 0 0 0 0 0 0
Neighs:    1.65622e+06 ave 1.65622e+06 max 1.65622e+06 min
Histogram: 1 0 0 0 0 0 0 0 0 0

Total # of neighbors = 1656220
Ave neighs/atom = 84.2774
Neighbor list builds = 1505
Dangerous builds not checked
Setting up Verlet run ...
  Unit style    : metal
  Current step  : 66000
  Time step     : 0.001
Per MPI rank memory allocation (min/avg/max) = 18.56 | 18.56 | 18.56 Mbytes
Step Temp Press TotEng PotEng Enthalpy 
   66000    1800.7135    697.57991   -57144.345   -61718.322    -57028.43 
   66495    1768.8808    1588.4697   -57355.832    -61848.95   -57092.773 
Loop time of 68.5948 on 1 procs for 495 steps with 19652 atoms

Performance: 0.623 ns/day, 38.493 hours/ns, 7.216 timesteps/s
100.0% CPU use with 1 MPI tasks x no OpenMP threads

MPI task timing breakdown:
Section |  min time  |  avg time  |  max time  |%varavg| %total
---------------------------------------------------------------
Pair    | 35.911     | 35.911     | 35.911     |   0.0 | 52.35
Neigh   | 31.551     | 31.551     | 31.551     |   0.0 | 46.00
Comm    | 0.42369    | 0.42369    | 0.42369    |   0.0 |  0.62
Output  | 0.00016093 | 0.00016093 | 0.00016093 |   0.0 |  0.00
Modify  | 0.55576    | 0.55576    | 0.55576    |   0.0 |  0.81
Other   |            | 0.154      |            |       |  0.22

Nlocal:    19652 ave 19652 max 19652 min
Histogram: 1 0 0 0 0 0 0 0 0 0
Nghost:    19213 ave 19213 max 19213 min
Histogram: 1 0 0 0 0 0 0 0 0 0
Neighs:    1.66081e+06 ave 1.66081e+06 max 1.66081e+06 min
Histogram: 1 0 0 0 0 0 0 0 0 0

Total # of neighbors = 1660814
Ave neighs/atom = 84.5112
Neighbor list builds = 495
Dangerous builds not checked
Setting up Verlet run ...
  Unit style    : metal
  Current step  : 66495
  Time step     : 0.001
Per MPI rank memory allocation (min/avg/max) = 18.56 | 18.56 | 18.56 Mbytes
Step Temp Press TotEng PotEng Enthalpy 
   66495    1768.8808    1588.4697   -57355.832    -61848.95   -57092.773 
   68000    1733.4398   -2861.5344   -57469.607   -61872.702   -57944.858 
Loop time of 219.629 on 1 procs for 1505 steps with 19652 atoms

Performance: 0.592 ns/day, 40.537 hours/ns, 6.852 timesteps/s
99.6% CPU use with 1 MPI tasks x no OpenMP threads

MPI task timing breakdown:
Section |  min time  |  avg time  |  max time  |%varavg| %total
---------------------------------------------------------------
Pair    | 114.99     | 114.99     | 114.99     |   0.0 | 52.36
Neigh   | 100.92     | 100.92     | 100.92     |   0.0 | 45.95
Comm    | 1.378      | 1.378      | 1.378      |   0.0 |  0.63
Output  | 0.060668   | 0.060668   | 0.060668   |   0.0 |  0.03
Modify  | 1.792      | 1.792      | 1.792      |   0.0 |  0.82
Other   |            | 0.493      |            |       |  0.22

Nlocal:    19652 ave 19652 max 19652 min
Histogram: 1 0 0 0 0 0 0 0 0 0
Nghost:    19213 ave 19213 max 19213 min
Histogram: 1 0 0 0 0 0 0 0 0 0
Neighs:    1.65594e+06 ave 1.65594e+06 max 1.65594e+06 min
Histogram: 1 0 0 0 0 0 0 0 0 0

Total # of neighbors = 1655943
Ave neighs/atom = 84.2633
Neighbor list builds = 1505
Dangerous builds not checked
Setting up Verlet run ...
  Unit style    : metal
  Current step  : 68000
  Time step     : 0.001
Per MPI rank memory allocation (min/avg/max) = 18.56 | 18.56 | 18.56 Mbytes
Step Temp Press TotEng PotEng Enthalpy 
   68000    1733.4398   -2861.5344   -57469.607   -61872.702   -57944.858 
   68495    1711.8643   -372.05674   -57624.933   -61973.224    -57686.48 
Loop time of 67.2122 on 1 procs for 495 steps with 19652 atoms

Performance: 0.636 ns/day, 37.717 hours/ns, 7.365 timesteps/s
99.6% CPU use with 1 MPI tasks x no OpenMP threads

MPI task timing breakdown:
Section |  min time  |  avg time  |  max time  |%varavg| %total
---------------------------------------------------------------
Pair    | 35.07      | 35.07      | 35.07      |   0.0 | 52.18
Neigh   | 31.019     | 31.019     | 31.019     |   0.0 | 46.15
Comm    | 0.41598    | 0.41598    | 0.41598    |   0.0 |  0.62
Output  | 0.00013685 | 0.00013685 | 0.00013685 |   0.0 |  0.00
Modify  | 0.55536    | 0.55536    | 0.55536    |   0.0 |  0.83
Other   |            | 0.1515     |            |       |  0.23

Nlocal:    19652 ave 19652 max 19652 min
Histogram: 1 0 0 0 0 0 0 0 0 0
Nghost:    19202 ave 19202 max 19202 min
Histogram: 1 0 0 0 0 0 0 0 0 0
Neighs:    1.6625e+06 ave 1.6625e+06 max 1.6625e+06 min
Histogram: 1 0 0 0 0 0 0 0 0 0

Total # of neighbors = 1662498
Ave neighs/atom = 84.5969
Neighbor list builds = 495
Dangerous builds not checked
Setting up Verlet run ...
  Unit style    : metal
  Current step  : 68495
  Time step     : 0.001
Per MPI rank memory allocation (min/avg/max) = 18.56 | 18.56 | 18.56 Mbytes
Step Temp Press TotEng PotEng Enthalpy 
   68495    1711.8643   -372.05674   -57624.933   -61973.224    -57686.48 
   70000     1696.495   -273.50577   -57787.475   -62096.727   -57832.606 
Loop time of 213.089 on 1 procs for 1505 steps with 19652 atoms

Performance: 0.610 ns/day, 39.330 hours/ns, 7.063 timesteps/s
98.9% CPU use with 1 MPI tasks x no OpenMP threads

MPI task timing breakdown:
Section |  min time  |  avg time  |  max time  |%varavg| %total
---------------------------------------------------------------
Pair    | 111.31     | 111.31     | 111.31     |   0.0 | 52.24
Neigh   | 98.198     | 98.198     | 98.198     |   0.0 | 46.08
Comm    | 1.3187     | 1.3187     | 1.3187     |   0.0 |  0.62
Output  | 0.062566   | 0.062566   | 0.062566   |   0.0 |  0.03
Modify  | 1.7221     | 1.7221     | 1.7221     |   0.0 |  0.81
Other   |            | 0.4766     |            |       |  0.22

Nlocal:    19652 ave 19652 max 19652 min
Histogram: 1 0 0 0 0 0 0 0 0 0
Nghost:    19268 ave 19268 max 19268 min
Histogram: 1 0 0 0 0 0 0 0 0 0
Neighs:    1.66649e+06 ave 1.66649e+06 max 1.66649e+06 min
Histogram: 1 0 0 0 0 0 0 0 0 0

Total # of neighbors = 1666492
Ave neighs/atom = 84.8001
Neighbor list builds = 1505
Dangerous builds not checked
Setting up Verlet run ...
  Unit style    : metal
  Current step  : 70000
  Time step     : 0.001
Per MPI rank memory allocation (min/avg/max) = 18.56 | 18.56 | 18.56 Mbytes
Step Temp Press TotEng PotEng Enthalpy 
   70000     1696.495   -273.50577   -57787.475   -62096.727   -57832.606 
   70495    1657.4606     1329.849   -58011.829    -62221.93   -57793.255 
Loop time of 67.6562 on 1 procs for 495 steps with 19652 atoms

Performance: 0.632 ns/day, 37.966 hours/ns, 7.316 timesteps/s
100.0% CPU use with 1 MPI tasks x no OpenMP threads

MPI task timing breakdown:
Section |  min time  |  avg time  |  max time  |%varavg| %total
---------------------------------------------------------------
Pair    | 35.434     | 35.434     | 35.434     |   0.0 | 52.37
Neigh   | 31.102     | 31.102     | 31.102     |   0.0 | 45.97
Comm    | 0.41446    | 0.41446    | 0.41446    |   0.0 |  0.61
Output  | 0.0001781  | 0.0001781  | 0.0001781  |   0.0 |  0.00
Modify  | 0.55319    | 0.55319    | 0.55319    |   0.0 |  0.82
Other   |            | 0.1519     |            |       |  0.22

Nlocal:    19652 ave 19652 max 19652 min
Histogram: 1 0 0 0 0 0 0 0 0 0
Nghost:    19243 ave 19243 max 19243 min
Histogram: 1 0 0 0 0 0 0 0 0 0
Neighs:    1.67252e+06 ave 1.67252e+06 max 1.67252e+06 min
Histogram: 1 0 0 0 0 0 0 0 0 0

Total # of neighbors = 1672523
Ave neighs/atom = 85.107
Neighbor list builds = 495
Dangerous builds not checked
Setting up Verlet run ...
  Unit style    : metal
  Current step  : 70495
  Time step     : 0.001
Per MPI rank memory allocation (min/avg/max) = 18.56 | 18.56 | 18.56 Mbytes
Step Temp Press TotEng PotEng Enthalpy 
   70495    1657.4606     1329.849   -58011.829    -62221.93   -57793.255 
   72000    1647.4251    195.85544   -58094.185   -62278.795   -58061.988 
Loop time of 212.47 on 1 procs for 1505 steps with 19652 atoms

Performance: 0.612 ns/day, 39.216 hours/ns, 7.083 timesteps/s
100.0% CPU use with 1 MPI tasks x no OpenMP threads

MPI task timing breakdown:
Section |  min time  |  avg time  |  max time  |%varavg| %total
---------------------------------------------------------------
Pair    | 111.31     | 111.31     | 111.31     |   0.0 | 52.39
Neigh   | 97.569     | 97.569     | 97.569     |   0.0 | 45.92
Comm    | 1.3197     | 1.3197     | 1.3197     |   0.0 |  0.62
Output  | 0.075188   | 0.075188   | 0.075188   |   0.0 |  0.04
Modify  | 1.7217     | 1.7217     | 1.7217     |   0.0 |  0.81
Other   |            | 0.4748     |            |       |  0.22

Nlocal:    19652 ave 19652 max 19652 min
Histogram: 1 0 0 0 0 0 0 0 0 0
Nghost:    19255 ave 19255 max 19255 min
Histogram: 1 0 0 0 0 0 0 0 0 0
Neighs:    1.67161e+06 ave 1.67161e+06 max 1.67161e+06 min
Histogram: 1 0 0 0 0 0 0 0 0 0

Total # of neighbors = 1671614
Ave neighs/atom = 85.0608
Neighbor list builds = 1505
Dangerous builds not checked
Setting up Verlet run ...
  Unit style    : metal
  Current step  : 72000
  Time step     : 0.001
Per MPI rank memory allocation (min/avg/max) = 18.56 | 18.56 | 18.56 Mbytes
Step Temp Press TotEng PotEng Enthalpy 
   72000    1647.4251    195.85544   -58094.185   -62278.795   -58061.988 
   72495    1618.7635   -433.83652   -58321.513   -62433.319   -58392.638 
Loop time of 65.6351 on 1 procs for 495 steps with 19652 atoms

Performance: 0.652 ns/day, 36.832 hours/ns, 7.542 timesteps/s
99.9% CPU use with 1 MPI tasks x no OpenMP threads

MPI task timing breakdown:
Section |  min time  |  avg time  |  max time  |%varavg| %total
---------------------------------------------------------------
Pair    | 34.377     | 34.377     | 34.377     |   0.0 | 52.38
Neigh   | 30.191     | 30.191     | 30.191     |   0.0 | 46.00
Comm    | 0.39881    | 0.39881    | 0.39881    |   0.0 |  0.61
Output  | 0.00011206 | 0.00011206 | 0.00011206 |   0.0 |  0.00
Modify  | 0.52457    | 0.52457    | 0.52457    |   0.0 |  0.80
Other   |            | 0.1432     |            |       |  0.22

Nlocal:    19652 ave 19652 max 19652 min
Histogram: 1 0 0 0 0 0 0 0 0 0
Nghost:    19315 ave 19315 max 19315 min
Histogram: 1 0 0 0 0 0 0 0 0 0
Neighs:    1.67592e+06 ave 1.67592e+06 max 1.67592e+06 min
Histogram: 1 0 0 0 0 0 0 0 0 0

Total # of neighbors = 1675917
Ave neighs/atom = 85.2797
Neighbor list builds = 495
Dangerous builds not checked
Setting up Verlet run ...
  Unit style    : metal
  Current step  : 72495
  Time step     : 0.001
Per MPI rank memory allocation (min/avg/max) = 18.56 | 18.56 | 18.56 Mbytes
Step Temp Press TotEng PotEng Enthalpy 
   72495    1618.7635   -433.83652   -58321.513   -62433.319   -58392.638 
   74000    1617.1617    2463.2939   -58370.409   -62478.147   -57967.988 
Loop time of 190.465 on 1 procs for 1505 steps with 19652 atoms

Performance: 0.683 ns/day, 35.154 hours/ns, 7.902 timesteps/s
100.0% CPU use with 1 MPI tasks x no OpenMP threads

MPI task timing breakdown:
Section |  min time  |  avg time  |  max time  |%varavg| %total
---------------------------------------------------------------
Pair    | 99.316     | 99.316     | 99.316     |   0.0 | 52.14
Neigh   | 87.997     | 87.997     | 87.997     |   0.0 | 46.20
Comm    | 1.1724     | 1.1724     | 1.1724     |   0.0 |  0.62
Output  | 0.054688   | 0.054688   | 0.054688   |   0.0 |  0.03
Modify  | 1.5072     | 1.5072     | 1.5072     |   0.0 |  0.79
Other   |            | 0.4177     |            |       |  0.22

Nlocal:    19652 ave 19652 max 19652 min
Histogram: 1 0 0 0 0 0 0 0 0 0
Nghost:    19348 ave 19348 max 19348 min
Histogram: 1 0 0 0 0 0 0 0 0 0
Neighs:    1.68216e+06 ave 1.68216e+06 max 1.68216e+06 min
Histogram: 1 0 0 0 0 0 0 0 0 0

Total # of neighbors = 1682158
Ave neighs/atom = 85.5973
Neighbor list builds = 1505
Dangerous builds not checked
Setting up Verlet run ...
  Unit style    : metal
  Current step  : 74000
  Time step     : 0.001
Per MPI rank memory allocation (min/avg/max) = 18.56 | 18.56 | 18.56 Mbytes
Step Temp Press TotEng PotEng Enthalpy 
   74000    1617.1617    2463.2939   -58370.409   -62478.147   -57967.988 
   74495    1577.7906   -58.584123    -58614.31   -62622.042   -58623.872 
Loop time of 68.1248 on 1 procs for 495 steps with 19652 atoms

Performance: 0.628 ns/day, 38.229 hours/ns, 7.266 timesteps/s
100.0% CPU use with 1 MPI tasks x no OpenMP threads

MPI task timing breakdown:
Section |  min time  |  avg time  |  max time  |%varavg| %total
---------------------------------------------------------------
Pair    | 35.922     | 35.922     | 35.922     |   0.0 | 52.73
Neigh   | 31.082     | 31.082     | 31.082     |   0.0 | 45.63
Comm    | 0.42299    | 0.42299    | 0.42299    |   0.0 |  0.62
Output  | 0.00012589 | 0.00012589 | 0.00012589 |   0.0 |  0.00
Modify  | 0.5472     | 0.5472     | 0.5472     |   0.0 |  0.80
Other   |            | 0.1499     |            |       |  0.22

Nlocal:    19652 ave 19652 max 19652 min
Histogram: 1 0 0 0 0 0 0 0 0 0
Nghost:    19328 ave 19328 max 19328 min
Histogram: 1 0 0 0 0 0 0 0 0 0
Neighs:    1.68284e+06 ave 1.68284e+06 max 1.68284e+06 min
Histogram: 1 0 0 0 0 0 0 0 0 0

Total # of neighbors = 1682842
Ave neighs/atom = 85.6321
Neighbor list builds = 495
Dangerous builds not checked
Setting up Verlet run ...
  Unit style    : metal
  Current step  : 74495
  Time step     : 0.001
Per MPI rank memory allocation (min/avg/max) = 18.56 | 18.56 | 18.56 Mbytes
Step Temp Press TotEng PotEng Enthalpy 
   74495    1577.7906   -58.584123    -58614.31   -62622.042   -58623.872 
   76000    1537.5149   -1166.8547   -58770.826   -62676.254   -58961.197 
Loop time of 228.984 on 1 procs for 1505 steps with 19652 atoms

Performance: 0.568 ns/day, 42.264 hours/ns, 6.573 timesteps/s
99.8% CPU use with 1 MPI tasks x no OpenMP threads

MPI task timing breakdown:
Section |  min time  |  avg time  |  max time  |%varavg| %total
---------------------------------------------------------------
Pair    | 121.36     | 121.36     | 121.36     |   0.0 | 53.00
Neigh   | 103.73     | 103.73     | 103.73     |   0.0 | 45.30
Comm    | 1.4455     | 1.4455     | 1.4455     |   0.0 |  0.63
Output  | 0.08641    | 0.08641    | 0.08641    |   0.0 |  0.04
Modify  | 1.8594     | 1.8594     | 1.8594     |   0.0 |  0.81
Other   |            | 0.4988     |            |       |  0.22

Nlocal:    19652 ave 19652 max 19652 min
Histogram: 1 0 0 0 0 0 0 0 0 0
Nghost:    19264 ave 19264 max 19264 min
Histogram: 1 0 0 0 0 0 0 0 0 0
Neighs:    1.68305e+06 ave 1.68305e+06 max 1.68305e+06 min
Histogram: 1 0 0 0 0 0 0 0 0 0

Total # of neighbors = 1683051
Ave neighs/atom = 85.6427
Neighbor list builds = 1505
Dangerous builds not checked
Setting up Verlet run ...
  Unit style    : metal
  Current step  : 76000
  Time step     : 0.001
Per MPI rank memory allocation (min/avg/max) = 18.56 | 18.56 | 18.56 Mbytes
Step Temp Press TotEng PotEng Enthalpy 
   76000    1537.5149   -1166.8547   -58770.826   -62676.254   -58961.197 
   76495    1514.0745   -656.62262   -58968.284   -62814.171    -59075.12 
Loop time of 73.424 on 1 procs for 495 steps with 19652 atoms

Performance: 0.582 ns/day, 41.203 hours/ns, 6.742 timesteps/s
99.8% CPU use with 1 MPI tasks x no OpenMP threads

MPI task timing breakdown:
Section |  min time  |  avg time  |  max time  |%varavg| %total
---------------------------------------------------------------
Pair    | 38.796     | 38.796     | 38.796     |   0.0 | 52.84
Neigh   | 33.399     | 33.399     | 33.399     |   0.0 | 45.49
Comm    | 0.46276    | 0.46276    | 0.46276    |   0.0 |  0.63
Output  | 0.00013185 | 0.00013185 | 0.00013185 |   0.0 |  0.00
Modify  | 0.60184    | 0.60184    | 0.60184    |   0.0 |  0.82
Other   |            | 0.1643     |            |       |  0.22

Nlocal:    19652 ave 19652 max 19652 min
Histogram: 1 0 0 0 0 0 0 0 0 0
Nghost:    19357 ave 19357 max 19357 min
Histogram: 1 0 0 0 0 0 0 0 0 0
Neighs:    1.68689e+06 ave 1.68689e+06 max 1.68689e+06 min
Histogram: 1 0 0 0 0 0 0 0 0 0

Total # of neighbors = 1686890
Ave neighs/atom = 85.8381
Neighbor list builds = 495
Dangerous builds not checked
Setting up Verlet run ...
  Unit style    : metal
  Current step  : 76495
  Time step     : 0.001
Per MPI rank memory allocation (min/avg/max) = 18.56 | 18.56 | 18.56 Mbytes
Step Temp Press TotEng PotEng Enthalpy 
   76495    1514.0745   -656.62262   -58968.284   -62814.171    -59075.12 
   78000    1523.6932    1697.7752   -58998.666   -62868.986   -58723.319 
Loop time of 210.913 on 1 procs for 1505 steps with 19652 atoms

Performance: 0.617 ns/day, 38.928 hours/ns, 7.136 timesteps/s
99.6% CPU use with 1 MPI tasks x no OpenMP threads

MPI task timing breakdown:
Section |  min time  |  avg time  |  max time  |%varavg| %total
---------------------------------------------------------------
Pair    | 111.41     | 111.41     | 111.41     |   0.0 | 52.82
Neigh   | 95.988     | 95.988     | 95.988     |   0.0 | 45.51
Comm    | 1.3148     | 1.3148     | 1.3148     |   0.0 |  0.62
Output  | 0.063017   | 0.063017   | 0.063017   |   0.0 |  0.03
Modify  | 1.6766     | 1.6766     | 1.6766     |   0.0 |  0.79
Other   |            | 0.4575     |            |       |  0.22

Nlocal:    19652 ave 19652 max 19652 min
Histogram: 1 0 0 0 0 0 0 0 0 0
Nghost:    19380 ave 19380 max 19380 min
Histogram: 1 0 0 0 0 0 0 0 0 0
Neighs:    1.69257e+06 ave 1.69257e+06 max 1.69257e+06 min
Histogram: 1 0 0 0 0 0 0 0 0 0

Total # of neighbors = 1692570
Ave neighs/atom = 86.1271
Neighbor list builds = 1505
Dangerous builds not checked
Setting up Verlet run ...
  Unit style    : metal
  Current step  : 78000
  Time step     : 0.001
Per MPI rank memory allocation (min/avg/max) = 18.56 | 18.56 | 18.56 Mbytes
Step Temp Press TotEng PotEng Enthalpy 
   78000    1523.6932    1697.7752   -58998.666   -62868.986   -58723.319 
   78495    1467.9179   -216.63841   -59308.276   -63036.921    -59343.34 
Loop time of 75.0433 on 1 procs for 495 steps with 19652 atoms

Performance: 0.570 ns/day, 42.112 hours/ns, 6.596 timesteps/s
100.0% CPU use with 1 MPI tasks x no OpenMP threads

MPI task timing breakdown:
Section |  min time  |  avg time  |  max time  |%varavg| %total
---------------------------------------------------------------
Pair    | 39.876     | 39.876     | 39.876     |   0.0 | 53.14
Neigh   | 33.909     | 33.909     | 33.909     |   0.0 | 45.19
Comm    | 0.47195    | 0.47195    | 0.47195    |   0.0 |  0.63
Output  | 0.00017309 | 0.00017309 | 0.00017309 |   0.0 |  0.00
Modify  | 0.62148    | 0.62148    | 0.62148    |   0.0 |  0.83
Other   |            | 0.165      |            |       |  0.22

Nlocal:    19652 ave 19652 max 19652 min
Histogram: 1 0 0 0 0 0 0 0 0 0
Nghost:    19420 ave 19420 max 19420 min
Histogram: 1 0 0 0 0 0 0 0 0 0
Neighs:    1.69531e+06 ave 1.69531e+06 max 1.69531e+06 min
Histogram: 1 0 0 0 0 0 0 0 0 0

Total # of neighbors = 1695313
Ave neighs/atom = 86.2667
Neighbor list builds = 495
Dangerous builds not checked
Setting up Verlet run ...
  Unit style    : metal
  Current step  : 78495
  Time step     : 0.001
Per MPI rank memory allocation (min/avg/max) = 18.56 | 18.56 | 18.56 Mbytes
Step Temp Press TotEng PotEng Enthalpy 
   78495    1467.9179   -216.63841   -59308.276   -63036.921    -59343.34 
   80000     1447.892   -521.46506   -59439.099   -63116.877   -59523.401 
Loop time of 215.917 on 1 procs for 1505 steps with 19652 atoms

Performance: 0.602 ns/day, 39.852 hours/ns, 6.970 timesteps/s
99.9% CPU use with 1 MPI tasks x no OpenMP threads

MPI task timing breakdown:
Section |  min time  |  avg time  |  max time  |%varavg| %total
---------------------------------------------------------------
Pair    | 114.62     | 114.62     | 114.62     |   0.0 | 53.09
Neigh   | 97.683     | 97.683     | 97.683     |   0.0 | 45.24
Comm    | 1.3573     | 1.3573     | 1.3573     |   0.0 |  0.63
Output  | 0.056622   | 0.056622   | 0.056622   |   0.0 |  0.03
Modify  | 1.7284     | 1.7284     | 1.7284     |   0.0 |  0.80
Other   |            | 0.4705     |            |       |  0.22

Nlocal:    19652 ave 19652 max 19652 min
Histogram: 1 0 0 0 0 0 0 0 0 0
Nghost:    19400 ave 19400 max 19400 min
Histogram: 1 0 0 0 0 0 0 0 0 0
Neighs:    1.69704e+06 ave 1.69704e+06 max 1.69704e+06 min
Histogram: 1 0 0 0 0 0 0 0 0 0

Total # of neighbors = 1697041
Ave neighs/atom = 86.3546
Neighbor list builds = 1505
Dangerous builds not checked
Setting up Verlet run ...
  Unit style    : metal
  Current step  : 80000
  Time step     : 0.001
Per MPI rank memory allocation (min/avg/max) = 18.56 | 18.56 | 18.56 Mbytes
Step Temp Press TotEng PotEng Enthalpy 
   80000     1447.892   -521.46506   -59439.099   -63116.877   -59523.401 
   80495    1409.9755    1158.7444   -59635.425   -63216.891   -59448.709 
Loop time of 72.5153 on 1 procs for 495 steps with 19652 atoms

Performance: 0.590 ns/day, 40.693 hours/ns, 6.826 timesteps/s
99.4% CPU use with 1 MPI tasks x no OpenMP threads

MPI task timing breakdown:
Section |  min time  |  avg time  |  max time  |%varavg| %total
---------------------------------------------------------------
Pair    | 38.547     | 38.547     | 38.547     |   0.0 | 53.16
Neigh   | 32.756     | 32.756     | 32.756     |   0.0 | 45.17
Comm    | 0.45637    | 0.45637    | 0.45637    |   0.0 |  0.63
Output  | 0.0001049  | 0.0001049  | 0.0001049  |   0.0 |  0.00
Modify  | 0.58649    | 0.58649    | 0.58649    |   0.0 |  0.81
Other   |            | 0.1692     |            |       |  0.23

Nlocal:    19652 ave 19652 max 19652 min
Histogram: 1 0 0 0 0 0 0 0 0 0
Nghost:    19438 ave 19438 max 19438 min
Histogram: 1 0 0 0 0 0 0 0 0 0
Neighs:    1.7016e+06 ave 1.7016e+06 max 1.7016e+06 min
Histogram: 1 0 0 0 0 0 0 0 0 0

Total # of neighbors = 1701601
Ave neighs/atom = 86.5867
Neighbor list builds = 495
Dangerous builds not checked
Setting up Verlet run ...
  Unit style    : metal
  Current step  : 80495
  Time step     : 0.001
Per MPI rank memory allocation (min/avg/max) = 18.56 | 18.56 | 18.56 Mbytes
Step Temp Press TotEng PotEng Enthalpy 
   80495    1409.9755    1158.7444   -59635.425   -63216.891   -59448.709 
   82000    1404.8961    1368.3785   -59803.606   -63372.171   -59583.813 
Loop time of 207.243 on 1 procs for 1505 steps with 19652 atoms

Performance: 0.627 ns/day, 38.251 hours/ns, 7.262 timesteps/s
99.9% CPU use with 1 MPI tasks x no OpenMP threads

MPI task timing breakdown:
Section |  min time  |  avg time  |  max time  |%varavg| %total
---------------------------------------------------------------
Pair    | 109.55     | 109.55     | 109.55     |   0.0 | 52.86
Neigh   | 94.069     | 94.069     | 94.069     |   0.0 | 45.39
Comm    | 1.3021     | 1.3021     | 1.3021     |   0.0 |  0.63
Output  | 0.21714    | 0.21714    | 0.21714    |   0.0 |  0.10
Modify  | 1.6505     | 1.6505     | 1.6505     |   0.0 |  0.80
Other   |            | 0.4501     |            |       |  0.22

Nlocal:    19652 ave 19652 max 19652 min
Histogram: 1 0 0 0 0 0 0 0 0 0
Nghost:    19435 ave 19435 max 19435 min
Histogram: 1 0 0 0 0 0 0 0 0 0
Neighs:    1.70679e+06 ave 1.70679e+06 max 1.70679e+06 min
Histogram: 1 0 0 0 0 0 0 0 0 0

Total # of neighbors = 1706793
Ave neighs/atom = 86.8509
Neighbor list builds = 1505
Dangerous builds not checked
Setting up Verlet run ...
  Unit style    : metal
  Current step  : 82000
  Time step     : 0.001
Per MPI rank memory allocation (min/avg/max) = 18.56 | 18.56 | 18.56 Mbytes
Step Temp Press TotEng PotEng Enthalpy 
   82000    1404.8961    1368.3785   -59803.606   -63372.171   -59583.813 
   82495    1368.9152   -78.603006    -59992.34   -63469.509   -60004.951 
Loop time of 74.4133 on 1 procs for 495 steps with 19652 atoms

Performance: 0.575 ns/day, 41.758 hours/ns, 6.652 timesteps/s
99.4% CPU use with 1 MPI tasks x no OpenMP threads

MPI task timing breakdown:
Section |  min time  |  avg time  |  max time  |%varavg| %total
---------------------------------------------------------------
Pair    | 39.583     | 39.583     | 39.583     |   0.0 | 53.19
Neigh   | 33.599     | 33.599     | 33.599     |   0.0 | 45.15
Comm    | 0.46235    | 0.46235    | 0.46235    |   0.0 |  0.62
Output  | 0.00015998 | 0.00015998 | 0.00015998 |   0.0 |  0.00
Modify  | 0.59961    | 0.59961    | 0.59961    |   0.0 |  0.81
Other   |            | 0.1688     |            |       |  0.23

Nlocal:    19652 ave 19652 max 19652 min
Histogram: 1 0 0 0 0 0 0 0 0 0
Nghost:    19479 ave 19479 max 19479 min
Histogram: 1 0 0 0 0 0 0 0 0 0
Neighs:    1.70867e+06 ave 1.70867e+06 max 1.70867e+06 min
Histogram: 1 0 0 0 0 0 0 0 0 0

Total # of neighbors = 1708672
Ave neighs/atom = 86.9465
Neighbor list builds = 495
Dangerous builds not checked
Setting up Verlet run ...
  Unit style    : metal
  Current step  : 82495
  Time step     : 0.001
Per MPI rank memory allocation (min/avg/max) = 18.56 | 18.56 | 18.56 Mbytes
Step Temp Press TotEng PotEng Enthalpy 
   82495    1368.9152   -78.603006    -59992.34   -63469.509   -60004.951 
   84000     1334.545   -1383.7408   -60133.318   -63523.184   -60355.286 
Loop time of 230.857 on 1 procs for 1505 steps with 19652 atoms

Performance: 0.563 ns/day, 42.609 hours/ns, 6.519 timesteps/s
99.9% CPU use with 1 MPI tasks x no OpenMP threads

MPI task timing breakdown:
Section |  min time  |  avg time  |  max time  |%varavg| %total
---------------------------------------------------------------
Pair    | 123.73     | 123.73     | 123.73     |   0.0 | 53.60
Neigh   | 103.24     | 103.24     | 103.24     |   0.0 | 44.72
Comm    | 1.4567     | 1.4567     | 1.4567     |   0.0 |  0.63
Output  | 0.086623   | 0.086623   | 0.086623   |   0.0 |  0.04
Modify  | 1.8447     | 1.8447     | 1.8447     |   0.0 |  0.80
Other   |            | 0.5037     |            |       |  0.22

Nlocal:    19652 ave 19652 max 19652 min
Histogram: 1 0 0 0 0 0 0 0 0 0
Nghost:    19358 ave 19358 max 19358 min
Histogram: 1 0 0 0 0 0 0 0 0 0
Neighs:    1.7084e+06 ave 1.7084e+06 max 1.7084e+06 min
Histogram: 1 0 0 0 0 0 0 0 0 0

Total # of neighbors = 1708402
Ave neighs/atom = 86.9327
Neighbor list builds = 1505
Dangerous builds not checked
Setting up Verlet run ...
  Unit style    : metal
  Current step  : 84000
  Time step     : 0.001
Per MPI rank memory allocation (min/avg/max) = 18.56 | 18.56 | 18.56 Mbytes
Step Temp Press TotEng PotEng Enthalpy 
   84000     1334.545   -1383.7408   -60133.318   -63523.184   -60355.286 
   84495    1321.3078    -244.4267   -60324.249   -63680.491   -60363.307 
Loop time of 73.9681 on 1 procs for 495 steps with 19652 atoms

Performance: 0.578 ns/day, 41.508 hours/ns, 6.692 timesteps/s
99.8% CPU use with 1 MPI tasks x no OpenMP threads

MPI task timing breakdown:
Section |  min time  |  avg time  |  max time  |%varavg| %total
---------------------------------------------------------------
Pair    | 39.599     | 39.599     | 39.599     |   0.0 | 53.54
Neigh   | 33.147     | 33.147     | 33.147     |   0.0 | 44.81
Comm    | 0.46584    | 0.46584    | 0.46584    |   0.0 |  0.63
Output  | 0.00016212 | 0.00016212 | 0.00016212 |   0.0 |  0.00
Modify  | 0.59351    | 0.59351    | 0.59351    |   0.0 |  0.80
Other   |            | 0.1625     |            |       |  0.22

Nlocal:    19652 ave 19652 max 19652 min
Histogram: 1 0 0 0 0 0 0 0 0 0
Nghost:    19470 ave 19470 max 19470 min
Histogram: 1 0 0 0 0 0 0 0 0 0
Neighs:    1.71427e+06 ave 1.71427e+06 max 1.71427e+06 min
Histogram: 1 0 0 0 0 0 0 0 0 0

Total # of neighbors = 1714274
Ave neighs/atom = 87.2315
Neighbor list builds = 495
Dangerous builds not checked
Setting up Verlet run ...
  Unit style    : metal
  Current step  : 84495
  Time step     : 0.001
Per MPI rank memory allocation (min/avg/max) = 18.56 | 18.56 | 18.56 Mbytes
Step Temp Press TotEng PotEng Enthalpy 
   84495    1321.3078    -244.4267   -60324.249   -63680.491   -60363.307 
   86000    1295.5642    592.42226    -60459.18   -63750.031   -60364.711 
Loop time of 216.56 on 1 procs for 1505 steps with 19652 atoms

Performance: 0.600 ns/day, 39.970 hours/ns, 6.950 timesteps/s
99.6% CPU use with 1 MPI tasks x no OpenMP threads

MPI task timing breakdown:
Section |  min time  |  avg time  |  max time  |%varavg| %total
---------------------------------------------------------------
Pair    | 114.91     | 114.91     | 114.91     |   0.0 | 53.06
Neigh   | 97.915     | 97.915     | 97.915     |   0.0 | 45.21
Comm    | 1.3458     | 1.3458     | 1.3458     |   0.0 |  0.62
Output  | 0.16831    | 0.16831    | 0.16831    |   0.0 |  0.08
Modify  | 1.7462     | 1.7462     | 1.7462     |   0.0 |  0.81
Other   |            | 0.4743     |            |       |  0.22

Nlocal:    19652 ave 19652 max 19652 min
Histogram: 1 0 0 0 0 0 0 0 0 0
Nghost:    19560 ave 19560 max 19560 min
Histogram: 1 0 0 0 0 0 0 0 0 0
Neighs:    1.71744e+06 ave 1.71744e+06 max 1.71744e+06 min
Histogram: 1 0 0 0 0 0 0 0 0 0

Total # of neighbors = 1717444
Ave neighs/atom = 87.3928
Neighbor list builds = 1505
Dangerous builds not checked
Setting up Verlet run ...
  Unit style    : metal
  Current step  : 86000
  Time step     : 0.001
Per MPI rank memory allocation (min/avg/max) = 18.56 | 18.56 | 18.56 Mbytes
Step Temp Press TotEng PotEng Enthalpy 
   86000    1295.5642    592.42226    -60459.18   -63750.031   -60364.711 
   86495    1257.0959   -200.98815   -60666.108   -63859.246   -60698.106 
Loop time of 70.1785 on 1 procs for 495 steps with 19652 atoms

Performance: 0.609 ns/day, 39.382 hours/ns, 7.053 timesteps/s
99.9% CPU use with 1 MPI tasks x no OpenMP threads

MPI task timing breakdown:
Section |  min time  |  avg time  |  max time  |%varavg| %total
---------------------------------------------------------------
Pair    | 37.212     | 37.212     | 37.212     |   0.0 | 53.03
Neigh   | 31.811     | 31.811     | 31.811     |   0.0 | 45.33
Comm    | 0.43092    | 0.43092    | 0.43092    |   0.0 |  0.61
Output  | 0.00012398 | 0.00012398 | 0.00012398 |   0.0 |  0.00
Modify  | 0.56911    | 0.56911    | 0.56911    |   0.0 |  0.81
Other   |            | 0.155      |            |       |  0.22

Nlocal:    19652 ave 19652 max 19652 min
Histogram: 1 0 0 0 0 0 0 0 0 0
Nghost:    19514 ave 19514 max 19514 min
Histogram: 1 0 0 0 0 0 0 0 0 0
Neighs:    1.71994e+06 ave 1.71994e+06 max 1.71994e+06 min
Histogram: 1 0 0 0 0 0 0 0 0 0

Total # of neighbors = 1719941
Ave neighs/atom = 87.5199
Neighbor list builds = 495
Dangerous builds not checked
Setting up Verlet run ...
  Unit style    : metal
  Current step  : 86495
  Time step     : 0.001
Per MPI rank memory allocation (min/avg/max) = 18.56 | 18.56 | 18.56 Mbytes
Step Temp Press TotEng PotEng Enthalpy 
   86495    1257.0959   -200.98815   -60666.108   -63859.246   -60698.106 
   88000    1241.7873    -48.70076   -60833.421   -63987.674   -60841.155 
Loop time of 218.141 on 1 procs for 1505 steps with 19652 atoms

Performance: 0.596 ns/day, 40.262 hours/ns, 6.899 timesteps/s
99.6% CPU use with 1 MPI tasks x no OpenMP threads

MPI task timing breakdown:
Section |  min time  |  avg time  |  max time  |%varavg| %total
---------------------------------------------------------------
Pair    | 115.3      | 115.3      | 115.3      |   0.0 | 52.86
Neigh   | 99.039     | 99.039     | 99.039     |   0.0 | 45.40
Comm    | 1.3417     | 1.3417     | 1.3417     |   0.0 |  0.62
Output  | 0.20269    | 0.20269    | 0.20269    |   0.0 |  0.09
Modify  | 1.7731     | 1.7731     | 1.7731     |   0.0 |  0.81
Other   |            | 0.4792     |            |       |  0.22

Nlocal:    19652 ave 19652 max 19652 min
Histogram: 1 0 0 0 0 0 0 0 0 0
Nghost:    19543 ave 19543 max 19543 min
Histogram: 1 0 0 0 0 0 0 0 0 0
Neighs:    1.7234e+06 ave 1.7234e+06 max 1.7234e+06 min
Histogram: 1 0 0 0 0 0 0 0 0 0

Total # of neighbors = 1723399
Ave neighs/atom = 87.6959
Neighbor list builds = 1505
Dangerous builds not checked
Setting up Verlet run ...
  Unit style    : metal
  Current step  : 88000
  Time step     : 0.001
Per MPI rank memory allocation (min/avg/max) = 18.56 | 18.56 | 18.56 Mbytes
Step Temp Press TotEng PotEng Enthalpy 
   88000    1241.7873    -48.70076   -60833.421   -63987.674   -60841.155 
   88495    1220.7166    281.40859   -61022.678    -64123.41   -60978.112 
Loop time of 72.6182 on 1 procs for 495 steps with 19652 atoms

Performance: 0.589 ns/day, 40.751 hours/ns, 6.816 timesteps/s
99.7% CPU use with 1 MPI tasks x no OpenMP threads

MPI task timing breakdown:
Section |  min time  |  avg time  |  max time  |%varavg| %total
---------------------------------------------------------------
Pair    | 38.582     | 38.582     | 38.582     |   0.0 | 53.13
Neigh   | 32.826     | 32.826     | 32.826     |   0.0 | 45.20
Comm    | 0.45135    | 0.45135    | 0.45135    |   0.0 |  0.62
Output  | 0.00013208 | 0.00013208 | 0.00013208 |   0.0 |  0.00
Modify  | 0.59672    | 0.59672    | 0.59672    |   0.0 |  0.82
Other   |            | 0.1625     |            |       |  0.22

Nlocal:    19652 ave 19652 max 19652 min
Histogram: 1 0 0 0 0 0 0 0 0 0
Nghost:    19543 ave 19543 max 19543 min
Histogram: 1 0 0 0 0 0 0 0 0 0
Neighs:    1.72785e+06 ave 1.72785e+06 max 1.72785e+06 min
Histogram: 1 0 0 0 0 0 0 0 0 0

Total # of neighbors = 1727848
Ave neighs/atom = 87.9222
Neighbor list builds = 495
Dangerous builds not checked
Setting up Verlet run ...
  Unit style    : metal
  Current step  : 88495
  Time step     : 0.001
Per MPI rank memory allocation (min/avg/max) = 18.56 | 18.56 | 18.56 Mbytes
Step Temp Press TotEng PotEng Enthalpy 
   88495    1220.7166    281.40859   -61022.678    -64123.41   -60978.112 
   90000    1204.4676   -1292.1031   -61145.271   -64204.728   -61349.775 
Loop time of 219.92 on 1 procs for 1505 steps with 19652 atoms

Performance: 0.591 ns/day, 40.591 hours/ns, 6.843 timesteps/s
99.8% CPU use with 1 MPI tasks x no OpenMP threads

MPI task timing breakdown:
Section |  min time  |  avg time  |  max time  |%varavg| %total
---------------------------------------------------------------
Pair    | 116.46     | 116.46     | 116.46     |   0.0 | 52.95
Neigh   | 99.769     | 99.769     | 99.769     |   0.0 | 45.37
Comm    | 1.3353     | 1.3353     | 1.3353     |   0.0 |  0.61
Output  | 0.10379    | 0.10379    | 0.10379    |   0.0 |  0.05
Modify  | 1.7783     | 1.7783     | 1.7783     |   0.0 |  0.81
Other   |            | 0.4779     |            |       |  0.22

Nlocal:    19652 ave 19652 max 19652 min
Histogram: 1 0 0 0 0 0 0 0 0 0
Nghost:    19611 ave 19611 max 19611 min
Histogram: 1 0 0 0 0 0 0 0 0 0
Neighs:    1.72812e+06 ave 1.72812e+06 max 1.72812e+06 min
Histogram: 1 0 0 0 0 0 0 0 0 0

Total # of neighbors = 1728121
Ave neighs/atom = 87.9361
Neighbor list builds = 1505
Dangerous builds not checked
Setting up Verlet run ...
  Unit style    : metal
  Current step  : 90000
  Time step     : 0.001
Per MPI rank memory allocation (min/avg/max) = 18.56 | 18.56 | 18.56 Mbytes
Step Temp Press TotEng PotEng Enthalpy 
   90000    1204.4676   -1292.1031   -61145.271   -64204.728   -61349.775 
   90495    1170.4686    508.02467   -61354.066   -64327.163   -61273.958 
Loop time of 66.1345 on 1 procs for 495 steps with 19652 atoms

Performance: 0.647 ns/day, 37.113 hours/ns, 7.485 timesteps/s
99.7% CPU use with 1 MPI tasks x no OpenMP threads

MPI task timing breakdown:
Section |  min time  |  avg time  |  max time  |%varavg| %total
---------------------------------------------------------------
Pair    | 34.996     | 34.996     | 34.996     |   0.0 | 52.92
Neigh   | 30.073     | 30.073     | 30.073     |   0.0 | 45.47
Comm    | 0.39597    | 0.39597    | 0.39597    |   0.0 |  0.60
Output  | 0.00013399 | 0.00013399 | 0.00013399 |   0.0 |  0.00
Modify  | 0.52586    | 0.52586    | 0.52586    |   0.0 |  0.80
Other   |            | 0.1432     |            |       |  0.22

Nlocal:    19652 ave 19652 max 19652 min
[...]
Setting up Verlet run ...
  Unit style    : metal
  Current step  : 120000
  Time step     : 0.001
Per MPI rank memory allocation (min/avg/max) = 18.56 | 18.56 | 18.56 Mbytes
Step Temp Press TotEng PotEng Enthalpy 
  120000    448.00418   -868.99683   -66007.203   -67145.174   -66137.151 
  120495    421.24747    518.67565   -66172.987   -67242.994   -66095.632 
Loop time of 77.1976 on 1 procs for 495 steps with 19652 atoms

Performance: 0.554 ns/day, 43.321 hours/ns, 6.412 timesteps/s
99.9% CPU use with 1 MPI tasks x no OpenMP threads

MPI task timing breakdown:
Section |  min time  |  avg time  |  max time  |%varavg| %total
---------------------------------------------------------------
Pair    | 42.29      | 42.29      | 42.29      |   0.0 | 54.78
Neigh   | 33.622     | 33.622     | 33.622     |   0.0 | 43.55
Comm    | 0.48714    | 0.48714    | 0.48714    |   0.0 |  0.63
Output  | 0.00015211 | 0.00015211 | 0.00015211 |   0.0 |  0.00
Modify  | 0.62622    | 0.62622    | 0.62622    |   0.0 |  0.81
Other   |            | 0.1722     |            |       |  0.22

Nlocal:    19652 ave 19652 max 19652 min
Histogram: 1 0 0 0 0 0 0 0 0 0
Nghost:    20097 ave 20097 max 20097 min
Histogram: 1 0 0 0 0 0 0 0 0 0
Neighs:    1.81544e+06 ave 1.81544e+06 max 1.81544e+06 min
Histogram: 1 0 0 0 0 0 0 0 0 0

Total # of neighbors = 1815438
Ave neighs/atom = 92.3793
Neighbor list builds = 495
Dangerous builds not checked
Setting up Verlet run ...
  Unit style    : metal
  Current step  : 120495
  Time step     : 0.001
Per MPI rank memory allocation (min/avg/max) = 18.56 | 18.56 | 18.56 Mbytes
Step Temp Press TotEng PotEng Enthalpy 
  120495    421.24747    518.67565   -66172.987   -67242.994   -66095.632 
  122000    403.80604   -647.73819   -66282.396     -67308.1    -66378.96 
Loop time of 233.565 on 1 procs for 1505 steps with 19652 atoms

Performance: 0.557 ns/day, 43.109 hours/ns, 6.444 timesteps/s
96.4% CPU use with 1 MPI tasks x no OpenMP threads

MPI task timing breakdown:
Section |  min time  |  avg time  |  max time  |%varavg| %total
---------------------------------------------------------------
Pair    | 123.59     | 123.59     | 123.59     |   0.0 | 52.91
Neigh   | 98.104     | 98.104     | 98.104     |   0.0 | 42.00
Comm    | 1.4395     | 1.4395     | 1.4395     |   0.0 |  0.62
Output  | 8.1102     | 8.1102     | 8.1102     |   0.0 |  3.47
Modify  | 1.8167     | 1.8167     | 1.8167     |   0.0 |  0.78
Other   |            | 0.5045     |            |       |  0.22

Nlocal:    19652 ave 19652 max 19652 min
Histogram: 1 0 0 0 0 0 0 0 0 0
Nghost:    20066 ave 20066 max 20066 min
Histogram: 1 0 0 0 0 0 0 0 0 0
Neighs:    1.81552e+06 ave 1.81552e+06 max 1.81552e+06 min
Histogram: 1 0 0 0 0 0 0 0 0 0

Total # of neighbors = 1815521
Ave neighs/atom = 92.3835
Neighbor list builds = 1505
Dangerous builds not checked
Setting up Verlet run ...
  Unit style    : metal
  Current step  : 122000
  Time step     : 0.001
Per MPI rank memory allocation (min/avg/max) = 18.56 | 18.56 | 18.56 Mbytes
Step Temp Press TotEng PotEng Enthalpy 
  122000    403.80604   -647.73819   -66282.396     -67308.1    -66378.96 
  122495    370.60504    280.37594   -66441.037   -67382.407   -66399.325 
Loop time of 78.962 on 1 procs for 495 steps with 19652 atoms

Performance: 0.542 ns/day, 44.311 hours/ns, 6.269 timesteps/s
99.7% CPU use with 1 MPI tasks x no OpenMP threads

MPI task timing breakdown:
Section |  min time  |  avg time  |  max time  |%varavg| %total
---------------------------------------------------------------
Pair    | 43.677     | 43.677     | 43.677     |   0.0 | 55.31
Neigh   | 33.954     | 33.954     | 33.954     |   0.0 | 43.00
Comm    | 0.50736    | 0.50736    | 0.50736    |   0.0 |  0.64
Output  | 0.00016999 | 0.00016999 | 0.00016999 |   0.0 |  0.00
Modify  | 0.64909    | 0.64909    | 0.64909    |   0.0 |  0.82
Other   |            | 0.1747     |            |       |  0.22

Nlocal:    19652 ave 19652 max 19652 min
Histogram: 1 0 0 0 0 0 0 0 0 0
Nghost:    20079 ave 20079 max 20079 min
Histogram: 1 0 0 0 0 0 0 0 0 0
Neighs:    1.81913e+06 ave 1.81913e+06 max 1.81913e+06 min
Histogram: 1 0 0 0 0 0 0 0 0 0

Total # of neighbors = 1819132
Ave neighs/atom = 92.5673
Neighbor list builds = 495
Dangerous builds not checked
Setting up Verlet run ...
  Unit style    : metal
  Current step  : 122495
  Time step     : 0.001
Per MPI rank memory allocation (min/avg/max) = 18.56 | 18.56 | 18.56 Mbytes
Step Temp Press TotEng PotEng Enthalpy 
  122495    370.60504    280.37594   -66441.037   -67382.407   -66399.325 
  124000    351.66206    1371.4025   -66559.005   -67452.259    -66355.43 
Loop time of 248.901 on 1 procs for 1505 steps with 19652 atoms

Performance: 0.522 ns/day, 45.940 hours/ns, 6.047 timesteps/s
97.9% CPU use with 1 MPI tasks x no OpenMP threads

MPI task timing breakdown:
Section |  min time  |  avg time  |  max time  |%varavg| %total
---------------------------------------------------------------
Pair    | 135.28     | 135.28     | 135.28     |   0.0 | 54.35
Neigh   | 105.76     | 105.76     | 105.76     |   0.0 | 42.49
Comm    | 1.5568     | 1.5568     | 1.5568     |   0.0 |  0.63
Output  | 3.7734     | 3.7734     | 3.7734     |   0.0 |  1.52
Modify  | 1.9789     | 1.9789     | 1.9789     |   0.0 |  0.80
Other   |            | 0.548      |            |       |  0.22

Nlocal:    19652 ave 19652 max 19652 min
Histogram: 1 0 0 0 0 0 0 0 0 0
Nghost:    20125 ave 20125 max 20125 min
Histogram: 1 0 0 0 0 0 0 0 0 0
Neighs:    1.82321e+06 ave 1.82321e+06 max 1.82321e+06 min
Histogram: 1 0 0 0 0 0 0 0 0 0

Total # of neighbors = 1823210
Ave neighs/atom = 92.7748
Neighbor list builds = 1505
Dangerous builds not checked
Setting up Verlet run ...
  Unit style    : metal
  Current step  : 124000
  Time step     : 0.001
Per MPI rank memory allocation (min/avg/max) = 18.56 | 18.56 | 18.56 Mbytes
Step Temp Press TotEng PotEng Enthalpy 
  124000    351.66206    1371.4025   -66559.005   -67452.259    -66355.43 
  124495    320.93621   -613.43081   -66708.379   -67523.586   -66799.433 
Loop time of 79.8561 on 1 procs for 495 steps with 19652 atoms

Performance: 0.536 ns/day, 44.813 hours/ns, 6.199 timesteps/s
98.2% CPU use with 1 MPI tasks x no OpenMP threads

MPI task timing breakdown:
Section |  min time  |  avg time  |  max time  |%varavg| %total
---------------------------------------------------------------
Pair    | 44.128     | 44.128     | 44.128     |   0.0 | 55.26
Neigh   | 34.397     | 34.397     | 34.397     |   0.0 | 43.07
Comm    | 0.50286    | 0.50286    | 0.50286    |   0.0 |  0.63
Output  | 0.00017786 | 0.00017786 | 0.00017786 |   0.0 |  0.00
Modify  | 0.65185    | 0.65185    | 0.65185    |   0.0 |  0.82
Other   |            | 0.1752     |            |       |  0.22

Nlocal:    19652 ave 19652 max 19652 min
Histogram: 1 0 0 0 0 0 0 0 0 0
Nghost:    20080 ave 20080 max 20080 min
Histogram: 1 0 0 0 0 0 0 0 0 0
Neighs:    1.82312e+06 ave 1.82312e+06 max 1.82312e+06 min
Histogram: 1 0 0 0 0 0 0 0 0 0

Total # of neighbors = 1823122
Ave neighs/atom = 92.7703
Neighbor list builds = 495
Dangerous builds not checked
Setting up Verlet run ...
  Unit style    : metal
  Current step  : 124495
  Time step     : 0.001
Per MPI rank memory allocation (min/avg/max) = 18.56 | 18.56 | 18.56 Mbytes
Step Temp Press TotEng PotEng Enthalpy 
  124495    320.93621   -613.43081   -66708.379   -67523.586   -66799.433 
  126000    301.98319   -878.92237   -66819.498   -67586.563   -66949.824 
Loop time of 236.964 on 1 procs for 1505 steps with 19652 atoms

Performance: 0.549 ns/day, 43.736 hours/ns, 6.351 timesteps/s
99.6% CPU use with 1 MPI tasks x no OpenMP threads

MPI task timing breakdown:
Section |  min time  |  avg time  |  max time  |%varavg| %total
---------------------------------------------------------------
Pair    | 130.6      | 130.6      | 130.6      |   0.0 | 55.12
Neigh   | 102.06     | 102.06     | 102.06     |   0.0 | 43.07
Comm    | 1.5257     | 1.5257     | 1.5257     |   0.0 |  0.64
Output  | 0.32049    | 0.32049    | 0.32049    |   0.0 |  0.14
Modify  | 1.9253     | 1.9253     | 1.9253     |   0.0 |  0.81
Other   |            | 0.5312     |            |       |  0.22

Nlocal:    19652 ave 19652 max 19652 min
Histogram: 1 0 0 0 0 0 0 0 0 0
Nghost:    20109 ave 20109 max 20109 min
Histogram: 1 0 0 0 0 0 0 0 0 0
Neighs:    1.82448e+06 ave 1.82448e+06 max 1.82448e+06 min
Histogram: 1 0 0 0 0 0 0 0 0 0

Total # of neighbors = 1824483
Ave neighs/atom = 92.8396
Neighbor list builds = 1505
Dangerous builds not checked
Setting up Verlet run ...
  Unit style    : metal
  Current step  : 126000
  Time step     : 0.001
Per MPI rank memory allocation (min/avg/max) = 18.56 | 18.56 | 18.56 Mbytes
Step Temp Press TotEng PotEng Enthalpy 
  126000    301.98319   -878.92237   -66819.498   -67586.563   -66949.824 
  126495    274.79001   -888.46688   -66969.639   -67667.631    -67101.17 
Loop time of 80.9561 on 1 procs for 495 steps with 19652 atoms

Performance: 0.528 ns/day, 45.430 hours/ns, 6.114 timesteps/s
99.4% CPU use with 1 MPI tasks x no OpenMP threads

MPI task timing breakdown:
Section |  min time  |  avg time  |  max time  |%varavg| %total
---------------------------------------------------------------
Pair    | 45.155     | 45.155     | 45.155     |   0.0 | 55.78
Neigh   | 34.426     | 34.426     | 34.426     |   0.0 | 42.52
Comm    | 0.52725    | 0.52725    | 0.52725    |   0.0 |  0.65
Output  | 0.00017691 | 0.00017691 | 0.00017691 |   0.0 |  0.00
Modify  | 0.66878    | 0.66878    | 0.66878    |   0.0 |  0.83
Other   |            | 0.1788     |            |       |  0.22

Nlocal:    19652 ave 19652 max 19652 min
Histogram: 1 0 0 0 0 0 0 0 0 0
Nghost:    20096 ave 20096 max 20096 min
Histogram: 1 0 0 0 0 0 0 0 0 0
Neighs:    1.82732e+06 ave 1.82732e+06 max 1.82732e+06 min
Histogram: 1 0 0 0 0 0 0 0 0 0

Total # of neighbors = 1827315
Ave neighs/atom = 92.9837
Neighbor list builds = 495
Dangerous builds not checked
Setting up Verlet run ...
  Unit style    : metal
  Current step  : 126495
  Time step     : 0.001
Per MPI rank memory allocation (min/avg/max) = 18.56 | 18.56 | 18.56 Mbytes
Step Temp Press TotEng PotEng Enthalpy 
  126495    274.79001   -888.46688   -66969.639   -67667.631    -67101.17 
  128000    254.39034    405.62045   -67089.089   -67735.264   -67029.158 
Loop time of 245.223 on 1 procs for 1505 steps with 19652 atoms

Performance: 0.530 ns/day, 45.261 hours/ns, 6.137 timesteps/s
99.3% CPU use with 1 MPI tasks x no OpenMP threads

MPI task timing breakdown:
Section |  min time  |  avg time  |  max time  |%varavg| %total
---------------------------------------------------------------
Pair    | 135.67     | 135.67     | 135.67     |   0.0 | 55.32
Neigh   | 105.11     | 105.11     | 105.11     |   0.0 | 42.86
Comm    | 1.5655     | 1.5655     | 1.5655     |   0.0 |  0.64
Output  | 0.30655    | 0.30655    | 0.30655    |   0.0 |  0.13
Modify  | 2.0225     | 2.0225     | 2.0225     |   0.0 |  0.82
Other   |            | 0.551      |            |       |  0.22

Nlocal:    19652 ave 19652 max 19652 min
Histogram: 1 0 0 0 0 0 0 0 0 0
Nghost:    20116 ave 20116 max 20116 min
Histogram: 1 0 0 0 0 0 0 0 0 0
Neighs:    1.83089e+06 ave 1.83089e+06 max 1.83089e+06 min
Histogram: 1 0 0 0 0 0 0 0 0 0

Total # of neighbors = 1830893
Ave neighs/atom = 93.1657
Neighbor list builds = 1505
Dangerous builds not checked
Setting up Verlet run ...
  Unit style    : metal
  Current step  : 128000
  Time step     : 0.001
Per MPI rank memory allocation (min/avg/max) = 18.56 | 18.56 | 18.56 Mbytes
Step Temp Press TotEng PotEng Enthalpy 
  128000    254.39034    405.62045   -67089.089   -67735.264   -67029.158 
  128495    225.12981    108.87681   -67228.485   -67800.335   -67212.418 
Loop time of 82.6829 on 1 procs for 495 steps with 19652 atoms

Performance: 0.517 ns/day, 46.399 hours/ns, 5.987 timesteps/s
99.5% CPU use with 1 MPI tasks x no OpenMP threads

MPI task timing breakdown:
Section |  min time  |  avg time  |  max time  |%varavg| %total
---------------------------------------------------------------
Pair    | 46.007     | 46.007     | 46.007     |   0.0 | 55.64
Neigh   | 35.233     | 35.233     | 35.233     |   0.0 | 42.61
Comm    | 0.56753    | 0.56753    | 0.56753    |   0.0 |  0.69
Output  | 0.00014186 | 0.00014186 | 0.00014186 |   0.0 |  0.00
Modify  | 0.69053    | 0.69053    | 0.69053    |   0.0 |  0.84
Other   |            | 0.1844     |            |       |  0.22

Nlocal:    19652 ave 19652 max 19652 min
Histogram: 1 0 0 0 0 0 0 0 0 0
Nghost:    20089 ave 20089 max 20089 min
Histogram: 1 0 0 0 0 0 0 0 0 0
Neighs:    1.83225e+06 ave 1.83225e+06 max 1.83225e+06 min
Histogram: 1 0 0 0 0 0 0 0 0 0

Total # of neighbors = 1832247
Ave neighs/atom = 93.2346
Neighbor list builds = 495
Dangerous builds not checked
Setting up Verlet run ...
  Unit style    : metal
  Current step  : 128495
  Time step     : 0.001
Per MPI rank memory allocation (min/avg/max) = 18.56 | 18.56 | 18.56 Mbytes
Step Temp Press TotEng PotEng Enthalpy 
  128495    225.12981    108.87681   -67228.485   -67800.335   -67212.418 
  130000    200.93901    146.30444   -67357.192   -67867.596   -67335.627 
Loop time of 248.402 on 1 procs for 1505 steps with 19652 atoms

Performance: 0.523 ns/day, 45.848 hours/ns, 6.059 timesteps/s
99.0% CPU use with 1 MPI tasks x no OpenMP threads

MPI task timing breakdown:
Section |  min time  |  avg time  |  max time  |%varavg| %total
---------------------------------------------------------------
Pair    | 137.81     | 137.81     | 137.81     |   0.0 | 55.48
Neigh   | 105.81     | 105.81     | 105.81     |   0.0 | 42.60
Comm    | 1.5823     | 1.5823     | 1.5823     |   0.0 |  0.64
Output  | 0.62241    | 0.62241    | 0.62241    |   0.0 |  0.25
Modify  | 2.0242     | 2.0242     | 2.0242     |   0.0 |  0.81
Other   |            | 0.5574     |            |       |  0.22

Nlocal:    19652 ave 19652 max 19652 min
Histogram: 1 0 0 0 0 0 0 0 0 0
Nghost:    20131 ave 20131 max 20131 min
Histogram: 1 0 0 0 0 0 0 0 0 0
Neighs:    1.83476e+06 ave 1.83476e+06 max 1.83476e+06 min
Histogram: 1 0 0 0 0 0 0 0 0 0

Total # of neighbors = 1834760
Ave neighs/atom = 93.3625
Neighbor list builds = 1505
Dangerous builds not checked
Setting up Verlet run ...
  Unit style    : metal
  Current step  : 130000
  Time step     : 0.001
Per MPI rank memory allocation (min/avg/max) = 18.56 | 18.56 | 18.56 Mbytes
Step Temp Press TotEng PotEng Enthalpy 
  130000    200.93901    146.30444   -67357.192   -67867.596   -67335.627 
  130495    173.99108   -143.44453   -67485.707   -67927.661   -67506.829 
Loop time of 85.8674 on 1 procs for 495 steps with 19652 atoms

Performance: 0.498 ns/day, 48.186 hours/ns, 5.765 timesteps/s
99.6% CPU use with 1 MPI tasks x no OpenMP threads

MPI task timing breakdown:
Section |  min time  |  avg time  |  max time  |%varavg| %total
---------------------------------------------------------------
Pair    | 47.926     | 47.926     | 47.926     |   0.0 | 55.81
Neigh   | 36.482     | 36.482     | 36.482     |   0.0 | 42.49
Comm    | 0.55171    | 0.55171    | 0.55171    |   0.0 |  0.64
Output  | 0.00013995 | 0.00013995 | 0.00013995 |   0.0 |  0.00
Modify  | 0.71245    | 0.71245    | 0.71245    |   0.0 |  0.83
Other   |            | 0.195      |            |       |  0.23

Nlocal:    19652 ave 19652 max 19652 min
Histogram: 1 0 0 0 0 0 0 0 0 0
Nghost:    20127 ave 20127 max 20127 min
Histogram: 1 0 0 0 0 0 0 0 0 0
Neighs:    1.83644e+06 ave 1.83644e+06 max 1.83644e+06 min
Histogram: 1 0 0 0 0 0 0 0 0 0

Total # of neighbors = 1836443
Ave neighs/atom = 93.4481
Neighbor list builds = 495
Dangerous builds not checked
Setting up Verlet run ...
  Unit style    : metal
  Current step  : 130495
  Time step     : 0.001
Per MPI rank memory allocation (min/avg/max) = 18.56 | 18.56 | 18.56 Mbytes
Step Temp Press TotEng PotEng Enthalpy 
  130495    173.99108   -143.44453   -67485.707   -67927.661   -67506.829 
  132000    150.91944    817.20153   -67617.956   -68001.305   -67497.877 
Loop time of 259.733 on 1 procs for 1505 steps with 19652 atoms

Performance: 0.501 ns/day, 47.939 hours/ns, 5.794 timesteps/s
99.1% CPU use with 1 MPI tasks x no OpenMP threads

MPI task timing breakdown:
Section |  min time  |  avg time  |  max time  |%varavg| %total
---------------------------------------------------------------
Pair    | 144.21     | 144.21     | 144.21     |   0.0 | 55.52
Neigh   | 110.89     | 110.89     | 110.89     |   0.0 | 42.69
Comm    | 1.6856     | 1.6856     | 1.6856     |   0.0 |  0.65
Output  | 0.17506    | 0.17506    | 0.17506    |   0.0 |  0.07
Modify  | 2.1525     | 2.1525     | 2.1525     |   0.0 |  0.83
Other   |            | 0.625      |            |       |  0.24

Nlocal:    19652 ave 19652 max 19652 min
Histogram: 1 0 0 0 0 0 0 0 0 0
Nghost:    20156 ave 20156 max 20156 min
Histogram: 1 0 0 0 0 0 0 0 0 0
Neighs:    1.84055e+06 ave 1.84055e+06 max 1.84055e+06 min
Histogram: 1 0 0 0 0 0 0 0 0 0

Total # of neighbors = 1840551
Ave neighs/atom = 93.6572
Neighbor list builds = 1505
Dangerous builds not checked
Setting up Verlet run ...
  Unit style    : metal
  Current step  : 132000
  Time step     : 0.001
Per MPI rank memory allocation (min/avg/max) = 18.56 | 18.56 | 18.56 Mbytes
Step Temp Press TotEng PotEng Enthalpy 
  132000    150.91944    817.20153   -67617.956   -68001.305   -67497.877 
  132495    127.18401    743.78199   -67737.372   -68060.431     -67628.2 
Loop time of 82.1652 on 1 procs for 495 steps with 19652 atoms

Performance: 0.521 ns/day, 46.108 hours/ns, 6.024 timesteps/s
98.5% CPU use with 1 MPI tasks x no OpenMP threads

MPI task timing breakdown:
Section |  min time  |  avg time  |  max time  |%varavg| %total
---------------------------------------------------------------
Pair    | 45.41      | 45.41      | 45.41      |   0.0 | 55.27
Neigh   | 35.299     | 35.299     | 35.299     |   0.0 | 42.96
Comm    | 0.56666    | 0.56666    | 0.56666    |   0.0 |  0.69
Output  | 0.00019217 | 0.00019217 | 0.00019217 |   0.0 |  0.00
Modify  | 0.67569    | 0.67569    | 0.67569    |   0.0 |  0.82
Other   |            | 0.2137     |            |       |  0.26

Nlocal:    19652 ave 19652 max 19652 min
Histogram: 1 0 0 0 0 0 0 0 0 0
Nghost:    20140 ave 20140 max 20140 min
Histogram: 1 0 0 0 0 0 0 0 0 0
Neighs:    1.84202e+06 ave 1.84202e+06 max 1.84202e+06 min
Histogram: 1 0 0 0 0 0 0 0 0 0

Total # of neighbors = 1842025
Ave neighs/atom = 93.7322
Neighbor list builds = 495
Dangerous builds not checked
Setting up Verlet run ...
  Unit style    : metal
  Current step  : 132495
  Time step     : 0.001
Per MPI rank memory allocation (min/avg/max) = 18.56 | 18.56 | 18.56 Mbytes
Step Temp Press TotEng PotEng Enthalpy 
  132495    127.18401    743.78199   -67737.372   -68060.431     -67628.2 
  134000    99.089412   -654.88111   -67880.375   -68132.071   -67976.449 
Loop time of 261.995 on 1 procs for 1505 steps with 19652 atoms

Performance: 0.496 ns/day, 48.356 hours/ns, 5.744 timesteps/s
98.6% CPU use with 1 MPI tasks x no OpenMP threads

MPI task timing breakdown:
Section |  min time  |  avg time  |  max time  |%varavg| %total
---------------------------------------------------------------
Pair    | 145.16     | 145.16     | 145.16     |   0.0 | 55.41
Neigh   | 112.15     | 112.15     | 112.15     |   0.0 | 42.81
Comm    | 1.7425     | 1.7425     | 1.7425     |   0.0 |  0.67
Output  | 0.088508   | 0.088508   | 0.088508   |   0.0 |  0.03
Modify  | 2.1892     | 2.1892     | 2.1892     |   0.0 |  0.84
Other   |            | 0.6669     |            |       |  0.25

Nlocal:    19652 ave 19652 max 19652 min
Histogram: 1 0 0 0 0 0 0 0 0 0
Nghost:    20175 ave 20175 max 20175 min
Histogram: 1 0 0 0 0 0 0 0 0 0
Neighs:    1.84268e+06 ave 1.84268e+06 max 1.84268e+06 min
Histogram: 1 0 0 0 0 0 0 0 0 0

Total # of neighbors = 1842676
Ave neighs/atom = 93.7653
Neighbor list builds = 1505
Dangerous builds not checked
Total wall time: 6:02:08
