LAMMPS (12 Dec 2018)
Lattice spacing in x,y,z = 4 4 4
Created orthogonal box = (0 0 0) to (68 68 68)
  1 by 1 by 1 MPI processor grid
Created 19652 atoms
  Time spent = 0.00351691 secs
Setting atom values ...
  0 settings made for type/fraction
Neighbor list info ...
  update every 1 steps, delay 0 steps, check no
  max neighbors/atom: 2000, page size: 100000
  master list distance cutoff = 8.5
  ghost atom cutoff = 8.5
  binsize = 4.25, bins = 16 16 16
  1 neighbor lists, perpetual/occasional/extra = 1 0 0
  (1) pair eam/alloy, perpetual
      attributes: half, newton on
      pair build: half/bin/atomonly/newton
      stencil: half/bin/3d/newton
      bin: standard
Setting up Verlet run ...
  Unit style    : metal
  Current step  : 0
  Time step     : 0.001
Per MPI rank memory allocation (min/avg/max) = 18.19 | 18.19 | 18.19 Mbytes
Step Temp Press TotEng PotEng Enthalpy 
       0          300    270988.05   -20809.105   -21571.132    32373.122 
    1000    146.03319    268947.95   -20808.866   -21179.804    31972.985 
Loop time of 151.287 on 1 procs for 1000 steps with 19652 atoms

Performance: 0.571 ns/day, 42.024 hours/ns, 6.610 timesteps/s
99.9% CPU use with 1 MPI tasks x no OpenMP threads

MPI task timing breakdown:
Section |  min time  |  avg time  |  max time  |%varavg| %total
---------------------------------------------------------------
Pair    | 85.575     | 85.575     | 85.575     |   0.0 | 56.56
Neigh   | 63.801     | 63.801     | 63.801     |   0.0 | 42.17
Comm    | 1.1245     | 1.1245     | 1.1245     |   0.0 |  0.74
Output  | 0.00028896 | 0.00028896 | 0.00028896 |   0.0 |  0.00
Modify  | 0.40108    | 0.40108    | 0.40108    |   0.0 |  0.27
Other   |            | 0.3848     |            |       |  0.25

Nlocal:    19652 ave 19652 max 19652 min
Histogram: 1 0 0 0 0 0 0 0 0 0
Nghost:    20102 ave 20102 max 20102 min
Histogram: 1 0 0 0 0 0 0 0 0 0
Neighs:    1.57359e+06 ave 1.57359e+06 max 1.57359e+06 min
Histogram: 1 0 0 0 0 0 0 0 0 0

Total # of neighbors = 1573586
Ave neighs/atom = 80.0726
Neighbor list builds = 1000
Dangerous builds not checked
Setting up Verlet run ...
  Unit style    : metal
  Current step  : 1000
  Time step     : 0.001
Per MPI rank memory allocation (min/avg/max) = 18.19 | 18.19 | 18.19 Mbytes
Step Temp Press TotEng PotEng Enthalpy 
    1000    146.03319    268947.95   -20808.866   -21179.804    31972.985 
    2000    258.65481    297.32161   -28438.217   -29095.223   -28353.684 
Loop time of 125.402 on 1 procs for 1000 steps with 19652 atoms

Performance: 0.689 ns/day, 34.834 hours/ns, 7.974 timesteps/s
99.9% CPU use with 1 MPI tasks x no OpenMP threads

MPI task timing breakdown:
Section |  min time  |  avg time  |  max time  |%varavg| %total
---------------------------------------------------------------
Pair    | 64.684     | 64.684     | 64.684     |   0.0 | 51.58
Neigh   | 57.955     | 57.955     | 57.955     |   0.0 | 46.22
Comm    | 0.97784    | 0.97784    | 0.97784    |   0.0 |  0.78
Output  | 0.00025296 | 0.00025296 | 0.00025296 |   0.0 |  0.00
Modify  | 1.4167     | 1.4167     | 1.4167     |   0.0 |  1.13
Other   |            | 0.3685     |            |       |  0.29

Nlocal:    19652 ave 19652 max 19652 min
Histogram: 1 0 0 0 0 0 0 0 0 0
Nghost:    14808 ave 14808 max 14808 min
Histogram: 1 0 0 0 0 0 0 0 0 0
Neighs:    1.11508e+06 ave 1.11508e+06 max 1.11508e+06 min
Histogram: 1 0 0 0 0 0 0 0 0 0

Total # of neighbors = 1115085
Ave neighs/atom = 56.7416
Neighbor list builds = 1000
Dangerous builds not checked
Setting up Verlet run ...
  Unit style    : metal
  Current step  : 2000
  Time step     : 0.001
Per MPI rank memory allocation (min/avg/max) = 18.19 | 18.19 | 18.19 Mbytes
Step Temp Press TotEng PotEng Enthalpy 
    2000    258.65481    297.32161   -28438.217   -29095.223   -28353.684 
    6667     1538.336    100.33074   -19275.121   -23182.634   -19240.109 
   10000    2440.3491     252.4411    -13467.42   -19666.129    -13360.85 
Loop time of 880.754 on 1 procs for 8000 steps with 19652 atoms

Performance: 0.785 ns/day, 30.582 hours/ns, 9.083 timesteps/s
99.7% CPU use with 1 MPI tasks x no OpenMP threads

MPI task timing breakdown:
Section |  min time  |  avg time  |  max time  |%varavg| %total
---------------------------------------------------------------
Pair    | 453.45     | 453.45     | 453.45     |   0.0 | 51.48
Neigh   | 404.96     | 404.96     | 404.96     |   0.0 | 45.98
Comm    | 7.8959     | 7.8959     | 7.8959     |   0.0 |  0.90
Output  | 0.12803    | 0.12803    | 0.12803    |   0.0 |  0.01
Modify  | 11.383     | 11.383     | 11.383     |   0.0 |  1.29
Other   |            | 2.942      |            |       |  0.33

Nlocal:    19652 ave 19652 max 19652 min
Histogram: 1 0 0 0 0 0 0 0 0 0
Nghost:    13776 ave 13776 max 13776 min
Histogram: 1 0 0 0 0 0 0 0 0 0
Neighs:    725820 ave 725820 max 725820 min
Histogram: 1 0 0 0 0 0 0 0 0 0

Total # of neighbors = 725820
Ave neighs/atom = 36.9336
Neighbor list builds = 8000
Dangerous builds not checked
Setting up Verlet run ...
  Unit style    : metal
  Current step  : 10000
  Time step     : 0.001
Per MPI rank memory allocation (min/avg/max) = 18.22 | 18.22 | 18.22 Mbytes
Step Temp Press TotEng PotEng Enthalpy 
   10000    2440.3491     252.4411    -13467.42   -19666.129    -13360.85 
   13334    2453.7693    833.89554   -13251.724   -19484.522   -12895.412 
   20001    2434.2108   -202.26895   -13327.143    -19510.26   -13413.821 
   26668     2480.615   -242.16126   -13114.684   -19415.672   -13219.528 
   33335    2427.4966    555.95281   -13359.828   -19525.891   -13122.865 
   40000    2433.2864   -602.86246    -13330.96   -19511.729   -13590.018 
Loop time of 3079.32 on 1 procs for 30000 steps with 19652 atoms

Performance: 0.842 ns/day, 28.512 hours/ns, 9.742 timesteps/s
99.3% CPU use with 1 MPI tasks x no OpenMP threads

MPI task timing breakdown:
Section |  min time  |  avg time  |  max time  |%varavg| %total
---------------------------------------------------------------
Pair    | 1517.5     | 1517.5     | 1517.5     |   0.0 | 49.28
Neigh   | 1473.6     | 1473.6     | 1473.6     |   0.0 | 47.85
Comm    | 31.497     | 31.497     | 31.497     |   0.0 |  1.02
Output  | 0.30845    | 0.30845    | 0.30845    |   0.0 |  0.01
Modify  | 45.121     | 45.121     | 45.121     |   0.0 |  1.47
Other   |            | 11.26      |            |       |  0.37

Nlocal:    19652 ave 19652 max 19652 min
Histogram: 1 0 0 0 0 0 0 0 0 0
Nghost:    13741 ave 13741 max 13741 min
Histogram: 1 0 0 0 0 0 0 0 0 0
Neighs:    713655 ave 713655 max 713655 min
Histogram: 1 0 0 0 0 0 0 0 0 0

Total # of neighbors = 713655
Ave neighs/atom = 36.3146
Neighbor list builds = 30000
Dangerous builds not checked
Setting up Verlet run ...
  Unit style    : metal
  Current step  : 40000
  Time step     : 0.001
Per MPI rank memory allocation (min/avg/max) = 18.22 | 18.22 | 18.22 Mbytes
Step Temp Press TotEng PotEng Enthalpy 
   40000    2433.2864   -602.86246    -13330.96   -19511.729   -13590.018 
   40002    2435.1379   -627.61697   -13330.943   -19516.415   -13600.638 
   40495    2400.3133    -234.5501   -13480.498   -19577.513   -13580.789 
Loop time of 50.0159 on 1 procs for 495 steps with 19652 atoms

Performance: 0.855 ns/day, 28.067 hours/ns, 9.897 timesteps/s
98.4% CPU use with 1 MPI tasks x no OpenMP threads

MPI task timing breakdown:
Section |  min time  |  avg time  |  max time  |%varavg| %total
---------------------------------------------------------------
Pair    | 24.402     | 24.402     | 24.402     |   0.0 | 48.79
Neigh   | 24.083     | 24.083     | 24.083     |   0.0 | 48.15
Comm    | 0.50894    | 0.50894    | 0.50894    |   0.0 |  1.02
Output  | 0.065613   | 0.065613   | 0.065613   |   0.0 |  0.13
Modify  | 0.76704    | 0.76704    | 0.76704    |   0.0 |  1.53
Other   |            | 0.19       |            |       |  0.38

Nlocal:    19652 ave 19652 max 19652 min
Histogram: 1 0 0 0 0 0 0 0 0 0
Nghost:    13746 ave 13746 max 13746 min
Histogram: 1 0 0 0 0 0 0 0 0 0
Neighs:    718266 ave 718266 max 718266 min
Histogram: 1 0 0 0 0 0 0 0 0 0

Total # of neighbors = 718266
Ave neighs/atom = 36.5493
Neighbor list builds = 495
Dangerous builds not checked
Setting up Verlet run ...
  Unit style    : metal
  Current step  : 40495
  Time step     : 0.001
Per MPI rank memory allocation (min/avg/max) = 18.22 | 18.22 | 18.22 Mbytes
Step Temp Press TotEng PotEng Enthalpy 
   40495    2400.3133    -234.5501   -13480.498   -19577.513   -13580.789 
   46667     2395.072   -260.23575   -13735.986   -19819.687   -13845.118 
Loop time of 575.513 on 1 procs for 6172 steps with 19652 atoms

Performance: 0.927 ns/day, 25.902 hours/ns, 10.724 timesteps/s
99.5% CPU use with 1 MPI tasks x no OpenMP threads

MPI task timing breakdown:
Section |  min time  |  avg time  |  max time  |%varavg| %total
---------------------------------------------------------------
Pair    | 277.21     | 277.21     | 277.21     |   0.0 | 48.17
Neigh   | 281.28     | 281.28     | 281.28     |   0.0 | 48.87
Comm    | 5.8803     | 5.8803     | 5.8803     |   0.0 |  1.02
Output  | 0.41713    | 0.41713    | 0.41713    |   0.0 |  0.07
Modify  | 8.5853     | 8.5853     | 8.5853     |   0.0 |  1.49
Other   |            | 2.14       |            |       |  0.37

Nlocal:    19652 ave 19652 max 19652 min
Histogram: 1 0 0 0 0 0 0 0 0 0
Nghost:    13824 ave 13824 max 13824 min
Histogram: 1 0 0 0 0 0 0 0 0 0
Neighs:    731334 ave 731334 max 731334 min
Histogram: 1 0 0 0 0 0 0 0 0 0

Total # of neighbors = 731334
Ave neighs/atom = 37.2142
Neighbor list builds = 6172
Dangerous builds not checked
Setting up Verlet run ...
  Unit style    : metal
  Current step  : 46667
  Time step     : 0.001
Per MPI rank memory allocation (min/avg/max) = 18.22 | 18.22 | 18.22 Mbytes
Step Temp Press TotEng PotEng Enthalpy 
   46667     2395.072   -260.23575   -13735.986   -19819.687   -13845.118 
   46669    2393.6821   -241.90488   -13735.982   -19816.153   -13837.427 
   47162    2361.1882   -234.93203   -13918.556   -19916.189   -14016.725 
Loop time of 44.2392 on 1 procs for 495 steps with 19652 atoms

Performance: 0.967 ns/day, 24.826 hours/ns, 11.189 timesteps/s
96.0% CPU use with 1 MPI tasks x no OpenMP threads

MPI task timing breakdown:
Section |  min time  |  avg time  |  max time  |%varavg| %total
---------------------------------------------------------------
Pair    | 20.301     | 20.301     | 20.301     |   0.0 | 45.89
Neigh   | 20.982     | 20.982     | 20.982     |   0.0 | 47.43
Comm    | 0.4312     | 0.4312     | 0.4312     |   0.0 |  0.97
Output  | 1.7056     | 1.7056     | 1.7056     |   0.0 |  3.86
Modify  | 0.65031    | 0.65031    | 0.65031    |   0.0 |  1.47
Other   |            | 0.1682     |            |       |  0.38

Nlocal:    19652 ave 19652 max 19652 min
Histogram: 1 0 0 0 0 0 0 0 0 0
Nghost:    13816 ave 13816 max 13816 min
Histogram: 1 0 0 0 0 0 0 0 0 0
Neighs:    733696 ave 733696 max 733696 min
Histogram: 1 0 0 0 0 0 0 0 0 0

Total # of neighbors = 733696
Ave neighs/atom = 37.3344
Neighbor list builds = 495
Dangerous builds not checked
Setting up Verlet run ...
  Unit style    : metal
  Current step  : 47162
  Time step     : 0.001
Per MPI rank memory allocation (min/avg/max) = 18.22 | 18.22 | 18.22 Mbytes
Step Temp Press TotEng PotEng Enthalpy 
   47162    2361.1882   -234.93203   -13918.556   -19916.189   -14016.725 
   53334    2367.6654    149.12657   -14026.716   -20040.801   -13964.973 
Loop time of 550.15 on 1 procs for 6172 steps with 19652 atoms

Performance: 0.969 ns/day, 24.760 hours/ns, 11.219 timesteps/s
99.6% CPU use with 1 MPI tasks x no OpenMP threads

MPI task timing breakdown:
Section |  min time  |  avg time  |  max time  |%varavg| %total
---------------------------------------------------------------
Pair    | 265.23     | 265.23     | 265.23     |   0.0 | 48.21
Neigh   | 269.23     | 269.23     | 269.23     |   0.0 | 48.94
Comm    | 5.5874     | 5.5874     | 5.5874     |   0.0 |  1.02
Output  | 0.00018907 | 0.00018907 | 0.00018907 |   0.0 |  0.00
Modify  | 8.0291     | 8.0291     | 8.0291     |   0.0 |  1.46
Other   |            | 2.068      |            |       |  0.38

Nlocal:    19652 ave 19652 max 19652 min
Histogram: 1 0 0 0 0 0 0 0 0 0
Nghost:    14024 ave 14024 max 14024 min
Histogram: 1 0 0 0 0 0 0 0 0 0
Neighs:    739873 ave 739873 max 739873 min
Histogram: 1 0 0 0 0 0 0 0 0 0

Total # of neighbors = 739873
Ave neighs/atom = 37.6487
Neighbor list builds = 6172
Dangerous builds not checked
Setting up Verlet run ...
  Unit style    : metal
  Current step  : 53334
  Time step     : 0.001
Per MPI rank memory allocation (min/avg/max) = 18.22 | 18.22 | 18.22 Mbytes
Step Temp Press TotEng PotEng Enthalpy 
   53334    2367.6654    149.12657   -14026.716   -20040.801   -13964.973 
   53336    2368.3867    140.89564   -14026.737   -20042.655   -13968.402 
   53829    2316.9936   -83.074013   -14230.556   -20115.931   -14264.756 
Loop time of 46.3437 on 1 procs for 495 steps with 19652 atoms

Performance: 0.923 ns/day, 26.007 hours/ns, 10.681 timesteps/s
98.8% CPU use with 1 MPI tasks x no OpenMP threads

MPI task timing breakdown:
Section |  min time  |  avg time  |  max time  |%varavg| %total
---------------------------------------------------------------
Pair    | 22.113     | 22.113     | 22.113     |   0.0 | 47.72
Neigh   | 22.567     | 22.567     | 22.567     |   0.0 | 48.70
Comm    | 0.46595    | 0.46595    | 0.46595    |   0.0 |  1.01
Output  | 0.33472    | 0.33472    | 0.33472    |   0.0 |  0.72
Modify  | 0.68984    | 0.68984    | 0.68984    |   0.0 |  1.49
Other   |            | 0.1729     |            |       |  0.37

Nlocal:    19652 ave 19652 max 19652 min
Histogram: 1 0 0 0 0 0 0 0 0 0
Nghost:    13932 ave 13932 max 13932 min
Histogram: 1 0 0 0 0 0 0 0 0 0
Neighs:    744508 ave 744508 max 744508 min
Histogram: 1 0 0 0 0 0 0 0 0 0

Total # of neighbors = 744508
Ave neighs/atom = 37.8846
Neighbor list builds = 495
Dangerous builds not checked
Setting up Verlet run ...
  Unit style    : metal
  Current step  : 53829
  Time step     : 0.001
Per MPI rank memory allocation (min/avg/max) = 18.22 | 18.22 | 18.22 Mbytes
Step Temp Press TotEng PotEng Enthalpy 
   53829    2316.9936   -83.074013   -14230.556   -20115.931   -14264.756 
   60001    2314.2587   -124.16681   -14364.381   -20242.809   -14415.154 
Loop time of 513.305 on 1 procs for 6172 steps with 19652 atoms

Performance: 1.039 ns/day, 23.102 hours/ns, 12.024 timesteps/s
99.6% CPU use with 1 MPI tasks x no OpenMP threads

MPI task timing breakdown:
Section |  min time  |  avg time  |  max time  |%varavg| %total
---------------------------------------------------------------
Pair    | 246.57     | 246.57     | 246.57     |   0.0 | 48.04
Neigh   | 252.46     | 252.46     | 252.46     |   0.0 | 49.18
Comm    | 5.1487     | 5.1487     | 5.1487     |   0.0 |  1.00
Output  | 0.00015378 | 0.00015378 | 0.00015378 |   0.0 |  0.00
Modify  | 7.2599     | 7.2599     | 7.2599     |   0.0 |  1.41
Other   |            | 1.864      |            |       |  0.36

Nlocal:    19652 ave 19652 max 19652 min
Histogram: 1 0 0 0 0 0 0 0 0 0
Nghost:    13988 ave 13988 max 13988 min
Histogram: 1 0 0 0 0 0 0 0 0 0
Neighs:    748895 ave 748895 max 748895 min
Histogram: 1 0 0 0 0 0 0 0 0 0

Total # of neighbors = 748895
Ave neighs/atom = 38.1078
Neighbor list builds = 6172
Dangerous builds not checked
Setting up Verlet run ...
  Unit style    : metal
  Current step  : 60001
  Time step     : 0.001
Per MPI rank memory allocation (min/avg/max) = 18.22 | 18.22 | 18.22 Mbytes
Step Temp Press TotEng PotEng Enthalpy 
   60001    2314.2587   -124.16681   -14364.381   -20242.809   -14415.154 
   60003    2312.9538   -124.50916   -14364.389   -20239.502   -14415.302 
   60496    2266.0677   -28.188774   -14622.791    -20378.81   -14634.207 
Loop time of 38.2479 on 1 procs for 495 steps with 19652 atoms

Performance: 1.118 ns/day, 21.463 hours/ns, 12.942 timesteps/s
99.1% CPU use with 1 MPI tasks x no OpenMP threads

MPI task timing breakdown:
Section |  min time  |  avg time  |  max time  |%varavg| %total
---------------------------------------------------------------
Pair    | 18.096     | 18.096     | 18.096     |   0.0 | 47.31
Neigh   | 18.954     | 18.954     | 18.954     |   0.0 | 49.55
Comm    | 0.37961    | 0.37961    | 0.37961    |   0.0 |  0.99
Output  | 0.13052    | 0.13052    | 0.13052    |   0.0 |  0.34
Modify  | 0.54804    | 0.54804    | 0.54804    |   0.0 |  1.43
Other   |            | 0.1403     |            |       |  0.37

Nlocal:    19652 ave 19652 max 19652 min
Histogram: 1 0 0 0 0 0 0 0 0 0
Nghost:    14019 ave 14019 max 14019 min
Histogram: 1 0 0 0 0 0 0 0 0 0
Neighs:    756820 ave 756820 max 756820 min
Histogram: 1 0 0 0 0 0 0 0 0 0

Total # of neighbors = 756820
Ave neighs/atom = 38.5111
Neighbor list builds = 495
Dangerous builds not checked
Setting up Verlet run ...
  Unit style    : metal
  Current step  : 60496
  Time step     : 0.001
Per MPI rank memory allocation (min/avg/max) = 18.22 | 18.22 | 18.22 Mbytes
Step Temp Press TotEng PotEng Enthalpy 
   60496    2266.0677   -28.188774   -14622.791    -20378.81   -14634.207 
   66668    2233.2986    -885.3367   -14785.948    -20458.73   -15144.505 
Loop time of 499.286 on 1 procs for 6172 steps with 19652 atoms

Performance: 1.068 ns/day, 22.471 hours/ns, 12.362 timesteps/s
99.8% CPU use with 1 MPI tasks x no OpenMP threads

MPI task timing breakdown:
Section |  min time  |  avg time  |  max time  |%varavg| %total
---------------------------------------------------------------
Pair    | 239.17     | 239.17     | 239.17     |   0.0 | 47.90
Neigh   | 246.3      | 246.3      | 246.3      |   0.0 | 49.33
Comm    | 4.9782     | 4.9782     | 4.9782     |   0.0 |  1.00
Output  | 0.00013995 | 0.00013995 | 0.00013995 |   0.0 |  0.00
Modify  | 7.0494     | 7.0494     | 7.0494     |   0.0 |  1.41
Other   |            | 1.793      |            |       |  0.36

Nlocal:    19652 ave 19652 max 19652 min
Histogram: 1 0 0 0 0 0 0 0 0 0
Nghost:    14046 ave 14046 max 14046 min
Histogram: 1 0 0 0 0 0 0 0 0 0
Neighs:    755956 ave 755956 max 755956 min
Histogram: 1 0 0 0 0 0 0 0 0 0

Total # of neighbors = 755956
Ave neighs/atom = 38.4671
Neighbor list builds = 6172
Dangerous builds not checked
Setting up Verlet run ...
  Unit style    : metal
  Current step  : 66668
  Time step     : 0.001
Per MPI rank memory allocation (min/avg/max) = 18.22 | 18.22 | 18.22 Mbytes
Step Temp Press TotEng PotEng Enthalpy 
   66668    2233.2986    -885.3367   -14785.948    -20458.73   -15144.505 
   66670    2233.9481   -897.33764    -14785.93   -20460.362   -15149.348 
   67163    2216.8927   -111.85013   -14928.082   -20559.191   -14972.864 
Loop time of 39.6147 on 1 procs for 495 steps with 19652 atoms

Performance: 1.080 ns/day, 22.230 hours/ns, 12.495 timesteps/s
97.5% CPU use with 1 MPI tasks x no OpenMP threads

MPI task timing breakdown:
Section |  min time  |  avg time  |  max time  |%varavg| %total
---------------------------------------------------------------
Pair    | 18.509     | 18.509     | 18.509     |   0.0 | 46.72
Neigh   | 19.292     | 19.292     | 19.292     |   0.0 | 48.70
Comm    | 0.38134    | 0.38134    | 0.38134    |   0.0 |  0.96
Output  | 0.73307    | 0.73307    | 0.73307    |   0.0 |  1.85
Modify  | 0.55772    | 0.55772    | 0.55772    |   0.0 |  1.41
Other   |            | 0.1415     |            |       |  0.36

Nlocal:    19652 ave 19652 max 19652 min
Histogram: 1 0 0 0 0 0 0 0 0 0
Nghost:    14021 ave 14021 max 14021 min
Histogram: 1 0 0 0 0 0 0 0 0 0
Neighs:    765616 ave 765616 max 765616 min
Histogram: 1 0 0 0 0 0 0 0 0 0

Total # of neighbors = 765616
Ave neighs/atom = 38.9587
Neighbor list builds = 495
Dangerous builds not checked
Setting up Verlet run ...
  Unit style    : metal
  Current step  : 67163
  Time step     : 0.001
Per MPI rank memory allocation (min/avg/max) = 18.22 | 18.22 | 18.22 Mbytes
Step Temp Press TotEng PotEng Enthalpy 
   67163    2216.8927   -111.85013   -14928.082   -20559.191   -14972.864 
   73335    2220.2532    390.61865   -15064.257   -20703.902   -14909.272 
Loop time of 509.248 on 1 procs for 6172 steps with 19652 atoms

Performance: 1.047 ns/day, 22.919 hours/ns, 12.120 timesteps/s
99.9% CPU use with 1 MPI tasks x no OpenMP threads

MPI task timing breakdown:
Section |  min time  |  avg time  |  max time  |%varavg| %total
---------------------------------------------------------------
Pair    | 245.98     | 245.98     | 245.98     |   0.0 | 48.30
Neigh   | 249.31     | 249.31     | 249.31     |   0.0 | 48.96
Comm    | 5.0176     | 5.0176     | 5.0176     |   0.0 |  0.99
Output  | 0.00028801 | 0.00028801 | 0.00028801 |   0.0 |  0.00
Modify  | 7.1385     | 7.1385     | 7.1385     |   0.0 |  1.40
Other   |            | 1.797      |            |       |  0.35

Nlocal:    19652 ave 19652 max 19652 min
Histogram: 1 0 0 0 0 0 0 0 0 0
Nghost:    14030 ave 14030 max 14030 min
Histogram: 1 0 0 0 0 0 0 0 0 0
Neighs:    771810 ave 771810 max 771810 min
Histogram: 1 0 0 0 0 0 0 0 0 0

Total # of neighbors = 771810
Ave neighs/atom = 39.2739
Neighbor list builds = 6172
Dangerous builds not checked
Setting up Verlet run ...
  Unit style    : metal
  Current step  : 73335
  Time step     : 0.001
Per MPI rank memory allocation (min/avg/max) = 18.22 | 18.22 | 18.22 Mbytes
Step Temp Press TotEng PotEng Enthalpy 
   73335    2220.2532    390.61865   -15064.257   -20703.902   -14909.272 
   73337    2219.4736    390.80766   -15064.277   -20701.942   -14909.218 
   73830    2164.5827   -613.53366   -15219.563   -20717.801   -15463.965 
Loop time of 50.9192 on 1 procs for 495 steps with 19652 atoms

Performance: 0.840 ns/day, 28.574 hours/ns, 9.721 timesteps/s
99.9% CPU use with 1 MPI tasks x no OpenMP threads

MPI task timing breakdown:
Section |  min time  |  avg time  |  max time  |%varavg| %total
---------------------------------------------------------------
Pair    | 25.179     | 25.179     | 25.179     |   0.0 | 49.45
Neigh   | 24.223     | 24.223     | 24.223     |   0.0 | 47.57
Comm    | 0.50333    | 0.50333    | 0.50333    |   0.0 |  0.99
Output  | 0.065819   | 0.065819   | 0.065819   |   0.0 |  0.13
Modify  | 0.76049    | 0.76049    | 0.76049    |   0.0 |  1.49
Other   |            | 0.1871     |            |       |  0.37

Nlocal:    19652 ave 19652 max 19652 min
Histogram: 1 0 0 0 0 0 0 0 0 0
Nghost:    14082 ave 14082 max 14082 min
Histogram: 1 0 0 0 0 0 0 0 0 0
Neighs:    769414 ave 769414 max 769414 min
Histogram: 1 0 0 0 0 0 0 0 0 0

Total # of neighbors = 769414
Ave neighs/atom = 39.1519
Neighbor list builds = 495
Dangerous builds not checked
Setting up Verlet run ...
  Unit style    : metal
  Current step  : 73830
  Time step     : 0.001
Per MPI rank memory allocation (min/avg/max) = 18.22 | 18.22 | 18.22 Mbytes
Step Temp Press TotEng PotEng Enthalpy 
   73830    2164.5827   -613.53366   -15219.563   -20717.801   -15463.965 
   80002    2134.8795    63.909586   -15424.628   -20847.416   -15399.468 
Loop time of 654.398 on 1 procs for 6172 steps with 19652 atoms

Performance: 0.815 ns/day, 29.452 hours/ns, 9.432 timesteps/s
99.4% CPU use with 1 MPI tasks x no OpenMP threads

MPI task timing breakdown:
Section |  min time  |  avg time  |  max time  |%varavg| %total
---------------------------------------------------------------
Pair    | 328.51     | 328.51     | 328.51     |   0.0 | 50.20
Neigh   | 307.93     | 307.93     | 307.93     |   0.0 | 47.06
Comm    | 6.411      | 6.411      | 6.411      |   0.0 |  0.98
Output  | 0.00022292 | 0.00022292 | 0.00022292 |   0.0 |  0.00
Modify  | 9.2206     | 9.2206     | 9.2206     |   0.0 |  1.41
Other   |            | 2.331      |            |       |  0.36

Nlocal:    19652 ave 19652 max 19652 min
Histogram: 1 0 0 0 0 0 0 0 0 0
Nghost:    14281 ave 14281 max 14281 min
Histogram: 1 0 0 0 0 0 0 0 0 0
Neighs:    778992 ave 778992 max 778992 min
Histogram: 1 0 0 0 0 0 0 0 0 0

Total # of neighbors = 778992
Ave neighs/atom = 39.6393
Neighbor list builds = 6172
Dangerous builds not checked
Setting up Verlet run ...
  Unit style    : metal
  Current step  : 80002
  Time step     : 0.001
Per MPI rank memory allocation (min/avg/max) = 18.22 | 18.22 | 18.22 Mbytes
Step Temp Press TotEng PotEng Enthalpy 
   80002    2134.8795    63.909586   -15424.628   -20847.416   -15399.468 
   80004    2133.8709    72.988373   -15424.609   -20844.836   -15395.875 
   80497    2107.0897    65.386562   -15616.048   -20968.248   -15590.467 
Loop time of 51.1002 on 1 procs for 495 steps with 19652 atoms

Performance: 0.837 ns/day, 28.676 hours/ns, 9.687 timesteps/s
99.5% CPU use with 1 MPI tasks x no OpenMP threads

MPI task timing breakdown:
Section |  min time  |  avg time  |  max time  |%varavg| %total
---------------------------------------------------------------
Pair    | 25.571     | 25.571     | 25.571     |   0.0 | 50.04
Neigh   | 24.04      | 24.04      | 24.04      |   0.0 | 47.05
Comm    | 0.5018     | 0.5018     | 0.5018     |   0.0 |  0.98
Output  | 0.067694   | 0.067694   | 0.067694   |   0.0 |  0.13
Modify  | 0.73336    | 0.73336    | 0.73336    |   0.0 |  1.44
Other   |            | 0.186      |            |       |  0.36

Nlocal:    19652 ave 19652 max 19652 min
Histogram: 1 0 0 0 0 0 0 0 0 0
Nghost:    14078 ave 14078 max 14078 min
Histogram: 1 0 0 0 0 0 0 0 0 0
Neighs:    783653 ave 783653 max 783653 min
Histogram: 1 0 0 0 0 0 0 0 0 0

Total # of neighbors = 783653
Ave neighs/atom = 39.8765
Neighbor list builds = 495
Dangerous builds not checked
Setting up Verlet run ...
  Unit style    : metal
  Current step  : 80497
  Time step     : 0.001
Per MPI rank memory allocation (min/avg/max) = 18.22 | 18.22 | 18.22 Mbytes
Step Temp Press TotEng PotEng Enthalpy 
   80497    2107.0897    65.386562   -15616.048   -20968.248   -15590.467 
   86669    2106.2835    215.24389   -15787.241   -21137.393   -15704.022 
Loop time of 707.673 on 1 procs for 6172 steps with 19652 atoms

Performance: 0.754 ns/day, 31.850 hours/ns, 8.722 timesteps/s
99.9% CPU use with 1 MPI tasks x no OpenMP threads

MPI task timing breakdown:
Section |  min time  |  avg time  |  max time  |%varavg| %total
---------------------------------------------------------------
Pair    | 366        | 366        | 366        |   0.0 | 51.72
Neigh   | 322.93     | 322.93     | 322.93     |   0.0 | 45.63
Comm    | 6.738      | 6.738      | 6.738      |   0.0 |  0.95
Output  | 0.00022888 | 0.00022888 | 0.00022888 |   0.0 |  0.00
Modify  | 9.5848     | 9.5848     | 9.5848     |   0.0 |  1.35
Other   |            | 2.419      |            |       |  0.34

Nlocal:    19652 ave 19652 max 19652 min
Histogram: 1 0 0 0 0 0 0 0 0 0
Nghost:    14274 ave 14274 max 14274 min
Histogram: 1 0 0 0 0 0 0 0 0 0
Neighs:    792224 ave 792224 max 792224 min
Histogram: 1 0 0 0 0 0 0 0 0 0

Total # of neighbors = 792224
Ave neighs/atom = 40.3126
Neighbor list builds = 6172
Dangerous builds not checked
Setting up Verlet run ...
  Unit style    : metal
  Current step  : 86669
  Time step     : 0.001
Per MPI rank memory allocation (min/avg/max) = 18.22 | 18.22 | 18.22 Mbytes
Step Temp Press TotEng PotEng Enthalpy 
   86669    2106.2835    215.24389   -15787.241   -21137.393   -15704.022 
   86671    2106.6011    224.50861   -15787.251    -21138.21   -15700.451 
   87164     2063.079   -188.00325   -15918.329   -21158.738   -15991.015 
Loop time of 53.676 on 1 procs for 495 steps with 19652 atoms

Performance: 0.797 ns/day, 30.121 hours/ns, 9.222 timesteps/s
99.9% CPU use with 1 MPI tasks x no OpenMP threads

MPI task timing breakdown:
Section |  min time  |  avg time  |  max time  |%varavg| %total
---------------------------------------------------------------
Pair    | 27.543     | 27.543     | 27.543     |   0.0 | 51.31
Neigh   | 24.582     | 24.582     | 24.582     |   0.0 | 45.80
Comm    | 0.52916    | 0.52916    | 0.52916    |   0.0 |  0.99
Output  | 0.06646    | 0.06646    | 0.06646    |   0.0 |  0.12
Modify  | 0.76101    | 0.76101    | 0.76101    |   0.0 |  1.42
Other   |            | 0.1946     |            |       |  0.36

Nlocal:    19652 ave 19652 max 19652 min
Histogram: 1 0 0 0 0 0 0 0 0 0
Nghost:    14226 ave 14226 max 14226 min
Histogram: 1 0 0 0 0 0 0 0 0 0
Neighs:    792046 ave 792046 max 792046 min
Histogram: 1 0 0 0 0 0 0 0 0 0

Total # of neighbors = 792046
Ave neighs/atom = 40.3036
Neighbor list builds = 495
Dangerous builds not checked
Setting up Verlet run ...
  Unit style    : metal
  Current step  : 87164
  Time step     : 0.001
Per MPI rank memory allocation (min/avg/max) = 18.22 | 18.22 | 18.22 Mbytes
Step Temp Press TotEng PotEng Enthalpy 
   87164     2063.079   -188.00325   -15918.329   -21158.738   -15991.015 
   93336     2048.135   -497.88834   -16008.268   -21210.717   -16200.616 
Loop time of 734.293 on 1 procs for 6172 steps with 19652 atoms

Performance: 0.726 ns/day, 33.048 hours/ns, 8.405 timesteps/s
99.8% CPU use with 1 MPI tasks x no OpenMP threads

MPI task timing breakdown:
Section |  min time  |  avg time  |  max time  |%varavg| %total
---------------------------------------------------------------
Pair    | 382.86     | 382.86     | 382.86     |   0.0 | 52.14
Neigh   | 332.16     | 332.16     | 332.16     |   0.0 | 45.24
Comm    | 7.02       | 7.02       | 7.02       |   0.0 |  0.96
Output  | 0.00019407 | 0.00019407 | 0.00019407 |   0.0 |  0.00
Modify  | 9.7828     | 9.7828     | 9.7828     |   0.0 |  1.33
Other   |            | 2.467      |            |       |  0.34

Nlocal:    19652 ave 19652 max 19652 min
Histogram: 1 0 0 0 0 0 0 0 0 0
Nghost:    14279 ave 14279 max 14279 min
Histogram: 1 0 0 0 0 0 0 0 0 0
Neighs:    792179 ave 792179 max 792179 min
Histogram: 1 0 0 0 0 0 0 0 0 0

Total # of neighbors = 792179
Ave neighs/atom = 40.3104
Neighbor list builds = 6172
Dangerous builds not checked
Setting up Verlet run ...
  Unit style    : metal
  Current step  : 93336
  Time step     : 0.001
Per MPI rank memory allocation (min/avg/max) = 18.22 | 18.22 | 18.22 Mbytes
Step Temp Press TotEng PotEng Enthalpy 
   93336     2048.135   -497.88834   -16008.268   -21210.717   -16200.616 
   93338    2049.0412   -505.07301    -16008.27   -21213.021   -16203.394 
   93831    2017.7368   -111.09606   -16267.725    -21392.96    -16310.17 
Loop time of 56.7934 on 1 procs for 495 steps with 19652 atoms

Performance: 0.753 ns/day, 31.871 hours/ns, 8.716 timesteps/s
99.5% CPU use with 1 MPI tasks x no OpenMP threads

MPI task timing breakdown:
Section |  min time  |  avg time  |  max time  |%varavg| %total
---------------------------------------------------------------
Pair    | 29.33      | 29.33      | 29.33      |   0.0 | 51.64
Neigh   | 25.632     | 25.632     | 25.632     |   0.0 | 45.13
Comm    | 0.55188    | 0.55188    | 0.55188    |   0.0 |  0.97
Output  | 0.3114     | 0.3114     | 0.3114     |   0.0 |  0.55
Modify  | 0.77256    | 0.77256    | 0.77256    |   0.0 |  1.36
Other   |            | 0.196      |            |       |  0.35

Nlocal:    19652 ave 19652 max 19652 min
Histogram: 1 0 0 0 0 0 0 0 0 0
Nghost:    14434 ave 14434 max 14434 min
Histogram: 1 0 0 0 0 0 0 0 0 0
Neighs:    801937 ave 801937 max 801937 min
Histogram: 1 0 0 0 0 0 0 0 0 0

Total # of neighbors = 801937
Ave neighs/atom = 40.8069
Neighbor list builds = 495
Dangerous builds not checked
Setting up Verlet run ...
  Unit style    : metal
  Current step  : 93831
  Time step     : 0.001
Per MPI rank memory allocation (min/avg/max) = 18.22 | 18.22 | 18.22 Mbytes
Step Temp Press TotEng PotEng Enthalpy 
   93831    2017.7368   -111.09606   -16267.725    -21392.96    -16310.17 
  100003    2000.7639   -479.19953    -16313.36   -21395.482   -16496.546 
Loop time of 744.905 on 1 procs for 6172 steps with 19652 atoms

Performance: 0.716 ns/day, 33.525 hours/ns, 8.286 timesteps/s
99.8% CPU use with 1 MPI tasks x no OpenMP threads

MPI task timing breakdown:
Section |  min time  |  avg time  |  max time  |%varavg| %total
---------------------------------------------------------------
Pair    | 378.03     | 378.03     | 378.03     |   0.0 | 50.75
Neigh   | 347.94     | 347.94     | 347.94     |   0.0 | 46.71
Comm    | 6.8491     | 6.8491     | 6.8491     |   0.0 |  0.92
Output  | 0.00021195 | 0.00021195 | 0.00021195 |   0.0 |  0.00
Modify  | 9.6458     | 9.6458     | 9.6458     |   0.0 |  1.29
Other   |            | 2.445      |            |       |  0.33

Nlocal:    19652 ave 19652 max 19652 min
Histogram: 1 0 0 0 0 0 0 0 0 0
Nghost:    14311 ave 14311 max 14311 min
Histogram: 1 0 0 0 0 0 0 0 0 0
Neighs:    801352 ave 801352 max 801352 min
Histogram: 1 0 0 0 0 0 0 0 0 0

Total # of neighbors = 801352
Ave neighs/atom = 40.7771
Neighbor list builds = 6172
Dangerous builds not checked
Setting up Verlet run ...
  Unit style    : metal
  Current step  : 100003
  Time step     : 0.001
Per MPI rank memory allocation (min/avg/max) = 18.22 | 18.22 | 18.22 Mbytes
Step Temp Press TotEng PotEng Enthalpy 
  100003    2000.7639   -479.19953    -16313.36   -21395.482   -16496.546 
  100005    2001.0472   -490.21885   -16313.359   -21396.201   -16500.757 
  100498    1959.3062    125.52129   -16604.182   -21580.998   -16556.777 
Loop time of 56.7046 on 1 procs for 495 steps with 19652 atoms

Performance: 0.754 ns/day, 31.821 hours/ns, 8.729 timesteps/s
99.9% CPU use with 1 MPI tasks x no OpenMP threads

MPI task timing breakdown:
Section |  min time  |  avg time  |  max time  |%varavg| %total
---------------------------------------------------------------
Pair    | 28.517     | 28.517     | 28.517     |   0.0 | 50.29
Neigh   | 26.645     | 26.645     | 26.645     |   0.0 | 46.99
Comm    | 0.52871    | 0.52871    | 0.52871    |   0.0 |  0.93
Output  | 0.068076   | 0.068076   | 0.068076   |   0.0 |  0.12
Modify  | 0.75253    | 0.75253    | 0.75253    |   0.0 |  1.33
Other   |            | 0.1932     |            |       |  0.34

Nlocal:    19652 ave 19652 max 19652 min
Histogram: 1 0 0 0 0 0 0 0 0 0
Nghost:    14334 ave 14334 max 14334 min
Histogram: 1 0 0 0 0 0 0 0 0 0
Neighs:    811566 ave 811566 max 811566 min
Histogram: 1 0 0 0 0 0 0 0 0 0

Total # of neighbors = 811566
Ave neighs/atom = 41.2969
Neighbor list builds = 495
Dangerous builds not checked
Setting up Verlet run ...
  Unit style    : metal
  Current step  : 100498
  Time step     : 0.001
Per MPI rank memory allocation (min/avg/max) = 18.22 | 18.22 | 18.22 Mbytes
Step Temp Press TotEng PotEng Enthalpy 
  100498    1959.3062    125.52129   -16604.182   -21580.998   -16556.777 
  106670    1933.4854    232.71716   -16764.902   -21676.131    -16677.55 
Loop time of 748.401 on 1 procs for 6172 steps with 19652 atoms

Performance: 0.713 ns/day, 33.683 hours/ns, 8.247 timesteps/s
99.8% CPU use with 1 MPI tasks x no OpenMP threads

MPI task timing breakdown:
Section |  min time  |  avg time  |  max time  |%varavg| %total
---------------------------------------------------------------
Pair    | 380.49     | 380.49     | 380.49     |   0.0 | 50.84
Neigh   | 348.95     | 348.95     | 348.95     |   0.0 | 46.63
Comm    | 6.8622     | 6.8622     | 6.8622     |   0.0 |  0.92
Output  | 0.000247   | 0.000247   | 0.000247   |   0.0 |  0.00
Modify  | 9.658      | 9.658      | 9.658      |   0.0 |  1.29
Other   |            | 2.441      |            |       |  0.33

Nlocal:    19652 ave 19652 max 19652 min
Histogram: 1 0 0 0 0 0 0 0 0 0
Nghost:    14373 ave 14373 max 14373 min
Histogram: 1 0 0 0 0 0 0 0 0 0
Neighs:    815953 ave 815953 max 815953 min
Histogram: 1 0 0 0 0 0 0 0 0 0

Total # of neighbors = 815953
Ave neighs/atom = 41.5201
Neighbor list builds = 6172
Dangerous builds not checked
Setting up Verlet run ...
  Unit style    : metal
  Current step  : 106670
  Time step     : 0.001
Per MPI rank memory allocation (min/avg/max) = 18.22 | 18.22 | 18.22 Mbytes
Step Temp Press TotEng PotEng Enthalpy 
  106670    1933.4854    232.71716   -16764.902   -21676.131    -16677.55 
  106672    1933.8379    236.98374   -16764.886   -21677.011   -16675.933 
  107165    1902.0732   -350.26307   -16905.233   -21736.673   -17036.838 
Loop time of 57.5214 on 1 procs for 495 steps with 19652 atoms

Performance: 0.744 ns/day, 32.279 hours/ns, 8.605 timesteps/s
97.5% CPU use with 1 MPI tasks x no OpenMP threads

MPI task timing breakdown:
Section |  min time  |  avg time  |  max time  |%varavg| %total
---------------------------------------------------------------
Pair    | 28.864     | 28.864     | 28.864     |   0.0 | 50.18
Neigh   | 27.093     | 27.093     | 27.093     |   0.0 | 47.10
Comm    | 0.53816    | 0.53816    | 0.53816    |   0.0 |  0.94
Output  | 0.060503   | 0.060503   | 0.060503   |   0.0 |  0.11
Modify  | 0.77035    | 0.77035    | 0.77035    |   0.0 |  1.34
Other   |            | 0.196      |            |       |  0.34

Nlocal:    19652 ave 19652 max 19652 min
Histogram: 1 0 0 0 0 0 0 0 0 0
Nghost:    14492 ave 14492 max 14492 min
Histogram: 1 0 0 0 0 0 0 0 0 0
Neighs:    815502 ave 815502 max 815502 min
Histogram: 1 0 0 0 0 0 0 0 0 0

Total # of neighbors = 815502
Ave neighs/atom = 41.4972
Neighbor list builds = 495
Dangerous builds not checked
Setting up Verlet run ...
  Unit style    : metal
  Current step  : 107165
  Time step     : 0.001
Per MPI rank memory allocation (min/avg/max) = 18.22 | 18.22 | 18.22 Mbytes
Step Temp Press TotEng PotEng Enthalpy 
  107165    1902.0732   -350.26307   -16905.233   -21736.673   -17036.838 
  113337    1894.3537   -374.68605   -17034.232   -21846.063   -17174.076 
Loop time of 770.264 on 1 procs for 6172 steps with 19652 atoms

Performance: 0.692 ns/day, 34.667 hours/ns, 8.013 timesteps/s
99.9% CPU use with 1 MPI tasks x no OpenMP threads

MPI task timing breakdown:
Section |  min time  |  avg time  |  max time  |%varavg| %total
---------------------------------------------------------------
Pair    | 399.3      | 399.3      | 399.3      |   0.0 | 51.84
Neigh   | 351.5      | 351.5      | 351.5      |   0.0 | 45.63
Comm    | 7.1309     | 7.1309     | 7.1309     |   0.0 |  0.93
Output  | 0.00024009 | 0.00024009 | 0.00024009 |   0.0 |  0.00
Modify  | 9.8508     | 9.8508     | 9.8508     |   0.0 |  1.28
Other   |            | 2.487      |            |       |  0.32

Nlocal:    19652 ave 19652 max 19652 min
Histogram: 1 0 0 0 0 0 0 0 0 0
Nghost:    14464 ave 14464 max 14464 min
Histogram: 1 0 0 0 0 0 0 0 0 0
Neighs:    820982 ave 820982 max 820982 min
Histogram: 1 0 0 0 0 0 0 0 0 0

Total # of neighbors = 820982
Ave neighs/atom = 41.776
Neighbor list builds = 6172
Dangerous builds not checked
Setting up Verlet run ...
  Unit style    : metal
  Current step  : 113337
  Time step     : 0.001
Per MPI rank memory allocation (min/avg/max) = 18.22 | 18.22 | 18.22 Mbytes
Step Temp Press TotEng PotEng Enthalpy 
  113337    1894.3537   -374.68605   -17034.232   -21846.063   -17174.076 
  113339     1895.337   -379.91232    -17034.23   -21848.559   -17176.025 
  113832    1864.7272    -100.3495   -17228.743    -21965.32   -17265.947 
Loop time of 61.722 on 1 procs for 495 steps with 19652 atoms

Performance: 0.693 ns/day, 34.636 hours/ns, 8.020 timesteps/s
99.7% CPU use with 1 MPI tasks x no OpenMP threads

MPI task timing breakdown:
Section |  min time  |  avg time  |  max time  |%varavg| %total
---------------------------------------------------------------
Pair    | 31.891     | 31.891     | 31.891     |   0.0 | 51.67
Neigh   | 28.15      | 28.15      | 28.15      |   0.0 | 45.61
Comm    | 0.58085    | 0.58085    | 0.58085    |   0.0 |  0.94
Output  | 0.0669     | 0.0669     | 0.0669     |   0.0 |  0.11
Modify  | 0.8267     | 0.8267     | 0.8267     |   0.0 |  1.34
Other   |            | 0.2069     |            |       |  0.34

Nlocal:    19652 ave 19652 max 19652 min
Histogram: 1 0 0 0 0 0 0 0 0 0
Nghost:    14495 ave 14495 max 14495 min
Histogram: 1 0 0 0 0 0 0 0 0 0
Neighs:    826178 ave 826178 max 826178 min
Histogram: 1 0 0 0 0 0 0 0 0 0

Total # of neighbors = 826178
Ave neighs/atom = 42.0404
Neighbor list builds = 495
Dangerous builds not checked
Setting up Verlet run ...
  Unit style    : metal
  Current step  : 113832
  Time step     : 0.001
Per MPI rank memory allocation (min/avg/max) = 18.22 | 18.22 | 18.22 Mbytes
Step Temp Press TotEng PotEng Enthalpy 
  113832    1864.7272    -100.3495   -17228.743    -21965.32   -17265.947 
  120004    1837.1351   -274.37122   -17339.204   -22005.695   -17440.682 
Loop time of 793.455 on 1 procs for 6172 steps with 19652 atoms

Performance: 0.672 ns/day, 35.710 hours/ns, 7.779 timesteps/s
99.8% CPU use with 1 MPI tasks x no OpenMP threads

MPI task timing breakdown:
Section |  min time  |  avg time  |  max time  |%varavg| %total
---------------------------------------------------------------
Pair    | 414.64     | 414.64     | 414.64     |   0.0 | 52.26
Neigh   | 358.48     | 358.48     | 358.48     |   0.0 | 45.18
Comm    | 7.4527     | 7.4527     | 7.4527     |   0.0 |  0.94
Output  | 0.0002501  | 0.0002501  | 0.0002501  |   0.0 |  0.00
Modify  | 10.314     | 10.314     | 10.314     |   0.0 |  1.30
Other   |            | 2.563      |            |       |  0.32

Nlocal:    19652 ave 19652 max 19652 min
Histogram: 1 0 0 0 0 0 0 0 0 0
Nghost:    14430 ave 14430 max 14430 min
Histogram: 1 0 0 0 0 0 0 0 0 0
Neighs:    828139 ave 828139 max 828139 min
Histogram: 1 0 0 0 0 0 0 0 0 0

Total # of neighbors = 828139
Ave neighs/atom = 42.1402
Neighbor list builds = 6172
Dangerous builds not checked
Setting up Verlet run ...
  Unit style    : metal
  Current step  : 120004
  Time step     : 0.001
Per MPI rank memory allocation (min/avg/max) = 18.22 | 18.22 | 18.22 Mbytes
Step Temp Press TotEng PotEng Enthalpy 
  120004    1837.1351   -274.37122   -17339.204   -22005.695   -17440.682 
  120006    1837.5272   -284.12411    -17339.19   -22006.676   -17444.275 
  120499    1824.3443   -53.376269   -17555.815   -22189.816   -17575.381 
Loop time of 60.3865 on 1 procs for 495 steps with 19652 atoms

Performance: 0.708 ns/day, 33.887 hours/ns, 8.197 timesteps/s
100.0% CPU use with 1 MPI tasks x no OpenMP threads

MPI task timing breakdown:
Section |  min time  |  avg time  |  max time  |%varavg| %total
---------------------------------------------------------------
Pair    | 31.152     | 31.152     | 31.152     |   0.0 | 51.59
Neigh   | 27.622     | 27.622     | 27.622     |   0.0 | 45.74
Comm    | 0.55613    | 0.55613    | 0.55613    |   0.0 |  0.92
Output  | 0.068486   | 0.068486   | 0.068486   |   0.0 |  0.11
Modify  | 0.78668    | 0.78668    | 0.78668    |   0.0 |  1.30
Other   |            | 0.2008     |            |       |  0.33

Nlocal:    19652 ave 19652 max 19652 min
Histogram: 1 0 0 0 0 0 0 0 0 0
Nghost:    14623 ave 14623 max 14623 min
Histogram: 1 0 0 0 0 0 0 0 0 0
Neighs:    835292 ave 835292 max 835292 min
Histogram: 1 0 0 0 0 0 0 0 0 0

Total # of neighbors = 835292
Ave neighs/atom = 42.5042
Neighbor list builds = 495
Dangerous builds not checked
Setting up Verlet run ...
  Unit style    : metal
  Current step  : 120499
  Time step     : 0.001
Per MPI rank memory allocation (min/avg/max) = 18.22 | 18.22 | 18.22 Mbytes
Step Temp Press TotEng PotEng Enthalpy 
  120499    1824.3443   -53.376269   -17555.815   -22189.816   -17575.381 
  126671    1808.4229    -88.23971   -17618.028   -22211.587   -17650.327 
Loop time of 800.87 on 1 procs for 6172 steps with 19652 atoms

Performance: 0.666 ns/day, 36.044 hours/ns, 7.707 timesteps/s
99.8% CPU use with 1 MPI tasks x no OpenMP threads

MPI task timing breakdown:
Section |  min time  |  avg time  |  max time  |%varavg| %total
---------------------------------------------------------------
Pair    | 420.48     | 420.48     | 420.48     |   0.0 | 52.50
Neigh   | 360.08     | 360.08     | 360.08     |   0.0 | 44.96
Comm    | 7.4326     | 7.4326     | 7.4326     |   0.0 |  0.93
Output  | 0.00024796 | 0.00024796 | 0.00024796 |   0.0 |  0.00
Modify  | 10.299     | 10.299     | 10.299     |   0.0 |  1.29
Other   |            | 2.582      |            |       |  0.32

Nlocal:    19652 ave 19652 max 19652 min
Histogram: 1 0 0 0 0 0 0 0 0 0
Nghost:    14642 ave 14642 max 14642 min
Histogram: 1 0 0 0 0 0 0 0 0 0
Neighs:    836747 ave 836747 max 836747 min
Histogram: 1 0 0 0 0 0 0 0 0 0

Total # of neighbors = 836747
Ave neighs/atom = 42.5782
Neighbor list builds = 6172
Dangerous builds not checked
Setting up Verlet run ...
  Unit style    : metal
  Current step  : 126671
  Time step     : 0.001
Per MPI rank memory allocation (min/avg/max) = 18.22 | 18.22 | 18.22 Mbytes
Step Temp Press TotEng PotEng Enthalpy 
  126671    1808.4229    -88.23971   -17618.028   -22211.587   -17650.327 
  126673    1808.4373   -87.737628   -17618.037   -22211.633   -17650.153 
  127166    1757.5229    239.13508   -17849.907   -22314.175   -17762.932 
Loop time of 62.9132 on 1 procs for 495 steps with 19652 atoms

Performance: 0.680 ns/day, 35.305 hours/ns, 7.868 timesteps/s
99.8% CPU use with 1 MPI tasks x no OpenMP threads

MPI task timing breakdown:
Section |  min time  |  avg time  |  max time  |%varavg| %total
---------------------------------------------------------------
Pair    | 32.754     | 32.754     | 32.754     |   0.0 | 52.06
Neigh   | 28.407     | 28.407     | 28.407     |   0.0 | 45.15
Comm    | 0.60421    | 0.60421    | 0.60421    |   0.0 |  0.96
Output  | 0.068726   | 0.068726   | 0.068726   |   0.0 |  0.11
Modify  | 0.86502    | 0.86502    | 0.86502    |   0.0 |  1.37
Other   |            | 0.2141     |            |       |  0.34

Nlocal:    19652 ave 19652 max 19652 min
Histogram: 1 0 0 0 0 0 0 0 0 0
Nghost:    14618 ave 14618 max 14618 min
Histogram: 1 0 0 0 0 0 0 0 0 0
Neighs:    842432 ave 842432 max 842432 min
Histogram: 1 0 0 0 0 0 0 0 0 0

Total # of neighbors = 842432
Ave neighs/atom = 42.8675
Neighbor list builds = 495
Dangerous builds not checked
Setting up Verlet run ...
  Unit style    : metal
  Current step  : 127166
  Time step     : 0.001
Per MPI rank memory allocation (min/avg/max) = 18.22 | 18.22 | 18.22 Mbytes
Step Temp Press TotEng PotEng Enthalpy 
  127166    1757.5229    239.13508   -17849.907   -22314.175   -17762.932 
  133338     1760.569   -193.90025   -17939.545   -22411.551   -18009.851 
Loop time of 821.038 on 1 procs for 6172 steps with 19652 atoms

Performance: 0.649 ns/day, 36.952 hours/ns, 7.517 timesteps/s
99.7% CPU use with 1 MPI tasks x no OpenMP threads

MPI task timing breakdown:
Section |  min time  |  avg time  |  max time  |%varavg| %total
---------------------------------------------------------------
Pair    | 436.37     | 436.37     | 436.37     |   0.0 | 53.15
Neigh   | 363.66     | 363.66     | 363.66     |   0.0 | 44.29
Comm    | 7.776      | 7.776      | 7.776      |   0.0 |  0.95
Output  | 0.00024104 | 0.00024104 | 0.00024104 |   0.0 |  0.00
Modify  | 10.589     | 10.589     | 10.589     |   0.0 |  1.29
Other   |            | 2.648      |            |       |  0.32

Nlocal:    19652 ave 19652 max 19652 min
Histogram: 1 0 0 0 0 0 0 0 0 0
Nghost:    14541 ave 14541 max 14541 min
Histogram: 1 0 0 0 0 0 0 0 0 0
Neighs:    844894 ave 844894 max 844894 min
Histogram: 1 0 0 0 0 0 0 0 0 0

Total # of neighbors = 844894
Ave neighs/atom = 42.9928
Neighbor list builds = 6172
Dangerous builds not checked
Setting up Verlet run ...
  Unit style    : metal
  Current step  : 133338
  Time step     : 0.001
Per MPI rank memory allocation (min/avg/max) = 18.22 | 18.22 | 18.22 Mbytes
Step Temp Press TotEng PotEng Enthalpy 
  133338     1760.569   -193.90025   -17939.545   -22411.551   -18009.851 
  133340    1760.6756   -195.69499   -17939.556   -22411.833   -18010.512 
  133833    1706.6878    57.986071   -18155.157   -22490.299   -18134.265 
Loop time of 61.38 on 1 procs for 495 steps with 19652 atoms

Performance: 0.697 ns/day, 34.444 hours/ns, 8.065 timesteps/s
99.9% CPU use with 1 MPI tasks x no OpenMP threads

MPI task timing breakdown:
Section |  min time  |  avg time  |  max time  |%varavg| %total
---------------------------------------------------------------
Pair    | 32.18      | 32.18      | 32.18      |   0.0 | 52.43
Neigh   | 27.549     | 27.549     | 27.549     |   0.0 | 44.88
Comm    | 0.579      | 0.579      | 0.579      |   0.0 |  0.94
Output  | 0.070438   | 0.070438   | 0.070438   |   0.0 |  0.11
Modify  | 0.79415    | 0.79415    | 0.79415    |   0.0 |  1.29
Other   |            | 0.2074     |            |       |  0.34

Nlocal:    19652 ave 19652 max 19652 min
Histogram: 1 0 0 0 0 0 0 0 0 0
Nghost:    14662 ave 14662 max 14662 min
Histogram: 1 0 0 0 0 0 0 0 0 0
Neighs:    850189 ave 850189 max 850189 min
Histogram: 1 0 0 0 0 0 0 0 0 0

Total # of neighbors = 850189
Ave neighs/atom = 43.2622
Neighbor list builds = 495
Dangerous builds not checked
Setting up Verlet run ...
  Unit style    : metal
  Current step  : 133833
  Time step     : 0.001
Per MPI rank memory allocation (min/avg/max) = 18.22 | 18.22 | 18.22 Mbytes
Step Temp Press TotEng PotEng Enthalpy 
  133833    1706.6878    57.986071   -18155.157   -22490.299   -18134.265 
  140005    1714.7513    328.90628   -18256.887   -22612.512   -18139.049 
Loop time of 807.126 on 1 procs for 6172 steps with 19652 atoms

Performance: 0.661 ns/day, 36.326 hours/ns, 7.647 timesteps/s
99.5% CPU use with 1 MPI tasks x no OpenMP threads

MPI task timing breakdown:
Section |  min time  |  avg time  |  max time  |%varavg| %total
---------------------------------------------------------------
Pair    | 428.24     | 428.24     | 428.24     |   0.0 | 53.06
Neigh   | 358.61     | 358.61     | 358.61     |   0.0 | 44.43
Comm    | 7.5216     | 7.5216     | 7.5216     |   0.0 |  0.93
Output  | 0.00022006 | 0.00022006 | 0.00022006 |   0.0 |  0.00
Modify  | 10.163     | 10.163     | 10.163     |   0.0 |  1.26
Other   |            | 2.59       |            |       |  0.32

Nlocal:    19652 ave 19652 max 19652 min
Histogram: 1 0 0 0 0 0 0 0 0 0
Nghost:    14765 ave 14765 max 14765 min
Histogram: 1 0 0 0 0 0 0 0 0 0
Neighs:    855494 ave 855494 max 855494 min
Histogram: 1 0 0 0 0 0 0 0 0 0

Total # of neighbors = 855494
Ave neighs/atom = 43.5322
Neighbor list builds = 6172
Dangerous builds not checked
Setting up Verlet run ...
  Unit style    : metal
  Current step  : 140005
  Time step     : 0.001
Per MPI rank memory allocation (min/avg/max) = 18.22 | 18.22 | 18.22 Mbytes
Step Temp Press TotEng PotEng Enthalpy 
  140005    1714.7513    328.90628   -18256.887   -22612.512   -18139.049 
  140007    1715.7034    317.32044   -18256.903   -22614.946   -18143.216 
  140500    1659.7848   -303.12288   -18461.872   -22677.876   -18570.341 
Loop time of 66.5388 on 1 procs for 495 steps with 19652 atoms

Performance: 0.643 ns/day, 37.339 hours/ns, 7.439 timesteps/s
99.4% CPU use with 1 MPI tasks x no OpenMP threads

MPI task timing breakdown:
Section |  min time  |  avg time  |  max time  |%varavg| %total
---------------------------------------------------------------
Pair    | 35.972     | 35.972     | 35.972     |   0.0 | 54.06
Neigh   | 28.66      | 28.66      | 28.66      |   0.0 | 43.07
Comm    | 0.69816    | 0.69816    | 0.69816    |   0.0 |  1.05
Output  | 0.068875   | 0.068875   | 0.068875   |   0.0 |  0.10
Modify  | 0.92051    | 0.92051    | 0.92051    |   0.0 |  1.38
Other   |            | 0.2193     |            |       |  0.33

Nlocal:    19652 ave 19652 max 19652 min
Histogram: 1 0 0 0 0 0 0 0 0 0
Nghost:    14738 ave 14738 max 14738 min
Histogram: 1 0 0 0 0 0 0 0 0 0
Neighs:    856167 ave 856167 max 856167 min
Histogram: 1 0 0 0 0 0 0 0 0 0

Total # of neighbors = 856167
Ave neighs/atom = 43.5664
Neighbor list builds = 495
Dangerous builds not checked
Setting up Verlet run ...
  Unit style    : metal
  Current step  : 140500
  Time step     : 0.001
Per MPI rank memory allocation (min/avg/max) = 18.22 | 18.22 | 18.22 Mbytes
Step Temp Press TotEng PotEng Enthalpy 
  140500    1659.7848   -303.12288   -18461.872   -22677.876   -18570.341 
  146672    1639.8237    120.21608   -18577.873   -22743.175   -18535.099 
Loop time of 793.302 on 1 procs for 6172 steps with 19652 atoms

Performance: 0.672 ns/day, 35.703 hours/ns, 7.780 timesteps/s
99.9% CPU use with 1 MPI tasks x no OpenMP threads

MPI task timing breakdown:
Section |  min time  |  avg time  |  max time  |%varavg| %total
---------------------------------------------------------------
Pair    | 419.25     | 419.25     | 419.25     |   0.0 | 52.85
Neigh   | 354.21     | 354.21     | 354.21     |   0.0 | 44.65
Comm    | 7.2634     | 7.2634     | 7.2634     |   0.0 |  0.92
Output  | 0.00025892 | 0.00025892 | 0.00025892 |   0.0 |  0.00
Modify  | 9.9907     | 9.9907     | 9.9907     |   0.0 |  1.26
Other   |            | 2.584      |            |       |  0.33

Nlocal:    19652 ave 19652 max 19652 min
Histogram: 1 0 0 0 0 0 0 0 0 0
Nghost:    14722 ave 14722 max 14722 min
Histogram: 1 0 0 0 0 0 0 0 0 0
Neighs:    861425 ave 861425 max 861425 min
Histogram: 1 0 0 0 0 0 0 0 0 0

Total # of neighbors = 861425
Ave neighs/atom = 43.834
Neighbor list builds = 6172
Dangerous builds not checked
Setting up Verlet run ...
  Unit style    : metal
  Current step  : 146672
  Time step     : 0.001
Per MPI rank memory allocation (min/avg/max) = 18.22 | 18.22 | 18.22 Mbytes
Step Temp Press TotEng PotEng Enthalpy 
  146672    1639.8237    120.21608   -18577.873   -22743.175   -18535.099 
  146674    1640.5021     114.0223   -18577.865    -22744.89   -18537.294 
  147167    1613.0508   -87.849884    -18768.56   -22865.855   -18799.706 
Loop time of 47.2873 on 1 procs for 495 steps with 19652 atoms

Performance: 0.904 ns/day, 26.536 hours/ns, 10.468 timesteps/s
100.0% CPU use with 1 MPI tasks x no OpenMP threads

MPI task timing breakdown:
Section |  min time  |  avg time  |  max time  |%varavg| %total
---------------------------------------------------------------
Pair    | 23.579     | 23.579     | 23.579     |   0.0 | 49.86
Neigh   | 22.389     | 22.389     | 22.389     |   0.0 | 47.35
Comm    | 0.45755    | 0.45755    | 0.45755    |   0.0 |  0.97
Output  | 0.069337   | 0.069337   | 0.069337   |   0.0 |  0.15
Modify  | 0.62113    | 0.62113    | 0.62113    |   0.0 |  1.31
Other   |            | 0.1708     |            |       |  0.36

Nlocal:    19652 ave 19652 max 19652 min
Histogram: 1 0 0 0 0 0 0 0 0 0
Nghost:    14777 ave 14777 max 14777 min
Histogram: 1 0 0 0 0 0 0 0 0 0
Neighs:    864803 ave 864803 max 864803 min
Histogram: 1 0 0 0 0 0 0 0 0 0

Total # of neighbors = 864803
Ave neighs/atom = 44.0059
Neighbor list builds = 495
Dangerous builds not checked
Setting up Verlet run ...
  Unit style    : metal
  Current step  : 147167
  Time step     : 0.001
Per MPI rank memory allocation (min/avg/max) = 18.22 | 18.22 | 18.22 Mbytes
Step Temp Press TotEng PotEng Enthalpy 
  147167    1613.0508   -87.849884    -18768.56   -22865.855   -18799.706 
  153339    1600.1703    19.443711   -18877.165   -22941.743     -18870.3 
Loop time of 577.825 on 1 procs for 6172 steps with 19652 atoms

Performance: 0.923 ns/day, 26.006 hours/ns, 10.681 timesteps/s
100.0% CPU use with 1 MPI tasks x no OpenMP threads

MPI task timing breakdown:
Section |  min time  |  avg time  |  max time  |%varavg| %total
---------------------------------------------------------------
Pair    | 292.27     | 292.27     | 292.27     |   0.0 | 50.58
Neigh   | 270.91     | 270.91     | 270.91     |   0.0 | 46.88
Comm    | 5.4309     | 5.4309     | 5.4309     |   0.0 |  0.94
Output  | 0.00018001 | 0.00018001 | 0.00018001 |   0.0 |  0.00
Modify  | 7.2416     | 7.2416     | 7.2416     |   0.0 |  1.25
Other   |            | 1.975      |            |       |  0.34

Nlocal:    19652 ave 19652 max 19652 min
Histogram: 1 0 0 0 0 0 0 0 0 0
Nghost:    14706 ave 14706 max 14706 min
Histogram: 1 0 0 0 0 0 0 0 0 0
Neighs:    868187 ave 868187 max 868187 min
Histogram: 1 0 0 0 0 0 0 0 0 0

Total # of neighbors = 868187
Ave neighs/atom = 44.178
Neighbor list builds = 6172
Dangerous builds not checked
Setting up Verlet run ...
  Unit style    : metal
  Current step  : 153339
  Time step     : 0.001
Per MPI rank memory allocation (min/avg/max) = 18.22 | 18.22 | 18.22 Mbytes
Step Temp Press TotEng PotEng Enthalpy 
  153339    1600.1703    19.443711   -18877.165   -22941.743     -18870.3 
  153341    1600.2315    18.634037   -18877.167   -22941.901   -18870.588 
  153834     1561.904    -114.6425   -19072.522     -23039.9   -19112.863 
Loop time of 41.1527 on 1 procs for 495 steps with 19652 atoms

Performance: 1.039 ns/day, 23.094 hours/ns, 12.028 timesteps/s
100.0% CPU use with 1 MPI tasks x no OpenMP threads

MPI task timing breakdown:
Section |  min time  |  avg time  |  max time  |%varavg| %total
---------------------------------------------------------------
Pair    | 20.144     | 20.144     | 20.144     |   0.0 | 48.95
Neigh   | 19.911     | 19.911     | 19.911     |   0.0 | 48.38
Comm    | 0.38475    | 0.38475    | 0.38475    |   0.0 |  0.93
Output  | 0.044559   | 0.044559   | 0.044559   |   0.0 |  0.11
Modify  | 0.52479    | 0.52479    | 0.52479    |   0.0 |  1.28
Other   |            | 0.1434     |            |       |  0.35

Nlocal:    19652 ave 19652 max 19652 min
Histogram: 1 0 0 0 0 0 0 0 0 0
Nghost:    14805 ave 14805 max 14805 min
Histogram: 1 0 0 0 0 0 0 0 0 0
Neighs:    871518 ave 871518 max 871518 min
Histogram: 1 0 0 0 0 0 0 0 0 0

Total # of neighbors = 871518
Ave neighs/atom = 44.3475
Neighbor list builds = 495
Dangerous builds not checked
Setting up Verlet run ...
  Unit style    : metal
  Current step  : 153834
  Time step     : 0.001
Per MPI rank memory allocation (min/avg/max) = 18.22 | 18.22 | 18.22 Mbytes
Step Temp Press TotEng PotEng Enthalpy 
  153834     1561.904    -114.6425   -19072.522     -23039.9   -19112.863 
  160006    1550.3615    302.86564   -19225.883   -23163.943   -19120.014 
Loop time of 603.351 on 1 procs for 6172 steps with 19652 atoms

Performance: 0.884 ns/day, 27.154 hours/ns, 10.230 timesteps/s
100.0% CPU use with 1 MPI tasks x no OpenMP threads

MPI task timing breakdown:
Section |  min time  |  avg time  |  max time  |%varavg| %total
---------------------------------------------------------------
Pair    | 310.61     | 310.61     | 310.61     |   0.0 | 51.48
Neigh   | 277        | 277        | 277        |   0.0 | 45.91
Comm    | 5.8591     | 5.8591     | 5.8591     |   0.0 |  0.97
Output  | 0.00036287 | 0.00036287 | 0.00036287 |   0.0 |  0.00
Modify  | 7.7085     | 7.7085     | 7.7085     |   0.0 |  1.28
Other   |            | 2.171      |            |       |  0.36

Nlocal:    19652 ave 19652 max 19652 min
Histogram: 1 0 0 0 0 0 0 0 0 0
Nghost:    14805 ave 14805 max 14805 min
Histogram: 1 0 0 0 0 0 0 0 0 0
Neighs:    877634 ave 877634 max 877634 min
Histogram: 1 0 0 0 0 0 0 0 0 0

Total # of neighbors = 877634
Ave neighs/atom = 44.6588
Neighbor list builds = 6172
Dangerous builds not checked
Setting up Verlet run ...
  Unit style    : metal
  Current step  : 160006
  Time step     : 0.001
Per MPI rank memory allocation (min/avg/max) = 18.22 | 18.22 | 18.22 Mbytes
Step Temp Press TotEng PotEng Enthalpy 
  160006    1550.3615    302.86564   -19225.883   -23163.943   -19120.014 
  160008    1550.5657    291.28357   -19225.886   -23164.464   -19124.065 
  160501    1517.7725    220.59581   -19376.029   -23231.309   -19299.121 
Loop time of 53.3774 on 1 procs for 495 steps with 19652 atoms

Performance: 0.801 ns/day, 29.954 hours/ns, 9.274 timesteps/s
99.9% CPU use with 1 MPI tasks x no OpenMP threads

MPI task timing breakdown:
Section |  min time  |  avg time  |  max time  |%varavg| %total
---------------------------------------------------------------
Pair    | 27.764     | 27.764     | 27.764     |   0.0 | 52.01
Neigh   | 24.092     | 24.092     | 24.092     |   0.0 | 45.13
Comm    | 0.53628    | 0.53628    | 0.53628    |   0.0 |  1.00
Output  | 0.069348   | 0.069348   | 0.069348   |   0.0 |  0.13
Modify  | 0.71843    | 0.71843    | 0.71843    |   0.0 |  1.35
Other   |            | 0.1979     |            |       |  0.37

Nlocal:    19652 ave 19652 max 19652 min
Histogram: 1 0 0 0 0 0 0 0 0 0
Nghost:    14856 ave 14856 max 14856 min
Histogram: 1 0 0 0 0 0 0 0 0 0
Neighs:    880190 ave 880190 max 880190 min
Histogram: 1 0 0 0 0 0 0 0 0 0

Total # of neighbors = 880190
Ave neighs/atom = 44.7888
Neighbor list builds = 495
Dangerous builds not checked
Setting up Verlet run ...
  Unit style    : metal
  Current step  : 160501
  Time step     : 0.001
Per MPI rank memory allocation (min/avg/max) = 18.22 | 18.22 | 18.22 Mbytes
Step Temp Press TotEng PotEng Enthalpy 
  160501    1517.7725    220.59581   -19376.029   -23231.309   -19299.121 
  166673    1512.5012    564.27213   -19508.281   -23350.172   -19312.774 
Loop time of 662.081 on 1 procs for 6172 steps with 19652 atoms

Performance: 0.805 ns/day, 29.798 hours/ns, 9.322 timesteps/s
99.9% CPU use with 1 MPI tasks x no OpenMP threads

MPI task timing breakdown:
Section |  min time  |  avg time  |  max time  |%varavg| %total
---------------------------------------------------------------
Pair    | 347.45     | 347.45     | 347.45     |   0.0 | 52.48
Neigh   | 297.06     | 297.06     | 297.06     |   0.0 | 44.87
Comm    | 6.5528     | 6.5528     | 6.5528     |   0.0 |  0.99
Output  | 0.00018787 | 0.00018787 | 0.00018787 |   0.0 |  0.00
Modify  | 8.6507     | 8.6507     | 8.6507     |   0.0 |  1.31
Other   |            | 2.368      |            |       |  0.36

Nlocal:    19652 ave 19652 max 19652 min
Histogram: 1 0 0 0 0 0 0 0 0 0
Nghost:    14923 ave 14923 max 14923 min
Histogram: 1 0 0 0 0 0 0 0 0 0
Neighs:    884909 ave 884909 max 884909 min
Histogram: 1 0 0 0 0 0 0 0 0 0

Total # of neighbors = 884909
Ave neighs/atom = 45.029
Neighbor list builds = 6172
Dangerous builds not checked
Setting up Verlet run ...
  Unit style    : metal
  Current step  : 166673
  Time step     : 0.001
Per MPI rank memory allocation (min/avg/max) = 18.22 | 18.22 | 18.22 Mbytes
Step Temp Press TotEng PotEng Enthalpy 
  166673    1512.5012    564.27213   -19508.281   -23350.172   -19312.774 
  166675    1512.5645    559.22102   -19508.296   -23350.347   -19314.539 
  167168    1464.5161    -179.3999   -19638.634   -23358.639   -19700.898 
Loop time of 50.592 on 1 procs for 495 steps with 19652 atoms

Performance: 0.845 ns/day, 28.391 hours/ns, 9.784 timesteps/s
99.8% CPU use with 1 MPI tasks x no OpenMP threads

MPI task timing breakdown:
Section |  min time  |  avg time  |  max time  |%varavg| %total
---------------------------------------------------------------
Pair    | 25.969     | 25.969     | 25.969     |   0.0 | 51.33
Neigh   | 23.107     | 23.107     | 23.107     |   0.0 | 45.67
Comm    | 0.52723    | 0.52723    | 0.52723    |   0.0 |  1.04
Output  | 0.087952   | 0.087952   | 0.087952   |   0.0 |  0.17
Modify  | 0.70504    | 0.70504    | 0.70504    |   0.0 |  1.39
Other   |            | 0.1955     |            |       |  0.39

Nlocal:    19652 ave 19652 max 19652 min
Histogram: 1 0 0 0 0 0 0 0 0 0
Nghost:    14939 ave 14939 max 14939 min
Histogram: 1 0 0 0 0 0 0 0 0 0
Neighs:    884171 ave 884171 max 884171 min
Histogram: 1 0 0 0 0 0 0 0 0 0

Total # of neighbors = 884171
Ave neighs/atom = 44.9914
Neighbor list builds = 495
Dangerous builds not checked
Setting up Verlet run ...
  Unit style    : metal
  Current step  : 167168
  Time step     : 0.001
Per MPI rank memory allocation (min/avg/max) = 18.22 | 18.22 | 18.22 Mbytes
Step Temp Press TotEng PotEng Enthalpy 
  167168    1464.5161    -179.3999   -19638.634   -23358.639   -19700.898 
  173340    1466.1565    143.46668   -19703.872   -23428.043   -19654.322 
Loop time of 736.698 on 1 procs for 6172 steps with 19652 atoms

Performance: 0.724 ns/day, 33.156 hours/ns, 8.378 timesteps/s
99.9% CPU use with 1 MPI tasks x no OpenMP threads

MPI task timing breakdown:
Section |  min time  |  avg time  |  max time  |%varavg| %total
---------------------------------------------------------------
Pair    | 395.59     | 395.59     | 395.59     |   0.0 | 53.70
Neigh   | 320.78     | 320.78     | 320.78     |   0.0 | 43.54
Comm    | 7.6311     | 7.6311     | 7.6311     |   0.0 |  1.04
Output  | 0.00020814 | 0.00020814 | 0.00020814 |   0.0 |  0.00
Modify  | 9.9879     | 9.9879     | 9.9879     |   0.0 |  1.36
Other   |            | 2.702      |            |       |  0.37

Nlocal:    19652 ave 19652 max 19652 min
Histogram: 1 0 0 0 0 0 0 0 0 0
Nghost:    14863 ave 14863 max 14863 min
Histogram: 1 0 0 0 0 0 0 0 0 0
Neighs:    888449 ave 888449 max 888449 min
Histogram: 1 0 0 0 0 0 0 0 0 0

Total # of neighbors = 888449
Ave neighs/atom = 45.2091
Neighbor list builds = 6172
Dangerous builds not checked
Setting up Verlet run ...
  Unit style    : metal
  Current step  : 173340
  Time step     : 0.001
Per MPI rank memory allocation (min/avg/max) = 18.22 | 18.22 | 18.22 Mbytes
Step Temp Press TotEng PotEng Enthalpy 
  173340    1466.1565    143.46668   -19703.872   -23428.043   -19654.322 
  173342    1467.0596    137.30769   -19703.889   -23430.354   -19656.466 
  173835     1413.101    292.20979   -19976.744    -23566.15   -19876.519 
Loop time of 55.3939 on 1 procs for 495 steps with 19652 atoms

Performance: 0.772 ns/day, 31.085 hours/ns, 8.936 timesteps/s
100.0% CPU use with 1 MPI tasks x no OpenMP threads

MPI task timing breakdown:
Section |  min time  |  avg time  |  max time  |%varavg| %total
---------------------------------------------------------------
Pair    | 28.994     | 28.994     | 28.994     |   0.0 | 52.34
Neigh   | 24.693     | 24.693     | 24.693     |   0.0 | 44.58
Comm    | 0.60804    | 0.60804    | 0.60804    |   0.0 |  1.10
Output  | 0.070755   | 0.070755   | 0.070755   |   0.0 |  0.13
Modify  | 0.80918    | 0.80918    | 0.80918    |   0.0 |  1.46
Other   |            | 0.219      |            |       |  0.40

Nlocal:    19652 ave 19652 max 19652 min
Histogram: 1 0 0 0 0 0 0 0 0 0
Nghost:    14983 ave 14983 max 14983 min
Histogram: 1 0 0 0 0 0 0 0 0 0
Neighs:    894376 ave 894376 max 894376 min
Histogram: 1 0 0 0 0 0 0 0 0 0

Total # of neighbors = 894376
Ave neighs/atom = 45.5107
Neighbor list builds = 495
Dangerous builds not checked
Setting up Verlet run ...
  Unit style    : metal
  Current step  : 173835
  Time step     : 0.001
Per MPI rank memory allocation (min/avg/max) = 18.22 | 18.22 | 18.22 Mbytes
Step Temp Press TotEng PotEng Enthalpy 
  173835     1413.101    292.20979   -19976.744    -23566.15   -19876.519 
  180007    1387.0458   -31.075301   -20172.395   -23695.617   -20183.012 
Loop time of 739.282 on 1 procs for 6172 steps with 19652 atoms

Performance: 0.721 ns/day, 33.272 hours/ns, 8.349 timesteps/s
99.9% CPU use with 1 MPI tasks x no OpenMP threads

MPI task timing breakdown:
Section |  min time  |  avg time  |  max time  |%varavg| %total
---------------------------------------------------------------
Pair    | 397.73     | 397.73     | 397.73     |   0.0 | 53.80
Neigh   | 321.19     | 321.19     | 321.19     |   0.0 | 43.45
Comm    | 7.6732     | 7.6732     | 7.6732     |   0.0 |  1.04
Output  | 0.00033116 | 0.00033116 | 0.00033116 |   0.0 |  0.00
Modify  | 10.013     | 10.013     | 10.013     |   0.0 |  1.35
Other   |            | 2.681      |            |       |  0.36

Nlocal:    19652 ave 19652 max 19652 min
Histogram: 1 0 0 0 0 0 0 0 0 0
Nghost:    14939 ave 14939 max 14939 min
Histogram: 1 0 0 0 0 0 0 0 0 0
Neighs:    898170 ave 898170 max 898170 min
Histogram: 1 0 0 0 0 0 0 0 0 0

Total # of neighbors = 898170
Ave neighs/atom = 45.7037
Neighbor list builds = 6172
Dangerous builds not checked
Setting up Verlet run ...
  Unit style    : metal
  Current step  : 180007
  Time step     : 0.001
Per MPI rank memory allocation (min/avg/max) = 18.22 | 18.22 | 18.22 Mbytes
Step Temp Press TotEng PotEng Enthalpy 
  180007    1387.0458   -31.075301   -20172.395   -23695.617   -20183.012 
  180009    1386.0759   -21.619999   -20172.381    -23693.14   -20179.767 
  180502    1355.2409   -4.6274949   -20303.063   -23745.498   -20304.641 
Loop time of 66.6472 on 1 procs for 495 steps with 19652 atoms

Performance: 0.642 ns/day, 37.400 hours/ns, 7.427 timesteps/s
99.9% CPU use with 1 MPI tasks x no OpenMP threads

MPI task timing breakdown:
Section |  min time  |  avg time  |  max time  |%varavg| %total
---------------------------------------------------------------
Pair    | 36.315     | 36.315     | 36.315     |   0.0 | 54.49
Neigh   | 28.32      | 28.32      | 28.32      |   0.0 | 42.49
Comm    | 0.72746    | 0.72746    | 0.72746    |   0.0 |  1.09
Output  | 0.068491   | 0.068491   | 0.068491   |   0.0 |  0.10
Modify  | 0.9713     | 0.9713     | 0.9713     |   0.0 |  1.46
Other   |            | 0.2451     |            |       |  0.37

Nlocal:    19652 ave 19652 max 19652 min
Histogram: 1 0 0 0 0 0 0 0 0 0
Nghost:    15005 ave 15005 max 15005 min
Histogram: 1 0 0 0 0 0 0 0 0 0
Neighs:    900359 ave 900359 max 900359 min
Histogram: 1 0 0 0 0 0 0 0 0 0

Total # of neighbors = 900359
Ave neighs/atom = 45.8151
Neighbor list builds = 495
Dangerous builds not checked
Setting up Verlet run ...
  Unit style    : metal
  Current step  : 180502
  Time step     : 0.001
Per MPI rank memory allocation (min/avg/max) = 18.22 | 18.22 | 18.22 Mbytes
Step Temp Press TotEng PotEng Enthalpy 
  180502    1355.2409   -4.6274949   -20303.063   -23745.498   -20304.641 
  186674    1334.3522    32.331244   -20472.372   -23861.748   -20461.415 
Loop time of 738.377 on 1 procs for 6172 steps with 19652 atoms

Performance: 0.722 ns/day, 33.231 hours/ns, 8.359 timesteps/s
99.9% CPU use with 1 MPI tasks x no OpenMP threads

MPI task timing breakdown:
Section |  min time  |  avg time  |  max time  |%varavg| %total
---------------------------------------------------------------
Pair    | 398.03     | 398.03     | 398.03     |   0.0 | 53.91
Neigh   | 319.66     | 319.66     | 319.66     |   0.0 | 43.29
Comm    | 7.7866     | 7.7866     | 7.7866     |   0.0 |  1.05
Output  | 0.00020909 | 0.00020909 | 0.00020909 |   0.0 |  0.00
Modify  | 10.182     | 10.182     | 10.182     |   0.0 |  1.38
Other   |            | 2.717      |            |       |  0.37

Nlocal:    19652 ave 19652 max 19652 min
Histogram: 1 0 0 0 0 0 0 0 0 0
Nghost:    14988 ave 14988 max 14988 min
Histogram: 1 0 0 0 0 0 0 0 0 0
Neighs:    905501 ave 905501 max 905501 min
Histogram: 1 0 0 0 0 0 0 0 0 0

Total # of neighbors = 905501
Ave neighs/atom = 46.0768
Neighbor list builds = 6172
Dangerous builds not checked
Setting up Verlet run ...
  Unit style    : metal
  Current step  : 186674
  Time step     : 0.001
Per MPI rank memory allocation (min/avg/max) = 18.22 | 18.22 | 18.22 Mbytes
Step Temp Press TotEng PotEng Enthalpy 
  186674    1334.3522    32.331244   -20472.372   -23861.748   -20461.415 
  186676    1334.6805    31.075917   -20472.358   -23862.568   -20461.827 
  187169    1311.0168   -182.81543   -20601.038    -23931.14   -20662.896 
Loop time of 50.3613 on 1 procs for 495 steps with 19652 atoms

Performance: 0.849 ns/day, 28.261 hours/ns, 9.829 timesteps/s
100.0% CPU use with 1 MPI tasks x no OpenMP threads

MPI task timing breakdown:
Section |  min time  |  avg time  |  max time  |%varavg| %total
---------------------------------------------------------------
Pair    | 26.018     | 26.018     | 26.018     |   0.0 | 51.66
Neigh   | 22.797     | 22.797     | 22.797     |   0.0 | 45.27
Comm    | 0.55066    | 0.55066    | 0.55066    |   0.0 |  1.09
Output  | 0.059068   | 0.059068   | 0.059068   |   0.0 |  0.12
Modify  | 0.7348     | 0.7348     | 0.7348     |   0.0 |  1.46
Other   |            | 0.2012     |            |       |  0.40

Nlocal:    19652 ave 19652 max 19652 min
Histogram: 1 0 0 0 0 0 0 0 0 0
Nghost:    14971 ave 14971 max 14971 min
Histogram: 1 0 0 0 0 0 0 0 0 0
Neighs:    907586 ave 907586 max 907586 min
Histogram: 1 0 0 0 0 0 0 0 0 0

Total # of neighbors = 907586
Ave neighs/atom = 46.1829
Neighbor list builds = 495
Dangerous builds not checked
Setting up Verlet run ...
  Unit style    : metal
  Current step  : 187169
  Time step     : 0.001
Per MPI rank memory allocation (min/avg/max) = 18.22 | 18.22 | 18.22 Mbytes
Step Temp Press TotEng PotEng Enthalpy 
  187169    1311.0168   -182.81543   -20601.038    -23931.14   -20662.896 
  193341    1295.4761    209.42259   -20753.107   -24043.734   -20682.663 
Loop time of 709.056 on 1 procs for 6172 steps with 19652 atoms

Performance: 0.752 ns/day, 31.912 hours/ns, 8.705 timesteps/s
100.0% CPU use with 1 MPI tasks x no OpenMP threads

MPI task timing breakdown:
Section |  min time  |  avg time  |  max time  |%varavg| %total
---------------------------------------------------------------
Pair    | 380.19     | 380.19     | 380.19     |   0.0 | 53.62
Neigh   | 309.23     | 309.23     | 309.23     |   0.0 | 43.61
Comm    | 7.3754     | 7.3754     | 7.3754     |   0.0 |  1.04
Output  | 0.00021505 | 0.00021505 | 0.00021505 |   0.0 |  0.00
Modify  | 9.619      | 9.619      | 9.619      |   0.0 |  1.36
Other   |            | 2.642      |            |       |  0.37

Nlocal:    19652 ave 19652 max 19652 min
Histogram: 1 0 0 0 0 0 0 0 0 0
Nghost:    15090 ave 15090 max 15090 min
Histogram: 1 0 0 0 0 0 0 0 0 0
Neighs:    912972 ave 912972 max 912972 min
Histogram: 1 0 0 0 0 0 0 0 0 0

Total # of neighbors = 912972
Ave neighs/atom = 46.457
Neighbor list builds = 6172
Dangerous builds not checked
Setting up Verlet run ...
  Unit style    : metal
  Current step  : 193341
  Time step     : 0.001
Per MPI rank memory allocation (min/avg/max) = 18.22 | 18.22 | 18.22 Mbytes
Step Temp Press TotEng PotEng Enthalpy 
  193341    1295.4761    209.42259   -20753.107   -24043.734   -20682.663 
  193343    1295.1893    211.56842   -20753.102   -24043.001   -20681.936 
  193836    1255.8209    274.92272   -20918.995   -24108.895   -20826.872 
Loop time of 51.6363 on 1 procs for 495 steps with 19652 atoms

Performance: 0.828 ns/day, 28.977 hours/ns, 9.586 timesteps/s
100.0% CPU use with 1 MPI tasks x no OpenMP threads

MPI task timing breakdown:
Section |  min time  |  avg time  |  max time  |%varavg| %total
---------------------------------------------------------------
Pair    | 26.815     | 26.815     | 26.815     |   0.0 | 51.93
Neigh   | 23.315     | 23.315     | 23.315     |   0.0 | 45.15
Comm    | 0.53752    | 0.53752    | 0.53752    |   0.0 |  1.04
Output  | 0.05788    | 0.05788    | 0.05788    |   0.0 |  0.11
Modify  | 0.70905    | 0.70905    | 0.70905    |   0.0 |  1.37
Other   |            | 0.2022     |            |       |  0.39

Nlocal:    19652 ave 19652 max 19652 min
Histogram: 1 0 0 0 0 0 0 0 0 0
Nghost:    15131 ave 15131 max 15131 min
Histogram: 1 0 0 0 0 0 0 0 0 0
Neighs:    916500 ave 916500 max 916500 min
Histogram: 1 0 0 0 0 0 0 0 0 0

Total # of neighbors = 916500
Ave neighs/atom = 46.6365
Neighbor list builds = 495
Dangerous builds not checked
Setting up Verlet run ...
  Unit style    : metal
  Current step  : 193836
  Time step     : 0.001
Per MPI rank memory allocation (min/avg/max) = 18.22 | 18.22 | 18.22 Mbytes
Step Temp Press TotEng PotEng Enthalpy 
  193836    1255.8209    274.92272   -20918.995   -24108.895   -20826.872 
  200008    1242.5175   -50.011664   -21088.086   -24244.193   -21104.789 
Loop time of 750.112 on 1 procs for 6172 steps with 19652 atoms

Performance: 0.711 ns/day, 33.760 hours/ns, 8.228 timesteps/s
99.9% CPU use with 1 MPI tasks x no OpenMP threads

MPI task timing breakdown:
Section |  min time  |  avg time  |  max time  |%varavg| %total
---------------------------------------------------------------
Pair    | 405.89     | 405.89     | 405.89     |   0.0 | 54.11
Neigh   | 323.17     | 323.17     | 323.17     |   0.0 | 43.08
Comm    | 7.9555     | 7.9555     | 7.9555     |   0.0 |  1.06
Output  | 0.00020885 | 0.00020885 | 0.00020885 |   0.0 |  0.00
Modify  | 10.346     | 10.346     | 10.346     |   0.0 |  1.38
Other   |            | 2.751      |            |       |  0.37

Nlocal:    19652 ave 19652 max 19652 min
Histogram: 1 0 0 0 0 0 0 0 0 0
Nghost:    15140 ave 15140 max 15140 min
Histogram: 1 0 0 0 0 0 0 0 0 0
Neighs:    920077 ave 920077 max 920077 min
Histogram: 1 0 0 0 0 0 0 0 0 0

Total # of neighbors = 920077
Ave neighs/atom = 46.8185
Neighbor list builds = 6172
Dangerous builds not checked
Setting up Verlet run ...
  Unit style    : metal
  Current step  : 200008
  Time step     : 0.001
Per MPI rank memory allocation (min/avg/max) = 18.22 | 18.22 | 18.22 Mbytes
Step Temp Press TotEng PotEng Enthalpy 
  200008    1242.5175   -50.011664   -21088.086   -24244.193   -21104.789 
  200010    1240.7057   -39.556673   -21088.075    -24239.58   -21101.287 
  200503    1215.1889   -104.59066   -21233.955   -24320.646    -21268.78 
Loop time of 55.0323 on 1 procs for 495 steps with 19652 atoms

Performance: 0.777 ns/day, 30.882 hours/ns, 8.995 timesteps/s
99.9% CPU use with 1 MPI tasks x no OpenMP threads

MPI task timing breakdown:
Section |  min time  |  avg time  |  max time  |%varavg| %total
---------------------------------------------------------------
Pair    | 29.083     | 29.083     | 29.083     |   0.0 | 52.85
Neigh   | 24.321     | 24.321     | 24.321     |   0.0 | 44.19
Comm    | 0.58836    | 0.58836    | 0.58836    |   0.0 |  1.07
Output  | 0.053511   | 0.053511   | 0.053511   |   0.0 |  0.10
Modify  | 0.77491    | 0.77491    | 0.77491    |   0.0 |  1.41
Other   |            | 0.2117     |            |       |  0.38

Nlocal:    19652 ave 19652 max 19652 min
Histogram: 1 0 0 0 0 0 0 0 0 0
Nghost:    15147 ave 15147 max 15147 min
Histogram: 1 0 0 0 0 0 0 0 0 0
Neighs:    922725 ave 922725 max 922725 min
Histogram: 1 0 0 0 0 0 0 0 0 0

Total # of neighbors = 922725
Ave neighs/atom = 46.9532
Neighbor list builds = 495
Dangerous builds not checked
Setting up Verlet run ...
  Unit style    : metal
  Current step  : 200503
  Time step     : 0.001
Per MPI rank memory allocation (min/avg/max) = 18.22 | 18.22 | 18.22 Mbytes
Step Temp Press TotEng PotEng Enthalpy 
  200503    1215.1889   -104.59066   -21233.955   -24320.646    -21268.78 
  206675    1192.4268    166.23548   -21353.556   -24382.428   -21298.433 
Loop time of 713.829 on 1 procs for 6172 steps with 19652 atoms

Performance: 0.747 ns/day, 32.127 hours/ns, 8.646 timesteps/s
99.9% CPU use with 1 MPI tasks x no OpenMP threads

MPI task timing breakdown:
Section |  min time  |  avg time  |  max time  |%varavg| %total
---------------------------------------------------------------
Pair    | 382.89     | 382.89     | 382.89     |   0.0 | 53.64
Neigh   | 311.25     | 311.25     | 311.25     |   0.0 | 43.60
Comm    | 7.3923     | 7.3923     | 7.3923     |   0.0 |  1.04
Output  | 0.00024319 | 0.00024319 | 0.00024319 |   0.0 |  0.00
Modify  | 9.6832     | 9.6832     | 9.6832     |   0.0 |  1.36
Other   |            | 2.617      |            |       |  0.37

Nlocal:    19652 ave 19652 max 19652 min
Histogram: 1 0 0 0 0 0 0 0 0 0
Nghost:    15240 ave 15240 max 15240 min
Histogram: 1 0 0 0 0 0 0 0 0 0
Neighs:    927251 ave 927251 max 927251 min
Histogram: 1 0 0 0 0 0 0 0 0 0

Total # of neighbors = 927251
Ave neighs/atom = 47.1835
Neighbor list builds = 6172
Dangerous builds not checked
Setting up Verlet run ...
  Unit style    : metal
  Current step  : 206675
  Time step     : 0.001
Per MPI rank memory allocation (min/avg/max) = 18.22 | 18.22 | 18.22 Mbytes
Step Temp Press TotEng PotEng Enthalpy 
  206675    1192.4268    166.23548   -21353.556   -24382.428   -21298.433 
  206677    1192.8754    150.62709   -21353.549   -24383.561   -21303.602 
  207170    1162.3327    7.2310311   -21510.002   -24462.433   -21507.611 
Loop time of 49.0114 on 1 procs for 495 steps with 19652 atoms

Performance: 0.873 ns/day, 27.504 hours/ns, 10.100 timesteps/s
100.0% CPU use with 1 MPI tasks x no OpenMP threads

MPI task timing breakdown:
Section |  min time  |  avg time  |  max time  |%varavg| %total
---------------------------------------------------------------
Pair    | 25.219     | 25.219     | 25.219     |   0.0 | 51.46
Neigh   | 22.353     | 22.353     | 22.353     |   0.0 | 45.61
[...]
94.9% CPU use with 1 MPI tasks x no OpenMP threads

MPI task timing breakdown:
Section |  min time  |  avg time  |  max time  |%varavg| %total
---------------------------------------------------------------
Pair    | 41.685     | 41.685     | 41.685     |   0.0 | 54.59
Neigh   | 32.272     | 32.272     | 32.272     |   0.0 | 42.26
Comm    | 0.87531    | 0.87531    | 0.87531    |   0.0 |  1.15
Output  | 0.071621   | 0.071621   | 0.071621   |   0.0 |  0.09
Modify  | 1.165      | 1.165      | 1.165      |   0.0 |  1.53
Other   |            | 0.2922     |            |       |  0.38

Nlocal:    19652 ave 19652 max 19652 min
Histogram: 1 0 0 0 0 0 0 0 0 0
Nghost:    15812 ave 15812 max 15812 min
Histogram: 1 0 0 0 0 0 0 0 0 0
Neighs:    1.05136e+06 ave 1.05136e+06 max 1.05136e+06 min
Histogram: 1 0 0 0 0 0 0 0 0 0

Total # of neighbors = 1051360
Ave neighs/atom = 53.4989
Neighbor list builds = 495
Dangerous builds not checked
Setting up Verlet run ...
  Unit style    : metal
  Current step  : 307175
  Time step     : 0.001
Per MPI rank memory allocation (min/avg/max) = 18.22 | 18.22 | 18.22 Mbytes
Step Temp Press TotEng PotEng Enthalpy 
  307175    423.04744   -115.81927   -26348.247   -27422.826   -26382.808 
  313347    400.16637    460.94274   -26504.298   -27520.757   -26367.488 
Loop time of 962.172 on 1 procs for 6172 steps with 19652 atoms

Performance: 0.554 ns/day, 43.304 hours/ns, 6.415 timesteps/s
96.5% CPU use with 1 MPI tasks x no OpenMP threads

MPI task timing breakdown:
Section |  min time  |  avg time  |  max time  |%varavg| %total
---------------------------------------------------------------
Pair    | 530.48     | 530.48     | 530.48     |   0.0 | 55.13
Neigh   | 402.2      | 402.2      | 402.2      |   0.0 | 41.80
Comm    | 11.151     | 11.151     | 11.151     |   0.0 |  1.16
Output  | 0.00036693 | 0.00036693 | 0.00036693 |   0.0 |  0.00
Modify  | 14.625     | 14.625     | 14.625     |   0.0 |  1.52
Other   |            | 3.715      |            |       |  0.39

Nlocal:    19652 ave 19652 max 19652 min
Histogram: 1 0 0 0 0 0 0 0 0 0
Nghost:    15854 ave 15854 max 15854 min
Histogram: 1 0 0 0 0 0 0 0 0 0
Neighs:    1.05831e+06 ave 1.05831e+06 max 1.05831e+06 min
Histogram: 1 0 0 0 0 0 0 0 0 0

Total # of neighbors = 1058313
Ave neighs/atom = 53.8527
Neighbor list builds = 6172
Dangerous builds not checked
Setting up Verlet run ...
  Unit style    : metal
  Current step  : 313347
  Time step     : 0.001
Per MPI rank memory allocation (min/avg/max) = 18.22 | 18.22 | 18.22 Mbytes
Step Temp Press TotEng PotEng Enthalpy 
  313347    400.16637    460.94274   -26504.298   -27520.757   -26367.488 
  313349    399.75495    465.06861   -26504.298   -27519.712   -26366.263 
  313842    372.27007   -298.82381   -26659.322   -27604.922   -26748.017 
Loop time of 76.7055 on 1 procs for 495 steps with 19652 atoms

Performance: 0.558 ns/day, 43.045 hours/ns, 6.453 timesteps/s
99.5% CPU use with 1 MPI tasks x no OpenMP threads

MPI task timing breakdown:
Section |  min time  |  avg time  |  max time  |%varavg| %total
---------------------------------------------------------------
Pair    | 42.788     | 42.788     | 42.788     |   0.0 | 55.78
Neigh   | 31.36      | 31.36      | 31.36      |   0.0 | 40.88
Comm    | 0.92034    | 0.92034    | 0.92034    |   0.0 |  1.20
Output  | 0.069306   | 0.069306   | 0.069306   |   0.0 |  0.09
Modify  | 1.265      | 1.265      | 1.265      |   0.0 |  1.65
Other   |            | 0.3031     |            |       |  0.40

Nlocal:    19652 ave 19652 max 19652 min
Histogram: 1 0 0 0 0 0 0 0 0 0
Nghost:    15824 ave 15824 max 15824 min
Histogram: 1 0 0 0 0 0 0 0 0 0
Neighs:    1.05877e+06 ave 1.05877e+06 max 1.05877e+06 min
Histogram: 1 0 0 0 0 0 0 0 0 0

Total # of neighbors = 1058768
Ave neighs/atom = 53.8758
Neighbor list builds = 495
Dangerous builds not checked
Setting up Verlet run ...
  Unit style    : metal
  Current step  : 313842
  Time step     : 0.001
Per MPI rank memory allocation (min/avg/max) = 18.22 | 18.22 | 18.22 Mbytes
Step Temp Press TotEng PotEng Enthalpy 
  313842    372.27007   -298.82381   -26659.322   -27604.922   -26748.017 
  320014    350.97608    342.15884   -26810.546   -27702.058   -26709.541 
Loop time of 957.845 on 1 procs for 6172 steps with 19652 atoms

Performance: 0.557 ns/day, 43.109 hours/ns, 6.444 timesteps/s
97.2% CPU use with 1 MPI tasks x no OpenMP threads

MPI task timing breakdown:
Section |  min time  |  avg time  |  max time  |%varavg| %total
---------------------------------------------------------------
Pair    | 530.31     | 530.31     | 530.31     |   0.0 | 55.36
Neigh   | 397.76     | 397.76     | 397.76     |   0.0 | 41.53
Comm    | 11.333     | 11.333     | 11.333     |   0.0 |  1.18
Output  | 0.00030994 | 0.00030994 | 0.00030994 |   0.0 |  0.00
Modify  | 14.781     | 14.781     | 14.781     |   0.0 |  1.54
Other   |            | 3.662      |            |       |  0.38

Nlocal:    19652 ave 19652 max 19652 min
Histogram: 1 0 0 0 0 0 0 0 0 0
Nghost:    15911 ave 15911 max 15911 min
Histogram: 1 0 0 0 0 0 0 0 0 0
Neighs:    1.06609e+06 ave 1.06609e+06 max 1.06609e+06 min
Histogram: 1 0 0 0 0 0 0 0 0 0

Total # of neighbors = 1066086
Ave neighs/atom = 54.2482
Neighbor list builds = 6172
Dangerous builds not checked
Setting up Verlet run ...
  Unit style    : metal
  Current step  : 320014
  Time step     : 0.001
Per MPI rank memory allocation (min/avg/max) = 18.22 | 18.22 | 18.22 Mbytes
Step Temp Press TotEng PotEng Enthalpy 
  320014    350.97608    342.15884   -26810.546   -27702.058   -26709.541 
  320016    351.37172    335.73216   -26810.548   -27703.065    -26711.44 
  320509     323.4728   -146.57734   -26960.184   -27781.834   -27003.404 
Loop time of 76.0347 on 1 procs for 495 steps with 19652 atoms

Performance: 0.562 ns/day, 42.668 hours/ns, 6.510 timesteps/s
97.5% CPU use with 1 MPI tasks x no OpenMP threads

MPI task timing breakdown:
Section |  min time  |  avg time  |  max time  |%varavg| %total
---------------------------------------------------------------
Pair    | 42.063     | 42.063     | 42.063     |   0.0 | 55.32
Neigh   | 31.59      | 31.59      | 31.59      |   0.0 | 41.55
Comm    | 0.89135    | 0.89135    | 0.89135    |   0.0 |  1.17
Output  | 0.066991   | 0.066991   | 0.066991   |   0.0 |  0.09
Modify  | 1.1437     | 1.1437     | 1.1437     |   0.0 |  1.50
Other   |            | 0.2793     |            |       |  0.37

Nlocal:    19652 ave 19652 max 19652 min
Histogram: 1 0 0 0 0 0 0 0 0 0
Nghost:    15906 ave 15906 max 15906 min
Histogram: 1 0 0 0 0 0 0 0 0 0
Neighs:    1.06756e+06 ave 1.06756e+06 max 1.06756e+06 min
Histogram: 1 0 0 0 0 0 0 0 0 0

Total # of neighbors = 1067564
Ave neighs/atom = 54.3234
Neighbor list builds = 495
Dangerous builds not checked
Setting up Verlet run ...
  Unit style    : metal
  Current step  : 320509
  Time step     : 0.001
Per MPI rank memory allocation (min/avg/max) = 18.22 | 18.22 | 18.22 Mbytes
Step Temp Press TotEng PotEng Enthalpy 
  320509     323.4728   -146.57734   -26960.184   -27781.834   -27003.404 
  326681    299.78345    54.445697   -27102.636   -27864.113   -27086.633 
Loop time of 854.42 on 1 procs for 6172 steps with 19652 atoms

Performance: 0.624 ns/day, 38.454 hours/ns, 7.224 timesteps/s
98.7% CPU use with 1 MPI tasks x no OpenMP threads

MPI task timing breakdown:
Section |  min time  |  avg time  |  max time  |%varavg| %total
---------------------------------------------------------------
Pair    | 463.34     | 463.34     | 463.34     |   0.0 | 54.23
Neigh   | 366.82     | 366.82     | 366.82     |   0.0 | 42.93
Comm    | 8.9851     | 8.9851     | 8.9851     |   0.0 |  1.05
Output  | 0.00028396 | 0.00028396 | 0.00028396 |   0.0 |  0.00
Modify  | 12.167     | 12.167     | 12.167     |   0.0 |  1.42
Other   |            | 3.109      |            |       |  0.36

Nlocal:    19652 ave 19652 max 19652 min
Histogram: 1 0 0 0 0 0 0 0 0 0
Nghost:    15883 ave 15883 max 15883 min
Histogram: 1 0 0 0 0 0 0 0 0 0
Neighs:    1.07214e+06 ave 1.07214e+06 max 1.07214e+06 min
Histogram: 1 0 0 0 0 0 0 0 0 0

Total # of neighbors = 1072136
Ave neighs/atom = 54.5561
Neighbor list builds = 6172
Dangerous builds not checked
Setting up Verlet run ...
  Unit style    : metal
  Current step  : 326681
  Time step     : 0.001
Per MPI rank memory allocation (min/avg/max) = 18.22 | 18.22 | 18.22 Mbytes
Step Temp Press TotEng PotEng Enthalpy 
  326681    299.78345    54.445697   -27102.636   -27864.113   -27086.633 
  326683    300.04011    52.243584   -27102.636   -27864.765   -27087.281 
  327176    273.83483    128.36529    -27243.05   -27938.615   -27205.419 
Loop time of 59.167 on 1 procs for 495 steps with 19652 atoms

Performance: 0.723 ns/day, 33.203 hours/ns, 8.366 timesteps/s
99.7% CPU use with 1 MPI tasks x no OpenMP threads

MPI task timing breakdown:
Section |  min time  |  avg time  |  max time  |%varavg| %total
---------------------------------------------------------------
Pair    | 30.928     | 30.928     | 30.928     |   0.0 | 52.27
Neigh   | 26.738     | 26.738     | 26.738     |   0.0 | 45.19
Comm    | 0.5163     | 0.5163     | 0.5163     |   0.0 |  0.87
Output  | 0.068243   | 0.068243   | 0.068243   |   0.0 |  0.12
Modify  | 0.72408    | 0.72408    | 0.72408    |   0.0 |  1.22
Other   |            | 0.1922     |            |       |  0.32

Nlocal:    19652 ave 19652 max 19652 min
Histogram: 1 0 0 0 0 0 0 0 0 0
Nghost:    15913 ave 15913 max 15913 min
Histogram: 1 0 0 0 0 0 0 0 0 0
Neighs:    1.07571e+06 ave 1.07571e+06 max 1.07571e+06 min
Histogram: 1 0 0 0 0 0 0 0 0 0

Total # of neighbors = 1075712
Ave neighs/atom = 54.738
Neighbor list builds = 495
Dangerous builds not checked
Setting up Verlet run ...
  Unit style    : metal
  Current step  : 327176
  Time step     : 0.001
Per MPI rank memory allocation (min/avg/max) = 18.22 | 18.22 | 18.22 Mbytes
Step Temp Press TotEng PotEng Enthalpy 
  327176    273.83483    128.36529    -27243.05   -27938.615   -27205.419 
  333348    248.98523    138.53933   -27387.293   -28019.738   -27346.793 
Loop time of 704.978 on 1 procs for 6172 steps with 19652 atoms

Performance: 0.756 ns/day, 31.728 hours/ns, 8.755 timesteps/s
99.9% CPU use with 1 MPI tasks x no OpenMP threads

MPI task timing breakdown:
Section |  min time  |  avg time  |  max time  |%varavg| %total
---------------------------------------------------------------
Pair    | 367.14     | 367.14     | 367.14     |   0.0 | 52.08
Neigh   | 321.17     | 321.17     | 321.17     |   0.0 | 45.56
Comm    | 5.9575     | 5.9575     | 5.9575     |   0.0 |  0.85
Output  | 0.00021195 | 0.00021195 | 0.00021195 |   0.0 |  0.00
Modify  | 8.4946     | 8.4946     | 8.4946     |   0.0 |  1.20
Other   |            | 2.221      |            |       |  0.31

Nlocal:    19652 ave 19652 max 19652 min
Histogram: 1 0 0 0 0 0 0 0 0 0
Nghost:    15905 ave 15905 max 15905 min
Histogram: 1 0 0 0 0 0 0 0 0 0
Neighs:    1.07987e+06 ave 1.07987e+06 max 1.07987e+06 min
Histogram: 1 0 0 0 0 0 0 0 0 0

Total # of neighbors = 1079869
Ave neighs/atom = 54.9496
Neighbor list builds = 6172
Dangerous builds not checked
Setting up Verlet run ...
  Unit style    : metal
  Current step  : 333348
  Time step     : 0.001
Per MPI rank memory allocation (min/avg/max) = 18.22 | 18.22 | 18.22 Mbytes
Step Temp Press TotEng PotEng Enthalpy 
  333348    248.98523    138.53933   -27387.293   -28019.738   -27346.793 
  333350    248.94589    138.98654   -27387.292   -28019.637   -27346.661 
  333843    224.91644    15.428298   -27518.725   -28090.033   -27514.224 
Loop time of 57.035 on 1 procs for 495 steps with 19652 atoms

Performance: 0.750 ns/day, 32.006 hours/ns, 8.679 timesteps/s
99.9% CPU use with 1 MPI tasks x no OpenMP threads

MPI task timing breakdown:
Section |  min time  |  avg time  |  max time  |%varavg| %total
---------------------------------------------------------------
Pair    | 29.717     | 29.717     | 29.717     |   0.0 | 52.10
Neigh   | 25.884     | 25.884     | 25.884     |   0.0 | 45.38
Comm    | 0.4894     | 0.4894     | 0.4894     |   0.0 |  0.86
Output  | 0.069633   | 0.069633   | 0.069633   |   0.0 |  0.12
Modify  | 0.694      | 0.694      | 0.694      |   0.0 |  1.22
Other   |            | 0.1808     |            |       |  0.32

Nlocal:    19652 ave 19652 max 19652 min
Histogram: 1 0 0 0 0 0 0 0 0 0
Nghost:    15938 ave 15938 max 15938 min
Histogram: 1 0 0 0 0 0 0 0 0 0
Neighs:    1.08224e+06 ave 1.08224e+06 max 1.08224e+06 min
Histogram: 1 0 0 0 0 0 0 0 0 0

Total # of neighbors = 1082245
Ave neighs/atom = 55.0705
Neighbor list builds = 495
Dangerous builds not checked
Setting up Verlet run ...
  Unit style    : metal
  Current step  : 333843
  Time step     : 0.001
Per MPI rank memory allocation (min/avg/max) = 18.22 | 18.22 | 18.22 Mbytes
Step Temp Press TotEng PotEng Enthalpy 
  333843    224.91644    15.428298   -27518.725   -28090.033   -27514.224 
  340015    201.72389   -76.442532   -27655.042   -28167.439   -27677.306 
Loop time of 719.83 on 1 procs for 6172 steps with 19652 atoms

Performance: 0.741 ns/day, 32.397 hours/ns, 8.574 timesteps/s
99.9% CPU use with 1 MPI tasks x no OpenMP threads

MPI task timing breakdown:
Section |  min time  |  avg time  |  max time  |%varavg| %total
---------------------------------------------------------------
Pair    | 378.2      | 378.2      | 378.2      |   0.0 | 52.54
Neigh   | 324.5      | 324.5      | 324.5      |   0.0 | 45.08
Comm    | 6.1699     | 6.1699     | 6.1699     |   0.0 |  0.86
Output  | 0.00025702 | 0.00025702 | 0.00025702 |   0.0 |  0.00
Modify  | 8.6652     | 8.6652     | 8.6652     |   0.0 |  1.20
Other   |            | 2.289      |            |       |  0.32

Nlocal:    19652 ave 19652 max 19652 min
Histogram: 1 0 0 0 0 0 0 0 0 0
Nghost:    15967 ave 15967 max 15967 min
Histogram: 1 0 0 0 0 0 0 0 0 0
Neighs:    1.08484e+06 ave 1.08484e+06 max 1.08484e+06 min
Histogram: 1 0 0 0 0 0 0 0 0 0

Total # of neighbors = 1084839
Ave neighs/atom = 55.2025
Neighbor list builds = 6172
Dangerous builds not checked
Setting up Verlet run ...
  Unit style    : metal
  Current step  : 340015
  Time step     : 0.001
Per MPI rank memory allocation (min/avg/max) = 18.22 | 18.22 | 18.22 Mbytes
Step Temp Press TotEng PotEng Enthalpy 
  340015    201.72389   -76.442532   -27655.042   -28167.439   -27677.306 
  340017    201.72306   -74.720716   -27655.044   -28167.439   -27676.806 
  340510     173.6159   -29.879735   -27785.149   -28226.149   -27793.833 
Loop time of 56.989 on 1 procs for 495 steps with 19652 atoms

Performance: 0.750 ns/day, 31.980 hours/ns, 8.686 timesteps/s
99.4% CPU use with 1 MPI tasks x no OpenMP threads

MPI task timing breakdown:
Section |  min time  |  avg time  |  max time  |%varavg| %total
---------------------------------------------------------------
Pair    | 29.82      | 29.82      | 29.82      |   0.0 | 52.33
Neigh   | 25.685     | 25.685     | 25.685     |   0.0 | 45.07
Comm    | 0.49733    | 0.49733    | 0.49733    |   0.0 |  0.87
Output  | 0.11773    | 0.11773    | 0.11773    |   0.0 |  0.21
Modify  | 0.6852     | 0.6852     | 0.6852     |   0.0 |  1.20
Other   |            | 0.1847     |            |       |  0.32

Nlocal:    19652 ave 19652 max 19652 min
Histogram: 1 0 0 0 0 0 0 0 0 0
Nghost:    15961 ave 15961 max 15961 min
Histogram: 1 0 0 0 0 0 0 0 0 0
Neighs:    1.0882e+06 ave 1.0882e+06 max 1.0882e+06 min
Histogram: 1 0 0 0 0 0 0 0 0 0

Total # of neighbors = 1088202
Ave neighs/atom = 55.3736
Neighbor list builds = 495
Dangerous builds not checked
Setting up Verlet run ...
  Unit style    : metal
  Current step  : 340510
  Time step     : 0.001
Per MPI rank memory allocation (min/avg/max) = 18.22 | 18.22 | 18.22 Mbytes
Step Temp Press TotEng PotEng Enthalpy 
  340510     173.6159   -29.879735   -27785.149   -28226.149   -27793.833 
  346682    150.81898    266.11177   -27919.853   -28302.947   -27842.765 
Loop time of 740.827 on 1 procs for 6172 steps with 19652 atoms

Performance: 0.720 ns/day, 33.342 hours/ns, 8.331 timesteps/s
99.7% CPU use with 1 MPI tasks x no OpenMP threads

MPI task timing breakdown:
Section |  min time  |  avg time  |  max time  |%varavg| %total
---------------------------------------------------------------
Pair    | 392.34     | 392.34     | 392.34     |   0.0 | 52.96
Neigh   | 330.33     | 330.33     | 330.33     |   0.0 | 44.59
Comm    | 6.604      | 6.604      | 6.604      |   0.0 |  0.89
Output  | 0.00024605 | 0.00024605 | 0.00024605 |   0.0 |  0.00
Modify  | 9.1091     | 9.1091     | 9.1091     |   0.0 |  1.23
Other   |            | 2.443      |            |       |  0.33

Nlocal:    19652 ave 19652 max 19652 min
Histogram: 1 0 0 0 0 0 0 0 0 0
Nghost:    16035 ave 16035 max 16035 min
Histogram: 1 0 0 0 0 0 0 0 0 0
Neighs:    1.09218e+06 ave 1.09218e+06 max 1.09218e+06 min
Histogram: 1 0 0 0 0 0 0 0 0 0

Total # of neighbors = 1092185
Ave neighs/atom = 55.5763
Neighbor list builds = 6172
Dangerous builds not checked
Setting up Verlet run ...
  Unit style    : metal
  Current step  : 346682
  Time step     : 0.001
Per MPI rank memory allocation (min/avg/max) = 18.22 | 18.22 | 18.22 Mbytes
Step Temp Press TotEng PotEng Enthalpy 
  346682    150.81898    266.11177   -27919.853   -28302.947   -27842.765 
  346684    150.83911    261.85412   -27919.855       -28303       -27844 
  347177    126.46163   -82.432834    -28042.46   -28363.684   -28066.318 
Loop time of 60.0421 on 1 procs for 495 steps with 19652 atoms

Performance: 0.712 ns/day, 33.694 hours/ns, 8.244 timesteps/s
99.9% CPU use with 1 MPI tasks x no OpenMP threads

MPI task timing breakdown:
Section |  min time  |  avg time  |  max time  |%varavg| %total
---------------------------------------------------------------
Pair    | 31.931     | 31.931     | 31.931     |   0.0 | 53.18
Neigh   | 26.557     | 26.557     | 26.557     |   0.0 | 44.23
Comm    | 0.54801    | 0.54801    | 0.54801    |   0.0 |  0.91
Output  | 0.052913   | 0.052913   | 0.052913   |   0.0 |  0.09
Modify  | 0.74911    | 0.74911    | 0.74911    |   0.0 |  1.25
Other   |            | 0.2044     |            |       |  0.34

Nlocal:    19652 ave 19652 max 19652 min
Histogram: 1 0 0 0 0 0 0 0 0 0
Nghost:    15988 ave 15988 max 15988 min
Histogram: 1 0 0 0 0 0 0 0 0 0
Neighs:    1.09336e+06 ave 1.09336e+06 max 1.09336e+06 min
Histogram: 1 0 0 0 0 0 0 0 0 0

Total # of neighbors = 1093362
Ave neighs/atom = 55.6362
Neighbor list builds = 495
Dangerous builds not checked
Setting up Verlet run ...
  Unit style    : metal
  Current step  : 347177
  Time step     : 0.001
Per MPI rank memory allocation (min/avg/max) = 18.22 | 18.22 | 18.22 Mbytes
Step Temp Press TotEng PotEng Enthalpy 
  347177    126.46163   -82.432834    -28042.46   -28363.684   -28066.318 
  353349    100.73028   -104.48999    -28187.28   -28443.144   -28217.459 
Loop time of 723.596 on 1 procs for 6172 steps with 19652 atoms

Performance: 0.737 ns/day, 32.566 hours/ns, 8.530 timesteps/s
99.9% CPU use with 1 MPI tasks x no OpenMP threads

MPI task timing breakdown:
Section |  min time  |  avg time  |  max time  |%varavg| %total
---------------------------------------------------------------
Pair    | 383.84     | 383.84     | 383.84     |   0.0 | 53.05
Neigh   | 322.22     | 322.22     | 322.22     |   0.0 | 44.53
Comm    | 6.3768     | 6.3768     | 6.3768     |   0.0 |  0.88
Output  | 0.00023413 | 0.00023413 | 0.00023413 |   0.0 |  0.00
Modify  | 8.7886     | 8.7886     | 8.7886     |   0.0 |  1.21
Other   |            | 2.374      |            |       |  0.33

Nlocal:    19652 ave 19652 max 19652 min
Histogram: 1 0 0 0 0 0 0 0 0 0
Nghost:    16028 ave 16028 max 16028 min
Histogram: 1 0 0 0 0 0 0 0 0 0
Neighs:    1.09652e+06 ave 1.09652e+06 max 1.09652e+06 min
Histogram: 1 0 0 0 0 0 0 0 0 0

Total # of neighbors = 1096519
Ave neighs/atom = 55.7968
Neighbor list builds = 6172
Dangerous builds not checked
Total wall time: 11:59:28
