LAMMPS (12 Dec 2018)
Lattice spacing in x,y,z = 4 4 4
Created orthogonal box = (0 0 0) to (68 68 68)
  1 by 1 by 2 MPI processor grid
Created 19652 atoms
  Time spent = 0.00156498 secs
Setting atom values ...
  417 settings made for type/fraction
Neighbor list info ...
  update every 1 steps, delay 0 steps, check no
  max neighbors/atom: 2000, page size: 100000
  master list distance cutoff = 10
  ghost atom cutoff = 10
  binsize = 5, bins = 14 14 14
  1 neighbor lists, perpetual/occasional/extra = 1 0 0
  (1) pair eam/fs, perpetual
      attributes: half, newton on
      pair build: half/bin/atomonly/newton
      stencil: half/bin/3d/newton
      bin: standard
Setting up Verlet run ...
  Unit style    : metal
  Current step  : 0
  Time step     : 0.001
Per MPI rank memory allocation (min/avg/max) = 12.91 | 12.92 | 12.92 Mbytes
Step Temp Press TotEng PotEng Enthalpy Volume 
       0          300    56548.145   -75784.915   -76546.943    -64687.17       314432 
     667    235.78551    63285.237   -75784.882   -76383.798   -63364.962       314432 
    1000    236.74171    63350.941   -75784.883   -76386.229   -63352.069       314432 
Loop time of 177.486 on 2 procs for 1000 steps with 19652 atoms

Performance: 0.487 ns/day, 49.302 hours/ns, 5.634 timesteps/s
96.9% CPU use with 2 MPI tasks x no OpenMP threads

MPI task timing breakdown:
Section |  min time  |  avg time  |  max time  |%varavg| %total
---------------------------------------------------------------
Pair    | 112.92     | 113.33     | 113.75     |   3.9 | 63.85
Neigh   | 57.591     | 58.762     | 59.934     |  15.3 | 33.11
Comm    | 3.285      | 4.8921     | 6.4991     |  72.7 |  2.76
Output  | 0.049574   | 0.049611   | 0.049649   |   0.0 |  0.03
Modify  | 0.21875    | 0.22559    | 0.23243    |   1.4 |  0.13
Other   |            | 0.225      |            |       |  0.13

Nlocal:    9826 ave 9852 max 9800 min
Histogram: 1 0 0 0 0 0 0 0 0 1
Nghost:    16387.5 ave 16456 max 16319 min
Histogram: 1 0 0 0 0 0 0 0 0 1
Neighs:    1.23564e+06 ave 1.25909e+06 max 1.21218e+06 min
Histogram: 1 0 0 0 0 0 0 0 0 1

Total # of neighbors = 2471270
Ave neighs/atom = 125.752
Neighbor list builds = 1000
Dangerous builds not checked
Setting up Verlet run ...
  Unit style    : metal
  Current step  : 1000
  Time step     : 0.001
Per MPI rank memory allocation (min/avg/max) = 12.93 | 12.93 | 12.94 Mbytes
Step Temp Press TotEng PotEng Enthalpy Volume 
    1000    236.74171    63350.941   -75784.883   -76386.229   -63352.069       314432 
    1334    244.85458    262.28139   -76003.213   -76625.166   -75947.956     337541.6 
    2000    305.24721   -256.48851   -75673.086   -76448.442   -75727.396     339250.8 
Loop time of 168.879 on 2 procs for 1000 steps with 19652 atoms

Performance: 0.512 ns/day, 46.911 hours/ns, 5.921 timesteps/s
98.2% CPU use with 2 MPI tasks x no OpenMP threads

MPI task timing breakdown:
Section |  min time  |  avg time  |  max time  |%varavg| %total
---------------------------------------------------------------
Pair    | 108.35     | 108.39     | 108.42     |   0.3 | 64.18
Neigh   | 56.309     | 56.396     | 56.484     |   1.2 | 33.39
Comm    | 2.8498     | 2.9936     | 3.1375     |   8.3 |  1.77
Output  | 0.04623    | 0.046265   | 0.046299   |   0.0 |  0.03
Modify  | 0.81729    | 0.82557    | 0.83385    |   0.9 |  0.49
Other   |            | 0.2312     |            |       |  0.14

Nlocal:    9826 ave 9830 max 9822 min
Histogram: 1 0 0 0 0 0 0 0 0 1
Nghost:    14321 ave 14329 max 14313 min
Histogram: 1 0 0 0 0 0 0 0 0 1
Neighs:    1.14535e+06 ave 1.16323e+06 max 1.12746e+06 min
Histogram: 1 0 0 0 0 0 0 0 0 1

Total # of neighbors = 2290691
Ave neighs/atom = 116.563
Neighbor list builds = 1000
Dangerous builds not checked
Setting up Verlet run ...
  Unit style    : metal
  Current step  : 2000
  Time step     : 0.001
Per MPI rank memory allocation (min/avg/max) = 12.93 | 12.93 | 12.94 Mbytes
Step Temp Press TotEng PotEng Enthalpy Volume 
    2000    305.24721   -256.48851   -75673.086   -76448.442   -75727.396     339250.8 
    2001    305.55616   -267.22539   -75673.088   -76449.228   -75729.671    339250.74 
    2668    385.81348    416.17449   -75237.293   -76217.295   -75148.692     341096.6 
    3335    569.80707   -546.00923   -74215.766   -75663.128   -74333.926    346720.57 
    4002    790.90456    152.99742   -72902.423   -74911.393   -72868.637    353804.16 
    4669    988.05304    -181.2642   -71568.209   -74077.953    -71609.19    362225.24 
    5336    1161.4414   -186.29406   -70193.759   -73143.926   -70237.022    372068.75 
    6003    1308.4091    349.40094   -68436.305   -71759.783   -68352.002    386570.37 
    6670    1557.3381   -788.73411   -66779.879    -70735.66    -66975.89     398162.3 
    7337    1732.5252    630.55705   -65752.879   -70153.651   -65594.143    403332.67 
    8004     1903.899    1005.0966   -64746.824   -69582.901   -64490.196     409079.1 
    8671    2095.6605    1457.8329   -63712.985   -69036.154   -63335.424    414944.87 
    9338    2261.4086    -696.9236   -62766.956   -68511.139   -62950.622     422235.5 
   10000    2423.5705   -1190.9567   -61850.641   -68006.731   -62169.108    428428.21 
Loop time of 1214.48 on 2 procs for 8000 steps with 19652 atoms

Performance: 0.569 ns/day, 42.170 hours/ns, 6.587 timesteps/s
98.6% CPU use with 2 MPI tasks x no OpenMP threads

MPI task timing breakdown:
Section |  min time  |  avg time  |  max time  |%varavg| %total
---------------------------------------------------------------
Pair    | 766.07     | 771.7      | 777.33     |  20.3 | 63.54
Neigh   | 402.75     | 405.17     | 407.59     |  12.0 | 33.36
Comm    | 20.673     | 28.647     | 36.622     | 149.0 |  2.36
Output  | 0.68571    | 0.68587    | 0.68603    |   0.0 |  0.06
Modify  | 6.4591     | 6.4662     | 6.4732     |   0.3 |  0.53
Other   |            | 1.816      |            |       |  0.15

Nlocal:    9826 ave 9827 max 9825 min
Histogram: 1 0 0 0 0 0 0 0 0 1
Nghost:    14296.5 ave 14321 max 14272 min
Histogram: 1 0 0 0 0 0 0 0 0 1
Neighs:    938868 ave 949839 max 927896 min
Histogram: 1 0 0 0 0 0 0 0 0 1

Total # of neighbors = 1877735
Ave neighs/atom = 95.5493
Neighbor list builds = 8000
Dangerous builds not checked
Setting up Verlet run ...
  Unit style    : metal
  Current step  : 10000
  Time step     : 0.001
Per MPI rank memory allocation (min/avg/max) = 12.96 | 12.96 | 12.97 Mbytes
Step Temp Press TotEng PotEng Enthalpy Volume 
   10000    2423.5705   -1190.9567   -61850.641   -68006.731   -62169.108    428428.21 
   10005    2421.6287   -1005.5625   -61850.498   -68001.655   -62119.388    428427.04 
   10672    2472.3702   -116.32085   -61664.168   -67944.214   -61695.295    428738.53 
   11339    2433.2427    -244.4229   -61843.472    -68024.13   -61908.712    427647.01 
   12006     2438.766    722.81825   -61902.515   -68097.203   -61710.213    426251.16 
   12673    2444.6739    1214.3542   -61761.413   -67971.108   -61437.403     427487.6 
   13340    2435.1313    1020.1142   -61773.322   -67958.777   -61501.068    427597.73 
   14007    2431.1649   -75.258726   -61751.219     -67926.6   -61771.352    428594.93 
   14674    2451.1569    857.51734   -61742.413   -67968.575   -61513.412    427863.29 
   15341     2450.583   -738.97575   -61774.028   -67998.732   -61971.638    428438.42 
   16008    2441.8272   -810.71008   -61797.117    -67999.58   -62013.771     428167.1 
   16675    2446.9895    1792.8607   -61816.748   -68032.325   -61339.808    426214.44 
   17342    2467.0445    439.65518   -61753.436   -68019.954   -61636.145    427427.91 
   18009    2468.8928   -1107.4494    -61716.21   -67987.423   -62012.781    429056.42 
   18676    2441.9706   -1556.8514   -61734.668   -67937.496   -62152.088    429572.35 
   19343    2464.0167   -808.40406    -61749.65   -68008.476   -61965.722    428234.88 
   20010    2449.8937   -736.86587   -61830.395   -68053.348   -62027.092    427681.13 
   20677    2443.6798   -1023.2644   -61768.849   -67976.018   -62042.716    428808.18 
   21344    2445.0812   -319.77713   -61718.555   -67929.284   -61804.195    429079.42 
   22011    2428.0481    734.76903   -61857.446   -68024.909   -61661.463    427343.09 
   22678    2459.1312    491.87897   -61821.921   -68068.339   -61690.892     426797.3 
   23345    2451.8919     81.96395   -61834.084   -68062.112   -61812.225     427283.2 
   24012    2458.9798   -113.37572   -61728.921   -67974.953   -61759.224    428227.44 
   24679    2471.1047   -682.12526   -61637.687   -67914.518   -61820.486    429359.38 
   25346    2424.6263   -1401.5265   -61857.282   -68016.053   -62232.073    428447.86 
   26013    2457.5439   -546.86762   -61794.376   -68036.761   -61940.404    427822.97 
   26680    2435.7212    730.55698    -61733.75   -67920.704    -61538.53    428135.67 
   27347    2429.8495    -50.34854   -61840.613   -68012.652   -61854.051    427610.93 
   28014    2439.9774   -28.886837   -61827.429   -68025.194   -61835.136     427477.8 
   28681    2478.6841    1007.6967   -61736.744   -68032.827   -61468.202    426965.35 
   29348    2446.8614    870.99465   -61781.296   -67996.546   -61548.948    427397.89 
   30015    2474.6413    139.85876   -61653.824   -67939.638   -61616.421    428466.96 
   30682     2443.686    677.73232   -61880.527   -68087.712   -61700.241    426199.98 
   31349    2461.0494    27.452775    -61713.74    -67965.03     -61706.4    428383.11 
   32016    2441.1183   -277.84882   -61752.514   -67953.177   -61826.836    428567.32 
   32683    2467.9879    -244.0771   -61738.031   -68006.945   -61803.216    427894.88 
   33350     2446.102   -175.44851   -61808.419   -68021.741   -61855.262    427768.78 
   34017    2453.0109    1225.3932   -61819.617   -68050.488   -61493.321    426626.01 
   34684     2470.257    36.513121   -61718.623   -67993.301   -61708.867    428064.19 
   35351     2448.274   -672.55851   -61740.814   -67959.653   -61920.902    429006.08 
   36018    2435.6945    549.54973   -61826.662   -68013.548   -61680.099    427294.46 
   36685    2463.5176    463.92108   -61668.809   -67926.368   -61544.814    428221.78 
   37352    2428.7899   -1044.0866   -61818.266   -67987.614   -62097.625    428682.51 
   38019     2474.798    -592.0563   -61717.325   -68003.538   -61875.624    428375.32 
   38686    2437.3726    366.98292   -61785.259   -67976.408    -61687.23    427979.32 
   39353    2472.0985   -1577.6736   -61633.714    -67913.07   -62057.041    429901.69 
   40000    2453.7427    55.043704   -61792.232   -68024.962   -61777.538    427713.43 
Loop time of 4176.44 on 2 procs for 30000 steps with 19652 atoms

Performance: 0.621 ns/day, 38.671 hours/ns, 7.183 timesteps/s
98.7% CPU use with 2 MPI tasks x no OpenMP threads

MPI task timing breakdown:
Section |  min time  |  avg time  |  max time  |%varavg| %total
---------------------------------------------------------------
Pair    | 2650.6     | 2679       | 2707.5     |  55.0 | 64.15
Neigh   | 1355.8     | 1356.4     | 1357.1     |   1.7 | 32.48
Comm    | 79.358     | 107        | 134.64     | 267.2 |  2.56
Output  | 3.3425     | 3.343      | 3.3436     |   0.0 |  0.08
Modify  | 23.843     | 23.931     | 24.018     |   1.8 |  0.57
Other   |            | 6.684      |            |       |  0.16

Nlocal:    9826 ave 9850 max 9802 min
Histogram: 1 0 0 0 0 0 0 0 0 1
Nghost:    14308 ave 14316 max 14300 min
Histogram: 1 0 0 0 0 0 0 0 0 1
Neighs:    940607 ave 952958 max 928256 min
Histogram: 1 0 0 0 0 0 0 0 0 1

Total # of neighbors = 1881214
Ave neighs/atom = 95.7263
Neighbor list builds = 30000
Dangerous builds not checked
Setting up Verlet run ...
  Unit style    : metal
  Current step  : 40000
  Time step     : 0.001
Per MPI rank memory allocation (min/avg/max) = 13.04 | 13.05 | 13.05 Mbytes
Step Temp Press TotEng PotEng Enthalpy Volume 
   40000    2453.7427    55.043704   -61792.232   -68024.962   -61777.538    427713.43 
   40020     2457.487   -38.234714   -61792.574   -68034.815   -61802.781    427715.39 
   40495    2386.3631    1719.9693   -62034.496   -68096.075   -61577.862    425361.21 
Loop time of 65.3187 on 2 procs for 495 steps with 19652 atoms

Performance: 0.655 ns/day, 36.655 hours/ns, 7.578 timesteps/s
99.1% CPU use with 2 MPI tasks x no OpenMP threads

MPI task timing breakdown:
Section |  min time  |  avg time  |  max time  |%varavg| %total
---------------------------------------------------------------
Pair    | 41.74      | 41.902     | 42.065     |   2.5 | 64.15
Neigh   | 21.239     | 21.241     | 21.244     |   0.1 | 32.52
Comm    | 1.4647     | 1.6223     | 1.7798     |  12.4 |  2.48
Output  | 0.051618   | 0.051657   | 0.051697   |   0.0 |  0.08
Modify  | 0.38527    | 0.38687    | 0.38848    |   0.3 |  0.59
Other   |            | 0.1143     |            |       |  0.18

Nlocal:    9826 ave 9834 max 9818 min
Histogram: 1 0 0 0 0 0 0 0 0 1
Nghost:    14328 ave 14346 max 14310 min
Histogram: 1 0 0 0 0 0 0 0 0 1
Neighs:    945768 ave 956255 max 935281 min
Histogram: 1 0 0 0 0 0 0 0 0 1

Total # of neighbors = 1891536
Ave neighs/atom = 96.2516
Neighbor list builds = 495
Dangerous builds not checked
Setting up Verlet run ...
  Unit style    : metal
  Current step  : 40495
  Time step     : 0.001
Per MPI rank memory allocation (min/avg/max) = 13.04 | 13.05 | 13.05 Mbytes
Step Temp Press TotEng PotEng Enthalpy Volume 
   40495    2386.3631    1719.9693   -62034.496   -68096.075   -61577.862    425361.21 
   40667    2388.0081   -587.84392   -62123.604   -68189.362   -62279.965     426165.1 
Loop time of 22.7062 on 2 procs for 172 steps with 19652 atoms

Performance: 0.654 ns/day, 36.670 hours/ns, 7.575 timesteps/s
99.7% CPU use with 2 MPI tasks x no OpenMP threads

MPI task timing breakdown:
Section |  min time  |  avg time  |  max time  |%varavg| %total
---------------------------------------------------------------
Pair    | 14.724     | 14.766     | 14.808     |   1.1 | 65.03
Neigh   | 7.1925     | 7.2928     | 7.393      |   3.7 | 32.12
Comm    | 0.32733    | 0.47119    | 0.61506    |  21.0 |  2.08
Output  | 8.1062e-05 | 0.00011003 | 0.000139   |   0.0 |  0.00
Modify  | 0.13414    | 0.13462    | 0.1351     |   0.1 |  0.59
Other   |            | 0.04109    |            |       |  0.18

Nlocal:    9826 ave 9831 max 9821 min
Histogram: 1 0 0 0 0 0 0 0 0 1
Nghost:    14298 ave 14304 max 14292 min
Histogram: 1 0 0 0 0 0 0 0 0 1
Neighs:    944148 ave 952964 max 935333 min
Histogram: 1 0 0 0 0 0 0 0 0 1

Total # of neighbors = 1888297
Ave neighs/atom = 96.0868
Neighbor list builds = 172
Dangerous builds not checked
Setting up Verlet run ...
  Unit style    : metal
  Current step  : 40667
  Time step     : 0.001
Per MPI rank memory allocation (min/avg/max) = 13.04 | 13.05 | 13.05 Mbytes
Step Temp Press TotEng PotEng Enthalpy Volume 
   40667    2388.0081   -587.84392   -62123.604   -68189.362   -62279.965     426165.1 
   40687    2368.8566   -245.58949    -62121.19   -68138.302   -62186.514    426159.27 
   41162    2352.8286   -243.08645   -62238.876   -68215.275   -62303.435    425504.96 
Loop time of 63.5192 on 2 procs for 495 steps with 19652 atoms

Performance: 0.673 ns/day, 35.645 hours/ns, 7.793 timesteps/s
99.8% CPU use with 2 MPI tasks x no OpenMP threads

MPI task timing breakdown:
Section |  min time  |  avg time  |  max time  |%varavg| %total
---------------------------------------------------------------
Pair    | 40.871     | 40.946     | 41.021     |   1.2 | 64.46
Neigh   | 20.869     | 20.894     | 20.918     |   0.5 | 32.89
Comm    | 1.0101     | 1.1064     | 1.2027     |   9.2 |  1.74
Output  | 0.057024   | 0.057066   | 0.057109   |   0.0 |  0.09
Modify  | 0.39497    | 0.39573    | 0.39649    |   0.1 |  0.62
Other   |            | 0.1202     |            |       |  0.19

Nlocal:    9826 ave 9836 max 9816 min
Histogram: 1 0 0 0 0 0 0 0 0 1
Nghost:    14299.5 ave 14318 max 14281 min
Histogram: 1 0 0 0 0 0 0 0 0 1
Neighs:    945576 ave 954419 max 936732 min
Histogram: 1 0 0 0 0 0 0 0 0 1

Total # of neighbors = 1891151
Ave neighs/atom = 96.232
Neighbor list builds = 495
Dangerous builds not checked
Setting up Verlet run ...
  Unit style    : metal
  Current step  : 41162
  Time step     : 0.001
Per MPI rank memory allocation (min/avg/max) = 13.05 | 13.05 | 13.05 Mbytes
Step Temp Press TotEng PotEng Enthalpy Volume 
   41162    2352.8286   -243.08645   -62238.876   -68215.275   -62303.435    425504.96 
   41334    2343.6943    13.180654   -62281.365   -68234.562   -62277.869    425053.89 
Loop time of 22.2991 on 2 procs for 172 steps with 19652 atoms

Performance: 0.666 ns/day, 36.013 hours/ns, 7.713 timesteps/s
98.8% CPU use with 2 MPI tasks x no OpenMP threads

MPI task timing breakdown:
Section |  min time  |  avg time  |  max time  |%varavg| %total
---------------------------------------------------------------
Pair    | 14.529     | 14.547     | 14.565     |   0.5 | 65.23
Neigh   | 7.2059     | 7.2606     | 7.3153     |   2.0 | 32.56
Comm    | 0.23893    | 0.31382    | 0.38871    |  13.4 |  1.41
Output  | 7.3195e-05 | 0.00010061 | 0.00012803 |   0.0 |  0.00
Modify  | 0.13449    | 0.13495    | 0.13542    |   0.1 |  0.61
Other   |            | 0.04286    |            |       |  0.19

Nlocal:    9826 ave 9846 max 9806 min
Histogram: 1 0 0 0 0 0 0 0 0 1
Nghost:    14315 ave 14366 max 14264 min
Histogram: 1 0 0 0 0 0 0 0 0 1
Neighs:    946610 ave 954149 max 939070 min
Histogram: 1 0 0 0 0 0 0 0 0 1

Total # of neighbors = 1893219
Ave neighs/atom = 96.3372
Neighbor list builds = 172
Dangerous builds not checked
Setting up Verlet run ...
  Unit style    : metal
  Current step  : 41334
  Time step     : 0.001
Per MPI rank memory allocation (min/avg/max) = 13.05 | 13.05 | 13.05 Mbytes
Step Temp Press TotEng PotEng Enthalpy Volume 
   41334    2343.6943    13.180654   -62281.365   -68234.562   -62277.869    425053.89 
   41354    2361.2463   -691.85691   -62280.927   -68278.708   -62464.474    425051.73 
   41829    2308.5738    509.96683   -62554.166   -68418.154   -62419.645    422628.67 
Loop time of 67.4852 on 2 procs for 495 steps with 19652 atoms

Performance: 0.634 ns/day, 37.870 hours/ns, 7.335 timesteps/s
98.3% CPU use with 2 MPI tasks x no OpenMP threads

MPI task timing breakdown:
Section |  min time  |  avg time  |  max time  |%varavg| %total
---------------------------------------------------------------
Pair    | 43.359     | 43.694     | 44.028     |   5.1 | 64.75
Neigh   | 21.196     | 21.697     | 22.198     |  10.8 | 32.15
Comm    | 0.68905    | 1.5252     | 2.3614     |  67.7 |  2.26
Output  | 0.058631   | 0.058674   | 0.058718   |   0.0 |  0.09
Modify  | 0.39039    | 0.39172    | 0.39306    |   0.2 |  0.58
Other   |            | 0.1193     |            |       |  0.18

Nlocal:    9826 ave 9836 max 9816 min
Histogram: 1 0 0 0 0 0 0 0 0 1
Nghost:    14368 ave 14395 max 14341 min
Histogram: 1 0 0 0 0 0 0 0 0 1
Neighs:    952017 ave 964468 max 939566 min
Histogram: 1 0 0 0 0 0 0 0 0 1

Total # of neighbors = 1904034
Ave neighs/atom = 96.8875
Neighbor list builds = 495
Dangerous builds not checked
Setting up Verlet run ...
  Unit style    : metal
  Current step  : 41829
  Time step     : 0.001
Per MPI rank memory allocation (min/avg/max) = 13.05 | 13.05 | 13.06 Mbytes
Step Temp Press TotEng PotEng Enthalpy Volume 
   41829    2308.5738    509.96683   -62554.166   -68418.154   -62419.645    422628.67 
   42001     2285.017   -426.12543   -62626.443   -68430.594   -62738.936    422961.24 
Loop time of 22.0749 on 2 procs for 172 steps with 19652 atoms

Performance: 0.673 ns/day, 35.651 hours/ns, 7.792 timesteps/s
100.0% CPU use with 2 MPI tasks x no OpenMP threads

MPI task timing breakdown:
Section |  min time  |  avg time  |  max time  |%varavg| %total
---------------------------------------------------------------
Pair    | 14.45      | 14.497     | 14.545     |   1.2 | 65.67
Neigh   | 7.16       | 7.1855     | 7.211      |   1.0 | 32.55
Comm    | 0.1943     | 0.21602    | 0.23775    |   4.7 |  0.98
Output  | 0.00010991 | 0.00012648 | 0.00014305 |   0.0 |  0.00
Modify  | 0.13533    | 0.13563    | 0.13594    |   0.1 |  0.61
Other   |            | 0.04022    |            |       |  0.18

Nlocal:    9826 ave 9841 max 9811 min
Histogram: 1 0 0 0 0 0 0 0 0 1
Nghost:    14343.5 ave 14351 max 14336 min
Histogram: 1 0 0 0 0 0 0 0 0 1
Neighs:    951208 ave 963093 max 939324 min
Histogram: 1 0 0 0 0 0 0 0 0 1

Total # of neighbors = 1902417
Ave neighs/atom = 96.8053
Neighbor list builds = 172
Dangerous builds not checked
Setting up Verlet run ...
  Unit style    : metal
  Current step  : 42001
  Time step     : 0.001
Per MPI rank memory allocation (min/avg/max) = 13.05 | 13.05 | 13.06 Mbytes
Step Temp Press TotEng PotEng Enthalpy Volume 
   42001     2285.017   -426.12543   -62626.443   -68430.594   -62738.936    422961.24 
   42021    2281.1065   -124.91264   -62624.633   -68418.851   -62657.608    422956.14 
   42496    2262.8798   -310.80154   -62811.191   -68559.112   -62892.964    421539.54 
Loop time of 67.811 on 2 procs for 495 steps with 19652 atoms

Performance: 0.631 ns/day, 38.053 hours/ns, 7.300 timesteps/s
98.6% CPU use with 2 MPI tasks x no OpenMP threads

MPI task timing breakdown:
Section |  min time  |  avg time  |  max time  |%varavg| %total
---------------------------------------------------------------
Pair    | 43.519     | 43.624     | 43.729     |   1.6 | 64.33
Neigh   | 21.266     | 21.698     | 22.129     |   9.3 | 32.00
Comm    | 1.3671     | 1.9142     | 2.4614     |  39.5 |  2.82
Output  | 0.056873   | 0.056918   | 0.056962   |   0.0 |  0.08
Modify  | 0.39309    | 0.40068    | 0.40827    |   1.2 |  0.59
Other   |            | 0.1173     |            |       |  0.17

Nlocal:    9826 ave 9840 max 9812 min
Histogram: 1 0 0 0 0 0 0 0 0 1
Nghost:    14379 ave 14399 max 14359 min
Histogram: 1 0 0 0 0 0 0 0 0 1
Neighs:    954249 ave 955858 max 952640 min
Histogram: 1 0 0 0 0 0 0 0 0 1

Total # of neighbors = 1908498
Ave neighs/atom = 97.1147
Neighbor list builds = 495
Dangerous builds not checked
Setting up Verlet run ...
  Unit style    : metal
  Current step  : 42496
  Time step     : 0.001
Per MPI rank memory allocation (min/avg/max) = 13.05 | 13.05 | 13.06 Mbytes
Step Temp Press TotEng PotEng Enthalpy Volume 
   42496    2262.8798   -310.80154   -62811.191   -68559.112   -62892.964    421539.54 
   42668    2236.2876   -203.01564    -62895.96   -68576.334   -62949.313    421060.46 
Loop time of 22.5306 on 2 procs for 172 steps with 19652 atoms

Performance: 0.660 ns/day, 36.387 hours/ns, 7.634 timesteps/s
99.7% CPU use with 2 MPI tasks x no OpenMP threads

MPI task timing breakdown:
Section |  min time  |  avg time  |  max time  |%varavg| %total
---------------------------------------------------------------
Pair    | 13.738     | 14.004     | 14.271     |   7.1 | 62.16
Neigh   | 7.5499     | 7.7027     | 7.8556     |   5.5 | 34.19
Comm    | 0.54129    | 0.65044    | 0.75959    |  13.5 |  2.89
Output  | 7.6056e-05 | 0.00010502 | 0.00013399 |   0.0 |  0.00
Modify  | 0.13043    | 0.13325    | 0.13607    |   0.8 |  0.59
Other   |            | 0.03976    |            |       |  0.18

Nlocal:    9826 ave 9838 max 9814 min
Histogram: 1 0 0 0 0 0 0 0 0 1
Nghost:    14385.5 ave 14410 max 14361 min
Histogram: 1 0 0 0 0 0 0 0 0 1
Neighs:    955404 ave 956577 max 954231 min
Histogram: 1 0 0 0 0 0 0 0 0 1

Total # of neighbors = 1910808
Ave neighs/atom = 97.2322
Neighbor list builds = 172
Dangerous builds not checked
Setting up Verlet run ...
  Unit style    : metal
  Current step  : 42668
  Time step     : 0.001
Per MPI rank memory allocation (min/avg/max) = 13.05 | 13.05 | 13.06 Mbytes
Step Temp Press TotEng PotEng Enthalpy Volume 
   42668    2236.2876   -203.01564    -62895.96   -68576.334   -62949.313    421060.46 
   42688    2236.8239   -120.13494   -62894.957   -68576.694   -62926.529    421056.08 
   43163    2231.3476   -932.14022   -63041.421   -68709.247   -63286.014    420410.26 
Loop time of 67.5069 on 2 procs for 495 steps with 19652 atoms

Performance: 0.634 ns/day, 37.883 hours/ns, 7.333 timesteps/s
99.3% CPU use with 2 MPI tasks x no OpenMP threads

MPI task timing breakdown:
Section |  min time  |  avg time  |  max time  |%varavg| %total
---------------------------------------------------------------
Pair    | 41.953     | 42.292     | 42.632     |   5.2 | 62.65
Neigh   | 23.107     | 23.169     | 23.23      |   1.3 | 34.32
Comm    | 1.2091     | 1.485      | 1.761      |  22.6 |  2.20
Output  | 0.057944   | 0.057971   | 0.057999   |   0.0 |  0.09
Modify  | 0.3839     | 0.3845     | 0.38511    |   0.1 |  0.57
Other   |            | 0.1184     |            |       |  0.18

Nlocal:    9826 ave 9834 max 9818 min
Histogram: 1 0 0 0 0 0 0 0 0 1
Nghost:    14422.5 ave 14456 max 14389 min
Histogram: 1 0 0 0 0 0 0 0 0 1
Neighs:    956766 ave 958896 max 954636 min
Histogram: 1 0 0 0 0 0 0 0 0 1

Total # of neighbors = 1913532
Ave neighs/atom = 97.3709
Neighbor list builds = 495
Dangerous builds not checked
Setting up Verlet run ...
  Unit style    : metal
  Current step  : 43163
  Time step     : 0.001
Per MPI rank memory allocation (min/avg/max) = 13.05 | 13.05 | 13.06 Mbytes
Step Temp Press TotEng PotEng Enthalpy Volume 
   43163    2231.3476   -932.14022   -63041.421   -68709.247   -63286.014    420410.26 
   43335    2179.0052    228.61314   -63126.808    -68661.68   -63066.913     419760.4 
Loop time of 23.5647 on 2 procs for 172 steps with 19652 atoms

Performance: 0.631 ns/day, 38.057 hours/ns, 7.299 timesteps/s
98.9% CPU use with 2 MPI tasks x no OpenMP threads

MPI task timing breakdown:
Section |  min time  |  avg time  |  max time  |%varavg| %total
---------------------------------------------------------------
Pair    | 14.68      | 14.798     | 14.917     |   3.1 | 62.80
Neigh   | 8.0796     | 8.1286     | 8.1776     |   1.7 | 34.49
Comm    | 0.38902    | 0.45649    | 0.52396    |  10.0 |  1.94
Output  | 7.2002e-05 | 0.00010252 | 0.00013304 |   0.0 |  0.00
Modify  | 0.13831    | 0.14021    | 0.1421     |   0.5 |  0.59
Other   |            | 0.04076    |            |       |  0.17

Nlocal:    9826 ave 9834 max 9818 min
Histogram: 1 0 0 0 0 0 0 0 0 1
Nghost:    14385 ave 14413 max 14357 min
Histogram: 1 0 0 0 0 0 0 0 0 1
Neighs:    958527 ave 960017 max 957037 min
Histogram: 1 0 0 0 0 0 0 0 0 1

Total # of neighbors = 1917054
Ave neighs/atom = 97.5501
Neighbor list builds = 172
Dangerous builds not checked
Setting up Verlet run ...
  Unit style    : metal
  Current step  : 43335
  Time step     : 0.001
Per MPI rank memory allocation (min/avg/max) = 13.05 | 13.05 | 13.06 Mbytes
Step Temp Press TotEng PotEng Enthalpy Volume 
   43335    2179.0052    228.61314   -63126.808    -68661.68   -63066.913     419760.4 
   43355    2177.9778    85.372744   -63124.472   -68656.734   -63102.104    419764.51 
   43830    2152.1652    295.69241   -63335.499   -68802.195    -63258.29    418350.26 
Loop time of 68.7925 on 2 procs for 495 steps with 19652 atoms

Performance: 0.622 ns/day, 38.604 hours/ns, 7.196 timesteps/s
99.4% CPU use with 2 MPI tasks x no OpenMP threads

MPI task timing breakdown:
Section |  min time  |  avg time  |  max time  |%varavg| %total
---------------------------------------------------------------
Pair    | 42.713     | 42.828     | 42.942     |   1.7 | 62.26
Neigh   | 23.943     | 24.051     | 24.159     |   2.2 | 34.96
Comm    | 1.1257     | 1.3502     | 1.5747     |  19.3 |  1.96
Output  | 0.05542    | 0.055462   | 0.055504   |   0.0 |  0.08
Modify  | 0.39173    | 0.39311    | 0.39449    |   0.2 |  0.57
Other   |            | 0.1149     |            |       |  0.17

Nlocal:    9826 ave 9842 max 9810 min
Histogram: 1 0 0 0 0 0 0 0 0 1
Nghost:    14432 ave 14433 max 14431 min
Histogram: 1 0 0 0 0 0 0 0 0 1
Neighs:    961952 ave 964766 max 959137 min
Histogram: 1 0 0 0 0 0 0 0 0 1

Total # of neighbors = 1923903
Ave neighs/atom = 97.8986
Neighbor list builds = 495
Dangerous builds not checked
Setting up Verlet run ...
  Unit style    : metal
  Current step  : 43830
  Time step     : 0.001
Per MPI rank memory allocation (min/avg/max) = 13.05 | 13.05 | 13.06 Mbytes
Step Temp Press TotEng PotEng Enthalpy Volume 
   43830    2152.1652    295.69241   -63335.499   -68802.195    -63258.29    418350.26 
   44002    2153.9595   -625.43936    -63352.09   -68823.343    -63515.51    418629.95 
Loop time of 23.8256 on 2 procs for 172 steps with 19652 atoms

Performance: 0.624 ns/day, 38.478 hours/ns, 7.219 timesteps/s
99.5% CPU use with 2 MPI tasks x no OpenMP threads

MPI task timing breakdown:
Section |  min time  |  avg time  |  max time  |%varavg| %total
---------------------------------------------------------------
Pair    | 14.95      | 14.993     | 15.035     |   1.1 | 62.93
Neigh   | 8.1068     | 8.1604     | 8.214      |   1.9 | 34.25
Comm    | 0.39512    | 0.4932     | 0.59128    |  14.0 |  2.07
Output  | 7.3195e-05 | 9.0599e-05 | 0.000108   |   0.0 |  0.00
Modify  | 0.13713    | 0.13868    | 0.14023    |   0.4 |  0.58
Other   |            | 0.04066    |            |       |  0.17

Nlocal:    9826 ave 9833 max 9819 min
Histogram: 1 0 0 0 0 0 0 0 0 1
Nghost:    14382 ave 14390 max 14374 min
Histogram: 1 0 0 0 0 0 0 0 0 1
Neighs:    960782 ave 961549 max 960016 min
Histogram: 1 0 0 0 0 0 0 0 0 1

Total # of neighbors = 1921565
Ave neighs/atom = 97.7796
Neighbor list builds = 172
Dangerous builds not checked
Setting up Verlet run ...
  Unit style    : metal
  Current step  : 44002
  Time step     : 0.001
Per MPI rank memory allocation (min/avg/max) = 13.05 | 13.05 | 13.06 Mbytes
Step Temp Press TotEng PotEng Enthalpy Volume 
   44002    2153.9595   -625.43936    -63352.09   -68823.343    -63515.51    418629.95 
   44022    2153.1238   -514.53748   -63352.509    -68821.64   -63486.948    418619.13 
   44497    2104.4468    923.22743   -63627.966   -68973.453   -63388.371    415795.39 
Loop time of 69.1515 on 2 procs for 495 steps with 19652 atoms

Performance: 0.618 ns/day, 38.806 hours/ns, 7.158 timesteps/s
99.3% CPU use with 2 MPI tasks x no OpenMP threads

MPI task timing breakdown:
Section |  min time  |  avg time  |  max time  |%varavg| %total
---------------------------------------------------------------
Pair    | 42.992     | 43.06      | 43.128     |   1.0 | 62.27
Neigh   | 22.107     | 23.193     | 24.28      |  22.6 | 33.54
Comm    | 1.1868     | 2.3554     | 3.5239     |  76.1 |  3.41
Output  | 0.046877   | 0.046915   | 0.046953   |   0.0 |  0.07
Modify  | 0.37449    | 0.38456    | 0.39463    |   1.6 |  0.56
Other   |            | 0.1117     |            |       |  0.16

Nlocal:    9826 ave 9841 max 9811 min
Histogram: 1 0 0 0 0 0 0 0 0 1
Nghost:    14431.5 ave 14463 max 14400 min
Histogram: 1 0 0 0 0 0 0 0 0 1
Neighs:    967542 ave 970333 max 964752 min
Histogram: 1 0 0 0 0 0 0 0 0 1

Total # of neighbors = 1935085
Ave neighs/atom = 98.4676
Neighbor list builds = 495
Dangerous builds not checked
Setting up Verlet run ...
  Unit style    : metal
  Current step  : 44497
  Time step     : 0.001
Per MPI rank memory allocation (min/avg/max) = 13.05 | 13.05 | 13.06 Mbytes
Step Temp Press TotEng PotEng Enthalpy Volume 
   44497    2104.4468    923.22743   -63627.966   -68973.453   -63388.371    415795.39 
   44669    2095.8815   -445.76635     -63706.1    -69029.83   -63821.916    416265.78 
Loop time of 23.5487 on 2 procs for 172 steps with 19652 atoms

Performance: 0.631 ns/day, 38.031 hours/ns, 7.304 timesteps/s
98.5% CPU use with 2 MPI tasks x no OpenMP threads

MPI task timing breakdown:
Section |  min time  |  avg time  |  max time  |%varavg| %total
---------------------------------------------------------------
Pair    | 14.736     | 14.812     | 14.889     |   2.0 | 62.90
Neigh   | 7.5603     | 7.9115     | 8.2627     |  12.5 | 33.60
Comm    | 0.20983    | 0.64676    | 1.0837     |  54.3 |  2.75
Output  | 8.297e-05  | 0.00011396 | 0.00014496 |   0.0 |  0.00
Modify  | 0.12998    | 0.13634    | 0.14269    |   1.7 |  0.58
Other   |            | 0.04163    |            |       |  0.18

Nlocal:    9826 ave 9830 max 9822 min
Histogram: 1 0 0 0 0 0 0 0 0 1
Nghost:    14454.5 ave 14473 max 14436 min
Histogram: 1 0 0 0 0 0 0 0 0 1
Neighs:    966543 ave 967645 max 965441 min
Histogram: 1 0 0 0 0 0 0 0 0 1

Total # of neighbors = 1933086
Ave neighs/atom = 98.3659
Neighbor list builds = 172
Dangerous builds not checked
Setting up Verlet run ...
  Unit style    : metal
  Current step  : 44669
  Time step     : 0.001
Per MPI rank memory allocation (min/avg/max) = 13.05 | 13.05 | 13.06 Mbytes
Step Temp Press TotEng PotEng Enthalpy Volume 
   44669    2095.8815   -445.76635     -63706.1    -69029.83   -63821.916    416265.78 
   44689    2079.2765    42.615443   -63705.343   -68986.895   -63694.271    416260.19 
   45164     2060.719    283.64225    -63908.99   -69143.404   -63835.622    414426.96 
Loop time of 68.2188 on 2 procs for 495 steps with 19652 atoms

Performance: 0.627 ns/day, 38.282 hours/ns, 7.256 timesteps/s
99.8% CPU use with 2 MPI tasks x no OpenMP threads

MPI task timing breakdown:
Section |  min time  |  avg time  |  max time  |%varavg| %total
---------------------------------------------------------------
Pair    | 42.538     | 42.921     | 43.304     |   5.8 | 62.92
Neigh   | 23.324     | 23.364     | 23.405     |   0.8 | 34.25
Comm    | 1.0373     | 1.3793     | 1.7212     |  29.1 |  2.02
Output  | 0.05239    | 0.052418   | 0.052447   |   0.0 |  0.08
Modify  | 0.38688    | 0.3869     | 0.38692    |   0.0 |  0.57
Other   |            | 0.1143     |            |       |  0.17

Nlocal:    9826 ave 9839 max 9813 min
Histogram: 1 0 0 0 0 0 0 0 0 1
Nghost:    14483.5 ave 14508 max 14459 min
Histogram: 1 0 0 0 0 0 0 0 0 1
Neighs:    971072 ave 973512 max 968631 min
Histogram: 1 0 0 0 0 0 0 0 0 1

Total # of neighbors = 1942143
Ave neighs/atom = 98.8267
Neighbor list builds = 495
Dangerous builds not checked
Setting up Verlet run ...
  Unit style    : metal
  Current step  : 45164
  Time step     : 0.001
Per MPI rank memory allocation (min/avg/max) = 13.05 | 13.05 | 13.06 Mbytes
Step Temp Press TotEng PotEng Enthalpy Volume 
   45164     2060.719    283.64225    -63908.99   -69143.404   -63835.622    414426.96 
   45336    2036.5427   -149.42701   -63977.625   -69150.629   -64016.308    414767.25 
Loop time of 23.6815 on 2 procs for 172 steps with 19652 atoms

Performance: 0.628 ns/day, 38.245 hours/ns, 7.263 timesteps/s
98.7% CPU use with 2 MPI tasks x no OpenMP threads

MPI task timing breakdown:
Section |  min time  |  avg time  |  max time  |%varavg| %total
---------------------------------------------------------------
Pair    | 14.767     | 14.883     | 14.999     |   3.0 | 62.85
Neigh   | 7.8795     | 7.9885     | 8.0975     |   3.9 | 33.73
Comm    | 0.62997    | 0.63353    | 0.63709    |   0.4 |  2.68
Output  | 7.7009e-05 | 0.0001055  | 0.00013399 |   0.0 |  0.00
Modify  | 0.13461    | 0.13486    | 0.1351     |   0.1 |  0.57
Other   |            | 0.04171    |            |       |  0.18

Nlocal:    9826 ave 9855 max 9797 min
Histogram: 1 0 0 0 0 0 0 0 0 1
Nghost:    14448 ave 14472 max 14424 min
Histogram: 1 0 0 0 0 0 0 0 0 1
Neighs:    969918 ave 975372 max 964463 min
Histogram: 1 0 0 0 0 0 0 0 0 1

Total # of neighbors = 1939835
Ave neighs/atom = 98.7093
Neighbor list builds = 172
Dangerous builds not checked
Setting up Verlet run ...
  Unit style    : metal
  Current step  : 45336
  Time step     : 0.001
Per MPI rank memory allocation (min/avg/max) = 13.05 | 13.05 | 13.06 Mbytes
Step Temp Press TotEng PotEng Enthalpy Volume 
   45336    2036.5427   -149.42701   -63977.625   -69150.629   -64016.308    414767.25 
   45356    2035.5586   -174.87782   -63976.391   -69146.896   -64021.663    414764.38 
   45831    2007.2577   -365.06115   -64147.134   -69245.752   -64241.391    413672.19 
Loop time of 66.1261 on 2 procs for 495 steps with 19652 atoms

Performance: 0.647 ns/day, 37.108 hours/ns, 7.486 timesteps/s
99.9% CPU use with 2 MPI tasks x no OpenMP threads

MPI task timing breakdown:
Section |  min time  |  avg time  |  max time  |%varavg| %total
---------------------------------------------------------------
Pair    | 40.928     | 41.053     | 41.177     |   1.9 | 62.08
Neigh   | 21.74      | 22.347     | 22.954     |  12.8 | 33.79
Comm    | 1.4513     | 2.1916     | 2.932      |  50.0 |  3.31
Output  | 0.056887   | 0.056929   | 0.056972   |   0.0 |  0.09
Modify  | 0.36181    | 0.36839    | 0.37497    |   1.1 |  0.56
Other   |            | 0.1096     |            |       |  0.17

Nlocal:    9826 ave 9830 max 9822 min
Histogram: 1 0 0 0 0 0 0 0 0 1
Nghost:    14478.5 ave 14512 max 14445 min
Histogram: 1 0 0 0 0 0 0 0 0 1
Neighs:    972208 ave 972666 max 971751 min
Histogram: 1 0 0 0 0 0 0 0 0 1

Total # of neighbors = 1944417
Ave neighs/atom = 98.9424
Neighbor list builds = 495
Dangerous builds not checked
Setting up Verlet run ...
  Unit style    : metal
  Current step  : 45831
  Time step     : 0.001
Per MPI rank memory allocation (min/avg/max) = 13.05 | 13.06 | 13.06 Mbytes
Step Temp Press TotEng PotEng Enthalpy Volume 
   45831    2007.2577   -365.06115   -64147.134   -69245.752   -64241.391    413672.19 
   46003    2015.1217   -1037.1255   -64200.227   -69318.819   -64467.815    413376.08 
Loop time of 21.8739 on 2 procs for 172 steps with 19652 atoms

Performance: 0.679 ns/day, 35.326 hours/ns, 7.863 timesteps/s
100.0% CPU use with 2 MPI tasks x no OpenMP threads

MPI task timing breakdown:
Section |  min time  |  avg time  |  max time  |%varavg| %total
---------------------------------------------------------------
Pair    | 13.516     | 13.526     | 13.537     |   0.3 | 61.84
Neigh   | 7.5171     | 7.7292     | 7.9413     |   7.6 | 35.34
Comm    | 0.21865    | 0.44446    | 0.67027    |  33.9 |  2.03
Output  | 7.2002e-05 | 9.346e-05  | 0.00011492 |   0.0 |  0.00
Modify  | 0.13217    | 0.13455    | 0.13693    |   0.6 |  0.62
Other   |            | 0.03922    |            |       |  0.18

Nlocal:    9826 ave 9834 max 9818 min
Histogram: 1 0 0 0 0 0 0 0 0 1
Nghost:    14472 ave 14494 max 14450 min
Histogram: 1 0 0 0 0 0 0 0 0 1
Neighs:    973134 ave 973660 max 972609 min
Histogram: 1 0 0 0 0 0 0 0 0 1

Total # of neighbors = 1946269
Ave neighs/atom = 99.0367
Neighbor list builds = 172
Dangerous builds not checked
Setting up Verlet run ...
  Unit style    : metal
  Current step  : 46003
  Time step     : 0.001
Per MPI rank memory allocation (min/avg/max) = 13.05 | 13.06 | 13.06 Mbytes
Step Temp Press TotEng PotEng Enthalpy Volume 
   46003    2015.1217   -1037.1255   -64200.227   -69318.819   -64467.815    413376.08 
   46023    2002.4911   -751.54039    -64201.59     -69288.1   -64395.486    413357.27 
   46498    1966.1146   -33.197064   -64429.099   -69423.209   -64437.631    411794.69 
Loop time of 60.6226 on 2 procs for 495 steps with 19652 atoms

Performance: 0.705 ns/day, 34.019 hours/ns, 8.165 timesteps/s
99.7% CPU use with 2 MPI tasks x no OpenMP threads

MPI task timing breakdown:
Section |  min time  |  avg time  |  max time  |%varavg| %total
---------------------------------------------------------------
Pair    | 36.889     | 36.975     | 37.061     |   1.4 | 60.99
Neigh   | 21.586     | 21.614     | 21.642     |   0.6 | 35.65
Comm    | 1.3924     | 1.5074     | 1.6224     |   9.4 |  2.49
Output  | 0.061592   | 0.061619   | 0.061647   |   0.0 |  0.10
Modify  | 0.35205    | 0.35479    | 0.35752    |   0.5 |  0.59
Other   |            | 0.1095     |            |       |  0.18

Nlocal:    9826 ave 9832 max 9820 min
Histogram: 1 0 0 0 0 0 0 0 0 1
Nghost:    14488.5 ave 14503 max 14474 min
Histogram: 1 0 0 0 0 0 0 0 0 1
Neighs:    976942 ave 977280 max 976603 min
Histogram: 1 0 0 0 0 0 0 0 0 1

Total # of neighbors = 1953883
Ave neighs/atom = 99.4241
Neighbor list builds = 495
Dangerous builds not checked
Setting up Verlet run ...
  Unit style    : metal
  Current step  : 46498
  Time step     : 0.001
Per MPI rank memory allocation (min/avg/max) = 13.05 | 13.06 | 13.06 Mbytes
Step Temp Press TotEng PotEng Enthalpy Volume 
   46498    1966.1146   -33.197064   -64429.099   -69423.209   -64437.631    411794.69 
   46670     1947.735   -528.57502   -64504.331   -69451.755   -64640.072    411448.59 
Loop time of 28.8746 on 2 procs for 172 steps with 19652 atoms

Performance: 0.515 ns/day, 46.632 hours/ns, 5.957 timesteps/s
82.5% CPU use with 2 MPI tasks x no OpenMP threads

MPI task timing breakdown:
Section |  min time  |  avg time  |  max time  |%varavg| %total
---------------------------------------------------------------
Pair    | 18.504     | 18.705     | 18.905     |   4.6 | 64.78
Neigh   | 7.4411     | 7.6502     | 7.8593     |   7.6 | 26.49
Comm    | 1.9358     | 2.3449     | 2.7539     |  26.7 |  8.12
Output  | 7.7009e-05 | 9.644e-05  | 0.00011587 |   0.0 |  0.00
Modify  | 0.1366     | 0.13785    | 0.13909    |   0.3 |  0.48
Other   |            | 0.03702    |            |       |  0.13

Nlocal:    9826 ave 9832 max 9820 min
Histogram: 1 0 0 0 0 0 0 0 0 1
Nghost:    14529.5 ave 14531 max 14528 min
Histogram: 1 0 0 0 0 0 0 0 0 1
Neighs:    977660 ave 978598 max 976722 min
Histogram: 1 0 0 0 0 0 0 0 0 1

Total # of neighbors = 1955320
Ave neighs/atom = 99.4973
Neighbor list builds = 172
Dangerous builds not checked
Setting up Verlet run ...
  Unit style    : metal
  Current step  : 46670
  Time step     : 0.001
Per MPI rank memory allocation (min/avg/max) = 13.05 | 13.06 | 13.06 Mbytes
Step Temp Press TotEng PotEng Enthalpy Volume 
   46670     1947.735   -528.57502   -64504.331   -69451.755   -64640.072    411448.59 
   46690    1945.3316   -379.01406   -64504.231    -69445.55   -64601.561    411439.09 
   47165    1905.0361   -225.11038   -64714.014   -69552.979   -64771.624    410031.16 
Loop time of 74.1226 on 2 procs for 495 steps with 19652 atoms

Performance: 0.577 ns/day, 41.595 hours/ns, 6.678 timesteps/s
89.4% CPU use with 2 MPI tasks x no OpenMP threads

MPI task timing breakdown:
Section |  min time  |  avg time  |  max time  |%varavg| %total
---------------------------------------------------------------
Pair    | 39.735     | 39.752     | 39.769     |   0.3 | 53.63
Neigh   | 22.44      | 22.707     | 22.973     |   5.6 | 30.63
Comm    | 10.817     | 11.065     | 11.313     |   7.5 | 14.93
Output  | 0.058527   | 0.058564   | 0.058601   |   0.0 |  0.08
Modify  | 0.42359    | 0.42492    | 0.42625    |   0.2 |  0.57
Other   |            | 0.1156     |            |       |  0.16

Nlocal:    9826 ave 9838 max 9814 min
Histogram: 1 0 0 0 0 0 0 0 0 1
Nghost:    14544 ave 14554 max 14534 min
Histogram: 1 0 0 0 0 0 0 0 0 1
Neighs:    980924 ave 983046 max 978801 min
Histogram: 1 0 0 0 0 0 0 0 0 1

Total # of neighbors = 1961847
Ave neighs/atom = 99.8294
Neighbor list builds = 495
Dangerous builds not checked
Setting up Verlet run ...
  Unit style    : metal
  Current step  : 47165
  Time step     : 0.001
Per MPI rank memory allocation (min/avg/max) = 13.05 | 13.06 | 13.06 Mbytes
Step Temp Press TotEng PotEng Enthalpy Volume 
   47165    1905.0361   -225.11038   -64714.014   -69552.979   -64771.624    410031.16 
   47337    1907.2163   -293.86949   -64786.808   -69631.312   -64861.937    409602.55 
Loop time of 22.0754 on 2 procs for 172 steps with 19652 atoms

Performance: 0.673 ns/day, 35.651 hours/ns, 7.791 timesteps/s
99.3% CPU use with 2 MPI tasks x no OpenMP threads

MPI task timing breakdown:
Section |  min time  |  avg time  |  max time  |%varavg| %total
---------------------------------------------------------------
Pair    | 13.614     | 13.685     | 13.756     |   1.9 | 61.99
Neigh   | 7.6946     | 7.754      | 7.8135     |   2.1 | 35.13
Comm    | 0.3339     | 0.46359    | 0.59329    |  19.0 |  2.10
Output  | 7.4863e-05 | 0.00010443 | 0.00013399 |   0.0 |  0.00
Modify  | 0.132      | 0.13253    | 0.13306    |   0.1 |  0.60
Other   |            | 0.04017    |            |       |  0.18

Nlocal:    9826 ave 9835 max 9817 min
Histogram: 1 0 0 0 0 0 0 0 0 1
Nghost:    14533.5 ave 14555 max 14512 min
Histogram: 1 0 0 0 0 0 0 0 0 1
Neighs:    982176 ave 982760 max 981592 min
Histogram: 1 0 0 0 0 0 0 0 0 1

Total # of neighbors = 1964352
Ave neighs/atom = 99.9568
Neighbor list builds = 172
Dangerous builds not checked
Setting up Verlet run ...
  Unit style    : metal
  Current step  : 47337
  Time step     : 0.001
Per MPI rank memory allocation (min/avg/max) = 13.05 | 13.06 | 13.06 Mbytes
Step Temp Press TotEng PotEng Enthalpy Volume 
   47337    1907.2163   -293.86949   -64786.808   -69631.312   -64861.937    409602.55 
   47357    1900.7422   -121.83794   -64787.541   -69615.599   -64818.688     409596.7 
   47832     1862.411     392.1539   -65011.778   -69742.471    -64912.01    407609.23 
Loop time of 63.9517 on 2 procs for 495 steps with 19652 atoms

Performance: 0.669 ns/day, 35.888 hours/ns, 7.740 timesteps/s
99.9% CPU use with 2 MPI tasks x no OpenMP threads

MPI task timing breakdown:
Section |  min time  |  avg time  |  max time  |%varavg| %total
---------------------------------------------------------------
Pair    | 39.251     | 39.372     | 39.493     |   1.9 | 61.57
Neigh   | 23.037     | 23.083     | 23.129     |   1.0 | 36.09
Comm    | 0.85565    | 0.93741    | 1.0192     |   8.4 |  1.47
Output  | 0.057605   | 0.057633   | 0.057662   |   0.0 |  0.09
Modify  | 0.37903    | 0.3845     | 0.38997    |   0.9 |  0.60
Other   |            | 0.1173     |            |       |  0.18

Nlocal:    9826 ave 9837 max 9815 min
Histogram: 1 0 0 0 0 0 0 0 0 1
Nghost:    14527.5 ave 14532 max 14523 min
Histogram: 1 0 0 0 0 0 0 0 0 1
Neighs:    987166 ave 988475 max 985856 min
Histogram: 1 0 0 0 0 0 0 0 0 1

Total # of neighbors = 1974331
Ave neighs/atom = 100.465
Neighbor list builds = 495
Dangerous builds not checked
Setting up Verlet run ...
  Unit style    : metal
  Current step  : 47832
  Time step     : 0.001
Per MPI rank memory allocation (min/avg/max) = 13.05 | 13.06 | 13.06 Mbytes
Step Temp Press TotEng PotEng Enthalpy Volume 
   47832     1862.411     392.1539   -65011.778   -69742.471    -64912.01    407609.23 
   48004     1830.899   -226.63025   -65087.907   -69738.557   -65145.623    408024.84 
Loop time of 22.0476 on 2 procs for 172 steps with 19652 atoms

Performance: 0.674 ns/day, 35.607 hours/ns, 7.801 timesteps/s
100.0% CPU use with 2 MPI tasks x no OpenMP threads

MPI task timing breakdown:
Section |  min time  |  avg time  |  max time  |%varavg| %total
---------------------------------------------------------------
Pair    | 13.663     | 13.734     | 13.805     |   1.9 | 62.29
Neigh   | 7.7325     | 7.8876     | 8.0427     |   5.5 | 35.78
Comm    | 0.16605    | 0.25004    | 0.33403    |  16.8 |  1.13
Output  | 7.2956e-05 | 0.00010252 | 0.00013208 |   0.0 |  0.00
Modify  | 0.13413    | 0.13451    | 0.13488    |   0.1 |  0.61
Other   |            | 0.04138    |            |       |  0.19

Nlocal:    9826 ave 9837 max 9815 min
Histogram: 1 0 0 0 0 0 0 0 0 1
Nghost:    14580 ave 14607 max 14553 min
Histogram: 1 0 0 0 0 0 0 0 0 1
Neighs:    985656 ave 987073 max 984240 min
Histogram: 1 0 0 0 0 0 0 0 0 1

Total # of neighbors = 1971313
Ave neighs/atom = 100.311
Neighbor list builds = 172
Dangerous builds not checked
Setting up Verlet run ...
  Unit style    : metal
  Current step  : 48004
  Time step     : 0.001
Per MPI rank memory allocation (min/avg/max) = 13.05 | 13.06 | 13.06 Mbytes
Step Temp Press TotEng PotEng Enthalpy Volume 
   48004     1830.899   -226.63025   -65087.907   -69738.557   -65145.623    408024.84 
   48024    1831.0047   -69.809672   -65085.925   -69736.843   -65103.703     408022.1 
   48499    1814.7216    376.60788   -65276.988   -69886.546   -65181.485     406292.1 
Loop time of 66.962 on 2 procs for 495 steps with 19652 atoms

Performance: 0.639 ns/day, 37.577 hours/ns, 7.392 timesteps/s
98.2% CPU use with 2 MPI tasks x no OpenMP threads

MPI task timing breakdown:
Section |  min time  |  avg time  |  max time  |%varavg| %total
---------------------------------------------------------------
Pair    | 40.846     | 41.104     | 41.363     |   4.0 | 61.38
Neigh   | 23.357     | 23.726     | 24.094     |   7.6 | 35.43
Comm    | 0.87961    | 1.5143     | 2.1489     |  51.6 |  2.26
Output  | 0.058052   | 0.058094   | 0.058136   |   0.0 |  0.09
Modify  | 0.43602    | 0.44062    | 0.44521    |   0.7 |  0.66
Other   |            | 0.1192     |            |       |  0.18

Nlocal:    9826 ave 9835 max 9817 min
Histogram: 1 0 0 0 0 0 0 0 0 1
Nghost:    14576.5 ave 14596 max 14557 min
Histogram: 1 0 0 0 0 0 0 0 0 1
Neighs:    990120 ave 990574 max 989666 min
Histogram: 1 0 0 0 0 0 0 0 0 1

Total # of neighbors = 1980240
Ave neighs/atom = 100.765
Neighbor list builds = 495
Dangerous builds not checked
Setting up Verlet run ...
  Unit style    : metal
  Current step  : 48499
  Time step     : 0.001
Per MPI rank memory allocation (min/avg/max) = 13.05 | 13.06 | 13.06 Mbytes
Step Temp Press TotEng PotEng Enthalpy Volume 
   48499    1814.7216    376.60788   -65276.988   -69886.546   -65181.485     406292.1 
   48671    1786.3553    -377.5215   -65338.362   -69875.867   -65434.179    406640.09 
Loop time of 22.0081 on 2 procs for 172 steps with 19652 atoms

Performance: 0.675 ns/day, 35.543 hours/ns, 7.815 timesteps/s
99.3% CPU use with 2 MPI tasks x no OpenMP threads

MPI task timing breakdown:
Section |  min time  |  avg time  |  max time  |%varavg| %total
---------------------------------------------------------------
Pair    | 13.443     | 13.551     | 13.659     |   2.9 | 61.57
Neigh   | 7.533      | 7.722      | 7.911      |   6.8 | 35.09
Comm    | 0.25584    | 0.55856    | 0.86128    |  40.5 |  2.54
Output  | 8.297e-05  | 9.799e-05  | 0.00011301 |   0.0 |  0.00
Modify  | 0.13109    | 0.13641    | 0.14172    |   1.4 |  0.62
Other   |            | 0.04018    |            |       |  0.18

Nlocal:    9826 ave 9841 max 9811 min
Histogram: 1 0 0 0 0 0 0 0 0 1
Nghost:    14612 ave 14621 max 14603 min
Histogram: 1 0 0 0 0 0 0 0 0 1
Neighs:    989252 ave 992579 max 985925 min
Histogram: 1 0 0 0 0 0 0 0 0 1

Total # of neighbors = 1978504
Ave neighs/atom = 100.677
Neighbor list builds = 172
Dangerous builds not checked
Setting up Verlet run ...
  Unit style    : metal
  Current step  : 48671
  Time step     : 0.001
Per MPI rank memory allocation (min/avg/max) = 13.05 | 13.06 | 13.06 Mbytes
Step Temp Press TotEng PotEng Enthalpy Volume 
   48671    1786.3553    -377.5215   -65338.362   -69875.867   -65434.179    406640.09 
   48691    1800.2753   -755.41234   -65337.557    -69910.42   -65529.279    406630.02 
   49166    1764.2704   -115.76492   -65545.553   -70026.961   -65574.817    405002.89 
Loop time of 63.7421 on 2 procs for 495 steps with 19652 atoms

Performance: 0.671 ns/day, 35.770 hours/ns, 7.766 timesteps/s
99.0% CPU use with 2 MPI tasks x no OpenMP threads

MPI task timing breakdown:
Section |  min time  |  avg time  |  max time  |%varavg| %total
---------------------------------------------------------------
Pair    | 39.088     | 39.251     | 39.415     |   2.6 | 61.58
Neigh   | 22.18      | 22.26      | 22.339     |   1.7 | 34.92
Comm    | 1.4137     | 1.6553     | 1.8969     |  18.8 |  2.60
Output  | 0.075596   | 0.075639   | 0.075682   |   0.0 |  0.12
Modify  | 0.38551    | 0.38636    | 0.38722    |   0.1 |  0.61
Other   |            | 0.114      |            |       |  0.18

Nlocal:    9826 ave 9850 max 9802 min
Histogram: 1 0 0 0 0 0 0 0 0 1
Nghost:    14625.5 ave 14657 max 14594 min
Histogram: 1 0 0 0 0 0 0 0 0 1
Neighs:    993171 ave 995843 max 990499 min
Histogram: 1 0 0 0 0 0 0 0 0 1

Total # of neighbors = 1986342
Ave neighs/atom = 101.076
Neighbor list builds = 495
Dangerous builds not checked
Setting up Verlet run ...
  Unit style    : metal
  Current step  : 49166
  Time step     : 0.001
Per MPI rank memory allocation (min/avg/max) = 13.05 | 13.06 | 13.06 Mbytes
Step Temp Press TotEng PotEng Enthalpy Volume 
   49166    1764.2704   -115.76492   -65545.553   -70026.961   -65574.817    405002.89 
   49338    1752.3787   -162.99892   -65614.799   -70066.001   -65655.986    404842.46 
Loop time of 21.3092 on 2 procs for 172 steps with 19652 atoms

Performance: 0.697 ns/day, 34.414 hours/ns, 8.072 timesteps/s
100.0% CPU use with 2 MPI tasks x no OpenMP threads

MPI task timing breakdown:
Section |  min time  |  avg time  |  max time  |%varavg| %total
---------------------------------------------------------------
Pair    | 13.095     | 13.132     | 13.17      |   1.0 | 61.63
Neigh   | 7.0869     | 7.4717     | 7.8566     |  14.1 | 35.06
Comm    | 0.18235    | 0.53535    | 0.88836    |  48.2 |  2.51
Output  | 7.5102e-05 | 0.00010264 | 0.00013018 |   0.0 |  0.00
Modify  | 0.12706    | 0.13087    | 0.13469    |   1.1 |  0.61
Other   |            | 0.03884    |            |       |  0.18

Nlocal:    9826 ave 9826 max 9826 min
Histogram: 2 0 0 0 0 0 0 0 0 0
Nghost:    14588 ave 14633 max 14543 min
Histogram: 1 0 0 0 0 0 0 0 0 1
Neighs:    994048 ave 994476 max 993620 min
Histogram: 1 0 0 0 0 0 0 0 0 1

Total # of neighbors = 1988096
Ave neighs/atom = 101.165
Neighbor list builds = 172
Dangerous builds not checked
Setting up Verlet run ...
  Unit style    : metal
  Current step  : 49338
  Time step     : 0.001
Per MPI rank memory allocation (min/avg/max) = 13.05 | 13.06 | 13.06 Mbytes
Step Temp Press TotEng PotEng Enthalpy Volume 
   49338    1752.3787   -162.99892   -65614.799   -70066.001   -65655.986    404842.46 
   49358    1753.6551   -364.65316   -65615.344   -70069.788   -65707.485    404837.13 
   49833    1715.2281    21.477249   -65825.944    -70182.78   -65820.538    403325.49 
Loop time of 64.7456 on 2 procs for 495 steps with 19652 atoms

Performance: 0.661 ns/day, 36.333 hours/ns, 7.645 timesteps/s
99.1% CPU use with 2 MPI tasks x no OpenMP threads

MPI task timing breakdown:
Section |  min time  |  avg time  |  max time  |%varavg| %total
---------------------------------------------------------------
Pair    | 39.79      | 39.936     | 40.082     |   2.3 | 61.68
Neigh   | 23.007     | 23.062     | 23.117     |   1.1 | 35.62
Comm    | 0.95581    | 1.1682     | 1.3806     |  19.7 |  1.80
Output  | 0.062573   | 0.062611   | 0.062648   |   0.0 |  0.10
Modify  | 0.38984    | 0.40096    | 0.41208    |   1.8 |  0.62
Other   |            | 0.1157     |            |       |  0.18

Nlocal:    9826 ave 9831 max 9821 min
Histogram: 1 0 0 0 0 0 0 0 0 1
Nghost:    14636 ave 14637 max 14635 min
Histogram: 1 0 0 0 0 0 0 0 0 1
Neighs:    997531 ave 997834 max 997228 min
Histogram: 1 0 0 0 0 0 0 0 0 1

Total # of neighbors = 1995062
Ave neighs/atom = 101.52
Neighbor list builds = 495
Dangerous builds not checked
Setting up Verlet run ...
  Unit style    : metal
  Current step  : 49833
  Time step     : 0.001
Per MPI rank memory allocation (min/avg/max) = 13.05 | 13.06 | 13.06 Mbytes
Step Temp Press TotEng PotEng Enthalpy Volume 
   49833    1715.2281    21.477249   -65825.944    -70182.78   -65820.538    403325.49 
   50005      1699.33   -662.97642   -65896.121   -70212.574    -66063.02    403336.62 
Loop time of 22.223 on 2 procs for 172 steps with 19652 atoms

Performance: 0.669 ns/day, 35.890 hours/ns, 7.740 timesteps/s
98.0% CPU use with 2 MPI tasks x no OpenMP threads

MPI task timing breakdown:
Section |  min time  |  avg time  |  max time  |%varavg| %total
---------------------------------------------------------------
Pair    | 13.577     | 13.701     | 13.826     |   3.4 | 61.65
Neigh   | 7.5066     | 7.7325     | 7.9584     |   8.1 | 34.79
Comm    | 0.25427    | 0.60636    | 0.95844    |  45.2 |  2.73
Output  | 0.00011611 | 0.00013506 | 0.00015402 |   0.0 |  0.00
Modify  | 0.141      | 0.14252    | 0.14405    |   0.4 |  0.64
Other   |            | 0.04008    |            |       |  0.18

Nlocal:    9826 ave 9827 max 9825 min
Histogram: 1 0 0 0 0 0 0 0 0 1
Nghost:    14678.5 ave 14695 max 14662 min
Histogram: 1 0 0 0 0 0 0 0 0 1
Neighs:    997764 ave 997862 max 997665 min
Histogram: 1 0 0 0 0 0 0 0 0 1

Total # of neighbors = 1995527
Ave neighs/atom = 101.543
Neighbor list builds = 172
Dangerous builds not checked
Setting up Verlet run ...
  Unit style    : metal
  Current step  : 50005
  Time step     : 0.001
Per MPI rank memory allocation (min/avg/max) = 13.05 | 13.06 | 13.06 Mbytes
Step Temp Press TotEng PotEng Enthalpy Volume 
   50005      1699.33   -662.97642   -65896.121   -70212.574    -66063.02    403336.62 
   50025    1708.2787   -961.69324   -65896.255   -70235.438   -66138.345    403320.48 
   50500    1670.7761   -551.88035   -66101.108   -70345.031   -66239.618    402112.38 
Loop time of 62.3764 on 2 procs for 495 steps with 19652 atoms

Performance: 0.686 ns/day, 35.004 hours/ns, 7.936 timesteps/s
99.6% CPU use with 2 MPI tasks x no OpenMP threads

MPI task timing breakdown:
Section |  min time  |  avg time  |  max time  |%varavg| %total
---------------------------------------------------------------
Pair    | 38.164     | 38.297     | 38.431     |   2.2 | 61.40
Neigh   | 21.289     | 21.881     | 22.472     |  12.6 | 35.08
Comm    | 0.91691    | 1.6563     | 2.3957     |  57.5 |  2.66
Output  | 0.060911   | 0.060952   | 0.060993   |   0.0 |  0.10
Modify  | 0.35952    | 0.37056    | 0.3816     |   1.8 |  0.59
Other   |            | 0.1105     |            |       |  0.18

Nlocal:    9826 ave 9828 max 9824 min
Histogram: 1 0 0 0 0 0 0 0 0 1
Nghost:    14670 ave 14674 max 14666 min
Histogram: 1 0 0 0 0 0 0 0 0 1
Neighs:    1.00025e+06 ave 1.00043e+06 max 1.00007e+06 min
Histogram: 1 0 0 0 0 0 0 0 0 1

Total # of neighbors = 2000504
Ave neighs/atom = 101.796
Neighbor list builds = 495
Dangerous builds not checked
Setting up Verlet run ...
  Unit style    : metal
  Current step  : 50500
  Time step     : 0.001
Per MPI rank memory allocation (min/avg/max) = 13.05 | 13.06 | 13.06 Mbytes
Step Temp Press TotEng PotEng Enthalpy Volume 
   50500    1670.7761   -551.88035   -66101.108   -70345.031   -66239.618    402112.38 
   50672    1651.7743   -587.07708   -66162.412   -70358.069   -66309.625    401757.74 
Loop time of 22.2136 on 2 procs for 172 steps with 19652 atoms

Performance: 0.669 ns/day, 35.875 hours/ns, 7.743 timesteps/s
98.0% CPU use with 2 MPI tasks x no OpenMP threads

MPI task timing breakdown:
Section |  min time  |  avg time  |  max time  |%varavg| %total
---------------------------------------------------------------
Pair    | 13.696     | 13.707     | 13.719     |   0.3 | 61.71
Neigh   | 7.4779     | 7.7106     | 7.9434     |   8.4 | 34.71
Comm    | 0.36768    | 0.61597    | 0.86425    |  31.6 |  2.77
Output  | 7.2956e-05 | 9.9421e-05 | 0.00012589 |   0.0 |  0.00
Modify  | 0.13697    | 0.13937    | 0.14176    |   0.6 |  0.63
Other   |            | 0.04007    |            |       |  0.18

Nlocal:    9826 ave 9837 max 9815 min
Histogram: 1 0 0 0 0 0 0 0 0 1
Nghost:    14680.5 ave 14707 max 14654 min
Histogram: 1 0 0 0 0 0 0 0 0 1
Neighs:    1.00154e+06 ave 1.00465e+06 max 998437 min
Histogram: 1 0 0 0 0 0 0 0 0 1

Total # of neighbors = 2003088
Ave neighs/atom = 101.928
Neighbor list builds = 172
Dangerous builds not checked
Setting up Verlet run ...
  Unit style    : metal
  Current step  : 50672
  Time step     : 0.001
Per MPI rank memory allocation (min/avg/max) = 13.05 | 13.06 | 13.06 Mbytes
Step Temp Press TotEng PotEng Enthalpy Volume 
   50672    1651.7743   -587.07708   -66162.412   -70358.069   -66309.625    401757.74 
   50692    1655.7755   -788.00513   -66162.918   -70368.738   -66360.509    401742.74 
   51167    1608.9149   -468.73308   -66383.317   -70470.108   -66500.488    400500.41 
Loop time of 64.4706 on 2 procs for 495 steps with 19652 atoms

Performance: 0.663 ns/day, 36.179 hours/ns, 7.678 timesteps/s
99.6% CPU use with 2 MPI tasks x no OpenMP threads

MPI task timing breakdown:
Section |  min time  |  avg time  |  max time  |%varavg| %total
---------------------------------------------------------------
Pair    | 39.693     | 39.706     | 39.719     |   0.2 | 61.59
Neigh   | 22.702     | 22.865     | 23.028     |   3.4 | 35.47
Comm    | 1.1311     | 1.304      | 1.4769     |  15.1 |  2.02
Output  | 0.086436   | 0.086474   | 0.086511   |   0.0 |  0.13
Modify  | 0.38913    | 0.39015    | 0.39116    |   0.2 |  0.61
Other   |            | 0.1188     |            |       |  0.18

Nlocal:    9826 ave 9840 max 9812 min
Histogram: 1 0 0 0 0 0 0 0 0 1
Nghost:    14666.5 ave 14680 max 14653 min
Histogram: 1 0 0 0 0 0 0 0 0 1
Neighs:    1.00466e+06 ave 1.00799e+06 max 1.00134e+06 min
Histogram: 1 0 0 0 0 0 0 0 0 1

Total # of neighbors = 2009328
Ave neighs/atom = 102.245
Neighbor list builds = 495
Dangerous builds not checked
Setting up Verlet run ...
  Unit style    : metal
  Current step  : 51167
  Time step     : 0.001
Per MPI rank memory allocation (min/avg/max) = 13.05 | 13.06 | 13.07 Mbytes
Step Temp Press TotEng PotEng Enthalpy Volume 
   51167    1608.9149   -468.73308   -66383.317   -70470.108   -66500.488    400500.41 
   51339     1607.495   -298.45127   -66441.906    -70525.09   -66516.424    400032.88 
Loop time of 22.3954 on 2 procs for 172 steps with 19652 atoms

Performance: 0.664 ns/day, 36.168 hours/ns, 7.680 timesteps/s
97.8% CPU use with 2 MPI tasks x no OpenMP threads

MPI task timing breakdown:
Section |  min time  |  avg time  |  max time  |%varavg| %total
---------------------------------------------------------------
Pair    | 13.824     | 13.907     | 13.99      |   2.2 | 62.10
Neigh   | 7.5841     | 7.7286     | 7.8731     |   5.2 | 34.51
Comm    | 0.35324    | 0.58382    | 0.8144     |  30.2 |  2.61
Output  | 8.2016e-05 | 0.00010252 | 0.00012302 |   0.0 |  0.00
Modify  | 0.1327     | 0.13577    | 0.13884    |   0.8 |  0.61
Other   |            | 0.04022    |            |       |  0.18

Nlocal:    9826 ave 9837 max 9815 min
Histogram: 1 0 0 0 0 0 0 0 0 1
Nghost:    14691.5 ave 14711 max 14672 min
Histogram: 1 0 0 0 0 0 0 0 0 1
Neighs:    1.00551e+06 ave 1.00854e+06 max 1.00248e+06 min
Histogram: 1 0 0 0 0 0 0 0 0 1

Total # of neighbors = 2011015
Ave neighs/atom = 102.331
Neighbor list builds = 172
Dangerous builds not checked
Setting up Verlet run ...
  Unit style    : metal
  Current step  : 51339
  Time step     : 0.001
Per MPI rank memory allocation (min/avg/max) = 13.05 | 13.06 | 13.07 Mbytes
Step Temp Press TotEng PotEng Enthalpy Volume 
   51339     1607.495   -298.45127   -66441.906    -70525.09   -66516.424    400032.88 
   51359    1607.6375   -317.80602   -66442.749   -70526.295   -66522.098    400025.79 
   51834    1557.3943    390.88142   -66690.003   -70645.927   -66592.805     398402.7 
Loop time of 65.2781 on 2 procs for 495 steps with 19652 atoms

Performance: 0.655 ns/day, 36.632 hours/ns, 7.583 timesteps/s
100.0% CPU use with 2 MPI tasks x no OpenMP threads

MPI task timing breakdown:
Section |  min time  |  avg time  |  max time  |%varavg| %total
---------------------------------------------------------------
Pair    | 40.106     | 40.212     | 40.317     |   1.7 | 61.60
Neigh   | 22.552     | 22.997     | 23.443     |   9.3 | 35.23
Comm    | 1.1612     | 1.5083     | 1.8553     |  28.3 |  2.31
Output  | 0.061245   | 0.061272   | 0.061299   |   0.0 |  0.09
Modify  | 0.38069    | 0.38525    | 0.38981    |   0.7 |  0.59
Other   |            | 0.1141     |            |       |  0.17

Nlocal:    9826 ave 9845 max 9807 min
Histogram: 1 0 0 0 0 0 0 0 0 1
Nghost:    14762.5 ave 14782 max 14743 min
Histogram: 1 0 0 0 0 0 0 0 0 1
Neighs:    1.00996e+06 ave 1.01215e+06 max 1.00776e+06 min
Histogram: 1 0 0 0 0 0 0 0 0 1

Total # of neighbors = 2019918
Ave neighs/atom = 102.784
Neighbor list builds = 495
Dangerous builds not checked
Setting up Verlet run ...
  Unit style    : metal
  Current step  : 51834
  Time step     : 0.001
Per MPI rank memory allocation (min/avg/max) = 13.06 | 13.06 | 13.07 Mbytes
Step Temp Press TotEng PotEng Enthalpy Volume 
   51834    1557.3943    390.88142   -66690.003   -70645.927   -66592.805     398402.7 
   52006     1558.516   -1025.3889   -66744.135   -70702.908   -66999.288    398677.32 
Loop time of 22.3364 on 2 procs for 172 steps with 19652 atoms

Performance: 0.665 ns/day, 36.073 hours/ns, 7.700 timesteps/s
100.0% CPU use with 2 MPI tasks x no OpenMP threads

MPI task timing breakdown:
Section |  min time  |  avg time  |  max time  |%varavg| %total
---------------------------------------------------------------
Pair    | 13.892     | 13.955     | 14.018     |   1.7 | 62.48
Neigh   | 7.4369     | 7.7049     | 7.9729     |   9.7 | 34.49
Comm    | 0.29063    | 0.50003    | 0.70942    |  29.6 |  2.24
Output  | 7.4863e-05 | 0.0001024  | 0.00012994 |   0.0 |  0.00
Modify  | 0.13342    | 0.1364     | 0.13939    |   0.8 |  0.61
Other   |            | 0.04       |            |       |  0.18

Nlocal:    9826 ave 9829 max 9823 min
Histogram: 1 0 0 0 0 0 0 0 0 1
Nghost:    14725 ave 14735 max 14715 min
Histogram: 1 0 0 0 0 0 0 0 0 1
Neighs:    1.00929e+06 ave 1.0096e+06 max 1.00899e+06 min
Histogram: 1 0 0 0 0 0 0 0 0 1

Total # of neighbors = 2018588
Ave neighs/atom = 102.717
Neighbor list builds = 172
Dangerous builds not checked
Setting up Verlet run ...
  Unit style    : metal
  Current step  : 52006
  Time step     : 0.001
Per MPI rank memory allocation (min/avg/max) = 13.06 | 13.06 | 13.07 Mbytes
Step Temp Press TotEng PotEng Enthalpy Volume 
   52006     1558.516   -1025.3889   -66744.135   -70702.908   -66999.288    398677.32 
   52026    1541.1843   -685.55926   -66744.478   -70659.226   -66915.059    398655.91 
   52501    1499.1589    -201.7586   -66957.283   -70765.283   -67007.302    397203.77 
Loop time of 63.8457 on 2 procs for 495 steps with 19652 atoms

Performance: 0.670 ns/day, 35.828 hours/ns, 7.753 timesteps/s
99.9% CPU use with 2 MPI tasks x no OpenMP threads

MPI task timing breakdown:
Section |  min time  |  avg time  |  max time  |%varavg| %total
---------------------------------------------------------------
Pair    | 39.384     | 39.406     | 39.428     |   0.3 | 61.72
Neigh   | 22.593     | 22.644     | 22.696     |   1.1 | 35.47
Comm    | 1.1647     | 1.2403     | 1.316      |   6.8 |  1.94
Output  | 0.057927   | 0.057973   | 0.058019   |   0.0 |  0.09
Modify  | 0.38025    | 0.38181    | 0.38337    |   0.3 |  0.60
Other   |            | 0.1151     |            |       |  0.18

Nlocal:    9826 ave 9830 max 9822 min
Histogram: 1 0 0 0 0 0 0 0 0 1
Nghost:    14733.5 ave 14767 max 14700 min
Histogram: 1 0 0 0 0 0 0 0 0 1
Neighs:    1.0129e+06 ave 1.01312e+06 max 1.01268e+06 min
Histogram: 1 0 0 0 0 0 0 0 0 1

Total # of neighbors = 2025801
Ave neighs/atom = 103.084
Neighbor list builds = 495
Dangerous builds not checked
Setting up Verlet run ...
  Unit style    : metal
  Current step  : 52501
  Time step     : 0.001
Per MPI rank memory allocation (min/avg/max) = 13.06 | 13.06 | 13.07 Mbytes
Step Temp Press TotEng PotEng Enthalpy Volume 
   52501    1499.1589    -201.7586   -66957.283   -70765.283   -67007.302    397203.77 
   52673    1494.2697    203.93776   -67024.097   -70819.678   -66973.631    396471.66 
Loop time of 21.9751 on 2 procs for 172 steps with 19652 atoms

Performance: 0.676 ns/day, 35.490 hours/ns, 7.827 timesteps/s
100.0% CPU use with 2 MPI tasks x no OpenMP threads

MPI task timing breakdown:
Section |  min time  |  avg time  |  max time  |%varavg| %total
---------------------------------------------------------------
Pair    | 13.629     | 13.71      | 13.791     |   2.2 | 62.39
Neigh   | 7.0723     | 7.4844     | 7.8965     |  15.1 | 34.06
Comm    | 0.27576    | 0.61298    | 0.9502     |  43.1 |  2.79
Output  | 9.7036e-05 | 0.00012696 | 0.00015688 |   0.0 |  0.00
Modify  | 0.12404    | 0.1285     | 0.13295    |   1.2 |  0.58
Other   |            | 0.03911    |            |       |  0.18

Nlocal:    9826 ave 9839 max 9813 min
Histogram: 1 0 0 0 0 0 0 0 0 1
Nghost:    14759 ave 14798 max 14720 min
Histogram: 1 0 0 0 0 0 0 0 0 1
Neighs:    1.01437e+06 ave 1.01637e+06 max 1.01237e+06 min
Histogram: 1 0 0 0 0 0 0 0 0 1

Total # of neighbors = 2028737
Ave neighs/atom = 103.233
Neighbor list builds = 172
Dangerous builds not checked
Setting up Verlet run ...
  Unit style    : metal
  Current step  : 52673
  Time step     : 0.001
Per MPI rank memory allocation (min/avg/max) = 13.06 | 13.06 | 13.07 Mbytes
Step Temp Press TotEng PotEng Enthalpy Volume 
   52673    1494.2697    203.93776   -67024.097   -70819.678   -66973.631    396471.66 
   52693    1491.6765    346.35908   -67023.309   -70812.303   -66937.598    396478.28 
   53168    1461.9175    22.273884   -67223.162   -70936.565   -67217.662    395596.19 
Loop time of 63.3469 on 2 procs for 495 steps with 19652 atoms

Performance: 0.675 ns/day, 35.548 hours/ns, 7.814 timesteps/s
99.9% CPU use with 2 MPI tasks x no OpenMP threads

MPI task timing breakdown:
Section |  min time  |  avg time  |  max time  |%varavg| %total
---------------------------------------------------------------
Pair    | 39.223     | 39.307     | 39.392     |   1.4 | 62.05
Neigh   | 21.871     | 21.884     | 21.897     |   0.3 | 34.55
Comm    | 1.5136     | 1.5882     | 1.6628     |   5.9 |  2.51
Output  | 0.081776   | 0.081814   | 0.081853   |   0.0 |  0.13
Modify  | 0.37195    | 0.37336    | 0.37476    |   0.2 |  0.59
Other   |            | 0.1121     |            |       |  0.18

Nlocal:    9826 ave 9830 max 9822 min
Histogram: 1 0 0 0 0 0 0 0 0 1
Nghost:    14785 ave 14808 max 14762 min
Histogram: 1 0 0 0 0 0 0 0 0 1
Neighs:    1.01691e+06 ave 1.01756e+06 max 1.01626e+06 min
Histogram: 1 0 0 0 0 0 0 0 0 1

Total # of neighbors = 2033819
Ave neighs/atom = 103.492
Neighbor list builds = 495
Dangerous builds not checked
Setting up Verlet run ...
  Unit style    : metal
  Current step  : 53168
  Time step     : 0.001
Per MPI rank memory allocation (min/avg/max) = 13.06 | 13.06 | 13.07 Mbytes
Step Temp Press TotEng PotEng Enthalpy Volume 
   53168    1461.9175    22.273884   -67223.162   -70936.565   -67217.662    395596.19 
   53340    1456.0588    69.568799    -67293.43   -70991.951   -67276.274    395086.42 
Loop time of 21.7257 on 2 procs for 172 steps with 19652 atoms

Performance: 0.684 ns/day, 35.087 hours/ns, 7.917 timesteps/s
99.9% CPU use with 2 MPI tasks x no OpenMP threads

MPI task timing breakdown:
Section |  min time  |  avg time  |  max time  |%varavg| %total
---------------------------------------------------------------
Pair    | 13.522     | 13.541     | 13.56      |   0.5 | 62.33
Neigh   | 7.571      | 7.6966     | 7.8223     |   4.5 | 35.43
Comm    | 0.16722    | 0.31387    | 0.46053    |  26.2 |  1.44
Output  | 8.1062e-05 | 0.00010157 | 0.00012207 |   0.0 |  0.00
Modify  | 0.13253    | 0.13346    | 0.13439    |   0.3 |  0.61
Other   |            | 0.04047    |            |       |  0.19

Nlocal:    9826 ave 9828 max 9824 min
Histogram: 1 0 0 0 0 0 0 0 0 1
Nghost:    14777.5 ave 14779 max 14776 min
Histogram: 1 0 0 0 0 0 0 0 0 1
Neighs:    1.01841e+06 ave 1.01876e+06 max 1.01806e+06 min
Histogram: 1 0 0 0 0 0 0 0 0 1

Total # of neighbors = 2036821
Ave neighs/atom = 103.644
Neighbor list builds = 172
Dangerous builds not checked
Setting up Verlet run ...
  Unit style    : metal
  Current step  : 53340
  Time step     : 0.001
Per MPI rank memory allocation (min/avg/max) = 13.06 | 13.06 | 13.07 Mbytes
Step Temp Press TotEng PotEng Enthalpy Volume 
   53340    1456.0588    69.568799    -67293.43   -70991.951   -67276.274    395086.42 
   53360    1459.6291     -135.185   -67294.298   -71001.889   -67327.634       395086 
   53835     1420.347   -266.58519   -67544.645   -71152.456   -67610.113     393461.1 
Loop time of 64.5404 on 2 procs for 495 steps with 19652 atoms

Performance: 0.663 ns/day, 36.218 hours/ns, 7.670 timesteps/s
99.3% CPU use with 2 MPI tasks x no OpenMP threads

MPI task timing breakdown:
Section |  min time  |  avg time  |  max time  |%varavg| %total
---------------------------------------------------------------
Pair    | 39.536     | 39.79      | 40.044     |   4.0 | 61.65
Neigh   | 22.224     | 22.67      | 23.116     |   9.4 | 35.13
Comm    | 0.8122     | 1.5222     | 2.2321     |  57.5 |  2.36
Output  | 0.056299   | 0.056349   | 0.056399   |   0.0 |  0.09
Modify  | 0.37985    | 0.3876     | 0.39535    |   1.2 |  0.60
Other   |            | 0.1146     |            |       |  0.18

Nlocal:    9826 ave 9836 max 9816 min
Histogram: 1 0 0 0 0 0 0 0 0 1
Nghost:    14776.5 ave 14785 max 14768 min
Histogram: 1 0 0 0 0 0 0 0 0 1
Neighs:    1.02248e+06 ave 1.02529e+06 max 1.01967e+06 min
Histogram: 1 0 0 0 0 0 0 0 0 1

Total # of neighbors = 2044959
Ave neighs/atom = 104.059
Neighbor list builds = 495
Dangerous builds not checked
Setting up Verlet run ...
  Unit style    : metal
  Current step  : 53835
  Time step     : 0.001
Per MPI rank memory allocation (min/avg/max) = 13.06 | 13.06 | 13.07 Mbytes
Step Temp Press TotEng PotEng Enthalpy Volume 
   53835     1420.347   -266.58519   -67544.645   -71152.456   -67610.113     393461.1 
   54007    1401.8084   -158.87928   -67612.629    -71173.35   -67651.618    393172.92 
Loop time of 22.1263 on 2 procs for 172 steps with 19652 atoms

Performance: 0.672 ns/day, 35.734 hours/ns, 7.774 timesteps/s
100.0% CPU use with 2 MPI tasks x no OpenMP threads

MPI task timing breakdown:
Section |  min time  |  avg time  |  max time  |%varavg| %total
---------------------------------------------------------------
Pair    | 13.784     | 13.822     | 13.861     |   1.0 | 62.47
Neigh   | 7.7489     | 7.8241     | 7.8993     |   2.7 | 35.36
Comm    | 0.18846    | 0.30328    | 0.4181     |  20.9 |  1.37
Output  | 7.8917e-05 | 0.00010693 | 0.00013494 |   0.0 |  0.00
Modify  | 0.13454    | 0.13539    | 0.13623    |   0.2 |  0.61
Other   |            | 0.04094    |            |       |  0.19

Nlocal:    9826 ave 9863 max 9789 min
Histogram: 1 0 0 0 0 0 0 0 0 1
Nghost:    14787.5 ave 14821 max 14754 min
Histogram: 1 0 0 0 0 0 0 0 0 1
Neighs:    1.02359e+06 ave 1.02976e+06 max 1.01741e+06 min
Histogram: 1 0 0 0 0 0 0 0 0 1

Total # of neighbors = 2047176
Ave neighs/atom = 104.171
Neighbor list builds = 172
Dangerous builds not checked
Setting up Verlet run ...
  Unit style    : metal
  Current step  : 54007
  Time step     : 0.001
Per MPI rank memory allocation (min/avg/max) = 13.06 | 13.06 | 13.07 Mbytes
Step Temp Press TotEng PotEng Enthalpy Volume 
   54007    1401.8084   -158.87928   -67612.629    -71173.35   -67651.618    393172.92 
   54027    1406.8711   -204.01048    -67612.89    -71186.47   -67662.953       393170 
   54502    1359.2941   -431.21745   -67829.025   -71281.756   -67934.582    392191.15 
Loop time of 63.4101 on 2 procs for 495 steps with 19652 atoms

Performance: 0.674 ns/day, 35.584 hours/ns, 7.806 timesteps/s
99.5% CPU use with 2 MPI tasks x no OpenMP threads

MPI task timing breakdown:
Section |  min time  |  avg time  |  max time  |%varavg| %total
---------------------------------------------------------------
Pair    | 39.117     | 39.337     | 39.556     |   3.5 | 62.04
Neigh   | 21.596     | 21.84      | 22.084     |   5.2 | 34.44
Comm    | 1.2148     | 1.684      | 2.1531     |  36.2 |  2.66
Output  | 0.073057   | 0.073094   | 0.073132   |   0.0 |  0.12
Modify  | 0.3616     | 0.36535    | 0.36911    |   0.6 |  0.58
Other   |            | 0.1109     |            |       |  0.17

Nlocal:    9826 ave 9838 max 9814 min
Histogram: 1 0 0 0 0 0 0 0 0 1
Nghost:    14833 ave 14858 max 14808 min
Histogram: 1 0 0 0 0 0 0 0 0 1
Neighs:    1.02572e+06 ave 1.0271e+06 max 1.02434e+06 min
Histogram: 1 0 0 0 0 0 0 0 0 1

Total # of neighbors = 2051441
Ave neighs/atom = 104.388
Neighbor list builds = 495
Dangerous builds not checked
Setting up Verlet run ...
  Unit style    : metal
  Current step  : 54502
  Time step     : 0.001
Per MPI rank memory allocation (min/avg/max) = 13.06 | 13.06 | 13.07 Mbytes
Step Temp Press TotEng PotEng Enthalpy Volume 
   54502    1359.2941   -431.21745   -67829.025   -71281.756   -67934.582    392191.15 
   54674    1363.5617    -189.9178    -67890.46    -71354.03   -67936.876    391574.26 
Loop time of 23.0127 on 2 procs for 172 steps with 19652 atoms

Performance: 0.646 ns/day, 37.165 hours/ns, 7.474 timesteps/s
98.1% CPU use with 2 MPI tasks x no OpenMP threads

MPI task timing breakdown:
Section |  min time  |  avg time  |  max time  |%varavg| %total
---------------------------------------------------------------
Pair    | 14.29      | 14.383     | 14.477     |   2.5 | 62.50
Neigh   | 7.6321     | 7.7832     | 7.9343     |   5.4 | 33.82
Comm    | 0.42078    | 0.66865    | 0.91653    |  30.3 |  2.91
Output  | 7.1049e-05 | 0.00010002 | 0.00012898 |   0.0 |  0.00
Modify  | 0.13482    | 0.13766    | 0.1405     |   0.8 |  0.60
Other   |            | 0.03979    |            |       |  0.17

Nlocal:    9826 ave 9830 max 9822 min
Histogram: 1 0 0 0 0 0 0 0 0 1
Nghost:    14871 ave 14874 max 14868 min
Histogram: 1 0 0 0 0 0 0 0 0 1
Neighs:    1.02751e+06 ave 1.02863e+06 max 1.02639e+06 min
Histogram: 1 0 0 0 0 0 0 0 0 1

Total # of neighbors = 2055019
Ave neighs/atom = 104.57
Neighbor list builds = 172
Dangerous builds not checked
Setting up Verlet run ...
  Unit style    : metal
  Current step  : 54674
  Time step     : 0.001
Per MPI rank memory allocation (min/avg/max) = 13.06 | 13.06 | 13.07 Mbytes
Step Temp Press TotEng PotEng Enthalpy Volume 
   54674    1363.5617    -189.9178    -67890.46    -71354.03   -67936.876    391574.26 
   54694    1355.5175   -144.31593   -67891.753   -71334.891   -67927.024    391568.75 
   55169    1322.3564    -323.3081   -68114.582   -71473.488   -68193.352    390348.63 
Loop time of 65.4403 on 2 procs for 495 steps with 19652 atoms

Performance: 0.654 ns/day, 36.723 hours/ns, 7.564 timesteps/s
99.5% CPU use with 2 MPI tasks x no OpenMP threads

MPI task timing breakdown:
Section |  min time  |  avg time  |  max time  |%varavg| %total
---------------------------------------------------------------
Pair    | 40.655     | 40.863     | 41.072     |   3.3 | 62.44
Neigh   | 22.135     | 22.461     | 22.787     |   6.9 | 34.32
Comm    | 1.4331     | 1.5552     | 1.6773     |   9.8 |  2.38
Output  | 0.056478   | 0.05651    | 0.056542   |   0.0 |  0.09
Modify  | 0.3865     | 0.38836    | 0.39023    |   0.3 |  0.59
Other   |            | 0.1164     |            |       |  0.18

Nlocal:    9826 ave 9830 max 9822 min
Histogram: 1 0 0 0 0 0 0 0 0 1
Nghost:    14825.5 ave 14831 max 14820 min
Histogram: 1 0 0 0 0 0 0 0 0 1
Neighs:    1.03086e+06 ave 1.0309e+06 max 1.03083e+06 min
Histogram: 1 0 0 0 0 0 0 0 0 1

Total # of neighbors = 2061723
Ave neighs/atom = 104.912
Neighbor list builds = 495
Dangerous builds not checked
Setting up Verlet run ...
  Unit style    : metal
  Current step  : 55169
  Time step     : 0.001
Per MPI rank memory allocation (min/avg/max) = 13.06 | 13.06 | 13.07 Mbytes
Step Temp Press TotEng PotEng Enthalpy Volume 
   55169    1322.3564    -323.3081   -68114.582   -71473.488   -68193.352    390348.63 
   55341    1305.0048   -162.64882   -68176.052   -71490.883   -68215.646    390024.42 
Loop time of 23.3771 on 2 procs for 172 steps with 19652 atoms

Performance: 0.636 ns/day, 37.754 hours/ns, 7.358 timesteps/s
97.4% CPU use with 2 MPI tasks x no OpenMP threads

MPI task timing breakdown:
Section |  min time  |  avg time  |  max time  |%varavg| %total
---------------------------------------------------------------
Pair    | 14.416     | 14.612     | 14.809     |   5.1 | 62.51
Neigh   | 7.1303     | 7.6777     | 8.225      |  19.8 | 32.84
Comm    | 0.16289    | 0.91638    | 1.6699     |  78.7 |  3.92
Output  | 7.8917e-05 | 0.00010502 | 0.00013113 |   0.0 |  0.00
Modify  | 0.1247     | 0.13013    | 0.13555    |   1.5 |  0.56
Other   |            | 0.04059    |            |       |  0.17

Nlocal:    9826 ave 9832 max 9820 min
Histogram: 1 0 0 0 0 0 0 0 0 1
Nghost:    14848.5 ave 14865 max 14832 min
Histogram: 1 0 0 0 0 0 0 0 0 1
[...]
Modify  | 0.37889    | 0.38082    | 0.38275    |   0.3 |  0.57
Other   |            | 0.1174     |            |       |  0.17

Nlocal:    9826 ave 9831 max 9821 min
Histogram: 1 0 0 0 0 0 0 0 0 1
Nghost:    15394 ave 15401 max 15387 min
Histogram: 1 0 0 0 0 0 0 0 0 1
Neighs:    1.13527e+06 ave 1.13588e+06 max 1.13466e+06 min
Histogram: 1 0 0 0 0 0 0 0 0 1

Total # of neighbors = 2270539
Ave neighs/atom = 115.537
Neighbor list builds = 495
Dangerous builds not checked
Setting up Verlet run ...
  Unit style    : metal
  Current step  : 67175
  Time step     : 0.001
Per MPI rank memory allocation (min/avg/max) = 13.06 | 13.07 | 13.07 Mbytes
Step Temp Press TotEng PotEng Enthalpy Volume 
   67175     424.4809    126.73909   -73911.424   -74989.644   -73883.212    356641.75 
   67347    416.01461    233.46876   -73974.095    -75030.81   -73922.192    356187.65 
Loop time of 23.8672 on 2 procs for 172 steps with 19652 atoms

Performance: 0.623 ns/day, 38.545 hours/ns, 7.207 timesteps/s
97.9% CPU use with 2 MPI tasks x no OpenMP threads

MPI task timing breakdown:
Section |  min time  |  avg time  |  max time  |%varavg| %total
---------------------------------------------------------------
Pair    | 14.975     | 15.159     | 15.343     |   4.7 | 63.51
Neigh   | 7.2352     | 7.441      | 7.6468     |   7.5 | 31.18
Comm    | 0.67523    | 1.0688     | 1.4623     |  38.1 |  4.48
Output  | 7.987e-05  | 0.00010884 | 0.00013781 |   0.0 |  0.00
Modify  | 0.15561    | 0.15844    | 0.16126    |   0.7 |  0.66
Other   |            | 0.04005    |            |       |  0.17

Nlocal:    9826 ave 9829 max 9823 min
Histogram: 1 0 0 0 0 0 0 0 0 1
Nghost:    15419.5 ave 15456 max 15383 min
Histogram: 1 0 0 0 0 0 0 0 0 1
Neighs:    1.13697e+06 ave 1.13735e+06 max 1.13659e+06 min
Histogram: 1 0 0 0 0 0 0 0 0 1

Total # of neighbors = 2273938
Ave neighs/atom = 115.71
Neighbor list builds = 172
Dangerous builds not checked
Setting up Verlet run ...
  Unit style    : metal
  Current step  : 67347
  Time step     : 0.001
Per MPI rank memory allocation (min/avg/max) = 13.06 | 13.07 | 13.07 Mbytes
Step Temp Press TotEng PotEng Enthalpy Volume 
   67347    416.01461    233.46876   -73974.095    -75030.81   -73922.192    356187.65 
   67367    416.99625    165.90077   -73975.957   -75035.165   -73939.073    356202.67 
   67842     377.8986   -127.45358   -74214.213   -75174.109   -74242.461    355102.49 
Loop time of 69.6853 on 2 procs for 495 steps with 19652 atoms

Performance: 0.614 ns/day, 39.105 hours/ns, 7.103 timesteps/s
98.3% CPU use with 2 MPI tasks x no OpenMP threads

MPI task timing breakdown:
Section |  min time  |  avg time  |  max time  |%varavg| %total
---------------------------------------------------------------
Pair    | 44.333     | 44.701     | 45.069     |   5.5 | 64.15
Neigh   | 22.57      | 22.762     | 22.955     |   4.0 | 32.66
Comm    | 0.94546    | 1.5089     | 2.0724     |  45.9 |  2.17
Output  | 0.19686    | 0.19689    | 0.19692    |   0.0 |  0.28
Modify  | 0.3941     | 0.39692    | 0.39974    |   0.4 |  0.57
Other   |            | 0.1191     |            |       |  0.17

Nlocal:    9826 ave 9827 max 9825 min
Histogram: 1 0 0 0 0 0 0 0 0 1
Nghost:    15460.5 ave 15476 max 15445 min
Histogram: 1 0 0 0 0 0 0 0 0 1
Neighs:    1.14089e+06 ave 1.14208e+06 max 1.1397e+06 min
Histogram: 1 0 0 0 0 0 0 0 0 1

Total # of neighbors = 2281775
Ave neighs/atom = 116.109
Neighbor list builds = 495
Dangerous builds not checked
Setting up Verlet run ...
  Unit style    : metal
  Current step  : 67842
  Time step     : 0.001
Per MPI rank memory allocation (min/avg/max) = 13.06 | 13.07 | 13.07 Mbytes
Step Temp Press TotEng PotEng Enthalpy Volume 
   67842     377.8986   -127.45358   -74214.213   -75174.109   -74242.461    355102.49 
   68014    369.49491   -64.751965   -74273.563   -75212.114   -74287.904     354837.6 
Loop time of 23.2018 on 2 procs for 172 steps with 19652 atoms

Performance: 0.641 ns/day, 37.471 hours/ns, 7.413 timesteps/s
100.0% CPU use with 2 MPI tasks x no OpenMP threads

MPI task timing breakdown:
Section |  min time  |  avg time  |  max time  |%varavg| %total
---------------------------------------------------------------
Pair    | 15.029     | 15.062     | 15.095     |   0.8 | 64.92
Neigh   | 7.7123     | 7.7355     | 7.7587     |   0.8 | 33.34
Comm    | 0.16947    | 0.2263     | 0.28313    |  11.9 |  0.98
Output  | 7.2956e-05 | 9.9897e-05 | 0.00012684 |   0.0 |  0.00
Modify  | 0.13522    | 0.13575    | 0.13628    |   0.1 |  0.59
Other   |            | 0.04216    |            |       |  0.18

Nlocal:    9826 ave 9827 max 9825 min
Histogram: 1 0 0 0 0 0 0 0 0 1
Nghost:    15480.5 ave 15497 max 15464 min
Histogram: 1 0 0 0 0 0 0 0 0 1
Neighs:    1.14206e+06 ave 1.14231e+06 max 1.14181e+06 min
Histogram: 1 0 0 0 0 0 0 0 0 1

Total # of neighbors = 2284126
Ave neighs/atom = 116.229
Neighbor list builds = 172
Dangerous builds not checked
Setting up Verlet run ...
  Unit style    : metal
  Current step  : 68014
  Time step     : 0.001
Per MPI rank memory allocation (min/avg/max) = 13.06 | 13.07 | 13.07 Mbytes
Step Temp Press TotEng PotEng Enthalpy Volume 
   68014    369.49491   -64.751965   -74273.563   -75212.114   -74287.904     354837.6 
   68034    369.17245   -135.89176   -74275.813   -75213.545   -74305.909    354829.38 
   68509    327.95261    142.56855    -74502.41   -75335.439    -74470.95    353540.94 
Loop time of 68.7608 on 2 procs for 495 steps with 19652 atoms

Performance: 0.622 ns/day, 38.586 hours/ns, 7.199 timesteps/s
99.7% CPU use with 2 MPI tasks x no OpenMP threads

MPI task timing breakdown:
Section |  min time  |  avg time  |  max time  |%varavg| %total
---------------------------------------------------------------
Pair    | 44.529     | 44.55      | 44.572     |   0.3 | 64.79
Neigh   | 22.685     | 22.716     | 22.747     |   0.6 | 33.04
Comm    | 0.90769    | 0.91618    | 0.92468    |   0.9 |  1.33
Output  | 0.064277   | 0.064316   | 0.064355   |   0.0 |  0.09
Modify  | 0.39264    | 0.39335    | 0.39406    |   0.1 |  0.57
Other   |            | 0.1209     |            |       |  0.18

Nlocal:    9826 ave 9827 max 9825 min
Histogram: 1 0 0 0 0 0 0 0 0 1
Nghost:    15496.5 ave 15499 max 15494 min
Histogram: 1 0 0 0 0 0 0 0 0 1
Neighs:    1.14686e+06 ave 1.14757e+06 max 1.14614e+06 min
Histogram: 1 0 0 0 0 0 0 0 0 1

Total # of neighbors = 2293711
Ave neighs/atom = 116.716
Neighbor list builds = 495
Dangerous builds not checked
Setting up Verlet run ...
  Unit style    : metal
  Current step  : 68509
  Time step     : 0.001
Per MPI rank memory allocation (min/avg/max) = 13.06 | 13.07 | 13.07 Mbytes
Step Temp Press TotEng PotEng Enthalpy Volume 
   68509    327.95261    142.56855    -74502.41   -75335.439    -74470.95    353540.94 
   68681    316.98032    112.46031   -74562.274   -75367.433   -74537.477    353271.39 
Loop time of 24.8187 on 2 procs for 172 steps with 19652 atoms

Performance: 0.599 ns/day, 40.082 hours/ns, 6.930 timesteps/s
97.6% CPU use with 2 MPI tasks x no OpenMP threads

MPI task timing breakdown:
Section |  min time  |  avg time  |  max time  |%varavg| %total
---------------------------------------------------------------
Pair    | 15.928     | 16.082     | 16.236     |   3.8 | 64.80
Neigh   | 7.604      | 7.766      | 7.928      |   5.8 | 31.29
Comm    | 0.48301    | 0.79951    | 1.116      |  35.4 |  3.22
Output  | 7.987e-05  | 9.9421e-05 | 0.00011897 |   0.0 |  0.00
Modify  | 0.12989    | 0.13092    | 0.13194    |   0.3 |  0.53
Other   |            | 0.04046    |            |       |  0.16

Nlocal:    9826 ave 9835 max 9817 min
Histogram: 1 0 0 0 0 0 0 0 0 1
Nghost:    15505.5 ave 15530 max 15481 min
Histogram: 1 0 0 0 0 0 0 0 0 1
Neighs:    1.148e+06 ave 1.14939e+06 max 1.14661e+06 min
Histogram: 1 0 0 0 0 0 0 0 0 1

Total # of neighbors = 2295993
Ave neighs/atom = 116.833
Neighbor list builds = 172
Dangerous builds not checked
Setting up Verlet run ...
  Unit style    : metal
  Current step  : 68681
  Time step     : 0.001
Per MPI rank memory allocation (min/avg/max) = 13.06 | 13.07 | 13.07 Mbytes
Step Temp Press TotEng PotEng Enthalpy Volume 
   68681    316.98032    112.46031   -74562.274   -75367.433   -74537.477    353271.39 
   68701    316.91331    38.128113   -74564.219   -75369.208   -74555.812    353279.57 
   69176    278.69642    193.19235   -74785.425    -75493.34   -74742.944    352301.09 
Loop time of 69.9073 on 2 procs for 495 steps with 19652 atoms

Performance: 0.612 ns/day, 39.230 hours/ns, 7.081 timesteps/s
97.9% CPU use with 2 MPI tasks x no OpenMP threads

MPI task timing breakdown:
Section |  min time  |  avg time  |  max time  |%varavg| %total
---------------------------------------------------------------
Pair    | 44.989     | 45.06      | 45.131     |   1.1 | 64.46
Neigh   | 22.113     | 22.297     | 22.48      |   3.9 | 31.89
Comm    | 1.8777     | 1.981      | 2.0842     |   7.3 |  2.83
Output  | 0.058576   | 0.058605   | 0.058635   |   0.0 |  0.08
Modify  | 0.39192    | 0.39613    | 0.40034    |   0.7 |  0.57
Other   |            | 0.1148     |            |       |  0.16

Nlocal:    9826 ave 9829 max 9823 min
Histogram: 1 0 0 0 0 0 0 0 0 1
Nghost:    15501.5 ave 15502 max 15501 min
Histogram: 1 0 0 0 0 0 0 0 0 1
Neighs:    1.15169e+06 ave 1.15296e+06 max 1.15041e+06 min
Histogram: 1 0 0 0 0 0 0 0 0 1

Total # of neighbors = 2303373
Ave neighs/atom = 117.208
Neighbor list builds = 495
Dangerous builds not checked
Setting up Verlet run ...
  Unit style    : metal
  Current step  : 69176
  Time step     : 0.001
Per MPI rank memory allocation (min/avg/max) = 13.06 | 13.07 | 13.07 Mbytes
Step Temp Press TotEng PotEng Enthalpy Volume 
   69176    278.69642    193.19235   -74785.425    -75493.34   -74742.944    352301.09 
   69348    269.77454    215.97393   -74841.843   -75527.095   -74794.394    351997.23 
Loop time of 24.4568 on 2 procs for 172 steps with 19652 atoms

Performance: 0.608 ns/day, 39.497 hours/ns, 7.033 timesteps/s
97.5% CPU use with 2 MPI tasks x no OpenMP threads

MPI task timing breakdown:
Section |  min time  |  avg time  |  max time  |%varavg| %total
---------------------------------------------------------------
Pair    | 15.696     | 15.751     | 15.806     |   1.4 | 64.40
Neigh   | 7.0071     | 7.5254     | 8.0436     |  18.9 | 30.77
Comm    | 0.4261     | 1.0042     | 1.5823     |  57.7 |  4.11
Output  | 7.2956e-05 | 9.799e-05  | 0.00012302 |   0.0 |  0.00
Modify  | 0.13301    | 0.13779    | 0.14257    |   1.3 |  0.56
Other   |            | 0.03796    |            |       |  0.16

Nlocal:    9826 ave 9827 max 9825 min
Histogram: 1 0 0 0 0 0 0 0 0 1
Nghost:    15549 ave 15563 max 15535 min
Histogram: 1 0 0 0 0 0 0 0 0 1
Neighs:    1.15254e+06 ave 1.15307e+06 max 1.15202e+06 min
Histogram: 1 0 0 0 0 0 0 0 0 1

Total # of neighbors = 2305084
Ave neighs/atom = 117.295
Neighbor list builds = 172
Dangerous builds not checked
Setting up Verlet run ...
  Unit style    : metal
  Current step  : 69348
  Time step     : 0.001
Per MPI rank memory allocation (min/avg/max) = 13.06 | 13.07 | 13.07 Mbytes
Step Temp Press TotEng PotEng Enthalpy Volume 
   69348    269.77454    215.97393   -74841.843   -75527.095   -74794.394    351997.23 
   69368    269.00329    189.88623   -74844.099   -75527.392   -74802.378    352020.45 
   69843    227.66558    26.341797    -75057.53   -75635.821   -75051.757    351119.45 
Loop time of 69.4711 on 2 procs for 495 steps with 19652 atoms

Performance: 0.616 ns/day, 38.985 hours/ns, 7.125 timesteps/s
99.2% CPU use with 2 MPI tasks x no OpenMP threads

MPI task timing breakdown:
Section |  min time  |  avg time  |  max time  |%varavg| %total
---------------------------------------------------------------
Pair    | 44.673     | 44.915     | 45.157     |   3.6 | 64.65
Neigh   | 21.623     | 21.978     | 22.333     |   7.6 | 31.64
Comm    | 1.8893     | 2.0023     | 2.1152     |   8.0 |  2.88
Output  | 0.088862   | 0.08889    | 0.088919   |   0.0 |  0.13
Modify  | 0.37234    | 0.37553    | 0.37873    |   0.5 |  0.54
Other   |            | 0.1113     |            |       |  0.16

Nlocal:    9826 ave 9842 max 9810 min
Histogram: 1 0 0 0 0 0 0 0 0 1
Nghost:    15565 ave 15571 max 15559 min
Histogram: 1 0 0 0 0 0 0 0 0 1
Neighs:    1.15589e+06 ave 1.15815e+06 max 1.15364e+06 min
Histogram: 1 0 0 0 0 0 0 0 0 1

Total # of neighbors = 2311788
Ave neighs/atom = 117.636
Neighbor list builds = 495
Dangerous builds not checked
Setting up Verlet run ...
  Unit style    : metal
  Current step  : 69843
  Time step     : 0.001
Per MPI rank memory allocation (min/avg/max) = 13.06 | 13.07 | 13.07 Mbytes
Step Temp Press TotEng PotEng Enthalpy Volume 
   69843    227.66558    26.341797    -75057.53   -75635.821   -75051.757    351119.45 
   70015    219.73908   -282.30391   -75113.749   -75671.906   -75175.588    350960.83 
Loop time of 24.5293 on 2 procs for 172 steps with 19652 atoms

Performance: 0.606 ns/day, 39.614 hours/ns, 7.012 timesteps/s
98.7% CPU use with 2 MPI tasks x no OpenMP threads

MPI task timing breakdown:
Section |  min time  |  avg time  |  max time  |%varavg| %total
---------------------------------------------------------------
Pair    | 15.719     | 15.896     | 16.072     |   4.4 | 64.80
Neigh   | 7.6687     | 7.7239     | 7.7791     |   2.0 | 31.49
Comm    | 0.6123     | 0.73642    | 0.86055    |  14.5 |  3.00
Output  | 7.987e-05  | 9.8825e-05 | 0.00011778 |   0.0 |  0.00
Modify  | 0.13324    | 0.13393    | 0.13462    |   0.2 |  0.55
Other   |            | 0.03942    |            |       |  0.16

Nlocal:    9826 ave 9832 max 9820 min
Histogram: 1 0 0 0 0 0 0 0 0 1
Nghost:    15546.5 ave 15550 max 15543 min
Histogram: 1 0 0 0 0 0 0 0 0 1
Neighs:    1.15653e+06 ave 1.15792e+06 max 1.15513e+06 min
Histogram: 1 0 0 0 0 0 0 0 0 1

Total # of neighbors = 2313051
Ave neighs/atom = 117.701
Neighbor list builds = 172
Dangerous builds not checked
Setting up Verlet run ...
  Unit style    : metal
  Current step  : 70015
  Time step     : 0.001
Per MPI rank memory allocation (min/avg/max) = 13.06 | 13.07 | 13.07 Mbytes
Step Temp Press TotEng PotEng Enthalpy Volume 
   70015    219.73908   -282.30391   -75113.749   -75671.906   -75175.588    350960.83 
   70035     220.8336    -273.7399   -75116.103    -75677.04   -75176.059     350919.7 
   70510    181.44344   -342.25193   -75323.992   -75784.875   -75398.782    350111.42 
Loop time of 75.1902 on 2 procs for 495 steps with 19652 atoms

Performance: 0.569 ns/day, 42.194 hours/ns, 6.583 timesteps/s
95.8% CPU use with 2 MPI tasks x no OpenMP threads

MPI task timing breakdown:
Section |  min time  |  avg time  |  max time  |%varavg| %total
---------------------------------------------------------------
Pair    | 48.76      | 48.771     | 48.783     |   0.2 | 64.86
Neigh   | 22.832     | 23.241     | 23.65      |   8.5 | 30.91
Comm    | 2.1575     | 2.5654     | 2.9734     |  25.5 |  3.41
Output  | 0.061335   | 0.061367   | 0.061398   |   0.0 |  0.08
Modify  | 0.42365    | 0.42878    | 0.43391    |   0.8 |  0.57
Other   |            | 0.1219     |            |       |  0.16

Nlocal:    9826 ave 9831 max 9821 min
Histogram: 1 0 0 0 0 0 0 0 0 1
Nghost:    15569.5 ave 15574 max 15565 min
Histogram: 1 0 0 0 0 0 0 0 0 1
Neighs:    1.1597e+06 ave 1.15983e+06 max 1.15956e+06 min
Histogram: 1 0 0 0 0 0 0 0 0 1

Total # of neighbors = 2319395
Ave neighs/atom = 118.023
Neighbor list builds = 495
Dangerous builds not checked
Setting up Verlet run ...
  Unit style    : metal
  Current step  : 70510
  Time step     : 0.001
Per MPI rank memory allocation (min/avg/max) = 13.06 | 13.07 | 13.07 Mbytes
Step Temp Press TotEng PotEng Enthalpy Volume 
   70510    181.44344   -342.25193   -75323.992   -75784.875   -75398.782    350111.42 
   70682    171.45179   -312.89793   -75378.824   -75814.327   -75447.127    349742.42 
Loop time of 29.9022 on 2 procs for 172 steps with 19652 atoms

Performance: 0.497 ns/day, 48.292 hours/ns, 5.752 timesteps/s
85.6% CPU use with 2 MPI tasks x no OpenMP threads

MPI task timing breakdown:
Section |  min time  |  avg time  |  max time  |%varavg| %total
---------------------------------------------------------------
Pair    | 18.61      | 19.103     | 19.597     |  11.3 | 63.89
Neigh   | 6.0076     | 7.8545     | 9.7014     |  65.9 | 26.27
Comm    | 0.3713     | 2.74       | 5.1088     | 143.1 |  9.16
Output  | 5.8174e-05 | 8.2612e-05 | 0.00010705 |   0.0 |  0.00
Modify  | 0.14368    | 0.16338    | 0.18308    |   4.9 |  0.55
Other   |            | 0.04097    |            |       |  0.14

Nlocal:    9826 ave 9829 max 9823 min
Histogram: 1 0 0 0 0 0 0 0 0 1
Nghost:    15592.5 ave 15599 max 15586 min
Histogram: 1 0 0 0 0 0 0 0 0 1
Neighs:    1.161e+06 ave 1.16112e+06 max 1.16088e+06 min
Histogram: 1 0 0 0 0 0 0 0 0 1

Total # of neighbors = 2322002
Ave neighs/atom = 118.156
Neighbor list builds = 172
Dangerous builds not checked
Setting up Verlet run ...
  Unit style    : metal
  Current step  : 70682
  Time step     : 0.001
Per MPI rank memory allocation (min/avg/max) = 13.06 | 13.07 | 13.07 Mbytes
Step Temp Press TotEng PotEng Enthalpy Volume 
   70682    171.45179   -312.89793   -75378.824   -75814.327   -75447.127    349742.42 
   70702    171.26302   -249.33411   -75381.356   -75816.379   -75435.774    349684.45 
   71177    131.94164     293.5522   -75581.088   -75916.232   -75517.198     348707.3 
Loop time of 71.9588 on 2 procs for 495 steps with 19652 atoms

Performance: 0.594 ns/day, 40.381 hours/ns, 6.879 timesteps/s
86.6% CPU use with 2 MPI tasks x no OpenMP threads

MPI task timing breakdown:
Section |  min time  |  avg time  |  max time  |%varavg| %total
---------------------------------------------------------------
Pair    | 45.917     | 46.249     | 46.581     |   4.9 | 64.27
Neigh   | 18.328     | 20.367     | 22.406     |  45.2 | 28.30
Comm    | 2.386      | 4.7806     | 7.1751     | 109.5 |  6.64
Output  | 0.079692   | 0.079728   | 0.079763   |   0.0 |  0.11
Modify  | 0.33468    | 0.35879    | 0.3829     |   4.0 |  0.50
Other   |            | 0.1234     |            |       |  0.17

Nlocal:    9826 ave 9833 max 9819 min
Histogram: 1 0 0 0 0 0 0 0 0 1
Nghost:    15590 ave 15624 max 15556 min
Histogram: 1 0 0 0 0 0 0 0 0 1
Neighs:    1.16496e+06 ave 1.16536e+06 max 1.16456e+06 min
Histogram: 1 0 0 0 0 0 0 0 0 1

Total # of neighbors = 2329922
Ave neighs/atom = 118.559
Neighbor list builds = 495
Dangerous builds not checked
Setting up Verlet run ...
  Unit style    : metal
  Current step  : 71177
  Time step     : 0.001
Per MPI rank memory allocation (min/avg/max) = 13.06 | 13.07 | 13.07 Mbytes
Step Temp Press TotEng PotEng Enthalpy Volume 
   71177    131.94164     293.5522   -75581.088   -75916.232   -75517.198     348707.3 
   71349    122.10679   -340.66279    -75635.38   -75945.542    -75709.53    348734.86 
Loop time of 39.186 on 2 procs for 172 steps with 19652 atoms

Performance: 0.379 ns/day, 63.285 hours/ns, 4.389 timesteps/s
79.9% CPU use with 2 MPI tasks x no OpenMP threads

MPI task timing breakdown:
Section |  min time  |  avg time  |  max time  |%varavg| %total
---------------------------------------------------------------
Pair    | 24.504     | 25.072     | 25.641     |  11.3 | 63.98
Neigh   | 6.6632     | 9.5837     | 12.504     |  94.3 | 24.46
Comm    | 0.73627    | 4.2812     | 7.8261     | 171.3 | 10.93
Output  | 7.7963e-05 | 0.00010145 | 0.00012493 |   0.0 |  0.00
Modify  | 0.1485     | 0.1874     | 0.22631    |   9.0 |  0.48
Other   |            | 0.0612     |            |       |  0.16

Nlocal:    9826 ave 9830 max 9822 min
Histogram: 1 0 0 0 0 0 0 0 0 1
Nghost:    15595.5 ave 15609 max 15582 min
Histogram: 1 0 0 0 0 0 0 0 0 1
Neighs:    1.1648e+06 ave 1.16541e+06 max 1.16419e+06 min
Histogram: 1 0 0 0 0 0 0 0 0 1

Total # of neighbors = 2329597
Ave neighs/atom = 118.542
Neighbor list builds = 172
Dangerous builds not checked
Total wall time: 2:46:29
