LAMMPS (12 Dec 2018)
Lattice spacing in x,y,z = 4 4 4
Created orthogonal box = (0 0 0) to (68 68 68)
  1 by 1 by 2 MPI processor grid
Created 19652 atoms
  Time spent = 0.00155401 secs
Setting atom values ...
  0 settings made for type/fraction
Neighbor list info ...
  update every 1 steps, delay 0 steps, check no
  max neighbors/atom: 2000, page size: 100000
  master list distance cutoff = 8.5
  ghost atom cutoff = 8.5
  binsize = 4.25, bins = 16 16 16
  1 neighbor lists, perpetual/occasional/extra = 1 0 0
  (1) pair eam/alloy, perpetual
      attributes: half, newton on
      pair build: half/bin/atomonly/newton
      stencil: half/bin/3d/newton
      bin: standard
Setting up Verlet run ...
  Unit style    : metal
  Current step  : 0
  Time step     : 0.001
Per MPI rank memory allocation (min/avg/max) = 11.15 | 11.15 | 11.15 Mbytes
Step Temp Press TotEng PotEng Enthalpy 
       0          300    269835.24   -20946.227   -21708.254    32009.758 
    1000    151.82811     268470.2   -20945.989   -21331.646    31742.103 
Loop time of 84.6402 on 2 procs for 1000 steps with 19652 atoms

Performance: 1.021 ns/day, 23.511 hours/ns, 11.815 timesteps/s
98.0% CPU use with 2 MPI tasks x no OpenMP threads

MPI task timing breakdown:
Section |  min time  |  avg time  |  max time  |%varavg| %total
---------------------------------------------------------------
Pair    | 48.215     | 48.246     | 48.277     |   0.4 | 57.00
Neigh   | 33.036     | 33.218     | 33.401     |   3.2 | 39.25
Comm    | 2.564      | 2.7801     | 2.9963     |  13.0 |  3.28
Output  | 5.7936e-05 | 7.689e-05  | 9.5844e-05 |   0.0 |  0.00
Modify  | 0.19533    | 0.19818    | 0.20102    |   0.6 |  0.23
Other   |            | 0.1972     |            |       |  0.23

Nlocal:    9826 ave 9853 max 9799 min
Histogram: 1 0 0 0 0 0 0 0 0 1
Nghost:    14211 ave 14238 max 14184 min
Histogram: 1 0 0 0 0 0 0 0 0 1
Neighs:    787566 ave 790297 max 784836 min
Histogram: 1 0 0 0 0 0 0 0 0 1

Total # of neighbors = 1575133
Ave neighs/atom = 80.1513
Neighbor list builds = 1000
Dangerous builds not checked
Setting up Verlet run ...
  Unit style    : metal
  Current step  : 1000
  Time step     : 0.001
Per MPI rank memory allocation (min/avg/max) = 11.15 | 11.15 | 11.15 Mbytes
Step Temp Press TotEng PotEng Enthalpy 
    1000    151.82811     268470.2   -20945.989   -21331.646    31742.103 
    2000    255.72658     319.1676   -28379.282    -29028.85   -28288.603 
Loop time of 68.6228 on 2 procs for 1000 steps with 19652 atoms

Performance: 1.259 ns/day, 19.062 hours/ns, 14.572 timesteps/s
98.5% CPU use with 2 MPI tasks x no OpenMP threads

MPI task timing breakdown:
Section |  min time  |  avg time  |  max time  |%varavg| %total
---------------------------------------------------------------
Pair    | 36.109     | 36.154     | 36.199     |   0.7 | 52.69
Neigh   | 28.945     | 29.119     | 29.293     |   3.2 | 42.43
Comm    | 2.1809     | 2.409      | 2.637      |  14.7 |  3.51
Output  | 6.6042e-05 | 8.5473e-05 | 0.0001049  |   0.0 |  0.00
Modify  | 0.74689    | 0.75262    | 0.75836    |   0.7 |  1.10
Other   |            | 0.1881     |            |       |  0.27

Nlocal:    9826 ave 9842 max 9810 min
Histogram: 1 0 0 0 0 0 0 0 0 1
Nghost:    10346 ave 10362 max 10330 min
Histogram: 1 0 0 0 0 0 0 0 0 1
Neighs:    559006 ave 560478 max 557535 min
Histogram: 1 0 0 0 0 0 0 0 0 1

Total # of neighbors = 1118013
Ave neighs/atom = 56.8905
Neighbor list builds = 1000
Dangerous builds not checked
Setting up Verlet run ...
  Unit style    : metal
  Current step  : 2000
  Time step     : 0.001
Per MPI rank memory allocation (min/avg/max) = 11.15 | 11.15 | 11.15 Mbytes
Step Temp Press TotEng PotEng Enthalpy 
    2000    255.72658     319.1676   -28379.282    -29028.85   -28288.603 
   10000    2426.1739   -19.227592   -14234.863   -20397.566     -14242.7 
Loop time of 457.082 on 2 procs for 8000 steps with 19652 atoms

Performance: 1.512 ns/day, 15.871 hours/ns, 17.502 timesteps/s
98.9% CPU use with 2 MPI tasks x no OpenMP threads

MPI task timing breakdown:
Section |  min time  |  avg time  |  max time  |%varavg| %total
---------------------------------------------------------------
Pair    | 236.35     | 236.71     | 237.07     |   2.3 | 51.79
Neigh   | 195.1      | 195.49     | 195.88     |   2.8 | 42.77
Comm    | 17.63      | 17.689     | 17.749     |   1.4 |  3.87
Output  | 6.5804e-05 | 8.8453e-05 | 0.0001111  |   0.0 |  0.00
Modify  | 5.7093     | 5.7192     | 5.7291     |   0.4 |  1.25
Other   |            | 1.476      |            |       |  0.32

Nlocal:    9826 ave 9870 max 9782 min
Histogram: 1 0 0 0 0 0 0 0 0 1
Nghost:    9715.5 ave 9743 max 9688 min
Histogram: 1 0 0 0 0 0 0 0 0 1
Neighs:    375776 ave 378523 max 373028 min
Histogram: 1 0 0 0 0 0 0 0 0 1

Total # of neighbors = 751551
Ave neighs/atom = 38.243
Neighbor list builds = 8000
Dangerous builds not checked
Setting up Verlet run ...
  Unit style    : metal
  Current step  : 10000
  Time step     : 0.001
Per MPI rank memory allocation (min/avg/max) = 11.17 | 11.17 | 11.17 Mbytes
Step Temp Press TotEng PotEng Enthalpy 
   10000    2426.1739   -19.227592   -14234.863   -20397.566     -14242.7 
   40000    2451.2211    533.13484   -13961.543   -20187.867   -13742.318 
Loop time of 1528.2 on 2 procs for 30000 steps with 19652 atoms

Performance: 1.696 ns/day, 14.150 hours/ns, 19.631 timesteps/s
99.1% CPU use with 2 MPI tasks x no OpenMP threads

MPI task timing breakdown:
Section |  min time  |  avg time  |  max time  |%varavg| %total
---------------------------------------------------------------
Pair    | 753.56     | 757.53     | 761.51     |  14.4 | 49.57
Neigh   | 672.29     | 681.88     | 691.46     |  36.7 | 44.62
Comm    | 55.877     | 61.76      | 67.644     |  74.9 |  4.04
Output  | 7.1049e-05 | 9.203e-05  | 0.00011301 |   0.0 |  0.00
Modify  | 21.339     | 21.506     | 21.673     |   3.6 |  1.41
Other   |            | 5.526      |            |       |  0.36

Nlocal:    9826 ave 9871 max 9781 min
Histogram: 1 0 0 0 0 0 0 0 0 1
Nghost:    9728.5 ave 9735 max 9722 min
Histogram: 1 0 0 0 0 0 0 0 0 1
Neighs:    372736 ave 374678 max 370794 min
Histogram: 1 0 0 0 0 0 0 0 0 1

Total # of neighbors = 745472
Ave neighs/atom = 37.9336
Neighbor list builds = 30000
Dangerous builds not checked
Setting up Verlet run ...
  Unit style    : metal
  Current step  : 40000
  Time step     : 0.001
Per MPI rank memory allocation (min/avg/max) = 11.17 | 11.17 | 11.17 Mbytes
Step Temp Press TotEng PotEng Enthalpy 
   40000    2451.2211    533.13484   -13961.543   -20187.867   -13742.318 
   40495    2394.7184   -257.45238   -14218.886   -20301.689   -14324.404 
Loop time of 23.5008 on 2 procs for 495 steps with 19652 atoms

Performance: 1.820 ns/day, 13.188 hours/ns, 21.063 timesteps/s
99.7% CPU use with 2 MPI tasks x no OpenMP threads

MPI task timing breakdown:
Section |  min time  |  avg time  |  max time  |%varavg| %total
---------------------------------------------------------------
Pair    | 11.343     | 11.571     | 11.8       |   6.7 | 49.24
Neigh   | 10.204     | 10.58      | 10.957     |  11.6 | 45.02
Comm    | 0.76364    | 0.9258     | 1.088      |  16.9 |  3.94
Output  | 7.1049e-05 | 9.048e-05  | 0.00010991 |   0.0 |  0.00
Modify  | 0.32772    | 0.33841    | 0.34911    |   1.8 |  1.44
Other   |            | 0.08498    |            |       |  0.36

Nlocal:    9826 ave 9874 max 9778 min
Histogram: 1 0 0 0 0 0 0 0 0 1
Nghost:    9709 ave 9739 max 9679 min
Histogram: 1 0 0 0 0 0 0 0 0 1
Neighs:    373730 ave 377575 max 369885 min
Histogram: 1 0 0 0 0 0 0 0 0 1

Total # of neighbors = 747460
Ave neighs/atom = 38.0348
Neighbor list builds = 495
Dangerous builds not checked
Setting up Verlet run ...
  Unit style    : metal
  Current step  : 40495
  Time step     : 0.001
Per MPI rank memory allocation (min/avg/max) = 11.17 | 11.17 | 11.17 Mbytes
Step Temp Press TotEng PotEng Enthalpy 
   40495    2394.7184   -257.45238   -14218.886   -20301.689   -14324.404 
   50000    2420.0135     369.6206   -14403.875    -20550.93   -14254.706 
   90000     2421.124    302.14865    -14366.17   -20516.045   -14244.141 
Loop time of 2447.78 on 2 procs for 49505 steps with 19652 atoms

Performance: 1.747 ns/day, 13.735 hours/ns, 20.224 timesteps/s
99.0% CPU use with 2 MPI tasks x no OpenMP threads

MPI task timing breakdown:
Section |  min time  |  avg time  |  max time  |%varavg| %total
---------------------------------------------------------------
Pair    | 1199.5     | 1205.7     | 1212       |  17.9 | 49.26
Neigh   | 1076.9     | 1090.1     | 1103.2     |  39.9 | 44.53
Comm    | 101.03     | 108.1      | 115.17     |  68.0 |  4.42
Output  | 0.32656    | 0.3266     | 0.32664    |   0.0 |  0.01
Modify  | 34.351     | 34.566     | 34.78      |   3.7 |  1.41
Other   |            | 8.987      |            |       |  0.37

Nlocal:    9826 ave 9842 max 9810 min
Histogram: 1 0 0 0 0 0 0 0 0 1
Nghost:    9770 ave 9774 max 9766 min
Histogram: 1 0 0 0 0 0 0 0 0 1
Neighs:    378967 ave 380446 max 377488 min
Histogram: 1 0 0 0 0 0 0 0 0 1

Total # of neighbors = 757934
Ave neighs/atom = 38.5678
Neighbor list builds = 49505
Dangerous builds not checked
Setting up Verlet run ...
  Unit style    : metal
  Current step  : 90000
  Time step     : 0.001
Per MPI rank memory allocation (min/avg/max) = 11.3 | 11.31 | 11.31 Mbytes
Step Temp Press TotEng PotEng Enthalpy 
   90000     2421.124    302.14865    -14366.17   -20516.045   -14244.141 
   90495    2344.4157   -307.68595   -14575.547   -20530.577   -14700.121 
Loop time of 23.726 on 2 procs for 495 steps with 19652 atoms

Performance: 1.803 ns/day, 13.314 hours/ns, 20.863 timesteps/s
99.7% CPU use with 2 MPI tasks x no OpenMP threads

MPI task timing breakdown:
Section |  min time  |  avg time  |  max time  |%varavg| %total
---------------------------------------------------------------
Pair    | 11.571     | 11.707     | 11.843     |   4.0 | 49.34
Neigh   | 10.062     | 10.577     | 11.092     |  15.8 | 44.58
Comm    | 0.60472    | 1.0106     | 1.4164     |  40.4 |  4.26
Output  | 8.0109e-05 | 0.00010657 | 0.00013304 |   0.0 |  0.00
Modify  | 0.32557    | 0.34108    | 0.35658    |   2.7 |  1.44
Other   |            | 0.09042    |            |       |  0.38

Nlocal:    9826 ave 9853 max 9799 min
Histogram: 1 0 0 0 0 0 0 0 0 1
Nghost:    9767 ave 9817 max 9717 min
Histogram: 1 0 0 0 0 0 0 0 0 1
Neighs:    378312 ave 379478 max 377146 min
Histogram: 1 0 0 0 0 0 0 0 0 1

Total # of neighbors = 756624
Ave neighs/atom = 38.5011
Neighbor list builds = 495
Dangerous builds not checked
Setting up Verlet run ...
  Unit style    : metal
  Current step  : 90495
  Time step     : 0.001
Per MPI rank memory allocation (min/avg/max) = 11.3 | 11.31 | 11.31 Mbytes
Step Temp Press TotEng PotEng Enthalpy 
   90495    2344.4157   -307.68595   -14575.547   -20530.577   -14700.121 
  100000    2340.9211    262.29887   -14764.705   -20710.858   -14659.903 
  140000    2358.7019    705.57087   -14613.767   -20605.085   -14330.692 
Loop time of 2456.38 on 2 procs for 49505 steps with 19652 atoms

Performance: 1.741 ns/day, 13.783 hours/ns, 20.154 timesteps/s
99.0% CPU use with 2 MPI tasks x no OpenMP threads

MPI task timing breakdown:
Section |  min time  |  avg time  |  max time  |%varavg| %total
---------------------------------------------------------------
Pair    | 1207.2     | 1217.1     | 1227.1     |  28.6 | 49.55
Neigh   | 1062.3     | 1086.5     | 1110.6     |  73.2 | 44.23
Comm    | 93.786     | 109.02     | 124.25     | 145.9 |  4.44
Output  | 0.14933    | 0.14937    | 0.14941    |   0.0 |  0.01
Modify  | 34.094     | 34.73      | 35.365     |  10.8 |  1.41
Other   |            | 8.884      |            |       |  0.36

Nlocal:    9826 ave 9832 max 9820 min
Histogram: 1 0 0 0 0 0 0 0 0 1
Nghost:    9739.5 ave 9753 max 9726 min
Histogram: 1 0 0 0 0 0 0 0 0 1
Neighs:    381821 ave 382420 max 381222 min
Histogram: 1 0 0 0 0 0 0 0 0 1

Total # of neighbors = 763642
Ave neighs/atom = 38.8582
Neighbor list builds = 49505
Dangerous builds not checked
Setting up Verlet run ...
  Unit style    : metal
  Current step  : 140000
  Time step     : 0.001
Per MPI rank memory allocation (min/avg/max) = 11.34 | 11.34 | 11.34 Mbytes
Step Temp Press TotEng PotEng Enthalpy 
  140000    2358.7019    705.57087   -14613.767   -20605.085   -14330.692 
  140495    2323.1326    -562.5901   -14870.198   -20771.166    -15095.61 
Loop time of 23.6121 on 2 procs for 495 steps with 19652 atoms

Performance: 1.811 ns/day, 13.250 hours/ns, 20.964 timesteps/s
98.9% CPU use with 2 MPI tasks x no OpenMP threads

MPI task timing breakdown:
Section |  min time  |  avg time  |  max time  |%varavg| %total
---------------------------------------------------------------
Pair    | 11.515     | 11.763     | 12.012     |   7.2 | 49.82
Neigh   | 9.5809     | 10.322     | 11.063     |  23.1 | 43.71
Comm    | 0.58781    | 1.1078     | 1.6279     |  49.4 |  4.69
Output  | 8.297e-05  | 0.00010538 | 0.00012779 |   0.0 |  0.00
Modify  | 0.31502    | 0.33478    | 0.35454    |   3.4 |  1.42
Other   |            | 0.08431    |            |       |  0.36

Nlocal:    9826 ave 9880 max 9772 min
Histogram: 1 0 0 0 0 0 0 0 0 1
Nghost:    9793.5 ave 9824 max 9763 min
Histogram: 1 0 0 0 0 0 0 0 0 1
Neighs:    382370 ave 385963 max 378776 min
Histogram: 1 0 0 0 0 0 0 0 0 1

Total # of neighbors = 764739
Ave neighs/atom = 38.9141
Neighbor list builds = 495
Dangerous builds not checked
Setting up Verlet run ...
  Unit style    : metal
  Current step  : 140495
  Time step     : 0.001
Per MPI rank memory allocation (min/avg/max) = 11.34 | 11.34 | 11.34 Mbytes
Step Temp Press TotEng PotEng Enthalpy 
  140495    2323.1326    -562.5901   -14870.198   -20771.166    -15095.61 
  150000    2295.8691    329.06858   -15110.664    -20942.38   -14980.835 
  190000    2304.1236   -35.899612   -15044.342   -20897.026   -15058.578 
Loop time of 2384.87 on 2 procs for 49505 steps with 19652 atoms

Performance: 1.793 ns/day, 13.382 hours/ns, 20.758 timesteps/s
99.2% CPU use with 2 MPI tasks x no OpenMP threads

MPI task timing breakdown:
Section |  min time  |  avg time  |  max time  |%varavg| %total
---------------------------------------------------------------
Pair    | 1176       | 1182.1     | 1188.2     |  17.8 | 49.57
Neigh   | 1053.9     | 1057.2     | 1060.6     |  10.4 | 44.33
Comm    | 101.12     | 103.76     | 106.41     |  26.0 |  4.35
Output  | 0.053943   | 0.05398    | 0.054017   |   0.0 |  0.00
Modify  | 32.848     | 32.975     | 33.101     |   2.2 |  1.38
Other   |            | 8.788      |            |       |  0.37

Nlocal:    9826 ave 9853 max 9799 min
Histogram: 1 0 0 0 0 0 0 0 0 1
Nghost:    9803 ave 9837 max 9769 min
Histogram: 1 0 0 0 0 0 0 0 0 1
Neighs:    386191 ave 388552 max 383830 min
Histogram: 1 0 0 0 0 0 0 0 0 1

Total # of neighbors = 772382
Ave neighs/atom = 39.303
Neighbor list builds = 49505
Dangerous builds not checked
Setting up Verlet run ...
  Unit style    : metal
  Current step  : 190000
  Time step     : 0.001
Per MPI rank memory allocation (min/avg/max) = 11.35 | 11.35 | 11.35 Mbytes
Step Temp Press TotEng PotEng Enthalpy 
  190000    2304.1236   -35.899612   -15044.342   -20897.026   -15058.578 
  190495    2261.1808   -252.00749   -15206.747   -20950.352   -15306.334 
Loop time of 23.2358 on 2 procs for 495 steps with 19652 atoms

Performance: 1.841 ns/day, 13.039 hours/ns, 21.303 timesteps/s
99.5% CPU use with 2 MPI tasks x no OpenMP threads

MPI task timing breakdown:
Section |  min time  |  avg time  |  max time  |%varavg| %total
---------------------------------------------------------------
Pair    | 11.415     | 11.496     | 11.577     |   2.4 | 49.47
Neigh   | 10.014     | 10.266     | 10.518     |   7.9 | 44.18
Comm    | 0.87876    | 1.0648     | 1.2509     |  18.0 |  4.58
Output  | 7.3195e-05 | 9.4056e-05 | 0.00011492 |   0.0 |  0.00
Modify  | 0.31533    | 0.32256    | 0.32979    |   1.3 |  1.39
Other   |            | 0.08629    |            |       |  0.37

Nlocal:    9826 ave 9874 max 9778 min
Histogram: 1 0 0 0 0 0 0 0 0 1
Nghost:    9889.5 ave 9901 max 9878 min
Histogram: 1 0 0 0 0 0 0 0 0 1
Neighs:    387531 ave 390606 max 384456 min
Histogram: 1 0 0 0 0 0 0 0 0 1

Total # of neighbors = 775062
Ave neighs/atom = 39.4393
Neighbor list builds = 495
Dangerous builds not checked
Setting up Verlet run ...
  Unit style    : metal
  Current step  : 190495
  Time step     : 0.001
Per MPI rank memory allocation (min/avg/max) = 11.35 | 11.35 | 11.35 Mbytes
Step Temp Press TotEng PotEng Enthalpy 
  190495    2261.1808   -252.00749   -15206.747   -20950.352   -15306.334 
  200000    2236.8403    151.17338   -15356.121   -21037.899   -15296.833 
  240000    2269.0659   -207.37904   -15228.528   -20992.162   -15310.407 
Loop time of 2327.01 on 2 procs for 49505 steps with 19652 atoms

Performance: 1.838 ns/day, 13.057 hours/ns, 21.274 timesteps/s
99.4% CPU use with 2 MPI tasks x no OpenMP threads

MPI task timing breakdown:
Section |  min time  |  avg time  |  max time  |%varavg| %total
---------------------------------------------------------------
Pair    | 1151.5     | 1152.8     | 1154.2     |   4.0 | 49.54
Neigh   | 1021.1     | 1031.2     | 1041.3     |  31.5 | 44.32
Comm    | 90.997     | 102.52     | 114.05     | 113.8 |  4.41
Output  | 0.053411   | 0.053449   | 0.053487   |   0.0 |  0.00
Modify  | 31.827     | 31.996     | 32.166     |   3.0 |  1.38
Other   |            | 8.372      |            |       |  0.36

Nlocal:    9826 ave 9842 max 9810 min
Histogram: 1 0 0 0 0 0 0 0 0 1
Nghost:    9867.5 ave 9895 max 9840 min
Histogram: 1 0 0 0 0 0 0 0 0 1
Neighs:    387780 ave 389033 max 386527 min
Histogram: 1 0 0 0 0 0 0 0 0 1

Total # of neighbors = 775560
Ave neighs/atom = 39.4647
Neighbor list builds = 49505
Dangerous builds not checked
Setting up Verlet run ...
  Unit style    : metal
  Current step  : 240000
  Time step     : 0.001
Per MPI rank memory allocation (min/avg/max) = 11.35 | 11.36 | 11.36 Mbytes
Step Temp Press TotEng PotEng Enthalpy 
  240000    2269.0659   -207.37904   -15228.528   -20992.162   -15310.407 
  240495    2215.4062    -38.68476   -15481.733   -21109.067   -15496.887 
Loop time of 19.4382 on 2 procs for 495 steps with 19652 atoms

Performance: 2.200 ns/day, 10.908 hours/ns, 25.465 timesteps/s
99.7% CPU use with 2 MPI tasks x no OpenMP threads

MPI task timing breakdown:
Section |  min time  |  avg time  |  max time  |%varavg| %total
---------------------------------------------------------------
Pair    | 9.3091     | 9.3398     | 9.3706     |   1.0 | 48.05
Neigh   | 9.0869     | 9.2302     | 9.3735     |   4.7 | 47.48
Comm    | 0.39448    | 0.51733    | 0.64019    |  17.1 |  2.66
Output  | 7.0095e-05 | 0.00011015 | 0.0001502  |   0.0 |  0.00
Modify  | 0.27011    | 0.27888    | 0.28765    |   1.7 |  1.43
Other   |            | 0.07189    |            |       |  0.37

Nlocal:    9826 ave 9853 max 9799 min
Histogram: 1 0 0 0 0 0 0 0 0 1
Nghost:    9852.5 ave 9866 max 9839 min
Histogram: 1 0 0 0 0 0 0 0 0 1
Neighs:    390987 ave 392736 max 389238 min
Histogram: 1 0 0 0 0 0 0 0 0 1

Total # of neighbors = 781974
Ave neighs/atom = 39.7911
Neighbor list builds = 495
Dangerous builds not checked
Setting up Verlet run ...
  Unit style    : metal
  Current step  : 240495
  Time step     : 0.001
Per MPI rank memory allocation (min/avg/max) = 11.35 | 11.36 | 11.36 Mbytes
Step Temp Press TotEng PotEng Enthalpy 
  240495    2215.4062    -38.68476   -15481.733   -21109.067   -15496.887 
  250000    2184.0815   -481.00623   -15660.198   -21207.964   -15848.014 
  290000    2198.7922   -75.999091   -15530.546   -21115.678   -15560.283 
Loop time of 2490.71 on 2 procs for 49505 steps with 19652 atoms

Performance: 1.717 ns/day, 13.976 hours/ns, 19.876 timesteps/s
99.4% CPU use with 2 MPI tasks x no OpenMP threads

MPI task timing breakdown:
Section |  min time  |  avg time  |  max time  |%varavg| %total
---------------------------------------------------------------
Pair    | 1247.9     | 1250.3     | 1252.6     |   6.6 | 50.20
Neigh   | 1073.6     | 1079.1     | 1084.6     |  16.8 | 43.32
Comm    | 115.42     | 118.68     | 121.94     |  29.9 |  4.76
Output  | 0.056323   | 0.056374   | 0.056426   |   0.0 |  0.00
Modify  | 33.73      | 33.761     | 33.792     |   0.5 |  1.36
Other   |            | 8.863      |            |       |  0.36

Nlocal:    9826 ave 9847 max 9805 min
Histogram: 1 0 0 0 0 0 0 0 0 1
Nghost:    9880.5 ave 9902 max 9859 min
Histogram: 1 0 0 0 0 0 0 0 0 1
Neighs:    391502 ave 393726 max 389278 min
Histogram: 1 0 0 0 0 0 0 0 0 1

Total # of neighbors = 783004
Ave neighs/atom = 39.8435
Neighbor list builds = 49505
Dangerous builds not checked
Setting up Verlet run ...
  Unit style    : metal
  Current step  : 290000
  Time step     : 0.001
Per MPI rank memory allocation (min/avg/max) = 11.35 | 11.36 | 11.36 Mbytes
Step Temp Press TotEng PotEng Enthalpy 
  290000    2198.7922   -75.999091   -15530.546   -21115.678   -15560.283 
  290495    2159.6422    314.78197   -15809.073    -21294.76   -15687.303 
Loop time of 23.4412 on 2 procs for 495 steps with 19652 atoms

Performance: 1.824 ns/day, 13.154 hours/ns, 21.117 timesteps/s
99.4% CPU use with 2 MPI tasks x no OpenMP threads

MPI task timing breakdown:
Section |  min time  |  avg time  |  max time  |%varavg| %total
---------------------------------------------------------------
Pair    | 11.612     | 11.698     | 11.784     |   2.5 | 49.90
Neigh   | 10.139     | 10.274     | 10.41      |   4.2 | 43.83
Comm    | 0.99587    | 1.0536     | 1.1113     |   5.6 |  4.49
Output  | 6.7949e-05 | 0.00010049 | 0.00013304 |   0.0 |  0.00
Modify  | 0.3258     | 0.32786    | 0.32993    |   0.4 |  1.40
Other   |            | 0.08757    |            |       |  0.37

Nlocal:    9826 ave 9835 max 9817 min
Histogram: 1 0 0 0 0 0 0 0 0 1
Nghost:    9879.5 ave 9943 max 9816 min
Histogram: 1 0 0 0 0 0 0 0 0 1
Neighs:    396028 ave 396974 max 395083 min
Histogram: 1 0 0 0 0 0 0 0 0 1

Total # of neighbors = 792057
Ave neighs/atom = 40.3041
Neighbor list builds = 495
Dangerous builds not checked
Setting up Verlet run ...
  Unit style    : metal
  Current step  : 290495
  Time step     : 0.001
Per MPI rank memory allocation (min/avg/max) = 11.35 | 11.36 | 11.36 Mbytes
Step Temp Press TotEng PotEng Enthalpy 
  290495    2159.6422    314.78197   -15809.073    -21294.76   -15687.303 
  300000    2163.5131    507.74173   -15962.691   -21458.212   -15768.074 
  340000    2154.7198   -358.56858   -15901.942   -21375.126   -16040.503 
Loop time of 2520.55 on 2 procs for 49505 steps with 19652 atoms

Performance: 1.697 ns/day, 14.143 hours/ns, 19.641 timesteps/s
99.3% CPU use with 2 MPI tasks x no OpenMP threads

MPI task timing breakdown:
Section |  min time  |  avg time  |  max time  |%varavg| %total
---------------------------------------------------------------
Pair    | 1269       | 1269.8     | 1270.5     |   2.2 | 50.38
Neigh   | 1077.1     | 1085.8     | 1094.5     |  26.4 | 43.08
Comm    | 114.07     | 122.27     | 130.47     |  74.2 |  4.85
Output  | 0.056669   | 0.056696   | 0.056722   |   0.0 |  0.00
Modify  | 33.702     | 33.94      | 34.177     |   4.1 |  1.35
Other   |            | 8.709      |            |       |  0.35

Nlocal:    9826 ave 9842 max 9810 min
Histogram: 1 0 0 0 0 0 0 0 0 1
Nghost:    9973.5 ave 9995 max 9952 min
Histogram: 1 0 0 0 0 0 0 0 0 1
Neighs:    396322 ave 397173 max 395470 min
Histogram: 1 0 0 0 0 0 0 0 0 1

Total # of neighbors = 792643
Ave neighs/atom = 40.334
Neighbor list builds = 49505
Dangerous builds not checked
Setting up Verlet run ...
  Unit style    : metal
  Current step  : 340000
  Time step     : 0.001
Per MPI rank memory allocation (min/avg/max) = 11.36 | 11.36 | 11.36 Mbytes
Step Temp Press TotEng PotEng Enthalpy 
  340000    2154.7198   -358.56858   -15901.942   -21375.126   -16040.503 
  340495    2107.6775    81.311283   -16139.881   -21493.574   -16108.704 
Loop time of 24.0969 on 2 procs for 495 steps with 19652 atoms

Performance: 1.775 ns/day, 13.522 hours/ns, 20.542 timesteps/s
99.3% CPU use with 2 MPI tasks x no OpenMP threads

MPI task timing breakdown:
Section |  min time  |  avg time  |  max time  |%varavg| %total
---------------------------------------------------------------
Pair    | 12.152     | 12.157     | 12.162     |   0.1 | 50.45
Neigh   | 9.9753     | 10.242     | 10.508     |   8.3 | 42.50
Comm    | 1.0004     | 1.285      | 1.5697     |  25.1 |  5.33
Output  | 0.00011182 | 0.00012541 | 0.000139   |   0.0 |  0.00
Modify  | 0.31592    | 0.32324    | 0.33057    |   1.3 |  1.34
Other   |            | 0.08987    |            |       |  0.37

Nlocal:    9826 ave 9859 max 9793 min
Histogram: 1 0 0 0 0 0 0 0 0 1
Nghost:    10030.5 ave 10048 max 10013 min
Histogram: 1 0 0 0 0 0 0 0 0 1
Neighs:    399327 ave 402123 max 396531 min
Histogram: 1 0 0 0 0 0 0 0 0 1

Total # of neighbors = 798654
Ave neighs/atom = 40.6398
Neighbor list builds = 495
Dangerous builds not checked
Setting up Verlet run ...
  Unit style    : metal
  Current step  : 340495
  Time step     : 0.001
Per MPI rank memory allocation (min/avg/max) = 11.36 | 11.36 | 11.36 Mbytes
Step Temp Press TotEng PotEng Enthalpy 
  340495    2107.6775    81.311283   -16139.881   -21493.574   -16108.704 
  350000    2120.5129    199.94035   -16129.047   -21515.343    -16052.56 
  390000    2109.4209    149.88437   -16196.308    -21554.43   -16139.057 
Loop time of 2623.61 on 2 procs for 49505 steps with 19652 atoms

Performance: 1.630 ns/day, 14.721 hours/ns, 18.869 timesteps/s
99.3% CPU use with 2 MPI tasks x no OpenMP threads

MPI task timing breakdown:
Section |  min time  |  avg time  |  max time  |%varavg| %total
---------------------------------------------------------------
Pair    | 1296.7     | 1300.8     | 1304.9     |  11.5 | 49.58
Neigh   | 1157.7     | 1162.3     | 1166.9     |  13.4 | 44.30
Comm    | 108.94     | 117.39     | 125.84     |  78.0 |  4.47
Output  | 0.053534   | 0.053573   | 0.053613   |   0.0 |  0.00
Modify  | 34.214     | 34.259     | 34.304     |   0.8 |  1.31
Other   |            | 8.797      |            |       |  0.34

Nlocal:    9826 ave 9841 max 9811 min
Histogram: 1 0 0 0 0 0 0 0 0 1
Nghost:    10027 ave 10057 max 9997 min
Histogram: 1 0 0 0 0 0 0 0 0 1
Neighs:    400912 ave 403275 max 398549 min
Histogram: 1 0 0 0 0 0 0 0 0 1

Total # of neighbors = 801824
Ave neighs/atom = 40.8011
Neighbor list builds = 49505
Dangerous builds not checked
Setting up Verlet run ...
  Unit style    : metal
  Current step  : 390000
  Time step     : 0.001
Per MPI rank memory allocation (min/avg/max) = 11.36 | 11.36 | 11.36 Mbytes
Step Temp Press TotEng PotEng Enthalpy 
  390000    2109.4209    149.88437   -16196.308    -21554.43   -16139.057 
  390495    2058.1978   -89.203588    -16426.29     -21654.3   -16460.205 
Loop time of 22.2374 on 2 procs for 495 steps with 19652 atoms

Performance: 1.923 ns/day, 12.479 hours/ns, 22.260 timesteps/s
99.7% CPU use with 2 MPI tasks x no OpenMP threads

MPI task timing breakdown:
Section |  min time  |  avg time  |  max time  |%varavg| %total
---------------------------------------------------------------
Pair    | 10.66      | 10.788     | 10.916     |   3.9 | 48.51
Neigh   | 10.147     | 10.319     | 10.49      |   5.3 | 46.40
Comm    | 0.71247    | 0.75972    | 0.80697    |   5.4 |  3.42
Output  | 8.2016e-05 | 0.00010455 | 0.00012708 |   0.0 |  0.00
Modify  | 0.29167    | 0.29363    | 0.29559    |   0.4 |  1.32
Other   |            | 0.07724    |            |       |  0.35

Nlocal:    9826 ave 9901 max 9751 min
Histogram: 1 0 0 0 0 0 0 0 0 1
Nghost:    10026 ave 10078 max 9974 min
Histogram: 1 0 0 0 0 0 0 0 0 1
Neighs:    402846 ave 404546 max 401146 min
Histogram: 1 0 0 0 0 0 0 0 0 1

Total # of neighbors = 805692
Ave neighs/atom = 40.998
Neighbor list builds = 495
Dangerous builds not checked
Setting up Verlet run ...
  Unit style    : metal
  Current step  : 390495
  Time step     : 0.001
Per MPI rank memory allocation (min/avg/max) = 11.36 | 11.36 | 11.36 Mbytes
Step Temp Press TotEng PotEng Enthalpy 
  390495    2058.1978   -89.203588    -16426.29     -21654.3   -16460.205 
  400000    2045.9295    318.46964   -16442.653   -21639.501   -16321.753 
  440000    2036.4157    49.148863   -16601.275   -21773.956   -16582.705 
Loop time of 2443.81 on 2 procs for 49505 steps with 19652 atoms

Performance: 1.750 ns/day, 13.712 hours/ns, 20.257 timesteps/s
99.5% CPU use with 2 MPI tasks x no OpenMP threads

MPI task timing breakdown:
Section |  min time  |  avg time  |  max time  |%varavg| %total
---------------------------------------------------------------
Pair    | 1186.7     | 1196.7     | 1206.7     |  28.9 | 48.97
Neigh   | 1103.8     | 1106.1     | 1108.4     |   7.0 | 45.26
Comm    | 88.306     | 100.58     | 112.86     | 122.4 |  4.12
Output  | 0.0702     | 0.070242   | 0.070284   |   0.0 |  0.00
Modify  | 31.88      | 31.979     | 32.077     |   1.7 |  1.31
Other   |            | 8.365      |            |       |  0.34

Nlocal:    9826 ave 9855 max 9797 min
Histogram: 1 0 0 0 0 0 0 0 0 1
Nghost:    9964.5 ave 9987 max 9942 min
Histogram: 1 0 0 0 0 0 0 0 0 1
Neighs:    405263 ave 407149 max 403377 min
Histogram: 1 0 0 0 0 0 0 0 0 1

Total # of neighbors = 810526
Ave neighs/atom = 41.2439
Neighbor list builds = 49505
Dangerous builds not checked
Setting up Verlet run ...
  Unit style    : metal
  Current step  : 440000
  Time step     : 0.001
Per MPI rank memory allocation (min/avg/max) = 11.36 | 11.36 | 11.36 Mbytes
Step Temp Press TotEng PotEng Enthalpy 
  440000    2036.4157    49.148863   -16601.275   -21773.956   -16582.705 
  440495    2007.8897    153.76372   -16782.063   -21882.286   -16724.389 
Loop time of 22.2658 on 2 procs for 495 steps with 19652 atoms

Performance: 1.921 ns/day, 12.495 hours/ns, 22.231 timesteps/s
100.0% CPU use with 2 MPI tasks x no OpenMP threads

MPI task timing breakdown:
Section |  min time  |  avg time  |  max time  |%varavg| %total
---------------------------------------------------------------
Pair    | 10.776     | 10.809     | 10.843     |   1.0 | 48.55
Neigh   | 9.4329     | 10.029     | 10.624     |  18.8 | 45.04
Comm    | 0.41197    | 1.0627     | 1.7134     |  63.1 |  4.77
Output  | 5.7936e-05 | 7.9036e-05 | 0.00010014 |   0.0 |  0.00
Modify  | 0.27539    | 0.28741    | 0.29943    |   2.2 |  1.29
Other   |            | 0.07747    |            |       |  0.35

Nlocal:    9826 ave 9835 max 9817 min
Histogram: 1 0 0 0 0 0 0 0 0 1
Nghost:    10094 ave 10096 max 10092 min
Histogram: 1 0 0 0 0 0 0 0 0 1
Neighs:    408359 ave 413142 max 403576 min
Histogram: 1 0 0 0 0 0 0 0 0 1

Total # of neighbors = 816718
Ave neighs/atom = 41.559
Neighbor list builds = 495
Dangerous builds not checked
Setting up Verlet run ...
  Unit style    : metal
  Current step  : 440495
  Time step     : 0.001
Per MPI rank memory allocation (min/avg/max) = 11.36 | 11.36 | 11.36 Mbytes
Step Temp Press TotEng PotEng Enthalpy 
  440495    2007.8897    153.76372   -16782.063   -21882.286   -16724.389 
  450000    2007.1192   -296.36943   -16834.985   -21933.251   -16946.291 
  490000      2011.25    286.64918    -16860.69   -21969.448   -16753.554 
Loop time of 2381.99 on 2 procs for 49505 steps with 19652 atoms

Performance: 1.796 ns/day, 13.366 hours/ns, 20.783 timesteps/s
99.5% CPU use with 2 MPI tasks x no OpenMP threads

MPI task timing breakdown:
Section |  min time  |  avg time  |  max time  |%varavg| %total
---------------------------------------------------------------
Pair    | 1156.9     | 1164.7     | 1172.6     |  23.1 | 48.90
Neigh   | 1078.2     | 1084.6     | 1091       |  19.4 | 45.53
Comm    | 92.103     | 93.358     | 94.612     |  13.0 |  3.92
Output  | 0.098      | 0.098033   | 0.098066   |   0.0 |  0.00
Modify  | 30.775     | 30.959     | 31.142     |   3.3 |  1.30
Other   |            | 8.24       |            |       |  0.35

Nlocal:    9826 ave 9845 max 9807 min
Histogram: 1 0 0 0 0 0 0 0 0 1
Nghost:    10097 ave 10119 max 10075 min
Histogram: 1 0 0 0 0 0 0 0 0 1
Neighs:    409922 ave 413217 max 406627 min
Histogram: 1 0 0 0 0 0 0 0 0 1

Total # of neighbors = 819844
Ave neighs/atom = 41.7181
Neighbor list builds = 49505
Dangerous builds not checked
Setting up Verlet run ...
  Unit style    : metal
  Current step  : 490000
  Time step     : 0.001
Per MPI rank memory allocation (min/avg/max) = 11.36 | 11.36 | 11.36 Mbytes
Step Temp Press TotEng PotEng Enthalpy 
  490000      2011.25    286.64918    -16860.69   -21969.448   -16753.554 
  490495    1959.5403   -600.45767   -17001.089   -21978.499   -17225.998 
Loop time of 24.3954 on 2 procs for 495 steps with 19652 atoms

Performance: 1.753 ns/day, 13.690 hours/ns, 20.291 timesteps/s
99.9% CPU use with 2 MPI tasks x no OpenMP threads

MPI task timing breakdown:
Section |  min time  |  avg time  |  max time  |%varavg| %total
---------------------------------------------------------------
Pair    | 11.971     | 12.022     | 12.073     |   1.5 | 49.28
Neigh   | 10.795     | 10.965     | 11.135     |   5.1 | 44.95
Comm    | 0.78588    | 1.0101     | 1.2343     |  22.3 |  4.14
Output  | 6.8188e-05 | 9.5606e-05 | 0.00012302 |   0.0 |  0.00
Modify  | 0.31442    | 0.31626    | 0.3181     |   0.3 |  1.30
Other   |            | 0.08182    |            |       |  0.34

Nlocal:    9826 ave 9839 max 9813 min
Histogram: 1 0 0 0 0 0 0 0 0 1
Nghost:    10030.5 ave 10032 max 10029 min
Histogram: 1 0 0 0 0 0 0 0 0 1
Neighs:    408800 ave 414003 max 403598 min
Histogram: 1 0 0 0 0 0 0 0 0 1

Total # of neighbors = 817601
Ave neighs/atom = 41.604
Neighbor list builds = 495
Dangerous builds not checked
Setting up Verlet run ...
  Unit style    : metal
  Current step  : 490495
  Time step     : 0.001
Per MPI rank memory allocation (min/avg/max) = 11.36 | 11.36 | 11.36 Mbytes
Step Temp Press TotEng PotEng Enthalpy 
  490495    1959.5403   -600.45767   -17001.089   -21978.499   -17225.998 
  500000    1946.8353    -366.8392   -17102.341    -22047.48   -17239.244 
  540000    1951.8188    191.51289   -17108.121   -22065.919   -17036.802 
Loop time of 2500.5 on 2 procs for 49505 steps with 19652 atoms

Performance: 1.711 ns/day, 14.031 hours/ns, 19.798 timesteps/s
99.5% CPU use with 2 MPI tasks x no OpenMP threads

MPI task timing breakdown:
Section |  min time  |  avg time  |  max time  |%varavg| %total
---------------------------------------------------------------
Pair    | 1227.9     | 1232.4     | 1236.8     |  12.7 | 49.28
Neigh   | 1118.5     | 1119.7     | 1120.9     |   3.6 | 44.78
Comm    | 101.65     | 107.25     | 112.85     |  54.1 |  4.29
Output  | 0.050567   | 0.050593   | 0.05062    |   0.0 |  0.00
Modify  | 32.621     | 32.698     | 32.776     |   1.4 |  1.31
Other   |            | 8.388      |            |       |  0.34

Nlocal:    9826 ave 9841 max 9811 min
Histogram: 1 0 0 0 0 0 0 0 0 1
Nghost:    10115.5 ave 10138 max 10093 min
Histogram: 1 0 0 0 0 0 0 0 0 1
Neighs:    411306 ave 413737 max 408875 min
Histogram: 1 0 0 0 0 0 0 0 0 1

Total # of neighbors = 822612
Ave neighs/atom = 41.8589
Neighbor list builds = 49505
Dangerous builds not checked
Setting up Verlet run ...
  Unit style    : metal
  Current step  : 540000
  Time step     : 0.001
Per MPI rank memory allocation (min/avg/max) = 11.36 | 11.36 | 11.36 Mbytes
Step Temp Press TotEng PotEng Enthalpy 
  540000    1951.8188    191.51289   -17108.121   -22065.919   -17036.802 
  540495    1918.5789    45.244974   -17317.832   -22191.197   -17301.083 
Loop time of 25.1642 on 2 procs for 495 steps with 19652 atoms

Performance: 1.700 ns/day, 14.121 hours/ns, 19.671 timesteps/s
100.0% CPU use with 2 MPI tasks x no OpenMP threads

MPI task timing breakdown:
Section |  min time  |  avg time  |  max time  |%varavg| %total
---------------------------------------------------------------
Pair    | 12.349     | 12.404     | 12.458     |   1.5 | 49.29
Neigh   | 11.318     | 11.374     | 11.43      |   1.7 | 45.20
Comm    | 0.95866    | 0.9645     | 0.97034    |   0.6 |  3.83
Output  | 7.987e-05  | 0.00010598 | 0.00013208 |   0.0 |  0.00
Modify  | 0.33352    | 0.33594    | 0.33837    |   0.4 |  1.34
Other   |            | 0.08608    |            |       |  0.34

Nlocal:    9826 ave 9856 max 9796 min
Histogram: 1 0 0 0 0 0 0 0 0 1
Nghost:    10145 ave 10168 max 10122 min
Histogram: 1 0 0 0 0 0 0 0 0 1
Neighs:    413634 ave 415192 max 412076 min
Histogram: 1 0 0 0 0 0 0 0 0 1

Total # of neighbors = 827268
Ave neighs/atom = 42.0959
Neighbor list builds = 495
Dangerous builds not checked
Setting up Verlet run ...
  Unit style    : metal
  Current step  : 540495
  Time step     : 0.001
Per MPI rank memory allocation (min/avg/max) = 11.36 | 11.36 | 11.36 Mbytes
Step Temp Press TotEng PotEng Enthalpy 
  540495    1918.5789    45.244974   -17317.832   -22191.197   -17301.083 
  550000    1883.7849      -98.347   -17506.788   -22291.774   -17542.978 
  590000    1893.6953   -410.81731   -17363.997   -22174.156   -17516.353 
Loop time of 2417.98 on 2 procs for 49505 steps with 19652 atoms

Performance: 1.769 ns/day, 13.568 hours/ns, 20.474 timesteps/s
99.7% CPU use with 2 MPI tasks x no OpenMP threads

MPI task timing breakdown:
Section |  min time  |  avg time  |  max time  |%varavg| %total
---------------------------------------------------------------
Pair    | 1180.4     | 1189.7     | 1199       |  26.9 | 49.20
Neigh   | 1082.5     | 1090       | 1097.4     |  22.5 | 45.08
Comm    | 81.729     | 98.456     | 115.18     | 168.6 |  4.07
Output  | 0.052322   | 0.052365   | 0.052408   |   0.0 |  0.00
Modify  | 31.308     | 31.383     | 31.457     |   1.3 |  1.30
Other   |            | 8.436      |            |       |  0.35

Nlocal:    9826 ave 9832 max 9820 min
Histogram: 1 0 0 0 0 0 0 0 0 1
Nghost:    10116 ave 10138 max 10094 min
Histogram: 1 0 0 0 0 0 0 0 0 1
Neighs:    413080 ave 415927 max 410233 min
Histogram: 1 0 0 0 0 0 0 0 0 1

Total # of neighbors = 826160
Ave neighs/atom = 42.0395
Neighbor list builds = 49505
Dangerous builds not checked
Setting up Verlet run ...
  Unit style    : metal
  Current step  : 590000
  Time step     : 0.001
Per MPI rank memory allocation (min/avg/max) = 11.36 | 11.36 | 11.36 Mbytes
Step Temp Press TotEng PotEng Enthalpy 
  590000    1893.6953   -410.81731   -17363.997   -22174.156   -17516.353 
  590495    1872.0228    391.93652   -17632.065   -22387.174   -17488.579 
Loop time of 22.7077 on 2 procs for 495 steps with 19652 atoms

Performance: 1.883 ns/day, 12.743 hours/ns, 21.799 timesteps/s
100.0% CPU use with 2 MPI tasks x no OpenMP threads

MPI task timing breakdown:
Section |  min time  |  avg time  |  max time  |%varavg| %total
---------------------------------------------------------------
Pair    | 11.053     | 11.062     | 11.071     |   0.3 | 48.71
Neigh   | 10.237     | 10.471     | 10.705     |   7.2 | 46.11
Comm    | 0.54893    | 0.79864    | 1.0484     |  27.9 |  3.52
Output  | 8.3923e-05 | 0.00010097 | 0.00011802 |   0.0 |  0.00
Modify  | 0.29463    | 0.29946    | 0.30429    |   0.9 |  1.32
Other   |            | 0.07657    |            |       |  0.34

Nlocal:    9826 ave 9828 max 9824 min
Histogram: 1 0 0 0 0 0 0 0 0 1
Nghost:    10154.5 ave 10165 max 10144 min
Histogram: 1 0 0 0 0 0 0 0 0 1
Neighs:    418304 ave 422266 max 414343 min
Histogram: 1 0 0 0 0 0 0 0 0 1

Total # of neighbors = 836609
Ave neighs/atom = 42.5712
Neighbor list builds = 495
Dangerous builds not checked
Setting up Verlet run ...
  Unit style    : metal
  Current step  : 590495
  Time step     : 0.001
Per MPI rank memory allocation (min/avg/max) = 11.36 | 11.36 | 11.36 Mbytes
Step Temp Press TotEng PotEng Enthalpy 
  590495    1872.0228    391.93652   -17632.065   -22387.174   -17488.579 
  600000    1855.9538   -209.57039   -17721.124   -22435.416   -17797.768 
  640000    1841.8857   -254.64351   -17684.173    -22362.73   -17777.594 
Loop time of 2650.99 on 2 procs for 49505 steps with 19652 atoms

Performance: 1.613 ns/day, 14.875 hours/ns, 18.674 timesteps/s
99.3% CPU use with 2 MPI tasks x no OpenMP threads

MPI task timing breakdown:
Section |  min time  |  avg time  |  max time  |%varavg| %total
---------------------------------------------------------------
Pair    | 1321.9     | 1325.7     | 1329.6     |  10.6 | 50.01
Neigh   | 1161.5     | 1165       | 1168.5     |  10.2 | 43.94
Comm    | 110.16     | 117.33     | 124.5      |  66.2 |  4.43
Output  | 0.049553   | 0.04958    | 0.049606   |   0.0 |  0.00
Modify  | 34.155     | 34.249     | 34.343     |   1.6 |  1.29
Other   |            | 8.661      |            |       |  0.33

Nlocal:    9826 ave 9867 max 9785 min
Histogram: 1 0 0 0 0 0 0 0 0 1
Nghost:    10211 ave 10214 max 10208 min
Histogram: 1 0 0 0 0 0 0 0 0 1
Neighs:    417160 ave 417921 max 416400 min
Histogram: 1 0 0 0 0 0 0 0 0 1

Total # of neighbors = 834321
Ave neighs/atom = 42.4548
Neighbor list builds = 49505
Dangerous builds not checked
Setting up Verlet run ...
  Unit style    : metal
  Current step  : 640000
  Time step     : 0.001
Per MPI rank memory allocation (min/avg/max) = 11.36 | 11.36 | 11.36 Mbytes
Step Temp Press TotEng PotEng Enthalpy 
  640000    1841.8857   -254.64351   -17684.173    -22362.73   -17777.594 
  640495    1827.7593   -4.5288296   -17941.067   -22583.742   -17942.713 
Loop time of 24.97 on 2 procs for 495 steps with 19652 atoms

Performance: 1.713 ns/day, 14.012 hours/ns, 19.824 timesteps/s
99.9% CPU use with 2 MPI tasks x no OpenMP threads

MPI task timing breakdown:
Section |  min time  |  avg time  |  max time  |%varavg| %total
---------------------------------------------------------------
Pair    | 12.433     | 12.507     | 12.58      |   2.1 | 50.09
Neigh   | 10.552     | 10.925     | 11.297     |  11.3 | 43.75
Comm    | 0.81273    | 1.1258     | 1.439      |  29.5 |  4.51
Output  | 8.893e-05  | 0.00010347 | 0.00011802 |   0.0 |  0.00
Modify  | 0.31768    | 0.32501    | 0.33235    |   1.3 |  1.30
Other   |            | 0.08759    |            |       |  0.35

Nlocal:    9826 ave 9867 max 9785 min
Histogram: 1 0 0 0 0 0 0 0 0 1
Nghost:    10233.5 ave 10234 max 10233 min
Histogram: 1 0 0 0 0 0 0 0 0 1
Neighs:    421478 ave 421646 max 421309 min
Histogram: 1 0 0 0 0 0 0 0 0 1

Total # of neighbors = 842955
Ave neighs/atom = 42.8941
Neighbor list builds = 495
Dangerous builds not checked
Setting up Verlet run ...
  Unit style    : metal
  Current step  : 640495
  Time step     : 0.001
Per MPI rank memory allocation (min/avg/max) = 11.36 | 11.36 | 11.36 Mbytes
Step Temp Press TotEng PotEng Enthalpy 
  640495    1827.7593   -4.5288296   -17941.067   -22583.742   -17942.713 
  650000    1808.9764    -420.3063   -17949.118   -22544.083    -18102.37 
  690000     1791.915    326.69326   -18042.422    -22594.05   -17924.071 
Loop time of 2620.81 on 2 procs for 49505 steps with 19652 atoms

Performance: 1.632 ns/day, 14.706 hours/ns, 18.889 timesteps/s
98.9% CPU use with 2 MPI tasks x no OpenMP threads

MPI task timing breakdown:
Section |  min time  |  avg time  |  max time  |%varavg| %total
---------------------------------------------------------------
Pair    | 1309.2     | 1316.2     | 1323.3     |  19.4 | 50.22
Neigh   | 1135.2     | 1141.4     | 1147.5     |  18.1 | 43.55
Comm    | 119.36     | 120.23     | 121.1      |   7.9 |  4.59
Output  | 0.08387    | 0.083922   | 0.083973   |   0.0 |  0.00
Modify  | 33.929     | 33.95      | 33.971     |   0.4 |  1.30
Other   |            | 8.937      |            |       |  0.34

Nlocal:    9826 ave 9872 max 9780 min
Histogram: 1 0 0 0 0 0 0 0 0 1
Nghost:    10161.5 ave 10180 max 10143 min
Histogram: 1 0 0 0 0 0 0 0 0 1
Neighs:    422721 ave 429217 max 416225 min
Histogram: 1 0 0 0 0 0 0 0 0 1

Total # of neighbors = 845442
Ave neighs/atom = 43.0207
Neighbor list builds = 49505
Dangerous builds not checked
Setting up Verlet run ...
  Unit style    : metal
  Current step  : 690000
  Time step     : 0.001
Per MPI rank memory allocation (min/avg/max) = 11.36 | 11.36 | 11.36 Mbytes
Step Temp Press TotEng PotEng Enthalpy 
  690000     1791.915    326.69326   -18042.422    -22594.05   -17924.071 
  690495    1769.0998   -410.97449   -18197.391   -22691.066   -18346.183 
Loop time of 28.753 on 2 procs for 495 steps with 19652 atoms

Performance: 1.487 ns/day, 16.135 hours/ns, 17.216 timesteps/s
97.4% CPU use with 2 MPI tasks x no OpenMP threads

MPI task timing breakdown:
Section |  min time  |  avg time  |  max time  |%varavg| %total
---------------------------------------------------------------
Pair    | 14.255     | 14.381     | 14.506     |   3.3 | 50.02
Neigh   | 12.152     | 12.232     | 12.312     |   2.3 | 42.54
Comm    | 1.3955     | 1.5972     | 1.7989     |  16.0 |  5.55
Output  | 7.5817e-05 | 9.8825e-05 | 0.00012183 |   0.0 |  0.00
Modify  | 0.44657    | 0.44946    | 0.45235    |   0.4 |  1.56
Other   |            | 0.09316    |            |       |  0.32

Nlocal:    9826 ave 9837 max 9815 min
Histogram: 1 0 0 0 0 0 0 0 0 1
Nghost:    10193 ave 10244 max 10142 min
Histogram: 1 0 0 0 0 0 0 0 0 1
Neighs:    423277 ave 428421 max 418133 min
Histogram: 1 0 0 0 0 0 0 0 0 1

Total # of neighbors = 846554
Ave neighs/atom = 43.0772
Neighbor list builds = 495
Dangerous builds not checked
Setting up Verlet run ...
  Unit style    : metal
  Current step  : 690495
  Time step     : 0.001
Per MPI rank memory allocation (min/avg/max) = 11.36 | 11.36 | 11.36 Mbytes
Step Temp Press TotEng PotEng Enthalpy 
  690495    1769.0998   -410.97449   -18197.391   -22691.066   -18346.183 
  700000    1757.9608   -670.06413   -18286.228   -22751.609   -18528.515 
  740000    1762.5607    185.01812   -18272.265   -22749.329   -18205.651 
Loop time of 2471.95 on 2 procs for 49505 steps with 19652 atoms

Performance: 1.730 ns/day, 13.870 hours/ns, 20.027 timesteps/s
99.4% CPU use with 2 MPI tasks x no OpenMP threads

MPI task timing breakdown:
Section |  min time  |  avg time  |  max time  |%varavg| %total
---------------------------------------------------------------
Pair    | 1226.2     | 1230.2     | 1234.1     |  11.2 | 49.77
Neigh   | 1097.7     | 1098.4     | 1099       |   1.9 | 44.43
Comm    | 100.28     | 103.42     | 106.55     |  30.8 |  4.18
Output  | 0.059011   | 0.059042   | 0.059074   |   0.0 |  0.00
Modify  | 31.552     | 31.641     | 31.731     |   1.6 |  1.28
Other   |            | 8.291      |            |       |  0.34

Nlocal:    9826 ave 9866 max 9786 min
Histogram: 1 0 0 0 0 0 0 0 0 1
Nghost:    10206 ave 10239 max 10173 min
Histogram: 1 0 0 0 0 0 0 0 0 1
Neighs:    425328 ave 425335 max 425321 min
Histogram: 1 0 0 0 0 0 0 0 0 1

Total # of neighbors = 850656
Ave neighs/atom = 43.286
Neighbor list builds = 49505
Dangerous builds not checked
Setting up Verlet run ...
  Unit style    : metal
  Current step  : 740000
  Time step     : 0.001
Per MPI rank memory allocation (min/avg/max) = 11.36 | 11.36 | 11.36 Mbytes
Step Temp Press TotEng PotEng Enthalpy 
  740000    1762.5607    185.01812   -18272.265   -22749.329   -18205.651 
  740495    1718.3633   -10.872235   -18489.691    -22854.49    -18493.59 
Loop time of 22.1452 on 2 procs for 495 steps with 19652 atoms

Performance: 1.931 ns/day, 12.427 hours/ns, 22.352 timesteps/s
100.0% CPU use with 2 MPI tasks x no OpenMP threads

MPI task timing breakdown:
Section |  min time  |  avg time  |  max time  |%varavg| %total
---------------------------------------------------------------
Pair    | 10.813     | 10.882     | 10.951     |   2.1 | 49.14
Neigh   | 9.4584     | 9.9891     | 10.52      |  16.8 | 45.11
Comm    | 0.4411     | 0.92332    | 1.4055     |  50.2 |  4.17
Output  | 5.6982e-05 | 7.6056e-05 | 9.5129e-05 |   0.0 |  0.00
Modify  | 0.26889    | 0.27752    | 0.28614    |   1.6 |  1.25
Other   |            | 0.07291    |            |       |  0.33

Nlocal:    9826 ave 9841 max 9811 min
Histogram: 1 0 0 0 0 0 0 0 0 1
Nghost:    10246 ave 10261 max 10231 min
Histogram: 1 0 0 0 0 0 0 0 0 1
Neighs:    427170 ave 431876 max 422463 min
Histogram: 1 0 0 0 0 0 0 0 0 1

Total # of neighbors = 854339
Ave neighs/atom = 43.4734
Neighbor list builds = 495
Dangerous builds not checked
Setting up Verlet run ...
  Unit style    : metal
  Current step  : 740495
  Time step     : 0.001
Per MPI rank memory allocation (min/avg/max) = 11.36 | 11.36 | 11.36 Mbytes
Step Temp Press TotEng PotEng Enthalpy 
  740495    1718.3633   -10.872235   -18489.691    -22854.49    -18493.59 
  750000    1702.9713    -179.0875   -18555.803   -22881.505   -18619.966 
  790000    1694.5625   -369.25924   -18522.289   -22826.632   -18655.027 
Loop time of 2446.41 on 2 procs for 49505 steps with 19652 atoms

Performance: 1.748 ns/day, 13.727 hours/ns, 20.236 timesteps/s
99.5% CPU use with 2 MPI tasks x no OpenMP threads

MPI task timing breakdown:
Section |  min time  |  avg time  |  max time  |%varavg| %total
---------------------------------------------------------------
Pair    | 1215.6     | 1217.4     | 1219.2     |   5.1 | 49.76
Neigh   | 1076.9     | 1087.8     | 1098.6     |  32.9 | 44.46
Comm    | 89.386     | 102.25     | 115.11     | 127.2 |  4.18
Output  | 0.063873   | 0.063906   | 0.06394    |   0.0 |  0.00
Modify  | 30.975     | 31.134     | 31.293     |   2.8 |  1.27
Other   |            | 7.804      |            |       |  0.32

Nlocal:    9826 ave 9837 max 9815 min
Histogram: 1 0 0 0 0 0 0 0 0 1
Nghost:    10271.5 ave 10285 max 10258 min
Histogram: 1 0 0 0 0 0 0 0 0 1
Neighs:    426104 ave 430712 max 421496 min
Histogram: 1 0 0 0 0 0 0 0 0 1

Total # of neighbors = 852208
Ave neighs/atom = 43.365
Neighbor list builds = 49505
Dangerous builds not checked
Setting up Verlet run ...
  Unit style    : metal
  Current step  : 790000
  Time step     : 0.001
Per MPI rank memory allocation (min/avg/max) = 11.36 | 11.36 | 11.36 Mbytes
Step Temp Press TotEng PotEng Enthalpy 
  790000    1694.5625   -369.25924   -18522.289   -22826.632   -18655.027 
  790495    1666.8148    133.36102   -18774.439   -23008.301   -18726.997 
Loop time of 24.2305 on 2 procs for 495 steps with 19652 atoms

Performance: 1.765 ns/day, 13.597 hours/ns, 20.429 timesteps/s
99.9% CPU use with 2 MPI tasks x no OpenMP threads

MPI task timing breakdown:
Section |  min time  |  avg time  |  max time  |%varavg| %total
---------------------------------------------------------------
Pair    | 11.77      | 12.176     | 12.582     |  11.6 | 50.25
Neigh   | 9.4469     | 10.532     | 11.618     |  33.4 | 43.47
Comm    | 0.40968    | 1.1309     | 1.8522     |  67.8 |  4.67
Output  | 6.8903e-05 | 8.75e-05   | 0.0001061  |   0.0 |  0.00
Modify  | 0.28243    | 0.30905    | 0.33567    |   4.8 |  1.28
Other   |            | 0.08217    |            |       |  0.34

Nlocal:    9826 ave 9837 max 9815 min
Histogram: 1 0 0 0 0 0 0 0 0 1
Nghost:    10324 ave 10360 max 10288 min
Histogram: 1 0 0 0 0 0 0 0 0 1
Neighs:    430406 ave 433664 max 427147 min
Histogram: 1 0 0 0 0 0 0 0 0 1

Total # of neighbors = 860811
Ave neighs/atom = 43.8027
Neighbor list builds = 495
Dangerous builds not checked
Setting up Verlet run ...
  Unit style    : metal
  Current step  : 790495
  Time step     : 0.001
Per MPI rank memory allocation (min/avg/max) = 11.36 | 11.36 | 11.36 Mbytes
Step Temp Press TotEng PotEng Enthalpy 
  790495    1666.8148    133.36102   -18774.439   -23008.301   -18726.997 
  800000    1644.9743    429.34298   -18882.733   -23061.117   -18730.455 
  840000    1659.8422   -36.917581   -18854.532   -23070.682   -18867.655 
Loop time of 2443.37 on 2 procs for 49505 steps with 19652 atoms

Performance: 1.751 ns/day, 13.710 hours/ns, 20.261 timesteps/s
99.7% CPU use with 2 MPI tasks x no OpenMP threads

MPI task timing breakdown:
Section |  min time  |  avg time  |  max time  |%varavg| %total
---------------------------------------------------------------
Pair    | 1212.3     | 1220.6     | 1228.9     |  23.7 | 49.96
Neigh   | 1076       | 1079.3     | 1082.6     |  10.0 | 44.17
Comm    | 99.901     | 104.6      | 109.31     |  46.0 |  4.28
Output  | 0.046633   | 0.046666   | 0.0467     |   0.0 |  0.00
Modify  | 30.487     | 30.669     | 30.851     |   3.3 |  1.26
Other   |            | 8.098      |            |       |  0.33

Nlocal:    9826 ave 9844 max 9808 min
Histogram: 1 0 0 0 0 0 0 0 0 1
Nghost:    10336.5 ave 10350 max 10323 min
Histogram: 1 0 0 0 0 0 0 0 0 1
Neighs:    430978 ave 436113 max 425843 min
Histogram: 1 0 0 0 0 0 0 0 0 1

Total # of neighbors = 861956
Ave neighs/atom = 43.861
Neighbor list builds = 49505
Dangerous builds not checked
Setting up Verlet run ...
  Unit style    : metal
  Current step  : 840000
  Time step     : 0.001
Per MPI rank memory allocation (min/avg/max) = 11.36 | 11.36 | 11.36 Mbytes
Step Temp Press TotEng PotEng Enthalpy 
  840000    1659.8422   -36.917581   -18854.532   -23070.682   -18867.655 
  840495     1611.379    164.98707    -19050.35     -23143.4   -18992.025 
Loop time of 24.5245 on 2 procs for 495 steps with 19652 atoms

Performance: 1.744 ns/day, 13.762 hours/ns, 20.184 timesteps/s
99.9% CPU use with 2 MPI tasks x no OpenMP threads

MPI task timing breakdown:
Section |  min time  |  avg time  |  max time  |%varavg| %total
---------------------------------------------------------------
Pair    | 12.25      | 12.344     | 12.438     |   2.7 | 50.33
Neigh   | 10.605     | 10.655     | 10.706     |   1.5 | 43.45
Comm    | 0.9894     | 1.1293     | 1.2693     |  13.2 |  4.60
Output  | 6.9857e-05 | 0.00010037 | 0.00013089 |   0.0 |  0.00
Modify  | 0.31175    | 0.31178    | 0.31181    |   0.0 |  1.27
Other   |            | 0.08384    |            |       |  0.34

Nlocal:    9826 ave 9834 max 9818 min
Histogram: 1 0 0 0 0 0 0 0 0 1
Nghost:    10310 ave 10326 max 10294 min
Histogram: 1 0 0 0 0 0 0 0 0 1
Neighs:    433563 ave 436198 max 430928 min
Histogram: 1 0 0 0 0 0 0 0 0 1

Total # of neighbors = 867126
Ave neighs/atom = 44.1241
Neighbor list builds = 495
Dangerous builds not checked
Setting up Verlet run ...
  Unit style    : metal
  Current step  : 840495
  Time step     : 0.001
Per MPI rank memory allocation (min/avg/max) = 11.36 | 11.36 | 11.36 Mbytes
Step Temp Press TotEng PotEng Enthalpy 
  840495     1611.379    164.98707    -19050.35     -23143.4   -18992.025 
  850000    1608.5597   -194.62928   -19094.809   -23180.697   -19163.616 
  890000     1619.443      875.611   -19087.604   -23201.137   -18779.668 
Loop time of 2492.11 on 2 procs for 49505 steps with 19652 atoms

Performance: 1.716 ns/day, 13.984 hours/ns, 19.865 timesteps/s
99.6% CPU use with 2 MPI tasks x no OpenMP threads

MPI task timing breakdown:
Section |  min time  |  avg time  |  max time  |%varavg| %total
---------------------------------------------------------------
Pair    | 1247.1     | 1249.8     | 1252.6     |   7.9 | 50.15
Neigh   | 1088.8     | 1098       | 1107.3     |  28.0 | 44.06
Comm    | 92.595     | 104.7      | 116.8      | 118.3 |  4.20
Output  | 0.044439   | 0.044468   | 0.044496   |   0.0 |  0.00
Modify  | 31.303     | 31.409     | 31.515     |   1.9 |  1.26
Other   |            | 8.08       |            |       |  0.32

Nlocal:    9826 ave 9844 max 9808 min
Histogram: 1 0 0 0 0 0 0 0 0 1
Nghost:    10371 ave 10390 max 10352 min
Histogram: 1 0 0 0 0 0 0 0 0 1
Neighs:    435727 ave 437907 max 433547 min
Histogram: 1 0 0 0 0 0 0 0 0 1

Total # of neighbors = 871454
Ave neighs/atom = 44.3443
Neighbor list builds = 49505
Dangerous builds not checked
Setting up Verlet run ...
  Unit style    : metal
  Current step  : 890000
  Time step     : 0.001
Per MPI rank memory allocation (min/avg/max) = 11.36 | 11.36 | 11.36 Mbytes
Step Temp Press TotEng PotEng Enthalpy 
  890000     1619.443      875.611   -19087.604   -23201.137   -18779.668 
  890495     1561.163   -77.941744    -19311.15   -23276.647   -19338.603 
Loop time of 24.373 on 2 procs for 495 steps with 19652 atoms

Performance: 1.755 ns/day, 13.677 hours/ns, 20.309 timesteps/s
99.9% CPU use with 2 MPI tasks x no OpenMP threads

MPI task timing breakdown:
Section |  min time  |  avg time  |  max time  |%varavg| %total
---------------------------------------------------------------
Pair    | 11.951     | 12.217     | 12.482     |   7.6 | 50.12
Neigh   | 10.331     | 10.844     | 11.356     |  15.6 | 44.49
Comm    | 0.63983    | 0.90451    | 1.1692     |  27.8 |  3.71
Output  | 6.8903e-05 | 8.297e-05  | 9.7036e-05 |   0.0 |  0.00
Modify  | 0.30847    | 0.32033    | 0.33219    |   2.1 |  1.31
Other   |            | 0.08791    |            |       |  0.36

Nlocal:    9826 ave 9848 max 9804 min
Histogram: 1 0 0 0 0 0 0 0 0 1
Nghost:    10318 ave 10321 max 10315 min
Histogram: 1 0 0 0 0 0 0 0 0 1
Neighs:    435448 ave 438009 max 432888 min
Histogram: 1 0 0 0 0 0 0 0 0 1

Total # of neighbors = 870897
Ave neighs/atom = 44.3159
Neighbor list builds = 495
Dangerous builds not checked
Setting up Verlet run ...
  Unit style    : metal
  Current step  : 890495
  Time step     : 0.001
Per MPI rank memory allocation (min/avg/max) = 11.36 | 11.36 | 11.36 Mbytes
Step Temp Press TotEng PotEng Enthalpy 
  890495     1561.163   -77.941744    -19311.15   -23276.647   -19338.603 
  900000    1562.2394   -459.42931   -19372.556   -23340.786   -19534.105 
  940000     1536.789   -100.98246   -19435.223   -23338.807    -19470.67 
Loop time of 2424.95 on 2 procs for 49505 steps with 19652 atoms

Performance: 1.764 ns/day, 13.607 hours/ns, 20.415 timesteps/s
99.7% CPU use with 2 MPI tasks x no OpenMP threads

MPI task timing breakdown:
Section |  min time  |  avg time  |  max time  |%varavg| %total
---------------------------------------------------------------
Pair    | 1212.6     | 1215.6     | 1218.6     |   8.7 | 50.13
Neigh   | 1060       | 1074.3     | 1088.5     |  43.4 | 44.30
Comm    | 78.262     | 95.911     | 113.56     | 180.2 |  3.96
Output  | 0.055051   | 0.055077   | 0.055104   |   0.0 |  0.00
Modify  | 30.343     | 30.62      | 30.898     |   5.0 |  1.26
Other   |            | 8.494      |            |       |  0.35

Nlocal:    9826 ave 9833 max 9819 min
Histogram: 1 0 0 0 0 0 0 0 0 1
Nghost:    10341.5 ave 10344 max 10339 min
Histogram: 1 0 0 0 0 0 0 0 0 1
Neighs:    436738 ave 440978 max 432497 min
Histogram: 1 0 0 0 0 0 0 0 0 1

Total # of neighbors = 873475
Ave neighs/atom = 44.4471
Neighbor list builds = 49505
Dangerous builds not checked
Setting up Verlet run ...
  Unit style    : metal
  Current step  : 940000
  Time step     : 0.001
Per MPI rank memory allocation (min/avg/max) = 11.36 | 11.36 | 11.36 Mbytes
Step Temp Press TotEng PotEng Enthalpy 
  940000     1536.789   -100.98246   -19435.223   -23338.807    -19470.67 
  940495    1502.6397    466.53925    -19641.64   -23458.482   -19479.068 
Loop time of 22.1943 on 2 procs for 495 steps with 19652 atoms

Performance: 1.927 ns/day, 12.455 hours/ns, 22.303 timesteps/s
100.0% CPU use with 2 MPI tasks x no OpenMP threads

MPI task timing breakdown:
Section |  min time  |  avg time  |  max time  |%varavg| %total
---------------------------------------------------------------
Pair    | 10.849     | 10.967     | 11.085     |   3.6 | 49.41
Neigh   | 9.4511     | 10.015     | 10.579     |  17.8 | 45.12
Comm    | 0.38283    | 0.85215    | 1.3215     |  50.8 |  3.84
Output  | 5.7936e-05 | 8.0466e-05 | 0.000103   |   0.0 |  0.00
Modify  | 0.26912    | 0.28284    | 0.29655    |   2.6 |  1.27
Other   |            | 0.0772     |            |       |  0.35

Nlocal:    9826 ave 9827 max 9825 min
Histogram: 1 0 0 0 0 0 0 0 0 1
Nghost:    10384 ave 10386 max 10382 min
Histogram: 1 0 0 0 0 0 0 0 0 1
Neighs:    440164 ave 443840 max 436488 min
Histogram: 1 0 0 0 0 0 0 0 0 1

Total # of neighbors = 880328
Ave neighs/atom = 44.7958
Neighbor list builds = 495
Dangerous builds not checked
Setting up Verlet run ...
  Unit style    : metal
  Current step  : 940495
  Time step     : 0.001
Per MPI rank memory allocation (min/avg/max) = 11.36 | 11.36 | 11.36 Mbytes
Step Temp Press TotEng PotEng Enthalpy 
  940495    1502.6397    466.53925    -19641.64   -23458.482   -19479.068 
  950000    1493.2508    208.79544   -19736.488   -23529.481   -19663.883 
  990000    1496.5967   -487.42468   -19722.584   -23524.076   -19892.675 
Loop time of 2407.64 on 2 procs for 49505 steps with 19652 atoms

Performance: 1.777 ns/day, 13.509 hours/ns, 20.562 timesteps/s
99.7% CPU use with 2 MPI tasks x no OpenMP threads

MPI task timing breakdown:
Section |  min time  |  avg time  |  max time  |%varavg| %total
---------------------------------------------------------------
Pair    | 1195.9     | 1205.9     | 1215.9     |  28.7 | 50.09
Neigh   | 1041.7     | 1059.9     | 1078.2     |  56.0 | 44.02
Comm    | 74.958     | 103.3      | 131.64     | 278.8 |  4.29
Output  | 0.2642     | 0.26424    | 0.26428    |   0.0 |  0.01
Modify  | 29.699     | 29.924     | 30.148     |   4.1 |  1.24
Other   |            | 8.312      |            |       |  0.35

Nlocal:    9826 ave 9847 max 9805 min
Histogram: 1 0 0 0 0 0 0 0 0 1
Nghost:    10387 ave 10455 max 10319 min
Histogram: 1 0 0 0 0 0 0 0 0 1
Neighs:    439200 ave 442518 max 435883 min
Histogram: 1 0 0 0 0 0 0 0 0 1

Total # of neighbors = 878401
Ave neighs/atom = 44.6978
Neighbor list builds = 49505
Dangerous builds not checked
Setting up Verlet run ...
  Unit style    : metal
  Current step  : 990000
  Time step     : 0.001
Per MPI rank memory allocation (min/avg/max) = 11.36 | 11.36 | 11.36 Mbytes
Step Temp Press TotEng PotEng Enthalpy 
  990000    1496.5967   -487.42468   -19722.584   -23524.076   -19892.675 
  990495    1460.8268    74.498068   -19933.928   -23644.562   -19908.118 
Loop time of 23.4803 on 2 procs for 495 steps with 19652 atoms

Performance: 1.821 ns/day, 13.176 hours/ns, 21.081 timesteps/s
99.7% CPU use with 2 MPI tasks x no OpenMP threads

MPI task timing breakdown:
Section |  min time  |  avg time  |  max time  |%varavg| %total
---------------------------------------------------------------
Pair    | 11.781     | 11.782     | 11.783     |   0.0 | 50.18
Neigh   | 10.113     | 10.331     | 10.55      |   6.8 | 44.00
Comm    | 0.77253    | 1.0008     | 1.2291     |  22.8 |  4.26
Output  | 5.6982e-05 | 7.7486e-05 | 9.799e-05  |   0.0 |  0.00
Modify  | 0.2838     | 0.2886     | 0.2934     |   0.9 |  1.23
Other   |            | 0.07769    |            |       |  0.33

Nlocal:    9826 ave 9839 max 9813 min
Histogram: 1 0 0 0 0 0 0 0 0 1
Nghost:    10411 ave 10431 max 10391 min
Histogram: 1 0 0 0 0 0 0 0 0 1
Neighs:    442955 ave 448039 max 437871 min
Histogram: 1 0 0 0 0 0 0 0 0 1

Total # of neighbors = 885910
Ave neighs/atom = 45.0799
Neighbor list builds = 495
Dangerous builds not checked
Setting up Verlet run ...
  Unit style    : metal
  Current step  : 990495
  Time step     : 0.001
Per MPI rank memory allocation (min/avg/max) = 11.36 | 11.36 | 11.36 Mbytes
Step Temp Press TotEng PotEng Enthalpy 
  990495    1460.8268    74.498068   -19933.928   -23644.562   -19908.118 
 1000000    1434.8446    187.23465   -20063.226   -23707.863   -19998.591 
 1040000    1458.0321    449.54754   -19994.206   -23697.741   -19839.088 
Loop time of 2084.2 on 2 procs for 49505 steps with 19652 atoms

Performance: 2.052 ns/day, 11.695 hours/ns, 23.753 timesteps/s
99.1% CPU use with 2 MPI tasks x no OpenMP threads

MPI task timing breakdown:
Section |  min time  |  avg time  |  max time  |%varavg| %total
---------------------------------------------------------------
Pair    | 1003.1     | 1009       | 1014.9     |  18.6 | 48.41
Neigh   | 963.64     | 969.26     | 974.87     |  18.0 | 46.50
Comm    | 60.102     | 71.623     | 83.144     | 136.1 |  3.44
Output  | 0.04432    | 0.044348   | 0.044377   |   0.0 |  0.00
Modify  | 26.952     | 26.961     | 26.97      |   0.2 |  1.29
Other   |            | 7.365      |            |       |  0.35

Nlocal:    9826 ave 9855 max 9797 min
Histogram: 1 0 0 0 0 0 0 0 0 1
Nghost:    10426.5 ave 10454 max 10399 min
Histogram: 1 0 0 0 0 0 0 0 0 1
Neighs:    444499 ave 445551 max 443447 min
Histogram: 1 0 0 0 0 0 0 0 0 1

Total # of neighbors = 888998
Ave neighs/atom = 45.237
Neighbor list builds = 49505
Dangerous builds not checked
Setting up Verlet run ...
  Unit style    : metal
  Current step  : 1040000
  Time step     : 0.001
Per MPI rank memory allocation (min/avg/max) = 11.36 | 11.36 | 11.36 Mbytes
Step Temp Press TotEng PotEng Enthalpy 
 1040000    1458.0321    449.54754   -19994.206   -23697.741   -19839.088 
 1040495    1412.1733    152.74044   -20193.644   -23780.693   -20141.052 
Loop time of 20.1503 on 2 procs for 495 steps with 19652 atoms

Performance: 2.122 ns/day, 11.308 hours/ns, 24.565 timesteps/s
100.0% CPU use with 2 MPI tasks x no OpenMP threads

MPI task timing breakdown:
Section |  min time  |  avg time  |  max time  |%varavg| %total
---------------------------------------------------------------
Pair    | 9.6268     | 9.7774     | 9.9279     |   4.8 | 48.52
Neigh   | 9.3711     | 9.4653     | 9.5595     |   3.1 | 46.97
Comm    | 0.3286     | 0.58068    | 0.83276    |  33.1 |  2.88
Output  | 5.9128e-05 | 7.6532e-05 | 9.3937e-05 |   0.0 |  0.00
Modify  | 0.25135    | 0.25191    | 0.25248    |   0.1 |  1.25
Other   |            | 0.07487    |            |       |  0.37

Nlocal:    9826 ave 9834 max 9818 min
Histogram: 1 0 0 0 0 0 0 0 0 1
Nghost:    10462.5 ave 10486 max 10439 min
Histogram: 1 0 0 0 0 0 0 0 0 1
Neighs:    445710 ave 447539 max 443882 min
Histogram: 1 0 0 0 0 0 0 0 0 1

Total # of neighbors = 891421
Ave neighs/atom = 45.3603
Neighbor list builds = 495
Dangerous builds not checked
Setting up Verlet run ...
  Unit style    : metal
  Current step  : 1040495
  Time step     : 0.001
Per MPI rank memory allocation (min/avg/max) = 11.36 | 11.36 | 11.36 Mbytes
Step Temp Press TotEng PotEng Enthalpy 
 1040495    1412.1733    152.74044   -20193.644   -23780.693   -20141.052 
 1050000    1395.9944   -211.52022   -20258.083   -23804.036   -20330.945 
 1090000    1400.7411    647.61276   -20287.195   -23845.205   -20065.317 
Loop time of 2154.18 on 2 procs for 49505 steps with 19652 atoms

Performance: 1.986 ns/day, 12.087 hours/ns, 22.981 timesteps/s
99.8% CPU use with 2 MPI tasks x no OpenMP threads

MPI task timing breakdown:
Section |  min time  |  avg time  |  max time  |%varavg| %total
---------------------------------------------------------------
Pair    | 1057.1     | 1065.6     | 1074       |  25.8 | 49.47
Neigh   | 986.43     | 989.49     | 992.54     |   9.7 | 45.93
Comm    | 53.46      | 65.027     | 76.594     | 143.4 |  3.02
Output  | 0.039539   | 0.039572   | 0.039604   |   0.0 |  0.00
Modify  | 26.328     | 26.341     | 26.353     |   0.2 |  1.22
Other   |            | 7.717      |            |       |  0.36

Nlocal:    9826 ave 9828 max 9824 min
Histogram: 1 0 0 0 0 0 0 0 0 1
Nghost:    10429 ave 10459 max 10399 min
Histogram: 1 0 0 0 0 0 0 0 0 1
Neighs:    447739 ave 451285 max 444193 min
Histogram: 1 0 0 0 0 0 0 0 0 1

Total # of neighbors = 895478
Ave neighs/atom = 45.5668
Neighbor list builds = 49505
Dangerous builds not checked
Setting up Verlet run ...
  Unit style    : metal
  Current step  : 1090000
  Time step     : 0.001
Per MPI rank memory allocation (min/avg/max) = 11.36 | 11.36 | 11.36 Mbytes
Step Temp Press TotEng PotEng Enthalpy 
 1090000    1400.7411    647.61276   -20287.195   -23845.205   -20065.317 
 1090495    1355.3311    184.58307   -20462.975   -23905.639   -20399.791 
Loop time of 21.1784 on 2 procs for 495 steps with 19652 atoms

Performance: 2.019 ns/day, 11.885 hours/ns, 23.373 timesteps/s
100.0% CPU use with 2 MPI tasks x no OpenMP threads

MPI task timing breakdown:
Section |  min time  |  avg time  |  max time  |%varavg| %total
---------------------------------------------------------------
Pair    | 10.454     | 10.527     | 10.601     |   2.3 | 49.71
Neigh   | 9.7859     | 9.8111     | 9.8364     |   0.8 | 46.33
Comm    | 0.38112    | 0.48221    | 0.58329    |  14.6 |  2.28
Output  | 6.0081e-05 | 8.3089e-05 | 0.0001061  |   0.0 |  0.00
Modify  | 0.26847    | 0.27007    | 0.27167    |   0.3 |  1.28
Other   |            | 0.08757    |            |       |  0.41

Nlocal:    9826 ave 9827 max 9825 min
Histogram: 1 0 0 0 0 0 0 0 0 1
Nghost:    10494 ave 10494 max 10494 min
Histogram: 2 0 0 0 0 0 0 0 0 0
Neighs:    448510 ave 452535 max 444486 min
Histogram: 1 0 0 0 0 0 0 0 0 1

Total # of neighbors = 897021
Ave neighs/atom = 45.6453
Neighbor list builds = 495
Dangerous builds not checked
Setting up Verlet run ...
  Unit style    : metal
  Current step  : 1090495
  Time step     : 0.001
Per MPI rank memory allocation (min/avg/max) = 11.36 | 11.36 | 11.36 Mbytes
Step Temp Press TotEng PotEng Enthalpy 
 1090495    1355.3311    184.58307   -20462.975   -23905.639   -20399.791 
 1100000    1345.9165   -202.12172   -20591.808   -24010.559   -20660.822 
 1140000    1331.7077   -435.84062   -20627.887   -24010.546   -20776.859 
Loop time of 2580.86 on 2 procs for 49505 steps with 19652 atoms

Performance: 1.657 ns/day, 14.481 hours/ns, 19.182 timesteps/s
99.4% CPU use with 2 MPI tasks x no OpenMP threads

MPI task timing breakdown:
Section |  min time  |  avg time  |  max time  |%varavg| %total
---------------------------------------------------------------
Pair    | 1318.4     | 1325.6     | 1332.8     |  19.7 | 51.36
Neigh   | 1099.8     | 1107.4     | 1115.1     |  23.1 | 42.91
Comm    | 106.23     | 106.89     | 107.55     |   6.4 |  4.14
Output  | 0.040474   | 0.040519   | 0.040565   |   0.0 |  0.00
Modify  | 31.541     | 31.698     | 31.854     |   2.8 |  1.23
Other   |            | 9.218      |            |       |  0.36

Nlocal:    9826 ave 9841 max 9811 min
Histogram: 1 0 0 0 0 0 0 0 0 1
Nghost:    10432 ave 10444 max 10420 min
Histogram: 1 0 0 0 0 0 0 0 0 1
Neighs:    449210 ave 454721 max 443699 min
Histogram: 1 0 0 0 0 0 0 0 0 1

Total # of neighbors = 898420
Ave neighs/atom = 45.7165
Neighbor list builds = 49505
Dangerous builds not checked
Setting up Verlet run ...
  Unit style    : metal
  Current step  : 1140000
  Time step     : 0.001
Per MPI rank memory allocation (min/avg/max) = 11.36 | 11.36 | 11.36 Mbytes
Step Temp Press TotEng PotEng Enthalpy 
 1140000    1331.7077   -435.84062   -20627.887   -24010.546   -20776.859 
 1140495    1304.2053   -50.893677    -20754.37    -24067.17   -20771.684 
Loop time of 29.8482 on 2 procs for 495 steps with 19652 atoms

Performance: 1.433 ns/day, 16.750 hours/ns, 16.584 timesteps/s
99.9% CPU use with 2 MPI tasks x no OpenMP threads

MPI task timing breakdown:
Section |  min time  |  avg time  |  max time  |%varavg| %total
---------------------------------------------------------------
Pair    | 15.556     | 15.681     | 15.806     |   3.2 | 52.54
Neigh   | 11.502     | 11.921     | 12.341     |  12.1 | 39.94
Comm    | 1.2412     | 1.7955     | 2.3498     |  41.4 |  6.02
Output  | 8.5831e-05 | 0.0001179  | 0.00014997 |   0.0 |  0.00
Modify  | 0.35076    | 0.35814    | 0.36552    |   1.2 |  1.20
Other   |            | 0.0922     |            |       |  0.31

Nlocal:    9826 ave 9832 max 9820 min
Histogram: 1 0 0 0 0 0 0 0 0 1
Nghost:    10476.5 ave 10522 max 10431 min
Histogram: 1 0 0 0 0 0 0 0 0 1
Neighs:    451244 ave 455689 max 446799 min
Histogram: 1 0 0 0 0 0 0 0 0 1

Total # of neighbors = 902488
Ave neighs/atom = 45.9235
Neighbor list builds = 495
Dangerous builds not checked
Setting up Verlet run ...
  Unit style    : metal
  Current step  : 1140495
  Time step     : 0.001
Per MPI rank memory allocation (min/avg/max) = 11.36 | 11.36 | 11.36 Mbytes
Step Temp Press TotEng PotEng Enthalpy 
 1140495    1304.2053   -50.893677    -20754.37    -24067.17   -20771.684 
 1150000    1315.0437    273.09977   -20837.423   -24177.754   -20744.977 
 1190000    1301.2237   -333.69138   -20837.848   -24143.075    -20951.23 
Loop time of 2972.33 on 2 procs for 49505 steps with 19652 atoms

Performance: 1.439 ns/day, 16.678 hours/ns, 16.655 timesteps/s
97.0% CPU use with 2 MPI tasks x no OpenMP threads

MPI task timing breakdown:
Section |  min time  |  avg time  |  max time  |%varavg| %total
---------------------------------------------------------------
Pair    | 1505.4     | 1509.3     | 1513.2     |  10.0 | 50.78
Neigh   | 1156.1     | 1173.7     | 1191.2     |  51.1 | 39.49
Comm    | 194.58     | 229.7      | 264.82     | 231.7 |  7.73
Output  | 0.052846   | 0.052901   | 0.052955   |   0.0 |  0.00
Modify  | 36.527     | 50.383     | 64.238     | 195.2 |  1.70
Other   |            | 9.23       |            |       |  0.31

Nlocal:    9826 ave 9845 max 9807 min
Histogram: 1 0 0 0 0 0 0 0 0 1
Nghost:    10479.5 ave 10484 max 10475 min
Histogram: 1 0 0 0 0 0 0 0 0 1
Neighs:    451734 ave 457281 max 446187 min
Histogram: 1 0 0 0 0 0 0 0 0 1

Total # of neighbors = 903468
Ave neighs/atom = 45.9733
Neighbor list builds = 49505
Dangerous builds not checked
Setting up Verlet run ...
  Unit style    : metal
  Current step  : 1190000
  Time step     : 0.001
Per MPI rank memory allocation (min/avg/max) = 11.36 | 11.36 | 11.36 Mbytes
Step Temp Press TotEng PotEng Enthalpy 
 1190000    1301.2237   -333.69138   -20837.848   -24143.075    -20951.23 
 1190495    1261.9263    420.10127   -21067.178   -24272.585   -20925.651 
Loop time of 29.646 on 2 procs for 495 steps with 19652 atoms

Performance: 1.443 ns/day, 16.636 hours/ns, 16.697 timesteps/s
100.0% CPU use with 2 MPI tasks x no OpenMP threads

MPI task timing breakdown:
Section |  min time  |  avg time  |  max time  |%varavg| %total
---------------------------------------------------------------
Pair    | 15.577     | 15.589     | 15.601     |   0.3 | 52.58
Neigh   | 10.696     | 11.708     | 12.721     |  29.6 | 39.49
Comm    | 0.8502     | 1.9002     | 2.9501     |  76.2 |  6.41
Output  | 8.4162e-05 | 0.00010848 | 0.0001328  |   0.0 |  0.00
Modify  | 0.33298    | 0.35494    | 0.3769     |   3.7 |  1.20
Other   |            | 0.09361    |            |       |  0.32

Nlocal:    9826 ave 9838 max 9814 min
Histogram: 1 0 0 0 0 0 0 0 0 1
Nghost:    10492 ave 10508 max 10476 min
Histogram: 1 0 0 0 0 0 0 0 0 1
Neighs:    455912 ave 458830 max 452994 min
Histogram: 1 0 0 0 0 0 0 0 0 1

Total # of neighbors = 911824
Ave neighs/atom = 46.3985
Neighbor list builds = 495
Dangerous builds not checked
Setting up Verlet run ...
  Unit style    : metal
  Current step  : 1190495
  Time step     : 0.001
Per MPI rank memory allocation (min/avg/max) = 11.36 | 11.36 | 11.36 Mbytes
Step Temp Press TotEng PotEng Enthalpy 
 1190495    1261.9263    420.10127   -21067.178   -24272.585   -20925.651 
 1200000    1251.1245    2.7888398   -21112.086   -24290.057   -21111.146 
 1240000     1250.314     90.00139   -21160.706   -24336.617   -21130.416 
Loop time of 2827.52 on 2 procs for 49505 steps with 19652 atoms

Performance: 1.513 ns/day, 15.865 hours/ns, 17.508 timesteps/s
99.8% CPU use with 2 MPI tasks x no OpenMP threads

MPI task timing breakdown:
Section |  min time  |  avg time  |  max time  |%varavg| %total
---------------------------------------------------------------
Pair    | 1469.3     | 1476       | 1482.6     |  17.4 | 52.20
Neigh   | 1164.2     | 1177.5     | 1190.8     |  38.7 | 41.64
Comm    | 109.69     | 129.92     | 150.14     | 177.4 |  4.59
Output  | 0.049274   | 0.049317   | 0.049359   |   0.0 |  0.00
Modify  | 34.34      | 34.593     | 34.845     |   4.3 |  1.22
Other   |            | 9.543      |            |       |  0.34

Nlocal:    9826 ave 9835 max 9817 min
Histogram: 1 0 0 0 0 0 0 0 0 1
Nghost:    10532 ave 10563 max 10501 min
Histogram: 1 0 0 0 0 0 0 0 0 1
Neighs:    456276 ave 459753 max 452798 min
Histogram: 1 0 0 0 0 0 0 0 0 1

Total # of neighbors = 912551
Ave neighs/atom = 46.4355
Neighbor list builds = 49505
Dangerous builds not checked
Setting up Verlet run ...
  Unit style    : metal
  Current step  : 1240000
  Time step     : 0.001
Per MPI rank memory allocation (min/avg/max) = 11.36 | 11.36 | 11.36 Mbytes
Step Temp Press TotEng PotEng Enthalpy 
 1240000     1250.314     90.00139   -21160.706   -24336.617   -21130.416 
 1240495    1223.1592    238.97907   -21331.635   -24438.571   -21251.567 
Loop time of 25.6672 on 2 procs for 495 steps with 19652 atoms

Performance: 1.666 ns/day, 14.404 hours/ns, 19.285 timesteps/s
100.0% CPU use with 2 MPI tasks x no OpenMP threads

MPI task timing breakdown:
Section |  min time  |  avg time  |  max time  |%varavg| %total
---------------------------------------------------------------
Pair    | 13.144     | 13.266     | 13.388     |   3.4 | 51.69
Neigh   | 10.211     | 10.732     | 11.254     |  15.9 | 41.81
Comm    | 0.83874    | 1.256      | 1.6733     |  37.2 |  4.89
Output  | 7.2002e-05 | 9.2506e-05 | 0.00011301 |   0.0 |  0.00
Modify  | 0.30452    | 0.31723    | 0.32993    |   2.3 |  1.24
Other   |            | 0.09515    |            |       |  0.37

Nlocal:    9826 ave 9834 max 9818 min
Histogram: 1 0 0 0 0 0 0 0 0 1
Nghost:    10561 ave 10573 max 10549 min
Histogram: 1 0 0 0 0 0 0 0 0 1
Neighs:    458532 ave 462342 max 454721 min
Histogram: 1 0 0 0 0 0 0 0 0 1

Total # of neighbors = 917063
Ave neighs/atom = 46.6651
Neighbor list builds = 495
Dangerous builds not checked
Setting up Verlet run ...
  Unit style    : metal
  Current step  : 1240495
  Time step     : 0.001
Per MPI rank memory allocation (min/avg/max) = 11.36 | 11.36 | 11.36 Mbytes
Step Temp Press TotEng PotEng Enthalpy 
 1240495    1223.1592    238.97907   -21331.635   -24438.571   -21251.567 
 1250000    1186.8242   -474.14903   -21448.567   -24463.209   -21607.718 
 1290000    1199.4494   -292.57425   -21449.593   -24496.304   -21547.587 
Loop time of 2720.6 on 2 procs for 49505 steps with 19652 atoms

Performance: 1.572 ns/day, 15.266 hours/ns, 18.196 timesteps/s
99.2% CPU use with 2 MPI tasks x no OpenMP threads

MPI task timing breakdown:
Section |  min time  |  avg time  |  max time  |%varavg| %total
---------------------------------------------------------------
Pair    | 1396.9     | 1411.4     | 1425.9     |  38.6 | 51.88
Neigh   | 1133.9     | 1143.1     | 1152.3     |  27.1 | 42.02
Comm    | 116.43     | 121.52     | 126.6      |  46.2 |  4.47
Output  | 0.13661    | 0.13666    | 0.13671    |   0.0 |  0.01
Modify  | 34.277     | 34.503     | 34.728     |   3.8 |  1.27
Other   |            | 9.921      |            |       |  0.36

Nlocal:    9826 ave 9853 max 9799 min
Histogram: 1 0 0 0 0 0 0 0 0 1
Nghost:    10554.5 ave 10556 max 10553 min
Histogram: 1 0 0 0 0 0 0 0 0 1
Neighs:    458691 ave 465311 max 452071 min
Histogram: 1 0 0 0 0 0 0 0 0 1

Total # of neighbors = 917382
Ave neighs/atom = 46.6814
Neighbor list builds = 49505
Dangerous builds not checked
Setting up Verlet run ...
  Unit style    : metal
  Current step  : 1290000
  Time step     : 0.001
Per MPI rank memory allocation (min/avg/max) = 11.36 | 11.36 | 11.36 Mbytes
Step Temp Press TotEng PotEng Enthalpy 
 1290000    1199.4494   -292.57425   -21449.593   -24496.304   -21547.587 
 1290495    1171.1582   -21.937254   -21617.302    -24592.15   -21624.617 
Loop time of 28.8748 on 2 procs for 495 steps with 19652 atoms

Performance: 1.481 ns/day, 16.204 hours/ns, 17.143 timesteps/s
99.7% CPU use with 2 MPI tasks x no OpenMP threads

MPI task timing breakdown:
Section |  min time  |  avg time  |  max time  |%varavg| %total
---------------------------------------------------------------
Pair    | 14.911     | 15.097     | 15.284     |   4.8 | 52.28
Neigh   | 12.001     | 12.042     | 12.083     |   1.2 | 41.70
Comm    | 1.1138     | 1.2542     | 1.3946     |  12.5 |  4.34
Output  | 7.7009e-05 | 0.00010598 | 0.00013494 |   0.0 |  0.00
Modify  | 0.36857    | 0.37169    | 0.3748     |   0.5 |  1.29
Other   |            | 0.1098     |            |       |  0.38

Nlocal:    9826 ave 9834 max 9818 min
Histogram: 1 0 0 0 0 0 0 0 0 1
Nghost:    10558 ave 10568 max 10548 min
Histogram: 1 0 0 0 0 0 0 0 0 1
Neighs:    461023 ave 466172 max 455874 min
Histogram: 1 0 0 0 0 0 0 0 0 1

Total # of neighbors = 922046
Ave neighs/atom = 46.9187
[...]
Loop time of 31.7201 on 2 procs for 495 steps with 19652 atoms

Performance: 1.348 ns/day, 17.800 hours/ns, 15.605 timesteps/s
98.9% CPU use with 2 MPI tasks x no OpenMP threads

MPI task timing breakdown:
Section |  min time  |  avg time  |  max time  |%varavg| %total
---------------------------------------------------------------
Pair    | 16.33      | 16.346     | 16.361     |   0.4 | 51.53
Neigh   | 13.256     | 13.478     | 13.7       |   6.0 | 42.49
Comm    | 1.193      | 1.4085     | 1.624      |  18.2 |  4.44
Output  | 7.3195e-05 | 0.00010014 | 0.00012708 |   0.0 |  0.00
Modify  | 0.38085    | 0.38719    | 0.39353    |   1.0 |  1.22
Other   |            | 0.1002     |            |       |  0.32

Nlocal:    9826 ave 9827 max 9825 min
Histogram: 1 0 0 0 0 0 0 0 0 1
Nghost:    11053 ave 11067 max 11039 min
Histogram: 1 0 0 0 0 0 0 0 0 1
Neighs:    519906 ave 520037 max 519775 min
Histogram: 1 0 0 0 0 0 0 0 0 1

Total # of neighbors = 1039812
Ave neighs/atom = 52.9113
Neighbor list builds = 495
Dangerous builds not checked
Setting up Verlet run ...
  Unit style    : metal
  Current step  : 2040495
  Time step     : 0.001
Per MPI rank memory allocation (min/avg/max) = 11.36 | 11.36 | 11.36 Mbytes
Step Temp Press TotEng PotEng Enthalpy 
 2040495    422.48162   -365.83532   -26269.595   -27342.737    -26379.85 
 2050000    399.51583    203.98042    -26432.21   -27447.016   -26371.087 
 2090000    401.72181    -242.9139    -26449.98    -27470.39   -26522.774 
Loop time of 3221.14 on 2 procs for 49505 steps with 19652 atoms

Performance: 1.328 ns/day, 18.074 hours/ns, 15.369 timesteps/s
97.7% CPU use with 2 MPI tasks x no OpenMP threads

MPI task timing breakdown:
Section |  min time  |  avg time  |  max time  |%varavg| %total
---------------------------------------------------------------
Pair    | 1671.9     | 1673.6     | 1675.2     |   4.1 | 51.96
Neigh   | 1318       | 1325.1     | 1332.2     |  19.5 | 41.14
Comm    | 160.29     | 169.32     | 178.34     |  69.4 |  5.26
Output  | 0.19913    | 0.19918    | 0.19923    |   0.0 |  0.01
Modify  | 42.534     | 42.723     | 42.912     |   2.9 |  1.33
Other   |            | 10.25      |            |       |  0.32

Nlocal:    9826 ave 9830 max 9822 min
Histogram: 1 0 0 0 0 0 0 0 0 1
Nghost:    11038 ave 11044 max 11032 min
Histogram: 1 0 0 0 0 0 0 0 0 1
Neighs:    523538 ave 524308 max 522768 min
Histogram: 1 0 0 0 0 0 0 0 0 1

Total # of neighbors = 1047076
Ave neighs/atom = 53.2809
Neighbor list builds = 49505
Dangerous builds not checked
Setting up Verlet run ...
  Unit style    : metal
  Current step  : 2090000
  Time step     : 0.001
Per MPI rank memory allocation (min/avg/max) = 11.36 | 11.36 | 11.37 Mbytes
Step Temp Press TotEng PotEng Enthalpy 
 2090000    401.72181    -242.9139    -26449.98    -27470.39   -26522.774 
 2090495    371.61234    120.48118    -26605.62   -27549.549   -26569.673 
Loop time of 30.9847 on 2 procs for 495 steps with 19652 atoms

Performance: 1.380 ns/day, 17.388 hours/ns, 15.976 timesteps/s
99.8% CPU use with 2 MPI tasks x no OpenMP threads

MPI task timing breakdown:
Section |  min time  |  avg time  |  max time  |%varavg| %total
---------------------------------------------------------------
Pair    | 16.228     | 16.267     | 16.307     |   1.0 | 52.50
Neigh   | 13.006     | 13.106     | 13.205     |   2.8 | 42.30
Comm    | 1.0785     | 1.1308     | 1.183      |   4.9 |  3.65
Output  | 8.297e-05  | 0.00011504 | 0.0001471  |   0.0 |  0.00
Modify  | 0.37499    | 0.37786    | 0.38073    |   0.5 |  1.22
Other   |            | 0.1031     |            |       |  0.33

Nlocal:    9826 ave 9839 max 9813 min
Histogram: 1 0 0 0 0 0 0 0 0 1
Nghost:    11049 ave 11071 max 11027 min
Histogram: 1 0 0 0 0 0 0 0 0 1
Neighs:    526130 ave 527403 max 524856 min
Histogram: 1 0 0 0 0 0 0 0 0 1

Total # of neighbors = 1052259
Ave neighs/atom = 53.5446
Neighbor list builds = 495
Dangerous builds not checked
Setting up Verlet run ...
  Unit style    : metal
  Current step  : 2090495
  Time step     : 0.001
Per MPI rank memory allocation (min/avg/max) = 11.36 | 11.36 | 11.37 Mbytes
Step Temp Press TotEng PotEng Enthalpy 
 2090495    371.61234    120.48118    -26605.62   -27549.549   -26569.673 
 2100000    351.81072   -176.37631   -26760.324   -27653.955     -26812.8 
 2140000    345.81474    17.730296    -26805.26   -27683.661   -26799.994 
Loop time of 3262.29 on 2 procs for 49505 steps with 19652 atoms

Performance: 1.311 ns/day, 18.305 hours/ns, 15.175 timesteps/s
99.0% CPU use with 2 MPI tasks x no OpenMP threads

MPI task timing breakdown:
Section |  min time  |  avg time  |  max time  |%varavg| %total
---------------------------------------------------------------
Pair    | 1711       | 1717.4     | 1723.9     |  15.6 | 52.64
Neigh   | 1327       | 1355.2     | 1383.4     |  76.6 | 41.54
Comm    | 114.87     | 137.1      | 159.33     | 189.9 |  4.20
Output  | 0.073934   | 0.07397    | 0.074005   |   0.0 |  0.00
Modify  | 40.736     | 41.375     | 42.014     |   9.9 |  1.27
Other   |            | 11.1       |            |       |  0.34

Nlocal:    9826 ave 9842 max 9810 min
Histogram: 1 0 0 0 0 0 0 0 0 1
Nghost:    11081 ave 11087 max 11075 min
Histogram: 1 0 0 0 0 0 0 0 0 1
Neighs:    529329 ave 530314 max 528344 min
Histogram: 1 0 0 0 0 0 0 0 0 1

Total # of neighbors = 1058658
Ave neighs/atom = 53.8702
Neighbor list builds = 49505
Dangerous builds not checked
Setting up Verlet run ...
  Unit style    : metal
  Current step  : 2140000
  Time step     : 0.001
Per MPI rank memory allocation (min/avg/max) = 11.36 | 11.36 | 11.37 Mbytes
Step Temp Press TotEng PotEng Enthalpy 
 2140000    345.81474    17.730296    -26805.26   -27683.661   -26799.994 
 2140495    321.63176   -66.114331   -26941.775   -27758.749   -26961.358 
Loop time of 33.1966 on 2 procs for 495 steps with 19652 atoms

Performance: 1.288 ns/day, 18.629 hours/ns, 14.911 timesteps/s
98.3% CPU use with 2 MPI tasks x no OpenMP threads

MPI task timing breakdown:
Section |  min time  |  avg time  |  max time  |%varavg| %total
---------------------------------------------------------------
Pair    | 17.554     | 17.558     | 17.562     |   0.1 | 52.89
Neigh   | 13.613     | 13.836     | 14.059     |   6.0 | 41.68
Comm    | 1.0375     | 1.261      | 1.4844     |  19.9 |  3.80
Output  | 7.0095e-05 | 8.5592e-05 | 0.00010109 |   0.0 |  0.00
Modify  | 0.41763    | 0.42104    | 0.42446    |   0.5 |  1.27
Other   |            | 0.12       |            |       |  0.36

Nlocal:    9826 ave 9837 max 9815 min
Histogram: 1 0 0 0 0 0 0 0 0 1
Nghost:    11089 ave 11100 max 11078 min
Histogram: 1 0 0 0 0 0 0 0 0 1
Neighs:    531398 ave 531965 max 530830 min
Histogram: 1 0 0 0 0 0 0 0 0 1

Total # of neighbors = 1062795
Ave neighs/atom = 54.0808
Neighbor list builds = 495
Dangerous builds not checked
Setting up Verlet run ...
  Unit style    : metal
  Current step  : 2140495
  Time step     : 0.001
Per MPI rank memory allocation (min/avg/max) = 11.36 | 11.36 | 11.37 Mbytes
Step Temp Press TotEng PotEng Enthalpy 
 2140495    321.63176   -66.114331   -26941.775   -27758.749   -26961.358 
 2150000    302.30222    304.16305   -27089.155   -27857.031   -26999.489 
 2190000    298.90142   -326.01911   -27119.867   -27879.104   -27216.133 
Loop time of 3227.94 on 2 procs for 49505 steps with 19652 atoms

Performance: 1.325 ns/day, 18.112 hours/ns, 15.336 timesteps/s
97.8% CPU use with 2 MPI tasks x no OpenMP threads

MPI task timing breakdown:
Section |  min time  |  avg time  |  max time  |%varavg| %total
---------------------------------------------------------------
Pair    | 1685.5     | 1688.9     | 1692.3     |   8.3 | 52.32
Neigh   | 1301       | 1301.2     | 1301.5     |   0.7 | 40.31
Comm    | 171.71     | 175.42     | 179.13     |  28.0 |  5.43
Output  | 0.051427   | 0.051478   | 0.051529   |   0.0 |  0.00
Modify  | 51.586     | 51.589     | 51.591     |   0.0 |  1.60
Other   |            | 10.77      |            |       |  0.33

Nlocal:    9826 ave 9829 max 9823 min
Histogram: 1 0 0 0 0 0 0 0 0 1
Nghost:    11090 ave 11103 max 11077 min
Histogram: 1 0 0 0 0 0 0 0 0 1
Neighs:    533105 ave 533131 max 533079 min
Histogram: 1 0 0 0 0 0 0 0 0 1

Total # of neighbors = 1066210
Ave neighs/atom = 54.2545
Neighbor list builds = 49505
Dangerous builds not checked
Setting up Verlet run ...
  Unit style    : metal
  Current step  : 2190000
  Time step     : 0.001
Per MPI rank memory allocation (min/avg/max) = 11.36 | 11.36 | 11.37 Mbytes
Step Temp Press TotEng PotEng Enthalpy 
 2190000    298.90142   -326.01911   -27119.867   -27879.104   -27216.133 
 2190495    272.58377   -16.349466   -27257.814   -27950.202   -27262.623 
Loop time of 30.787 on 2 procs for 495 steps with 19652 atoms

Performance: 1.389 ns/day, 17.277 hours/ns, 16.078 timesteps/s
99.8% CPU use with 2 MPI tasks x no OpenMP threads

MPI task timing breakdown:
Section |  min time  |  avg time  |  max time  |%varavg| %total
---------------------------------------------------------------
Pair    | 16.063     | 16.229     | 16.395     |   4.1 | 52.71
Neigh   | 12.063     | 12.736     | 13.409     |  18.9 | 41.37
Comm    | 0.81066    | 1.3433     | 1.876      |  46.0 |  4.36
Output  | 7.8917e-05 | 0.00010002 | 0.00012112 |   0.0 |  0.00
Modify  | 0.36018    | 0.3752     | 0.39021    |   2.5 |  1.22
Other   |            | 0.1034     |            |       |  0.34

Nlocal:    9826 ave 9829 max 9823 min
Histogram: 1 0 0 0 0 0 0 0 0 1
Nghost:    11130.5 ave 11142 max 11119 min
Histogram: 1 0 0 0 0 0 0 0 0 1
Neighs:    535816 ave 535984 max 535648 min
Histogram: 1 0 0 0 0 0 0 0 0 1

Total # of neighbors = 1071632
Ave neighs/atom = 54.5304
Neighbor list builds = 495
Dangerous builds not checked
Setting up Verlet run ...
  Unit style    : metal
  Current step  : 2190495
  Time step     : 0.001
Per MPI rank memory allocation (min/avg/max) = 11.36 | 11.36 | 11.37 Mbytes
Step Temp Press TotEng PotEng Enthalpy 
 2190495    272.58377   -16.349466   -27257.814   -27950.202   -27262.623 
 2200000    248.19553    137.19247   -27403.369   -28033.808   -27363.149 
 2240000    250.34075   -109.59436   -27406.364   -28042.253   -27438.516 
Loop time of 3155.88 on 2 procs for 49505 steps with 19652 atoms

Performance: 1.355 ns/day, 17.708 hours/ns, 15.687 timesteps/s
99.0% CPU use with 2 MPI tasks x no OpenMP threads

MPI task timing breakdown:
Section |  min time  |  avg time  |  max time  |%varavg| %total
---------------------------------------------------------------
Pair    | 1663.9     | 1668.3     | 1672.8     |  10.9 | 52.86
Neigh   | 1267.7     | 1287.6     | 1307.5     |  55.4 | 40.80
Comm    | 135.72     | 151.48     | 167.25     | 128.1 |  4.80
Output  | 0.056069   | 0.05611    | 0.05615    |   0.0 |  0.00
Modify  | 37.782     | 38.244     | 38.705     |   7.5 |  1.21
Other   |            | 10.16      |            |       |  0.32

Nlocal:    9826 ave 9830 max 9822 min
Histogram: 1 0 0 0 0 0 0 0 0 1
Nghost:    11105.5 ave 11111 max 11100 min
Histogram: 1 0 0 0 0 0 0 0 0 1
Neighs:    537451 ave 537560 max 537342 min
Histogram: 1 0 0 0 0 0 0 0 0 1

Total # of neighbors = 1074902
Ave neighs/atom = 54.6968
Neighbor list builds = 49505
Dangerous builds not checked
Setting up Verlet run ...
  Unit style    : metal
  Current step  : 2240000
  Time step     : 0.001
Per MPI rank memory allocation (min/avg/max) = 11.36 | 11.36 | 11.37 Mbytes
Step Temp Press TotEng PotEng Enthalpy 
 2240000    250.34075   -109.59436   -27406.364   -28042.253   -27438.516 
 2240495    223.82226    44.976103   -27545.099   -28113.628   -27531.945 
Loop time of 34.097 on 2 procs for 495 steps with 19652 atoms

Performance: 1.254 ns/day, 19.134 hours/ns, 14.517 timesteps/s
94.4% CPU use with 2 MPI tasks x no OpenMP threads

MPI task timing breakdown:
Section |  min time  |  avg time  |  max time  |%varavg| %total
---------------------------------------------------------------
Pair    | 18.209     | 18.428     | 18.647     |   5.1 | 54.05
Neigh   | 11.627     | 12.389     | 13.151     |  21.6 | 36.34
Comm    | 1.3134     | 1.8791     | 2.4448     |  41.3 |  5.51
Output  | 7.4148e-05 | 9.1076e-05 | 0.000108   |   0.0 |  0.00
Modify  | 1.292      | 1.308      | 1.3241     |   1.4 |  3.84
Other   |            | 0.09243    |            |       |  0.27

Nlocal:    9826 ave 9836 max 9816 min
Histogram: 1 0 0 0 0 0 0 0 0 1
Nghost:    11141.5 ave 11146 max 11137 min
Histogram: 1 0 0 0 0 0 0 0 0 1
Neighs:    539817 ave 540446 max 539188 min
Histogram: 1 0 0 0 0 0 0 0 0 1

Total # of neighbors = 1079634
Ave neighs/atom = 54.9376
Neighbor list builds = 495
Dangerous builds not checked
Setting up Verlet run ...
  Unit style    : metal
  Current step  : 2240495
  Time step     : 0.001
Per MPI rank memory allocation (min/avg/max) = 11.36 | 11.36 | 11.37 Mbytes
Step Temp Press TotEng PotEng Enthalpy 
 2240495    223.82226    44.976103   -27545.099   -28113.628   -27531.945 
 2250000    197.78441    104.47971   -27688.413   -28190.804   -27657.942 
 2290000    199.70262   -99.526485   -27686.402   -28193.665   -27715.453 
Loop time of 3316.22 on 2 procs for 49505 steps with 19652 atoms

Performance: 1.290 ns/day, 18.608 hours/ns, 14.928 timesteps/s
97.1% CPU use with 2 MPI tasks x no OpenMP threads

MPI task timing breakdown:
Section |  min time  |  avg time  |  max time  |%varavg| %total
---------------------------------------------------------------
Pair    | 1710.9     | 1713.8     | 1716.6     |   6.9 | 51.68
Neigh   | 1283.7     | 1293.4     | 1303.2     |  27.1 | 39.00
Comm    | 246.97     | 254.06     | 261.15     |  44.5 |  7.66
Output  | 0.05363    | 0.053674   | 0.053718   |   0.0 |  0.00
Modify  | 44.275     | 44.467     | 44.659     |   2.9 |  1.34
Other   |            | 10.42      |            |       |  0.31

Nlocal:    9826 ave 9832 max 9820 min
Histogram: 1 0 0 0 0 0 0 0 0 1
Nghost:    11163.5 ave 11183 max 11144 min
Histogram: 1 0 0 0 0 0 0 0 0 1
Neighs:    541356 ave 541642 max 541071 min
Histogram: 1 0 0 0 0 0 0 0 0 1

Total # of neighbors = 1082713
Ave neighs/atom = 55.0943
Neighbor list builds = 49505
Dangerous builds not checked
Setting up Verlet run ...
  Unit style    : metal
  Current step  : 2290000
  Time step     : 0.001
Per MPI rank memory allocation (min/avg/max) = 11.36 | 11.36 | 11.37 Mbytes
Step Temp Press TotEng PotEng Enthalpy 
 2290000    199.70262   -99.526485   -27686.402   -28193.665   -27715.453 
 2290495    175.63428   -241.44341   -27816.353    -28262.48   -27886.675 
Loop time of 35.0202 on 2 procs for 495 steps with 19652 atoms

Performance: 1.221 ns/day, 19.652 hours/ns, 14.135 timesteps/s
92.5% CPU use with 2 MPI tasks x no OpenMP threads

MPI task timing breakdown:
Section |  min time  |  avg time  |  max time  |%varavg| %total
---------------------------------------------------------------
Pair    | 17.69      | 17.743     | 17.797     |   1.3 | 50.67
Neigh   | 12.267     | 12.452     | 12.636     |   5.2 | 35.56
Comm    | 3.2174     | 3.356      | 3.4946     |   7.6 |  9.58
Output  | 6.6996e-05 | 0.00010097 | 0.00013494 |   0.0 |  0.00
Modify  | 1.3717     | 1.3767     | 1.3818     |   0.4 |  3.93
Other   |            | 0.09221    |            |       |  0.26

Nlocal:    9826 ave 9838 max 9814 min
Histogram: 1 0 0 0 0 0 0 0 0 1
Nghost:    11156.5 ave 11173 max 11140 min
Histogram: 1 0 0 0 0 0 0 0 0 1
Neighs:    542982 ave 543866 max 542099 min
Histogram: 1 0 0 0 0 0 0 0 0 1

Total # of neighbors = 1085965
Ave neighs/atom = 55.2598
Neighbor list builds = 495
Dangerous builds not checked
Setting up Verlet run ...
  Unit style    : metal
  Current step  : 2290495
  Time step     : 0.001
Per MPI rank memory allocation (min/avg/max) = 11.36 | 11.36 | 11.37 Mbytes
Step Temp Press TotEng PotEng Enthalpy 
 2290495    175.63428   -241.44341   -27816.353    -28262.48   -27886.675 
 2300000    150.79914    49.682003   -27959.536   -28342.579   -27945.118 
 2340000     148.6261     77.22346   -27964.331   -28341.855   -27941.924 
Loop time of 3150.2 on 2 procs for 49505 steps with 19652 atoms

Performance: 1.358 ns/day, 17.676 hours/ns, 15.715 timesteps/s
98.2% CPU use with 2 MPI tasks x no OpenMP threads

MPI task timing breakdown:
Section |  min time  |  avg time  |  max time  |%varavg| %total
---------------------------------------------------------------
Pair    | 1648.7     | 1648.9     | 1649.1     |   0.6 | 52.34
Neigh   | 1234.8     | 1249.2     | 1263.6     |  40.8 | 39.65
Comm    | 181.63     | 196.15     | 210.67     | 103.7 |  6.23
Output  | 0.17339    | 0.1734     | 0.17342    |   0.0 |  0.01
Modify  | 45.027     | 45.39      | 45.753     |   5.4 |  1.44
Other   |            | 10.39      |            |       |  0.33

Nlocal:    9826 ave 9832 max 9820 min
Histogram: 1 0 0 0 0 0 0 0 0 1
Nghost:    11176 ave 11187 max 11165 min
Histogram: 1 0 0 0 0 0 0 0 0 1
Neighs:    545385 ave 545973 max 544797 min
Histogram: 1 0 0 0 0 0 0 0 0 1

Total # of neighbors = 1090770
Ave neighs/atom = 55.5043
Neighbor list builds = 49505
Dangerous builds not checked
Setting up Verlet run ...
  Unit style    : metal
  Current step  : 2340000
  Time step     : 0.001
Per MPI rank memory allocation (min/avg/max) = 11.36 | 11.36 | 11.37 Mbytes
Step Temp Press TotEng PotEng Enthalpy 
 2340000     148.6261     77.22346   -27964.331   -28341.855   -27941.924 
 2340495     126.8296   -154.35934   -28079.317   -28401.476   -28124.051 
Loop time of 30.4991 on 2 procs for 495 steps with 19652 atoms

Performance: 1.402 ns/day, 17.115 hours/ns, 16.230 timesteps/s
99.7% CPU use with 2 MPI tasks x no OpenMP threads

MPI task timing breakdown:
Section |  min time  |  avg time  |  max time  |%varavg| %total
---------------------------------------------------------------
Pair    | 16.245     | 16.258     | 16.271     |   0.3 | 53.31
Neigh   | 11.6       | 12.245     | 12.89      |  18.4 | 40.15
Comm    | 0.86477    | 1.5426     | 2.2204     |  54.6 |  5.06
Output  | 5.8174e-05 | 7.8559e-05 | 9.8944e-05 |   0.0 |  0.00
Modify  | 0.33363    | 0.35022    | 0.36681    |   2.8 |  1.15
Other   |            | 0.103      |            |       |  0.34

Nlocal:    9826 ave 9834 max 9818 min
Histogram: 1 0 0 0 0 0 0 0 0 1
Nghost:    11184.5 ave 11188 max 11181 min
Histogram: 1 0 0 0 0 0 0 0 0 1
Neighs:    546334 ave 547062 max 545605 min
Histogram: 1 0 0 0 0 0 0 0 0 1

Total # of neighbors = 1092667
Ave neighs/atom = 55.6008
Neighbor list builds = 495
Dangerous builds not checked
Setting up Verlet run ...
  Unit style    : metal
  Current step  : 2340495
  Time step     : 0.001
Per MPI rank memory allocation (min/avg/max) = 11.36 | 11.36 | 11.37 Mbytes
Step Temp Press TotEng PotEng Enthalpy 
 2340495     126.8296   -154.35934   -28079.317   -28401.476   -28124.051 
 2350000    99.854023   -110.11626   -28222.481   -28476.119   -28254.314 
 2390000    100.56242    136.57226   -28222.927   -28478.364   -28183.484 
Loop time of 3133.61 on 2 procs for 49505 steps with 19652 atoms

Performance: 1.365 ns/day, 17.583 hours/ns, 15.798 timesteps/s
99.0% CPU use with 2 MPI tasks x no OpenMP threads

MPI task timing breakdown:
Section |  min time  |  avg time  |  max time  |%varavg| %total
---------------------------------------------------------------
Pair    | 1663.8     | 1666       | 1668.1     |   5.4 | 53.16
Neigh   | 1244.2     | 1262.1     | 1279.9     |  50.2 | 40.27
Comm    | 137.55     | 157.57     | 177.59     | 159.5 |  5.03
Output  | 0.051172   | 0.051203   | 0.051234   |   0.0 |  0.00
Modify  | 37.458     | 37.723     | 37.987     |   4.3 |  1.20
Other   |            | 10.26      |            |       |  0.33

Nlocal:    9826 ave 9835 max 9817 min
Histogram: 1 0 0 0 0 0 0 0 0 1
Nghost:    11216.5 ave 11217 max 11216 min
Histogram: 1 0 0 0 0 0 0 0 0 1
Neighs:    548792 ave 549578 max 548007 min
Histogram: 1 0 0 0 0 0 0 0 0 1

Total # of neighbors = 1097585
Ave neighs/atom = 55.8511
Neighbor list builds = 49505
Dangerous builds not checked
Total wall time: 37:27:44
