LAMMPS (12 Dec 2018)
Lattice spacing in x,y,z = 4 4 4
Created orthogonal box = (0 0 0) to (68 68 68)
  1 by 1 by 1 MPI processor grid
Created 19652 atoms
  Time spent = 0.00440717 secs
Setting atom values ...
  0 settings made for type/fraction
Neighbor list info ...
  update every 1 steps, delay 0 steps, check no
  max neighbors/atom: 2000, page size: 100000
  master list distance cutoff = 8.5
  ghost atom cutoff = 8.5
  binsize = 4.25, bins = 16 16 16
  1 neighbor lists, perpetual/occasional/extra = 1 0 0
  (1) pair eam/alloy, perpetual
      attributes: half, newton on
      pair build: half/bin/atomonly/newton
      stencil: half/bin/3d/newton
      bin: standard
Setting up Verlet run ...
  Unit style    : metal
  Current step  : 0
  Time step     : 0.001
Per MPI rank memory allocation (min/avg/max) = 18.19 | 18.19 | 18.19 Mbytes
Step Temp Press TotEng PotEng Enthalpy 
       0          300     9641.232   -65285.163    -66047.19   -63393.042 
    1000    155.82114    18083.786   -65285.017   -65680.817   -61736.019 
Loop time of 156.857 on 1 procs for 1000 steps with 19652 atoms

Performance: 0.551 ns/day, 43.571 hours/ns, 6.375 timesteps/s
98.6% CPU use with 1 MPI tasks x no OpenMP threads

MPI task timing breakdown:
Section |  min time  |  avg time  |  max time  |%varavg| %total
---------------------------------------------------------------
Pair    | 89.21      | 89.21      | 89.21      |   0.0 | 56.87
Neigh   | 65.624     | 65.624     | 65.624     |   0.0 | 41.84
Comm    | 1.2126     | 1.2126     | 1.2126     |   0.0 |  0.77
Output  | 0.00012302 | 0.00012302 | 0.00012302 |   0.0 |  0.00
Modify  | 0.41708    | 0.41708    | 0.41708    |   0.0 |  0.27
Other   |            | 0.3929     |            |       |  0.25

Nlocal:    19652 ave 19652 max 19652 min
Histogram: 1 0 0 0 0 0 0 0 0 0
Nghost:    20102 ave 20102 max 20102 min
Histogram: 1 0 0 0 0 0 0 0 0 0
Neighs:    1.56481e+06 ave 1.56481e+06 max 1.56481e+06 min
Histogram: 1 0 0 0 0 0 0 0 0 0

Total # of neighbors = 1564814
Ave neighs/atom = 79.6262
Neighbor list builds = 1000
Dangerous builds not checked
Setting up Verlet run ...
  Unit style    : metal
  Current step  : 1000
  Time step     : 0.001
Per MPI rank memory allocation (min/avg/max) = 18.19 | 18.19 | 18.19 Mbytes
Step Temp Press TotEng PotEng Enthalpy 
    1000    155.82114    18083.786   -65285.017   -65680.817   -61736.019 
    2000     299.1103    77.605305   -64535.812    -65295.58   -64520.009 
Loop time of 157.246 on 1 procs for 1000 steps with 19652 atoms

Performance: 0.549 ns/day, 43.679 hours/ns, 6.359 timesteps/s
99.7% CPU use with 1 MPI tasks x no OpenMP threads

MPI task timing breakdown:
Section |  min time  |  avg time  |  max time  |%varavg| %total
---------------------------------------------------------------
Pair    | 88.273     | 88.273     | 88.273     |   0.0 | 56.14
Neigh   | 65.741     | 65.741     | 65.741     |   0.0 | 41.81
Comm    | 1.2197     | 1.2197     | 1.2197     |   0.0 |  0.78
Output  | 0.069784   | 0.069784   | 0.069784   |   0.0 |  0.04
Modify  | 1.5083     | 1.5083     | 1.5083     |   0.0 |  0.96
Other   |            | 0.4343     |            |       |  0.28

Nlocal:    19652 ave 19652 max 19652 min
Histogram: 1 0 0 0 0 0 0 0 0 0
Nghost:    19948 ave 19948 max 19948 min
Histogram: 1 0 0 0 0 0 0 0 0 0
Neighs:    1.48383e+06 ave 1.48383e+06 max 1.48383e+06 min
Histogram: 1 0 0 0 0 0 0 0 0 0

Total # of neighbors = 1483833
Ave neighs/atom = 75.5054
Neighbor list builds = 1000
Dangerous builds not checked
Setting up Verlet run ...
  Unit style    : metal
  Current step  : 2000
  Time step     : 0.001
Per MPI rank memory allocation (min/avg/max) = 18.2 | 18.2 | 18.2 Mbytes
Step Temp Press TotEng PotEng Enthalpy 
    2000     299.1103    77.605305   -64535.812    -65295.58   -64520.009 
    4000    774.97997     325.5165   -61708.897   -63677.417   -61639.149 
    6000    1353.6585    503.17187   -56413.985   -59852.401   -56288.903 
    8000    1900.0336    -1304.648   -53357.217   -58183.475   -53703.298 
   10000    2442.6645   -980.25834   -50482.491   -56687.081   -50756.957 
Loop time of 1181.67 on 1 procs for 8000 steps with 19652 atoms

Performance: 0.585 ns/day, 41.030 hours/ns, 6.770 timesteps/s
99.1% CPU use with 1 MPI tasks x no OpenMP threads

MPI task timing breakdown:
Section |  min time  |  avg time  |  max time  |%varavg| %total
---------------------------------------------------------------
Pair    | 629.44     | 629.44     | 629.44     |   0.0 | 53.27
Neigh   | 528.01     | 528.01     | 528.01     |   0.0 | 44.68
Comm    | 9.0157     | 9.0157     | 9.0157     |   0.0 |  0.76
Output  | 0.31713    | 0.31713    | 0.31713    |   0.0 |  0.03
Modify  | 11.678     | 11.678     | 11.678     |   0.0 |  0.99
Other   |            | 3.206      |            |       |  0.27

Nlocal:    19652 ave 19652 max 19652 min
Histogram: 1 0 0 0 0 0 0 0 0 0
Nghost:    16179 ave 16179 max 16179 min
Histogram: 1 0 0 0 0 0 0 0 0 0
Neighs:    1.09968e+06 ave 1.09968e+06 max 1.09968e+06 min
Histogram: 1 0 0 0 0 0 0 0 0 0

Total # of neighbors = 1099685
Ave neighs/atom = 55.9579
Neighbor list builds = 8000
Dangerous builds not checked
Setting up Verlet run ...
  Unit style    : metal
  Current step  : 10000
  Time step     : 0.001
Per MPI rank memory allocation (min/avg/max) = 18.21 | 18.21 | 18.21 Mbytes
Step Temp Press TotEng PotEng Enthalpy 
   10000    2442.6645   -980.25834   -50482.491   -56687.081   -50756.957 
   12000     2454.093   -59.671446   -50492.226   -56725.846   -50508.902 
   14000    2445.2198    663.65483   -50590.535   -56801.616   -50405.821 
   16000     2433.186    872.23584   -50563.536    -56744.05   -50320.279 
   18000    2425.8344   -1154.8543   -50575.705   -56737.546   -50898.858 
   20000    2467.4916   -887.93955    -50437.06   -56704.714   -50685.816 
   22000    2450.2311   -419.22117   -50429.621   -56653.431   -50547.233 
   24000    2448.7255     -1044.12   -50484.066   -56704.051   -50776.915 
   26000    2444.8995   -845.65046   -50418.299   -56628.566   -50655.743 
   28000    2452.2839   -97.668245   -50445.638   -56674.662    -50472.97 
   30000    2476.2223   -123.86281   -50380.667   -56670.497   -50415.344 
   32000    2475.5753    117.51689   -50434.461   -56722.648   -50401.607 
   34000    2443.6887    1304.1904    -50544.03   -56751.222    -50181.01 
   36000    2445.1232   -141.77358   -50539.881   -56750.716   -50579.502 
   38000    2406.5501   -808.65015   -50569.731   -56682.587   -50796.476 
   40000    2445.3494   -128.40822   -50444.859    -56656.27   -50480.824 
Loop time of 4337.56 on 1 procs for 30000 steps with 19652 atoms

Performance: 0.598 ns/day, 40.163 hours/ns, 6.916 timesteps/s
98.9% CPU use with 1 MPI tasks x no OpenMP threads

MPI task timing breakdown:
Section |  min time  |  avg time  |  max time  |%varavg| %total
---------------------------------------------------------------
Pair    | 2292.5     | 2292.5     | 2292.5     |   0.0 | 52.85
Neigh   | 1950.9     | 1950.9     | 1950.9     |   0.0 | 44.98
Comm    | 34.798     | 34.798     | 34.798     |   0.0 |  0.80
Output  | 1.2961     | 1.2961     | 1.2961     |   0.0 |  0.03
Modify  | 45.483     | 45.483     | 45.483     |   0.0 |  1.05
Other   |            | 12.5       |            |       |  0.29

Nlocal:    19652 ave 19652 max 19652 min
Histogram: 1 0 0 0 0 0 0 0 0 0
Nghost:    16264 ave 16264 max 16264 min
Histogram: 1 0 0 0 0 0 0 0 0 0
Neighs:    1.10006e+06 ave 1.10006e+06 max 1.10006e+06 min
Histogram: 1 0 0 0 0 0 0 0 0 0

Total # of neighbors = 1100057
Ave neighs/atom = 55.9768
Neighbor list builds = 30000
Dangerous builds not checked
Setting up Verlet run ...
  Unit style    : metal
  Current step  : 40000
  Time step     : 0.001
Per MPI rank memory allocation (min/avg/max) = 18.21 | 18.21 | 18.21 Mbytes
Step Temp Press TotEng PotEng Enthalpy 
   40000    2445.3494   -128.40822   -50444.859    -56656.27   -50480.824 
   40495    2418.8694    282.42292       -50688   -56832.149   -50609.449 
Loop time of 65.656 on 1 procs for 495 steps with 19652 atoms

Performance: 0.651 ns/day, 36.844 hours/ns, 7.539 timesteps/s
99.8% CPU use with 1 MPI tasks x no OpenMP threads

MPI task timing breakdown:
Section |  min time  |  avg time  |  max time  |%varavg| %total
---------------------------------------------------------------
Pair    | 34.472     | 34.472     | 34.472     |   0.0 | 52.50
Neigh   | 29.768     | 29.768     | 29.768     |   0.0 | 45.34
Comm    | 0.52962    | 0.52962    | 0.52962    |   0.0 |  0.81
Output  | 0.00019979 | 0.00019979 | 0.00019979 |   0.0 |  0.00
Modify  | 0.6918     | 0.6918     | 0.6918     |   0.0 |  1.05
Other   |            | 0.1942     |            |       |  0.30

Nlocal:    19652 ave 19652 max 19652 min
Histogram: 1 0 0 0 0 0 0 0 0 0
Nghost:    16271 ave 16271 max 16271 min
Histogram: 1 0 0 0 0 0 0 0 0 0
Neighs:    1.10697e+06 ave 1.10697e+06 max 1.10697e+06 min
Histogram: 1 0 0 0 0 0 0 0 0 0

Total # of neighbors = 1106967
Ave neighs/atom = 56.3285
Neighbor list builds = 495
Dangerous builds not checked
Setting up Verlet run ...
  Unit style    : metal
  Current step  : 40495
  Time step     : 0.001
Per MPI rank memory allocation (min/avg/max) = 18.21 | 18.21 | 18.21 Mbytes
Step Temp Press TotEng PotEng Enthalpy 
   40495    2418.8694    282.42292       -50688   -56832.149   -50609.449 
   42000    2414.7895    1229.5006   -50688.652   -56822.437   -50346.999 
Loop time of 218.387 on 1 procs for 1505 steps with 19652 atoms

Performance: 0.595 ns/day, 40.308 hours/ns, 6.891 timesteps/s
99.5% CPU use with 1 MPI tasks x no OpenMP threads

MPI task timing breakdown:
Section |  min time  |  avg time  |  max time  |%varavg| %total
---------------------------------------------------------------
Pair    | 115        | 115        | 115        |   0.0 | 52.66
Neigh   | 98.762     | 98.762     | 98.762     |   0.0 | 45.22
Comm    | 1.7121     | 1.7121     | 1.7121     |   0.0 |  0.78
Output  | 0.083378   | 0.083378   | 0.083378   |   0.0 |  0.04
Modify  | 2.2131     | 2.2131     | 2.2131     |   0.0 |  1.01
Other   |            | 0.6194     |            |       |  0.28

Nlocal:    19652 ave 19652 max 19652 min
Histogram: 1 0 0 0 0 0 0 0 0 0
Nghost:    16364 ave 16364 max 16364 min
Histogram: 1 0 0 0 0 0 0 0 0 0
Neighs:    1.10795e+06 ave 1.10795e+06 max 1.10795e+06 min
Histogram: 1 0 0 0 0 0 0 0 0 0

Total # of neighbors = 1107949
Ave neighs/atom = 56.3784
Neighbor list builds = 1505
Dangerous builds not checked
Setting up Verlet run ...
  Unit style    : metal
  Current step  : 42000
  Time step     : 0.001
Per MPI rank memory allocation (min/avg/max) = 18.21 | 18.21 | 18.21 Mbytes
Step Temp Press TotEng PotEng Enthalpy 
   42000    2414.7895    1229.5006   -50688.652   -56822.437   -50346.999 
   42495     2356.294    712.99903   -50918.511   -56903.712   -50720.797 
Loop time of 69.1166 on 1 procs for 495 steps with 19652 atoms

Performance: 0.619 ns/day, 38.786 hours/ns, 7.162 timesteps/s
98.2% CPU use with 1 MPI tasks x no OpenMP threads

MPI task timing breakdown:
Section |  min time  |  avg time  |  max time  |%varavg| %total
---------------------------------------------------------------
Pair    | 35.768     | 35.768     | 35.768     |   0.0 | 51.75
Neigh   | 31.847     | 31.847     | 31.847     |   0.0 | 46.08
Comm    | 0.57298    | 0.57298    | 0.57298    |   0.0 |  0.83
Output  | 0.00015593 | 0.00015593 | 0.00015593 |   0.0 |  0.00
Modify  | 0.72627    | 0.72627    | 0.72627    |   0.0 |  1.05
Other   |            | 0.2026     |            |       |  0.29

Nlocal:    19652 ave 19652 max 19652 min
Histogram: 1 0 0 0 0 0 0 0 0 0
Nghost:    16246 ave 16246 max 16246 min
Histogram: 1 0 0 0 0 0 0 0 0 0
Neighs:    1.11083e+06 ave 1.11083e+06 max 1.11083e+06 min
Histogram: 1 0 0 0 0 0 0 0 0 0

Total # of neighbors = 1110834
Ave neighs/atom = 56.5252
Neighbor list builds = 495
Dangerous builds not checked
Setting up Verlet run ...
  Unit style    : metal
  Current step  : 42495
  Time step     : 0.001
Per MPI rank memory allocation (min/avg/max) = 18.21 | 18.21 | 18.21 Mbytes
Step Temp Press TotEng PotEng Enthalpy 
   42495     2356.294    712.99903   -50918.511   -56903.712   -50720.797 
   44000    2351.9525   -1250.1143   -51014.154   -56988.328   -51361.001 
Loop time of 219.731 on 1 procs for 1505 steps with 19652 atoms

Performance: 0.592 ns/day, 40.556 hours/ns, 6.849 timesteps/s
98.6% CPU use with 1 MPI tasks x no OpenMP threads

MPI task timing breakdown:
Section |  min time  |  avg time  |  max time  |%varavg| %total
---------------------------------------------------------------
Pair    | 114.39     | 114.39     | 114.39     |   0.0 | 52.06
Neigh   | 100.65     | 100.65     | 100.65     |   0.0 | 45.81
Comm    | 1.7518     | 1.7518     | 1.7518     |   0.0 |  0.80
Output  | 0.087555   | 0.087555   | 0.087555   |   0.0 |  0.04
Modify  | 2.2263     | 2.2263     | 2.2263     |   0.0 |  1.01
Other   |            | 0.6243     |            |       |  0.28

Nlocal:    19652 ave 19652 max 19652 min
Histogram: 1 0 0 0 0 0 0 0 0 0
Nghost:    16286 ave 16286 max 16286 min
Histogram: 1 0 0 0 0 0 0 0 0 0
Neighs:    1.11059e+06 ave 1.11059e+06 max 1.11059e+06 min
Histogram: 1 0 0 0 0 0 0 0 0 0

Total # of neighbors = 1110589
Ave neighs/atom = 56.5128
Neighbor list builds = 1505
Dangerous builds not checked
Setting up Verlet run ...
  Unit style    : metal
  Current step  : 44000
  Time step     : 0.001
Per MPI rank memory allocation (min/avg/max) = 18.21 | 18.21 | 18.21 Mbytes
Step Temp Press TotEng PotEng Enthalpy 
   44000    2351.9525   -1250.1143   -51014.154   -56988.328   -51361.001 
   44495    2307.9443   -75.153393   -51174.842   -57037.231   -51195.612 
Loop time of 69.349 on 1 procs for 495 steps with 19652 atoms

Performance: 0.617 ns/day, 38.916 hours/ns, 7.138 timesteps/s
99.1% CPU use with 1 MPI tasks x no OpenMP threads

MPI task timing breakdown:
Section |  min time  |  avg time  |  max time  |%varavg| %total
---------------------------------------------------------------
Pair    | 35.827     | 35.827     | 35.827     |   0.0 | 51.66
Neigh   | 32.018     | 32.018     | 32.018     |   0.0 | 46.17
Comm    | 0.56064    | 0.56064    | 0.56064    |   0.0 |  0.81
Output  | 0.00019884 | 0.00019884 | 0.00019884 |   0.0 |  0.00
Modify  | 0.73509    | 0.73509    | 0.73509    |   0.0 |  1.06
Other   |            | 0.2074     |            |       |  0.30

Nlocal:    19652 ave 19652 max 19652 min
Histogram: 1 0 0 0 0 0 0 0 0 0
Nghost:    16281 ave 16281 max 16281 min
Histogram: 1 0 0 0 0 0 0 0 0 0
Neighs:    1.11497e+06 ave 1.11497e+06 max 1.11497e+06 min
Histogram: 1 0 0 0 0 0 0 0 0 0

Total # of neighbors = 1114970
Ave neighs/atom = 56.7357
Neighbor list builds = 495
Dangerous builds not checked
Setting up Verlet run ...
  Unit style    : metal
  Current step  : 44495
  Time step     : 0.001
Per MPI rank memory allocation (min/avg/max) = 18.21 | 18.21 | 18.21 Mbytes
Step Temp Press TotEng PotEng Enthalpy 
   44495    2307.9443   -75.153393   -51174.842   -57037.231   -51195.612 
   46000    2289.4108    1316.7256   -51260.103   -57075.415   -50898.025 
Loop time of 214.842 on 1 procs for 1505 steps with 19652 atoms

Performance: 0.605 ns/day, 39.653 hours/ns, 7.005 timesteps/s
99.1% CPU use with 1 MPI tasks x no OpenMP threads

MPI task timing breakdown:
Section |  min time  |  avg time  |  max time  |%varavg| %total
---------------------------------------------------------------
Pair    | 112.06     | 112.06     | 112.06     |   0.0 | 52.16
Neigh   | 98.214     | 98.214     | 98.214     |   0.0 | 45.71
Comm    | 1.6664     | 1.6664     | 1.6664     |   0.0 |  0.78
Output  | 0.090784   | 0.090784   | 0.090784   |   0.0 |  0.04
Modify  | 2.1992     | 2.1992     | 2.1992     |   0.0 |  1.02
Other   |            | 0.6065     |            |       |  0.28

Nlocal:    19652 ave 19652 max 19652 min
Histogram: 1 0 0 0 0 0 0 0 0 0
Nghost:    16349 ave 16349 max 16349 min
Histogram: 1 0 0 0 0 0 0 0 0 0
Neighs:    1.12022e+06 ave 1.12022e+06 max 1.12022e+06 min
Histogram: 1 0 0 0 0 0 0 0 0 0

Total # of neighbors = 1120220
Ave neighs/atom = 57.0028
Neighbor list builds = 1505
Dangerous builds not checked
Setting up Verlet run ...
  Unit style    : metal
  Current step  : 46000
  Time step     : 0.001
Per MPI rank memory allocation (min/avg/max) = 18.21 | 18.21 | 18.21 Mbytes
Step Temp Press TotEng PotEng Enthalpy 
   46000    2289.4108    1316.7256   -51260.103   -57075.415   -50898.025 
   46495     2262.551    452.93275   -51384.986   -57132.071   -51260.433 
Loop time of 70.4073 on 1 procs for 495 steps with 19652 atoms

Performance: 0.607 ns/day, 39.510 hours/ns, 7.031 timesteps/s
99.5% CPU use with 1 MPI tasks x no OpenMP threads

MPI task timing breakdown:
Section |  min time  |  avg time  |  max time  |%varavg| %total
---------------------------------------------------------------
Pair    | 36.838     | 36.838     | 36.838     |   0.0 | 52.32
Neigh   | 32.089     | 32.089     | 32.089     |   0.0 | 45.58
Comm    | 0.56522    | 0.56522    | 0.56522    |   0.0 |  0.80
Output  | 0.00014806 | 0.00014806 | 0.00014806 |   0.0 |  0.00
Modify  | 0.71462    | 0.71462    | 0.71462    |   0.0 |  1.01
Other   |            | 0.1998     |            |       |  0.28

Nlocal:    19652 ave 19652 max 19652 min
Histogram: 1 0 0 0 0 0 0 0 0 0
Nghost:    16292 ave 16292 max 16292 min
Histogram: 1 0 0 0 0 0 0 0 0 0
Neighs:    1.12075e+06 ave 1.12075e+06 max 1.12075e+06 min
Histogram: 1 0 0 0 0 0 0 0 0 0

Total # of neighbors = 1120751
Ave neighs/atom = 57.0299
Neighbor list builds = 495
Dangerous builds not checked
Setting up Verlet run ...
  Unit style    : metal
  Current step  : 46495
  Time step     : 0.001
Per MPI rank memory allocation (min/avg/max) = 18.21 | 18.21 | 18.21 Mbytes
Step Temp Press TotEng PotEng Enthalpy 
   46495     2262.551    452.93275   -51384.986   -57132.071   -51260.433 
   48000    2241.7237   -483.86058   -51533.784   -57227.966   -51666.677 
Loop time of 204.966 on 1 procs for 1505 steps with 19652 atoms

Performance: 0.634 ns/day, 37.830 hours/ns, 7.343 timesteps/s
99.0% CPU use with 1 MPI tasks x no OpenMP threads

MPI task timing breakdown:
Section |  min time  |  avg time  |  max time  |%varavg| %total
---------------------------------------------------------------
Pair    | 106.35     | 106.35     | 106.35     |   0.0 | 51.89
Neigh   | 94.074     | 94.074     | 94.074     |   0.0 | 45.90
Comm    | 1.6178     | 1.6178     | 1.6178     |   0.0 |  0.79
Output  | 0.25341    | 0.25341    | 0.25341    |   0.0 |  0.12
Modify  | 2.0845     | 2.0845     | 2.0845     |   0.0 |  1.02
Other   |            | 0.584      |            |       |  0.28

Nlocal:    19652 ave 19652 max 19652 min
Histogram: 1 0 0 0 0 0 0 0 0 0
Nghost:    16338 ave 16338 max 16338 min
Histogram: 1 0 0 0 0 0 0 0 0 0
Neighs:    1.12168e+06 ave 1.12168e+06 max 1.12168e+06 min
Histogram: 1 0 0 0 0 0 0 0 0 0

Total # of neighbors = 1121679
Ave neighs/atom = 57.0771
Neighbor list builds = 1505
Dangerous builds not checked
Setting up Verlet run ...
  Unit style    : metal
  Current step  : 48000
  Time step     : 0.001
Per MPI rank memory allocation (min/avg/max) = 18.21 | 18.21 | 18.21 Mbytes
Step Temp Press TotEng PotEng Enthalpy 
   48000    2241.7237   -483.86058   -51533.784   -57227.966   -51666.677 
   48495    2214.6051   -100.49785   -51708.261    -57333.56   -51735.743 
Loop time of 68.4411 on 1 procs for 495 steps with 19652 atoms

Performance: 0.625 ns/day, 38.407 hours/ns, 7.232 timesteps/s
99.8% CPU use with 1 MPI tasks x no OpenMP threads

MPI task timing breakdown:
Section |  min time  |  avg time  |  max time  |%varavg| %total
---------------------------------------------------------------
Pair    | 35.461     | 35.461     | 35.461     |   0.0 | 51.81
Neigh   | 31.54      | 31.54      | 31.54      |   0.0 | 46.08
Comm    | 0.52796    | 0.52796    | 0.52796    |   0.0 |  0.77
Output  | 0.00013304 | 0.00013304 | 0.00013304 |   0.0 |  0.00
Modify  | 0.72715    | 0.72715    | 0.72715    |   0.0 |  1.06
Other   |            | 0.1843     |            |       |  0.27

Nlocal:    19652 ave 19652 max 19652 min
Histogram: 1 0 0 0 0 0 0 0 0 0
Nghost:    16405 ave 16405 max 16405 min
Histogram: 1 0 0 0 0 0 0 0 0 0
Neighs:    1.12676e+06 ave 1.12676e+06 max 1.12676e+06 min
Histogram: 1 0 0 0 0 0 0 0 0 0

Total # of neighbors = 1126763
Ave neighs/atom = 57.3358
Neighbor list builds = 495
Dangerous builds not checked
Setting up Verlet run ...
  Unit style    : metal
  Current step  : 48495
  Time step     : 0.001
Per MPI rank memory allocation (min/avg/max) = 18.21 | 18.21 | 18.21 Mbytes
Step Temp Press TotEng PotEng Enthalpy 
   48495    2214.6051   -100.49785   -51708.261    -57333.56   -51735.743 
   50000    2192.8378   -281.09047   -51900.986   -57470.994   -51977.459 
Loop time of 211.865 on 1 procs for 1505 steps with 19652 atoms

Performance: 0.614 ns/day, 39.104 hours/ns, 7.104 timesteps/s
98.7% CPU use with 1 MPI tasks x no OpenMP threads

MPI task timing breakdown:
Section |  min time  |  avg time  |  max time  |%varavg| %total
---------------------------------------------------------------
Pair    | 109.58     | 109.58     | 109.58     |   0.0 | 51.72
Neigh   | 97.746     | 97.746     | 97.746     |   0.0 | 46.14
Comm    | 1.6194     | 1.6194     | 1.6194     |   0.0 |  0.76
Output  | 0.18044    | 0.18044    | 0.18044    |   0.0 |  0.09
Modify  | 2.192      | 2.192      | 2.192      |   0.0 |  1.03
Other   |            | 0.5516     |            |       |  0.26

Nlocal:    19652 ave 19652 max 19652 min
Histogram: 1 0 0 0 0 0 0 0 0 0
Nghost:    16389 ave 16389 max 16389 min
Histogram: 1 0 0 0 0 0 0 0 0 0
Neighs:    1.13283e+06 ave 1.13283e+06 max 1.13283e+06 min
Histogram: 1 0 0 0 0 0 0 0 0 0

Total # of neighbors = 1132828
Ave neighs/atom = 57.6444
Neighbor list builds = 1505
Dangerous builds not checked
Setting up Verlet run ...
  Unit style    : metal
  Current step  : 50000
  Time step     : 0.001
Per MPI rank memory allocation (min/avg/max) = 18.21 | 18.21 | 18.21 Mbytes
Step Temp Press TotEng PotEng Enthalpy 
   50000    2192.8378   -281.09047   -51900.986   -57470.994   -51977.459 
   50495    2153.0958   -859.37465   -51912.544   -57381.603   -52147.277 
Loop time of 70.6124 on 1 procs for 495 steps with 19652 atoms

Performance: 0.606 ns/day, 39.625 hours/ns, 7.010 timesteps/s
98.2% CPU use with 1 MPI tasks x no OpenMP threads

MPI task timing breakdown:
Section |  min time  |  avg time  |  max time  |%varavg| %total
---------------------------------------------------------------
Pair    | 36.534     | 36.534     | 36.534     |   0.0 | 51.74
Neigh   | 32.607     | 32.607     | 32.607     |   0.0 | 46.18
Comm    | 0.55299    | 0.55299    | 0.55299    |   0.0 |  0.78
Output  | 0.00014806 | 0.00014806 | 0.00014806 |   0.0 |  0.00
Modify  | 0.72526    | 0.72526    | 0.72526    |   0.0 |  1.03
Other   |            | 0.1926     |            |       |  0.27

Nlocal:    19652 ave 19652 max 19652 min
Histogram: 1 0 0 0 0 0 0 0 0 0
Nghost:    16452 ave 16452 max 16452 min
Histogram: 1 0 0 0 0 0 0 0 0 0
Neighs:    1.1285e+06 ave 1.1285e+06 max 1.1285e+06 min
Histogram: 1 0 0 0 0 0 0 0 0 0

Total # of neighbors = 1128504
Ave neighs/atom = 57.4244
Neighbor list builds = 495
Dangerous builds not checked
Setting up Verlet run ...
  Unit style    : metal
  Current step  : 50495
  Time step     : 0.001
Per MPI rank memory allocation (min/avg/max) = 18.21 | 18.21 | 18.21 Mbytes
Step Temp Press TotEng PotEng Enthalpy 
   50495    2153.0958   -859.37465   -51912.544   -57381.603   -52147.277 
   52000    2182.6383   -248.63764   -51955.283   -57499.384   -52022.822 
Loop time of 211.347 on 1 procs for 1505 steps with 19652 atoms

Performance: 0.615 ns/day, 39.008 hours/ns, 7.121 timesteps/s
98.6% CPU use with 1 MPI tasks x no OpenMP threads

MPI task timing breakdown:
Section |  min time  |  avg time  |  max time  |%varavg| %total
---------------------------------------------------------------
Pair    | 109.44     | 109.44     | 109.44     |   0.0 | 51.78
Neigh   | 97.494     | 97.494     | 97.494     |   0.0 | 46.13
Comm    | 1.6065     | 1.6065     | 1.6065     |   0.0 |  0.76
Output  | 0.084826   | 0.084826   | 0.084826   |   0.0 |  0.04
Modify  | 2.167      | 2.167      | 2.167      |   0.0 |  1.03
Other   |            | 0.5524     |            |       |  0.26

Nlocal:    19652 ave 19652 max 19652 min
Histogram: 1 0 0 0 0 0 0 0 0 0
Nghost:    16383 ave 16383 max 16383 min
Histogram: 1 0 0 0 0 0 0 0 0 0
Neighs:    1.13421e+06 ave 1.13421e+06 max 1.13421e+06 min
Histogram: 1 0 0 0 0 0 0 0 0 0

Total # of neighbors = 1134213
Ave neighs/atom = 57.7149
Neighbor list builds = 1505
Dangerous builds not checked
Setting up Verlet run ...
  Unit style    : metal
  Current step  : 52000
  Time step     : 0.001
Per MPI rank memory allocation (min/avg/max) = 18.21 | 18.21 | 18.21 Mbytes
Step Temp Press TotEng PotEng Enthalpy 
   52000    2182.6383   -248.63764   -51955.283   -57499.384   -52022.822 
   52495    2118.9117   -12.812793   -52202.946   -57585.175   -52206.415 
Loop time of 63.9439 on 1 procs for 495 steps with 19652 atoms

Performance: 0.669 ns/day, 35.883 hours/ns, 7.741 timesteps/s
97.6% CPU use with 1 MPI tasks x no OpenMP threads

MPI task timing breakdown:
Section |  min time  |  avg time  |  max time  |%varavg| %total
---------------------------------------------------------------
Pair    | 32.83      | 32.83      | 32.83      |   0.0 | 51.34
Neigh   | 29.746     | 29.746     | 29.746     |   0.0 | 46.52
Comm    | 0.48126    | 0.48126    | 0.48126    |   0.0 |  0.75
Output  | 0.00012398 | 0.00012398 | 0.00012398 |   0.0 |  0.00
Modify  | 0.67208    | 0.67208    | 0.67208    |   0.0 |  1.05
Other   |            | 0.2142     |            |       |  0.33

Nlocal:    19652 ave 19652 max 19652 min
Histogram: 1 0 0 0 0 0 0 0 0 0
Nghost:    16464 ave 16464 max 16464 min
Histogram: 1 0 0 0 0 0 0 0 0 0
Neighs:    1.13875e+06 ave 1.13875e+06 max 1.13875e+06 min
Histogram: 1 0 0 0 0 0 0 0 0 0

Total # of neighbors = 1138751
Ave neighs/atom = 57.9458
Neighbor list builds = 495
Dangerous builds not checked
Setting up Verlet run ...
  Unit style    : metal
  Current step  : 52495
  Time step     : 0.001
Per MPI rank memory allocation (min/avg/max) = 18.21 | 18.21 | 18.21 Mbytes
Step Temp Press TotEng PotEng Enthalpy 
   52495    2118.9117   -12.812793   -52202.946   -57585.175   -52206.415 
   54000    2089.0655   -137.56884   -52298.235   -57604.652    -52335.43 
Loop time of 194.79 on 1 procs for 1505 steps with 19652 atoms

Performance: 0.668 ns/day, 35.952 hours/ns, 7.726 timesteps/s
99.7% CPU use with 1 MPI tasks x no OpenMP threads

MPI task timing breakdown:
Section |  min time  |  avg time  |  max time  |%varavg| %total
---------------------------------------------------------------
Pair    | 99.136     | 99.136     | 99.136     |   0.0 | 50.89
Neigh   | 91.516     | 91.516     | 91.516     |   0.0 | 46.98
Comm    | 1.4985     | 1.4985     | 1.4985     |   0.0 |  0.77
Output  | 0.05995    | 0.05995    | 0.05995    |   0.0 |  0.03
Modify  | 2.0512     | 2.0512     | 2.0512     |   0.0 |  1.05
Other   |            | 0.5286     |            |       |  0.27

Nlocal:    19652 ave 19652 max 19652 min
Histogram: 1 0 0 0 0 0 0 0 0 0
Nghost:    16407 ave 16407 max 16407 min
Histogram: 1 0 0 0 0 0 0 0 0 0
Neighs:    1.14019e+06 ave 1.14019e+06 max 1.14019e+06 min
Histogram: 1 0 0 0 0 0 0 0 0 0

Total # of neighbors = 1140188
Ave neighs/atom = 58.0189
Neighbor list builds = 1505
Dangerous builds not checked
Setting up Verlet run ...
  Unit style    : metal
  Current step  : 54000
  Time step     : 0.001
Per MPI rank memory allocation (min/avg/max) = 18.21 | 18.21 | 18.21 Mbytes
Step Temp Press TotEng PotEng Enthalpy 
   54000    2089.0655   -137.56884   -52298.235   -57604.652    -52335.43 
   54495    2070.9367      187.559   -52493.279   -57753.647   -52442.834 
Loop time of 69.3212 on 1 procs for 495 steps with 19652 atoms

Performance: 0.617 ns/day, 38.901 hours/ns, 7.141 timesteps/s
97.0% CPU use with 1 MPI tasks x no OpenMP threads

MPI task timing breakdown:
Section |  min time  |  avg time  |  max time  |%varavg| %total
---------------------------------------------------------------
Pair    | 35.806     | 35.806     | 35.806     |   0.0 | 51.65
Neigh   | 32.037     | 32.037     | 32.037     |   0.0 | 46.22
Comm    | 0.55048    | 0.55048    | 0.55048    |   0.0 |  0.79
Output  | 0.00015283 | 0.00015283 | 0.00015283 |   0.0 |  0.00
Modify  | 0.73545    | 0.73545    | 0.73545    |   0.0 |  1.06
Other   |            | 0.1914     |            |       |  0.28

Nlocal:    19652 ave 19652 max 19652 min
Histogram: 1 0 0 0 0 0 0 0 0 0
Nghost:    16512 ave 16512 max 16512 min
Histogram: 1 0 0 0 0 0 0 0 0 0
Neighs:    1.14604e+06 ave 1.14604e+06 max 1.14604e+06 min
Histogram: 1 0 0 0 0 0 0 0 0 0

Total # of neighbors = 1146041
Ave neighs/atom = 58.3168
Neighbor list builds = 495
Dangerous builds not checked
Setting up Verlet run ...
  Unit style    : metal
  Current step  : 54495
  Time step     : 0.001
Per MPI rank memory allocation (min/avg/max) = 18.21 | 18.21 | 18.21 Mbytes
Step Temp Press TotEng PotEng Enthalpy 
   54495    2070.9367      187.559   -52493.279   -57753.647   -52442.834 
   56000    2058.0214   -96.346317   -52529.612   -57757.174   -52555.546 
Loop time of 202.248 on 1 procs for 1505 steps with 19652 atoms

Performance: 0.643 ns/day, 37.329 hours/ns, 7.441 timesteps/s
98.8% CPU use with 1 MPI tasks x no OpenMP threads

MPI task timing breakdown:
Section |  min time  |  avg time  |  max time  |%varavg| %total
---------------------------------------------------------------
Pair    | 102.92     | 102.92     | 102.92     |   0.0 | 50.89
Neigh   | 94.915     | 94.915     | 94.915     |   0.0 | 46.93
Comm    | 1.603      | 1.603      | 1.603      |   0.0 |  0.79
Output  | 0.089675   | 0.089675   | 0.089675   |   0.0 |  0.04
Modify  | 2.141      | 2.141      | 2.141      |   0.0 |  1.06
Other   |            | 0.5744     |            |       |  0.28

Nlocal:    19652 ave 19652 max 19652 min
Histogram: 1 0 0 0 0 0 0 0 0 0
Nghost:    16486 ave 16486 max 16486 min
Histogram: 1 0 0 0 0 0 0 0 0 0
Neighs:    1.14525e+06 ave 1.14525e+06 max 1.14525e+06 min
Histogram: 1 0 0 0 0 0 0 0 0 0

Total # of neighbors = 1145249
Ave neighs/atom = 58.2765
Neighbor list builds = 1505
Dangerous builds not checked
Setting up Verlet run ...
  Unit style    : metal
  Current step  : 56000
  Time step     : 0.001
Per MPI rank memory allocation (min/avg/max) = 18.21 | 18.21 | 18.21 Mbytes
Step Temp Press TotEng PotEng Enthalpy 
   56000    2058.0214   -96.346317   -52529.612   -57757.174   -52555.546 
   56495    2019.9324    29.022387   -52754.553   -57885.366   -52746.783 
Loop time of 67.5887 on 1 procs for 495 steps with 19652 atoms

Performance: 0.633 ns/day, 37.929 hours/ns, 7.324 timesteps/s
99.4% CPU use with 1 MPI tasks x no OpenMP threads

MPI task timing breakdown:
Section |  min time  |  avg time  |  max time  |%varavg| %total
---------------------------------------------------------------
Pair    | 34.647     | 34.647     | 34.647     |   0.0 | 51.26
Neigh   | 31.499     | 31.499     | 31.499     |   0.0 | 46.60
Comm    | 0.53044    | 0.53044    | 0.53044    |   0.0 |  0.78
Output  | 0.00015998 | 0.00015998 | 0.00015998 |   0.0 |  0.00
Modify  | 0.72414    | 0.72414    | 0.72414    |   0.0 |  1.07
Other   |            | 0.1877     |            |       |  0.28

Nlocal:    19652 ave 19652 max 19652 min
Histogram: 1 0 0 0 0 0 0 0 0 0
Nghost:    16503 ave 16503 max 16503 min
Histogram: 1 0 0 0 0 0 0 0 0 0
Neighs:    1.15213e+06 ave 1.15213e+06 max 1.15213e+06 min
Histogram: 1 0 0 0 0 0 0 0 0 0

Total # of neighbors = 1152134
Ave neighs/atom = 58.6268
Neighbor list builds = 495
Dangerous builds not checked
Setting up Verlet run ...
  Unit style    : metal
  Current step  : 56495
  Time step     : 0.001
Per MPI rank memory allocation (min/avg/max) = 18.21 | 18.21 | 18.21 Mbytes
Step Temp Press TotEng PotEng Enthalpy 
   56495    2019.9324    29.022387   -52754.553   -57885.366   -52746.783 
   58000    1999.7818    453.91253   -52834.569   -57914.197   -52713.348 
Loop time of 202.723 on 1 procs for 1505 steps with 19652 atoms

Performance: 0.641 ns/day, 37.417 hours/ns, 7.424 timesteps/s
99.4% CPU use with 1 MPI tasks x no OpenMP threads

MPI task timing breakdown:
Section |  min time  |  avg time  |  max time  |%varavg| %total
---------------------------------------------------------------
Pair    | 104.05     | 104.05     | 104.05     |   0.0 | 51.33
Neigh   | 94.34      | 94.34      | 94.34      |   0.0 | 46.54
Comm    | 1.5842     | 1.5842     | 1.5842     |   0.0 |  0.78
Output  | 0.087073   | 0.087073   | 0.087073   |   0.0 |  0.04
Modify  | 2.1089     | 2.1089     | 2.1089     |   0.0 |  1.04
Other   |            | 0.5502     |            |       |  0.27

Nlocal:    19652 ave 19652 max 19652 min
Histogram: 1 0 0 0 0 0 0 0 0 0
Nghost:    16523 ave 16523 max 16523 min
Histogram: 1 0 0 0 0 0 0 0 0 0
Neighs:    1.15451e+06 ave 1.15451e+06 max 1.15451e+06 min
Histogram: 1 0 0 0 0 0 0 0 0 0

Total # of neighbors = 1154506
Ave neighs/atom = 58.7475
Neighbor list builds = 1505
Dangerous builds not checked
Setting up Verlet run ...
  Unit style    : metal
  Current step  : 58000
  Time step     : 0.001
Per MPI rank memory allocation (min/avg/max) = 18.21 | 18.21 | 18.21 Mbytes
Step Temp Press TotEng PotEng Enthalpy 
   58000    1999.7818    453.91253   -52834.569   -57914.197   -52713.348 
   58495    1977.3164   -32.009201   -53007.173   -58029.737   -53015.698 
Loop time of 66.2292 on 1 procs for 495 steps with 19652 atoms

Performance: 0.646 ns/day, 37.166 hours/ns, 7.474 timesteps/s
99.5% CPU use with 1 MPI tasks x no OpenMP threads

MPI task timing breakdown:
Section |  min time  |  avg time  |  max time  |%varavg| %total
---------------------------------------------------------------
Pair    | 33.997     | 33.997     | 33.997     |   0.0 | 51.33
Neigh   | 30.824     | 30.824     | 30.824     |   0.0 | 46.54
Comm    | 0.52003    | 0.52003    | 0.52003    |   0.0 |  0.79
Output  | 0.00012589 | 0.00012589 | 0.00012589 |   0.0 |  0.00
Modify  | 0.70305    | 0.70305    | 0.70305    |   0.0 |  1.06
Other   |            | 0.1852     |            |       |  0.28

Nlocal:    19652 ave 19652 max 19652 min
Histogram: 1 0 0 0 0 0 0 0 0 0
Nghost:    16535 ave 16535 max 16535 min
Histogram: 1 0 0 0 0 0 0 0 0 0
Neighs:    1.15865e+06 ave 1.15865e+06 max 1.15865e+06 min
Histogram: 1 0 0 0 0 0 0 0 0 0

Total # of neighbors = 1158654
Ave neighs/atom = 58.9586
Neighbor list builds = 495
Dangerous builds not checked
Setting up Verlet run ...
  Unit style    : metal
  Current step  : 58495
  Time step     : 0.001
Per MPI rank memory allocation (min/avg/max) = 18.21 | 18.21 | 18.21 Mbytes
Step Temp Press TotEng PotEng Enthalpy 
   58495    1977.3164   -32.009201   -53007.173   -58029.737   -53015.698 
   60000     1965.836    1196.5523   -53034.427    -58027.83   -52716.548 
Loop time of 203.661 on 1 procs for 1505 steps with 19652 atoms

Performance: 0.638 ns/day, 37.590 hours/ns, 7.390 timesteps/s
99.3% CPU use with 1 MPI tasks x no OpenMP threads

MPI task timing breakdown:
Section |  min time  |  avg time  |  max time  |%varavg| %total
---------------------------------------------------------------
Pair    | 104.58     | 104.58     | 104.58     |   0.0 | 51.35
Neigh   | 94.613     | 94.613     | 94.613     |   0.0 | 46.46
Comm    | 1.5881     | 1.5881     | 1.5881     |   0.0 |  0.78
Output  | 0.19196    | 0.19196    | 0.19196    |   0.0 |  0.09
Modify  | 2.1329     | 2.1329     | 2.1329     |   0.0 |  1.05
Other   |            | 0.5587     |            |       |  0.27

Nlocal:    19652 ave 19652 max 19652 min
Histogram: 1 0 0 0 0 0 0 0 0 0
Nghost:    16522 ave 16522 max 16522 min
Histogram: 1 0 0 0 0 0 0 0 0 0
Neighs:    1.16096e+06 ave 1.16096e+06 max 1.16096e+06 min
Histogram: 1 0 0 0 0 0 0 0 0 0

Total # of neighbors = 1160958
Ave neighs/atom = 59.0758
Neighbor list builds = 1505
Dangerous builds not checked
Setting up Verlet run ...
  Unit style    : metal
  Current step  : 60000
  Time step     : 0.001
Per MPI rank memory allocation (min/avg/max) = 18.21 | 18.21 | 18.21 Mbytes
Step Temp Press TotEng PotEng Enthalpy 
   60000     1965.836    1196.5523   -53034.427    -58027.83   -52716.548 
   60495    1914.6472    222.88969   -53277.771    -58141.15    -53218.71 
Loop time of 66.4018 on 1 procs for 495 steps with 19652 atoms

Performance: 0.644 ns/day, 37.263 hours/ns, 7.455 timesteps/s
99.4% CPU use with 1 MPI tasks x no OpenMP threads

MPI task timing breakdown:
Section |  min time  |  avg time  |  max time  |%varavg| %total
---------------------------------------------------------------
Pair    | 34.335     | 34.335     | 34.335     |   0.0 | 51.71
Neigh   | 30.652     | 30.652     | 30.652     |   0.0 | 46.16
Comm    | 0.52408    | 0.52408    | 0.52408    |   0.0 |  0.79
Output  | 0.00019813 | 0.00019813 | 0.00019813 |   0.0 |  0.00
Modify  | 0.70797    | 0.70797    | 0.70797    |   0.0 |  1.07
Other   |            | 0.1826     |            |       |  0.28

Nlocal:    19652 ave 19652 max 19652 min
Histogram: 1 0 0 0 0 0 0 0 0 0
Nghost:    16561 ave 16561 max 16561 min
Histogram: 1 0 0 0 0 0 0 0 0 0
Neighs:    1.16392e+06 ave 1.16392e+06 max 1.16392e+06 min
Histogram: 1 0 0 0 0 0 0 0 0 0

Total # of neighbors = 1163924
Ave neighs/atom = 59.2267
Neighbor list builds = 495
Dangerous builds not checked
Setting up Verlet run ...
  Unit style    : metal
  Current step  : 60495
  Time step     : 0.001
Per MPI rank memory allocation (min/avg/max) = 18.21 | 18.21 | 18.21 Mbytes
Step Temp Press TotEng PotEng Enthalpy 
   60495    1914.6472    222.88969   -53277.771    -58141.15    -53218.71 
   62000    1889.6353   -379.61465   -53338.701   -58138.546   -53439.311 
Loop time of 207.455 on 1 procs for 1505 steps with 19652 atoms

Performance: 0.627 ns/day, 38.290 hours/ns, 7.255 timesteps/s
99.0% CPU use with 1 MPI tasks x no OpenMP threads

MPI task timing breakdown:
Section |  min time  |  avg time  |  max time  |%varavg| %total
---------------------------------------------------------------
Pair    | 106.94     | 106.94     | 106.94     |   0.0 | 51.55
Neigh   | 95.996     | 95.996     | 95.996     |   0.0 | 46.27
Comm    | 1.6644     | 1.6644     | 1.6644     |   0.0 |  0.80
Output  | 0.077471   | 0.077471   | 0.077471   |   0.0 |  0.04
Modify  | 2.1593     | 2.1593     | 2.1593     |   0.0 |  1.04
Other   |            | 0.6191     |            |       |  0.30

Nlocal:    19652 ave 19652 max 19652 min
Histogram: 1 0 0 0 0 0 0 0 0 0
Nghost:    16578 ave 16578 max 16578 min
Histogram: 1 0 0 0 0 0 0 0 0 0
Neighs:    1.16343e+06 ave 1.16343e+06 max 1.16343e+06 min
Histogram: 1 0 0 0 0 0 0 0 0 0

Total # of neighbors = 1163434
Ave neighs/atom = 59.2018
Neighbor list builds = 1505
Dangerous builds not checked
Setting up Verlet run ...
  Unit style    : metal
  Current step  : 62000
  Time step     : 0.001
Per MPI rank memory allocation (min/avg/max) = 18.21 | 18.21 | 18.21 Mbytes
Step Temp Press TotEng PotEng Enthalpy 
   62000    1889.6353   -379.61465   -53338.701   -58138.546   -53439.311 
   62495    1853.5348    531.37512   -53530.249   -58238.396   -53390.095 
Loop time of 64.6855 on 1 procs for 495 steps with 19652 atoms

Performance: 0.661 ns/day, 36.299 hours/ns, 7.652 timesteps/s
99.7% CPU use with 1 MPI tasks x no OpenMP threads

MPI task timing breakdown:
Section |  min time  |  avg time  |  max time  |%varavg| %total
---------------------------------------------------------------
Pair    | 33.186     | 33.186     | 33.186     |   0.0 | 51.30
Neigh   | 30.092     | 30.092     | 30.092     |   0.0 | 46.52
Comm    | 0.51435    | 0.51435    | 0.51435    |   0.0 |  0.80
Output  | 0.00017595 | 0.00017595 | 0.00017595 |   0.0 |  0.00
Modify  | 0.69182    | 0.69182    | 0.69182    |   0.0 |  1.07
Other   |            | 0.2008     |            |       |  0.31

Nlocal:    19652 ave 19652 max 19652 min
Histogram: 1 0 0 0 0 0 0 0 0 0
Nghost:    16679 ave 16679 max 16679 min
Histogram: 1 0 0 0 0 0 0 0 0 0
Neighs:    1.16922e+06 ave 1.16922e+06 max 1.16922e+06 min
Histogram: 1 0 0 0 0 0 0 0 0 0

Total # of neighbors = 1169224
Ave neighs/atom = 59.4964
Neighbor list builds = 495
Dangerous builds not checked
Setting up Verlet run ...
  Unit style    : metal
  Current step  : 62495
  Time step     : 0.001
Per MPI rank memory allocation (min/avg/max) = 18.21 | 18.21 | 18.21 Mbytes
Step Temp Press TotEng PotEng Enthalpy 
   62495    1853.5348    531.37512   -53530.249   -58238.396   -53390.095 
   64000    1839.3293   -55.172532   -53587.648   -58259.712   -53602.205 
Loop time of 201.825 on 1 procs for 1505 steps with 19652 atoms

Performance: 0.644 ns/day, 37.251 hours/ns, 7.457 timesteps/s
99.1% CPU use with 1 MPI tasks x no OpenMP threads

MPI task timing breakdown:
Section |  min time  |  avg time  |  max time  |%varavg| %total
---------------------------------------------------------------
Pair    | 103.84     | 103.84     | 103.84     |   0.0 | 51.45
Neigh   | 93.607     | 93.607     | 93.607     |   0.0 | 46.38
Comm    | 1.6009     | 1.6009     | 1.6009     |   0.0 |  0.79
Output  | 0.10548    | 0.10548    | 0.10548    |   0.0 |  0.05
Modify  | 2.0862     | 2.0862     | 2.0862     |   0.0 |  1.03
Other   |            | 0.5857     |            |       |  0.29

Nlocal:    19652 ave 19652 max 19652 min
Histogram: 1 0 0 0 0 0 0 0 0 0
Nghost:    16594 ave 16594 max 16594 min
Histogram: 1 0 0 0 0 0 0 0 0 0
Neighs:    1.16856e+06 ave 1.16856e+06 max 1.16856e+06 min
Histogram: 1 0 0 0 0 0 0 0 0 0

Total # of neighbors = 1168562
Ave neighs/atom = 59.4628
Neighbor list builds = 1505
Dangerous builds not checked
Setting up Verlet run ...
  Unit style    : metal
  Current step  : 64000
  Time step     : 0.001
Per MPI rank memory allocation (min/avg/max) = 18.21 | 18.21 | 18.21 Mbytes
Step Temp Press TotEng PotEng Enthalpy 
   64000    1839.3293   -55.172532   -53587.648   -58259.712   -53602.205 
   64495    1811.5404    231.08725   -53808.697   -58410.175   -53748.057 
Loop time of 61.713 on 1 procs for 495 steps with 19652 atoms

Performance: 0.693 ns/day, 34.631 hours/ns, 8.021 timesteps/s
99.3% CPU use with 1 MPI tasks x no OpenMP threads

MPI task timing breakdown:
Section |  min time  |  avg time  |  max time  |%varavg| %total
---------------------------------------------------------------
Pair    | 31.383     | 31.383     | 31.383     |   0.0 | 50.85
Neigh   | 29.024     | 29.024     | 29.024     |   0.0 | 47.03
Comm    | 0.47788    | 0.47788    | 0.47788    |   0.0 |  0.77
Output  | 0.0001421  | 0.0001421  | 0.0001421  |   0.0 |  0.00
Modify  | 0.65389    | 0.65389    | 0.65389    |   0.0 |  1.06
Other   |            | 0.1746     |            |       |  0.28

Nlocal:    19652 ave 19652 max 19652 min
Histogram: 1 0 0 0 0 0 0 0 0 0
Nghost:    16567 ave 16567 max 16567 min
Histogram: 1 0 0 0 0 0 0 0 0 0
Neighs:    1.17568e+06 ave 1.17568e+06 max 1.17568e+06 min
Histogram: 1 0 0 0 0 0 0 0 0 0

Total # of neighbors = 1175679
Ave neighs/atom = 59.8249
Neighbor list builds = 495
Dangerous builds not checked
Setting up Verlet run ...
  Unit style    : metal
  Current step  : 64495
  Time step     : 0.001
Per MPI rank memory allocation (min/avg/max) = 18.21 | 18.21 | 18.21 Mbytes
Step Temp Press TotEng PotEng Enthalpy 
   64495    1811.5404    231.08725   -53808.697   -58410.175   -53748.057 
   66000    1807.1708   -277.24703   -53859.618   -58449.996   -53932.347 
Loop time of 199.106 on 1 procs for 1505 steps with 19652 atoms

Performance: 0.653 ns/day, 36.749 hours/ns, 7.559 timesteps/s
99.4% CPU use with 1 MPI tasks x no OpenMP threads

MPI task timing breakdown:
Section |  min time  |  avg time  |  max time  |%varavg| %total
---------------------------------------------------------------
Pair    | 102.34     | 102.34     | 102.34     |   0.0 | 51.40
Neigh   | 92.493     | 92.493     | 92.493     |   0.0 | 46.45
Comm    | 1.5465     | 1.5465     | 1.5465     |   0.0 |  0.78
Output  | 0.085136   | 0.085136   | 0.085136   |   0.0 |  0.04
Modify  | 2.0801     | 2.0801     | 2.0801     |   0.0 |  1.04
Other   |            | 0.5603     |            |       |  0.28

Nlocal:    19652 ave 19652 max 19652 min
Histogram: 1 0 0 0 0 0 0 0 0 0
Nghost:    16619 ave 16619 max 16619 min
Histogram: 1 0 0 0 0 0 0 0 0 0
Neighs:    1.1763e+06 ave 1.1763e+06 max 1.1763e+06 min
Histogram: 1 0 0 0 0 0 0 0 0 0

Total # of neighbors = 1176305
Ave neighs/atom = 59.8568
Neighbor list builds = 1505
Dangerous builds not checked
Setting up Verlet run ...
  Unit style    : metal
  Current step  : 66000
  Time step     : 0.001
Per MPI rank memory allocation (min/avg/max) = 18.21 | 18.21 | 18.21 Mbytes
Step Temp Press TotEng PotEng Enthalpy 
   66000    1807.1708   -277.24703   -53859.618   -58449.996   -53932.347 
   66495     1761.278    152.41923   -54068.806   -58542.613    -54029.02 
Loop time of 67.8828 on 1 procs for 495 steps with 19652 atoms

Performance: 0.630 ns/day, 38.094 hours/ns, 7.292 timesteps/s
99.8% CPU use with 1 MPI tasks x no OpenMP threads

MPI task timing breakdown:
Section |  min time  |  avg time  |  max time  |%varavg| %total
---------------------------------------------------------------
Pair    | 34.847     | 34.847     | 34.847     |   0.0 | 51.33
Neigh   | 31.543     | 31.543     | 31.543     |   0.0 | 46.47
Comm    | 0.54386    | 0.54386    | 0.54386    |   0.0 |  0.80
Output  | 0.00016284 | 0.00016284 | 0.00016284 |   0.0 |  0.00
Modify  | 0.75308    | 0.75308    | 0.75308    |   0.0 |  1.11
Other   |            | 0.1961     |            |       |  0.29

Nlocal:    19652 ave 19652 max 19652 min
Histogram: 1 0 0 0 0 0 0 0 0 0
Nghost:    16697 ave 16697 max 16697 min
Histogram: 1 0 0 0 0 0 0 0 0 0
Neighs:    1.18199e+06 ave 1.18199e+06 max 1.18199e+06 min
Histogram: 1 0 0 0 0 0 0 0 0 0

Total # of neighbors = 1181994
Ave neighs/atom = 60.1462
Neighbor list builds = 495
Dangerous builds not checked
Setting up Verlet run ...
  Unit style    : metal
  Current step  : 66495
  Time step     : 0.001
Per MPI rank memory allocation (min/avg/max) = 18.21 | 18.21 | 18.21 Mbytes
Step Temp Press TotEng PotEng Enthalpy 
   66495     1761.278    152.41923   -54068.806   -58542.613    -54029.02 
   68000    1760.1286   -145.19182   -54143.283    -58614.17   -54181.139 
Loop time of 190.385 on 1 procs for 1505 steps with 19652 atoms

Performance: 0.683 ns/day, 35.139 hours/ns, 7.905 timesteps/s
99.5% CPU use with 1 MPI tasks x no OpenMP threads

MPI task timing breakdown:
Section |  min time  |  avg time  |  max time  |%varavg| %total
---------------------------------------------------------------
Pair    | 97.318     | 97.318     | 97.318     |   0.0 | 51.12
Neigh   | 88.958     | 88.958     | 88.958     |   0.0 | 46.73
Comm    | 1.5067     | 1.5067     | 1.5067     |   0.0 |  0.79
Output  | 0.06062    | 0.06062    | 0.06062    |   0.0 |  0.03
Modify  | 2.0004     | 2.0004     | 2.0004     |   0.0 |  1.05
Other   |            | 0.5403     |            |       |  0.28

Nlocal:    19652 ave 19652 max 19652 min
Histogram: 1 0 0 0 0 0 0 0 0 0
Nghost:    16676 ave 16676 max 16676 min
Histogram: 1 0 0 0 0 0 0 0 0 0
Neighs:    1.18309e+06 ave 1.18309e+06 max 1.18309e+06 min
Histogram: 1 0 0 0 0 0 0 0 0 0

Total # of neighbors = 1183087
Ave neighs/atom = 60.2019
Neighbor list builds = 1505
Dangerous builds not checked
Setting up Verlet run ...
  Unit style    : metal
  Current step  : 68000
  Time step     : 0.001
Per MPI rank memory allocation (min/avg/max) = 18.21 | 18.21 | 18.21 Mbytes
Step Temp Press TotEng PotEng Enthalpy 
   68000    1760.1286   -145.19182   -54143.283    -58614.17   -54181.139 
   68495    1711.0215   -551.05809   -54369.309    -58715.46   -54512.508 
Loop time of 63.487 on 1 procs for 495 steps with 19652 atoms

Performance: 0.674 ns/day, 35.627 hours/ns, 7.797 timesteps/s
97.6% CPU use with 1 MPI tasks x no OpenMP threads

MPI task timing breakdown:
Section |  min time  |  avg time  |  max time  |%varavg| %total
---------------------------------------------------------------
Pair    | 32.551     | 32.551     | 32.551     |   0.0 | 51.27
Neigh   | 29.597     | 29.597     | 29.597     |   0.0 | 46.62
Comm    | 0.48562    | 0.48562    | 0.48562    |   0.0 |  0.76
Output  | 0.00014782 | 0.00014782 | 0.00014782 |   0.0 |  0.00
Modify  | 0.66799    | 0.66799    | 0.66799    |   0.0 |  1.05
Other   |            | 0.1858     |            |       |  0.29

Nlocal:    19652 ave 19652 max 19652 min
Histogram: 1 0 0 0 0 0 0 0 0 0
Nghost:    16717 ave 16717 max 16717 min
Histogram: 1 0 0 0 0 0 0 0 0 0
Neighs:    1.18785e+06 ave 1.18785e+06 max 1.18785e+06 min
Histogram: 1 0 0 0 0 0 0 0 0 0

Total # of neighbors = 1187851
Ave neighs/atom = 60.4443
Neighbor list builds = 495
Dangerous builds not checked
Setting up Verlet run ...
  Unit style    : metal
  Current step  : 68495
  Time step     : 0.001
Per MPI rank memory allocation (min/avg/max) = 18.21 | 18.21 | 18.21 Mbytes
Step Temp Press TotEng PotEng Enthalpy 
   68495    1711.0215   -551.05809   -54369.309    -58715.46   -54512.508 
   70000    1690.7151    495.29494   -54521.483   -58816.054   -54393.524 
Loop time of 205.081 on 1 procs for 1505 steps with 19652 atoms

Performance: 0.634 ns/day, 37.852 hours/ns, 7.339 timesteps/s
98.9% CPU use with 1 MPI tasks x no OpenMP threads

MPI task timing breakdown:
Section |  min time  |  avg time  |  max time  |%varavg| %total
---------------------------------------------------------------
Pair    | 106.43     | 106.43     | 106.43     |   0.0 | 51.90
Neigh   | 94.211     | 94.211     | 94.211     |   0.0 | 45.94
Comm    | 1.6195     | 1.6195     | 1.6195     |   0.0 |  0.79
Output  | 0.078905   | 0.078905   | 0.078905   |   0.0 |  0.04
Modify  | 2.155      | 2.155      | 2.155      |   0.0 |  1.05
Other   |            | 0.5873     |            |       |  0.29

Nlocal:    19652 ave 19652 max 19652 min
Histogram: 1 0 0 0 0 0 0 0 0 0
Nghost:    16836 ave 16836 max 16836 min
Histogram: 1 0 0 0 0 0 0 0 0 0
Neighs:    1.19423e+06 ave 1.19423e+06 max 1.19423e+06 min
Histogram: 1 0 0 0 0 0 0 0 0 0

Total # of neighbors = 1194232
Ave neighs/atom = 60.769
Neighbor list builds = 1505
Dangerous builds not checked
Setting up Verlet run ...
  Unit style    : metal
  Current step  : 70000
  Time step     : 0.001
Per MPI rank memory allocation (min/avg/max) = 18.21 | 18.21 | 18.21 Mbytes
Step Temp Press TotEng PotEng Enthalpy 
   70000    1690.7151    495.29494   -54521.483   -58816.054   -54393.524 
   70495    1670.3686     237.8225   -54604.285   -58847.173   -54542.852 
Loop time of 67.5133 on 1 procs for 495 steps with 19652 atoms

Performance: 0.633 ns/day, 37.886 hours/ns, 7.332 timesteps/s
99.2% CPU use with 1 MPI tasks x no OpenMP threads

MPI task timing breakdown:
Section |  min time  |  avg time  |  max time  |%varavg| %total
---------------------------------------------------------------
Pair    | 34.791     | 34.791     | 34.791     |   0.0 | 51.53
Neigh   | 31.259     | 31.259     | 31.259     |   0.0 | 46.30
Comm    | 0.53628    | 0.53628    | 0.53628    |   0.0 |  0.79
Output  | 0.00016809 | 0.00016809 | 0.00016809 |   0.0 |  0.00
Modify  | 0.72208    | 0.72208    | 0.72208    |   0.0 |  1.07
Other   |            | 0.205      |            |       |  0.30

Nlocal:    19652 ave 19652 max 19652 min
Histogram: 1 0 0 0 0 0 0 0 0 0
Nghost:    16761 ave 16761 max 16761 min
Histogram: 1 0 0 0 0 0 0 0 0 0
Neighs:    1.19448e+06 ave 1.19448e+06 max 1.19448e+06 min
Histogram: 1 0 0 0 0 0 0 0 0 0

Total # of neighbors = 1194480
Ave neighs/atom = 60.7816
Neighbor list builds = 495
Dangerous builds not checked
Setting up Verlet run ...
  Unit style    : metal
  Current step  : 70495
  Time step     : 0.001
Per MPI rank memory allocation (min/avg/max) = 18.21 | 18.21 | 18.21 Mbytes
Step Temp Press TotEng PotEng Enthalpy 
   70495    1670.3686     237.8225   -54604.285   -58847.173   -54542.852 
   72000    1651.6983   -496.38272   -54671.701   -58867.165   -54799.916 
Loop time of 202.663 on 1 procs for 1505 steps with 19652 atoms

Performance: 0.642 ns/day, 37.406 hours/ns, 7.426 timesteps/s
99.8% CPU use with 1 MPI tasks x no OpenMP threads

MPI task timing breakdown:
Section |  min time  |  avg time  |  max time  |%varavg| %total
---------------------------------------------------------------
Pair    | 104.39     | 104.39     | 104.39     |   0.0 | 51.51
Neigh   | 93.845     | 93.845     | 93.845     |   0.0 | 46.31
Comm    | 1.5993     | 1.5993     | 1.5993     |   0.0 |  0.79
Output  | 0.063078   | 0.063078   | 0.063078   |   0.0 |  0.03
Modify  | 2.1465     | 2.1465     | 2.1465     |   0.0 |  1.06
Other   |            | 0.6173     |            |       |  0.30

Nlocal:    19652 ave 19652 max 19652 min
Histogram: 1 0 0 0 0 0 0 0 0 0
Nghost:    16831 ave 16831 max 16831 min
Histogram: 1 0 0 0 0 0 0 0 0 0
Neighs:    1.19542e+06 ave 1.19542e+06 max 1.19542e+06 min
Histogram: 1 0 0 0 0 0 0 0 0 0

Total # of neighbors = 1195425
Ave neighs/atom = 60.8297
Neighbor list builds = 1505
Dangerous builds not checked
Setting up Verlet run ...
  Unit style    : metal
  Current step  : 72000
  Time step     : 0.001
Per MPI rank memory allocation (min/avg/max) = 18.21 | 18.21 | 18.21 Mbytes
Step Temp Press TotEng PotEng Enthalpy 
   72000    1651.6983   -496.38272   -54671.701   -58867.165   -54799.916 
   72495    1606.6197    756.99705   -54905.538   -58986.498   -54711.364 
Loop time of 60.4005 on 1 procs for 495 steps with 19652 atoms

Performance: 0.708 ns/day, 33.895 hours/ns, 8.195 timesteps/s
100.0% CPU use with 1 MPI tasks x no OpenMP threads

MPI task timing breakdown:
Section |  min time  |  avg time  |  max time  |%varavg| %total
---------------------------------------------------------------
Pair    | 30.905     | 30.905     | 30.905     |   0.0 | 51.17
Neigh   | 28.196     | 28.196     | 28.196     |   0.0 | 46.68
Comm    | 0.47195    | 0.47195    | 0.47195    |   0.0 |  0.78
Output  | 0.00017715 | 0.00017715 | 0.00017715 |   0.0 |  0.00
Modify  | 0.64104    | 0.64104    | 0.64104    |   0.0 |  1.06
Other   |            | 0.1866     |            |       |  0.31

Nlocal:    19652 ave 19652 max 19652 min
Histogram: 1 0 0 0 0 0 0 0 0 0
Nghost:    16798 ave 16798 max 16798 min
Histogram: 1 0 0 0 0 0 0 0 0 0
Neighs:    1.20392e+06 ave 1.20392e+06 max 1.20392e+06 min
Histogram: 1 0 0 0 0 0 0 0 0 0

Total # of neighbors = 1203920
Ave neighs/atom = 61.262
Neighbor list builds = 495
Dangerous builds not checked
Setting up Verlet run ...
  Unit style    : metal
  Current step  : 72495
  Time step     : 0.001
Per MPI rank memory allocation (min/avg/max) = 18.21 | 18.21 | 18.21 Mbytes
Step Temp Press TotEng PotEng Enthalpy 
   72495    1606.6197    756.99705   -54905.538   -58986.498   -54711.364 
   74000    1596.3803   -672.45311   -54999.813   -59054.764   -55172.396 
Loop time of 201.104 on 1 procs for 1505 steps with 19652 atoms

Performance: 0.647 ns/day, 37.118 hours/ns, 7.484 timesteps/s
98.7% CPU use with 1 MPI tasks x no OpenMP threads

MPI task timing breakdown:
Section |  min time  |  avg time  |  max time  |%varavg| %total
---------------------------------------------------------------
Pair    | 103.4      | 103.4      | 103.4      |   0.0 | 51.41
Neigh   | 93.279     | 93.279     | 93.279     |   0.0 | 46.38
Comm    | 1.5752     | 1.5752     | 1.5752     |   0.0 |  0.78
Output  | 0.08541    | 0.08541    | 0.08541    |   0.0 |  0.04
Modify  | 2.1397     | 2.1397     | 2.1397     |   0.0 |  1.06
Other   |            | 0.629      |            |       |  0.31

Nlocal:    19652 ave 19652 max 19652 min
Histogram: 1 0 0 0 0 0 0 0 0 0
Nghost:    16793 ave 16793 max 16793 min
Histogram: 1 0 0 0 0 0 0 0 0 0
Neighs:    1.20305e+06 ave 1.20305e+06 max 1.20305e+06 min
Histogram: 1 0 0 0 0 0 0 0 0 0

Total # of neighbors = 1203049
Ave neighs/atom = 61.2176
Neighbor list builds = 1505
Dangerous builds not checked
Setting up Verlet run ...
  Unit style    : metal
  Current step  : 74000
  Time step     : 0.001
Per MPI rank memory allocation (min/avg/max) = 18.21 | 18.21 | 18.21 Mbytes
Step Temp Press TotEng PotEng Enthalpy 
   74000    1596.3803   -672.45311   -54999.813   -59054.764   -55172.396 
   74495    1559.4292   -41.011104   -55205.252   -59166.344    -55215.72 
Loop time of 65.1472 on 1 procs for 495 steps with 19652 atoms

Performance: 0.656 ns/day, 36.558 hours/ns, 7.598 timesteps/s
99.4% CPU use with 1 MPI tasks x no OpenMP threads

MPI task timing breakdown:
Section |  min time  |  avg time  |  max time  |%varavg| %total
---------------------------------------------------------------
Pair    | 33.575     | 33.575     | 33.575     |   0.0 | 51.54
Neigh   | 30.154     | 30.154     | 30.154     |   0.0 | 46.29
Comm    | 0.50977    | 0.50977    | 0.50977    |   0.0 |  0.78
Output  | 0.0001812  | 0.0001812  | 0.0001812  |   0.0 |  0.00
Modify  | 0.71379    | 0.71379    | 0.71379    |   0.0 |  1.10
Other   |            | 0.1945     |            |       |  0.30

Nlocal:    19652 ave 19652 max 19652 min
Histogram: 1 0 0 0 0 0 0 0 0 0
Nghost:    16834 ave 16834 max 16834 min
Histogram: 1 0 0 0 0 0 0 0 0 0
Neighs:    1.20944e+06 ave 1.20944e+06 max 1.20944e+06 min
Histogram: 1 0 0 0 0 0 0 0 0 0

Total # of neighbors = 1209442
Ave neighs/atom = 61.5429
Neighbor list builds = 495
Dangerous builds not checked
Setting up Verlet run ...
  Unit style    : metal
  Current step  : 74495
  Time step     : 0.001
Per MPI rank memory allocation (min/avg/max) = 18.21 | 18.21 | 18.21 Mbytes
Step Temp Press TotEng PotEng Enthalpy 
   74495    1559.4292   -41.011104   -55205.252   -59166.344    -55215.72 
   76000    1556.6728    532.26111   -55322.945   -59277.035   -55187.727 
Loop time of 199.28 on 1 procs for 1505 steps with 19652 atoms

Performance: 0.653 ns/day, 36.781 hours/ns, 7.552 timesteps/s
99.0% CPU use with 1 MPI tasks x no OpenMP threads

MPI task timing breakdown:
Section |  min time  |  avg time  |  max time  |%varavg| %total
---------------------------------------------------------------
Pair    | 103.45     | 103.45     | 103.45     |   0.0 | 51.91
Neigh   | 91.609     | 91.609     | 91.609     |   0.0 | 45.97
Comm    | 1.5484     | 1.5484     | 1.5484     |   0.0 |  0.78
Output  | 0.058651   | 0.058651   | 0.058651   |   0.0 |  0.03
Modify  | 2.0728     | 2.0728     | 2.0728     |   0.0 |  1.04
Other   |            | 0.5374     |            |       |  0.27

Nlocal:    19652 ave 19652 max 19652 min
Histogram: 1 0 0 0 0 0 0 0 0 0
Nghost:    16882 ave 16882 max 16882 min
Histogram: 1 0 0 0 0 0 0 0 0 0
Neighs:    1.21592e+06 ave 1.21592e+06 max 1.21592e+06 min
Histogram: 1 0 0 0 0 0 0 0 0 0

Total # of neighbors = 1215921
Ave neighs/atom = 61.8726
Neighbor list builds = 1505
Dangerous builds not checked
Setting up Verlet run ...
  Unit style    : metal
  Current step  : 76000
  Time step     : 0.001
Per MPI rank memory allocation (min/avg/max) = 18.21 | 18.21 | 18.21 Mbytes
Step Temp Press TotEng PotEng Enthalpy 
   76000    1556.6728    532.26111   -55322.945   -59277.035   -55187.727 
   76495     1515.129    493.42435   -55472.971   -59321.536   -55347.855 
Loop time of 58.1689 on 1 procs for 495 steps with 19652 atoms

Performance: 0.735 ns/day, 32.642 hours/ns, 8.510 timesteps/s
99.9% CPU use with 1 MPI tasks x no OpenMP threads

MPI task timing breakdown:
Section |  min time  |  avg time  |  max time  |%varavg| %total
---------------------------------------------------------------
Pair    | 29.889     | 29.889     | 29.889     |   0.0 | 51.38
Neigh   | 27.084     | 27.084     | 27.084     |   0.0 | 46.56
Comm    | 0.44324    | 0.44324    | 0.44324    |   0.0 |  0.76
Output  | 0.00016403 | 0.00016403 | 0.00016403 |   0.0 |  0.00
Modify  | 0.59643    | 0.59643    | 0.59643    |   0.0 |  1.03
Other   |            | 0.1566     |            |       |  0.27

Nlocal:    19652 ave 19652 max 19652 min
Histogram: 1 0 0 0 0 0 0 0 0 0
Nghost:    16966 ave 16966 max 16966 min
Histogram: 1 0 0 0 0 0 0 0 0 0
Neighs:    1.21881e+06 ave 1.21881e+06 max 1.21881e+06 min
Histogram: 1 0 0 0 0 0 0 0 0 0

Total # of neighbors = 1218810
Ave neighs/atom = 62.0196
Neighbor list builds = 495
Dangerous builds not checked
Setting up Verlet run ...
  Unit style    : metal
  Current step  : 76495
  Time step     : 0.001
Per MPI rank memory allocation (min/avg/max) = 18.21 | 18.21 | 18.21 Mbytes
Step Temp Press TotEng PotEng Enthalpy 
   76495     1515.129    493.42435   -55472.971   -59321.536   -55347.855 
   78000    1504.8181    25.089614    -55608.68   -59431.055   -55602.331 
Loop time of 213.822 on 1 procs for 1505 steps with 19652 atoms

Performance: 0.608 ns/day, 39.465 hours/ns, 7.039 timesteps/s
98.1% CPU use with 1 MPI tasks x no OpenMP threads

MPI task timing breakdown:
Section |  min time  |  avg time  |  max time  |%varavg| %total
---------------------------------------------------------------
Pair    | 112.44     | 112.44     | 112.44     |   0.0 | 52.58
Neigh   | 96.906     | 96.906     | 96.906     |   0.0 | 45.32
Comm    | 1.6472     | 1.6472     | 1.6472     |   0.0 |  0.77
Output  | 0.085205   | 0.085205   | 0.085205   |   0.0 |  0.04
Modify  | 2.1771     | 2.1771     | 2.1771     |   0.0 |  1.02
Other   |            | 0.5704     |            |       |  0.27

Nlocal:    19652 ave 19652 max 19652 min
Histogram: 1 0 0 0 0 0 0 0 0 0
Nghost:    16953 ave 16953 max 16953 min
Histogram: 1 0 0 0 0 0 0 0 0 0
Neighs:    1.22076e+06 ave 1.22076e+06 max 1.22076e+06 min
Histogram: 1 0 0 0 0 0 0 0 0 0

Total # of neighbors = 1220759
Ave neighs/atom = 62.1188
Neighbor list builds = 1505
Dangerous builds not checked
Setting up Verlet run ...
  Unit style    : metal
  Current step  : 78000
  Time step     : 0.001
Per MPI rank memory allocation (min/avg/max) = 18.21 | 18.21 | 18.21 Mbytes
Step Temp Press TotEng PotEng Enthalpy 
   78000    1504.8181    25.089614    -55608.68   -59431.055   -55602.331 
   78495    1458.1238   -52.797107   -55722.248   -59426.015    -55735.59 
Loop time of 66.8504 on 1 procs for 495 steps with 19652 atoms

Performance: 0.640 ns/day, 37.514 hours/ns, 7.405 timesteps/s
98.5% CPU use with 1 MPI tasks x no OpenMP threads

MPI task timing breakdown:
Section |  min time  |  avg time  |  max time  |%varavg| %total
---------------------------------------------------------------
Pair    | 34.927     | 34.927     | 34.927     |   0.0 | 52.25
Neigh   | 30.519     | 30.519     | 30.519     |   0.0 | 45.65
Comm    | 0.51866    | 0.51866    | 0.51866    |   0.0 |  0.78
Output  | 0.00016189 | 0.00016189 | 0.00016189 |   0.0 |  0.00
Modify  | 0.69485    | 0.69485    | 0.69485    |   0.0 |  1.04
Other   |            | 0.1903     |            |       |  0.28

Nlocal:    19652 ave 19652 max 19652 min
Histogram: 1 0 0 0 0 0 0 0 0 0
Nghost:    16856 ave 16856 max 16856 min
Histogram: 1 0 0 0 0 0 0 0 0 0
Neighs:    1.22266e+06 ave 1.22266e+06 max 1.22266e+06 min
Histogram: 1 0 0 0 0 0 0 0 0 0

Total # of neighbors = 1222656
Ave neighs/atom = 62.2153
Neighbor list builds = 495
Dangerous builds not checked
Setting up Verlet run ...
  Unit style    : metal
  Current step  : 78495
  Time step     : 0.001
Per MPI rank memory allocation (min/avg/max) = 18.21 | 18.21 | 18.21 Mbytes
Step Temp Press TotEng PotEng Enthalpy 
   78495    1458.1238   -52.797107   -55722.248   -59426.015    -55735.59 
   80000    1455.2524   -968.69518   -55781.253   -59477.727   -56026.019 
Loop time of 196.681 on 1 procs for 1505 steps with 19652 atoms

Performance: 0.661 ns/day, 36.301 hours/ns, 7.652 timesteps/s
99.3% CPU use with 1 MPI tasks x no OpenMP threads

MPI task timing breakdown:
Section |  min time  |  avg time  |  max time  |%varavg| %total
---------------------------------------------------------------
Pair    | 102.17     | 102.17     | 102.17     |   0.0 | 51.95
Neigh   | 90.368     | 90.368     | 90.368     |   0.0 | 45.95
Comm    | 1.5121     | 1.5121     | 1.5121     |   0.0 |  0.77
Output  | 0.077277   | 0.077277   | 0.077277   |   0.0 |  0.04
Modify  | 2.015      | 2.015      | 2.015      |   0.0 |  1.02
Other   |            | 0.5343     |            |       |  0.27

Nlocal:    19652 ave 19652 max 19652 min
Histogram: 1 0 0 0 0 0 0 0 0 0
Nghost:    16858 ave 16858 max 16858 min
Histogram: 1 0 0 0 0 0 0 0 0 0
Neighs:    1.22332e+06 ave 1.22332e+06 max 1.22332e+06 min
Histogram: 1 0 0 0 0 0 0 0 0 0

Total # of neighbors = 1223325
Ave neighs/atom = 62.2494
Neighbor list builds = 1505
Dangerous builds not checked
Setting up Verlet run ...
  Unit style    : metal
  Current step  : 80000
  Time step     : 0.001
Per MPI rank memory allocation (min/avg/max) = 18.21 | 18.21 | 18.21 Mbytes
Step Temp Press TotEng PotEng Enthalpy 
   80000    1455.2524   -968.69518   -55781.253   -59477.727   -56026.019 
   80495    1421.7317   -547.51984   -56016.726   -59628.054   -56154.244 
Loop time of 68.6206 on 1 procs for 495 steps with 19652 atoms

Performance: 0.623 ns/day, 38.508 hours/ns, 7.214 timesteps/s
98.4% CPU use with 1 MPI tasks x no OpenMP threads

MPI task timing breakdown:
Section |  min time  |  avg time  |  max time  |%varavg| %total
---------------------------------------------------------------
Pair    | 35.668     | 35.668     | 35.668     |   0.0 | 51.98
Neigh   | 31.496     | 31.496     | 31.496     |   0.0 | 45.90
Comm    | 0.52083    | 0.52083    | 0.52083    |   0.0 |  0.76
Output  | 0.00013685 | 0.00013685 | 0.00013685 |   0.0 |  0.00
Modify  | 0.74643    | 0.74643    | 0.74643    |   0.0 |  1.09
Other   |            | 0.1894     |            |       |  0.28

Nlocal:    19652 ave 19652 max 19652 min
Histogram: 1 0 0 0 0 0 0 0 0 0
Nghost:    16909 ave 16909 max 16909 min
Histogram: 1 0 0 0 0 0 0 0 0 0
Neighs:    1.23056e+06 ave 1.23056e+06 max 1.23056e+06 min
Histogram: 1 0 0 0 0 0 0 0 0 0

Total # of neighbors = 1230565
Ave neighs/atom = 62.6178
Neighbor list builds = 495
Dangerous builds not checked
Setting up Verlet run ...
  Unit style    : metal
  Current step  : 80495
  Time step     : 0.001
Per MPI rank memory allocation (min/avg/max) = 18.21 | 18.21 | 18.21 Mbytes
Step Temp Press TotEng PotEng Enthalpy 
   80495    1421.7317   -547.51984   -56016.726   -59628.054   -56154.244 
   82000    1403.1387    155.10208   -56085.351   -59649.452   -56046.479 
Loop time of 197.418 on 1 procs for 1505 steps with 19652 atoms

Performance: 0.659 ns/day, 36.437 hours/ns, 7.623 timesteps/s
98.5% CPU use with 1 MPI tasks x no OpenMP threads

MPI task timing breakdown:
Section |  min time  |  avg time  |  max time  |%varavg| %total
---------------------------------------------------------------
Pair    | 102.87     | 102.87     | 102.87     |   0.0 | 52.11
Neigh   | 90.319     | 90.319     | 90.319     |   0.0 | 45.75
Comm    | 1.5346     | 1.5346     | 1.5346     |   0.0 |  0.78
Output  | 0.077281   | 0.077281   | 0.077281   |   0.0 |  0.04
Modify  | 2.0425     | 2.0425     | 2.0425     |   0.0 |  1.03
Other   |            | 0.575      |            |       |  0.29

Nlocal:    19652 ave 19652 max 19652 min
Histogram: 1 0 0 0 0 0 0 0 0 0
Nghost:    17053 ave 17053 max 17053 min
Histogram: 1 0 0 0 0 0 0 0 0 0
Neighs:    1.23317e+06 ave 1.23317e+06 max 1.23317e+06 min
Histogram: 1 0 0 0 0 0 0 0 0 0

Total # of neighbors = 1233173
Ave neighs/atom = 62.7505
Neighbor list builds = 1505
Dangerous builds not checked
Setting up Verlet run ...
  Unit style    : metal
  Current step  : 82000
  Time step     : 0.001
Per MPI rank memory allocation (min/avg/max) = 18.21 | 18.21 | 18.21 Mbytes
Step Temp Press TotEng PotEng Enthalpy 
   82000    1403.1387    155.10208   -56085.351   -59649.452   -56046.479 
   82495    1364.1685    194.85603   -56295.549   -59760.662   -56246.928 
Loop time of 65.4146 on 1 procs for 495 steps with 19652 atoms

Performance: 0.654 ns/day, 36.709 hours/ns, 7.567 timesteps/s
99.6% CPU use with 1 MPI tasks x no OpenMP threads

MPI task timing breakdown:
Section |  min time  |  avg time  |  max time  |%varavg| %total
---------------------------------------------------------------
Pair    | 34.234     | 34.234     | 34.234     |   0.0 | 52.33
Neigh   | 29.764     | 29.764     | 29.764     |   0.0 | 45.50
Comm    | 0.52182    | 0.52182    | 0.52182    |   0.0 |  0.80
Output  | 0.00014997 | 0.00014997 | 0.00014997 |   0.0 |  0.00
Modify  | 0.69341    | 0.69341    | 0.69341    |   0.0 |  1.06
Other   |            | 0.2005     |            |       |  0.31

Nlocal:    19652 ave 19652 max 19652 min
Histogram: 1 0 0 0 0 0 0 0 0 0
Nghost:    16957 ave 16957 max 16957 min
Histogram: 1 0 0 0 0 0 0 0 0 0
Neighs:    1.23827e+06 ave 1.23827e+06 max 1.23827e+06 min
Histogram: 1 0 0 0 0 0 0 0 0 0

Total # of neighbors = 1238269
Ave neighs/atom = 63.0098
Neighbor list builds = 495
Dangerous builds not checked
Setting up Verlet run ...
  Unit style    : metal
  Current step  : 82495
  Time step     : 0.001
Per MPI rank memory allocation (min/avg/max) = 18.21 | 18.21 | 18.21 Mbytes
Step Temp Press TotEng PotEng Enthalpy 
   82495    1364.1685    194.85603   -56295.549   -59760.662   -56246.928 
   84000    1343.9377   -315.19326   -56418.625    -59832.35    -56497.11 
Loop time of 204.966 on 1 procs for 1505 steps with 19652 atoms

Performance: 0.634 ns/day, 37.831 hours/ns, 7.343 timesteps/s
99.0% CPU use with 1 MPI tasks x no OpenMP threads

MPI task timing breakdown:
Section |  min time  |  avg time  |  max time  |%varavg| %total
---------------------------------------------------------------
Pair    | 107.45     | 107.45     | 107.45     |   0.0 | 52.42
Neigh   | 93.115     | 93.115     | 93.115     |   0.0 | 45.43
Comm    | 1.592      | 1.592      | 1.592      |   0.0 |  0.78
Output  | 0.06084    | 0.06084    | 0.06084    |   0.0 |  0.03
Modify  | 2.1435     | 2.1435     | 2.1435     |   0.0 |  1.05
Other   |            | 0.6058     |            |       |  0.30

Nlocal:    19652 ave 19652 max 19652 min
Histogram: 1 0 0 0 0 0 0 0 0 0
Nghost:    16941 ave 16941 max 16941 min
Histogram: 1 0 0 0 0 0 0 0 0 0
Neighs:    1.24156e+06 ave 1.24156e+06 max 1.24156e+06 min
Histogram: 1 0 0 0 0 0 0 0 0 0

Total # of neighbors = 1241558
Ave neighs/atom = 63.1772
Neighbor list builds = 1505
Dangerous builds not checked
Setting up Verlet run ...
  Unit style    : metal
  Current step  : 84000
  Time step     : 0.001
Per MPI rank memory allocation (min/avg/max) = 18.21 | 18.21 | 18.21 Mbytes
Step Temp Press TotEng PotEng Enthalpy 
   84000    1343.9377   -315.19326   -56418.625    -59832.35    -56497.11 
   84495    1319.1801   -795.32721   -56603.123   -59953.961   -56800.594 
Loop time of 58.1856 on 1 procs for 495 steps with 19652 atoms

Performance: 0.735 ns/day, 32.652 hours/ns, 8.507 timesteps/s
99.8% CPU use with 1 MPI tasks x no OpenMP threads

MPI task timing breakdown:
Section |  min time  |  avg time  |  max time  |%varavg| %total
---------------------------------------------------------------
Pair    | 30.112     | 30.112     | 30.112     |   0.0 | 51.75
Neigh   | 26.838     | 26.838     | 26.838     |   0.0 | 46.13
Comm    | 0.45522    | 0.45522    | 0.45522    |   0.0 |  0.78
Output  | 0.00013804 | 0.00013804 | 0.00013804 |   0.0 |  0.00
Modify  | 0.60108    | 0.60108    | 0.60108    |   0.0 |  1.03
Other   |            | 0.1783     |            |       |  0.31

Nlocal:    19652 ave 19652 max 19652 min
Histogram: 1 0 0 0 0 0 0 0 0 0
Nghost:    17032 ave 17032 max 17032 min
Histogram: 1 0 0 0 0 0 0 0 0 0
Neighs:    1.24499e+06 ave 1.24499e+06 max 1.24499e+06 min
Histogram: 1 0 0 0 0 0 0 0 0 0

Total # of neighbors = 1244990
Ave neighs/atom = 63.3518
Neighbor list builds = 495
Dangerous builds not checked
Setting up Verlet run ...
  Unit style    : metal
  Current step  : 84495
  Time step     : 0.001
Per MPI rank memory allocation (min/avg/max) = 18.21 | 18.21 | 18.21 Mbytes
Step Temp Press TotEng PotEng Enthalpy 
   84495    1319.1801   -795.32721   -56603.123   -59953.961   -56800.594 
   86000    1311.3896   -478.08707    -56653.03   -59984.079   -56771.478 
Loop time of 206.581 on 1 procs for 1505 steps with 19652 atoms

Performance: 0.629 ns/day, 38.129 hours/ns, 7.285 timesteps/s
98.1% CPU use with 1 MPI tasks x no OpenMP threads

MPI task timing breakdown:
Section |  min time  |  avg time  |  max time  |%varavg| %total
---------------------------------------------------------------
Pair    | 108.24     | 108.24     | 108.24     |   0.0 | 52.40
Neigh   | 93.867     | 93.867     | 93.867     |   0.0 | 45.44
Comm    | 1.6311     | 1.6311     | 1.6311     |   0.0 |  0.79
Output  | 0.085763   | 0.085763   | 0.085763   |   0.0 |  0.04
Modify  | 2.1513     | 2.1513     | 2.1513     |   0.0 |  1.04
Other   |            | 0.6037     |            |       |  0.29

Nlocal:    19652 ave 19652 max 19652 min
Histogram: 1 0 0 0 0 0 0 0 0 0
Nghost:    17119 ave 17119 max 17119 min
Histogram: 1 0 0 0 0 0 0 0 0 0
Neighs:    1.24806e+06 ave 1.24806e+06 max 1.24806e+06 min
Histogram: 1 0 0 0 0 0 0 0 0 0

Total # of neighbors = 1248063
Ave neighs/atom = 63.5082
Neighbor list builds = 1505
Dangerous builds not checked
Setting up Verlet run ...
  Unit style    : metal
  Current step  : 86000
  Time step     : 0.001
Per MPI rank memory allocation (min/avg/max) = 18.21 | 18.21 | 18.21 Mbytes
Step Temp Press TotEng PotEng Enthalpy 
   86000    1311.3896   -478.08707    -56653.03   -59984.079   -56771.478 
   86495    1271.5929   -390.52733   -56886.524   -60116.486   -56982.809 
Loop time of 67.3731 on 1 procs for 495 steps with 19652 atoms

Performance: 0.635 ns/day, 37.808 hours/ns, 7.347 timesteps/s
98.3% CPU use with 1 MPI tasks x no OpenMP threads

MPI task timing breakdown:
Section |  min time  |  avg time  |  max time  |%varavg| %total
---------------------------------------------------------------
Pair    | 35.319     | 35.319     | 35.319     |   0.0 | 52.42
Neigh   | 30.615     | 30.615     | 30.615     |   0.0 | 45.44
Comm    | 0.52387    | 0.52387    | 0.52387    |   0.0 |  0.78
Output  | 0.00018501 | 0.00018501 | 0.00018501 |   0.0 |  0.00
Modify  | 0.70791    | 0.70791    | 0.70791    |   0.0 |  1.05
Other   |            | 0.2076     |            |       |  0.31

Nlocal:    19652 ave 19652 max 19652 min
Histogram: 1 0 0 0 0 0 0 0 0 0
Nghost:    17061 ave 17061 max 17061 min
Histogram: 1 0 0 0 0 0 0 0 0 0
Neighs:    1.25389e+06 ave 1.25389e+06 max 1.25389e+06 min
Histogram: 1 0 0 0 0 0 0 0 0 0

Total # of neighbors = 1253894
Ave neighs/atom = 63.8049
Neighbor list builds = 495
Dangerous builds not checked
Setting up Verlet run ...
  Unit style    : metal
  Current step  : 86495
  Time step     : 0.001
Per MPI rank memory allocation (min/avg/max) = 18.21 | 18.21 | 18.21 Mbytes
Step Temp Press TotEng PotEng Enthalpy 
   86495    1271.5929   -390.52733   -56886.524   -60116.486   -56982.809 
   88000     1244.004   -118.16798   -57008.807    -60168.69   -57037.872 
Loop time of 213.746 on 1 procs for 1505 steps with 19652 atoms

Performance: 0.608 ns/day, 39.451 hours/ns, 7.041 timesteps/s
97.7% CPU use with 1 MPI tasks x no OpenMP threads

MPI task timing breakdown:
Section |  min time  |  avg time  |  max time  |%varavg| %total
---------------------------------------------------------------
Pair    | 112.99     | 112.99     | 112.99     |   0.0 | 52.86
Neigh   | 96.17      | 96.17      | 96.17      |   0.0 | 44.99
Comm    | 1.6715     | 1.6715     | 1.6715     |   0.0 |  0.78
Output  | 0.085332   | 0.085332   | 0.085332   |   0.0 |  0.04
Modify  | 2.2021     | 2.2021     | 2.2021     |   0.0 |  1.03
Other   |            | 0.6248     |            |       |  0.29

Nlocal:    19652 ave 19652 max 19652 min
Histogram: 1 0 0 0 0 0 0 0 0 0
Nghost:    17109 ave 17109 max 17109 min
Histogram: 1 0 0 0 0 0 0 0 0 0
Neighs:    1.2573e+06 ave 1.2573e+06 max 1.2573e+06 min
Histogram: 1 0 0 0 0 0 0 0 0 0

Total # of neighbors = 1257296
Ave neighs/atom = 63.978
Neighbor list builds = 1505
Dangerous builds not checked
Setting up Verlet run ...
  Unit style    : metal
  Current step  : 88000
  Time step     : 0.001
Per MPI rank memory allocation (min/avg/max) = 18.21 | 18.21 | 18.21 Mbytes
Step Temp Press TotEng PotEng Enthalpy 
   88000     1244.004   -118.16798   -57008.807    -60168.69   -57037.872 
   88495    1217.8822    259.69172   -57193.741   -60287.273   -57130.168 
Loop time of 73.4546 on 1 procs for 495 steps with 19652 atoms

Performance: 0.582 ns/day, 41.220 hours/ns, 6.739 timesteps/s
98.8% CPU use with 1 MPI tasks x no OpenMP threads

MPI task timing breakdown:
Section |  min time  |  avg time  |  max time  |%varavg| %total
---------------------------------------------------------------
Pair    | 39.02      | 39.02      | 39.02      |   0.0 | 53.12
Neigh   | 32.893     | 32.893     | 32.893     |   0.0 | 44.78
Comm    | 0.56305    | 0.56305    | 0.56305    |   0.0 |  0.77
Output  | 0.00014997 | 0.00014997 | 0.00014997 |   0.0 |  0.00
Modify  | 0.76915    | 0.76915    | 0.76915    |   0.0 |  1.05
Other   |            | 0.2095     |            |       |  0.29

Nlocal:    19652 ave 19652 max 19652 min
Histogram: 1 0 0 0 0 0 0 0 0 0
Nghost:    17126 ave 17126 max 17126 min
Histogram: 1 0 0 0 0 0 0 0 0 0
Neighs:    1.26335e+06 ave 1.26335e+06 max 1.26335e+06 min
Histogram: 1 0 0 0 0 0 0 0 0 0

Total # of neighbors = 1263347
Ave neighs/atom = 64.2859
Neighbor list builds = 495
Dangerous builds not checked
Setting up Verlet run ...
  Unit style    : metal
  Current step  : 88495
  Time step     : 0.001
Per MPI rank memory allocation (min/avg/max) = 18.21 | 18.21 | 18.21 Mbytes
Step Temp Press TotEng PotEng Enthalpy 
   88495    1217.8822    259.69172   -57193.741   -60287.273   -57130.168 
   90000    1191.4078    667.10913   -57321.872   -60348.156   -57159.112 
Loop time of 195.425 on 1 procs for 1505 steps with 19652 atoms

Performance: 0.665 ns/day, 36.070 hours/ns, 7.701 timesteps/s
99.2% CPU use with 1 MPI tasks x no OpenMP threads

MPI task timing breakdown:
Section |  min time  |  avg time  |  max time  |%varavg| %total
---------------------------------------------------------------
Pair    | 102.9      | 102.9      | 102.9      |   0.0 | 52.65
Neigh   | 88.353     | 88.353     | 88.353     |   0.0 | 45.21
Comm    | 1.5185     | 1.5185     | 1.5185     |   0.0 |  0.78
Output  | 0.085143   | 0.085143   | 0.085143   |   0.0 |  0.04
Modify  | 1.9863     | 1.9863     | 1.9863     |   0.0 |  1.02
Other   |            | 0.5834     |            |       |  0.30

Nlocal:    19652 ave 19652 max 19652 min
Histogram: 1 0 0 0 0 0 0 0 0 0
Nghost:    17124 ave 17124 max 17124 min
Histogram: 1 0 0 0 0 0 0 0 0 0
Neighs:    1.2684e+06 ave 1.2684e+06 max 1.2684e+06 min
Histogram: 1 0 0 0 0 0 0 0 0 0

Total # of neighbors = 1268395
Ave neighs/atom = 64.5428
Neighbor list builds = 1505
Dangerous builds not checked
Setting up Verlet run ...
  Unit style    : metal
  Current step  : 90000
  Time step     : 0.001
Per MPI rank memory allocation (min/avg/max) = 18.21 | 18.21 | 18.21 Mbytes
Step Temp Press TotEng PotEng Enthalpy 
   90000    1191.4078    667.10913   -57321.872   -60348.156   -57159.112 
   90495    1165.8112    790.05601   -57466.699   -60427.966   -57274.473 
Loop time of 68.5192 on 1 procs for 495 steps with 19652 atoms

Performance: 0.624 ns/day, 38.451 hours/ns, 7.224 timesteps/s
99.0% CPU use with 1 MPI tasks x no OpenMP threads

MPI task timing breakdown:
Section |  min time  |  avg time  |  max time  |%varavg| %total
---------------------------------------------------------------
Pair    | 36.063     | 36.063     | 36.063     |   0.0 | 52.63
Neigh   | 30.997     | 30.997     | 30.997     |   0.0 | 45.24
Comm    | 0.54002    | 0.54002    | 0.54002    |   0.0 |  0.79
Output  | 0.00014782 | 0.00014782 | 0.00014782 |   0.0 |  0.00
Modify  | 0.71458    | 0.71458    | 0.71458    |   0.0 |  1.04
Other   |            | 0.2046     |            |       |  0.30

Nlocal:    19652 ave 19652 max 19652 min
[...]
Setting up Verlet run ...
  Unit style    : metal
  Current step  : 120000
  Time step     : 0.001
Per MPI rank memory allocation (min/avg/max) = 18.21 | 18.21 | 18.21 Mbytes
Step Temp Press TotEng PotEng Enthalpy 
  120000    451.46145    538.38037   -62294.284   -63441.038   -62177.301 
  120495    425.20102    232.05479   -62464.073   -63544.122   -62413.817 
Loop time of 67.1927 on 1 procs for 495 steps with 19652 atoms

Performance: 0.636 ns/day, 37.706 hours/ns, 7.367 timesteps/s
99.4% CPU use with 1 MPI tasks x no OpenMP threads

MPI task timing breakdown:
Section |  min time  |  avg time  |  max time  |%varavg| %total
---------------------------------------------------------------
Pair    | 35.207     | 35.207     | 35.207     |   0.0 | 52.40
Neigh   | 30.63      | 30.63      | 30.63      |   0.0 | 45.59
Comm    | 0.49844    | 0.49844    | 0.49844    |   0.0 |  0.74
Output  | 0.00016022 | 0.00016022 | 0.00016022 |   0.0 |  0.00
Modify  | 0.66553    | 0.66553    | 0.66553    |   0.0 |  0.99
Other   |            | 0.1913     |            |       |  0.28

Nlocal:    19652 ave 19652 max 19652 min
Histogram: 1 0 0 0 0 0 0 0 0 0
Nghost:    18026 ave 18026 max 18026 min
Histogram: 1 0 0 0 0 0 0 0 0 0
Neighs:    1.43294e+06 ave 1.43294e+06 max 1.43294e+06 min
Histogram: 1 0 0 0 0 0 0 0 0 0

Total # of neighbors = 1432939
Ave neighs/atom = 72.9157
Neighbor list builds = 495
Dangerous builds not checked
Setting up Verlet run ...
  Unit style    : metal
  Current step  : 120495
  Time step     : 0.001
Per MPI rank memory allocation (min/avg/max) = 18.21 | 18.21 | 18.21 Mbytes
Step Temp Press TotEng PotEng Enthalpy 
  120495    425.20102    232.05479   -62464.073   -63544.122   -62413.817 
  122000    399.94933    192.98515   -62646.679   -63662.587   -62605.058 
Loop time of 212.912 on 1 procs for 1505 steps with 19652 atoms

Performance: 0.611 ns/day, 39.297 hours/ns, 7.069 timesteps/s
99.4% CPU use with 1 MPI tasks x no OpenMP threads

MPI task timing breakdown:
Section |  min time  |  avg time  |  max time  |%varavg| %total
---------------------------------------------------------------
Pair    | 111.75     | 111.75     | 111.75     |   0.0 | 52.49
Neigh   | 96.676     | 96.676     | 96.676     |   0.0 | 45.41
Comm    | 1.5553     | 1.5553     | 1.5553     |   0.0 |  0.73
Output  | 0.22007    | 0.22007    | 0.22007    |   0.0 |  0.10
Modify  | 2.0997     | 2.0997     | 2.0997     |   0.0 |  0.99
Other   |            | 0.6079     |            |       |  0.29

Nlocal:    19652 ave 19652 max 19652 min
Histogram: 1 0 0 0 0 0 0 0 0 0
Nghost:    18061 ave 18061 max 18061 min
Histogram: 1 0 0 0 0 0 0 0 0 0
Neighs:    1.43912e+06 ave 1.43912e+06 max 1.43912e+06 min
Histogram: 1 0 0 0 0 0 0 0 0 0

Total # of neighbors = 1439115
Ave neighs/atom = 73.23
Neighbor list builds = 1505
Dangerous builds not checked
Setting up Verlet run ...
  Unit style    : metal
  Current step  : 122000
  Time step     : 0.001
Per MPI rank memory allocation (min/avg/max) = 18.21 | 18.21 | 18.21 Mbytes
Step Temp Press TotEng PotEng Enthalpy 
  122000    399.94933    192.98515   -62646.679   -63662.587   -62605.058 
  122495    377.72769   -154.47597   -62800.359   -63759.821    -62833.58 
Loop time of 70.0387 on 1 procs for 495 steps with 19652 atoms

Performance: 0.611 ns/day, 39.303 hours/ns, 7.068 timesteps/s
99.7% CPU use with 1 MPI tasks x no OpenMP threads

MPI task timing breakdown:
Section |  min time  |  avg time  |  max time  |%varavg| %total
---------------------------------------------------------------
Pair    | 36.637     | 36.637     | 36.637     |   0.0 | 52.31
Neigh   | 31.988     | 31.988     | 31.988     |   0.0 | 45.67
Comm    | 0.50732    | 0.50732    | 0.50732    |   0.0 |  0.72
Output  | 0.00011778 | 0.00011778 | 0.00011778 |   0.0 |  0.00
Modify  | 0.70501    | 0.70501    | 0.70501    |   0.0 |  1.01
Other   |            | 0.2015     |            |       |  0.29

Nlocal:    19652 ave 19652 max 19652 min
Histogram: 1 0 0 0 0 0 0 0 0 0
Nghost:    18119 ave 18119 max 18119 min
Histogram: 1 0 0 0 0 0 0 0 0 0
Neighs:    1.44279e+06 ave 1.44279e+06 max 1.44279e+06 min
Histogram: 1 0 0 0 0 0 0 0 0 0

Total # of neighbors = 1442789
Ave neighs/atom = 73.4169
Neighbor list builds = 495
Dangerous builds not checked
Setting up Verlet run ...
  Unit style    : metal
  Current step  : 122495
  Time step     : 0.001
Per MPI rank memory allocation (min/avg/max) = 18.21 | 18.21 | 18.21 Mbytes
Step Temp Press TotEng PotEng Enthalpy 
  122495    377.72769   -154.47597   -62800.359   -63759.821    -62833.58 
  124000     349.2083   -631.06004   -62970.112   -63857.133   -63105.411 
Loop time of 207.178 on 1 procs for 1505 steps with 19652 atoms

Performance: 0.628 ns/day, 38.239 hours/ns, 7.264 timesteps/s
99.0% CPU use with 1 MPI tasks x no OpenMP threads

MPI task timing breakdown:
Section |  min time  |  avg time  |  max time  |%varavg| %total
---------------------------------------------------------------
Pair    | 108.13     | 108.13     | 108.13     |   0.0 | 52.19
Neigh   | 94.269     | 94.269     | 94.269     |   0.0 | 45.50
Comm    | 1.4781     | 1.4781     | 1.4781     |   0.0 |  0.71
Output  | 0.67775    | 0.67775    | 0.67775    |   0.0 |  0.33
Modify  | 2.0377     | 2.0377     | 2.0377     |   0.0 |  0.98
Other   |            | 0.5845     |            |       |  0.28

Nlocal:    19652 ave 19652 max 19652 min
Histogram: 1 0 0 0 0 0 0 0 0 0
Nghost:    18080 ave 18080 max 18080 min
Histogram: 1 0 0 0 0 0 0 0 0 0
Neighs:    1.44735e+06 ave 1.44735e+06 max 1.44735e+06 min
Histogram: 1 0 0 0 0 0 0 0 0 0

Total # of neighbors = 1447347
Ave neighs/atom = 73.6488
Neighbor list builds = 1505
Dangerous builds not checked
Setting up Verlet run ...
  Unit style    : metal
  Current step  : 124000
  Time step     : 0.001
Per MPI rank memory allocation (min/avg/max) = 18.21 | 18.21 | 18.21 Mbytes
Step Temp Press TotEng PotEng Enthalpy 
  124000     349.2083   -631.06004   -62970.112   -63857.133   -63105.411 
  124495    325.17967   -512.81705   -63120.312   -63946.298   -63229.902 
Loop time of 74.0195 on 1 procs for 495 steps with 19652 atoms

Performance: 0.578 ns/day, 41.537 hours/ns, 6.687 timesteps/s
98.6% CPU use with 1 MPI tasks x no OpenMP threads

MPI task timing breakdown:
Section |  min time  |  avg time  |  max time  |%varavg| %total
---------------------------------------------------------------
Pair    | 38.867     | 38.867     | 38.867     |   0.0 | 52.51
Neigh   | 33.665     | 33.665     | 33.665     |   0.0 | 45.48
Comm    | 0.52468    | 0.52468    | 0.52468    |   0.0 |  0.71
Output  | 0.00014091 | 0.00014091 | 0.00014091 |   0.0 |  0.00
Modify  | 0.75175    | 0.75175    | 0.75175    |   0.0 |  1.02
Other   |            | 0.2112     |            |       |  0.29

Nlocal:    19652 ave 19652 max 19652 min
Histogram: 1 0 0 0 0 0 0 0 0 0
Nghost:    18119 ave 18119 max 18119 min
Histogram: 1 0 0 0 0 0 0 0 0 0
Neighs:    1.45123e+06 ave 1.45123e+06 max 1.45123e+06 min
Histogram: 1 0 0 0 0 0 0 0 0 0

Total # of neighbors = 1451234
Ave neighs/atom = 73.8466
Neighbor list builds = 495
Dangerous builds not checked
Setting up Verlet run ...
  Unit style    : metal
  Current step  : 124495
  Time step     : 0.001
Per MPI rank memory allocation (min/avg/max) = 18.21 | 18.21 | 18.21 Mbytes
Step Temp Press TotEng PotEng Enthalpy 
  124495    325.17967   -512.81705   -63120.312   -63946.298   -63229.902 
  126000    300.94622    419.69539   -63286.567   -64050.998   -63197.329 
Loop time of 200.545 on 1 procs for 1505 steps with 19652 atoms

Performance: 0.648 ns/day, 37.015 hours/ns, 7.505 timesteps/s
99.0% CPU use with 1 MPI tasks x no OpenMP threads

MPI task timing breakdown:
Section |  min time  |  avg time  |  max time  |%varavg| %total
---------------------------------------------------------------
Pair    | 104.71     | 104.71     | 104.71     |   0.0 | 52.21
Neigh   | 91.634     | 91.634     | 91.634     |   0.0 | 45.69
Comm    | 1.4349     | 1.4349     | 1.4349     |   0.0 |  0.72
Output  | 0.20241    | 0.20241    | 0.20241    |   0.0 |  0.10
Modify  | 1.9831     | 1.9831     | 1.9831     |   0.0 |  0.99
Other   |            | 0.5781     |            |       |  0.29

Nlocal:    19652 ave 19652 max 19652 min
Histogram: 1 0 0 0 0 0 0 0 0 0
Nghost:    18161 ave 18161 max 18161 min
Histogram: 1 0 0 0 0 0 0 0 0 0
Neighs:    1.45852e+06 ave 1.45852e+06 max 1.45852e+06 min
Histogram: 1 0 0 0 0 0 0 0 0 0

Total # of neighbors = 1458518
Ave neighs/atom = 74.2173
Neighbor list builds = 1505
Dangerous builds not checked
Setting up Verlet run ...
  Unit style    : metal
  Current step  : 126000
  Time step     : 0.001
Per MPI rank memory allocation (min/avg/max) = 18.21 | 18.21 | 18.21 Mbytes
Step Temp Press TotEng PotEng Enthalpy 
  126000    300.94622    419.69539   -63286.567   -64050.998   -63197.329 
  126495    275.46339   -150.84656   -63427.444   -64127.146   -63459.459 
Loop time of 69.6707 on 1 procs for 495 steps with 19652 atoms

Performance: 0.614 ns/day, 39.097 hours/ns, 7.105 timesteps/s
99.9% CPU use with 1 MPI tasks x no OpenMP threads

MPI task timing breakdown:
Section |  min time  |  avg time  |  max time  |%varavg| %total
---------------------------------------------------------------
Pair    | 36.476     | 36.476     | 36.476     |   0.0 | 52.35
Neigh   | 31.815     | 31.815     | 31.815     |   0.0 | 45.66
Comm    | 0.49671    | 0.49671    | 0.49671    |   0.0 |  0.71
Output  | 0.00016904 | 0.00016904 | 0.00016904 |   0.0 |  0.00
Modify  | 0.68338    | 0.68338    | 0.68338    |   0.0 |  0.98
Other   |            | 0.1997     |            |       |  0.29

Nlocal:    19652 ave 19652 max 19652 min
Histogram: 1 0 0 0 0 0 0 0 0 0
Nghost:    18161 ave 18161 max 18161 min
Histogram: 1 0 0 0 0 0 0 0 0 0
Neighs:    1.46106e+06 ave 1.46106e+06 max 1.46106e+06 min
Histogram: 1 0 0 0 0 0 0 0 0 0

Total # of neighbors = 1461062
Ave neighs/atom = 74.3467
Neighbor list builds = 495
Dangerous builds not checked
Setting up Verlet run ...
  Unit style    : metal
  Current step  : 126495
  Time step     : 0.001
Per MPI rank memory allocation (min/avg/max) = 18.21 | 18.21 | 18.21 Mbytes
Step Temp Press TotEng PotEng Enthalpy 
  126495    275.46339   -150.84656   -63427.444   -64127.146   -63459.459 
  128000    251.96953    828.89736   -63579.027   -64219.052   -63403.875 
Loop time of 206.946 on 1 procs for 1505 steps with 19652 atoms

Performance: 0.628 ns/day, 38.196 hours/ns, 7.272 timesteps/s
99.1% CPU use with 1 MPI tasks x no OpenMP threads

MPI task timing breakdown:
Section |  min time  |  avg time  |  max time  |%varavg| %total
---------------------------------------------------------------
Pair    | 108.61     | 108.61     | 108.61     |   0.0 | 52.48
Neigh   | 94.071     | 94.071     | 94.071     |   0.0 | 45.46
Comm    | 1.4861     | 1.4861     | 1.4861     |   0.0 |  0.72
Output  | 0.11753    | 0.11753    | 0.11753    |   0.0 |  0.06
Modify  | 2.063      | 2.063      | 2.063      |   0.0 |  1.00
Other   |            | 0.6019     |            |       |  0.29

Nlocal:    19652 ave 19652 max 19652 min
Histogram: 1 0 0 0 0 0 0 0 0 0
Nghost:    18209 ave 18209 max 18209 min
Histogram: 1 0 0 0 0 0 0 0 0 0
Neighs:    1.4663e+06 ave 1.4663e+06 max 1.4663e+06 min
Histogram: 1 0 0 0 0 0 0 0 0 0

Total # of neighbors = 1466300
Ave neighs/atom = 74.6133
Neighbor list builds = 1505
Dangerous builds not checked
Setting up Verlet run ...
  Unit style    : metal
  Current step  : 128000
  Time step     : 0.001
Per MPI rank memory allocation (min/avg/max) = 18.21 | 18.21 | 18.21 Mbytes
Step Temp Press TotEng PotEng Enthalpy 
  128000    251.96953    828.89736   -63579.027   -64219.052   -63403.875 
  128495    224.41591   -627.25059   -63717.362   -64287.399   -63849.855 
Loop time of 63.5624 on 1 procs for 495 steps with 19652 atoms

Performance: 0.673 ns/day, 35.669 hours/ns, 7.788 timesteps/s
98.7% CPU use with 1 MPI tasks x no OpenMP threads

MPI task timing breakdown:
Section |  min time  |  avg time  |  max time  |%varavg| %total
---------------------------------------------------------------
Pair    | 33.223     | 33.223     | 33.223     |   0.0 | 52.27
Neigh   | 29.084     | 29.084     | 29.084     |   0.0 | 45.76
Comm    | 0.4616     | 0.4616     | 0.4616     |   0.0 |  0.73
Output  | 0.000144   | 0.000144   | 0.000144   |   0.0 |  0.00
Modify  | 0.6032     | 0.6032     | 0.6032     |   0.0 |  0.95
Other   |            | 0.1907     |            |       |  0.30

Nlocal:    19652 ave 19652 max 19652 min
Histogram: 1 0 0 0 0 0 0 0 0 0
Nghost:    18210 ave 18210 max 18210 min
Histogram: 1 0 0 0 0 0 0 0 0 0
Neighs:    1.46697e+06 ave 1.46697e+06 max 1.46697e+06 min
Histogram: 1 0 0 0 0 0 0 0 0 0

Total # of neighbors = 1466970
Ave neighs/atom = 74.6474
Neighbor list builds = 495
Dangerous builds not checked
Setting up Verlet run ...
  Unit style    : metal
  Current step  : 128495
  Time step     : 0.001
Per MPI rank memory allocation (min/avg/max) = 18.21 | 18.21 | 18.21 Mbytes
Step Temp Press TotEng PotEng Enthalpy 
  128495    224.41591   -627.25059   -63717.362   -64287.399   -63849.855 
  130000     200.2125     361.8446   -63866.873   -64375.431   -63790.787 
Loop time of 195.497 on 1 procs for 1505 steps with 19652 atoms

Performance: 0.665 ns/day, 36.083 hours/ns, 7.698 timesteps/s
98.9% CPU use with 1 MPI tasks x no OpenMP threads

MPI task timing breakdown:
Section |  min time  |  avg time  |  max time  |%varavg| %total
---------------------------------------------------------------
Pair    | 101.97     | 101.97     | 101.97     |   0.0 | 52.16
Neigh   | 88.632     | 88.632     | 88.632     |   0.0 | 45.34
Comm    | 1.4119     | 1.4119     | 1.4119     |   0.0 |  0.72
Output  | 1.0338     | 1.0338     | 1.0338     |   0.0 |  0.53
Modify  | 1.89       | 1.89       | 1.89       |   0.0 |  0.97
Other   |            | 0.5545     |            |       |  0.28

Nlocal:    19652 ave 19652 max 19652 min
Histogram: 1 0 0 0 0 0 0 0 0 0
Nghost:    18226 ave 18226 max 18226 min
Histogram: 1 0 0 0 0 0 0 0 0 0
Neighs:    1.47262e+06 ave 1.47262e+06 max 1.47262e+06 min
Histogram: 1 0 0 0 0 0 0 0 0 0

Total # of neighbors = 1472623
Ave neighs/atom = 74.935
Neighbor list builds = 1505
Dangerous builds not checked
Setting up Verlet run ...
  Unit style    : metal
  Current step  : 130000
  Time step     : 0.001
Per MPI rank memory allocation (min/avg/max) = 18.21 | 18.21 | 18.21 Mbytes
Step Temp Press TotEng PotEng Enthalpy 
  130000     200.2125     361.8446   -63866.873   -64375.431   -63790.787 
  130495    176.63669    211.46823   -63996.426   -64445.099    -63952.05 
Loop time of 71.4969 on 1 procs for 495 steps with 19652 atoms

Performance: 0.598 ns/day, 40.122 hours/ns, 6.923 timesteps/s
99.3% CPU use with 1 MPI tasks x no OpenMP threads

MPI task timing breakdown:
Section |  min time  |  avg time  |  max time  |%varavg| %total
---------------------------------------------------------------
Pair    | 37.584     | 37.584     | 37.584     |   0.0 | 52.57
Neigh   | 32.474     | 32.474     | 32.474     |   0.0 | 45.42
Comm    | 0.5098     | 0.5098     | 0.5098     |   0.0 |  0.71
Output  | 0.00016093 | 0.00016093 | 0.00016093 |   0.0 |  0.00
Modify  | 0.72293    | 0.72293    | 0.72293    |   0.0 |  1.01
Other   |            | 0.2061     |            |       |  0.29

Nlocal:    19652 ave 19652 max 19652 min
Histogram: 1 0 0 0 0 0 0 0 0 0
Nghost:    18233 ave 18233 max 18233 min
Histogram: 1 0 0 0 0 0 0 0 0 0
Neighs:    1.47614e+06 ave 1.47614e+06 max 1.47614e+06 min
Histogram: 1 0 0 0 0 0 0 0 0 0

Total # of neighbors = 1476138
Ave neighs/atom = 75.1139
Neighbor list builds = 495
Dangerous builds not checked
Setting up Verlet run ...
  Unit style    : metal
  Current step  : 130495
  Time step     : 0.001
Per MPI rank memory allocation (min/avg/max) = 18.21 | 18.21 | 18.21 Mbytes
Step Temp Press TotEng PotEng Enthalpy 
  130495    176.63669    211.46823   -63996.426   -64445.099    -63952.05 
  132000    151.01497    196.58595   -64146.215   -64529.806    -64105.08 
Loop time of 209.484 on 1 procs for 1505 steps with 19652 atoms

Performance: 0.621 ns/day, 38.664 hours/ns, 7.184 timesteps/s
99.2% CPU use with 1 MPI tasks x no OpenMP threads

MPI task timing breakdown:
Section |  min time  |  avg time  |  max time  |%varavg| %total
---------------------------------------------------------------
Pair    | 110.75     | 110.75     | 110.75     |   0.0 | 52.87
Neigh   | 94.401     | 94.401     | 94.401     |   0.0 | 45.06
Comm    | 1.512      | 1.512      | 1.512      |   0.0 |  0.72
Output  | 0.18766    | 0.18766    | 0.18766    |   0.0 |  0.09
Modify  | 2.0366     | 2.0366     | 2.0366     |   0.0 |  0.97
Other   |            | 0.5956     |            |       |  0.28

Nlocal:    19652 ave 19652 max 19652 min
Histogram: 1 0 0 0 0 0 0 0 0 0
Nghost:    18215 ave 18215 max 18215 min
Histogram: 1 0 0 0 0 0 0 0 0 0
Neighs:    1.47944e+06 ave 1.47944e+06 max 1.47944e+06 min
Histogram: 1 0 0 0 0 0 0 0 0 0

Total # of neighbors = 1479436
Ave neighs/atom = 75.2817
Neighbor list builds = 1505
Dangerous builds not checked
Setting up Verlet run ...
  Unit style    : metal
  Current step  : 132000
  Time step     : 0.001
Per MPI rank memory allocation (min/avg/max) = 18.21 | 18.21 | 18.21 Mbytes
Step Temp Press TotEng PotEng Enthalpy 
  132000    151.01497    196.58595   -64146.215   -64529.806    -64105.08 
  132495    127.20634   -225.47782   -64265.392   -64588.507     -64312.5 
Loop time of 64.5293 on 1 procs for 495 steps with 19652 atoms

Performance: 0.663 ns/day, 36.212 hours/ns, 7.671 timesteps/s
99.7% CPU use with 1 MPI tasks x no OpenMP threads

MPI task timing breakdown:
Section |  min time  |  avg time  |  max time  |%varavg| %total
---------------------------------------------------------------
Pair    | 33.927     | 33.927     | 33.927     |   0.0 | 52.58
Neigh   | 29.326     | 29.326     | 29.326     |   0.0 | 45.45
Comm    | 0.4644     | 0.4644     | 0.4644     |   0.0 |  0.72
Output  | 0.00017619 | 0.00017619 | 0.00017619 |   0.0 |  0.00
Modify  | 0.62763    | 0.62763    | 0.62763    |   0.0 |  0.97
Other   |            | 0.184      |            |       |  0.29

Nlocal:    19652 ave 19652 max 19652 min
Histogram: 1 0 0 0 0 0 0 0 0 0
Nghost:    18264 ave 18264 max 18264 min
Histogram: 1 0 0 0 0 0 0 0 0 0
Neighs:    1.48153e+06 ave 1.48153e+06 max 1.48153e+06 min
Histogram: 1 0 0 0 0 0 0 0 0 0

Total # of neighbors = 1481526
Ave neighs/atom = 75.3881
Neighbor list builds = 495
Dangerous builds not checked
Setting up Verlet run ...
  Unit style    : metal
  Current step  : 132495
  Time step     : 0.001
Per MPI rank memory allocation (min/avg/max) = 18.21 | 18.21 | 18.21 Mbytes
Step Temp Press TotEng PotEng Enthalpy 
  132495    127.20634   -225.47782   -64265.392   -64588.507     -64312.5 
  134000    100.20582   -193.90561   -64417.637   -64672.169   -64458.039 
Loop time of 210.528 on 1 procs for 1505 steps with 19652 atoms

Performance: 0.618 ns/day, 38.857 hours/ns, 7.149 timesteps/s
98.4% CPU use with 1 MPI tasks x no OpenMP threads

MPI task timing breakdown:
Section |  min time  |  avg time  |  max time  |%varavg| %total
---------------------------------------------------------------
Pair    | 111        | 111        | 111        |   0.0 | 52.72
Neigh   | 95.261     | 95.261     | 95.261     |   0.0 | 45.25
Comm    | 1.5126     | 1.5126     | 1.5126     |   0.0 |  0.72
Output  | 0.10277    | 0.10277    | 0.10277    |   0.0 |  0.05
Modify  | 2.0439     | 2.0439     | 2.0439     |   0.0 |  0.97
Other   |            | 0.6087     |            |       |  0.29

Nlocal:    19652 ave 19652 max 19652 min
Histogram: 1 0 0 0 0 0 0 0 0 0
Nghost:    18275 ave 18275 max 18275 min
Histogram: 1 0 0 0 0 0 0 0 0 0
Neighs:    1.48481e+06 ave 1.48481e+06 max 1.48481e+06 min
Histogram: 1 0 0 0 0 0 0 0 0 0

Total # of neighbors = 1484811
Ave neighs/atom = 75.5552
Neighbor list builds = 1505
Dangerous builds not checked
Total wall time: 5:13:17
