LAMMPS (12 Dec 2018)
Lattice spacing in x,y,z = 4 4 4
Created orthogonal box = (0 0 0) to (68 68 68)
  1 by 1 by 1 MPI processor grid
Created 19652 atoms
  Time spent = 0.00339794 secs
Setting atom values ...
  19652 settings made for type/fraction
Neighbor list info ...
  update every 1 steps, delay 0 steps, check no
  max neighbors/atom: 2000, page size: 100000
  master list distance cutoff = 8.5
  ghost atom cutoff = 8.5
  binsize = 4.25, bins = 16 16 16
  1 neighbor lists, perpetual/occasional/extra = 1 0 0
  (1) pair eam/alloy, perpetual
      attributes: half, newton on
      pair build: half/bin/atomonly/newton
      stencil: half/bin/3d/newton
      bin: standard
Setting up Verlet run ...
  Unit style    : metal
  Current step  : 0
  Time step     : 0.001
Per MPI rank memory allocation (min/avg/max) = 18.19 | 18.19 | 18.19 Mbytes
Step Temp Press TotEng PotEng Enthalpy 
       0          300   -186199.32   -61187.265   -61949.292   -97729.446 
    1000    543.09143   -74198.539   -61187.301   -62566.803   -75748.989 
Loop time of 139.524 on 1 procs for 1000 steps with 19652 atoms

Performance: 0.619 ns/day, 38.757 hours/ns, 7.167 timesteps/s
99.8% CPU use with 1 MPI tasks x no OpenMP threads

MPI task timing breakdown:
Section |  min time  |  avg time  |  max time  |%varavg| %total
---------------------------------------------------------------
Pair    | 78.467     | 78.467     | 78.467     |   0.0 | 56.24
Neigh   | 58.459     | 58.459     | 58.459     |   0.0 | 41.90
Comm    | 1.3857     | 1.3857     | 1.3857     |   0.0 |  0.99
Output  | 0.00019097 | 0.00019097 | 0.00019097 |   0.0 |  0.00
Modify  | 0.58272    | 0.58272    | 0.58272    |   0.0 |  0.42
Other   |            | 0.6286     |            |       |  0.45

Nlocal:    19652 ave 19652 max 19652 min
Histogram: 1 0 0 0 0 0 0 0 0 0
Nghost:    19118 ave 19118 max 19118 min
Histogram: 1 0 0 0 0 0 0 0 0 0
Neighs:    1.58626e+06 ave 1.58626e+06 max 1.58626e+06 min
Histogram: 1 0 0 0 0 0 0 0 0 0

Total # of neighbors = 1586257
Ave neighs/atom = 80.7173
Neighbor list builds = 1000
Dangerous builds not checked
Setting up Verlet run ...
  Unit style    : metal
  Current step  : 1000
  Time step     : 0.001
Per MPI rank memory allocation (min/avg/max) = 18.19 | 18.19 | 18.19 Mbytes
Step Temp Press TotEng PotEng Enthalpy 
    1000    543.09143   -74198.539   -61187.301   -62566.803   -75748.989 
    2000    397.56143   -2166.3079   -65711.945   -66721.787   -66044.515 
Loop time of 175.291 on 1 procs for 1000 steps with 19652 atoms

Performance: 0.493 ns/day, 48.692 hours/ns, 5.705 timesteps/s
99.8% CPU use with 1 MPI tasks x no OpenMP threads

MPI task timing breakdown:
Section |  min time  |  avg time  |  max time  |%varavg| %total
---------------------------------------------------------------
Pair    | 94.142     | 94.142     | 94.142     |   0.0 | 53.71
Neigh   | 77.786     | 77.786     | 77.786     |   0.0 | 44.38
Comm    | 1.1765     | 1.1765     | 1.1765     |   0.0 |  0.67
Output  | 0.00027418 | 0.00027418 | 0.00027418 |   0.0 |  0.00
Modify  | 1.5433     | 1.5433     | 1.5433     |   0.0 |  0.88
Other   |            | 0.6431     |            |       |  0.37

Nlocal:    19652 ave 19652 max 19652 min
Histogram: 1 0 0 0 0 0 0 0 0 0
Nghost:    20296 ave 20296 max 20296 min
Histogram: 1 0 0 0 0 0 0 0 0 0
Neighs:    2.00025e+06 ave 2.00025e+06 max 2.00025e+06 min
Histogram: 1 0 0 0 0 0 0 0 0 0

Total # of neighbors = 2000251
Ave neighs/atom = 101.784
Neighbor list builds = 1000
Dangerous builds not checked
Setting up Verlet run ...
  Unit style    : metal
  Current step  : 2000
  Time step     : 0.001
Per MPI rank memory allocation (min/avg/max) = 19.33 | 19.33 | 19.33 Mbytes
Step Temp Press TotEng PotEng Enthalpy 
    2000    397.56143   -2166.3079   -65711.945   -66721.787   -66044.515 
    6667    1496.5545    756.72919   -60199.495    -64000.88   -60077.929 
   10000    2460.4081    932.02406   -53005.308   -59254.969   -52835.761 
Loop time of 1366.44 on 1 procs for 8000 steps with 19652 atoms

Performance: 0.506 ns/day, 47.446 hours/ns, 5.855 timesteps/s
99.8% CPU use with 1 MPI tasks x no OpenMP threads

MPI task timing breakdown:
Section |  min time  |  avg time  |  max time  |%varavg| %total
---------------------------------------------------------------
Pair    | 739.12     | 739.12     | 739.12     |   0.0 | 54.09
Neigh   | 600.87     | 600.87     | 600.87     |   0.0 | 43.97
Comm    | 9.0596     | 9.0596     | 9.0596     |   0.0 |  0.66
Output  | 0.040278   | 0.040278   | 0.040278   |   0.0 |  0.00
Modify  | 12.088     | 12.088     | 12.088     |   0.0 |  0.88
Other   |            | 5.259      |            |       |  0.38

Nlocal:    19652 ave 19652 max 19652 min
Histogram: 1 0 0 0 0 0 0 0 0 0
Nghost:    19354 ave 19354 max 19354 min
Histogram: 1 0 0 0 0 0 0 0 0 0
Neighs:    1.69112e+06 ave 1.69112e+06 max 1.69112e+06 min
Histogram: 1 0 0 0 0 0 0 0 0 0

Total # of neighbors = 1691123
Ave neighs/atom = 86.0535
Neighbor list builds = 8000
Dangerous builds not checked
Setting up Verlet run ...
  Unit style    : metal
  Current step  : 10000
  Time step     : 0.001
Per MPI rank memory allocation (min/avg/max) = 19.34 | 19.34 | 19.34 Mbytes
Step Temp Press TotEng PotEng Enthalpy 
   10000    2460.4081    932.02406   -53005.308   -59254.969   -52835.761 
   13334    2470.9678     1712.611   -52901.089   -59177.572   -52589.213 
   20001    2447.6547   -802.12204   -53021.346   -59238.612   -53167.467 
   26668    2439.5336    993.34045    -52988.99   -59185.627   -52808.003 
   33335    2437.0107    1262.6205   -52992.578   -59182.807   -52762.729 
   40000    2466.6527    750.58013   -52901.684   -59167.207   -52764.823 
Loop time of 4843.54 on 1 procs for 30000 steps with 19652 atoms

Performance: 0.535 ns/day, 44.848 hours/ns, 6.194 timesteps/s
99.8% CPU use with 1 MPI tasks x no OpenMP threads

MPI task timing breakdown:
Section |  min time  |  avg time  |  max time  |%varavg| %total
---------------------------------------------------------------
Pair    | 2559.4     | 2559.4     | 2559.4     |   0.0 | 52.84
Neigh   | 2184       | 2184       | 2184       |   0.0 | 45.09
Comm    | 34.519     | 34.519     | 34.519     |   0.0 |  0.71
Output  | 0.18951    | 0.18951    | 0.18951    |   0.0 |  0.00
Modify  | 45.988     | 45.988     | 45.988     |   0.0 |  0.95
Other   |            | 19.43      |            |       |  0.40

Nlocal:    19652 ave 19652 max 19652 min
Histogram: 1 0 0 0 0 0 0 0 0 0
Nghost:    19218 ave 19218 max 19218 min
Histogram: 1 0 0 0 0 0 0 0 0 0
Neighs:    1.68687e+06 ave 1.68687e+06 max 1.68687e+06 min
Histogram: 1 0 0 0 0 0 0 0 0 0

Total # of neighbors = 1686869
Ave neighs/atom = 85.837
Neighbor list builds = 30000
Dangerous builds not checked
Setting up Verlet run ...
  Unit style    : metal
  Current step  : 40000
  Time step     : 0.001
Per MPI rank memory allocation (min/avg/max) = 19.34 | 19.34 | 19.34 Mbytes
Step Temp Press TotEng PotEng Enthalpy 
   40000    2466.6527    750.58013   -52901.684   -59167.207   -52764.823 
   40002    2466.4511    760.76058   -52901.702   -59166.713   -52762.985 
   40495    2407.3447    946.81821   -53149.776   -59264.651   -52977.707 
Loop time of 79.5437 on 1 procs for 495 steps with 19652 atoms

Performance: 0.538 ns/day, 44.637 hours/ns, 6.223 timesteps/s
99.9% CPU use with 1 MPI tasks x no OpenMP threads

MPI task timing breakdown:
Section |  min time  |  avg time  |  max time  |%varavg| %total
---------------------------------------------------------------
Pair    | 42.529     | 42.529     | 42.529     |   0.0 | 53.47
Neigh   | 35.301     | 35.301     | 35.301     |   0.0 | 44.38
Comm    | 0.56594    | 0.56594    | 0.56594    |   0.0 |  0.71
Output  | 0.040433   | 0.040433   | 0.040433   |   0.0 |  0.05
Modify  | 0.77355    | 0.77355    | 0.77355    |   0.0 |  0.97
Other   |            | 0.3337     |            |       |  0.42

Nlocal:    19652 ave 19652 max 19652 min
Histogram: 1 0 0 0 0 0 0 0 0 0
Nghost:    19263 ave 19263 max 19263 min
Histogram: 1 0 0 0 0 0 0 0 0 0
Neighs:    1.69257e+06 ave 1.69257e+06 max 1.69257e+06 min
Histogram: 1 0 0 0 0 0 0 0 0 0

Total # of neighbors = 1692566
Ave neighs/atom = 86.1269
Neighbor list builds = 495
Dangerous builds not checked
Setting up Verlet run ...
  Unit style    : metal
  Current step  : 40495
  Time step     : 0.001
Per MPI rank memory allocation (min/avg/max) = 19.34 | 19.34 | 19.34 Mbytes
Step Temp Press TotEng PotEng Enthalpy 
   40495    2407.3447    946.81821   -53149.776   -59264.651   -52977.707 
   46667     2408.066   -216.89103   -53306.752   -59423.459   -53346.046 
Loop time of 1019.24 on 1 procs for 6172 steps with 19652 atoms

Performance: 0.523 ns/day, 45.872 hours/ns, 6.055 timesteps/s
99.8% CPU use with 1 MPI tasks x no OpenMP threads

MPI task timing breakdown:
Section |  min time  |  avg time  |  max time  |%varavg| %total
---------------------------------------------------------------
Pair    | 541.92     | 541.92     | 541.92     |   0.0 | 53.17
Neigh   | 455.75     | 455.75     | 455.75     |   0.0 | 44.71
Comm    | 7.4384     | 7.4384     | 7.4384     |   0.0 |  0.73
Output  | 0.00019312 | 0.00019312 | 0.00019312 |   0.0 |  0.00
Modify  | 9.8872     | 9.8872     | 9.8872     |   0.0 |  0.97
Other   |            | 4.253      |            |       |  0.42

Nlocal:    19652 ave 19652 max 19652 min
Histogram: 1 0 0 0 0 0 0 0 0 0
Nghost:    19384 ave 19384 max 19384 min
Histogram: 1 0 0 0 0 0 0 0 0 0
Neighs:    1.69769e+06 ave 1.69769e+06 max 1.69769e+06 min
Histogram: 1 0 0 0 0 0 0 0 0 0

Total # of neighbors = 1697687
Ave neighs/atom = 86.3875
Neighbor list builds = 6172
Dangerous builds not checked
Setting up Verlet run ...
  Unit style    : metal
  Current step  : 46667
  Time step     : 0.001
Per MPI rank memory allocation (min/avg/max) = 19.34 | 19.34 | 19.34 Mbytes
Step Temp Press TotEng PotEng Enthalpy 
   46667     2408.066   -216.89103   -53306.752   -59423.459   -53346.046 
   46669    2407.4382   -170.96965   -53306.759   -59421.871   -53337.734 
   47162    2348.4343   -452.58866   -53551.684   -59516.921   -53633.503 
Loop time of 76.2924 on 1 procs for 495 steps with 19652 atoms

Performance: 0.561 ns/day, 42.813 hours/ns, 6.488 timesteps/s
99.9% CPU use with 1 MPI tasks x no OpenMP threads

MPI task timing breakdown:
Section |  min time  |  avg time  |  max time  |%varavg| %total
---------------------------------------------------------------
Pair    | 40.959     | 40.959     | 40.959     |   0.0 | 53.69
Neigh   | 33.628     | 33.628     | 33.628     |   0.0 | 44.08
Comm    | 0.5731     | 0.5731     | 0.5731     |   0.0 |  0.75
Output  | 0.042536   | 0.042536   | 0.042536   |   0.0 |  0.06
Modify  | 0.75643    | 0.75643    | 0.75643    |   0.0 |  0.99
Other   |            | 0.3337     |            |       |  0.44

Nlocal:    19652 ave 19652 max 19652 min
Histogram: 1 0 0 0 0 0 0 0 0 0
Nghost:    19385 ave 19385 max 19385 min
Histogram: 1 0 0 0 0 0 0 0 0 0
Neighs:    1.70148e+06 ave 1.70148e+06 max 1.70148e+06 min
Histogram: 1 0 0 0 0 0 0 0 0 0

Total # of neighbors = 1701482
Ave neighs/atom = 86.5806
Neighbor list builds = 495
Dangerous builds not checked
Setting up Verlet run ...
  Unit style    : metal
  Current step  : 47162
  Time step     : 0.001
Per MPI rank memory allocation (min/avg/max) = 19.34 | 19.34 | 19.34 Mbytes
Step Temp Press TotEng PotEng Enthalpy 
   47162    2348.4343   -452.58866   -53551.684   -59516.921   -53633.503 
   53334    2370.4069    515.11494   -53481.729   -59502.778    -53388.68 
Loop time of 1127.84 on 1 procs for 6172 steps with 19652 atoms

Performance: 0.473 ns/day, 50.760 hours/ns, 5.472 timesteps/s
99.6% CPU use with 1 MPI tasks x no OpenMP threads

MPI task timing breakdown:
Section |  min time  |  avg time  |  max time  |%varavg| %total
---------------------------------------------------------------
Pair    | 603.53     | 603.53     | 603.53     |   0.0 | 53.51
Neigh   | 495.15     | 495.15     | 495.15     |   0.0 | 43.90
Comm    | 10.13      | 10.13      | 10.13      |   0.0 |  0.90
Output  | 0.00024891 | 0.00024891 | 0.00024891 |   0.0 |  0.00
Modify  | 13.297     | 13.297     | 13.297     |   0.0 |  1.18
Other   |            | 5.736      |            |       |  0.51

Nlocal:    19652 ave 19652 max 19652 min
Histogram: 1 0 0 0 0 0 0 0 0 0
Nghost:    19333 ave 19333 max 19333 min
Histogram: 1 0 0 0 0 0 0 0 0 0
Neighs:    1.70234e+06 ave 1.70234e+06 max 1.70234e+06 min
Histogram: 1 0 0 0 0 0 0 0 0 0

Total # of neighbors = 1702338
Ave neighs/atom = 86.6242
Neighbor list builds = 6172
Dangerous builds not checked
Setting up Verlet run ...
  Unit style    : metal
  Current step  : 53334
  Time step     : 0.001
Per MPI rank memory allocation (min/avg/max) = 19.34 | 19.34 | 19.34 Mbytes
Step Temp Press TotEng PotEng Enthalpy 
   53334    2370.4069    515.11494   -53481.729   -59502.778    -53388.68 
   53336    2370.4403    501.66482   -53481.752   -59502.886   -53391.132 
   53829    2313.4057    668.56932   -53764.285   -59640.547   -53644.004 
Loop time of 93.5951 on 1 procs for 495 steps with 19652 atoms

Performance: 0.457 ns/day, 52.522 hours/ns, 5.289 timesteps/s
99.3% CPU use with 1 MPI tasks x no OpenMP threads

MPI task timing breakdown:
Section |  min time  |  avg time  |  max time  |%varavg| %total
---------------------------------------------------------------
Pair    | 50.863     | 50.863     | 50.863     |   0.0 | 54.34
Neigh   | 39.979     | 39.979     | 39.979     |   0.0 | 42.72
Comm    | 0.93698    | 0.93698    | 0.93698    |   0.0 |  1.00
Output  | 0.046668   | 0.046668   | 0.046668   |   0.0 |  0.05
Modify  | 1.2349     | 1.2349     | 1.2349     |   0.0 |  1.32
Other   |            | 0.5337     |            |       |  0.57

Nlocal:    19652 ave 19652 max 19652 min
Histogram: 1 0 0 0 0 0 0 0 0 0
Nghost:    19411 ave 19411 max 19411 min
Histogram: 1 0 0 0 0 0 0 0 0 0
Neighs:    1.70979e+06 ave 1.70979e+06 max 1.70979e+06 min
Histogram: 1 0 0 0 0 0 0 0 0 0

Total # of neighbors = 1709788
Ave neighs/atom = 87.0033
Neighbor list builds = 495
Dangerous builds not checked
Setting up Verlet run ...
  Unit style    : metal
  Current step  : 53829
  Time step     : 0.001
Per MPI rank memory allocation (min/avg/max) = 19.34 | 19.34 | 19.34 Mbytes
Step Temp Press TotEng PotEng Enthalpy 
   53829    2313.4057    668.56932   -53764.285   -59640.547   -53644.004 
   60001    2294.9381    643.19298   -53882.242   -59711.594    -53766.73 
Loop time of 1223.44 on 1 procs for 6172 steps with 19652 atoms

Performance: 0.436 ns/day, 55.062 hours/ns, 5.045 timesteps/s
99.2% CPU use with 1 MPI tasks x no OpenMP threads

MPI task timing breakdown:
Section |  min time  |  avg time  |  max time  |%varavg| %total
---------------------------------------------------------------
Pair    | 657.12     | 657.12     | 657.12     |   0.0 | 53.71
Neigh   | 532.11     | 532.11     | 532.11     |   0.0 | 43.49
Comm    | 12.004     | 12.004     | 12.004     |   0.0 |  0.98
Output  | 0.0004251  | 0.0004251  | 0.0004251  |   0.0 |  0.00
Modify  | 15.485     | 15.485     | 15.485     |   0.0 |  1.27
Other   |            | 6.729      |            |       |  0.55

Nlocal:    19652 ave 19652 max 19652 min
Histogram: 1 0 0 0 0 0 0 0 0 0
Nghost:    19467 ave 19467 max 19467 min
Histogram: 1 0 0 0 0 0 0 0 0 0
Neighs:    1.7124e+06 ave 1.7124e+06 max 1.7124e+06 min
Histogram: 1 0 0 0 0 0 0 0 0 0

Total # of neighbors = 1712395
Ave neighs/atom = 87.1359
Neighbor list builds = 6172
Dangerous builds not checked
Setting up Verlet run ...
  Unit style    : metal
  Current step  : 60001
  Time step     : 0.001
Per MPI rank memory allocation (min/avg/max) = 19.34 | 19.34 | 19.34 Mbytes
Step Temp Press TotEng PotEng Enthalpy 
   60001    2294.9381    643.19298   -53882.242   -59711.594    -53766.73 
   60003    2296.3347    545.74275   -53882.236   -59715.135   -53784.225 
   60496    2270.8964   -1614.6056   -54003.934   -59772.218   -54294.057 
Loop time of 92.5911 on 1 procs for 495 steps with 19652 atoms

Performance: 0.462 ns/day, 51.959 hours/ns, 5.346 timesteps/s
99.3% CPU use with 1 MPI tasks x no OpenMP threads

MPI task timing breakdown:
Section |  min time  |  avg time  |  max time  |%varavg| %total
---------------------------------------------------------------
Pair    | 50.289     | 50.289     | 50.289     |   0.0 | 54.31
Neigh   | 39.545     | 39.545     | 39.545     |   0.0 | 42.71
Comm    | 0.93836    | 0.93836    | 0.93836    |   0.0 |  1.01
Output  | 0.047068   | 0.047068   | 0.047068   |   0.0 |  0.05
Modify  | 1.2411     | 1.2411     | 1.2411     |   0.0 |  1.34
Other   |            | 0.53       |            |       |  0.57

Nlocal:    19652 ave 19652 max 19652 min
Histogram: 1 0 0 0 0 0 0 0 0 0
Nghost:    19434 ave 19434 max 19434 min
Histogram: 1 0 0 0 0 0 0 0 0 0
Neighs:    1.71145e+06 ave 1.71145e+06 max 1.71145e+06 min
Histogram: 1 0 0 0 0 0 0 0 0 0

Total # of neighbors = 1711451
Ave neighs/atom = 87.0879
Neighbor list builds = 495
Dangerous builds not checked
Setting up Verlet run ...
  Unit style    : metal
  Current step  : 60496
  Time step     : 0.001
Per MPI rank memory allocation (min/avg/max) = 19.34 | 19.34 | 19.34 Mbytes
Step Temp Press TotEng PotEng Enthalpy 
   60496    2270.8964   -1614.6056   -54003.934   -59772.218   -54294.057 
   66668    2240.6596    383.19875   -54169.673   -59861.153   -54101.146 
Loop time of 1189.7 on 1 procs for 6172 steps with 19652 atoms

Performance: 0.448 ns/day, 53.544 hours/ns, 5.188 timesteps/s
99.4% CPU use with 1 MPI tasks x no OpenMP threads

MPI task timing breakdown:
Section |  min time  |  avg time  |  max time  |%varavg| %total
---------------------------------------------------------------
Pair    | 638.99     | 638.99     | 638.99     |   0.0 | 53.71
Neigh   | 518.78     | 518.78     | 518.78     |   0.0 | 43.61
Comm    | 11.253     | 11.253     | 11.253     |   0.0 |  0.95
Output  | 0.00038505 | 0.00038505 | 0.00038505 |   0.0 |  0.00
Modify  | 14.388     | 14.388     | 14.388     |   0.0 |  1.21
Other   |            | 6.291      |            |       |  0.53

Nlocal:    19652 ave 19652 max 19652 min
Histogram: 1 0 0 0 0 0 0 0 0 0
Nghost:    19432 ave 19432 max 19432 min
Histogram: 1 0 0 0 0 0 0 0 0 0
Neighs:    1.71948e+06 ave 1.71948e+06 max 1.71948e+06 min
Histogram: 1 0 0 0 0 0 0 0 0 0

Total # of neighbors = 1719483
Ave neighs/atom = 87.4966
Neighbor list builds = 6172
Dangerous builds not checked
Setting up Verlet run ...
  Unit style    : metal
  Current step  : 66668
  Time step     : 0.001
Per MPI rank memory allocation (min/avg/max) = 19.34 | 19.34 | 19.34 Mbytes
Step Temp Press TotEng PotEng Enthalpy 
   66668    2240.6596    383.19875   -54169.673   -59861.153   -54101.146 
   66670    2240.4507    416.64684   -54169.666   -59860.614   -54095.157 
   67163    2206.9921     996.6388   -54313.561   -59919.522   -54135.719 
Loop time of 89.1971 on 1 procs for 495 steps with 19652 atoms

Performance: 0.479 ns/day, 50.054 hours/ns, 5.550 timesteps/s
99.2% CPU use with 1 MPI tasks x no OpenMP threads

MPI task timing breakdown:
Section |  min time  |  avg time  |  max time  |%varavg| %total
---------------------------------------------------------------
Pair    | 49.04      | 49.04      | 49.04      |   0.0 | 54.98
Neigh   | 37.634     | 37.634     | 37.634     |   0.0 | 42.19
Comm    | 0.86328    | 0.86328    | 0.86328    |   0.0 |  0.97
Output  | 0.045424   | 0.045424   | 0.045424   |   0.0 |  0.05
Modify  | 1.1275     | 1.1275     | 1.1275     |   0.0 |  1.26
Other   |            | 0.4868     |            |       |  0.55

Nlocal:    19652 ave 19652 max 19652 min
Histogram: 1 0 0 0 0 0 0 0 0 0
Nghost:    19504 ave 19504 max 19504 min
Histogram: 1 0 0 0 0 0 0 0 0 0
Neighs:    1.72391e+06 ave 1.72391e+06 max 1.72391e+06 min
Histogram: 1 0 0 0 0 0 0 0 0 0

Total # of neighbors = 1723910
Ave neighs/atom = 87.7219
Neighbor list builds = 495
Dangerous builds not checked
Setting up Verlet run ...
  Unit style    : metal
  Current step  : 67163
  Time step     : 0.001
Per MPI rank memory allocation (min/avg/max) = 19.34 | 19.34 | 19.34 Mbytes
Step Temp Press TotEng PotEng Enthalpy 
   67163    2206.9921     996.6388   -54313.561   -59919.522   -54135.719 
   73335    2176.7743   -375.62163   -54468.923   -59998.128     -54535.9 
Loop time of 1207.38 on 1 procs for 6172 steps with 19652 atoms

Performance: 0.442 ns/day, 54.340 hours/ns, 5.112 timesteps/s
99.4% CPU use with 1 MPI tasks x no OpenMP threads

MPI task timing breakdown:
Section |  min time  |  avg time  |  max time  |%varavg| %total
---------------------------------------------------------------
Pair    | 651.2      | 651.2      | 651.2      |   0.0 | 53.94
Neigh   | 523.1      | 523.1      | 523.1      |   0.0 | 43.32
Comm    | 11.623     | 11.623     | 11.623     |   0.0 |  0.96
Output  | 0.00043297 | 0.00043297 | 0.00043297 |   0.0 |  0.00
Modify  | 15.007     | 15.007     | 15.007     |   0.0 |  1.24
Other   |            | 6.453      |            |       |  0.53

Nlocal:    19652 ave 19652 max 19652 min
Histogram: 1 0 0 0 0 0 0 0 0 0
Nghost:    19481 ave 19481 max 19481 min
Histogram: 1 0 0 0 0 0 0 0 0 0
Neighs:    1.7249e+06 ave 1.7249e+06 max 1.7249e+06 min
Histogram: 1 0 0 0 0 0 0 0 0 0

Total # of neighbors = 1724900
Ave neighs/atom = 87.7722
Neighbor list builds = 6172
Dangerous builds not checked
Setting up Verlet run ...
  Unit style    : metal
  Current step  : 73335
  Time step     : 0.001
Per MPI rank memory allocation (min/avg/max) = 19.34 | 19.34 | 19.34 Mbytes
Step Temp Press TotEng PotEng Enthalpy 
   73335    2176.7743   -375.62163   -54468.923   -59998.128     -54535.9 
   73337    2176.4946   -359.27712   -54468.898   -59997.392   -54532.961 
   73830    2168.7752     69.12196   -54609.666   -60118.552   -54597.389 
Loop time of 95.1788 on 1 procs for 495 steps with 19652 atoms

Performance: 0.449 ns/day, 53.411 hours/ns, 5.201 timesteps/s
98.7% CPU use with 1 MPI tasks x no OpenMP threads

MPI task timing breakdown:
Section |  min time  |  avg time  |  max time  |%varavg| %total
---------------------------------------------------------------
Pair    | 51.853     | 51.853     | 51.853     |   0.0 | 54.48
Neigh   | 40.507     | 40.507     | 40.507     |   0.0 | 42.56
Comm    | 0.95747    | 0.95747    | 0.95747    |   0.0 |  1.01
Output  | 0.043945   | 0.043945   | 0.043945   |   0.0 |  0.05
Modify  | 1.2722     | 1.2722     | 1.2722     |   0.0 |  1.34
Other   |            | 0.5448     |            |       |  0.57

Nlocal:    19652 ave 19652 max 19652 min
Histogram: 1 0 0 0 0 0 0 0 0 0
Nghost:    19566 ave 19566 max 19566 min
Histogram: 1 0 0 0 0 0 0 0 0 0
Neighs:    1.73114e+06 ave 1.73114e+06 max 1.73114e+06 min
Histogram: 1 0 0 0 0 0 0 0 0 0

Total # of neighbors = 1731145
Ave neighs/atom = 88.09
Neighbor list builds = 495
Dangerous builds not checked
Setting up Verlet run ...
  Unit style    : metal
  Current step  : 73830
  Time step     : 0.001
Per MPI rank memory allocation (min/avg/max) = 19.34 | 19.34 | 19.34 Mbytes
Step Temp Press TotEng PotEng Enthalpy 
   73830    2168.7752     69.12196   -54609.666   -60118.552   -54597.389 
   80002    2123.3669   -990.68876   -54777.524   -60171.069   -54953.301 
Loop time of 1202.19 on 1 procs for 6172 steps with 19652 atoms

Performance: 0.444 ns/day, 54.106 hours/ns, 5.134 timesteps/s
99.3% CPU use with 1 MPI tasks x no OpenMP threads

MPI task timing breakdown:
Section |  min time  |  avg time  |  max time  |%varavg| %total
---------------------------------------------------------------
Pair    | 650.03     | 650.03     | 650.03     |   0.0 | 54.07
Neigh   | 518.83     | 518.83     | 518.83     |   0.0 | 43.16
Comm    | 11.711     | 11.711     | 11.711     |   0.0 |  0.97
Output  | 0.00028706 | 0.00028706 | 0.00028706 |   0.0 |  0.00
Modify  | 15.107     | 15.107     | 15.107     |   0.0 |  1.26
Other   |            | 6.52       |            |       |  0.54

Nlocal:    19652 ave 19652 max 19652 min
Histogram: 1 0 0 0 0 0 0 0 0 0
Nghost:    19527 ave 19527 max 19527 min
Histogram: 1 0 0 0 0 0 0 0 0 0
Neighs:    1.73286e+06 ave 1.73286e+06 max 1.73286e+06 min
Histogram: 1 0 0 0 0 0 0 0 0 0

Total # of neighbors = 1732857
Ave neighs/atom = 88.1771
Neighbor list builds = 6172
Dangerous builds not checked
Setting up Verlet run ...
  Unit style    : metal
  Current step  : 80002
  Time step     : 0.001
Per MPI rank memory allocation (min/avg/max) = 19.34 | 19.34 | 19.34 Mbytes
Step Temp Press TotEng PotEng Enthalpy 
   80002    2123.3669   -990.68876   -54777.524   -60171.069   -54953.301 
   80004     2124.501    -1028.966     -54777.5   -60173.926   -54960.069 
   80497    2095.5057   -34.231128   -54948.991   -60271.767   -54955.042 
Loop time of 95.3971 on 1 procs for 495 steps with 19652 atoms

Performance: 0.448 ns/day, 53.534 hours/ns, 5.189 timesteps/s
99.5% CPU use with 1 MPI tasks x no OpenMP threads

MPI task timing breakdown:
Section |  min time  |  avg time  |  max time  |%varavg| %total
---------------------------------------------------------------
Pair    | 52.317     | 52.317     | 52.317     |   0.0 | 54.84
Neigh   | 40.094     | 40.094     | 40.094     |   0.0 | 42.03
Comm    | 1.02       | 1.02       | 1.02       |   0.0 |  1.07
Output  | 0.081572   | 0.081572   | 0.081572   |   0.0 |  0.09
Modify  | 1.3268     | 1.3268     | 1.3268     |   0.0 |  1.39
Other   |            | 0.5574     |            |       |  0.58

Nlocal:    19652 ave 19652 max 19652 min
Histogram: 1 0 0 0 0 0 0 0 0 0
Nghost:    19551 ave 19551 max 19551 min
Histogram: 1 0 0 0 0 0 0 0 0 0
Neighs:    1.73874e+06 ave 1.73874e+06 max 1.73874e+06 min
Histogram: 1 0 0 0 0 0 0 0 0 0

Total # of neighbors = 1738738
Ave neighs/atom = 88.4764
Neighbor list builds = 495
Dangerous builds not checked
Setting up Verlet run ...
  Unit style    : metal
  Current step  : 80497
  Time step     : 0.001
Per MPI rank memory allocation (min/avg/max) = 19.34 | 19.34 | 19.34 Mbytes
Step Temp Press TotEng PotEng Enthalpy 
   80497    2095.5057   -34.231128   -54948.991   -60271.767   -54955.042 
   86669    2091.1408    59.602773   -55075.211   -60386.899   -55064.701 
Loop time of 1211.45 on 1 procs for 6172 steps with 19652 atoms

Performance: 0.440 ns/day, 54.523 hours/ns, 5.095 timesteps/s
99.2% CPU use with 1 MPI tasks x no OpenMP threads

MPI task timing breakdown:
Section |  min time  |  avg time  |  max time  |%varavg| %total
---------------------------------------------------------------
Pair    | 657.01     | 657.01     | 657.01     |   0.0 | 54.23
Neigh   | 520.47     | 520.47     | 520.47     |   0.0 | 42.96
Comm    | 11.932     | 11.932     | 11.932     |   0.0 |  0.98
Output  | 0.0004251  | 0.0004251  | 0.0004251  |   0.0 |  0.00
Modify  | 15.412     | 15.412     | 15.412     |   0.0 |  1.27
Other   |            | 6.63       |            |       |  0.55

Nlocal:    19652 ave 19652 max 19652 min
Histogram: 1 0 0 0 0 0 0 0 0 0
Nghost:    19522 ave 19522 max 19522 min
Histogram: 1 0 0 0 0 0 0 0 0 0
Neighs:    1.74301e+06 ave 1.74301e+06 max 1.74301e+06 min
Histogram: 1 0 0 0 0 0 0 0 0 0

Total # of neighbors = 1743008
Ave neighs/atom = 88.6937
Neighbor list builds = 6172
Dangerous builds not checked
Setting up Verlet run ...
  Unit style    : metal
  Current step  : 86669
  Time step     : 0.001
Per MPI rank memory allocation (min/avg/max) = 19.34 | 19.34 | 19.34 Mbytes
Step Temp Press TotEng PotEng Enthalpy 
   86669    2091.1408    59.602773   -55075.211   -60386.899   -55064.701 
   86671    2092.5206    10.248938   -55075.205   -60390.398   -55073.398 
   87164    2071.9467    551.55837   -55209.206   -60472.139   -55112.206 
Loop time of 94.0526 on 1 procs for 495 steps with 19652 atoms

Performance: 0.455 ns/day, 52.779 hours/ns, 5.263 timesteps/s
99.3% CPU use with 1 MPI tasks x no OpenMP threads

MPI task timing breakdown:
Section |  min time  |  avg time  |  max time  |%varavg| %total
---------------------------------------------------------------
Pair    | 51.865     | 51.865     | 51.865     |   0.0 | 55.14
Neigh   | 39.215     | 39.215     | 39.215     |   0.0 | 41.69
Comm    | 1.0108     | 1.0108     | 1.0108     |   0.0 |  1.07
Output  | 0.058395   | 0.058395   | 0.058395   |   0.0 |  0.06
Modify  | 1.3335     | 1.3335     | 1.3335     |   0.0 |  1.42
Other   |            | 0.5703     |            |       |  0.61

Nlocal:    19652 ave 19652 max 19652 min
Histogram: 1 0 0 0 0 0 0 0 0 0
Nghost:    19591 ave 19591 max 19591 min
Histogram: 1 0 0 0 0 0 0 0 0 0
Neighs:    1.74775e+06 ave 1.74775e+06 max 1.74775e+06 min
Histogram: 1 0 0 0 0 0 0 0 0 0

Total # of neighbors = 1747754
Ave neighs/atom = 88.9352
Neighbor list builds = 495
Dangerous builds not checked
Setting up Verlet run ...
  Unit style    : metal
  Current step  : 87164
  Time step     : 0.001
Per MPI rank memory allocation (min/avg/max) = 19.34 | 19.34 | 19.34 Mbytes
Step Temp Press TotEng PotEng Enthalpy 
   87164    2071.9467    551.55837   -55209.206   -60472.139   -55112.206 
   93336    2079.2526    464.89072   -55219.454   -60500.945   -55137.743 
Loop time of 1249 on 1 procs for 6172 steps with 19652 atoms

Performance: 0.427 ns/day, 56.213 hours/ns, 4.942 timesteps/s
99.2% CPU use with 1 MPI tasks x no OpenMP threads

MPI task timing breakdown:
Section |  min time  |  avg time  |  max time  |%varavg| %total
---------------------------------------------------------------
Pair    | 680.63     | 680.63     | 680.63     |   0.0 | 54.49
Neigh   | 530.99     | 530.99     | 530.99     |   0.0 | 42.51
Comm    | 13.1       | 13.1       | 13.1       |   0.0 |  1.05
Output  | 0.0001812  | 0.0001812  | 0.0001812  |   0.0 |  0.00
Modify  | 17.007     | 17.007     | 17.007     |   0.0 |  1.36
Other   |            | 7.263      |            |       |  0.58

Nlocal:    19652 ave 19652 max 19652 min
Histogram: 1 0 0 0 0 0 0 0 0 0
Nghost:    19562 ave 19562 max 19562 min
Histogram: 1 0 0 0 0 0 0 0 0 0
Neighs:    1.74924e+06 ave 1.74924e+06 max 1.74924e+06 min
Histogram: 1 0 0 0 0 0 0 0 0 0

Total # of neighbors = 1749236
Ave neighs/atom = 89.0106
Neighbor list builds = 6172
Dangerous builds not checked
Setting up Verlet run ...
  Unit style    : metal
  Current step  : 93336
  Time step     : 0.001
Per MPI rank memory allocation (min/avg/max) = 19.34 | 19.34 | 19.34 Mbytes
Step Temp Press TotEng PotEng Enthalpy 
   93336    2079.2526    464.89072   -55219.454   -60500.945   -55137.743 
   93338    2078.2737    515.52914   -55219.482   -60498.487   -55128.871 
   93831    2025.1885    994.48748   -55493.545   -60637.708   -55319.537 
Loop time of 91.7802 on 1 procs for 495 steps with 19652 atoms

Performance: 0.466 ns/day, 51.504 hours/ns, 5.393 timesteps/s
99.6% CPU use with 1 MPI tasks x no OpenMP threads

MPI task timing breakdown:
Section |  min time  |  avg time  |  max time  |%varavg| %total
---------------------------------------------------------------
Pair    | 50.435     | 50.435     | 50.435     |   0.0 | 54.95
Neigh   | 38.718     | 38.718     | 38.718     |   0.0 | 42.19
Comm    | 0.89341    | 0.89341    | 0.89341    |   0.0 |  0.97
Output  | 0.045094   | 0.045094   | 0.045094   |   0.0 |  0.05
Modify  | 1.1719     | 1.1719     | 1.1719     |   0.0 |  1.28
Other   |            | 0.5167     |            |       |  0.56

Nlocal:    19652 ave 19652 max 19652 min
Histogram: 1 0 0 0 0 0 0 0 0 0
Nghost:    19642 ave 19642 max 19642 min
Histogram: 1 0 0 0 0 0 0 0 0 0
Neighs:    1.75651e+06 ave 1.75651e+06 max 1.75651e+06 min
Histogram: 1 0 0 0 0 0 0 0 0 0

Total # of neighbors = 1756514
Ave neighs/atom = 89.3809
Neighbor list builds = 495
Dangerous builds not checked
Setting up Verlet run ...
  Unit style    : metal
  Current step  : 93831
  Time step     : 0.001
Per MPI rank memory allocation (min/avg/max) = 19.34 | 19.34 | 19.34 Mbytes
Step Temp Press TotEng PotEng Enthalpy 
   93831    2025.1885    994.48748   -55493.545   -60637.708   -55319.537 
  100003    2006.2735    2209.4075   -55635.513    -60731.63   -55250.503 
Loop time of 1216.63 on 1 procs for 6172 steps with 19652 atoms

Performance: 0.438 ns/day, 54.756 hours/ns, 5.073 timesteps/s
99.3% CPU use with 1 MPI tasks x no OpenMP threads

MPI task timing breakdown:
Section |  min time  |  avg time  |  max time  |%varavg| %total
---------------------------------------------------------------
Pair    | 662.65     | 662.65     | 662.65     |   0.0 | 54.47
Neigh   | 519.32     | 519.32     | 519.32     |   0.0 | 42.69
Comm    | 12.119     | 12.119     | 12.119     |   0.0 |  1.00
Output  | 0.00018811 | 0.00018811 | 0.00018811 |   0.0 |  0.00
Modify  | 15.742     | 15.742     | 15.742     |   0.0 |  1.29
Other   |            | 6.801      |            |       |  0.56

Nlocal:    19652 ave 19652 max 19652 min
Histogram: 1 0 0 0 0 0 0 0 0 0
Nghost:    19594 ave 19594 max 19594 min
Histogram: 1 0 0 0 0 0 0 0 0 0
Neighs:    1.76425e+06 ave 1.76425e+06 max 1.76425e+06 min
Histogram: 1 0 0 0 0 0 0 0 0 0

Total # of neighbors = 1764246
Ave neighs/atom = 89.7744
Neighbor list builds = 6172
Dangerous builds not checked
Setting up Verlet run ...
  Unit style    : metal
  Current step  : 100003
  Time step     : 0.001
Per MPI rank memory allocation (min/avg/max) = 19.34 | 19.34 | 19.34 Mbytes
Step Temp Press TotEng PotEng Enthalpy 
  100003    2006.2735    2209.4075   -55635.513    -60731.63   -55250.503 
  100005    2006.6678     2229.328   -55635.499   -60732.618   -55247.017 
  100498    1971.0574    1126.7991   -55805.496   -60812.161   -55609.247 
Loop time of 93.3793 on 1 procs for 495 steps with 19652 atoms

Performance: 0.458 ns/day, 52.401 hours/ns, 5.301 timesteps/s
99.7% CPU use with 1 MPI tasks x no OpenMP threads

MPI task timing breakdown:
Section |  min time  |  avg time  |  max time  |%varavg| %total
---------------------------------------------------------------
Pair    | 51.385     | 51.385     | 51.385     |   0.0 | 55.03
Neigh   | 39.441     | 39.441     | 39.441     |   0.0 | 42.24
Comm    | 0.88191    | 0.88191    | 0.88191    |   0.0 |  0.94
Output  | 0.043373   | 0.043373   | 0.043373   |   0.0 |  0.05
Modify  | 1.133      | 1.133      | 1.133      |   0.0 |  1.21
Other   |            | 0.4947     |            |       |  0.53

Nlocal:    19652 ave 19652 max 19652 min
Histogram: 1 0 0 0 0 0 0 0 0 0
Nghost:    19729 ave 19729 max 19729 min
Histogram: 1 0 0 0 0 0 0 0 0 0
Neighs:    1.76418e+06 ave 1.76418e+06 max 1.76418e+06 min
Histogram: 1 0 0 0 0 0 0 0 0 0

Total # of neighbors = 1764176
Ave neighs/atom = 89.7708
Neighbor list builds = 495
Dangerous builds not checked
Setting up Verlet run ...
  Unit style    : metal
  Current step  : 100498
  Time step     : 0.001
Per MPI rank memory allocation (min/avg/max) = 19.34 | 19.34 | 19.34 Mbytes
Step Temp Press TotEng PotEng Enthalpy 
  100498    1971.0574    1126.7991   -55805.496   -60812.161   -55609.247 
  106670    1960.1682   -1057.6818   -55815.159   -60794.165   -55999.769 
Loop time of 1214.45 on 1 procs for 6172 steps with 19652 atoms

Performance: 0.439 ns/day, 54.658 hours/ns, 5.082 timesteps/s
99.3% CPU use with 1 MPI tasks x no OpenMP threads

MPI task timing breakdown:
Section |  min time  |  avg time  |  max time  |%varavg| %total
---------------------------------------------------------------
Pair    | 663.6      | 663.6      | 663.6      |   0.0 | 54.64
Neigh   | 516.88     | 516.88     | 516.88     |   0.0 | 42.56
Comm    | 11.935     | 11.935     | 11.935     |   0.0 |  0.98
Output  | 0.00044918 | 0.00044918 | 0.00044918 |   0.0 |  0.00
Modify  | 15.338     | 15.338     | 15.338     |   0.0 |  1.26
Other   |            | 6.698      |            |       |  0.55

Nlocal:    19652 ave 19652 max 19652 min
Histogram: 1 0 0 0 0 0 0 0 0 0
Nghost:    19642 ave 19642 max 19642 min
Histogram: 1 0 0 0 0 0 0 0 0 0
Neighs:    1.7604e+06 ave 1.7604e+06 max 1.7604e+06 min
Histogram: 1 0 0 0 0 0 0 0 0 0

Total # of neighbors = 1760401
Ave neighs/atom = 89.5787
Neighbor list builds = 6172
Dangerous builds not checked
Setting up Verlet run ...
  Unit style    : metal
  Current step  : 106670
  Time step     : 0.001
Per MPI rank memory allocation (min/avg/max) = 19.34 | 19.34 | 19.34 Mbytes
Step Temp Press TotEng PotEng Enthalpy 
  106670    1960.1682   -1057.6818   -55815.159   -60794.165   -55999.769 
  106672    1959.8915   -1036.6972   -55815.164   -60793.467   -55996.111 
  107165    1917.2018    49.955883   -56125.397   -60995.265   -56116.729 
Loop time of 92.0279 on 1 procs for 495 steps with 19652 atoms

Performance: 0.465 ns/day, 51.643 hours/ns, 5.379 timesteps/s
99.0% CPU use with 1 MPI tasks x no OpenMP threads

MPI task timing breakdown:
Section |  min time  |  avg time  |  max time  |%varavg| %total
---------------------------------------------------------------
Pair    | 51.128     | 51.128     | 51.128     |   0.0 | 55.56
Neigh   | 38.14      | 38.14      | 38.14      |   0.0 | 41.44
Comm    | 0.93433    | 0.93433    | 0.93433    |   0.0 |  1.02
Output  | 0.051037   | 0.051037   | 0.051037   |   0.0 |  0.06
Modify  | 1.2368     | 1.2368     | 1.2368     |   0.0 |  1.34
Other   |            | 0.5377     |            |       |  0.58

Nlocal:    19652 ave 19652 max 19652 min
Histogram: 1 0 0 0 0 0 0 0 0 0
Nghost:    19693 ave 19693 max 19693 min
Histogram: 1 0 0 0 0 0 0 0 0 0
Neighs:    1.77055e+06 ave 1.77055e+06 max 1.77055e+06 min
Histogram: 1 0 0 0 0 0 0 0 0 0

Total # of neighbors = 1770551
Ave neighs/atom = 90.0952
Neighbor list builds = 495
Dangerous builds not checked
Setting up Verlet run ...
  Unit style    : metal
  Current step  : 107165
  Time step     : 0.001
Per MPI rank memory allocation (min/avg/max) = 19.34 | 19.34 | 19.34 Mbytes
Step Temp Press TotEng PotEng Enthalpy 
  107165    1917.2018    49.955883   -56125.397   -60995.265   -56116.729 
  113337    1887.5748   -1096.2023   -56234.642   -61029.254   -56424.728 
Loop time of 1208.82 on 1 procs for 6172 steps with 19652 atoms

Performance: 0.441 ns/day, 54.404 hours/ns, 5.106 timesteps/s
99.2% CPU use with 1 MPI tasks x no OpenMP threads

MPI task timing breakdown:
Section |  min time  |  avg time  |  max time  |%varavg| %total
---------------------------------------------------------------
Pair    | 662.17     | 662.17     | 662.17     |   0.0 | 54.78
Neigh   | 512.66     | 512.66     | 512.66     |   0.0 | 42.41
Comm    | 11.887     | 11.887     | 11.887     |   0.0 |  0.98
Output  | 0.00020194 | 0.00020194 | 0.00020194 |   0.0 |  0.00
Modify  | 15.397     | 15.397     | 15.397     |   0.0 |  1.27
Other   |            | 6.708      |            |       |  0.55

Nlocal:    19652 ave 19652 max 19652 min
Histogram: 1 0 0 0 0 0 0 0 0 0
Nghost:    19735 ave 19735 max 19735 min
Histogram: 1 0 0 0 0 0 0 0 0 0
Neighs:    1.77206e+06 ave 1.77206e+06 max 1.77206e+06 min
Histogram: 1 0 0 0 0 0 0 0 0 0

Total # of neighbors = 1772055
Ave neighs/atom = 90.1717
Neighbor list builds = 6172
Dangerous builds not checked
Setting up Verlet run ...
  Unit style    : metal
  Current step  : 113337
  Time step     : 0.001
Per MPI rank memory allocation (min/avg/max) = 19.34 | 19.34 | 19.34 Mbytes
Step Temp Press TotEng PotEng Enthalpy 
  113337    1887.5748   -1096.2023   -56234.642   -61029.254   -56424.728 
  113339    1885.7182   -1005.2529   -56234.626   -61024.523   -56408.941 
  113832    1853.5908    591.17492   -56470.525   -61178.814   -56368.561 
Loop time of 80.0361 on 1 procs for 495 steps with 19652 atoms

Performance: 0.534 ns/day, 44.914 hours/ns, 6.185 timesteps/s
99.9% CPU use with 1 MPI tasks x no OpenMP threads

MPI task timing breakdown:
Section |  min time  |  avg time  |  max time  |%varavg| %total
---------------------------------------------------------------
Pair    | 43.767     | 43.767     | 43.767     |   0.0 | 54.68
Neigh   | 34.555     | 34.555     | 34.555     |   0.0 | 43.17
Comm    | 0.55944    | 0.55944    | 0.55944    |   0.0 |  0.70
Output  | 0.040243   | 0.040243   | 0.040243   |   0.0 |  0.05
Modify  | 0.76298    | 0.76298    | 0.76298    |   0.0 |  0.95
Other   |            | 0.3519     |            |       |  0.44

Nlocal:    19652 ave 19652 max 19652 min
Histogram: 1 0 0 0 0 0 0 0 0 0
Nghost:    19789 ave 19789 max 19789 min
Histogram: 1 0 0 0 0 0 0 0 0 0
Neighs:    1.78067e+06 ave 1.78067e+06 max 1.78067e+06 min
Histogram: 1 0 0 0 0 0 0 0 0 0

Total # of neighbors = 1780668
Ave neighs/atom = 90.61
Neighbor list builds = 495
Dangerous builds not checked
Setting up Verlet run ...
  Unit style    : metal
  Current step  : 113832
  Time step     : 0.001
Per MPI rank memory allocation (min/avg/max) = 19.34 | 19.34 | 19.34 Mbytes
Step Temp Press TotEng PotEng Enthalpy 
  113832    1853.5908    591.17492   -56470.525   -61178.814   -56368.561 
  120004    1847.3697    -1159.404   -56558.386   -61250.874   -56758.356 
Loop time of 1171.12 on 1 procs for 6172 steps with 19652 atoms

Performance: 0.455 ns/day, 52.708 hours/ns, 5.270 timesteps/s
99.8% CPU use with 1 MPI tasks x no OpenMP threads

MPI task timing breakdown:
Section |  min time  |  avg time  |  max time  |%varavg| %total
---------------------------------------------------------------
Pair    | 640.64     | 640.64     | 640.64     |   0.0 | 54.70
Neigh   | 499.47     | 499.47     | 499.47     |   0.0 | 42.65
Comm    | 10.881     | 10.881     | 10.881     |   0.0 |  0.93
Output  | 0.00029111 | 0.00029111 | 0.00029111 |   0.0 |  0.00
Modify  | 14.022     | 14.022     | 14.022     |   0.0 |  1.20
Other   |            | 6.105      |            |       |  0.52

Nlocal:    19652 ave 19652 max 19652 min
Histogram: 1 0 0 0 0 0 0 0 0 0
Nghost:    19737 ave 19737 max 19737 min
Histogram: 1 0 0 0 0 0 0 0 0 0
Neighs:    1.78148e+06 ave 1.78148e+06 max 1.78148e+06 min
Histogram: 1 0 0 0 0 0 0 0 0 0

Total # of neighbors = 1781477
Ave neighs/atom = 90.6512
Neighbor list builds = 6172
Dangerous builds not checked
Setting up Verlet run ...
  Unit style    : metal
  Current step  : 120004
  Time step     : 0.001
Per MPI rank memory allocation (min/avg/max) = 19.34 | 19.34 | 19.34 Mbytes
Step Temp Press TotEng PotEng Enthalpy 
  120004    1847.3697    -1159.404   -56558.386   -61250.874   -56758.356 
  120006    1845.8594   -1063.2151   -56558.369    -61247.02   -56741.748 
  120499    1806.3513    135.99364   -56758.172   -61346.469     -56734.8 
Loop time of 99.2113 on 1 procs for 495 steps with 19652 atoms

Performance: 0.431 ns/day, 55.674 hours/ns, 4.989 timesteps/s
99.9% CPU use with 1 MPI tasks x no OpenMP threads

MPI task timing breakdown:
Section |  min time  |  avg time  |  max time  |%varavg| %total
---------------------------------------------------------------
Pair    | 55.538     | 55.538     | 55.538     |   0.0 | 55.98
Neigh   | 40.576     | 40.576     | 40.576     |   0.0 | 40.90
Comm    | 1.0724     | 1.0724     | 1.0724     |   0.0 |  1.08
Output  | 0.045538   | 0.045538   | 0.045538   |   0.0 |  0.05
Modify  | 1.3825     | 1.3825     | 1.3825     |   0.0 |  1.39
Other   |            | 0.5958     |            |       |  0.60

Nlocal:    19652 ave 19652 max 19652 min
Histogram: 1 0 0 0 0 0 0 0 0 0
Nghost:    19787 ave 19787 max 19787 min
Histogram: 1 0 0 0 0 0 0 0 0 0
Neighs:    1.78682e+06 ave 1.78682e+06 max 1.78682e+06 min
Histogram: 1 0 0 0 0 0 0 0 0 0

Total # of neighbors = 1786821
Ave neighs/atom = 90.9231
Neighbor list builds = 495
Dangerous builds not checked
Setting up Verlet run ...
  Unit style    : metal
  Current step  : 120499
  Time step     : 0.001
Per MPI rank memory allocation (min/avg/max) = 19.34 | 19.34 | 19.34 Mbytes
Step Temp Press TotEng PotEng Enthalpy 
  120499    1806.3513    135.99364   -56758.172   -61346.469     -56734.8 
  126671    1791.0155    1164.6378   -56872.209   -61421.551   -56672.639 
Loop time of 1191.28 on 1 procs for 6172 steps with 19652 atoms

Performance: 0.448 ns/day, 53.615 hours/ns, 5.181 timesteps/s
99.8% CPU use with 1 MPI tasks x no OpenMP threads

MPI task timing breakdown:
Section |  min time  |  avg time  |  max time  |%varavg| %total
---------------------------------------------------------------
Pair    | 656.2      | 656.2      | 656.2      |   0.0 | 55.08
Neigh   | 501.63     | 501.63     | 501.63     |   0.0 | 42.11
Comm    | 11.621     | 11.621     | 11.621     |   0.0 |  0.98
Output  | 0.00022197 | 0.00022197 | 0.00022197 |   0.0 |  0.00
Modify  | 15.244     | 15.244     | 15.244     |   0.0 |  1.28
Other   |            | 6.585      |            |       |  0.55

Nlocal:    19652 ave 19652 max 19652 min
Histogram: 1 0 0 0 0 0 0 0 0 0
Nghost:    19808 ave 19808 max 19808 min
Histogram: 1 0 0 0 0 0 0 0 0 0
Neighs:    1.79208e+06 ave 1.79208e+06 max 1.79208e+06 min
Histogram: 1 0 0 0 0 0 0 0 0 0

Total # of neighbors = 1792083
Ave neighs/atom = 91.1909
Neighbor list builds = 6172
Dangerous builds not checked
Setting up Verlet run ...
  Unit style    : metal
  Current step  : 126671
  Time step     : 0.001
Per MPI rank memory allocation (min/avg/max) = 19.34 | 19.34 | 19.34 Mbytes
Step Temp Press TotEng PotEng Enthalpy 
  126671    1791.0155    1164.6378   -56872.209   -61421.551   -56672.639 
  126673    1791.0717     1168.071     -56872.2   -61421.685   -56672.042 
  127166    1772.2233   -735.37566   -57054.076   -61555.684   -57179.857 
Loop time of 80.6481 on 1 procs for 495 steps with 19652 atoms

Performance: 0.530 ns/day, 45.257 hours/ns, 6.138 timesteps/s
99.8% CPU use with 1 MPI tasks x no OpenMP threads

MPI task timing breakdown:
Section |  min time  |  avg time  |  max time  |%varavg| %total
---------------------------------------------------------------
Pair    | 44.964     | 44.964     | 44.964     |   0.0 | 55.75
Neigh   | 33.883     | 33.883     | 33.883     |   0.0 | 42.01
Comm    | 0.58988    | 0.58988    | 0.58988    |   0.0 |  0.73
Output  | 0.041749   | 0.041749   | 0.041749   |   0.0 |  0.05
Modify  | 0.79804    | 0.79804    | 0.79804    |   0.0 |  0.99
Other   |            | 0.3712     |            |       |  0.46

Nlocal:    19652 ave 19652 max 19652 min
Histogram: 1 0 0 0 0 0 0 0 0 0
Nghost:    19822 ave 19822 max 19822 min
Histogram: 1 0 0 0 0 0 0 0 0 0
Neighs:    1.7957e+06 ave 1.7957e+06 max 1.7957e+06 min
Histogram: 1 0 0 0 0 0 0 0 0 0

Total # of neighbors = 1795699
Ave neighs/atom = 91.3749
Neighbor list builds = 495
Dangerous builds not checked
Setting up Verlet run ...
  Unit style    : metal
  Current step  : 127166
  Time step     : 0.001
Per MPI rank memory allocation (min/avg/max) = 19.34 | 19.34 | 19.34 Mbytes
Step Temp Press TotEng PotEng Enthalpy 
  127166    1772.2233   -735.37566   -57054.076   -61555.684   -57179.857 
  133338    1743.8479   -297.44572   -57185.673   -61615.205    -57236.44 
Loop time of 1195.51 on 1 procs for 6172 steps with 19652 atoms

Performance: 0.446 ns/day, 53.805 hours/ns, 5.163 timesteps/s
99.7% CPU use with 1 MPI tasks x no OpenMP threads

MPI task timing breakdown:
Section |  min time  |  avg time  |  max time  |%varavg| %total
---------------------------------------------------------------
Pair    | 659.56     | 659.56     | 659.56     |   0.0 | 55.17
Neigh   | 502.19     | 502.19     | 502.19     |   0.0 | 42.01
Comm    | 11.733     | 11.733     | 11.733     |   0.0 |  0.98
Output  | 0.00035882 | 0.00035882 | 0.00035882 |   0.0 |  0.00
Modify  | 15.378     | 15.378     | 15.378     |   0.0 |  1.29
Other   |            | 6.643      |            |       |  0.56

Nlocal:    19652 ave 19652 max 19652 min
Histogram: 1 0 0 0 0 0 0 0 0 0
Nghost:    19851 ave 19851 max 19851 min
Histogram: 1 0 0 0 0 0 0 0 0 0
Neighs:    1.79864e+06 ave 1.79864e+06 max 1.79864e+06 min
Histogram: 1 0 0 0 0 0 0 0 0 0

Total # of neighbors = 1798645
Ave neighs/atom = 91.5248
Neighbor list builds = 6172
Dangerous builds not checked
Setting up Verlet run ...
  Unit style    : metal
  Current step  : 133338
  Time step     : 0.001
Per MPI rank memory allocation (min/avg/max) = 19.34 | 19.34 | 19.34 Mbytes
Step Temp Press TotEng PotEng Enthalpy 
  133338    1743.8479   -297.44572   -57185.673   -61615.205    -57236.44 
  133340    1745.1625   -331.20949   -57185.673   -61618.545   -57242.202 
  133833    1720.8407     455.1542   -57369.745   -61740.837    -57292.36 
Loop time of 91.4521 on 1 procs for 495 steps with 19652 atoms

Performance: 0.468 ns/day, 51.320 hours/ns, 5.413 timesteps/s
99.7% CPU use with 1 MPI tasks x no OpenMP threads

MPI task timing breakdown:
Section |  min time  |  avg time  |  max time  |%varavg| %total
---------------------------------------------------------------
Pair    | 50.864     | 50.864     | 50.864     |   0.0 | 55.62
Neigh   | 38.06      | 38.06      | 38.06      |   0.0 | 41.62
Comm    | 0.8677     | 0.8677     | 0.8677     |   0.0 |  0.95
Output  | 0.048689   | 0.048689   | 0.048689   |   0.0 |  0.05
Modify  | 1.117      | 1.117      | 1.117      |   0.0 |  1.22
Other   |            | 0.494      |            |       |  0.54

Nlocal:    19652 ave 19652 max 19652 min
Histogram: 1 0 0 0 0 0 0 0 0 0
Nghost:    19903 ave 19903 max 19903 min
Histogram: 1 0 0 0 0 0 0 0 0 0
Neighs:    1.80639e+06 ave 1.80639e+06 max 1.80639e+06 min
Histogram: 1 0 0 0 0 0 0 0 0 0

Total # of neighbors = 1806390
Ave neighs/atom = 91.9189
Neighbor list builds = 495
Dangerous builds not checked
Setting up Verlet run ...
  Unit style    : metal
  Current step  : 133833
  Time step     : 0.001
Per MPI rank memory allocation (min/avg/max) = 19.34 | 19.34 | 19.34 Mbytes
Step Temp Press TotEng PotEng Enthalpy 
  133833    1720.8407     455.1542   -57369.745   -61740.837    -57292.36 
  140005    1695.9324   -1439.4814   -57494.239   -61802.062   -57739.072 
Loop time of 1140.28 on 1 procs for 6172 steps with 19652 atoms

Performance: 0.468 ns/day, 51.320 hours/ns, 5.413 timesteps/s
99.8% CPU use with 1 MPI tasks x no OpenMP threads

MPI task timing breakdown:
Section |  min time  |  avg time  |  max time  |%varavg| %total
---------------------------------------------------------------
Pair    | 626.15     | 626.15     | 626.15     |   0.0 | 54.91
Neigh   | 485.87     | 485.87     | 485.87     |   0.0 | 42.61
Comm    | 9.8978     | 9.8978     | 9.8978     |   0.0 |  0.87
Output  | 0.00018907 | 0.00018907 | 0.00018907 |   0.0 |  0.00
Modify  | 12.672     | 12.672     | 12.672     |   0.0 |  1.11
Other   |            | 5.684      |            |       |  0.50

Nlocal:    19652 ave 19652 max 19652 min
Histogram: 1 0 0 0 0 0 0 0 0 0
Nghost:    19914 ave 19914 max 19914 min
Histogram: 1 0 0 0 0 0 0 0 0 0
Neighs:    1.80448e+06 ave 1.80448e+06 max 1.80448e+06 min
Histogram: 1 0 0 0 0 0 0 0 0 0

Total # of neighbors = 1804484
Ave neighs/atom = 91.8219
Neighbor list builds = 6172
Dangerous builds not checked
Setting up Verlet run ...
  Unit style    : metal
  Current step  : 140005
  Time step     : 0.001
Per MPI rank memory allocation (min/avg/max) = 19.34 | 19.34 | 19.34 Mbytes
Step Temp Press TotEng PotEng Enthalpy 
  140005    1695.9324   -1439.4814   -57494.239   -61802.062   -57739.072 
  140007    1696.9808   -1463.5714   -57494.238   -61804.724   -57743.168 
  140500    1654.9683    281.80649   -57685.439   -61889.209   -57637.708 
Loop time of 79.3027 on 1 procs for 495 steps with 19652 atoms

Performance: 0.539 ns/day, 44.502 hours/ns, 6.242 timesteps/s
99.9% CPU use with 1 MPI tasks x no OpenMP threads

MPI task timing breakdown:
Section |  min time  |  avg time  |  max time  |%varavg| %total
---------------------------------------------------------------
Pair    | 43.755     | 43.755     | 43.755     |   0.0 | 55.17
Neigh   | 33.843     | 33.843     | 33.843     |   0.0 | 42.68
Comm    | 0.55747    | 0.55747    | 0.55747    |   0.0 |  0.70
Output  | 0.040335   | 0.040335   | 0.040335   |   0.0 |  0.05
Modify  | 0.76736    | 0.76736    | 0.76736    |   0.0 |  0.97
Other   |            | 0.3401     |            |       |  0.43

Nlocal:    19652 ave 19652 max 19652 min
Histogram: 1 0 0 0 0 0 0 0 0 0
Nghost:    19884 ave 19884 max 19884 min
Histogram: 1 0 0 0 0 0 0 0 0 0
Neighs:    1.81238e+06 ave 1.81238e+06 max 1.81238e+06 min
Histogram: 1 0 0 0 0 0 0 0 0 0

Total # of neighbors = 1812384
Ave neighs/atom = 92.2239
Neighbor list builds = 495
Dangerous builds not checked
Setting up Verlet run ...
  Unit style    : metal
  Current step  : 140500
  Time step     : 0.001
Per MPI rank memory allocation (min/avg/max) = 19.34 | 19.34 | 19.34 Mbytes
Step Temp Press TotEng PotEng Enthalpy 
  140500    1654.9683    281.80649   -57685.439   -61889.209   -57637.708 
  146672    1656.6001   -487.20142   -57780.653   -61988.568   -57863.032 
Loop time of 1209.19 on 1 procs for 6172 steps with 19652 atoms

Performance: 0.441 ns/day, 54.421 hours/ns, 5.104 timesteps/s
99.6% CPU use with 1 MPI tasks x no OpenMP threads

MPI task timing breakdown:
Section |  min time  |  avg time  |  max time  |%varavg| %total
---------------------------------------------------------------
Pair    | 667.52     | 667.52     | 667.52     |   0.0 | 55.20
Neigh   | 509.75     | 509.75     | 509.75     |   0.0 | 42.16
Comm    | 11.306     | 11.306     | 11.306     |   0.0 |  0.94
Output  | 0.00026894 | 0.00026894 | 0.00026894 |   0.0 |  0.00
Modify  | 14.359     | 14.359     | 14.359     |   0.0 |  1.19
Other   |            | 6.26       |            |       |  0.52

Nlocal:    19652 ave 19652 max 19652 min
Histogram: 1 0 0 0 0 0 0 0 0 0
Nghost:    19844 ave 19844 max 19844 min
Histogram: 1 0 0 0 0 0 0 0 0 0
Neighs:    1.81526e+06 ave 1.81526e+06 max 1.81526e+06 min
Histogram: 1 0 0 0 0 0 0 0 0 0

Total # of neighbors = 1815262
Ave neighs/atom = 92.3703
Neighbor list builds = 6172
Dangerous builds not checked
Setting up Verlet run ...
  Unit style    : metal
  Current step  : 146672
  Time step     : 0.001
Per MPI rank memory allocation (min/avg/max) = 19.34 | 19.34 | 19.34 Mbytes
Step Temp Press TotEng PotEng Enthalpy 
  146672    1656.6001   -487.20142   -57780.653   -61988.568   -57863.032 
  146674    1657.6846   -524.78771   -57780.663   -61991.333   -57869.397 
  147167     1627.303    964.41662   -57988.676   -62122.174   -57826.316 
Loop time of 87.4123 on 1 procs for 495 steps with 19652 atoms

Performance: 0.489 ns/day, 49.053 hours/ns, 5.663 timesteps/s
99.5% CPU use with 1 MPI tasks x no OpenMP threads

MPI task timing breakdown:
Section |  min time  |  avg time  |  max time  |%varavg| %total
---------------------------------------------------------------
Pair    | 48.861     | 48.861     | 48.861     |   0.0 | 55.90
Neigh   | 36.076     | 36.076     | 36.076     |   0.0 | 41.27
Comm    | 0.84889    | 0.84889    | 0.84889    |   0.0 |  0.97
Output  | 0.040753   | 0.040753   | 0.040753   |   0.0 |  0.05
Modify  | 1.0875     | 1.0875     | 1.0875     |   0.0 |  1.24
Other   |            | 0.4981     |            |       |  0.57

Nlocal:    19652 ave 19652 max 19652 min
Histogram: 1 0 0 0 0 0 0 0 0 0
Nghost:    20019 ave 20019 max 20019 min
Histogram: 1 0 0 0 0 0 0 0 0 0
Neighs:    1.82336e+06 ave 1.82336e+06 max 1.82336e+06 min
Histogram: 1 0 0 0 0 0 0 0 0 0

Total # of neighbors = 1823356
Ave neighs/atom = 92.7822
Neighbor list builds = 495
Dangerous builds not checked
Setting up Verlet run ...
  Unit style    : metal
  Current step  : 147167
  Time step     : 0.001
Per MPI rank memory allocation (min/avg/max) = 19.34 | 19.34 | 19.34 Mbytes
Step Temp Press TotEng PotEng Enthalpy 
  147167     1627.303    964.41662   -57988.676   -62122.174   -57826.316 
  153339    1592.5323    -1715.507   -58077.089   -62122.266   -58366.302 
Loop time of 1192.49 on 1 procs for 6172 steps with 19652 atoms

Performance: 0.447 ns/day, 53.669 hours/ns, 5.176 timesteps/s
99.8% CPU use with 1 MPI tasks x no OpenMP threads

MPI task timing breakdown:
Section |  min time  |  avg time  |  max time  |%varavg| %total
---------------------------------------------------------------
Pair    | 661.12     | 661.12     | 661.12     |   0.0 | 55.44
Neigh   | 499.73     | 499.73     | 499.73     |   0.0 | 41.91
Comm    | 11.141     | 11.141     | 11.141     |   0.0 |  0.93
Output  | 0.00044799 | 0.00044799 | 0.00044799 |   0.0 |  0.00
Modify  | 14.235     | 14.235     | 14.235     |   0.0 |  1.19
Other   |            | 6.263      |            |       |  0.53

Nlocal:    19652 ave 19652 max 19652 min
Histogram: 1 0 0 0 0 0 0 0 0 0
Nghost:    19941 ave 19941 max 19941 min
Histogram: 1 0 0 0 0 0 0 0 0 0
Neighs:    1.82005e+06 ave 1.82005e+06 max 1.82005e+06 min
Histogram: 1 0 0 0 0 0 0 0 0 0

Total # of neighbors = 1820051
Ave neighs/atom = 92.614
Neighbor list builds = 6172
Dangerous builds not checked
Setting up Verlet run ...
  Unit style    : metal
  Current step  : 153339
  Time step     : 0.001
Per MPI rank memory allocation (min/avg/max) = 19.34 | 19.34 | 19.34 Mbytes
Step Temp Press TotEng PotEng Enthalpy 
  153339    1592.5323    -1715.507   -58077.089   -62122.266   -58366.302 
  153341    1592.0636   -1673.8676    -58077.08   -62121.067   -58359.273 
  153834    1560.7307    -1173.661   -58275.944   -62240.342   -58473.271 
Loop time of 95.2551 on 1 procs for 495 steps with 19652 atoms

Performance: 0.449 ns/day, 53.454 hours/ns, 5.197 timesteps/s
99.3% CPU use with 1 MPI tasks x no OpenMP threads

MPI task timing breakdown:
Section |  min time  |  avg time  |  max time  |%varavg| %total
---------------------------------------------------------------
Pair    | 53.233     | 53.233     | 53.233     |   0.0 | 55.88
Neigh   | 39.372     | 39.372     | 39.372     |   0.0 | 41.33
Comm    | 0.92187    | 0.92187    | 0.92187    |   0.0 |  0.97
Output  | 0.047069   | 0.047069   | 0.047069   |   0.0 |  0.05
Modify  | 1.1715     | 1.1715     | 1.1715     |   0.0 |  1.23
Other   |            | 0.5105     |            |       |  0.54

Nlocal:    19652 ave 19652 max 19652 min
Histogram: 1 0 0 0 0 0 0 0 0 0
Nghost:    20035 ave 20035 max 20035 min
Histogram: 1 0 0 0 0 0 0 0 0 0
Neighs:    1.82495e+06 ave 1.82495e+06 max 1.82495e+06 min
Histogram: 1 0 0 0 0 0 0 0 0 0

Total # of neighbors = 1824953
Ave neighs/atom = 92.8635
Neighbor list builds = 495
Dangerous builds not checked
Setting up Verlet run ...
  Unit style    : metal
  Current step  : 153834
  Time step     : 0.001
Per MPI rank memory allocation (min/avg/max) = 19.34 | 19.34 | 19.34 Mbytes
Step Temp Press TotEng PotEng Enthalpy 
  153834    1560.7307    -1173.661   -58275.944   -62240.342   -58473.271 
  160006    1565.2664   -711.83105   -58380.419   -62356.338   -58499.705 
Loop time of 1217.68 on 1 procs for 6172 steps with 19652 atoms

Performance: 0.438 ns/day, 54.803 hours/ns, 5.069 timesteps/s
99.1% CPU use with 1 MPI tasks x no OpenMP threads

MPI task timing breakdown:
Section |  min time  |  avg time  |  max time  |%varavg| %total
---------------------------------------------------------------
Pair    | 676.47     | 676.47     | 676.47     |   0.0 | 55.55
Neigh   | 507.42     | 507.42     | 507.42     |   0.0 | 41.67
Comm    | 11.965     | 11.965     | 11.965     |   0.0 |  0.98
Output  | 0.0006249  | 0.0006249  | 0.0006249  |   0.0 |  0.00
Modify  | 15.157     | 15.157     | 15.157     |   0.0 |  1.24
Other   |            | 6.676      |            |       |  0.55

Nlocal:    19652 ave 19652 max 19652 min
Histogram: 1 0 0 0 0 0 0 0 0 0
Nghost:    19937 ave 19937 max 19937 min
Histogram: 1 0 0 0 0 0 0 0 0 0
Neighs:    1.83123e+06 ave 1.83123e+06 max 1.83123e+06 min
Histogram: 1 0 0 0 0 0 0 0 0 0

Total # of neighbors = 1831228
Ave neighs/atom = 93.1828
Neighbor list builds = 6172
Dangerous builds not checked
Setting up Verlet run ...
  Unit style    : metal
  Current step  : 160006
  Time step     : 0.001
Per MPI rank memory allocation (min/avg/max) = 19.34 | 19.34 | 19.34 Mbytes
Step Temp Press TotEng PotEng Enthalpy 
  160006    1565.2664   -711.83105   -58380.419   -62356.338   -58499.705 
  160008    1564.8096   -691.80069   -58380.434   -62355.193   -58496.363 
  160501    1505.4452    1038.1992   -58623.506   -62447.474   -58450.301 
Loop time of 95.0671 on 1 procs for 495 steps with 19652 atoms

Performance: 0.450 ns/day, 53.349 hours/ns, 5.207 timesteps/s
98.4% CPU use with 1 MPI tasks x no OpenMP threads

MPI task timing breakdown:
Section |  min time  |  avg time  |  max time  |%varavg| %total
---------------------------------------------------------------
Pair    | 53.227     | 53.227     | 53.227     |   0.0 | 55.99
Neigh   | 39.261     | 39.261     | 39.261     |   0.0 | 41.30
Comm    | 0.89971    | 0.89971    | 0.89971    |   0.0 |  0.95
Output  | 0.047497   | 0.047497   | 0.047497   |   0.0 |  0.05
Modify  | 1.1253     | 1.1253     | 1.1253     |   0.0 |  1.18
Other   |            | 0.5062     |            |       |  0.53

Nlocal:    19652 ave 19652 max 19652 min
Histogram: 1 0 0 0 0 0 0 0 0 0
Nghost:    20035 ave 20035 max 20035 min
Histogram: 1 0 0 0 0 0 0 0 0 0
Neighs:    1.83902e+06 ave 1.83902e+06 max 1.83902e+06 min
Histogram: 1 0 0 0 0 0 0 0 0 0

Total # of neighbors = 1839024
Ave neighs/atom = 93.5795
Neighbor list builds = 495
Dangerous builds not checked
Setting up Verlet run ...
  Unit style    : metal
  Current step  : 160501
  Time step     : 0.001
Per MPI rank memory allocation (min/avg/max) = 19.34 | 19.34 | 19.34 Mbytes
Step Temp Press TotEng PotEng Enthalpy 
  160501    1505.4452    1038.1992   -58623.506   -62447.474   -58450.301 
  166673    1508.3488      2173.02   -58693.174   -62524.517   -58331.597 
Loop time of 1210.41 on 1 procs for 6172 steps with 19652 atoms

Performance: 0.441 ns/day, 54.476 hours/ns, 5.099 timesteps/s
99.3% CPU use with 1 MPI tasks x no OpenMP threads

MPI task timing breakdown:
Section |  min time  |  avg time  |  max time  |%varavg| %total
---------------------------------------------------------------
Pair    | 675.13     | 675.13     | 675.13     |   0.0 | 55.78
Neigh   | 501.7      | 501.7      | 501.7      |   0.0 | 41.45
Comm    | 11.834     | 11.834     | 11.834     |   0.0 |  0.98
Output  | 0.0002532  | 0.0002532  | 0.0002532  |   0.0 |  0.00
Modify  | 15.15      | 15.15      | 15.15      |   0.0 |  1.25
Other   |            | 6.594      |            |       |  0.54

Nlocal:    19652 ave 19652 max 19652 min
Histogram: 1 0 0 0 0 0 0 0 0 0
Nghost:    20008 ave 20008 max 20008 min
Histogram: 1 0 0 0 0 0 0 0 0 0
Neighs:    1.84362e+06 ave 1.84362e+06 max 1.84362e+06 min
Histogram: 1 0 0 0 0 0 0 0 0 0

Total # of neighbors = 1843625
Ave neighs/atom = 93.8136
Neighbor list builds = 6172
Dangerous builds not checked
Setting up Verlet run ...
  Unit style    : metal
  Current step  : 166673
  Time step     : 0.001
Per MPI rank memory allocation (min/avg/max) = 19.34 | 19.34 | 19.34 Mbytes
Step Temp Press TotEng PotEng Enthalpy 
  166673    1508.3488      2173.02   -58693.174   -62524.517   -58331.597 
  166675    1509.4602    2116.2998   -58693.186   -62527.352   -58341.047 
  167168    1482.5563    427.48734   -58899.408   -62665.236   -58828.389 
Loop time of 92.3398 on 1 procs for 495 steps with 19652 atoms

Performance: 0.463 ns/day, 51.818 hours/ns, 5.361 timesteps/s
99.5% CPU use with 1 MPI tasks x no OpenMP threads

MPI task timing breakdown:
Section |  min time  |  avg time  |  max time  |%varavg| %total
---------------------------------------------------------------
Pair    | 52.034     | 52.034     | 52.034     |   0.0 | 56.35
Neigh   | 37.655     | 37.655     | 37.655     |   0.0 | 40.78
Comm    | 0.91399    | 0.91399    | 0.91399    |   0.0 |  0.99
Output  | 0.04238    | 0.04238    | 0.04238    |   0.0 |  0.05
Modify  | 1.1713     | 1.1713     | 1.1713     |   0.0 |  1.27
Other   |            | 0.5236     |            |       |  0.57

Nlocal:    19652 ave 19652 max 19652 min
Histogram: 1 0 0 0 0 0 0 0 0 0
Nghost:    20021 ave 20021 max 20021 min
Histogram: 1 0 0 0 0 0 0 0 0 0
Neighs:    1.8462e+06 ave 1.8462e+06 max 1.8462e+06 min
Histogram: 1 0 0 0 0 0 0 0 0 0

Total # of neighbors = 1846197
Ave neighs/atom = 93.9445
Neighbor list builds = 495
Dangerous builds not checked
Setting up Verlet run ...
  Unit style    : metal
  Current step  : 167168
  Time step     : 0.001
Per MPI rank memory allocation (min/avg/max) = 19.34 | 19.34 | 19.34 Mbytes
Step Temp Press TotEng PotEng Enthalpy 
  167168    1482.5563    427.48734   -58899.408   -62665.236   -58828.389 
  173340    1455.1056   -1318.3468   -59061.544   -62757.645   -59280.408 
Loop time of 1209.87 on 1 procs for 6172 steps with 19652 atoms

Performance: 0.441 ns/day, 54.452 hours/ns, 5.101 timesteps/s
99.0% CPU use with 1 MPI tasks x no OpenMP threads

MPI task timing breakdown:
Section |  min time  |  avg time  |  max time  |%varavg| %total
---------------------------------------------------------------
Pair    | 676.55     | 676.55     | 676.55     |   0.0 | 55.92
Neigh   | 499.56     | 499.56     | 499.56     |   0.0 | 41.29
Comm    | 11.861     | 11.861     | 11.861     |   0.0 |  0.98
Output  | 0.00028682 | 0.00028682 | 0.00028682 |   0.0 |  0.00
Modify  | 15.229     | 15.229     | 15.229     |   0.0 |  1.26
Other   |            | 6.677      |            |       |  0.55

Nlocal:    19652 ave 19652 max 19652 min
Histogram: 1 0 0 0 0 0 0 0 0 0
Nghost:    20081 ave 20081 max 20081 min
Histogram: 1 0 0 0 0 0 0 0 0 0
Neighs:    1.847e+06 ave 1.847e+06 max 1.847e+06 min
Histogram: 1 0 0 0 0 0 0 0 0 0

Total # of neighbors = 1846998
Ave neighs/atom = 93.9852
Neighbor list builds = 6172
Dangerous builds not checked
Setting up Verlet run ...
  Unit style    : metal
  Current step  : 173340
  Time step     : 0.001
Per MPI rank memory allocation (min/avg/max) = 19.34 | 19.34 | 19.34 Mbytes
Step Temp Press TotEng PotEng Enthalpy 
  173340    1455.1056   -1318.3468   -59061.544   -62757.645   -59280.408 
  173342    1456.1755   -1374.8346   -59061.552    -62760.37   -59289.793 
  173835    1414.1466   -343.84261    -59254.13   -62846.191    -59311.02 
Loop time of 99.2903 on 1 procs for 495 steps with 19652 atoms

Performance: 0.431 ns/day, 55.718 hours/ns, 4.985 timesteps/s
99.0% CPU use with 1 MPI tasks x no OpenMP threads

MPI task timing breakdown:
Section |  min time  |  avg time  |  max time  |%varavg| %total
---------------------------------------------------------------
Pair    | 56.353     | 56.353     | 56.353     |   0.0 | 56.76
Neigh   | 39.913     | 39.913     | 39.913     |   0.0 | 40.20
Comm    | 1.0724     | 1.0724     | 1.0724     |   0.0 |  1.08
Output  | 0.046278   | 0.046278   | 0.046278   |   0.0 |  0.05
Modify  | 1.3118     | 1.3118     | 1.3118     |   0.0 |  1.32
Other   |            | 0.5943     |            |       |  0.60

Nlocal:    19652 ave 19652 max 19652 min
Histogram: 1 0 0 0 0 0 0 0 0 0
Nghost:    20063 ave 20063 max 20063 min
Histogram: 1 0 0 0 0 0 0 0 0 0
Neighs:    1.8538e+06 ave 1.8538e+06 max 1.8538e+06 min
Histogram: 1 0 0 0 0 0 0 0 0 0

Total # of neighbors = 1853803
Ave neighs/atom = 94.3315
Neighbor list builds = 495
Dangerous builds not checked
Setting up Verlet run ...
  Unit style    : metal
  Current step  : 173835
  Time step     : 0.001
Per MPI rank memory allocation (min/avg/max) = 19.34 | 19.34 | 19.34 Mbytes
Step Temp Press TotEng PotEng Enthalpy 
  173835    1414.1466   -343.84261    -59254.13   -62846.191    -59311.02 
  180007    1415.3172    1219.6901   -59347.654   -62942.689   -59146.583 
Loop time of 1207.53 on 1 procs for 6172 steps with 19652 atoms

Performance: 0.442 ns/day, 54.346 hours/ns, 5.111 timesteps/s
99.4% CPU use with 1 MPI tasks x no OpenMP threads

MPI task timing breakdown:
Section |  min time  |  avg time  |  max time  |%varavg| %total
---------------------------------------------------------------
Pair    | 676.61     | 676.61     | 676.61     |   0.0 | 56.03
Neigh   | 498.12     | 498.12     | 498.12     |   0.0 | 41.25
Comm    | 11.611     | 11.611     | 11.611     |   0.0 |  0.96
Output  | 0.00028419 | 0.00028419 | 0.00028419 |   0.0 |  0.00
Modify  | 14.676     | 14.676     | 14.676     |   0.0 |  1.22
Other   |            | 6.51       |            |       |  0.54

Nlocal:    19652 ave 19652 max 19652 min
Histogram: 1 0 0 0 0 0 0 0 0 0
Nghost:    20087 ave 20087 max 20087 min
Histogram: 1 0 0 0 0 0 0 0 0 0
Neighs:    1.86003e+06 ave 1.86003e+06 max 1.86003e+06 min
Histogram: 1 0 0 0 0 0 0 0 0 0

Total # of neighbors = 1860029
Ave neighs/atom = 94.6483
Neighbor list builds = 6172
Dangerous builds not checked
Setting up Verlet run ...
  Unit style    : metal
  Current step  : 180007
  Time step     : 0.001
Per MPI rank memory allocation (min/avg/max) = 19.34 | 19.34 | 19.34 Mbytes
Step Temp Press TotEng PotEng Enthalpy 
  180007    1415.3172    1219.6901   -59347.654   -62942.689   -59146.583 
  180009    1415.5961    1184.2082   -59347.671   -62943.414   -59152.449 
  180502    1368.8133    945.06877   -59579.467   -63056.378   -59424.157 
Loop time of 93.0943 on 1 procs for 495 steps with 19652 atoms

Performance: 0.459 ns/day, 52.241 hours/ns, 5.317 timesteps/s
99.4% CPU use with 1 MPI tasks x no OpenMP threads

MPI task timing breakdown:
Section |  min time  |  avg time  |  max time  |%varavg| %total
---------------------------------------------------------------
Pair    | 52.643     | 52.643     | 52.643     |   0.0 | 56.55
Neigh   | 37.841     | 37.841     | 37.841     |   0.0 | 40.65
Comm    | 0.90364    | 0.90364    | 0.90364    |   0.0 |  0.97
Output  | 0.049795   | 0.049795   | 0.049795   |   0.0 |  0.05
Modify  | 1.1506     | 1.1506     | 1.1506     |   0.0 |  1.24
Other   |            | 0.5067     |            |       |  0.54

Nlocal:    19652 ave 19652 max 19652 min
Histogram: 1 0 0 0 0 0 0 0 0 0
Nghost:    20174 ave 20174 max 20174 min
Histogram: 1 0 0 0 0 0 0 0 0 0
Neighs:    1.86521e+06 ave 1.86521e+06 max 1.86521e+06 min
Histogram: 1 0 0 0 0 0 0 0 0 0

Total # of neighbors = 1865209
Ave neighs/atom = 94.9119
Neighbor list builds = 495
Dangerous builds not checked
Setting up Verlet run ...
  Unit style    : metal
  Current step  : 180502
  Time step     : 0.001
Per MPI rank memory allocation (min/avg/max) = 19.34 | 19.34 | 19.34 Mbytes
Step Temp Press TotEng PotEng Enthalpy 
  180502    1368.8133    945.06877   -59579.467   -63056.378   -59424.157 
  186674    1358.7507    161.72384   -59697.517   -63148.868   -59670.963 
Loop time of 1223.11 on 1 procs for 6172 steps with 19652 atoms

Performance: 0.436 ns/day, 55.047 hours/ns, 5.046 timesteps/s
98.9% CPU use with 1 MPI tasks x no OpenMP threads

MPI task timing breakdown:
Section |  min time  |  avg time  |  max time  |%varavg| %total
---------------------------------------------------------------
Pair    | 688.45     | 688.45     | 688.45     |   0.0 | 56.29
Neigh   | 499.52     | 499.52     | 499.52     |   0.0 | 40.84
Comm    | 12.391     | 12.391     | 12.391     |   0.0 |  1.01
Output  | 0.00027013 | 0.00027013 | 0.00027013 |   0.0 |  0.00
Modify  | 15.786     | 15.786     | 15.786     |   0.0 |  1.29
Other   |            | 6.956      |            |       |  0.57

Nlocal:    19652 ave 19652 max 19652 min
Histogram: 1 0 0 0 0 0 0 0 0 0
Nghost:    20118 ave 20118 max 20118 min
Histogram: 1 0 0 0 0 0 0 0 0 0
Neighs:    1.86684e+06 ave 1.86684e+06 max 1.86684e+06 min
Histogram: 1 0 0 0 0 0 0 0 0 0

Total # of neighbors = 1866835
Ave neighs/atom = 94.9947
Neighbor list builds = 6172
Dangerous builds not checked
Setting up Verlet run ...
  Unit style    : metal
  Current step  : 186674
  Time step     : 0.001
Per MPI rank memory allocation (min/avg/max) = 19.34 | 19.34 | 19.34 Mbytes
Step Temp Press TotEng PotEng Enthalpy 
  186674    1358.7507    161.72384   -59697.517   -63148.868   -59670.963 
  186676    1357.9909     181.8362   -59697.525   -63146.945   -59667.668 
  187169    1314.5058   -683.61844   -59917.851   -63256.816   -60029.841 
Loop time of 93.4549 on 1 procs for 495 steps with 19652 atoms

Performance: 0.458 ns/day, 52.444 hours/ns, 5.297 timesteps/s
99.5% CPU use with 1 MPI tasks x no OpenMP threads

MPI task timing breakdown:
Section |  min time  |  avg time  |  max time  |%varavg| %total
---------------------------------------------------------------
Pair    | 53.203     | 53.203     | 53.203     |   0.0 | 56.93
Neigh   | 37.523     | 37.523     | 37.523     |   0.0 | 40.15
Comm    | 0.94377    | 0.94377    | 0.94377    |   0.0 |  1.01
Output  | 0.042652   | 0.042652   | 0.042652   |   0.0 |  0.05
Modify  | 1.2099     | 1.2099     | 1.2099     |   0.0 |  1.29
Other   |            | 0.5328     |            |       |  0.57

Nlocal:    19652 ave 19652 max 19652 min
Histogram: 1 0 0 0 0 0 0 0 0 0
Nghost:    20128 ave 20128 max 20128 min
Histogram: 1 0 0 0 0 0 0 0 0 0
Neighs:    1.87093e+06 ave 1.87093e+06 max 1.87093e+06 min
Histogram: 1 0 0 0 0 0 0 0 0 0

Total # of neighbors = 1870934
Ave neighs/atom = 95.2032
Neighbor list builds = 495
Dangerous builds not checked
Setting up Verlet run ...
  Unit style    : metal
  Current step  : 187169
  Time step     : 0.001
Per MPI rank memory allocation (min/avg/max) = 19.34 | 19.34 | 19.34 Mbytes
Step Temp Press TotEng PotEng Enthalpy 
  187169    1314.5058   -683.61844   -59917.851   -63256.816   -60029.841 
  193341    1284.4802   -1785.2356   -60060.106   -63322.803    -60352.28 
Loop time of 1220.87 on 1 procs for 6172 steps with 19652 atoms

Performance: 0.437 ns/day, 54.947 hours/ns, 5.055 timesteps/s
99.2% CPU use with 1 MPI tasks x no OpenMP threads

MPI task timing breakdown:
Section |  min time  |  avg time  |  max time  |%varavg| %total
---------------------------------------------------------------
Pair    | 687.58     | 687.58     | 687.58     |   0.0 | 56.32
Neigh   | 498.17     | 498.17     | 498.17     |   0.0 | 40.80
Comm    | 12.392     | 12.392     | 12.392     |   0.0 |  1.02
Output  | 0.00059891 | 0.00059891 | 0.00059891 |   0.0 |  0.00
Modify  | 15.816     | 15.816     | 15.816     |   0.0 |  1.30
Other   |            | 6.909      |            |       |  0.57

Nlocal:    19652 ave 19652 max 19652 min
Histogram: 1 0 0 0 0 0 0 0 0 0
Nghost:    20162 ave 20162 max 20162 min
Histogram: 1 0 0 0 0 0 0 0 0 0
Neighs:    1.87174e+06 ave 1.87174e+06 max 1.87174e+06 min
Histogram: 1 0 0 0 0 0 0 0 0 0

Total # of neighbors = 1871741
Ave neighs/atom = 95.2443
Neighbor list builds = 6172
Dangerous builds not checked
Setting up Verlet run ...
  Unit style    : metal
  Current step  : 193341
  Time step     : 0.001
Per MPI rank memory allocation (min/avg/max) = 19.34 | 19.34 | 19.34 Mbytes
Step Temp Press TotEng PotEng Enthalpy 
  193341    1284.4802   -1785.2356   -60060.106   -63322.803    -60352.28 
  193343    1284.1767    -1769.939    -60060.09   -63322.015    -60349.76 
  193836    1254.1574    396.67701   -60228.432   -63414.106   -60163.773 
Loop time of 96.9137 on 1 procs for 495 steps with 19652 atoms

Performance: 0.441 ns/day, 54.385 hours/ns, 5.108 timesteps/s
98.9% CPU use with 1 MPI tasks x no OpenMP threads

MPI task timing breakdown:
Section |  min time  |  avg time  |  max time  |%varavg| %total
---------------------------------------------------------------
Pair    | 55.049     | 55.049     | 55.049     |   0.0 | 56.80
Neigh   | 38.717     | 38.717     | 38.717     |   0.0 | 39.95
Comm    | 1.0827     | 1.0827     | 1.0827     |   0.0 |  1.12
Output  | 0.050336   | 0.050336   | 0.050336   |   0.0 |  0.05
Modify  | 1.3956     | 1.3956     | 1.3956     |   0.0 |  1.44
Other   |            | 0.6188     |            |       |  0.64

Nlocal:    19652 ave 19652 max 19652 min
Histogram: 1 0 0 0 0 0 0 0 0 0
Nghost:    20185 ave 20185 max 20185 min
Histogram: 1 0 0 0 0 0 0 0 0 0
Neighs:    1.88052e+06 ave 1.88052e+06 max 1.88052e+06 min
Histogram: 1 0 0 0 0 0 0 0 0 0

Total # of neighbors = 1880524
Ave neighs/atom = 95.6912
Neighbor list builds = 495
Dangerous builds not checked
Setting up Verlet run ...
  Unit style    : metal
  Current step  : 193836
  Time step     : 0.001
Per MPI rank memory allocation (min/avg/max) = 19.34 | 19.34 | 19.34 Mbytes
Step Temp Press TotEng PotEng Enthalpy 
  193836    1254.1574    396.67701   -60228.432   -63414.106   -60163.773 
  200008    1240.2767   -1300.2728     -60389.8   -63540.216   -60601.514 
Loop time of 1225.33 on 1 procs for 6172 steps with 19652 atoms

Performance: 0.435 ns/day, 55.147 hours/ns, 5.037 timesteps/s
99.2% CPU use with 1 MPI tasks x no OpenMP threads

MPI task timing breakdown:
Section |  min time  |  avg time  |  max time  |%varavg| %total
---------------------------------------------------------------
Pair    | 692.84     | 692.84     | 692.84     |   0.0 | 56.54
Neigh   | 497.26     | 497.26     | 497.26     |   0.0 | 40.58
Comm    | 12.461     | 12.461     | 12.461     |   0.0 |  1.02
Output  | 0.00019002 | 0.00019002 | 0.00019002 |   0.0 |  0.00
Modify  | 15.799     | 15.799     | 15.799     |   0.0 |  1.29
Other   |            | 6.969      |            |       |  0.57

Nlocal:    19652 ave 19652 max 19652 min
Histogram: 1 0 0 0 0 0 0 0 0 0
Nghost:    20192 ave 20192 max 20192 min
Histogram: 1 0 0 0 0 0 0 0 0 0
Neighs:    1.88132e+06 ave 1.88132e+06 max 1.88132e+06 min
Histogram: 1 0 0 0 0 0 0 0 0 0

Total # of neighbors = 1881321
Ave neighs/atom = 95.7318
Neighbor list builds = 6172
Dangerous builds not checked
Setting up Verlet run ...
  Unit style    : metal
  Current step  : 200008
  Time step     : 0.001
Per MPI rank memory allocation (min/avg/max) = 19.34 | 19.34 | 19.34 Mbytes
Step Temp Press TotEng PotEng Enthalpy 
  200008    1240.2767   -1300.2728     -60389.8   -63540.216   -60601.514 
  200010    1239.4875   -1263.2052   -60389.789     -63538.2   -60595.467 
  200503    1219.9264   -132.07857   -60571.437   -63670.162    -60592.86 
Loop time of 89.2466 on 1 procs for 495 steps with 19652 atoms

Performance: 0.479 ns/day, 50.082 hours/ns, 5.546 timesteps/s
99.7% CPU use with 1 MPI tasks x no OpenMP threads

MPI task timing breakdown:
Section |  min time  |  avg time  |  max time  |%varavg| %total
---------------------------------------------------------------
Pair    | 50.503     | 50.503     | 50.503     |   0.0 | 56.59
Neigh   | 36.46      | 36.46      | 36.46      |   0.0 | 40.85
Comm    | 0.78286    | 0.78286    | 0.78286    |   0.0 |  0.88
Output  | 0.040241   | 0.040241   | 0.040241   |   0.0 |  0.05
Modify  | 1.0227     | 1.0227     | 1.0227     |   0.0 |  1.15
Other   |            | 0.4379     |            |       |  0.49

Nlocal:    19652 ave 19652 max 19652 min
Histogram: 1 0 0 0 0 0 0 0 0 0
Nghost:    20234 ave 20234 max 20234 min
Histogram: 1 0 0 0 0 0 0 0 0 0
Neighs:    1.88819e+06 ave 1.88819e+06 max 1.88819e+06 min
Histogram: 1 0 0 0 0 0 0 0 0 0

Total # of neighbors = 1888192
Ave neighs/atom = 96.0814
Neighbor list builds = 495
Dangerous builds not checked
Setting up Verlet run ...
  Unit style    : metal
  Current step  : 200503
  Time step     : 0.001
Per MPI rank memory allocation (min/avg/max) = 19.34 | 19.34 | 19.34 Mbytes
Step Temp Press TotEng PotEng Enthalpy 
  200503    1219.9264   -132.07857   -60571.437   -63670.162    -60592.86 
  206675     1199.448   -985.46184   -60753.299   -63800.006   -60912.737 
Loop time of 1218.81 on 1 procs for 6172 steps with 19652 atoms

Performance: 0.438 ns/day, 54.854 hours/ns, 5.064 timesteps/s
99.4% CPU use with 1 MPI tasks x no OpenMP threads

MPI task timing breakdown:
Section |  min time  |  avg time  |  max time  |%varavg| %total
---------------------------------------------------------------
Pair    | 669.62     | 669.62     | 669.62     |   0.0 | 54.94
Neigh   | 517.29     | 517.29     | 517.29     |   0.0 | 42.44
Comm    | 11.212     | 11.212     | 11.212     |   0.0 |  0.92
Output  | 0.00032282 | 0.00032282 | 0.00032282 |   0.0 |  0.00
Modify  | 14.473     | 14.473     | 14.473     |   0.0 |  1.19
Other   |            | 6.219      |            |       |  0.51

Nlocal:    19652 ave 19652 max 19652 min
Histogram: 1 0 0 0 0 0 0 0 0 0
Nghost:    20269 ave 20269 max 20269 min
Histogram: 1 0 0 0 0 0 0 0 0 0
Neighs:    1.89304e+06 ave 1.89304e+06 max 1.89304e+06 min
Histogram: 1 0 0 0 0 0 0 0 0 0

Total # of neighbors = 1893042
Ave neighs/atom = 96.3282
Neighbor list builds = 6172
Dangerous builds not checked
Setting up Verlet run ...
  Unit style    : metal
  Current step  : 206675
  Time step     : 0.001
[...]
99.5% CPU use with 1 MPI tasks x no OpenMP threads

MPI task timing breakdown:
Section |  min time  |  avg time  |  max time  |%varavg| %total
---------------------------------------------------------------
Pair    | 54.612     | 54.612     | 54.612     |   0.0 | 56.52
Neigh   | 39.567     | 39.567     | 39.567     |   0.0 | 40.95
Comm    | 0.84474    | 0.84474    | 0.84474    |   0.0 |  0.87
Output  | 0.046337   | 0.046337   | 0.046337   |   0.0 |  0.05
Modify  | 1.0537     | 1.0537     | 1.0537     |   0.0 |  1.09
Other   |            | 0.493      |            |       |  0.51

Nlocal:    19652 ave 19652 max 19652 min
Histogram: 1 0 0 0 0 0 0 0 0 0
Nghost:    20907 ave 20907 max 20907 min
Histogram: 1 0 0 0 0 0 0 0 0 0
Neighs:    2.03364e+06 ave 2.03364e+06 max 2.03364e+06 min
Histogram: 1 0 0 0 0 0 0 0 0 0

Total # of neighbors = 2033644
Ave neighs/atom = 103.483
Neighbor list builds = 495
Dangerous builds not checked
Setting up Verlet run ...
  Unit style    : metal
  Current step  : 307175
  Time step     : 0.001
Per MPI rank memory allocation (min/avg/max) = 19.35 | 19.35 | 19.35 Mbytes
Step Temp Press TotEng PotEng Enthalpy 
  307175    422.45368    520.42783   -65943.863   -67016.934   -65865.631 
  313347    398.34914    776.90856   -66080.055   -67091.898   -65963.481 
Loop time of 1277.98 on 1 procs for 6172 steps with 19652 atoms

Performance: 0.417 ns/day, 57.517 hours/ns, 4.829 timesteps/s
99.1% CPU use with 1 MPI tasks x no OpenMP threads

MPI task timing breakdown:
Section |  min time  |  avg time  |  max time  |%varavg| %total
---------------------------------------------------------------
Pair    | 723.86     | 723.86     | 723.86     |   0.0 | 56.64
Neigh   | 517.62     | 517.62     | 517.62     |   0.0 | 40.50
Comm    | 12.971     | 12.971     | 12.971     |   0.0 |  1.01
Output  | 0.00021601 | 0.00021601 | 0.00021601 |   0.0 |  0.00
Modify  | 16.231     | 16.231     | 16.231     |   0.0 |  1.27
Other   |            | 7.298      |            |       |  0.57

Nlocal:    19652 ave 19652 max 19652 min
Histogram: 1 0 0 0 0 0 0 0 0 0
Nghost:    20941 ave 20941 max 20941 min
Histogram: 1 0 0 0 0 0 0 0 0 0
Neighs:    2.03699e+06 ave 2.03699e+06 max 2.03699e+06 min
Histogram: 1 0 0 0 0 0 0 0 0 0

Total # of neighbors = 2036994
Ave neighs/atom = 103.653
Neighbor list builds = 6172
Dangerous builds not checked
Setting up Verlet run ...
  Unit style    : metal
  Current step  : 313347
  Time step     : 0.001
Per MPI rank memory allocation (min/avg/max) = 19.35 | 19.35 | 19.35 Mbytes
Step Temp Press TotEng PotEng Enthalpy 
  313347    398.34914    776.90856   -66080.055   -67091.898   -65963.481 
  313349    398.46468    770.58645   -66080.053    -67092.19   -65964.428 
  313842    369.93164    139.68922   -66223.556   -67163.216   -66202.618 
Loop time of 92.5214 on 1 procs for 495 steps with 19652 atoms

Performance: 0.462 ns/day, 51.920 hours/ns, 5.350 timesteps/s
99.7% CPU use with 1 MPI tasks x no OpenMP threads

MPI task timing breakdown:
Section |  min time  |  avg time  |  max time  |%varavg| %total
---------------------------------------------------------------
Pair    | 51.768     | 51.768     | 51.768     |   0.0 | 55.95
Neigh   | 38.672     | 38.672     | 38.672     |   0.0 | 41.80
Comm    | 0.7141     | 0.7141     | 0.7141     |   0.0 |  0.77
Output  | 0.045757   | 0.045757   | 0.045757   |   0.0 |  0.05
Modify  | 0.88887    | 0.88887    | 0.88887    |   0.0 |  0.96
Other   |            | 0.4331     |            |       |  0.47

Nlocal:    19652 ave 19652 max 19652 min
Histogram: 1 0 0 0 0 0 0 0 0 0
Nghost:    20957 ave 20957 max 20957 min
Histogram: 1 0 0 0 0 0 0 0 0 0
Neighs:    2.04015e+06 ave 2.04015e+06 max 2.04015e+06 min
Histogram: 1 0 0 0 0 0 0 0 0 0

Total # of neighbors = 2040151
Ave neighs/atom = 103.814
Neighbor list builds = 495
Dangerous builds not checked
Setting up Verlet run ...
  Unit style    : metal
  Current step  : 313842
  Time step     : 0.001
Per MPI rank memory allocation (min/avg/max) = 19.35 | 19.35 | 19.35 Mbytes
Step Temp Press TotEng PotEng Enthalpy 
  313842    369.93164    139.68922   -66223.556   -67163.216   -66202.618 
  320014    349.84292   -801.12334   -66347.725   -67236.358   -66467.701 
Loop time of 1249.51 on 1 procs for 6172 steps with 19652 atoms

Performance: 0.427 ns/day, 56.236 hours/ns, 4.940 timesteps/s
98.7% CPU use with 1 MPI tasks x no OpenMP threads

MPI task timing breakdown:
Section |  min time  |  avg time  |  max time  |%varavg| %total
---------------------------------------------------------------
Pair    | 707.11     | 707.11     | 707.11     |   0.0 | 56.59
Neigh   | 508.86     | 508.86     | 508.86     |   0.0 | 40.72
Comm    | 11.894     | 11.894     | 11.894     |   0.0 |  0.95
Output  | 0.00019002 | 0.00019002 | 0.00019002 |   0.0 |  0.00
Modify  | 15.043     | 15.043     | 15.043     |   0.0 |  1.20
Other   |            | 6.6        |            |       |  0.53

Nlocal:    19652 ave 19652 max 19652 min
Histogram: 1 0 0 0 0 0 0 0 0 0
Nghost:    20972 ave 20972 max 20972 min
Histogram: 1 0 0 0 0 0 0 0 0 0
Neighs:    2.04186e+06 ave 2.04186e+06 max 2.04186e+06 min
Histogram: 1 0 0 0 0 0 0 0 0 0

Total # of neighbors = 2041860
Ave neighs/atom = 103.901
Neighbor list builds = 6172
Dangerous builds not checked
Setting up Verlet run ...
  Unit style    : metal
  Current step  : 320014
  Time step     : 0.001
Per MPI rank memory allocation (min/avg/max) = 19.35 | 19.35 | 19.35 Mbytes
Step Temp Press TotEng PotEng Enthalpy 
  320014    349.84292   -801.12334   -66347.725   -67236.358   -66467.701 
  320016    349.69753   -792.53931   -66347.725   -67235.988   -66466.416 
  320509    320.26687    899.98781   -66494.128   -67307.635   -66359.745 
Loop time of 101.209 on 1 procs for 495 steps with 19652 atoms

Performance: 0.423 ns/day, 56.795 hours/ns, 4.891 timesteps/s
99.7% CPU use with 1 MPI tasks x no OpenMP threads

MPI task timing breakdown:
Section |  min time  |  avg time  |  max time  |%varavg| %total
---------------------------------------------------------------
Pair    | 57.353     | 57.353     | 57.353     |   0.0 | 56.67
Neigh   | 40.777     | 40.777     | 40.777     |   0.0 | 40.29
Comm    | 1.0571     | 1.0571     | 1.0571     |   0.0 |  1.04
Output  | 0.04212    | 0.04212    | 0.04212    |   0.0 |  0.04
Modify  | 1.3974     | 1.3974     | 1.3974     |   0.0 |  1.38
Other   |            | 0.5829     |            |       |  0.58

Nlocal:    19652 ave 19652 max 19652 min
Histogram: 1 0 0 0 0 0 0 0 0 0
Nghost:    20918 ave 20918 max 20918 min
Histogram: 1 0 0 0 0 0 0 0 0 0
Neighs:    2.04897e+06 ave 2.04897e+06 max 2.04897e+06 min
Histogram: 1 0 0 0 0 0 0 0 0 0

Total # of neighbors = 2048969
Ave neighs/atom = 104.263
Neighbor list builds = 495
Dangerous builds not checked
Setting up Verlet run ...
  Unit style    : metal
  Current step  : 320509
  Time step     : 0.001
Per MPI rank memory allocation (min/avg/max) = 19.35 | 19.35 | 19.35 Mbytes
Step Temp Press TotEng PotEng Enthalpy 
  320509    320.26687    899.98781   -66494.128   -67307.635   -66359.745 
  326681    302.16753    991.77096   -66625.598   -67393.131   -66477.786 
Loop time of 1237.27 on 1 procs for 6172 steps with 19652 atoms

Performance: 0.431 ns/day, 55.685 hours/ns, 4.988 timesteps/s
98.9% CPU use with 1 MPI tasks x no OpenMP threads

MPI task timing breakdown:
Section |  min time  |  avg time  |  max time  |%varavg| %total
---------------------------------------------------------------
Pair    | 701.61     | 701.61     | 701.61     |   0.0 | 56.71
Neigh   | 502.34     | 502.34     | 502.34     |   0.0 | 40.60
Comm    | 11.768     | 11.768     | 11.768     |   0.0 |  0.95
Output  | 0.00045705 | 0.00045705 | 0.00045705 |   0.0 |  0.00
Modify  | 15.04      | 15.04      | 15.04      |   0.0 |  1.22
Other   |            | 6.518      |            |       |  0.53

Nlocal:    19652 ave 19652 max 19652 min
Histogram: 1 0 0 0 0 0 0 0 0 0
Nghost:    20971 ave 20971 max 20971 min
Histogram: 1 0 0 0 0 0 0 0 0 0
Neighs:    2.0535e+06 ave 2.0535e+06 max 2.0535e+06 min
Histogram: 1 0 0 0 0 0 0 0 0 0

Total # of neighbors = 2053497
Ave neighs/atom = 104.493
Neighbor list builds = 6172
Dangerous builds not checked
Setting up Verlet run ...
  Unit style    : metal
  Current step  : 326681
  Time step     : 0.001
Per MPI rank memory allocation (min/avg/max) = 19.35 | 19.35 | 19.35 Mbytes
Step Temp Press TotEng PotEng Enthalpy 
  326681    302.16753    991.77096   -66625.598   -67393.131   -66477.786 
  326683    302.23837    986.71563   -66625.601   -67393.314   -66478.542 
  327176    273.96315    -541.1545   -66765.314   -67461.205   -66845.941 
Loop time of 105.067 on 1 procs for 495 steps with 19652 atoms

Performance: 0.407 ns/day, 58.960 hours/ns, 4.711 timesteps/s
98.1% CPU use with 1 MPI tasks x no OpenMP threads

MPI task timing breakdown:
Section |  min time  |  avg time  |  max time  |%varavg| %total
---------------------------------------------------------------
Pair    | 59.753     | 59.753     | 59.753     |   0.0 | 56.87
Neigh   | 41.837     | 41.837     | 41.837     |   0.0 | 39.82
Comm    | 1.2105     | 1.2105     | 1.2105     |   0.0 |  1.15
Output  | 0.042235   | 0.042235   | 0.042235   |   0.0 |  0.04
Modify  | 1.5469     | 1.5469     | 1.5469     |   0.0 |  1.47
Other   |            | 0.6768     |            |       |  0.64

Nlocal:    19652 ave 19652 max 19652 min
Histogram: 1 0 0 0 0 0 0 0 0 0
Nghost:    20996 ave 20996 max 20996 min
Histogram: 1 0 0 0 0 0 0 0 0 0
Neighs:    2.05432e+06 ave 2.05432e+06 max 2.05432e+06 min
Histogram: 1 0 0 0 0 0 0 0 0 0

Total # of neighbors = 2054319
Ave neighs/atom = 104.535
Neighbor list builds = 495
Dangerous builds not checked
Setting up Verlet run ...
  Unit style    : metal
  Current step  : 327176
  Time step     : 0.001
Per MPI rank memory allocation (min/avg/max) = 19.35 | 19.35 | 19.35 Mbytes
Step Temp Press TotEng PotEng Enthalpy 
  327176    273.96315    -541.1545   -66765.314   -67461.205   -66845.941 
  333348    249.21229    1127.7173   -66888.576   -67521.598   -66720.975 
Loop time of 1241.61 on 1 procs for 6172 steps with 19652 atoms

Performance: 0.429 ns/day, 55.880 hours/ns, 4.971 timesteps/s
99.2% CPU use with 1 MPI tasks x no OpenMP threads

MPI task timing breakdown:
Section |  min time  |  avg time  |  max time  |%varavg| %total
---------------------------------------------------------------
Pair    | 707.07     | 707.07     | 707.07     |   0.0 | 56.95
Neigh   | 500.45     | 500.45     | 500.45     |   0.0 | 40.31
Comm    | 12.011     | 12.011     | 12.011     |   0.0 |  0.97
Output  | 0.00037789 | 0.00037789 | 0.00037789 |   0.0 |  0.00
Modify  | 15.35      | 15.35      | 15.35      |   0.0 |  1.24
Other   |            | 6.722      |            |       |  0.54

Nlocal:    19652 ave 19652 max 19652 min
Histogram: 1 0 0 0 0 0 0 0 0 0
Nghost:    21012 ave 21012 max 21012 min
Histogram: 1 0 0 0 0 0 0 0 0 0
Neighs:    2.06013e+06 ave 2.06013e+06 max 2.06013e+06 min
Histogram: 1 0 0 0 0 0 0 0 0 0

Total # of neighbors = 2060132
Ave neighs/atom = 104.831
Neighbor list builds = 6172
Dangerous builds not checked
Setting up Verlet run ...
  Unit style    : metal
  Current step  : 333348
  Time step     : 0.001
Per MPI rank memory allocation (min/avg/max) = 19.73 | 19.73 | 19.73 Mbytes
Step Temp Press TotEng PotEng Enthalpy 
  333348    249.21229    1127.7173   -66888.576   -67521.598   -66720.975 
  333350    248.96929    1132.5073   -66888.576    -67520.98   -66720.262 
  333843    225.15283     461.4014   -67028.261    -67600.17   -66959.772 
Loop time of 108.221 on 1 procs for 495 steps with 19652 atoms

Performance: 0.395 ns/day, 60.730 hours/ns, 4.574 timesteps/s
98.6% CPU use with 1 MPI tasks x no OpenMP threads

MPI task timing breakdown:
Section |  min time  |  avg time  |  max time  |%varavg| %total
---------------------------------------------------------------
Pair    | 61.584     | 61.584     | 61.584     |   0.0 | 56.91
Neigh   | 42.001     | 42.001     | 42.001     |   0.0 | 38.81
Comm    | 1.2318     | 1.2318     | 1.2318     |   0.0 |  1.14
Output  | 1.1715     | 1.1715     | 1.1715     |   0.0 |  1.08
Modify  | 1.5453     | 1.5453     | 1.5453     |   0.0 |  1.43
Other   |            | 0.6872     |            |       |  0.64

Nlocal:    19652 ave 19652 max 19652 min
Histogram: 1 0 0 0 0 0 0 0 0 0
Nghost:    21025 ave 21025 max 21025 min
Histogram: 1 0 0 0 0 0 0 0 0 0
Neighs:    2.0638e+06 ave 2.0638e+06 max 2.0638e+06 min
Histogram: 1 0 0 0 0 0 0 0 0 0

Total # of neighbors = 2063803
Ave neighs/atom = 105.017
Neighbor list builds = 495
Dangerous builds not checked
Setting up Verlet run ...
  Unit style    : metal
  Current step  : 333843
  Time step     : 0.001
Per MPI rank memory allocation (min/avg/max) = 19.73 | 19.73 | 19.73 Mbytes
Step Temp Press TotEng PotEng Enthalpy 
  333843    225.15283     461.4014   -67028.261    -67600.17   -66959.772 
  340015    199.09851    235.03736    -67167.94   -67673.669   -67133.104 
Loop time of 1288.54 on 1 procs for 6172 steps with 19652 atoms

Performance: 0.414 ns/day, 57.992 hours/ns, 4.790 timesteps/s
99.4% CPU use with 1 MPI tasks x no OpenMP threads

MPI task timing breakdown:
Section |  min time  |  avg time  |  max time  |%varavg| %total
---------------------------------------------------------------
Pair    | 739.68     | 739.68     | 739.68     |   0.0 | 57.40
Neigh   | 509.93     | 509.93     | 509.93     |   0.0 | 39.57
Comm    | 13.752     | 13.752     | 13.752     |   0.0 |  1.07
Output  | 0.00039911 | 0.00039911 | 0.00039911 |   0.0 |  0.00
Modify  | 17.286     | 17.286     | 17.286     |   0.0 |  1.34
Other   |            | 7.886      |            |       |  0.61

Nlocal:    19652 ave 19652 max 19652 min
Histogram: 1 0 0 0 0 0 0 0 0 0
Nghost:    21032 ave 21032 max 21032 min
Histogram: 1 0 0 0 0 0 0 0 0 0
Neighs:    2.06671e+06 ave 2.06671e+06 max 2.06671e+06 min
Histogram: 1 0 0 0 0 0 0 0 0 0

Total # of neighbors = 2066714
Ave neighs/atom = 105.166
Neighbor list builds = 6172
Dangerous builds not checked
Setting up Verlet run ...
  Unit style    : metal
  Current step  : 340015
  Time step     : 0.001
Per MPI rank memory allocation (min/avg/max) = 19.73 | 19.73 | 19.73 Mbytes
Step Temp Press TotEng PotEng Enthalpy 
  340015    199.09851    235.03736    -67167.94   -67673.669   -67133.104 
  340017    199.23202    227.51948    -67167.94   -67674.007   -67134.218 
  340510     175.5932    90.940431   -67289.476   -67735.499   -67276.014 
Loop time of 95.7853 on 1 procs for 495 steps with 19652 atoms

Performance: 0.446 ns/day, 53.752 hours/ns, 5.168 timesteps/s
99.8% CPU use with 1 MPI tasks x no OpenMP threads

MPI task timing breakdown:
Section |  min time  |  avg time  |  max time  |%varavg| %total
---------------------------------------------------------------
Pair    | 54.35      | 54.35      | 54.35      |   0.0 | 56.74
Neigh   | 38.899     | 38.899     | 38.899     |   0.0 | 40.61
Comm    | 0.86617    | 0.86617    | 0.86617    |   0.0 |  0.90
Output  | 0.056512   | 0.056512   | 0.056512   |   0.0 |  0.06
Modify  | 1.0814     | 1.0814     | 1.0814     |   0.0 |  1.13
Other   |            | 0.5323     |            |       |  0.56

Nlocal:    19652 ave 19652 max 19652 min
Histogram: 1 0 0 0 0 0 0 0 0 0
Nghost:    21061 ave 21061 max 21061 min
Histogram: 1 0 0 0 0 0 0 0 0 0
Neighs:    2.06948e+06 ave 2.06948e+06 max 2.06948e+06 min
Histogram: 1 0 0 0 0 0 0 0 0 0

Total # of neighbors = 2069482
Ave neighs/atom = 105.306
Neighbor list builds = 495
Dangerous builds not checked
Setting up Verlet run ...
  Unit style    : metal
  Current step  : 340510
  Time step     : 0.001
Per MPI rank memory allocation (min/avg/max) = 19.73 | 19.73 | 19.73 Mbytes
Step Temp Press TotEng PotEng Enthalpy 
  340510     175.5932    90.940431   -67289.476   -67735.499   -67276.014 
  346682    150.57914   -121.20251   -67421.754   -67804.239   -67439.673 
Loop time of 1260.88 on 1 procs for 6172 steps with 19652 atoms

Performance: 0.423 ns/day, 56.747 hours/ns, 4.895 timesteps/s
99.4% CPU use with 1 MPI tasks x no OpenMP threads

MPI task timing breakdown:
Section |  min time  |  avg time  |  max time  |%varavg| %total
---------------------------------------------------------------
Pair    | 723.58     | 723.58     | 723.58     |   0.0 | 57.39
Neigh   | 500.65     | 500.65     | 500.65     |   0.0 | 39.71
Comm    | 12.847     | 12.847     | 12.847     |   0.0 |  1.02
Output  | 0.000283   | 0.000283   | 0.000283   |   0.0 |  0.00
Modify  | 16.223     | 16.223     | 16.223     |   0.0 |  1.29
Other   |            | 7.586      |            |       |  0.60

Nlocal:    19652 ave 19652 max 19652 min
Histogram: 1 0 0 0 0 0 0 0 0 0
Nghost:    21062 ave 21062 max 21062 min
Histogram: 1 0 0 0 0 0 0 0 0 0
Neighs:    2.07305e+06 ave 2.07305e+06 max 2.07305e+06 min
Histogram: 1 0 0 0 0 0 0 0 0 0

Total # of neighbors = 2073051
Ave neighs/atom = 105.488
Neighbor list builds = 6172
Dangerous builds not checked
Setting up Verlet run ...
  Unit style    : metal
  Current step  : 346682
  Time step     : 0.001
Per MPI rank memory allocation (min/avg/max) = 19.73 | 19.73 | 19.73 Mbytes
Step Temp Press TotEng PotEng Enthalpy 
  346682    150.57914   -121.20251   -67421.754   -67804.239   -67439.673 
  346684     150.6124   -123.60026   -67421.755   -67804.324   -67440.028 
  347177    127.31038    118.34523   -67542.148   -67865.528   -67524.679 
Loop time of 98.7208 on 1 procs for 495 steps with 19652 atoms

Performance: 0.433 ns/day, 55.399 hours/ns, 5.014 timesteps/s
99.9% CPU use with 1 MPI tasks x no OpenMP threads

MPI task timing breakdown:
Section |  min time  |  avg time  |  max time  |%varavg| %total
---------------------------------------------------------------
Pair    | 57.101     | 57.101     | 57.101     |   0.0 | 57.84
Neigh   | 39.094     | 39.094     | 39.094     |   0.0 | 39.60
Comm    | 0.87058    | 0.87058    | 0.87058    |   0.0 |  0.88
Output  | 0.043545   | 0.043545   | 0.043545   |   0.0 |  0.04
Modify  | 1.0864     | 1.0864     | 1.0864     |   0.0 |  1.10
Other   |            | 0.5247     |            |       |  0.53

Nlocal:    19652 ave 19652 max 19652 min
Histogram: 1 0 0 0 0 0 0 0 0 0
Nghost:    21093 ave 21093 max 21093 min
Histogram: 1 0 0 0 0 0 0 0 0 0
Neighs:    2.07706e+06 ave 2.07706e+06 max 2.07706e+06 min
Histogram: 1 0 0 0 0 0 0 0 0 0

Total # of neighbors = 2077063
Ave neighs/atom = 105.692
Neighbor list builds = 495
Dangerous builds not checked
Setting up Verlet run ...
  Unit style    : metal
  Current step  : 347177
  Time step     : 0.001
Per MPI rank memory allocation (min/avg/max) = 19.73 | 19.73 | 19.73 Mbytes
Step Temp Press TotEng PotEng Enthalpy 
  347177    127.31038    118.34523   -67542.148   -67865.528   -67524.679 
  353349    100.55075   -354.38031    -67681.98   -67937.388   -67734.226 
Loop time of 1292.88 on 1 procs for 6172 steps with 19652 atoms

Performance: 0.412 ns/day, 58.187 hours/ns, 4.774 timesteps/s
98.9% CPU use with 1 MPI tasks x no OpenMP threads

MPI task timing breakdown:
Section |  min time  |  avg time  |  max time  |%varavg| %total
---------------------------------------------------------------
Pair    | 747.16     | 747.16     | 747.16     |   0.0 | 57.79
Neigh   | 506.37     | 506.37     | 506.37     |   0.0 | 39.17
Comm    | 14         | 14         | 14         |   0.0 |  1.08
Output  | 0.00064707 | 0.00064707 | 0.00064707 |   0.0 |  0.00
Modify  | 17.349     | 17.349     | 17.349     |   0.0 |  1.34
Other   |            | 8.002      |            |       |  0.62

Nlocal:    19652 ave 19652 max 19652 min
Histogram: 1 0 0 0 0 0 0 0 0 0
Nghost:    21055 ave 21055 max 21055 min
Histogram: 1 0 0 0 0 0 0 0 0 0
Neighs:    2.08028e+06 ave 2.08028e+06 max 2.08028e+06 min
Histogram: 1 0 0 0 0 0 0 0 0 0

Total # of neighbors = 2080276
Ave neighs/atom = 105.856
Neighbor list builds = 6172
Dangerous builds not checked
Total wall time: 18:53:05
