LAMMPS (12 Dec 2018)
Lattice spacing in x,y,z = 4 4 4
Created orthogonal box = (0 0 0) to (68 68 68)
  1 by 1 by 2 MPI processor grid
Created 19652 atoms
  Time spent = 0.00195599 secs
Setting atom values ...
  417 settings made for type/fraction
Neighbor list info ...
  update every 1 steps, delay 0 steps, check no
  max neighbors/atom: 2000, page size: 100000
  master list distance cutoff = 8.5
  ghost atom cutoff = 8.5
  binsize = 4.25, bins = 16 16 16
  1 neighbor lists, perpetual/occasional/extra = 1 0 0
  (1) pair eam/alloy, perpetual
      attributes: half, newton on
      pair build: half/bin/atomonly/newton
      stencil: half/bin/3d/newton
      bin: standard
Setting up Verlet run ...
  Unit style    : metal
  Current step  : 0
  Time step     : 0.001
Per MPI rank memory allocation (min/avg/max) = 11.15 | 11.15 | 11.15 Mbytes
Step Temp Press TotEng PotEng Enthalpy 
       0          300     281057.6   -21441.367   -22203.394     33717.04 
    1000    165.53116    278738.89   -21441.154   -21861.618    33262.199 
Loop time of 114.586 on 2 procs for 1000 steps with 19652 atoms

Performance: 0.754 ns/day, 31.829 hours/ns, 8.727 timesteps/s
98.2% CPU use with 2 MPI tasks x no OpenMP threads

MPI task timing breakdown:
Section |  min time  |  avg time  |  max time  |%varavg| %total
---------------------------------------------------------------
Pair    | 66.853     | 67.511     | 68.169     |   8.0 | 58.92
Neigh   | 39.465     | 41.246     | 43.027     |  27.7 | 36.00
Comm    | 3.8727     | 4.985      | 6.0973     |  49.8 |  4.35
Output  | 0.00014186 | 0.00016391 | 0.00018597 |   0.0 |  0.00
Modify  | 0.47909    | 0.48892    | 0.49874    |   1.4 |  0.43
Other   |            | 0.3549     |            |       |  0.31

Nlocal:    9826 ave 9864 max 9788 min
Histogram: 1 0 0 0 0 0 0 0 0 1
Nghost:    14211 ave 14249 max 14173 min
Histogram: 1 0 0 0 0 0 0 0 0 1
Neighs:    786206 ave 789593 max 782819 min
Histogram: 1 0 0 0 0 0 0 0 0 1

Total # of neighbors = 1572412
Ave neighs/atom = 80.0128
Neighbor list builds = 1000
Dangerous builds not checked
Setting up Verlet run ...
  Unit style    : metal
  Current step  : 1000
  Time step     : 0.001
Per MPI rank memory allocation (min/avg/max) = 11.15 | 11.15 | 11.15 Mbytes
Step Temp Press TotEng PotEng Enthalpy 
    1000    165.53116    278738.89   -21441.154   -21861.618    33262.199 
    2000    265.75592    263.34322   -29504.111   -30179.155   -29428.371 
Loop time of 95.5068 on 2 procs for 1000 steps with 19652 atoms

Performance: 0.905 ns/day, 26.530 hours/ns, 10.470 timesteps/s
98.3% CPU use with 2 MPI tasks x no OpenMP threads

MPI task timing breakdown:
Section |  min time  |  avg time  |  max time  |%varavg| %total
---------------------------------------------------------------
Pair    | 52.04      | 52.26      | 52.479     |   3.0 | 54.72
Neigh   | 36.009     | 36.889     | 37.77      |  14.5 | 38.62
Comm    | 3.2895     | 4.4069     | 5.5243     |  53.2 |  4.61
Output  | 0.00014901 | 0.00019252 | 0.00023603 |   0.0 |  0.00
Modify  | 1.5972     | 1.6085     | 1.6198     |   0.9 |  1.68
Other   |            | 0.3423     |            |       |  0.36

Nlocal:    9826 ave 9854 max 9798 min
Histogram: 1 0 0 0 0 0 0 0 0 1
Nghost:    10346 ave 10374 max 10318 min
Histogram: 1 0 0 0 0 0 0 0 0 1
Neighs:    538887 ave 540634 max 537140 min
Histogram: 1 0 0 0 0 0 0 0 0 1

Total # of neighbors = 1077774
Ave neighs/atom = 54.843
Neighbor list builds = 1000
Dangerous builds not checked
Setting up Verlet run ...
  Unit style    : metal
  Current step  : 2000
  Time step     : 0.001
Per MPI rank memory allocation (min/avg/max) = 11.15 | 11.15 | 11.15 Mbytes
Step Temp Press TotEng PotEng Enthalpy 
    2000    265.75592    263.34322   -29504.111   -30179.155   -29428.371 
   10000    2436.8152   -679.64109   -15415.952   -21605.684   -15693.458 
Loop time of 627.508 on 2 procs for 8000 steps with 19652 atoms

Performance: 1.101 ns/day, 21.788 hours/ns, 12.749 timesteps/s
99.2% CPU use with 2 MPI tasks x no OpenMP threads

MPI task timing breakdown:
Section |  min time  |  avg time  |  max time  |%varavg| %total
---------------------------------------------------------------
Pair    | 332.32     | 336.98     | 341.64     |  25.4 | 53.70
Neigh   | 242.48     | 244.93     | 247.39     |  15.7 | 39.03
Comm    | 22.834     | 30.402     | 37.97      | 137.3 |  4.84
Output  | 9.799e-05  | 0.00011992 | 0.00014186 |   0.0 |  0.00
Modify  | 12.198     | 12.53      | 12.862     |   9.4 |  2.00
Other   |            | 2.661      |            |       |  0.42

Nlocal:    9826 ave 9866 max 9786 min
Histogram: 1 0 0 0 0 0 0 0 0 1
Nghost:    9751 ave 9766 max 9736 min
Histogram: 1 0 0 0 0 0 0 0 0 1
Neighs:    374702 ave 377471 max 371933 min
Histogram: 1 0 0 0 0 0 0 0 0 1

Total # of neighbors = 749404
Ave neighs/atom = 38.1337
Neighbor list builds = 8000
Dangerous builds not checked
Setting up Verlet run ...
  Unit style    : metal
  Current step  : 10000
  Time step     : 0.001
Per MPI rank memory allocation (min/avg/max) = 11.17 | 11.17 | 11.17 Mbytes
Step Temp Press TotEng PotEng Enthalpy 
   10000    2436.8152   -679.64109   -15415.952   -21605.684   -15693.458 
   40000     2430.556    980.96558   -15378.757   -21552.591    -14979.64 
Loop time of 2362.64 on 2 procs for 30000 steps with 19652 atoms

Performance: 1.097 ns/day, 21.876 hours/ns, 12.698 timesteps/s
98.4% CPU use with 2 MPI tasks x no OpenMP threads

MPI task timing breakdown:
Section |  min time  |  avg time  |  max time  |%varavg| %total
---------------------------------------------------------------
Pair    | 1244.7     | 1252.5     | 1260.2     |  22.0 | 53.01
Neigh   | 904.52     | 908.44     | 912.36     |  13.0 | 38.45
Comm    | 126.22     | 138.27     | 150.32     | 102.5 |  5.85
Output  | 0.00016499 | 0.00017643 | 0.00018787 |   0.0 |  0.00
Modify  | 52.521     | 52.78      | 53.039     |   3.6 |  2.23
Other   |            | 10.68      |            |       |  0.45

Nlocal:    9826 ave 9866 max 9786 min
Histogram: 1 0 0 0 0 0 0 0 0 1
Nghost:    9777 ave 9782 max 9772 min
Histogram: 1 0 0 0 0 0 0 0 0 1
Neighs:    376661 ave 379521 max 373801 min
Histogram: 1 0 0 0 0 0 0 0 0 1

Total # of neighbors = 753322
Ave neighs/atom = 38.3331
Neighbor list builds = 30000
Dangerous builds not checked
Setting up Verlet run ...
  Unit style    : metal
  Current step  : 40000
  Time step     : 0.001
Per MPI rank memory allocation (min/avg/max) = 11.17 | 11.17 | 11.17 Mbytes
Step Temp Press TotEng PotEng Enthalpy 
   40000     2430.556    980.96558   -15378.757   -21552.591    -14979.64 
   40495    2385.5234   -293.08457   -15505.152   -21564.599   -15625.032 
Loop time of 36.5666 on 2 procs for 495 steps with 19652 atoms

Performance: 1.170 ns/day, 20.520 hours/ns, 13.537 timesteps/s
99.8% CPU use with 2 MPI tasks x no OpenMP threads

MPI task timing breakdown:
Section |  min time  |  avg time  |  max time  |%varavg| %total
---------------------------------------------------------------
Pair    | 18.476     | 19.009     | 19.543     |  12.2 | 51.99
Neigh   | 13.392     | 13.867     | 14.343     |  12.8 | 37.92
Comm    | 1.498      | 2.5977     | 3.6975     |  68.2 |  7.10
Output  | 0.000247   | 0.00025702 | 0.00026703 |   0.0 |  0.00
Modify  | 0.84439    | 0.91055    | 0.97671    |   6.9 |  2.49
Other   |            | 0.1816     |            |       |  0.50

Nlocal:    9826 ave 9858 max 9794 min
Histogram: 1 0 0 0 0 0 0 0 0 1
Nghost:    9784.5 ave 9800 max 9769 min
Histogram: 1 0 0 0 0 0 0 0 0 1
Neighs:    374370 ave 377067 max 371674 min
Histogram: 1 0 0 0 0 0 0 0 0 1

Total # of neighbors = 748741
Ave neighs/atom = 38.1
Neighbor list builds = 495
Dangerous builds not checked
Setting up Verlet run ...
  Unit style    : metal
  Current step  : 40495
  Time step     : 0.001
Per MPI rank memory allocation (min/avg/max) = 11.17 | 11.17 | 11.17 Mbytes
Step Temp Press TotEng PotEng Enthalpy 
   40495    2385.5234   -293.08457   -15505.152   -21564.599   -15625.032 
   50000    2417.1571    32.752098    -15541.19   -21680.989   -15527.896 
   90000     2408.626    347.28668   -15607.464   -21725.593   -15467.341 
Loop time of 3828.28 on 2 procs for 49505 steps with 19652 atoms

Performance: 1.117 ns/day, 21.481 hours/ns, 12.931 timesteps/s
99.1% CPU use with 2 MPI tasks x no OpenMP threads

MPI task timing breakdown:
Section |  min time  |  avg time  |  max time  |%varavg| %total
---------------------------------------------------------------
Pair    | 2027.1     | 2031.8     | 2036.5     |  10.4 | 53.07
Neigh   | 1458.6     | 1460.9     | 1463.1     |   5.9 | 38.16
Comm    | 228.92     | 235.86     | 242.8      |  45.2 |  6.16
Output  | 0.05685    | 0.056913   | 0.056977   |   0.0 |  0.00
Modify  | 82.659     | 82.671     | 82.684     |   0.1 |  2.16
Other   |            | 17.05      |            |       |  0.45

Nlocal:    9826 ave 9869 max 9783 min
Histogram: 1 0 0 0 0 0 0 0 0 1
Nghost:    9796 ave 9817 max 9775 min
Histogram: 1 0 0 0 0 0 0 0 0 1
Neighs:    379600 ave 382551 max 376648 min
Histogram: 1 0 0 0 0 0 0 0 0 1

Total # of neighbors = 759199
Ave neighs/atom = 38.6321
Neighbor list builds = 49505
Dangerous builds not checked
Setting up Verlet run ...
  Unit style    : metal
  Current step  : 90000
  Time step     : 0.001
Per MPI rank memory allocation (min/avg/max) = 11.31 | 11.31 | 11.31 Mbytes
Step Temp Press TotEng PotEng Enthalpy 
   90000     2408.626    347.28668   -15607.464   -21725.593   -15467.341 
   90495     2354.467   -142.56338   -15794.424   -21774.985   -15852.084 
Loop time of 35.6301 on 2 procs for 495 steps with 19652 atoms

Performance: 1.200 ns/day, 19.994 hours/ns, 13.893 timesteps/s
98.8% CPU use with 2 MPI tasks x no OpenMP threads

MPI task timing breakdown:
Section |  min time  |  avg time  |  max time  |%varavg| %total
---------------------------------------------------------------
Pair    | 18.687     | 18.854     | 19.021     |   3.8 | 52.92
Neigh   | 13.312     | 13.516     | 13.721     |   5.6 | 37.94
Comm    | 1.9042     | 2.3195     | 2.7348     |  27.3 |  6.51
Output  | 0.00026798 | 0.00027251 | 0.00027704 |   0.0 |  0.00
Modify  | 0.73809    | 0.77408    | 0.81008    |   4.1 |  2.17
Other   |            | 0.1656     |            |       |  0.46

Nlocal:    9826 ave 9867 max 9785 min
Histogram: 1 0 0 0 0 0 0 0 0 1
Nghost:    9785.5 ave 9787 max 9784 min
Histogram: 1 0 0 0 0 0 0 0 0 1
Neighs:    378700 ave 381039 max 376361 min
Histogram: 1 0 0 0 0 0 0 0 0 1

Total # of neighbors = 757400
Ave neighs/atom = 38.5406
Neighbor list builds = 495
Dangerous builds not checked
Setting up Verlet run ...
  Unit style    : metal
  Current step  : 90495
  Time step     : 0.001
Per MPI rank memory allocation (min/avg/max) = 11.31 | 11.31 | 11.31 Mbytes
Step Temp Press TotEng PotEng Enthalpy 
   90495     2354.467   -142.56338   -15794.424   -21774.985   -15852.084 
  100000    2361.4528   -211.66158   -15991.495     -21989.8   -16076.046 
  140000    2354.3069   -345.31046   -15871.825    -21851.98   -16010.767 
Loop time of 3586.28 on 2 procs for 49505 steps with 19652 atoms

Performance: 1.193 ns/day, 20.123 hours/ns, 13.804 timesteps/s
99.3% CPU use with 2 MPI tasks x no OpenMP threads

MPI task timing breakdown:
Section |  min time  |  avg time  |  max time  |%varavg| %total
---------------------------------------------------------------
Pair    | 1902.6     | 1904.7     | 1906.8     |   4.8 | 53.11
Neigh   | 1375.6     | 1380.2     | 1384.7     |  12.4 | 38.48
Comm    | 212.81     | 214.92     | 217.03     |  14.4 |  5.99
Output  | 0.039407   | 0.039485   | 0.039562   |   0.0 |  0.00
Modify  | 70.859     | 71.189     | 71.518     |   3.9 |  1.99
Other   |            | 15.28      |            |       |  0.43

Nlocal:    9826 ave 9853 max 9799 min
Histogram: 1 0 0 0 0 0 0 0 0 1
Nghost:    9744.5 ave 9772 max 9717 min
Histogram: 1 0 0 0 0 0 0 0 0 1
Neighs:    380179 ave 382885 max 377473 min
Histogram: 1 0 0 0 0 0 0 0 0 1

Total # of neighbors = 760358
Ave neighs/atom = 38.6911
Neighbor list builds = 49505
Dangerous builds not checked
Setting up Verlet run ...
  Unit style    : metal
  Current step  : 140000
  Time step     : 0.001
Per MPI rank memory allocation (min/avg/max) = 11.35 | 11.35 | 11.35 Mbytes
Step Temp Press TotEng PotEng Enthalpy 
  140000    2354.3069   -345.31046   -15871.825    -21851.98   -16010.767 
  140495    2305.8846    262.60241    -16135.78   -21992.937   -16031.235 
Loop time of 36.5386 on 2 procs for 495 steps with 19652 atoms

Performance: 1.170 ns/day, 20.504 hours/ns, 13.547 timesteps/s
100.1% CPU use with 2 MPI tasks x no OpenMP threads

MPI task timing breakdown:
Section |  min time  |  avg time  |  max time  |%varavg| %total
---------------------------------------------------------------
Pair    | 19.244     | 19.317     | 19.391     |   1.7 | 52.87
Neigh   | 13.669     | 13.821     | 13.972     |   4.1 | 37.82
Comm    | 2.0038     | 2.2924     | 2.581      |  19.1 |  6.27
Output  | 0.00029206 | 0.00036597 | 0.00043988 |   0.0 |  0.00
Modify  | 0.87122    | 0.9209     | 0.97058    |   5.2 |  2.52
Other   |            | 0.1869     |            |       |  0.51

Nlocal:    9826 ave 9853 max 9799 min
Histogram: 1 0 0 0 0 0 0 0 0 1
Nghost:    9858.5 ave 9861 max 9856 min
Histogram: 1 0 0 0 0 0 0 0 0 1
Neighs:    384750 ave 386413 max 383086 min
Histogram: 1 0 0 0 0 0 0 0 0 1

Total # of neighbors = 769499
Ave neighs/atom = 39.1563
Neighbor list builds = 495
Dangerous builds not checked
Setting up Verlet run ...
  Unit style    : metal
  Current step  : 140495
  Time step     : 0.001
Per MPI rank memory allocation (min/avg/max) = 11.35 | 11.35 | 11.35 Mbytes
Step Temp Press TotEng PotEng Enthalpy 
  140495    2305.8846    262.60241    -16135.78   -21992.937   -16031.235 
  150000    2282.8604    -564.0553   -16288.206   -22086.879   -16512.294 
  190000     2300.191     461.3917   -16223.653   -22066.347     -16040.4 
Loop time of 3891.3 on 2 procs for 49505 steps with 19652 atoms

Performance: 1.099 ns/day, 21.835 hours/ns, 12.722 timesteps/s
99.2% CPU use with 2 MPI tasks x no OpenMP threads

MPI task timing breakdown:
Section |  min time  |  avg time  |  max time  |%varavg| %total
---------------------------------------------------------------
Pair    | 2092.8     | 2093.6     | 2094.5     |   1.9 | 53.80
Neigh   | 1455.4     | 1465.2     | 1475       |  25.7 | 37.65
Comm    | 220.75     | 232.15     | 243.55     |  74.8 |  5.97
Output  | 0.039212   | 0.039283   | 0.039353   |   0.0 |  0.00
Modify  | 82.709     | 83.233     | 83.756     |   5.7 |  2.14
Other   |            | 17.03      |            |       |  0.44

Nlocal:    9826 ave 9915 max 9737 min
Histogram: 1 0 0 0 0 0 0 0 0 1
Nghost:    9758 ave 9766 max 9750 min
Histogram: 1 0 0 0 0 0 0 0 0 1
Neighs:    385670 ave 392446 max 378894 min
Histogram: 1 0 0 0 0 0 0 0 0 1

Total # of neighbors = 771340
Ave neighs/atom = 39.2499
Neighbor list builds = 49505
Dangerous builds not checked
Setting up Verlet run ...
  Unit style    : metal
  Current step  : 190000
  Time step     : 0.001
Per MPI rank memory allocation (min/avg/max) = 11.36 | 11.36 | 11.36 Mbytes
Step Temp Press TotEng PotEng Enthalpy 
  190000     2300.191     461.3917   -16223.653   -22066.347     -16040.4 
  190495    2258.1904    133.47569   -16404.274   -22140.284   -16351.479 
Loop time of 31.6127 on 2 procs for 495 steps with 19652 atoms

Performance: 1.353 ns/day, 17.740 hours/ns, 15.658 timesteps/s
100.0% CPU use with 2 MPI tasks x no OpenMP threads

MPI task timing breakdown:
Section |  min time  |  avg time  |  max time  |%varavg| %total
---------------------------------------------------------------
Pair    | 16.493     | 16.568     | 16.642     |   1.8 | 52.41
Neigh   | 12.66      | 12.883     | 13.106     |   6.2 | 40.75
Comm    | 1.015      | 1.3292     | 1.6434     |  27.3 |  4.20
Output  | 0.00011206 | 0.000139   | 0.00016594 |   0.0 |  0.00
Modify  | 0.66002    | 0.67819    | 0.69636    |   2.2 |  2.15
Other   |            | 0.1545     |            |       |  0.49

Nlocal:    9826 ave 9875 max 9777 min
Histogram: 1 0 0 0 0 0 0 0 0 1
Nghost:    9858.5 ave 9939 max 9778 min
Histogram: 1 0 0 0 0 0 0 0 0 1
Neighs:    387407 ave 392737 max 382077 min
Histogram: 1 0 0 0 0 0 0 0 0 1

Total # of neighbors = 774814
Ave neighs/atom = 39.4267
Neighbor list builds = 495
Dangerous builds not checked
Setting up Verlet run ...
  Unit style    : metal
  Current step  : 190495
  Time step     : 0.001
Per MPI rank memory allocation (min/avg/max) = 11.36 | 11.36 | 11.36 Mbytes
Step Temp Press TotEng PotEng Enthalpy 
  190495    2258.1904    133.47569   -16404.274   -22140.284   -16351.479 
  200000    2276.9991   -447.34596   -16344.781   -22128.566   -16522.399 
  240000    2263.9521   -166.52549    -16455.43   -22206.075   -16521.147 
Loop time of 3733.23 on 2 procs for 49505 steps with 19652 atoms

Performance: 1.146 ns/day, 20.948 hours/ns, 13.261 timesteps/s
99.5% CPU use with 2 MPI tasks x no OpenMP threads

MPI task timing breakdown:
Section |  min time  |  avg time  |  max time  |%varavg| %total
---------------------------------------------------------------
Pair    | 1982.4     | 1993.8     | 2005.1     |  25.4 | 53.41
Neigh   | 1403.2     | 1408.7     | 1414.2     |  14.7 | 37.73
Comm    | 219.46     | 236.8      | 254.13     | 112.6 |  6.34
Output  | 0.042092   | 0.042153   | 0.042214   |   0.0 |  0.00
Modify  | 77.361     | 77.621     | 77.881     |   3.0 |  2.08
Other   |            | 16.33      |            |       |  0.44

Nlocal:    9826 ave 9866 max 9786 min
Histogram: 1 0 0 0 0 0 0 0 0 1
Nghost:    9855 ave 9868 max 9842 min
Histogram: 1 0 0 0 0 0 0 0 0 1
Neighs:    387812 ave 390881 max 384744 min
Histogram: 1 0 0 0 0 0 0 0 0 1

Total # of neighbors = 775625
Ave neighs/atom = 39.468
Neighbor list builds = 49505
Dangerous builds not checked
Setting up Verlet run ...
  Unit style    : metal
  Current step  : 240000
  Time step     : 0.001
Per MPI rank memory allocation (min/avg/max) = 11.36 | 11.36 | 11.36 Mbytes
Step Temp Press TotEng PotEng Enthalpy 
  240000    2263.9521   -166.52549    -16455.43   -22206.075   -16521.147 
  240495    2212.6521    2.0144272   -16739.771   -22360.109   -16738.984 
Loop time of 34.7801 on 2 procs for 495 steps with 19652 atoms

Performance: 1.230 ns/day, 19.517 hours/ns, 14.232 timesteps/s
99.4% CPU use with 2 MPI tasks x no OpenMP threads

MPI task timing breakdown:
Section |  min time  |  avg time  |  max time  |%varavg| %total
---------------------------------------------------------------
Pair    | 18.105     | 18.269     | 18.434     |   3.8 | 52.53
Neigh   | 13.211     | 13.604     | 13.996     |  10.6 | 39.11
Comm    | 1.7333     | 1.9534     | 2.1735     |  15.7 |  5.62
Output  | 0.0002172  | 0.00023353 | 0.00024986 |   0.0 |  0.00
Modify  | 0.78528    | 0.79325    | 0.80123    |   0.9 |  2.28
Other   |            | 0.1601     |            |       |  0.46

Nlocal:    9826 ave 9879 max 9773 min
Histogram: 1 0 0 0 0 0 0 0 0 1
Nghost:    9868.5 ave 9880 max 9857 min
Histogram: 1 0 0 0 0 0 0 0 0 1
Neighs:    391867 ave 395275 max 388459 min
Histogram: 1 0 0 0 0 0 0 0 0 1

Total # of neighbors = 783734
Ave neighs/atom = 39.8806
Neighbor list builds = 495
Dangerous builds not checked
Setting up Verlet run ...
  Unit style    : metal
  Current step  : 240495
  Time step     : 0.001
Per MPI rank memory allocation (min/avg/max) = 11.36 | 11.36 | 11.36 Mbytes
Step Temp Press TotEng PotEng Enthalpy 
  240495    2212.6521    2.0144272   -16739.771   -22360.109   -16738.984 
  250000    2218.7003    211.56404   -16716.109    -22351.81   -16633.301 
  290000     2208.978    573.52055   -16810.963   -22421.968   -16588.027 
Loop time of 3605.85 on 2 procs for 49505 steps with 19652 atoms

Performance: 1.186 ns/day, 20.233 hours/ns, 13.729 timesteps/s
99.2% CPU use with 2 MPI tasks x no OpenMP threads

MPI task timing breakdown:
Section |  min time  |  avg time  |  max time  |%varavg| %total
---------------------------------------------------------------
Pair    | 1900.5     | 1912.8     | 1925.1     |  28.1 | 53.05
Neigh   | 1368.8     | 1379.6     | 1390.4     |  29.1 | 38.26
Comm    | 196.63     | 221.97     | 247.3      | 170.0 |  6.16
Output  | 0.040737   | 0.040806   | 0.040876   |   0.0 |  0.00
Modify  | 73.893     | 75.61      | 77.327     |  19.7 |  2.10
Other   |            | 15.87      |            |       |  0.44

Nlocal:    9826 ave 9842 max 9810 min
Histogram: 1 0 0 0 0 0 0 0 0 1
Nghost:    9899 ave 9919 max 9879 min
Histogram: 1 0 0 0 0 0 0 0 0 1
Neighs:    393966 ave 394371 max 393561 min
Histogram: 1 0 0 0 0 0 0 0 0 1

Total # of neighbors = 787932
Ave neighs/atom = 40.0942
Neighbor list builds = 49505
Dangerous builds not checked
Setting up Verlet run ...
  Unit style    : metal
  Current step  : 290000
  Time step     : 0.001
Per MPI rank memory allocation (min/avg/max) = 11.36 | 11.36 | 11.36 Mbytes
Step Temp Press TotEng PotEng Enthalpy 
  290000     2208.978    573.52055   -16810.963   -22421.968   -16588.027 
  290495    2159.8564     -672.472   -17033.127   -22519.359   -17294.936 
Loop time of 34.4425 on 2 procs for 495 steps with 19652 atoms

Performance: 1.242 ns/day, 19.328 hours/ns, 14.372 timesteps/s
98.4% CPU use with 2 MPI tasks x no OpenMP threads

MPI task timing breakdown:
Section |  min time  |  avg time  |  max time  |%varavg| %total
---------------------------------------------------------------
Pair    | 18.28      | 18.402     | 18.523     |   2.8 | 53.43
Neigh   | 13.059     | 13.496     | 13.932     |  11.9 | 39.18
Comm    | 1.2936     | 1.6348     | 1.976      |  26.7 |  4.75
Output  | 0.000103   | 0.00012851 | 0.00015402 |   0.0 |  0.00
Modify  | 0.72786    | 0.7475     | 0.76715    |   2.3 |  2.17
Other   |            | 0.1626     |            |       |  0.47

Nlocal:    9826 ave 9852 max 9800 min
Histogram: 1 0 0 0 0 0 0 0 0 1
Nghost:    9950 ave 9968 max 9932 min
Histogram: 1 0 0 0 0 0 0 0 0 1
Neighs:    392942 ave 394907 max 390977 min
Histogram: 1 0 0 0 0 0 0 0 0 1

Total # of neighbors = 785884
Ave neighs/atom = 39.99
Neighbor list builds = 495
Dangerous builds not checked
Setting up Verlet run ...
  Unit style    : metal
  Current step  : 290495
  Time step     : 0.001
Per MPI rank memory allocation (min/avg/max) = 11.36 | 11.36 | 11.36 Mbytes
Step Temp Press TotEng PotEng Enthalpy 
  290495    2159.8564     -672.472   -17033.127   -22519.359   -17294.936 
  300000    2160.1676   -143.13366     -17099.9   -22586.922   -17155.249 
  340000    2154.2995   -101.64079   -17077.209   -22549.326   -17116.549 
Loop time of 3565.11 on 2 procs for 49505 steps with 19652 atoms

Performance: 1.200 ns/day, 20.004 hours/ns, 13.886 timesteps/s
99.3% CPU use with 2 MPI tasks x no OpenMP threads

MPI task timing breakdown:
Section |  min time  |  avg time  |  max time  |%varavg| %total
---------------------------------------------------------------
Pair    | 1890.4     | 1903.9     | 1917.4     |  31.0 | 53.40
Neigh   | 1353.1     | 1361.8     | 1370.5     |  23.5 | 38.20
Comm    | 186.46     | 209.57     | 232.67     | 159.6 |  5.88
Output  | 0.040152   | 0.04017    | 0.040188   |   0.0 |  0.00
Modify  | 73.535     | 74.095     | 74.655     |   6.5 |  2.08
Other   |            | 15.68      |            |       |  0.44

Nlocal:    9826 ave 9852 max 9800 min
Histogram: 1 0 0 0 0 0 0 0 0 1
Nghost:    9944.5 ave 9988 max 9901 min
Histogram: 1 0 0 0 0 0 0 0 0 1
Neighs:    395308 ave 396693 max 393923 min
Histogram: 1 0 0 0 0 0 0 0 0 1

Total # of neighbors = 790616
Ave neighs/atom = 40.2308
Neighbor list builds = 49505
Dangerous builds not checked
Setting up Verlet run ...
  Unit style    : metal
  Current step  : 340000
  Time step     : 0.001
Per MPI rank memory allocation (min/avg/max) = 11.36 | 11.36 | 11.36 Mbytes
Step Temp Press TotEng PotEng Enthalpy 
  340000    2154.2995   -101.64079   -17077.209   -22549.326   -17116.549 
  340495     2124.923    222.36016   -17340.481   -22737.979   -17255.144 
Loop time of 37.8897 on 2 procs for 495 steps with 19652 atoms

Performance: 1.129 ns/day, 21.262 hours/ns, 13.064 timesteps/s
98.1% CPU use with 2 MPI tasks x no OpenMP threads

MPI task timing breakdown:
Section |  min time  |  avg time  |  max time  |%varavg| %total
---------------------------------------------------------------
Pair    | 19.591     | 20.1       | 20.609     |  11.4 | 53.05
Neigh   | 13.421     | 14.012     | 14.603     |  15.8 | 36.98
Comm    | 1.6599     | 2.8158     | 3.9717     |  68.9 |  7.43
Output  | 0.00010204 | 0.00013411 | 0.00016618 |   0.0 |  0.00
Modify  | 0.75965    | 0.79774    | 0.83584    |   4.3 |  2.11
Other   |            | 0.164      |            |       |  0.43

Nlocal:    9826 ave 9858 max 9794 min
Histogram: 1 0 0 0 0 0 0 0 0 1
Nghost:    10015 ave 10060 max 9970 min
Histogram: 1 0 0 0 0 0 0 0 0 1
Neighs:    399086 ave 400206 max 397965 min
Histogram: 1 0 0 0 0 0 0 0 0 1

Total # of neighbors = 798171
Ave neighs/atom = 40.6153
Neighbor list builds = 495
Dangerous builds not checked
Setting up Verlet run ...
  Unit style    : metal
  Current step  : 340495
  Time step     : 0.001
Per MPI rank memory allocation (min/avg/max) = 11.36 | 11.36 | 11.36 Mbytes
Step Temp Press TotEng PotEng Enthalpy 
  340495     2124.923    222.36016   -17340.481   -22737.979   -17255.144 
  350000    2112.2029    108.51427   -17485.345   -22850.533   -17443.978 
  390000    2086.7737   -247.09425   -17441.133   -22741.728    -17535.84 
Loop time of 3939.83 on 2 procs for 49505 steps with 19652 atoms

Performance: 1.086 ns/day, 22.107 hours/ns, 12.565 timesteps/s
96.0% CPU use with 2 MPI tasks x no OpenMP threads

MPI task timing breakdown:
Section |  min time  |  avg time  |  max time  |%varavg| %total
---------------------------------------------------------------
Pair    | 2072.3     | 2077.3     | 2082.3     |  11.0 | 52.73
Neigh   | 1483.2     | 1490.3     | 1497.3     |  18.3 | 37.83
Comm    | 262.63     | 274.72     | 286.81     |  72.9 |  6.97
Output  | 0.039702   | 0.039733   | 0.039764   |   0.0 |  0.00
Modify  | 81.287     | 81.354     | 81.422     |   0.7 |  2.06
Other   |            | 16.11      |            |       |  0.41

Nlocal:    9826 ave 9840 max 9812 min
Histogram: 1 0 0 0 0 0 0 0 0 1
Nghost:    9985 ave 9990 max 9980 min
Histogram: 1 0 0 0 0 0 0 0 0 1
Neighs:    399465 ave 404094 max 394836 min
Histogram: 1 0 0 0 0 0 0 0 0 1

Total # of neighbors = 798930
Ave neighs/atom = 40.6539
Neighbor list builds = 49505
Dangerous builds not checked
Setting up Verlet run ...
  Unit style    : metal
  Current step  : 390000
  Time step     : 0.001
Per MPI rank memory allocation (min/avg/max) = 11.36 | 11.36 | 11.36 Mbytes
Step Temp Press TotEng PotEng Enthalpy 
  390000    2086.7737   -247.09425   -17441.133   -22741.728    -17535.84 
  390495    2052.6111    361.43676   -17660.761    -22874.58   -17523.294 
Loop time of 49.0625 on 2 procs for 495 steps with 19652 atoms

Performance: 0.872 ns/day, 27.532 hours/ns, 10.089 timesteps/s
86.3% CPU use with 2 MPI tasks x no OpenMP threads

MPI task timing breakdown:
Section |  min time  |  avg time  |  max time  |%varavg| %total
---------------------------------------------------------------
Pair    | 25.967     | 26.065     | 26.163     |   1.9 | 53.13
Neigh   | 16.166     | 17.73      | 19.295     |  37.2 | 36.14
Comm    | 2.3462     | 3.8972     | 5.4482     |  78.6 |  7.94
Output  | 0.00017095 | 0.0002104  | 0.00024986 |   0.0 |  0.00
Modify  | 1.1074     | 1.161      | 1.2145     |   5.0 |  2.37
Other   |            | 0.2089     |            |       |  0.43

Nlocal:    9826 ave 9828 max 9824 min
Histogram: 1 0 0 0 0 0 0 0 0 1
Nghost:    9983.5 ave 10042 max 9925 min
Histogram: 1 0 0 0 0 0 0 0 0 1
Neighs:    402522 ave 406750 max 398295 min
Histogram: 1 0 0 0 0 0 0 0 0 1

Total # of neighbors = 805045
Ave neighs/atom = 40.965
Neighbor list builds = 495
Dangerous builds not checked
Setting up Verlet run ...
  Unit style    : metal
  Current step  : 390495
  Time step     : 0.001
Per MPI rank memory allocation (min/avg/max) = 11.36 | 11.36 | 11.36 Mbytes
Step Temp Press TotEng PotEng Enthalpy 
  390495    2052.6111    361.43676   -17660.761    -22874.58   -17523.294 
  400000    2054.4079    2.6743185   -17780.397   -22998.781   -17779.385 
  440000    2044.7412   -492.77632   -17741.462   -22935.291   -17928.889 
Loop time of 3753.55 on 2 procs for 49505 steps with 19652 atoms

Performance: 1.140 ns/day, 21.062 hours/ns, 13.189 timesteps/s
98.8% CPU use with 2 MPI tasks x no OpenMP threads

MPI task timing breakdown:
Section |  min time  |  avg time  |  max time  |%varavg| %total
---------------------------------------------------------------
Pair    | 1961       | 1965.6     | 1970.1     |  10.3 | 52.37
Neigh   | 1490.8     | 1501.1     | 1511.4     |  26.5 | 39.99
Comm    | 182.11     | 197.26     | 212.41     | 107.9 |  5.26
Output  | 0.038601   | 0.038679   | 0.038757   |   0.0 |  0.00
Modify  | 73.837     | 74.113     | 74.389     |   3.2 |  1.97
Other   |            | 15.46      |            |       |  0.41

Nlocal:    9826 ave 9837 max 9815 min
Histogram: 1 0 0 0 0 0 0 0 0 1
Nghost:    10034 ave 10047 max 10021 min
Histogram: 1 0 0 0 0 0 0 0 0 1
Neighs:    402189 ave 405947 max 398431 min
Histogram: 1 0 0 0 0 0 0 0 0 1

Total # of neighbors = 804378
Ave neighs/atom = 40.9311
Neighbor list builds = 49505
Dangerous builds not checked
Setting up Verlet run ...
  Unit style    : metal
  Current step  : 440000
  Time step     : 0.001
Per MPI rank memory allocation (min/avg/max) = 11.36 | 11.36 | 11.36 Mbytes
Step Temp Press TotEng PotEng Enthalpy 
  440000    2044.7412   -492.77632   -17741.462   -22935.291   -17928.889 
  440495    2011.2532    36.757761   -17979.964    -23088.73    -17966.12 
Loop time of 34.3721 on 2 procs for 495 steps with 19652 atoms

Performance: 1.244 ns/day, 19.289 hours/ns, 14.401 timesteps/s
100.0% CPU use with 2 MPI tasks x no OpenMP threads

MPI task timing breakdown:
Section |  min time  |  avg time  |  max time  |%varavg| %total
---------------------------------------------------------------
Pair    | 17.974     | 18.017     | 18.059     |   1.0 | 52.42
Neigh   | 13.725     | 13.767     | 13.809     |   1.1 | 40.05
Comm    | 1.6406     | 1.7403     | 1.8401     |   7.6 |  5.06
Output  | 0.00011611 | 0.00015259 | 0.00018907 |   0.0 |  0.00
Modify  | 0.68699    | 0.70008    | 0.71316    |   1.6 |  2.04
Other   |            | 0.148      |            |       |  0.43

Nlocal:    9826 ave 9826 max 9826 min
Histogram: 2 0 0 0 0 0 0 0 0 0
Nghost:    10073.5 ave 10083 max 10064 min
Histogram: 1 0 0 0 0 0 0 0 0 1
Neighs:    406204 ave 408787 max 403622 min
Histogram: 1 0 0 0 0 0 0 0 0 1

Total # of neighbors = 812409
Ave neighs/atom = 41.3398
Neighbor list builds = 495
Dangerous builds not checked
Setting up Verlet run ...
  Unit style    : metal
  Current step  : 440495
  Time step     : 0.001
Per MPI rank memory allocation (min/avg/max) = 11.36 | 11.36 | 11.36 Mbytes
Step Temp Press TotEng PotEng Enthalpy 
  440495    2011.2532    36.757761   -17979.964    -23088.73    -17966.12 
  450000    2014.2927    29.682012   -17967.462   -23083.949   -17956.284 
  490000     2017.148   -340.95307   -17903.669   -23027.409   -18032.614 
Loop time of 3790.13 on 2 procs for 49505 steps with 19652 atoms

Performance: 1.129 ns/day, 21.267 hours/ns, 13.062 timesteps/s
99.2% CPU use with 2 MPI tasks x no OpenMP threads

MPI task timing breakdown:
Section |  min time  |  avg time  |  max time  |%varavg| %total
---------------------------------------------------------------
Pair    | 1980.4     | 1993       | 2005.6     |  28.3 | 52.58
Neigh   | 1502.7     | 1502.8     | 1502.9     |   0.3 | 39.65
Comm    | 189.88     | 203.19     | 216.51     |  93.4 |  5.36
Output  | 0.036827   | 0.036891   | 0.036955   |   0.0 |  0.00
Modify  | 75.092     | 75.557     | 76.022     |   5.4 |  1.99
Other   |            | 15.52      |            |       |  0.41

Nlocal:    9826 ave 9854 max 9798 min
Histogram: 1 0 0 0 0 0 0 0 0 1
Nghost:    10028.5 ave 10068 max 9989 min
Histogram: 1 0 0 0 0 0 0 0 0 1
Neighs:    404634 ave 411261 max 398007 min
Histogram: 1 0 0 0 0 0 0 0 0 1

Total # of neighbors = 809268
Ave neighs/atom = 41.1799
Neighbor list builds = 49505
Dangerous builds not checked
Setting up Verlet run ...
  Unit style    : metal
  Current step  : 490000
  Time step     : 0.001
Per MPI rank memory allocation (min/avg/max) = 11.36 | 11.36 | 11.36 Mbytes
Step Temp Press TotEng PotEng Enthalpy 
  490000     2017.148   -340.95307   -17903.669   -23027.409   -18032.614 
  490495     1966.012    358.47645    -18233.55     -23227.4   -18099.542 
Loop time of 37.0063 on 2 procs for 495 steps with 19652 atoms

Performance: 1.156 ns/day, 20.767 hours/ns, 13.376 timesteps/s
99.1% CPU use with 2 MPI tasks x no OpenMP threads

MPI task timing breakdown:
Section |  min time  |  avg time  |  max time  |%varavg| %total
---------------------------------------------------------------
Pair    | 19.23      | 19.443     | 19.657     |   4.8 | 52.54
Neigh   | 14.108     | 14.516     | 14.925     |  10.7 | 39.23
Comm    | 1.8973     | 2.1006     | 2.304      |  14.0 |  5.68
Output  | 0.00014186 | 0.00016344 | 0.00018501 |   0.0 |  0.00
Modify  | 0.78868    | 0.79376    | 0.79885    |   0.6 |  2.14
Other   |            | 0.152      |            |       |  0.41

Nlocal:    9826 ave 9854 max 9798 min
Histogram: 1 0 0 0 0 0 0 0 0 1
Nghost:    10017 ave 10025 max 10009 min
Histogram: 1 0 0 0 0 0 0 0 0 1
Neighs:    409449 ave 415162 max 403736 min
Histogram: 1 0 0 0 0 0 0 0 0 1

Total # of neighbors = 818898
Ave neighs/atom = 41.67
Neighbor list builds = 495
Dangerous builds not checked
Setting up Verlet run ...
  Unit style    : metal
  Current step  : 490495
  Time step     : 0.001
Per MPI rank memory allocation (min/avg/max) = 11.36 | 11.36 | 11.36 Mbytes
Step Temp Press TotEng PotEng Enthalpy 
  490495     1966.012    358.47645    -18233.55     -23227.4   -18099.542 
  500000    1955.6128    -363.5041   -18289.136   -23256.571   -18425.109 
  540000    1965.5988    27.854589   -18310.164   -23302.964   -18299.763 
Loop time of 3583.77 on 2 procs for 49505 steps with 19652 atoms

Performance: 1.194 ns/day, 20.109 hours/ns, 13.814 timesteps/s
99.3% CPU use with 2 MPI tasks x no OpenMP threads

MPI task timing breakdown:
Section |  min time  |  avg time  |  max time  |%varavg| %total
---------------------------------------------------------------
Pair    | 1854.4     | 1880.7     | 1907.1     |  60.8 | 52.48
Neigh   | 1401.3     | 1413.2     | 1425.1     |  31.6 | 39.43
Comm    | 170.04     | 209.18     | 248.33     | 270.7 |  5.84
Output  | 0.024639   | 0.02469    | 0.024741   |   0.0 |  0.00
Modify  | 66.058     | 66.709     | 67.359     |   8.0 |  1.86
Other   |            | 13.94      |            |       |  0.39

Nlocal:    9826 ave 9848 max 9804 min
Histogram: 1 0 0 0 0 0 0 0 0 1
Nghost:    10113 ave 10125 max 10101 min
Histogram: 1 0 0 0 0 0 0 0 0 1
Neighs:    409876 ave 415281 max 404471 min
Histogram: 1 0 0 0 0 0 0 0 0 1

Total # of neighbors = 819752
Ave neighs/atom = 41.7134
Neighbor list builds = 49505
Dangerous builds not checked
Setting up Verlet run ...
  Unit style    : metal
  Current step  : 540000
  Time step     : 0.001
Per MPI rank memory allocation (min/avg/max) = 11.36 | 11.36 | 11.36 Mbytes
Step Temp Press TotEng PotEng Enthalpy 
  540000    1965.5988    27.854589   -18310.164   -23302.964   -18299.763 
  540495    1918.4318    252.62143   -18530.527   -23403.518   -18436.859 
Loop time of 32.7813 on 2 procs for 495 steps with 19652 atoms

Performance: 1.305 ns/day, 18.396 hours/ns, 15.100 timesteps/s
99.5% CPU use with 2 MPI tasks x no OpenMP threads

MPI task timing breakdown:
Section |  min time  |  avg time  |  max time  |%varavg| %total
---------------------------------------------------------------
Pair    | 16.159     | 16.937     | 17.715     |  18.9 | 51.67
Neigh   | 12.616     | 12.918     | 13.22      |   8.4 | 39.41
Comm    | 1.0165     | 2.1598     | 3.3031     |  77.8 |  6.59
Output  | 0.0001061  | 0.00013602 | 0.00016594 |   0.0 |  0.00
Modify  | 0.58655    | 0.63222    | 0.67788    |   5.7 |  1.93
Other   |            | 0.134      |            |       |  0.41

Nlocal:    9826 ave 9858 max 9794 min
Histogram: 1 0 0 0 0 0 0 0 0 1
Nghost:    10095.5 ave 10104 max 10087 min
Histogram: 1 0 0 0 0 0 0 0 0 1
Neighs:    412955 ave 419383 max 406527 min
Histogram: 1 0 0 0 0 0 0 0 0 1

Total # of neighbors = 825910
Ave neighs/atom = 42.0268
Neighbor list builds = 495
Dangerous builds not checked
Setting up Verlet run ...
  Unit style    : metal
  Current step  : 540495
  Time step     : 0.001
Per MPI rank memory allocation (min/avg/max) = 11.36 | 11.36 | 11.36 Mbytes
Step Temp Press TotEng PotEng Enthalpy 
  540495    1918.4318    252.62143   -18530.527   -23403.518   -18436.859 
  550000    1883.8993   -12.991481   -18710.092   -23495.368   -18714.892 
  590000    1898.7006   -242.24298   -18598.037    -23420.91   -18687.894 
Loop time of 3566.26 on 2 procs for 49505 steps with 19652 atoms

Performance: 1.199 ns/day, 20.011 hours/ns, 13.881 timesteps/s
99.3% CPU use with 2 MPI tasks x no OpenMP threads

MPI task timing breakdown:
Section |  min time  |  avg time  |  max time  |%varavg| %total
---------------------------------------------------------------
Pair    | 1874.5     | 1879.8     | 1885       |  12.0 | 52.71
Neigh   | 1387.4     | 1389.8     | 1392.3     |   6.6 | 38.97
Comm    | 215.87     | 217.99     | 220.11     |  14.3 |  6.11
Output  | 0.038586   | 0.038652   | 0.038719   |   0.0 |  0.00
Modify  | 64.478     | 64.917     | 65.356     |   5.4 |  1.82
Other   |            | 13.72      |            |       |  0.38

Nlocal:    9826 ave 9841 max 9811 min
Histogram: 1 0 0 0 0 0 0 0 0 1
Nghost:    10102.5 ave 10106 max 10099 min
Histogram: 1 0 0 0 0 0 0 0 0 1
Neighs:    412514 ave 414770 max 410257 min
Histogram: 1 0 0 0 0 0 0 0 0 1

Total # of neighbors = 825027
Ave neighs/atom = 41.9818
Neighbor list builds = 49505
Dangerous builds not checked
Setting up Verlet run ...
  Unit style    : metal
  Current step  : 590000
  Time step     : 0.001
Per MPI rank memory allocation (min/avg/max) = 11.36 | 11.36 | 11.36 Mbytes
Step Temp Press TotEng PotEng Enthalpy 
  590000    1898.7006   -242.24298   -18598.037    -23420.91   -18687.894 
  590495    1853.9429    191.15359   -18848.264   -23557.448   -18777.956 
Loop time of 36.0572 on 2 procs for 495 steps with 19652 atoms

Performance: 1.186 ns/day, 20.234 hours/ns, 13.728 timesteps/s
98.5% CPU use with 2 MPI tasks x no OpenMP threads

MPI task timing breakdown:
Section |  min time  |  avg time  |  max time  |%varavg| %total
---------------------------------------------------------------
Pair    | 18.205     | 19.046     | 19.887     |  19.3 | 52.82
Neigh   | 13.611     | 13.637     | 13.662     |   0.7 | 37.82
Comm    | 1.6682     | 2.5404     | 3.4127     |  54.7 |  7.05
Output  | 0.00010204 | 0.0001235  | 0.00014496 |   0.0 |  0.00
Modify  | 0.65308    | 0.69513    | 0.73718    |   5.0 |  1.93
Other   |            | 0.1393     |            |       |  0.39

Nlocal:    9826 ave 9832 max 9820 min
Histogram: 1 0 0 0 0 0 0 0 0 1
Nghost:    10177.5 ave 10202 max 10153 min
Histogram: 1 0 0 0 0 0 0 0 0 1
Neighs:    416240 ave 420372 max 412108 min
Histogram: 1 0 0 0 0 0 0 0 0 1

Total # of neighbors = 832480
Ave neighs/atom = 42.3611
Neighbor list builds = 495
Dangerous builds not checked
Setting up Verlet run ...
  Unit style    : metal
  Current step  : 590495
  Time step     : 0.001
Per MPI rank memory allocation (min/avg/max) = 11.36 | 11.36 | 11.36 Mbytes
Step Temp Press TotEng PotEng Enthalpy 
  590495    1853.9429    191.15359   -18848.264   -23557.448   -18777.956 
  600000    1836.8002    443.34207   -18962.446   -23628.086   -18800.191 
  640000    1835.5863    456.53454   -19003.346   -23665.902   -18836.492 
Loop time of 3679.58 on 2 procs for 49505 steps with 19652 atoms

Performance: 1.162 ns/day, 20.647 hours/ns, 13.454 timesteps/s
99.4% CPU use with 2 MPI tasks x no OpenMP threads

MPI task timing breakdown:
Section |  min time  |  avg time  |  max time  |%varavg| %total
---------------------------------------------------------------
Pair    | 1933.1     | 1960.3     | 1987.6     |  61.5 | 53.28
Neigh   | 1388.4     | 1400.1     | 1411.7     |  31.1 | 38.05
Comm    | 193.88     | 234.25     | 274.62     | 263.8 |  6.37
Output  | 0.035654   | 0.035717   | 0.035779   |   0.0 |  0.00
Modify  | 69.241     | 70.315     | 71.388     |  12.8 |  1.91
Other   |            | 14.57      |            |       |  0.40

Nlocal:    9826 ave 9830 max 9822 min
Histogram: 1 0 0 0 0 0 0 0 0 1
Nghost:    10129.5 ave 10130 max 10129 min
Histogram: 1 0 0 0 0 0 0 0 0 1
Neighs:    418890 ave 422019 max 415762 min
Histogram: 1 0 0 0 0 0 0 0 0 1

Total # of neighbors = 837781
Ave neighs/atom = 42.6308
Neighbor list builds = 49505
Dangerous builds not checked
Setting up Verlet run ...
  Unit style    : metal
  Current step  : 640000
  Time step     : 0.001
Per MPI rank memory allocation (min/avg/max) = 11.36 | 11.36 | 11.36 Mbytes
Step Temp Press TotEng PotEng Enthalpy 
  640000    1835.5863    456.53454   -19003.346   -23665.902   -18836.492 
  640495     1821.442   -550.64549   -19117.277   -23743.905   -19318.993 
Loop time of 34.5853 on 2 procs for 495 steps with 19652 atoms

Performance: 1.237 ns/day, 19.408 hours/ns, 14.312 timesteps/s
99.5% CPU use with 2 MPI tasks x no OpenMP threads

MPI task timing breakdown:
Section |  min time  |  avg time  |  max time  |%varavg| %total
---------------------------------------------------------------
Pair    | 17.532     | 18.215     | 18.898     |  16.0 | 52.67
Neigh   | 13.604     | 13.687     | 13.769     |   2.2 | 39.57
Comm    | 1.2287     | 1.8645     | 2.5002     |  46.6 |  5.39
Output  | 0.00012684 | 0.00014746 | 0.00016809 |   0.0 |  0.00
Modify  | 0.6443     | 0.67213    | 0.69995    |   3.4 |  1.94
Other   |            | 0.1471     |            |       |  0.43

Nlocal:    9826 ave 9844 max 9808 min
Histogram: 1 0 0 0 0 0 0 0 0 1
Nghost:    10171.5 ave 10189 max 10154 min
Histogram: 1 0 0 0 0 0 0 0 0 1
Neighs:    417850 ave 420371 max 415328 min
Histogram: 1 0 0 0 0 0 0 0 0 1

Total # of neighbors = 835699
Ave neighs/atom = 42.5249
Neighbor list builds = 495
Dangerous builds not checked
Setting up Verlet run ...
  Unit style    : metal
  Current step  : 640495
  Time step     : 0.001
Per MPI rank memory allocation (min/avg/max) = 11.36 | 11.36 | 11.36 Mbytes
Step Temp Press TotEng PotEng Enthalpy 
  640495     1821.442   -550.64549   -19117.277   -23743.905   -19318.993 
  650000    1796.5273    87.927253   -19158.905   -23722.248   -19126.776 
  690000    1797.4328   -124.96785   -19277.913   -23843.556   -19323.399 
Loop time of 3696.21 on 2 procs for 49505 steps with 19652 atoms

Performance: 1.157 ns/day, 20.740 hours/ns, 13.393 timesteps/s
99.1% CPU use with 2 MPI tasks x no OpenMP threads

MPI task timing breakdown:
Section |  min time  |  avg time  |  max time  |%varavg| %total
---------------------------------------------------------------
Pair    | 1957.2     | 1964.4     | 1971.7     |  16.4 | 53.15
Neigh   | 1400.5     | 1418.6     | 1436.7     |  48.0 | 38.38
Comm    | 201.83     | 227.3      | 252.77     | 168.9 |  6.15
Output  | 0.036107   | 0.036166   | 0.036225   |   0.0 |  0.00
Modify  | 70.942     | 71.081     | 71.22      |   1.6 |  1.92
Other   |            | 14.79      |            |       |  0.40

Nlocal:    9826 ave 9851 max 9801 min
Histogram: 1 0 0 0 0 0 0 0 0 1
Nghost:    10144 ave 10178 max 10110 min
Histogram: 1 0 0 0 0 0 0 0 0 1
Neighs:    420682 ave 421183 max 420182 min
Histogram: 1 0 0 0 0 0 0 0 0 1

Total # of neighbors = 841365
Ave neighs/atom = 42.8132
Neighbor list builds = 49505
Dangerous builds not checked
Setting up Verlet run ...
  Unit style    : metal
  Current step  : 690000
  Time step     : 0.001
Per MPI rank memory allocation (min/avg/max) = 11.36 | 11.36 | 11.36 Mbytes
Step Temp Press TotEng PotEng Enthalpy 
  690000    1797.4328   -124.96785   -19277.913   -23843.556   -19323.399 
  690495    1756.5718   -263.79356   -19392.843   -23854.696    -19488.83 
Loop time of 33.5197 on 2 procs for 495 steps with 19652 atoms

Performance: 1.276 ns/day, 18.810 hours/ns, 14.767 timesteps/s
99.8% CPU use with 2 MPI tasks x no OpenMP threads

MPI task timing breakdown:
Section |  min time  |  avg time  |  max time  |%varavg| %total
---------------------------------------------------------------
Pair    | 16.933     | 17.664     | 18.395     |  17.4 | 52.70
Neigh   | 12.631     | 13.004     | 13.378     |  10.4 | 38.80
Comm    | 1.6475     | 2.0316     | 2.4157     |  26.9 |  6.06
Output  | 0.00023293 | 0.00029552 | 0.0003581  |   0.0 |  0.00
Modify  | 0.65528    | 0.6752     | 0.69512    |   2.4 |  2.01
Other   |            | 0.1449     |            |       |  0.43

Nlocal:    9826 ave 9837 max 9815 min
Histogram: 1 0 0 0 0 0 0 0 0 1
Nghost:    10210.5 ave 10221 max 10200 min
Histogram: 1 0 0 0 0 0 0 0 0 1
Neighs:    420868 ave 423240 max 418496 min
Histogram: 1 0 0 0 0 0 0 0 0 1

Total # of neighbors = 841736
Ave neighs/atom = 42.8321
Neighbor list builds = 495
Dangerous builds not checked
Setting up Verlet run ...
  Unit style    : metal
  Current step  : 690495
  Time step     : 0.001
Per MPI rank memory allocation (min/avg/max) = 11.36 | 11.36 | 11.36 Mbytes
Step Temp Press TotEng PotEng Enthalpy 
  690495    1756.5718   -263.79356   -19392.843   -23854.696    -19488.83 
  700000    1758.7794    204.64674   -19487.058   -23954.518   -19413.051 
  740000    1743.5108   -93.322444   -19555.983   -23984.659   -19589.714 
Loop time of 3736.98 on 2 procs for 49505 steps with 19652 atoms

Performance: 1.145 ns/day, 20.969 hours/ns, 13.247 timesteps/s
99.3% CPU use with 2 MPI tasks x no OpenMP threads

MPI task timing breakdown:
Section |  min time  |  avg time  |  max time  |%varavg| %total
---------------------------------------------------------------
Pair    | 1980.3     | 1997.5     | 2014.6     |  38.4 | 53.45
Neigh   | 1425.1     | 1429       | 1432.8     |  10.1 | 38.24
Comm    | 207.91     | 220.72     | 233.52     |  86.2 |  5.91
Output  | 0.041763   | 0.041855   | 0.041947   |   0.0 |  0.00
Modify  | 74.131     | 74.491     | 74.851     |   4.2 |  1.99
Other   |            | 15.29      |            |       |  0.41

Nlocal:    9826 ave 9843 max 9809 min
Histogram: 1 0 0 0 0 0 0 0 0 1
Nghost:    10277.5 ave 10299 max 10256 min
Histogram: 1 0 0 0 0 0 0 0 0 1
Neighs:    423532 ave 428241 max 418822 min
Histogram: 1 0 0 0 0 0 0 0 0 1

Total # of neighbors = 847063
Ave neighs/atom = 43.1031
Neighbor list builds = 49505
Dangerous builds not checked
Setting up Verlet run ...
  Unit style    : metal
  Current step  : 740000
  Time step     : 0.001
Per MPI rank memory allocation (min/avg/max) = 11.36 | 11.36 | 11.36 Mbytes
Step Temp Press TotEng PotEng Enthalpy 
  740000    1743.5108   -93.322444   -19555.983   -23984.659   -19589.714 
  740495    1713.8901   -199.76519   -19703.161   -24056.598     -19775.2 
Loop time of 36.47 on 2 procs for 495 steps with 19652 atoms

Performance: 1.173 ns/day, 20.466 hours/ns, 13.573 timesteps/s
99.4% CPU use with 2 MPI tasks x no OpenMP threads

MPI task timing breakdown:
Section |  min time  |  avg time  |  max time  |%varavg| %total
---------------------------------------------------------------
Pair    | 18.412     | 19.326     | 20.239     |  20.8 | 52.99
Neigh   | 13.398     | 13.778     | 14.157     |  10.2 | 37.78
Comm    | 1.8546     | 2.4336     | 3.0125     |  37.1 |  6.67
Output  | 0.00016403 | 0.00021398 | 0.00026393 |   0.0 |  0.00
Modify  | 0.73884    | 0.77543    | 0.81203    |   4.2 |  2.13
Other   |            | 0.157      |            |       |  0.43

Nlocal:    9826 ave 9839 max 9813 min
Histogram: 1 0 0 0 0 0 0 0 0 1
Nghost:    10222.5 ave 10256 max 10189 min
Histogram: 1 0 0 0 0 0 0 0 0 1
Neighs:    424660 ave 429072 max 420248 min
Histogram: 1 0 0 0 0 0 0 0 0 1

Total # of neighbors = 849320
Ave neighs/atom = 43.218
Neighbor list builds = 495
Dangerous builds not checked
Setting up Verlet run ...
  Unit style    : metal
  Current step  : 740495
  Time step     : 0.001
Per MPI rank memory allocation (min/avg/max) = 11.36 | 11.36 | 11.36 Mbytes
Step Temp Press TotEng PotEng Enthalpy 
  740495    1713.8901   -199.76519   -19703.161   -24056.598     -19775.2 
  750000    1705.7311    -235.6186   -19786.439   -24119.152   -19871.151 
  790000    1700.3103   -469.14273   -19786.249   -24105.192   -19955.125 
Loop time of 3933.75 on 2 procs for 49505 steps with 19652 atoms

Performance: 1.087 ns/day, 22.073 hours/ns, 12.585 timesteps/s
99.1% CPU use with 2 MPI tasks x no OpenMP threads

MPI task timing breakdown:
Section |  min time  |  avg time  |  max time  |%varavg| %total
---------------------------------------------------------------
Pair    | 2077.8     | 2101.1     | 2124.4     |  50.8 | 53.41
Neigh   | 1503       | 1514.6     | 1526.1     |  29.6 | 38.50
Comm    | 185.43     | 221.54     | 257.66     | 242.6 |  5.63
Output  | 0.042189   | 0.042237   | 0.042285   |   0.0 |  0.00
Modify  | 79.218     | 80.248     | 81.277     |  11.5 |  2.04
Other   |            | 16.27      |            |       |  0.41

Nlocal:    9826 ave 9830 max 9822 min
Histogram: 1 0 0 0 0 0 0 0 0 1
Nghost:    10228 ave 10241 max 10215 min
Histogram: 1 0 0 0 0 0 0 0 0 1
Neighs:    425319 ave 428296 max 422342 min
Histogram: 1 0 0 0 0 0 0 0 0 1

Total # of neighbors = 850638
Ave neighs/atom = 43.2851
Neighbor list builds = 49505
Dangerous builds not checked
Setting up Verlet run ...
  Unit style    : metal
  Current step  : 790000
  Time step     : 0.001
Per MPI rank memory allocation (min/avg/max) = 11.36 | 11.36 | 11.36 Mbytes
Step Temp Press TotEng PotEng Enthalpy 
  790000    1700.3103   -469.14273   -19786.249   -24105.192   -19955.125 
  790495    1652.2997    296.06213   -20009.528    -24206.52   -19903.776 
Loop time of 36.5835 on 2 procs for 495 steps with 19652 atoms

Performance: 1.169 ns/day, 20.529 hours/ns, 13.531 timesteps/s
99.9% CPU use with 2 MPI tasks x no OpenMP threads

MPI task timing breakdown:
Section |  min time  |  avg time  |  max time  |%varavg| %total
---------------------------------------------------------------
Pair    | 19.492     | 19.601     | 19.71      |   2.5 | 53.58
Neigh   | 13.939     | 14.14      | 14.342     |   5.4 | 38.65
Comm    | 1.5707     | 1.8935     | 2.2163     |  23.5 |  5.18
Output  | 0.00014091 | 0.00017393 | 0.00020695 |   0.0 |  0.00
Modify  | 0.77676    | 0.78564    | 0.79453    |   1.0 |  2.15
Other   |            | 0.1626     |            |       |  0.44

Nlocal:    9826 ave 9831 max 9821 min
Histogram: 1 0 0 0 0 0 0 0 0 1
Nghost:    10280.5 ave 10367 max 10194 min
Histogram: 1 0 0 0 0 0 0 0 0 1
Neighs:    428858 ave 432865 max 424851 min
Histogram: 1 0 0 0 0 0 0 0 0 1

Total # of neighbors = 857716
Ave neighs/atom = 43.6452
Neighbor list builds = 495
Dangerous builds not checked
Setting up Verlet run ...
  Unit style    : metal
  Current step  : 790495
  Time step     : 0.001
Per MPI rank memory allocation (min/avg/max) = 11.36 | 11.36 | 11.36 Mbytes
Step Temp Press TotEng PotEng Enthalpy 
  790495    1652.2997    296.06213   -20009.528    -24206.52   -19903.776 
  800000    1653.8686    355.59357   -20100.761   -24301.738   -19974.233 
  840000    1652.6164   -513.69571   -20064.619   -24262.415   -20248.281 
Loop time of 3695.72 on 2 procs for 49505 steps with 19652 atoms

Performance: 1.157 ns/day, 20.737 hours/ns, 13.395 timesteps/s
99.3% CPU use with 2 MPI tasks x no OpenMP threads

MPI task timing breakdown:
Section |  min time  |  avg time  |  max time  |%varavg| %total
---------------------------------------------------------------
Pair    | 1970.7     | 1976.4     | 1982.2     |  13.0 | 53.48
Neigh   | 1441.2     | 1446.3     | 1451.4     |  13.5 | 39.13
Comm    | 175.4      | 186.97     | 198.55     |  84.7 |  5.06
Output  | 0.044775   | 0.044808   | 0.04484    |   0.0 |  0.00
Modify  | 70.297     | 70.901     | 71.506     |   7.2 |  1.92
Other   |            | 15.08      |            |       |  0.41

Nlocal:    9826 ave 9868 max 9784 min
Histogram: 1 0 0 0 0 0 0 0 0 1
Nghost:    10282 ave 10323 max 10241 min
Histogram: 1 0 0 0 0 0 0 0 0 1
Neighs:    428300 ave 435038 max 421562 min
Histogram: 1 0 0 0 0 0 0 0 0 1

Total # of neighbors = 856600
Ave neighs/atom = 43.5884
Neighbor list builds = 49505
Dangerous builds not checked
Setting up Verlet run ...
  Unit style    : metal
  Current step  : 840000
  Time step     : 0.001
Per MPI rank memory allocation (min/avg/max) = 11.36 | 11.36 | 11.36 Mbytes
Step Temp Press TotEng PotEng Enthalpy 
  840000    1652.6164   -513.69571   -20064.619   -24262.415   -20248.281 
  840495    1615.9791    54.549252   -20269.412   -24374.146   -20250.054 
Loop time of 35.3167 on 2 procs for 495 steps with 19652 atoms

Performance: 1.211 ns/day, 19.819 hours/ns, 14.016 timesteps/s
99.8% CPU use with 2 MPI tasks x no OpenMP threads

MPI task timing breakdown:
Section |  min time  |  avg time  |  max time  |%varavg| %total
---------------------------------------------------------------
Pair    | 18.832     | 18.85      | 18.868     |   0.4 | 53.37
Neigh   | 13.286     | 13.361     | 13.437     |   2.1 | 37.83
Comm    | 2.1206     | 2.1883     | 2.256      |   4.6 |  6.20
Output  | 0.00016904 | 0.00019145 | 0.00021386 |   0.0 |  0.00
Modify  | 0.75344    | 0.76238    | 0.77132    |   1.0 |  2.16
Other   |            | 0.1546     |            |       |  0.44

Nlocal:    9826 ave 9851 max 9801 min
Histogram: 1 0 0 0 0 0 0 0 0 1
Nghost:    10294.5 ave 10345 max 10244 min
Histogram: 1 0 0 0 0 0 0 0 0 1
Neighs:    431732 ave 436877 max 426588 min
Histogram: 1 0 0 0 0 0 0 0 0 1

Total # of neighbors = 863465
Ave neighs/atom = 43.9378
Neighbor list builds = 495
Dangerous builds not checked
Setting up Verlet run ...
  Unit style    : metal
  Current step  : 840495
  Time step     : 0.001
Per MPI rank memory allocation (min/avg/max) = 11.36 | 11.36 | 11.36 Mbytes
Step Temp Press TotEng PotEng Enthalpy 
  840495    1615.9791    54.549252   -20269.412   -24374.146   -20250.054 
  850000    1602.1336   -454.11266   -20319.393   -24388.958   -20480.822 
  890000    1613.5102   -99.558553   -20333.538   -24432.001     -20368.8 
Loop time of 3519.84 on 2 procs for 49505 steps with 19652 atoms

Performance: 1.215 ns/day, 19.750 hours/ns, 14.065 timesteps/s
99.5% CPU use with 2 MPI tasks x no OpenMP threads

MPI task timing breakdown:
Section |  min time  |  avg time  |  max time  |%varavg| %total
---------------------------------------------------------------
Pair    | 1876       | 1886.7     | 1897.4     |  24.6 | 53.60
Neigh   | 1355.3     | 1363.2     | 1371.2     |  21.5 | 38.73
Comm    | 174.18     | 192.96     | 211.73     | 135.1 |  5.48
Output  | 0.025108   | 0.025156   | 0.025203   |   0.0 |  0.00
Modify  | 62.966     | 63.075     | 63.183     |   1.4 |  1.79
Other   |            | 13.9       |            |       |  0.39

Nlocal:    9826 ave 9834 max 9818 min
Histogram: 1 0 0 0 0 0 0 0 0 1
Nghost:    10292.5 ave 10309 max 10276 min
Histogram: 1 0 0 0 0 0 0 0 0 1
Neighs:    432520 ave 436507 max 428534 min
Histogram: 1 0 0 0 0 0 0 0 0 1

Total # of neighbors = 865041
Ave neighs/atom = 44.018
Neighbor list builds = 49505
Dangerous builds not checked
Setting up Verlet run ...
  Unit style    : metal
  Current step  : 890000
  Time step     : 0.001
Per MPI rank memory allocation (min/avg/max) = 11.36 | 11.36 | 11.36 Mbytes
Step Temp Press TotEng PotEng Enthalpy 
  890000    1613.5102   -99.558553   -20333.538   -24432.001     -20368.8 
  890495    1552.9676    356.40962   -20572.157   -24516.836   -20446.629 
Loop time of 33.2086 on 2 procs for 495 steps with 19652 atoms

Performance: 1.288 ns/day, 18.636 hours/ns, 14.906 timesteps/s
99.1% CPU use with 2 MPI tasks x no OpenMP threads

MPI task timing breakdown:
Section |  min time  |  avg time  |  max time  |%varavg| %total
---------------------------------------------------------------
Pair    | 17.472     | 17.793     | 18.114     |   7.6 | 53.58
Neigh   | 12.767     | 12.933     | 13.098     |   4.6 | 38.94
Comm    | 1.6438     | 1.7967     | 1.9495     |  11.4 |  5.41
Output  | 8.5115e-05 | 0.00010705 | 0.00012898 |   0.0 |  0.00
Modify  | 0.55259    | 0.55677    | 0.56096    |   0.6 |  1.68
Other   |            | 0.1294     |            |       |  0.39

Nlocal:    9826 ave 9853 max 9799 min
Histogram: 1 0 0 0 0 0 0 0 0 1
Nghost:    10324.5 ave 10343 max 10306 min
Histogram: 1 0 0 0 0 0 0 0 0 1
Neighs:    435077 ave 440669 max 429485 min
Histogram: 1 0 0 0 0 0 0 0 0 1

Total # of neighbors = 870154
Ave neighs/atom = 44.2781
Neighbor list builds = 495
Dangerous builds not checked
Setting up Verlet run ...
  Unit style    : metal
  Current step  : 890495
  Time step     : 0.001
Per MPI rank memory allocation (min/avg/max) = 11.36 | 11.36 | 11.36 Mbytes
Step Temp Press TotEng PotEng Enthalpy 
  890495    1552.9676    356.40962   -20572.157   -24516.836   -20446.629 
  900000    1550.4516   -257.03958   -20684.618   -24622.907    -20775.02 
  940000    1551.7756    336.00881    -20674.41   -24616.061     -20556.6 
Loop time of 3516.91 on 2 procs for 49505 steps with 19652 atoms

Performance: 1.216 ns/day, 19.734 hours/ns, 14.076 timesteps/s
99.3% CPU use with 2 MPI tasks x no OpenMP threads

MPI task timing breakdown:
Section |  min time  |  avg time  |  max time  |%varavg| %total
---------------------------------------------------------------
Pair    | 1879.7     | 1885.1     | 1890.4     |  12.3 | 53.60
Neigh   | 1357.1     | 1376.8     | 1396.5     |  53.1 | 39.15
Comm    | 153.8      | 179.35     | 204.89     | 190.7 |  5.10
Output  | 0.035786   | 0.035817   | 0.035847   |   0.0 |  0.00
Modify  | 61.535     | 61.96      | 62.384     |   5.4 |  1.76
Other   |            | 13.72      |            |       |  0.39

Nlocal:    9826 ave 9847 max 9805 min
Histogram: 1 0 0 0 0 0 0 0 0 1
Nghost:    10354.5 ave 10413 max 10296 min
Histogram: 1 0 0 0 0 0 0 0 0 1
Neighs:    436784 ave 439595 max 433972 min
Histogram: 1 0 0 0 0 0 0 0 0 1

Total # of neighbors = 873567
Ave neighs/atom = 44.4518
Neighbor list builds = 49505
Dangerous builds not checked
Setting up Verlet run ...
  Unit style    : metal
  Current step  : 940000
  Time step     : 0.001
Per MPI rank memory allocation (min/avg/max) = 11.36 | 11.36 | 11.36 Mbytes
Step Temp Press TotEng PotEng Enthalpy 
  940000    1551.7756    336.00881    -20674.41   -24616.061     -20556.6 
  940495      1512.79   -55.558434    -20847.88   -24690.504    -20867.35 
Loop time of 35.3449 on 2 procs for 495 steps with 19652 atoms

Performance: 1.210 ns/day, 19.834 hours/ns, 14.005 timesteps/s
99.9% CPU use with 2 MPI tasks x no OpenMP threads

MPI task timing breakdown:
Section |  min time  |  avg time  |  max time  |%varavg| %total
---------------------------------------------------------------
Pair    | 18.991     | 19.058     | 19.124     |   1.5 | 53.92
Neigh   | 11.556     | 13.054     | 14.552     |  41.5 | 36.93
Comm    | 0.89672    | 2.5255     | 4.1542     | 102.5 |  7.15
Output  | 0.00012398 | 0.00015903 | 0.00019407 |   0.0 |  0.00
Modify  | 0.53241    | 0.57738    | 0.62235    |   5.9 |  1.63
Other   |            | 0.1305     |            |       |  0.37

Nlocal:    9826 ave 9829 max 9823 min
Histogram: 1 0 0 0 0 0 0 0 0 1
Nghost:    10379.5 ave 10393 max 10366 min
Histogram: 1 0 0 0 0 0 0 0 0 1
Neighs:    437016 ave 440958 max 433075 min
Histogram: 1 0 0 0 0 0 0 0 0 1

Total # of neighbors = 874033
Ave neighs/atom = 44.4755
Neighbor list builds = 495
Dangerous builds not checked
Setting up Verlet run ...
  Unit style    : metal
  Current step  : 940495
  Time step     : 0.001
Per MPI rank memory allocation (min/avg/max) = 11.36 | 11.36 | 11.36 Mbytes
Step Temp Press TotEng PotEng Enthalpy 
  940495      1512.79   -55.558434    -20847.88   -24690.504    -20867.35 
  950000    1488.5491   -373.97633   -20992.143   -24773.193   -21122.905 
  990000    1480.1708   -621.87428   -20975.981    -24735.75   -21193.969 
Loop time of 3306.79 on 2 procs for 49505 steps with 19652 atoms

Performance: 1.293 ns/day, 18.555 hours/ns, 14.971 timesteps/s
99.7% CPU use with 2 MPI tasks x no OpenMP threads

MPI task timing breakdown:
Section |  min time  |  avg time  |  max time  |%varavg| %total
---------------------------------------------------------------
Pair    | 1751       | 1775.8     | 1800.6     |  58.8 | 53.70
Neigh   | 1283.7     | 1294       | 1304.3     |  28.6 | 39.13
Comm    | 134.91     | 170.3      | 205.69     | 271.2 |  5.15
Output  | 0.034865   | 0.034893   | 0.034921   |   0.0 |  0.00
Modify  | 53.891     | 54.002     | 54.113     |   1.5 |  1.63
Other   |            | 12.62      |            |       |  0.38

Nlocal:    9826 ave 9841 max 9811 min
Histogram: 1 0 0 0 0 0 0 0 0 1
Nghost:    10339 ave 10355 max 10323 min
Histogram: 1 0 0 0 0 0 0 0 0 1
Neighs:    437152 ave 439963 max 434342 min
Histogram: 1 0 0 0 0 0 0 0 0 1

Total # of neighbors = 874305
Ave neighs/atom = 44.4894
Neighbor list builds = 49505
Dangerous builds not checked
Setting up Verlet run ...
  Unit style    : metal
  Current step  : 990000
  Time step     : 0.001
Per MPI rank memory allocation (min/avg/max) = 11.36 | 11.36 | 11.36 Mbytes
Step Temp Press TotEng PotEng Enthalpy 
  990000    1480.1708   -621.87428   -20975.981    -24735.75   -21193.969 
  990495    1461.8858    47.999927   -21130.811   -24844.134   -21114.107 
Loop time of 32.9585 on 2 procs for 495 steps with 19652 atoms

Performance: 1.298 ns/day, 18.495 hours/ns, 15.019 timesteps/s
98.0% CPU use with 2 MPI tasks x no OpenMP threads

MPI task timing breakdown:
Section |  min time  |  avg time  |  max time  |%varavg| %total
---------------------------------------------------------------
Pair    | 17.362     | 17.767     | 18.171     |   9.6 | 53.91
Neigh   | 11.773     | 12.805     | 13.838     |  28.9 | 38.85
Comm    | 1.0263     | 1.6985     | 2.3706     |  51.6 |  5.15
Output  | 9.2983e-05 | 0.000121   | 0.00014901 |   0.0 |  0.00
Modify  | 0.53012    | 0.56347    | 0.59682    |   4.4 |  1.71
Other   |            | 0.1246     |            |       |  0.38

Nlocal:    9826 ave 9833 max 9819 min
Histogram: 1 0 0 0 0 0 0 0 0 1
Nghost:    10388.5 ave 10416 max 10361 min
Histogram: 1 0 0 0 0 0 0 0 0 1
Neighs:    440348 ave 443947 max 436750 min
Histogram: 1 0 0 0 0 0 0 0 0 1

Total # of neighbors = 880697
Ave neighs/atom = 44.8146
Neighbor list builds = 495
Dangerous builds not checked
Setting up Verlet run ...
  Unit style    : metal
  Current step  : 990495
  Time step     : 0.001
Per MPI rank memory allocation (min/avg/max) = 11.36 | 11.36 | 11.36 Mbytes
Step Temp Press TotEng PotEng Enthalpy 
  990495    1461.8858    47.999927   -21130.811   -24844.134   -21114.107 
 1000000    1447.7554   -265.27253   -21230.073   -24907.504   -21322.208 
 1040000    1463.1919    106.63897   -21190.033   -24906.673   -21152.989 
Loop time of 3204.76 on 2 procs for 49505 steps with 19652 atoms

Performance: 1.335 ns/day, 17.982 hours/ns, 15.447 timesteps/s
99.7% CPU use with 2 MPI tasks x no OpenMP threads

MPI task timing breakdown:
Section |  min time  |  avg time  |  max time  |%varavg| %total
---------------------------------------------------------------
Pair    | 1706.6     | 1716.5     | 1726.3     |  23.7 | 53.56
Neigh   | 1255.4     | 1262.4     | 1269.5     |  19.9 | 39.39
Comm    | 145.61     | 162.53     | 179.45     | 132.7 |  5.07
Output  | 0.037282   | 0.037315   | 0.037348   |   0.0 |  0.00
Modify  | 51.463     | 51.478     | 51.493     |   0.2 |  1.61
Other   |            | 11.8       |            |       |  0.37

Nlocal:    9826 ave 9831 max 9821 min
Histogram: 1 0 0 0 0 0 0 0 0 1
Nghost:    10373 ave 10381 max 10365 min
Histogram: 1 0 0 0 0 0 0 0 0 1
Neighs:    441098 ave 444700 max 437495 min
Histogram: 1 0 0 0 0 0 0 0 0 1

Total # of neighbors = 882195
Ave neighs/atom = 44.8909
Neighbor list builds = 49505
Dangerous builds not checked
Setting up Verlet run ...
  Unit style    : metal
  Current step  : 1040000
  Time step     : 0.001
Per MPI rank memory allocation (min/avg/max) = 11.36 | 11.36 | 11.36 Mbytes
Step Temp Press TotEng PotEng Enthalpy 
 1040000    1463.1919    106.63897   -21190.033   -24906.673   -21152.989 
 1040495    1416.9344   -113.71701   -21398.379   -24997.522   -21437.702 
Loop time of 31.233 on 2 procs for 495 steps with 19652 atoms

Performance: 1.369 ns/day, 17.527 hours/ns, 15.849 timesteps/s
100.0% CPU use with 2 MPI tasks x no OpenMP threads

MPI task timing breakdown:
Section |  min time  |  avg time  |  max time  |%varavg| %total
---------------------------------------------------------------
Pair    | 16.571     | 16.644     | 16.717     |   1.8 | 53.29
Neigh   | 12.431     | 12.569     | 12.707     |   3.9 | 40.24
Comm    | 1.2066     | 1.4201     | 1.6337     |  17.9 |  4.55
Output  | 8.7976e-05 | 0.00011504 | 0.0001421  |   0.0 |  0.00
Modify  | 0.48854    | 0.49058    | 0.49261    |   0.3 |  1.57
Other   |            | 0.1085     |            |       |  0.35

Nlocal:    9826 ave 9831 max 9821 min
Histogram: 1 0 0 0 0 0 0 0 0 1
Nghost:    10428 ave 10443 max 10413 min
Histogram: 1 0 0 0 0 0 0 0 0 1
Neighs:    443292 ave 447345 max 439238 min
Histogram: 1 0 0 0 0 0 0 0 0 1

Total # of neighbors = 886583
Ave neighs/atom = 45.1141
Neighbor list builds = 495
Dangerous builds not checked
Setting up Verlet run ...
  Unit style    : metal
  Current step  : 1040495
  Time step     : 0.001
Per MPI rank memory allocation (min/avg/max) = 11.36 | 11.36 | 11.36 Mbytes
Step Temp Press TotEng PotEng Enthalpy 
 1040495    1416.9344   -113.71701   -21398.379   -24997.522   -21437.702 
 1050000    1394.0346   -522.59069   -21518.838   -25059.813   -21699.369 
 1090000    1407.1346    637.11373   -21514.073   -25088.323   -21294.957 
Loop time of 3132.06 on 2 procs for 49505 steps with 19652 atoms

Performance: 1.366 ns/day, 17.574 hours/ns, 15.806 timesteps/s
99.9% CPU use with 2 MPI tasks x no OpenMP threads

MPI task timing breakdown:
Section |  min time  |  avg time  |  max time  |%varavg| %total
---------------------------------------------------------------
Pair    | 1654.6     | 1676.1     | 1697.7     |  52.6 | 53.51
Neigh   | 1215.9     | 1236.4     | 1256.9     |  58.2 | 39.47
Comm    | 114.98     | 158.07     | 201.16     | 342.7 |  5.05
Output  | 0.034602   | 0.034647   | 0.034693   |   0.0 |  0.00
Modify  | 49.422     | 50.006     | 50.591     |   8.3 |  1.60
Other   |            | 11.46      |            |       |  0.37

Nlocal:    9826 ave 9839 max 9813 min
Histogram: 1 0 0 0 0 0 0 0 0 1
Nghost:    10449 ave 10463 max 10435 min
Histogram: 1 0 0 0 0 0 0 0 0 1
Neighs:    445996 ave 450268 max 441724 min
Histogram: 1 0 0 0 0 0 0 0 0 1

Total # of neighbors = 891992
Ave neighs/atom = 45.3894
Neighbor list builds = 49505
Dangerous builds not checked
Setting up Verlet run ...
  Unit style    : metal
  Current step  : 1090000
  Time step     : 0.001
Per MPI rank memory allocation (min/avg/max) = 11.36 | 11.36 | 11.36 Mbytes
Step Temp Press TotEng PotEng Enthalpy 
 1090000    1407.1346    637.11373   -21514.073   -25088.323   -21294.957 
 1090495    1369.7418    282.75016   -21664.237   -25143.505   -21567.137 
Loop time of 31.3254 on 2 procs for 495 steps with 19652 atoms

Performance: 1.365 ns/day, 17.579 hours/ns, 15.802 timesteps/s
99.8% CPU use with 2 MPI tasks x no OpenMP threads

MPI task timing breakdown:
Section |  min time  |  avg time  |  max time  |%varavg| %total
---------------------------------------------------------------
Pair    | 16.787     | 17.001     | 17.215     |   5.2 | 54.27
Neigh   | 11.161     | 11.675     | 12.188     |  15.0 | 37.27
Comm    | 1.2883     | 2.0358     | 2.7834     |  52.4 |  6.50
Output  | 8.8215e-05 | 0.00010812 | 0.00012803 |   0.0 |  0.00
Modify  | 0.47882    | 0.49321    | 0.50759    |   2.0 |  1.57
Other   |            | 0.1205     |            |       |  0.38

Nlocal:    9826 ave 9855 max 9797 min
Histogram: 1 0 0 0 0 0 0 0 0 1
Nghost:    10440.5 ave 10463 max 10418 min
Histogram: 1 0 0 0 0 0 0 0 0 1
Neighs:    446353 ave 448187 max 444519 min
Histogram: 1 0 0 0 0 0 0 0 0 1

Total # of neighbors = 892706
Ave neighs/atom = 45.4257
Neighbor list builds = 495
Dangerous builds not checked
Setting up Verlet run ...
  Unit style    : metal
  Current step  : 1090495
  Time step     : 0.001
Per MPI rank memory allocation (min/avg/max) = 11.36 | 11.36 | 11.36 Mbytes
Step Temp Press TotEng PotEng Enthalpy 
 1090495    1369.7418    282.75016   -21664.237   -25143.505   -21567.137 
 1100000    1345.4244    68.704505   -21838.604   -25256.104   -21815.101 
 1140000    1339.2865    7.0480635   -21840.627   -25242.536   -21838.214 
Loop time of 3283.8 on 2 procs for 49505 steps with 19652 atoms

Performance: 1.303 ns/day, 18.426 hours/ns, 15.076 timesteps/s
99.6% CPU use with 2 MPI tasks x no OpenMP threads

MPI task timing breakdown:
Section |  min time  |  avg time  |  max time  |%varavg| %total
---------------------------------------------------------------
Pair    | 1761.1     | 1775.3     | 1789.6     |  33.9 | 54.06
Neigh   | 1258.2     | 1271.8     | 1285.3     |  37.9 | 38.73
Comm    | 142.11     | 170.61     | 199.1      | 218.2 |  5.20
Output  | 0.034641   | 0.034675   | 0.034709   |   0.0 |  0.00
Modify  | 53.152     | 53.608     | 54.065     |   6.2 |  1.63
Other   |            | 12.46      |            |       |  0.38

Nlocal:    9826 ave 9836 max 9816 min
Histogram: 1 0 0 0 0 0 0 0 0 1
Nghost:    10495.5 ave 10524 max 10467 min
Histogram: 1 0 0 0 0 0 0 0 0 1
Neighs:    448196 ave 451980 max 444411 min
Histogram: 1 0 0 0 0 0 0 0 0 1

Total # of neighbors = 896391
Ave neighs/atom = 45.6132
Neighbor list builds = 49505
Dangerous builds not checked
Setting up Verlet run ...
  Unit style    : metal
  Current step  : 1140000
  Time step     : 0.001
Per MPI rank memory allocation (min/avg/max) = 11.36 | 11.36 | 11.36 Mbytes
Step Temp Press TotEng PotEng Enthalpy 
 1140000    1339.2865    7.0480635   -21840.627   -25242.536   -21838.214 
 1140495    1313.6878    312.75213   -22003.265   -25340.152   -21896.688 
Loop time of 35.6323 on 2 procs for 495 steps with 19652 atoms

Performance: 1.200 ns/day, 19.996 hours/ns, 13.892 timesteps/s
99.0% CPU use with 2 MPI tasks x no OpenMP threads

MPI task timing breakdown:
Section |  min time  |  avg time  |  max time  |%varavg| %total
---------------------------------------------------------------
Pair    | 19.035     | 19.241     | 19.448     |   4.7 | 54.00
Neigh   | 14.025     | 14.329     | 14.632     |   8.0 | 40.21
Comm    | 1.1705     | 1.2587     | 1.3469     |   7.9 |  3.53
Output  | 9.8944e-05 | 0.000126   | 0.00015306 |   0.0 |  0.00
Modify  | 0.65626    | 0.65912    | 0.66198    |   0.4 |  1.85
Other   |            | 0.1442     |            |       |  0.40

Nlocal:    9826 ave 9875 max 9777 min
Histogram: 1 0 0 0 0 0 0 0 0 1
Nghost:    10461.5 ave 10471 max 10452 min
Histogram: 1 0 0 0 0 0 0 0 0 1
Neighs:    450070 ave 450439 max 449700 min
Histogram: 1 0 0 0 0 0 0 0 0 1

Total # of neighbors = 900139
Ave neighs/atom = 45.8039
Neighbor list builds = 495
Dangerous builds not checked
Setting up Verlet run ...
  Unit style    : metal
  Current step  : 1140495
  Time step     : 0.001
Per MPI rank memory allocation (min/avg/max) = 11.36 | 11.36 | 11.36 Mbytes
Step Temp Press TotEng PotEng Enthalpy 
 1140495    1313.6878    312.75213   -22003.265   -25340.152   -21896.688 
 1150000    1303.4722    167.95167   -22089.694   -25400.632   -22032.614 
 1190000    1293.1176    400.48198   -22147.366   -25432.003   -22011.477 
Loop time of 3370.14 on 2 procs for 49505 steps with 19652 atoms

Performance: 1.269 ns/day, 18.910 hours/ns, 14.689 timesteps/s
98.9% CPU use with 2 MPI tasks x no OpenMP threads

MPI task timing breakdown:
Section |  min time  |  avg time  |  max time  |%varavg| %total
---------------------------------------------------------------
Pair    | 1807.9     | 1826.2     | 1844.5     |  42.9 | 54.19
Neigh   | 1294.6     | 1297.5     | 1300.5     |   8.1 | 38.50
Comm    | 155.14     | 176.21     | 197.28     | 158.7 |  5.23
Output  | 0.03439    | 0.034448   | 0.034506   |   0.0 |  0.00
Modify  | 56.996     | 57.161     | 57.326     |   2.2 |  1.70
Other   |            | 12.95      |            |       |  0.38

Nlocal:    9826 ave 9858 max 9794 min
Histogram: 1 0 0 0 0 0 0 0 0 1
Nghost:    10476 ave 10476 max 10476 min
Histogram: 2 0 0 0 0 0 0 0 0 0
Neighs:    452404 ave 453540 max 451267 min
Histogram: 1 0 0 0 0 0 0 0 0 1

Total # of neighbors = 904807
Ave neighs/atom = 46.0415
Neighbor list builds = 49505
Dangerous builds not checked
Setting up Verlet run ...
  Unit style    : metal
  Current step  : 1190000
  Time step     : 0.001
Per MPI rank memory allocation (min/avg/max) = 11.36 | 11.36 | 11.36 Mbytes
Step Temp Press TotEng PotEng Enthalpy 
 1190000    1293.1176    400.48198   -22147.366   -25432.003   -22011.477 
 1190495    1268.3598     141.3054   -22289.941   -25511.691   -22242.154 
Loop time of 31.2717 on 2 procs for 495 steps with 19652 atoms

Performance: 1.368 ns/day, 17.549 hours/ns, 15.829 timesteps/s
100.0% CPU use with 2 MPI tasks x no OpenMP threads

MPI task timing breakdown:
Section |  min time  |  avg time  |  max time  |%varavg| %total
---------------------------------------------------------------
Pair    | 16.711     | 17.014     | 17.317     |   7.3 | 54.41
Neigh   | 11.574     | 12.048     | 12.523     |  13.7 | 38.53
Comm    | 1.3354     | 1.5338     | 1.7323     |  16.0 |  4.90
Output  | 0.00010705 | 0.00014901 | 0.00019097 |   0.0 |  0.00
Modify  | 0.52663    | 0.54793    | 0.56922    |   2.9 |  1.75
Other   |            | 0.1273     |            |       |  0.41

Nlocal:    9826 ave 9856 max 9796 min
Histogram: 1 0 0 0 0 0 0 0 0 1
Nghost:    10532 ave 10545 max 10519 min
Histogram: 1 0 0 0 0 0 0 0 0 1
Neighs:    453546 ave 455452 max 451639 min
Histogram: 1 0 0 0 0 0 0 0 0 1

Total # of neighbors = 907091
Ave neighs/atom = 46.1577
Neighbor list builds = 495
Dangerous builds not checked
Setting up Verlet run ...
  Unit style    : metal
  Current step  : 1190495
  Time step     : 0.001
Per MPI rank memory allocation (min/avg/max) = 11.36 | 11.36 | 11.36 Mbytes
Step Temp Press TotEng PotEng Enthalpy 
 1190495    1268.3598     141.3054   -22289.941   -25511.691   -22242.154 
 1200000    1246.1522   -312.08369   -22409.822   -25575.163   -22515.401 
 1240000    1243.9367    67.084952   -22430.939   -25590.651     -22408.3 
Loop time of 3525.28 on 2 procs for 49505 steps with 19652 atoms

Performance: 1.213 ns/day, 19.781 hours/ns, 14.043 timesteps/s
99.5% CPU use with 2 MPI tasks x no OpenMP threads

MPI task timing breakdown:
Section |  min time  |  avg time  |  max time  |%varavg| %total
---------------------------------------------------------------
Pair    | 1916.7     | 1927.5     | 1938.3     |  24.5 | 54.68
Neigh   | 1344.8     | 1348.8     | 1352.9     |  11.0 | 38.26
Comm    | 157.25     | 172.35     | 187.44     | 115.0 |  4.89
Output  | 0.19689    | 0.20192    | 0.20694    |   1.1 |  0.01
Modify  | 61.847     | 62.108     | 62.37      |   3.3 |  1.76
Other   |            | 14.29      |            |       |  0.41

Nlocal:    9826 ave 9841 max 9811 min
Histogram: 1 0 0 0 0 0 0 0 0 1
Nghost:    10505.5 ave 10510 max 10501 min
Histogram: 1 0 0 0 0 0 0 0 0 1
Neighs:    454692 ave 456935 max 452449 min
Histogram: 1 0 0 0 0 0 0 0 0 1

Total # of neighbors = 909384
Ave neighs/atom = 46.2744
Neighbor list builds = 49505
Dangerous builds not checked
Setting up Verlet run ...
  Unit style    : metal
  Current step  : 1240000
  Time step     : 0.001
Per MPI rank memory allocation (min/avg/max) = 11.36 | 11.36 | 11.36 Mbytes
Step Temp Press TotEng PotEng Enthalpy 
 1240000    1243.9367    67.084952   -22430.939   -25590.651     -22408.3 
 1240495     1219.186   -247.62777   -22574.265   -25671.109   -22657.734 
Loop time of 31.3269 on 2 procs for 495 steps with 19652 atoms

Performance: 1.365 ns/day, 17.580 hours/ns, 15.801 timesteps/s
99.0% CPU use with 2 MPI tasks x no OpenMP threads

MPI task timing breakdown:
Section |  min time  |  avg time  |  max time  |%varavg| %total
---------------------------------------------------------------
Pair    | 16.864     | 17.096     | 17.329     |   5.6 | 54.57
Neigh   | 10.778     | 11.853     | 12.928     |  31.2 | 37.84
Comm    | 0.88487    | 1.764      | 2.6432     |  66.2 |  5.63
Output  | 0.000108   | 0.00012898 | 0.00014997 |   0.0 |  0.00
Modify  | 0.46717    | 0.49566    | 0.52415    |   4.0 |  1.58
Other   |            | 0.1181     |            |       |  0.38

Nlocal:    9826 ave 9836 max 9816 min
Histogram: 1 0 0 0 0 0 0 0 0 1
Nghost:    10534 ave 10555 max 10513 min
Histogram: 1 0 0 0 0 0 0 0 0 1
Neighs:    455618 ave 460794 max 450442 min
Histogram: 1 0 0 0 0 0 0 0 0 1

Total # of neighbors = 911236
Ave neighs/atom = 46.3686
Neighbor list builds = 495
Dangerous builds not checked
Setting up Verlet run ...
  Unit style    : metal
  Current step  : 1240495
  Time step     : 0.001
Per MPI rank memory allocation (min/avg/max) = 11.36 | 11.36 | 11.36 Mbytes
Step Temp Press TotEng PotEng Enthalpy 
 1240495     1219.186   -247.62777   -22574.265   -25671.109   -22657.734 
 1250000    1187.5231    13.381207   -22728.047   -25744.464   -22723.556 
 1290000    1194.0726    51.762241   -22699.624   -25732.678   -22682.246 
Loop time of 3378.41 on 2 procs for 49505 steps with 19652 atoms

Performance: 1.266 ns/day, 18.957 hours/ns, 14.653 timesteps/s
99.3% CPU use with 2 MPI tasks x no OpenMP threads

MPI task timing breakdown:
Section |  min time  |  avg time  |  max time  |%varavg| %total
---------------------------------------------------------------
Pair    | 1816.7     | 1829.2     | 1841.6     |  29.2 | 54.14
Neigh   | 1308.9     | 1316.3     | 1323.7     |  20.5 | 38.96
Comm    | 145.16     | 165.16     | 185.16     | 155.6 |  4.89
Output  | 0.20108    | 0.20113    | 0.20118    |   0.0 |  0.01
Modify  | 55.024     | 55.04      | 55.057     |   0.2 |  1.63
Other   |            | 12.53      |            |       |  0.37

Nlocal:    9826 ave 9827 max 9825 min
Histogram: 1 0 0 0 0 0 0 0 0 1
Nghost:    10593.5 ave 10621 max 10566 min
Histogram: 1 0 0 0 0 0 0 0 0 1
Neighs:    457220 ave 461080 max 453361 min
Histogram: 1 0 0 0 0 0 0 0 0 1

Total # of neighbors = 914441
Ave neighs/atom = 46.5317
Neighbor list builds = 49505
Dangerous builds not checked
Setting up Verlet run ...
  Unit style    : metal
  Current step  : 1290000
  Time step     : 0.001
Per MPI rank memory allocation (min/avg/max) = 11.36 | 11.36 | 11.36 Mbytes
Step Temp Press TotEng PotEng Enthalpy 
 1290000    1194.0726    51.762241   -22699.624   -25732.678   -22682.246 
 1290495    1165.0165    39.325331   -22877.138   -25836.386   -22863.981 
Loop time of 32.3602 on 2 procs for 495 steps with 19652 atoms

Performance: 1.322 ns/day, 18.160 hours/ns, 15.297 timesteps/s
99.7% CPU use with 2 MPI tasks x no OpenMP threads

MPI task timing breakdown:
Section |  min time  |  avg time  |  max time  |%varavg| %total
---------------------------------------------------------------
Pair    | 17.345     | 17.375     | 17.405     |   0.7 | 53.69
Neigh   | 12.989     | 13.144     | 13.298     |   4.3 | 40.62
Comm    | 0.97928    | 1.1672     | 1.3552     |  17.4 |  3.61
Output  | 9.1076e-05 | 0.00011909 | 0.0001471  |   0.0 |  0.00
Modify  | 0.54803    | 0.54865    | 0.54928    |   0.1 |  1.70
Other   |            | 0.1255     |            |       |  0.39

Nlocal:    9826 ave 9844 max 9808 min
Histogram: 1 0 0 0 0 0 0 0 0 1
Nghost:    10536 ave 10539 max 10533 min
Histogram: 1 0 0 0 0 0 0 0 0 1
Neighs:    458908 ave 464526 max 453289 min
Histogram: 1 0 0 0 0 0 0 0 0 1

Total # of neighbors = 917815
Ave neighs/atom = 46.7034
[...]
Loop time of 39.0596 on 2 procs for 495 steps with 19652 atoms

Performance: 1.095 ns/day, 21.919 hours/ns, 12.673 timesteps/s
99.1% CPU use with 2 MPI tasks x no OpenMP threads

MPI task timing breakdown:
Section |  min time  |  avg time  |  max time  |%varavg| %total
---------------------------------------------------------------
Pair    | 21.343     | 21.391     | 21.439     |   1.0 | 54.77
Neigh   | 13.972     | 14.193     | 14.414     |   5.9 | 36.34
Comm    | 2.1584     | 2.432      | 2.7056     |  17.5 |  6.23
Output  | 0.00020504 | 0.00027454 | 0.00034404 |   0.0 |  0.00
Modify  | 0.86087    | 0.86326    | 0.86564    |   0.3 |  2.21
Other   |            | 0.1798     |            |       |  0.46

Nlocal:    9826 ave 9827 max 9825 min
Histogram: 1 0 0 0 0 0 0 0 0 1
Nghost:    11008 ave 11030 max 10986 min
Histogram: 1 0 0 0 0 0 0 0 0 1
Neighs:    516926 ave 517206 max 516646 min
Histogram: 1 0 0 0 0 0 0 0 0 1

Total # of neighbors = 1033852
Ave neighs/atom = 52.608
Neighbor list builds = 495
Dangerous builds not checked
Setting up Verlet run ...
  Unit style    : metal
  Current step  : 2040495
  Time step     : 0.001
Per MPI rank memory allocation (min/avg/max) = 11.36 | 11.36 | 11.36 Mbytes
Step Temp Press TotEng PotEng Enthalpy 
 2040495      422.399   -526.26136   -27642.884   -28715.816   -27802.146 
 2050000    400.27951    297.96375   -27804.104   -28820.851   -27714.491 
 2090000    398.82634   -134.22252   -27833.862   -28846.917   -27874.242 
Loop time of 3586.43 on 2 procs for 49505 steps with 19652 atoms

Performance: 1.193 ns/day, 20.124 hours/ns, 13.803 timesteps/s
99.3% CPU use with 2 MPI tasks x no OpenMP threads

MPI task timing breakdown:
Section |  min time  |  avg time  |  max time  |%varavg| %total
---------------------------------------------------------------
Pair    | 1966.8     | 1968.4     | 1970.1     |   3.7 | 54.89
Neigh   | 1362.8     | 1363       | 1363.1     |   0.5 | 38.00
Comm    | 174.88     | 177.13     | 179.38     |  16.9 |  4.94
Output  | 0.037831   | 0.037894   | 0.037957   |   0.0 |  0.00
Modify  | 63.763     | 64         | 64.237     |   3.0 |  1.78
Other   |            | 13.88      |            |       |  0.39

Nlocal:    9826 ave 9831 max 9821 min
Histogram: 1 0 0 0 0 0 0 0 0 1
Nghost:    11022 ave 11044 max 11000 min
Histogram: 1 0 0 0 0 0 0 0 0 1
Neighs:    520800 ave 520914 max 520687 min
Histogram: 1 0 0 0 0 0 0 0 0 1

Total # of neighbors = 1041601
Ave neighs/atom = 53.0023
Neighbor list builds = 49505
Dangerous builds not checked
Setting up Verlet run ...
  Unit style    : metal
  Current step  : 2090000
  Time step     : 0.001
Per MPI rank memory allocation (min/avg/max) = 11.36 | 11.36 | 11.36 Mbytes
Step Temp Press TotEng PotEng Enthalpy 
 2090000    398.82634   -134.22252   -27833.862   -28846.917   -27874.242 
 2090495    372.45849    265.56492   -27980.417   -28926.496   -27900.865 
Loop time of 33.0155 on 2 procs for 495 steps with 19652 atoms

Performance: 1.295 ns/day, 18.527 hours/ns, 14.993 timesteps/s
100.0% CPU use with 2 MPI tasks x no OpenMP threads

MPI task timing breakdown:
Section |  min time  |  avg time  |  max time  |%varavg| %total
---------------------------------------------------------------
Pair    | 18.152     | 18.214     | 18.276     |   1.4 | 55.17
Neigh   | 12.047     | 12.206     | 12.365     |   4.6 | 36.97
Comm    | 1.575      | 1.8017     | 2.0285     |  16.9 |  5.46
Output  | 6.7949e-05 | 9.2387e-05 | 0.00011683 |   0.0 |  0.00
Modify  | 0.63925    | 0.64545    | 0.65166    |   0.8 |  1.96
Other   |            | 0.148      |            |       |  0.45

Nlocal:    9826 ave 9828 max 9824 min
Histogram: 1 0 0 0 0 0 0 0 0 1
Nghost:    11048 ave 11055 max 11041 min
Histogram: 1 0 0 0 0 0 0 0 0 1
Neighs:    523532 ave 523643 max 523420 min
Histogram: 1 0 0 0 0 0 0 0 0 1

Total # of neighbors = 1047063
Ave neighs/atom = 53.2802
Neighbor list builds = 495
Dangerous builds not checked
Setting up Verlet run ...
  Unit style    : metal
  Current step  : 2090495
  Time step     : 0.001
Per MPI rank memory allocation (min/avg/max) = 11.36 | 11.36 | 11.36 Mbytes
Step Temp Press TotEng PotEng Enthalpy 
 2090495    372.45849    265.56492   -27980.417   -28926.496   -27900.865 
 2100000    349.05898   -586.14139   -28128.763   -29015.404   -28304.347 
 2140000    351.26597    197.91169   -28141.626   -29033.873   -28082.535 
Loop time of 3645.71 on 2 procs for 49505 steps with 19652 atoms

Performance: 1.173 ns/day, 20.456 hours/ns, 13.579 timesteps/s
99.4% CPU use with 2 MPI tasks x no OpenMP threads

MPI task timing breakdown:
Section |  min time  |  avg time  |  max time  |%varavg| %total
---------------------------------------------------------------
Pair    | 2001.2     | 2010.2     | 2019.3     |  20.2 | 55.14
Neigh   | 1352.6     | 1354       | 1355.3     |   3.7 | 37.14
Comm    | 192.33     | 200.17     | 208.01     |  55.4 |  5.49
Output  | 0.047079   | 0.047114   | 0.04715    |   0.0 |  0.00
Modify  | 66.847     | 66.871     | 66.894     |   0.3 |  1.83
Other   |            | 14.44      |            |       |  0.40

Nlocal:    9826 ave 9832 max 9820 min
Histogram: 1 0 0 0 0 0 0 0 0 1
Nghost:    11101 ave 11131 max 11071 min
Histogram: 1 0 0 0 0 0 0 0 0 1
Neighs:    525866 ave 526551 max 525180 min
Histogram: 1 0 0 0 0 0 0 0 0 1

Total # of neighbors = 1051731
Ave neighs/atom = 53.5178
Neighbor list builds = 49505
Dangerous builds not checked
Setting up Verlet run ...
  Unit style    : metal
  Current step  : 2140000
  Time step     : 0.001
Per MPI rank memory allocation (min/avg/max) = 11.36 | 11.36 | 11.36 Mbytes
Step Temp Press TotEng PotEng Enthalpy 
 2140000    351.26597    197.91169   -28141.626   -29033.873   -28082.535 
 2140495     320.8527   -64.176302   -28287.956   -29102.951   -28307.081 
Loop time of 36.3187 on 2 procs for 495 steps with 19652 atoms

Performance: 1.178 ns/day, 20.381 hours/ns, 13.629 timesteps/s
99.0% CPU use with 2 MPI tasks x no OpenMP threads

MPI task timing breakdown:
Section |  min time  |  avg time  |  max time  |%varavg| %total
---------------------------------------------------------------
Pair    | 20.103     | 20.104     | 20.106     |   0.0 | 55.36
Neigh   | 12.892     | 13.3       | 13.709     |  11.2 | 36.62
Comm    | 1.7211     | 2.1405     | 2.5599     |  28.7 |  5.89
Output  | 7.5102e-05 | 0.00010002 | 0.00012493 |   0.0 |  0.00
Modify  | 0.63099    | 0.6356     | 0.6402     |   0.6 |  1.75
Other   |            | 0.1378     |            |       |  0.38

Nlocal:    9826 ave 9831 max 9821 min
Histogram: 1 0 0 0 0 0 0 0 0 1
Nghost:    11070 ave 11083 max 11057 min
Histogram: 1 0 0 0 0 0 0 0 0 1
Neighs:    527030 ave 527456 max 526603 min
Histogram: 1 0 0 0 0 0 0 0 0 1

Total # of neighbors = 1054059
Ave neighs/atom = 53.6362
Neighbor list builds = 495
Dangerous builds not checked
Setting up Verlet run ...
  Unit style    : metal
  Current step  : 2140495
  Time step     : 0.001
Per MPI rank memory allocation (min/avg/max) = 11.36 | 11.36 | 11.36 Mbytes
Step Temp Press TotEng PotEng Enthalpy 
 2140495     320.8527   -64.176302   -28287.956   -29102.951   -28307.081 
 2150000    298.12665    78.377494   -28436.936   -29194.205   -28413.659 
 2190000    300.32944    194.51569    -28429.06   -29191.924   -28371.312 
Loop time of 3672.23 on 2 procs for 49505 steps with 19652 atoms

Performance: 1.165 ns/day, 20.605 hours/ns, 13.481 timesteps/s
99.4% CPU use with 2 MPI tasks x no OpenMP threads

MPI task timing breakdown:
Section |  min time  |  avg time  |  max time  |%varavg| %total
---------------------------------------------------------------
Pair    | 2027.4     | 2033.8     | 2040.1     |  14.2 | 55.38
Neigh   | 1354.1     | 1366.9     | 1379.6     |  34.6 | 37.22
Comm    | 188.51     | 194.41     | 200.31     |  42.3 |  5.29
Output  | 0.035565   | 0.035611   | 0.035657   |   0.0 |  0.00
Modify  | 62.771     | 63.262     | 63.754     |   6.2 |  1.72
Other   |            | 13.91      |            |       |  0.38

Nlocal:    9826 ave 9827 max 9825 min
Histogram: 1 0 0 0 0 0 0 0 0 1
Nghost:    11105.5 ave 11112 max 11099 min
Histogram: 1 0 0 0 0 0 0 0 0 1
Neighs:    529736 ave 530136 max 529335 min
Histogram: 1 0 0 0 0 0 0 0 0 1

Total # of neighbors = 1059471
Ave neighs/atom = 53.9116
Neighbor list builds = 49505
Dangerous builds not checked
Setting up Verlet run ...
  Unit style    : metal
  Current step  : 2190000
  Time step     : 0.001
Per MPI rank memory allocation (min/avg/max) = 11.36 | 11.36 | 11.36 Mbytes
Step Temp Press TotEng PotEng Enthalpy 
 2190000    300.32944    194.51569    -28429.06   -29191.924   -28371.312 
 2190495    273.19373    148.48338    -28575.29   -29269.227   -28531.324 
Loop time of 35.8385 on 2 procs for 495 steps with 19652 atoms

Performance: 1.193 ns/day, 20.111 hours/ns, 13.812 timesteps/s
100.0% CPU use with 2 MPI tasks x no OpenMP threads

MPI task timing breakdown:
Section |  min time  |  avg time  |  max time  |%varavg| %total
---------------------------------------------------------------
Pair    | 19.335     | 19.655     | 19.974     |   7.2 | 54.84
Neigh   | 12.323     | 13.13      | 13.937     |  22.3 | 36.64
Comm    | 1.0656     | 2.2765     | 3.4874     |  80.3 |  6.35
Output  | 0.00010395 | 0.00011992 | 0.0001359  |   0.0 |  0.00
Modify  | 0.58512    | 0.64327    | 0.70142    |   7.3 |  1.79
Other   |            | 0.1339     |            |       |  0.37

Nlocal:    9826 ave 9833 max 9819 min
Histogram: 1 0 0 0 0 0 0 0 0 1
Nghost:    11110 ave 11127 max 11093 min
Histogram: 1 0 0 0 0 0 0 0 0 1
Neighs:    531478 ave 531843 max 531113 min
Histogram: 1 0 0 0 0 0 0 0 0 1

Total # of neighbors = 1062956
Ave neighs/atom = 54.0889
Neighbor list builds = 495
Dangerous builds not checked
Setting up Verlet run ...
  Unit style    : metal
  Current step  : 2190495
  Time step     : 0.001
Per MPI rank memory allocation (min/avg/max) = 11.36 | 11.36 | 11.36 Mbytes
Step Temp Press TotEng PotEng Enthalpy 
 2190495    273.19373    148.48338    -28575.29   -29269.227   -28531.324 
 2200000    250.70208    279.84811   -28711.236   -29348.042   -28628.625 
 2240000    249.72269   -21.558809   -28723.803   -29358.121    -28730.17 
Loop time of 3612.26 on 2 procs for 49505 steps with 19652 atoms

Performance: 1.184 ns/day, 20.269 hours/ns, 13.705 timesteps/s
99.4% CPU use with 2 MPI tasks x no OpenMP threads

MPI task timing breakdown:
Section |  min time  |  avg time  |  max time  |%varavg| %total
---------------------------------------------------------------
Pair    | 1989       | 1993.2     | 1997.3     |   9.2 | 55.18
Neigh   | 1361.5     | 1369.8     | 1378       |  22.4 | 37.92
Comm    | 161.18     | 174.54     | 187.9      | 101.1 |  4.83
Output  | 0.026907   | 0.026953   | 0.026998   |   0.0 |  0.00
Modify  | 60.932     | 61.599     | 62.267     |   8.5 |  1.71
Other   |            | 13.16      |            |       |  0.36

Nlocal:    9826 ave 9832 max 9820 min
Histogram: 1 0 0 0 0 0 0 0 0 1
Nghost:    11131 ave 11135 max 11127 min
Histogram: 1 0 0 0 0 0 0 0 0 1
Neighs:    533082 ave 533129 max 533034 min
Histogram: 1 0 0 0 0 0 0 0 0 1

Total # of neighbors = 1066163
Ave neighs/atom = 54.2521
Neighbor list builds = 49505
Dangerous builds not checked
Setting up Verlet run ...
  Unit style    : metal
  Current step  : 2240000
  Time step     : 0.001
Per MPI rank memory allocation (min/avg/max) = 11.36 | 11.36 | 11.36 Mbytes
Step Temp Press TotEng PotEng Enthalpy 
 2240000    249.72269   -21.558809   -28723.803   -29358.121    -28730.17 
 2240495    226.09645    215.50058   -28855.787   -29430.093   -28792.322 
Loop time of 36.8231 on 2 procs for 495 steps with 19652 atoms

Performance: 1.161 ns/day, 20.664 hours/ns, 13.443 timesteps/s
99.1% CPU use with 2 MPI tasks x no OpenMP threads

MPI task timing breakdown:
Section |  min time  |  avg time  |  max time  |%varavg| %total
---------------------------------------------------------------
Pair    | 20.489     | 20.502     | 20.516     |   0.3 | 55.68
Neigh   | 13.417     | 13.818     | 14.218     |  10.8 | 37.52
Comm    | 1.3259     | 1.7461     | 2.1662     |  31.8 |  4.74
Output  | 9.6083e-05 | 0.00012004 | 0.000144   |   0.0 |  0.00
Modify  | 0.61297    | 0.61669    | 0.62041    |   0.5 |  1.67
Other   |            | 0.1405     |            |       |  0.38

Nlocal:    9826 ave 9837 max 9815 min
Histogram: 1 0 0 0 0 0 0 0 0 1
Nghost:    11150.5 ave 11157 max 11144 min
Histogram: 1 0 0 0 0 0 0 0 0 1
Neighs:    535078 ave 535148 max 535007 min
Histogram: 1 0 0 0 0 0 0 0 0 1

Total # of neighbors = 1070155
Ave neighs/atom = 54.4553
Neighbor list builds = 495
Dangerous builds not checked
Setting up Verlet run ...
  Unit style    : metal
  Current step  : 2240495
  Time step     : 0.001
Per MPI rank memory allocation (min/avg/max) = 11.36 | 11.36 | 11.36 Mbytes
Step Temp Press TotEng PotEng Enthalpy 
 2240495    226.09645    215.50058   -28855.787   -29430.093   -28792.322 
 2250000    201.05115   -21.442285   -28990.672    -29501.36   -28996.977 
 2290000    201.74553     102.1039   -28992.028    -29504.48   -28962.026 
Loop time of 3691.72 on 2 procs for 49505 steps with 19652 atoms

Performance: 1.159 ns/day, 20.715 hours/ns, 13.410 timesteps/s
99.4% CPU use with 2 MPI tasks x no OpenMP threads

MPI task timing breakdown:
Section |  min time  |  avg time  |  max time  |%varavg| %total
---------------------------------------------------------------
Pair    | 2033.3     | 2050.5     | 2067.6     |  37.9 | 55.54
Neigh   | 1365.9     | 1367.6     | 1369.3     |   4.5 | 37.04
Comm    | 178.99     | 195.24     | 211.49     | 116.3 |  5.29
Output  | 0.094088   | 0.094132   | 0.094176   |   0.0 |  0.00
Modify  | 63.98      | 64.462     | 64.945     |   6.0 |  1.75
Other   |            | 13.85      |            |       |  0.38

Nlocal:    9826 ave 9831 max 9821 min
Histogram: 1 0 0 0 0 0 0 0 0 1
Nghost:    11156.5 ave 11162 max 11151 min
Histogram: 1 0 0 0 0 0 0 0 0 1
Neighs:    536754 ave 537220 max 536287 min
Histogram: 1 0 0 0 0 0 0 0 0 1

Total # of neighbors = 1073507
Ave neighs/atom = 54.6258
Neighbor list builds = 49505
Dangerous builds not checked
Setting up Verlet run ...
  Unit style    : metal
  Current step  : 2290000
  Time step     : 0.001
Per MPI rank memory allocation (min/avg/max) = 11.36 | 11.36 | 11.36 Mbytes
Step Temp Press TotEng PotEng Enthalpy 
 2290000    201.74553     102.1039   -28992.028    -29504.48   -28962.026 
 2290495    175.11435   -67.184569   -29120.114    -29564.92    -29139.82 
Loop time of 37.6762 on 2 procs for 495 steps with 19652 atoms

Performance: 1.135 ns/day, 21.143 hours/ns, 13.138 timesteps/s
98.7% CPU use with 2 MPI tasks x no OpenMP threads

MPI task timing breakdown:
Section |  min time  |  avg time  |  max time  |%varavg| %total
---------------------------------------------------------------
Pair    | 20.785     | 20.95      | 21.115     |   3.6 | 55.61
Neigh   | 13.672     | 13.832     | 13.991     |   4.3 | 36.71
Comm    | 1.7185     | 2.0783     | 2.438      |  25.0 |  5.52
Output  | 0.00010514 | 0.00013709 | 0.00016904 |   0.0 |  0.00
Modify  | 0.63998    | 0.67023    | 0.70048    |   3.7 |  1.78
Other   |            | 0.1459     |            |       |  0.39

Nlocal:    9826 ave 9833 max 9819 min
Histogram: 1 0 0 0 0 0 0 0 0 1
Nghost:    11187 ave 11200 max 11174 min
Histogram: 1 0 0 0 0 0 0 0 0 1
Neighs:    537950 ave 538647 max 537254 min
Histogram: 1 0 0 0 0 0 0 0 0 1

Total # of neighbors = 1075901
Ave neighs/atom = 54.7477
Neighbor list builds = 495
Dangerous builds not checked
Setting up Verlet run ...
  Unit style    : metal
  Current step  : 2290495
  Time step     : 0.001
Per MPI rank memory allocation (min/avg/max) = 11.36 | 11.36 | 11.36 Mbytes
Step Temp Press TotEng PotEng Enthalpy 
 2290495    175.11435   -67.184569   -29120.114    -29564.92    -29139.82 
 2300000    150.65171   -76.085956   -29256.025   -29638.694   -29278.293 
 2340000    151.31921    213.30763   -29253.326   -29637.691   -29190.942 
Loop time of 3665.98 on 2 procs for 49505 steps with 19652 atoms

Performance: 1.167 ns/day, 20.570 hours/ns, 13.504 timesteps/s
99.3% CPU use with 2 MPI tasks x no OpenMP threads

MPI task timing breakdown:
Section |  min time  |  avg time  |  max time  |%varavg| %total
---------------------------------------------------------------
Pair    | 2029.2     | 2037.3     | 2045.4     |  17.9 | 55.57
Neigh   | 1354.7     | 1359.6     | 1364.5     |  13.3 | 37.09
Comm    | 189.06     | 192.14     | 195.22     |  22.2 |  5.24
Output  | 0.036862   | 0.036912   | 0.036962   |   0.0 |  0.00
Modify  | 63.16      | 63.272     | 63.383     |   1.4 |  1.73
Other   |            | 13.69      |            |       |  0.37

Nlocal:    9826 ave 9832 max 9820 min
Histogram: 1 0 0 0 0 0 0 0 0 1
Nghost:    11174 ave 11186 max 11162 min
Histogram: 1 0 0 0 0 0 0 0 0 1
Neighs:    539960 ave 540595 max 539324 min
Histogram: 1 0 0 0 0 0 0 0 0 1

Total # of neighbors = 1079919
Ave neighs/atom = 54.9521
Neighbor list builds = 49505
Dangerous builds not checked
Setting up Verlet run ...
  Unit style    : metal
  Current step  : 2340000
  Time step     : 0.001
Per MPI rank memory allocation (min/avg/max) = 11.36 | 11.36 | 11.36 Mbytes
Step Temp Press TotEng PotEng Enthalpy 
 2340000    151.31921    213.30763   -29253.326   -29637.691   -29190.942 
 2340495    126.50975   -71.188252   -29378.576   -29699.922   -29399.367 
Loop time of 37.2064 on 2 procs for 495 steps with 19652 atoms

Performance: 1.149 ns/day, 20.879 hours/ns, 13.304 timesteps/s
100.0% CPU use with 2 MPI tasks x no OpenMP threads

MPI task timing breakdown:
Section |  min time  |  avg time  |  max time  |%varavg| %total
---------------------------------------------------------------
Pair    | 20.726     | 20.734     | 20.743     |   0.2 | 55.73
Neigh   | 13.378     | 13.754     | 14.131     |  10.2 | 36.97
Comm    | 1.459      | 1.8545     | 2.2499     |  29.0 |  4.98
Output  | 0.00015497 | 0.00018191 | 0.00020885 |   0.0 |  0.00
Modify  | 0.70056    | 0.70878    | 0.71701    |   1.0 |  1.91
Other   |            | 0.1542     |            |       |  0.41

Nlocal:    9826 ave 9826 max 9826 min
Histogram: 2 0 0 0 0 0 0 0 0 0
Nghost:    11191.5 ave 11192 max 11191 min
Histogram: 1 0 0 0 0 0 0 0 0 1
Neighs:    540810 ave 541496 max 540125 min
Histogram: 1 0 0 0 0 0 0 0 0 1

Total # of neighbors = 1081621
Ave neighs/atom = 55.0387
Neighbor list builds = 495
Dangerous builds not checked
Setting up Verlet run ...
  Unit style    : metal
  Current step  : 2340495
  Time step     : 0.001
Per MPI rank memory allocation (min/avg/max) = 11.36 | 11.36 | 11.36 Mbytes
Step Temp Press TotEng PotEng Enthalpy 
 2340495    126.50975   -71.188252   -29378.576   -29699.922   -29399.367 
 2350000    100.32111   -57.947319   -29518.779   -29773.604   -29535.663 
 2390000    100.13344   -44.921665   -29524.038   -29778.387   -29537.126 
Loop time of 3674.01 on 2 procs for 49505 steps with 19652 atoms

Performance: 1.164 ns/day, 20.615 hours/ns, 13.474 timesteps/s
99.1% CPU use with 2 MPI tasks x no OpenMP threads

MPI task timing breakdown:
Section |  min time  |  avg time  |  max time  |%varavg| %total
---------------------------------------------------------------
Pair    | 2034.4     | 2044.7     | 2055       |  22.8 | 55.65
Neigh   | 1356       | 1368.9     | 1381.7     |  34.8 | 37.26
Comm    | 178.08     | 180.3      | 182.51     |  16.5 |  4.91
Output  | 0.055943   | 0.055989   | 0.056034   |   0.0 |  0.00
Modify  | 65.349     | 65.683     | 66.018     |   4.1 |  1.79
Other   |            | 14.36      |            |       |  0.39

Nlocal:    9826 ave 9829 max 9823 min
Histogram: 1 0 0 0 0 0 0 0 0 1
Nghost:    11191 ave 11193 max 11189 min
Histogram: 1 0 0 0 0 0 0 0 0 1
Neighs:    542633 ave 543039 max 542227 min
Histogram: 1 0 0 0 0 0 0 0 0 1

Total # of neighbors = 1085266
Ave neighs/atom = 55.2242
Neighbor list builds = 49505
Dangerous builds not checked
Total wall time: 48:28:45
