LAMMPS (12 Dec 2018)
Lattice spacing in x,y,z = 4 4 4
Created orthogonal box = (0 0 0) to (68 68 68)
  1 by 1 by 1 MPI processor grid
Created 19652 atoms
  Time spent = 0.00517488 secs
Setting atom values ...
  206 settings made for type/fraction
Neighbor list info ...
  update every 1 steps, delay 0 steps, check no
  max neighbors/atom: 2000, page size: 100000
  master list distance cutoff = 8.5
  ghost atom cutoff = 8.5
  binsize = 4.25, bins = 16 16 16
  1 neighbor lists, perpetual/occasional/extra = 1 0 0
  (1) pair eam/alloy, perpetual
      attributes: half, newton on
      pair build: half/bin/atomonly/newton
      stencil: half/bin/3d/newton
      bin: standard
Setting up Verlet run ...
  Unit style    : metal
  Current step  : 0
  Time step     : 0.001
Per MPI rank memory allocation (min/avg/max) = 18.19 | 18.19 | 18.19 Mbytes
Step Temp Press TotEng PotEng Enthalpy 
       0          300   -182490.73   -62801.484   -63563.511   -98615.843 
    1000    172.96786   -168687.25   -62801.472   -63240.826   -95906.857 
Loop time of 187.032 on 1 procs for 1000 steps with 19652 atoms

Performance: 0.462 ns/day, 51.953 hours/ns, 5.347 timesteps/s
96.5% CPU use with 1 MPI tasks x no OpenMP threads

MPI task timing breakdown:
Section |  min time  |  avg time  |  max time  |%varavg| %total
---------------------------------------------------------------
Pair    | 110.36     | 110.36     | 110.36     |   0.0 | 59.01
Neigh   | 73.752     | 73.752     | 73.752     |   0.0 | 39.43
Comm    | 1.7622     | 1.7622     | 1.7622     |   0.0 |  0.94
Output  | 0.00019503 | 0.00019503 | 0.00019503 |   0.0 |  0.00
Modify  | 0.60874    | 0.60874    | 0.60874    |   0.0 |  0.33
Other   |            | 0.5499     |            |       |  0.29

Nlocal:    19652 ave 19652 max 19652 min
Histogram: 1 0 0 0 0 0 0 0 0 0
Nghost:    20080 ave 20080 max 20080 min
Histogram: 1 0 0 0 0 0 0 0 0 0
Neighs:    1.56601e+06 ave 1.56601e+06 max 1.56601e+06 min
Histogram: 1 0 0 0 0 0 0 0 0 0

Total # of neighbors = 1566014
Ave neighs/atom = 79.6873
Neighbor list builds = 1000
Dangerous builds not checked
Setting up Verlet run ...
  Unit style    : metal
  Current step  : 1000
  Time step     : 0.001
Per MPI rank memory allocation (min/avg/max) = 18.19 | 18.19 | 18.19 Mbytes
Step Temp Press TotEng PotEng Enthalpy 
    1000    172.96786   -168687.25   -62801.472   -63240.826   -95906.857 
    2000    299.97992   -303.77024   -68155.134    -68917.11    -68200.89 
Loop time of 231.595 on 1 procs for 1000 steps with 19652 atoms

Performance: 0.373 ns/day, 64.332 hours/ns, 4.318 timesteps/s
99.5% CPU use with 1 MPI tasks x no OpenMP threads

MPI task timing breakdown:
Section |  min time  |  avg time  |  max time  |%varavg| %total
---------------------------------------------------------------
Pair    | 128.8      | 128.8      | 128.8      |   0.0 | 55.62
Neigh   | 98.838     | 98.838     | 98.838     |   0.0 | 42.68
Comm    | 1.5734     | 1.5734     | 1.5734     |   0.0 |  0.68
Output  | 0.00017285 | 0.00017285 | 0.00017285 |   0.0 |  0.00
Modify  | 1.8446     | 1.8446     | 1.8446     |   0.0 |  0.80
Other   |            | 0.5356     |            |       |  0.23

Nlocal:    19652 ave 19652 max 19652 min
Histogram: 1 0 0 0 0 0 0 0 0 0
Nghost:    20103 ave 20103 max 20103 min
Histogram: 1 0 0 0 0 0 0 0 0 0
Neighs:    2.02149e+06 ave 2.02149e+06 max 2.02149e+06 min
Histogram: 1 0 0 0 0 0 0 0 0 0

Total # of neighbors = 2021487
Ave neighs/atom = 102.864
Neighbor list builds = 1000
Dangerous builds not checked
Setting up Verlet run ...
  Unit style    : metal
  Current step  : 2000
  Time step     : 0.001
Per MPI rank memory allocation (min/avg/max) = 19.33 | 19.33 | 19.33 Mbytes
Step Temp Press TotEng PotEng Enthalpy 
    2000    299.97992   -303.77024   -68155.134    -68917.11    -68200.89 
    6667     1529.741   -1027.2254   -60628.603   -64514.285   -60800.153 
ERROR: Lost atoms: original 19652 current 19651 (../thermo.cpp:441)
Last command: run 8000
