LAMMPS (12 Dec 2018)
Lattice spacing in x,y,z = 4 4 4
Created orthogonal box = (0 0 0) to (68 68 68)
  1 by 1 by 1 MPI processor grid
Created 19652 atoms
  Time spent = 0.00363302 secs
Setting atom values ...
  206 settings made for type/fraction
Neighbor list info ...
  update every 1 steps, delay 0 steps, check no
  max neighbors/atom: 2000, page size: 100000
  master list distance cutoff = 8.5
  ghost atom cutoff = 8.5
  binsize = 4.25, bins = 16 16 16
  1 neighbor lists, perpetual/occasional/extra = 1 0 0
  (1) pair eam/alloy, perpetual
      attributes: half, newton on
      pair build: half/bin/atomonly/newton
      stencil: half/bin/3d/newton
      bin: standard
Setting up Verlet run ...
  Unit style    : metal
  Current step  : 0
  Time step     : 0.001
Per MPI rank memory allocation (min/avg/max) = 18.19 | 18.19 | 18.19 Mbytes
Step Temp Press TotEng PotEng Enthalpy 
       0          300    9895.1961    -65202.28   -65964.307   -63260.318 
    1000    153.75759    18355.738   -65202.132   -65592.691   -61599.763 
Loop time of 204.99 on 1 procs for 1000 steps with 19652 atoms

Performance: 0.421 ns/day, 56.942 hours/ns, 4.878 timesteps/s
86.9% CPU use with 1 MPI tasks x no OpenMP threads

MPI task timing breakdown:
Section |  min time  |  avg time  |  max time  |%varavg| %total
---------------------------------------------------------------
Pair    | 120.04     | 120.04     | 120.04     |   0.0 | 58.56
Neigh   | 81.863     | 81.863     | 81.863     |   0.0 | 39.94
Comm    | 1.8811     | 1.8811     | 1.8811     |   0.0 |  0.92
Output  | 0.00030017 | 0.00030017 | 0.00030017 |   0.0 |  0.00
Modify  | 0.63987    | 0.63987    | 0.63987    |   0.0 |  0.31
Other   |            | 0.5657     |            |       |  0.28

Nlocal:    19652 ave 19652 max 19652 min
Histogram: 1 0 0 0 0 0 0 0 0 0
Nghost:    20102 ave 20102 max 20102 min
Histogram: 1 0 0 0 0 0 0 0 0 0
Neighs:    1.56492e+06 ave 1.56492e+06 max 1.56492e+06 min
Histogram: 1 0 0 0 0 0 0 0 0 0

Total # of neighbors = 1564920
Ave neighs/atom = 79.6316
Neighbor list builds = 1000
Dangerous builds not checked
Setting up Verlet run ...
  Unit style    : metal
  Current step  : 1000
  Time step     : 0.001
Per MPI rank memory allocation (min/avg/max) = 18.2 | 18.2 | 18.2 Mbytes
Step Temp Press TotEng PotEng Enthalpy 
    1000    153.75759    18355.738   -65202.132   -65592.691   -61599.763 
    2000    300.00669   -16.627507   -64450.588   -65212.632   -64453.975 
Loop time of 188.513 on 1 procs for 1000 steps with 19652 atoms

Performance: 0.458 ns/day, 52.365 hours/ns, 5.305 timesteps/s
93.8% CPU use with 1 MPI tasks x no OpenMP threads

MPI task timing breakdown:
Section |  min time  |  avg time  |  max time  |%varavg| %total
---------------------------------------------------------------
Pair    | 108.98     | 108.98     | 108.98     |   0.0 | 57.81
Neigh   | 75.276     | 75.276     | 75.276     |   0.0 | 39.93
Comm    | 1.639      | 1.639      | 1.639      |   0.0 |  0.87
Output  | 0.1551     | 0.1551     | 0.1551     |   0.0 |  0.08
Modify  | 1.9299     | 1.9299     | 1.9299     |   0.0 |  1.02
Other   |            | 0.5351     |            |       |  0.28

Nlocal:    19652 ave 19652 max 19652 min
Histogram: 1 0 0 0 0 0 0 0 0 0
Nghost:    19995 ave 19995 max 19995 min
Histogram: 1 0 0 0 0 0 0 0 0 0
Neighs:    1.4808e+06 ave 1.4808e+06 max 1.4808e+06 min
Histogram: 1 0 0 0 0 0 0 0 0 0

Total # of neighbors = 1480802
Ave neighs/atom = 75.3512
Neighbor list builds = 1000
Dangerous builds not checked
Setting up Verlet run ...
  Unit style    : metal
  Current step  : 2000
  Time step     : 0.001
Per MPI rank memory allocation (min/avg/max) = 18.2 | 18.2 | 18.2 Mbytes
Step Temp Press TotEng PotEng Enthalpy 
    2000    300.00669   -16.627507   -64450.588   -65212.632   -64453.975 
    4000    772.02072     287.8136   -61626.173   -63587.176   -61564.482 
    6000    1355.8022   -255.68235   -56353.425   -59797.286   -56416.983 
    8000    1923.3587   -432.98929   -53213.602   -58099.108   -53328.346 
   10000    2437.4457   -756.78434   -50493.741   -56685.075   -50705.209 
Loop time of 1483.88 on 1 procs for 8000 steps with 19652 atoms

Performance: 0.466 ns/day, 51.524 hours/ns, 5.391 timesteps/s
93.9% CPU use with 1 MPI tasks x no OpenMP threads

MPI task timing breakdown:
Section |  min time  |  avg time  |  max time  |%varavg| %total
---------------------------------------------------------------
Pair    | 833.05     | 833.05     | 833.05     |   0.0 | 56.14
Neigh   | 619.98     | 619.98     | 619.98     |   0.0 | 41.78
Comm    | 11.928     | 11.928     | 11.928     |   0.0 |  0.80
Output  | 0.26713    | 0.26713    | 0.26713    |   0.0 |  0.02
Modify  | 14.639     | 14.639     | 14.639     |   0.0 |  0.99
Other   |            | 4.02       |            |       |  0.27

Nlocal:    19652 ave 19652 max 19652 min
Histogram: 1 0 0 0 0 0 0 0 0 0
Nghost:    16249 ave 16249 max 16249 min
Histogram: 1 0 0 0 0 0 0 0 0 0
Neighs:    1.10266e+06 ave 1.10266e+06 max 1.10266e+06 min
Histogram: 1 0 0 0 0 0 0 0 0 0

Total # of neighbors = 1102659
Ave neighs/atom = 56.1093
Neighbor list builds = 8000
Dangerous builds not checked
Setting up Verlet run ...
  Unit style    : metal
  Current step  : 10000
  Time step     : 0.001
Per MPI rank memory allocation (min/avg/max) = 18.2 | 18.2 | 18.2 Mbytes
Step Temp Press TotEng PotEng Enthalpy 
   10000    2437.4457   -756.78434   -50493.741   -56685.075   -50705.209 
   12000    2455.1654   -220.11131   -50339.714   -56576.058   -50401.383 
   14000    2450.8057   -823.03199   -50320.821    -56546.09   -50551.783 
   16000    2460.3973    852.66121   -50315.992   -56565.625   -50077.489 
   18000     2440.407     430.9081   -50409.733    -56608.59   -50289.236 
   20000    2441.3609    989.81499   -50458.526   -56659.806   -50182.773 
   22000    2444.0279    260.35106   -50496.121   -56704.174   -50423.551 
   24000    2456.8339   -569.69723   -50488.066   -56728.648   -50647.015 
   26000    2449.5545    397.41309   -50429.914   -56652.006   -50318.905 
   28000    2447.5365   -488.76082    -50379.16   -56596.126   -50516.075 
   30000    2468.2927   -471.93846   -50376.915   -56646.603   -50508.962 
   32000    2441.1759   -241.95092   -50491.063   -56691.873   -50558.529 
   34000    2463.8581     68.60412   -50469.443   -56727.867   -50450.323 
   36000    2453.7258   -442.50648   -50443.293    -56675.98    -50566.95 
   38000    2430.3559    752.64186   -50495.557   -56668.882   -50285.834 
   40000    2453.3441    78.145313   -50413.017   -56644.734   -50391.174 
Loop time of 4701.02 on 1 procs for 30000 steps with 19652 atoms

Performance: 0.551 ns/day, 43.528 hours/ns, 6.382 timesteps/s
99.0% CPU use with 1 MPI tasks x no OpenMP threads

MPI task timing breakdown:
Section |  min time  |  avg time  |  max time  |%varavg| %total
---------------------------------------------------------------
Pair    | 2571.2     | 2571.2     | 2571.2     |   0.0 | 54.70
Neigh   | 2028.1     | 2028.1     | 2028.1     |   0.0 | 43.14
Comm    | 37.544     | 37.544     | 37.544     |   0.0 |  0.80
Output  | 2.8783     | 2.8783     | 2.8783     |   0.0 |  0.06
Modify  | 48.587     | 48.587     | 48.587     |   0.0 |  1.03
Other   |            | 12.66      |            |       |  0.27

Nlocal:    19652 ave 19652 max 19652 min
Histogram: 1 0 0 0 0 0 0 0 0 0
Nghost:    16186 ave 16186 max 16186 min
Histogram: 1 0 0 0 0 0 0 0 0 0
Neighs:    1.10184e+06 ave 1.10184e+06 max 1.10184e+06 min
Histogram: 1 0 0 0 0 0 0 0 0 0

Total # of neighbors = 1101837
Ave neighs/atom = 56.0674
Neighbor list builds = 30000
Dangerous builds not checked
Setting up Verlet run ...
  Unit style    : metal
  Current step  : 40000
  Time step     : 0.001
Per MPI rank memory allocation (min/avg/max) = 18.21 | 18.21 | 18.21 Mbytes
Step Temp Press TotEng PotEng Enthalpy 
   40000    2453.3441    78.145313   -50413.017   -56644.734   -50391.174 
   40495    2422.2045     811.5969   -50649.451   -56802.071   -50424.234 
Loop time of 63.9435 on 1 procs for 495 steps with 19652 atoms

Performance: 0.669 ns/day, 35.883 hours/ns, 7.741 timesteps/s
99.9% CPU use with 1 MPI tasks x no OpenMP threads

MPI task timing breakdown:
Section |  min time  |  avg time  |  max time  |%varavg| %total
---------------------------------------------------------------
Pair    | 34.182     | 34.182     | 34.182     |   0.0 | 53.46
Neigh   | 28.38      | 28.38      | 28.38      |   0.0 | 44.38
Comm    | 0.52213    | 0.52213    | 0.52213    |   0.0 |  0.82
Output  | 0.00020885 | 0.00020885 | 0.00020885 |   0.0 |  0.00
Modify  | 0.67738    | 0.67738    | 0.67738    |   0.0 |  1.06
Other   |            | 0.1816     |            |       |  0.28

Nlocal:    19652 ave 19652 max 19652 min
Histogram: 1 0 0 0 0 0 0 0 0 0
Nghost:    16297 ave 16297 max 16297 min
Histogram: 1 0 0 0 0 0 0 0 0 0
Neighs:    1.11058e+06 ave 1.11058e+06 max 1.11058e+06 min
Histogram: 1 0 0 0 0 0 0 0 0 0

Total # of neighbors = 1110575
Ave neighs/atom = 56.5121
Neighbor list builds = 495
Dangerous builds not checked
Setting up Verlet run ...
  Unit style    : metal
  Current step  : 40495
  Time step     : 0.001
Per MPI rank memory allocation (min/avg/max) = 18.21 | 18.21 | 18.21 Mbytes
Step Temp Press TotEng PotEng Enthalpy 
   40495    2422.2045     811.5969   -50649.451   -56802.071   -50424.234 
   42000    2410.2083    685.29346    -50627.42   -56749.569   -50436.887 
Loop time of 187.514 on 1 procs for 1505 steps with 19652 atoms

Performance: 0.693 ns/day, 34.610 hours/ns, 8.026 timesteps/s
99.8% CPU use with 1 MPI tasks x no OpenMP threads

MPI task timing breakdown:
Section |  min time  |  avg time  |  max time  |%varavg| %total
---------------------------------------------------------------
Pair    | 97.952     | 97.952     | 97.952     |   0.0 | 52.24
Neigh   | 85.604     | 85.604     | 85.604     |   0.0 | 45.65
Comm    | 1.4911     | 1.4911     | 1.4911     |   0.0 |  0.80
Output  | 0.068872   | 0.068872   | 0.068872   |   0.0 |  0.04
Modify  | 1.8844     | 1.8844     | 1.8844     |   0.0 |  1.00
Other   |            | 0.5142     |            |       |  0.27

Nlocal:    19652 ave 19652 max 19652 min
Histogram: 1 0 0 0 0 0 0 0 0 0
Nghost:    16207 ave 16207 max 16207 min
Histogram: 1 0 0 0 0 0 0 0 0 0
Neighs:    1.10824e+06 ave 1.10824e+06 max 1.10824e+06 min
Histogram: 1 0 0 0 0 0 0 0 0 0

Total # of neighbors = 1108238
Ave neighs/atom = 56.3931
Neighbor list builds = 1505
Dangerous builds not checked
Setting up Verlet run ...
  Unit style    : metal
  Current step  : 42000
  Time step     : 0.001
Per MPI rank memory allocation (min/avg/max) = 18.21 | 18.21 | 18.21 Mbytes
Step Temp Press TotEng PotEng Enthalpy 
   42000    2410.2083    685.29346    -50627.42   -56749.569   -50436.887 
   42495    2353.2593    -407.8877   -50851.928   -56829.421   -50965.221 
Loop time of 62.766 on 1 procs for 495 steps with 19652 atoms

Performance: 0.681 ns/day, 35.222 hours/ns, 7.886 timesteps/s
99.9% CPU use with 1 MPI tasks x no OpenMP threads

MPI task timing breakdown:
Section |  min time  |  avg time  |  max time  |%varavg| %total
---------------------------------------------------------------
Pair    | 32.783     | 32.783     | 32.783     |   0.0 | 52.23
Neigh   | 28.667     | 28.667     | 28.667     |   0.0 | 45.67
Comm    | 0.49245    | 0.49245    | 0.49245    |   0.0 |  0.78
Output  | 0.00018311 | 0.00018311 | 0.00018311 |   0.0 |  0.00
Modify  | 0.64384    | 0.64384    | 0.64384    |   0.0 |  1.03
Other   |            | 0.1798     |            |       |  0.29

Nlocal:    19652 ave 19652 max 19652 min
Histogram: 1 0 0 0 0 0 0 0 0 0
Nghost:    16297 ave 16297 max 16297 min
Histogram: 1 0 0 0 0 0 0 0 0 0
Neighs:    1.1091e+06 ave 1.1091e+06 max 1.1091e+06 min
Histogram: 1 0 0 0 0 0 0 0 0 0

Total # of neighbors = 1109098
Ave neighs/atom = 56.4369
Neighbor list builds = 495
Dangerous builds not checked
Setting up Verlet run ...
  Unit style    : metal
  Current step  : 42495
  Time step     : 0.001
Per MPI rank memory allocation (min/avg/max) = 18.21 | 18.21 | 18.21 Mbytes
Step Temp Press TotEng PotEng Enthalpy 
   42495    2353.2593    -407.8877   -50851.928   -56829.421   -50965.221 
   44000    2368.9806    198.71203   -50902.997   -56920.424   -50848.045 
Loop time of 193.133 on 1 procs for 1505 steps with 19652 atoms

Performance: 0.673 ns/day, 35.647 hours/ns, 7.793 timesteps/s
99.6% CPU use with 1 MPI tasks x no OpenMP threads

MPI task timing breakdown:
Section |  min time  |  avg time  |  max time  |%varavg| %total
---------------------------------------------------------------
Pair    | 101.31     | 101.31     | 101.31     |   0.0 | 52.46
Neigh   | 87.748     | 87.748     | 87.748     |   0.0 | 45.43
Comm    | 1.5401     | 1.5401     | 1.5401     |   0.0 |  0.80
Output  | 0.048086   | 0.048086   | 0.048086   |   0.0 |  0.02
Modify  | 1.9538     | 1.9538     | 1.9538     |   0.0 |  1.01
Other   |            | 0.5305     |            |       |  0.27

Nlocal:    19652 ave 19652 max 19652 min
Histogram: 1 0 0 0 0 0 0 0 0 0
Nghost:    16315 ave 16315 max 16315 min
Histogram: 1 0 0 0 0 0 0 0 0 0
Neighs:    1.11415e+06 ave 1.11415e+06 max 1.11415e+06 min
Histogram: 1 0 0 0 0 0 0 0 0 0

Total # of neighbors = 1114154
Ave neighs/atom = 56.6942
Neighbor list builds = 1505
Dangerous builds not checked
Setting up Verlet run ...
  Unit style    : metal
  Current step  : 44000
  Time step     : 0.001
Per MPI rank memory allocation (min/avg/max) = 18.21 | 18.21 | 18.21 Mbytes
Step Temp Press TotEng PotEng Enthalpy 
   44000    2368.9806    198.71203   -50902.997   -56920.424   -50848.045 
   44495    2309.7467   -564.03648   -51124.998   -56991.965   -51280.743 
Loop time of 64.2382 on 1 procs for 495 steps with 19652 atoms

Performance: 0.666 ns/day, 36.048 hours/ns, 7.706 timesteps/s
99.8% CPU use with 1 MPI tasks x no OpenMP threads

MPI task timing breakdown:
Section |  min time  |  avg time  |  max time  |%varavg| %total
---------------------------------------------------------------
Pair    | 33.849     | 33.849     | 33.849     |   0.0 | 52.69
Neigh   | 29.04      | 29.04      | 29.04      |   0.0 | 45.21
Comm    | 0.50605    | 0.50605    | 0.50605    |   0.0 |  0.79
Output  | 0.00022197 | 0.00022197 | 0.00022197 |   0.0 |  0.00
Modify  | 0.66337    | 0.66337    | 0.66337    |   0.0 |  1.03
Other   |            | 0.1792     |            |       |  0.28

Nlocal:    19652 ave 19652 max 19652 min
Histogram: 1 0 0 0 0 0 0 0 0 0
Nghost:    16245 ave 16245 max 16245 min
Histogram: 1 0 0 0 0 0 0 0 0 0
Neighs:    1.11578e+06 ave 1.11578e+06 max 1.11578e+06 min
Histogram: 1 0 0 0 0 0 0 0 0 0

Total # of neighbors = 1115779
Ave neighs/atom = 56.7769
Neighbor list builds = 495
Dangerous builds not checked
Setting up Verlet run ...
  Unit style    : metal
  Current step  : 44495
  Time step     : 0.001
Per MPI rank memory allocation (min/avg/max) = 18.21 | 18.21 | 18.21 Mbytes
Step Temp Press TotEng PotEng Enthalpy 
   44495    2309.7467   -564.03648   -51124.998   -56991.965   -51280.743 
   46000    2309.1163    339.61326   -51175.697   -57041.062   -51082.221 
Loop time of 207.503 on 1 procs for 1505 steps with 19652 atoms

Performance: 0.627 ns/day, 38.299 hours/ns, 7.253 timesteps/s
99.9% CPU use with 1 MPI tasks x no OpenMP threads

MPI task timing breakdown:
Section |  min time  |  avg time  |  max time  |%varavg| %total
---------------------------------------------------------------
Pair    | 110.68     | 110.68     | 110.68     |   0.0 | 53.34
Neigh   | 92.461     | 92.461     | 92.461     |   0.0 | 44.56
Comm    | 1.6423     | 1.6423     | 1.6423     |   0.0 |  0.79
Output  | 0.048011   | 0.048011   | 0.048011   |   0.0 |  0.02
Modify  | 2.1006     | 2.1006     | 2.1006     |   0.0 |  1.01
Other   |            | 0.5722     |            |       |  0.28

Nlocal:    19652 ave 19652 max 19652 min
Histogram: 1 0 0 0 0 0 0 0 0 0
Nghost:    16315 ave 16315 max 16315 min
Histogram: 1 0 0 0 0 0 0 0 0 0
Neighs:    1.11906e+06 ave 1.11906e+06 max 1.11906e+06 min
Histogram: 1 0 0 0 0 0 0 0 0 0

Total # of neighbors = 1119062
Ave neighs/atom = 56.9439
Neighbor list builds = 1505
Dangerous builds not checked
Setting up Verlet run ...
  Unit style    : metal
  Current step  : 46000
  Time step     : 0.001
Per MPI rank memory allocation (min/avg/max) = 18.21 | 18.21 | 18.21 Mbytes
Step Temp Press TotEng PotEng Enthalpy 
   46000    2309.1163    339.61326   -51175.697   -57041.062   -51082.221 
   46495    2261.6539    361.26156   -51388.907   -57133.714   -51289.913 
Loop time of 69.0918 on 1 procs for 495 steps with 19652 atoms

Performance: 0.619 ns/day, 38.772 hours/ns, 7.164 timesteps/s
99.9% CPU use with 1 MPI tasks x no OpenMP threads

MPI task timing breakdown:
Section |  min time  |  avg time  |  max time  |%varavg| %total
---------------------------------------------------------------
Pair    | 36.92      | 36.92      | 36.92      |   0.0 | 53.44
Neigh   | 30.702     | 30.702     | 30.702     |   0.0 | 44.44
Comm    | 0.55217    | 0.55217    | 0.55217    |   0.0 |  0.80
Output  | 0.00027585 | 0.00027585 | 0.00027585 |   0.0 |  0.00
Modify  | 0.71984    | 0.71984    | 0.71984    |   0.0 |  1.04
Other   |            | 0.1979     |            |       |  0.29

Nlocal:    19652 ave 19652 max 19652 min
Histogram: 1 0 0 0 0 0 0 0 0 0
Nghost:    16296 ave 16296 max 16296 min
Histogram: 1 0 0 0 0 0 0 0 0 0
Neighs:    1.12406e+06 ave 1.12406e+06 max 1.12406e+06 min
Histogram: 1 0 0 0 0 0 0 0 0 0

Total # of neighbors = 1124065
Ave neighs/atom = 57.1985
Neighbor list builds = 495
Dangerous builds not checked
Setting up Verlet run ...
  Unit style    : metal
  Current step  : 46495
  Time step     : 0.001
Per MPI rank memory allocation (min/avg/max) = 18.21 | 18.21 | 18.21 Mbytes
Step Temp Press TotEng PotEng Enthalpy 
   46495    2261.6539    361.26156   -51388.907   -57133.714   -51289.913 
   48000    2232.0936   -235.11301   -51461.824   -57131.545   -51526.318 
Loop time of 207.458 on 1 procs for 1505 steps with 19652 atoms

Performance: 0.627 ns/day, 38.291 hours/ns, 7.254 timesteps/s
99.5% CPU use with 1 MPI tasks x no OpenMP threads

MPI task timing breakdown:
Section |  min time  |  avg time  |  max time  |%varavg| %total
---------------------------------------------------------------
Pair    | 110.43     | 110.43     | 110.43     |   0.0 | 53.23
Neigh   | 92.586     | 92.586     | 92.586     |   0.0 | 44.63
Comm    | 1.6704     | 1.6704     | 1.6704     |   0.0 |  0.81
Output  | 0.071195   | 0.071195   | 0.071195   |   0.0 |  0.03
Modify  | 2.1276     | 2.1276     | 2.1276     |   0.0 |  1.03
Other   |            | 0.5742     |            |       |  0.28

Nlocal:    19652 ave 19652 max 19652 min
Histogram: 1 0 0 0 0 0 0 0 0 0
Nghost:    16272 ave 16272 max 16272 min
Histogram: 1 0 0 0 0 0 0 0 0 0
Neighs:    1.12334e+06 ave 1.12334e+06 max 1.12334e+06 min
Histogram: 1 0 0 0 0 0 0 0 0 0

Total # of neighbors = 1123343
Ave neighs/atom = 57.1618
Neighbor list builds = 1505
Dangerous builds not checked
Setting up Verlet run ...
  Unit style    : metal
  Current step  : 48000
  Time step     : 0.001
Per MPI rank memory allocation (min/avg/max) = 18.21 | 18.21 | 18.21 Mbytes
Step Temp Press TotEng PotEng Enthalpy 
   48000    2232.0936   -235.11301   -51461.824   -57131.545   -51526.318 
   48495    2200.8992    325.35573   -51654.982   -57245.467   -51566.142 
Loop time of 64.6219 on 1 procs for 495 steps with 19652 atoms

Performance: 0.662 ns/day, 36.264 hours/ns, 7.660 timesteps/s
99.5% CPU use with 1 MPI tasks x no OpenMP threads

MPI task timing breakdown:
Section |  min time  |  avg time  |  max time  |%varavg| %total
---------------------------------------------------------------
Pair    | 34.038     | 34.038     | 34.038     |   0.0 | 52.67
Neigh   | 29.188     | 29.188     | 29.188     |   0.0 | 45.17
Comm    | 0.51978    | 0.51978    | 0.51978    |   0.0 |  0.80
Output  | 0.00019884 | 0.00019884 | 0.00019884 |   0.0 |  0.00
Modify  | 0.68782    | 0.68782    | 0.68782    |   0.0 |  1.06
Other   |            | 0.1878     |            |       |  0.29

Nlocal:    19652 ave 19652 max 19652 min
Histogram: 1 0 0 0 0 0 0 0 0 0
Nghost:    16341 ave 16341 max 16341 min
Histogram: 1 0 0 0 0 0 0 0 0 0
Neighs:    1.12861e+06 ave 1.12861e+06 max 1.12861e+06 min
Histogram: 1 0 0 0 0 0 0 0 0 0

Total # of neighbors = 1128611
Ave neighs/atom = 57.4298
Neighbor list builds = 495
Dangerous builds not checked
Setting up Verlet run ...
  Unit style    : metal
  Current step  : 48495
  Time step     : 0.001
Per MPI rank memory allocation (min/avg/max) = 18.21 | 18.21 | 18.21 Mbytes
Step Temp Press TotEng PotEng Enthalpy 
   48495    2200.8992    325.35573   -51654.982   -57245.467   -51566.142 
   50000    2212.3989    401.03242   -51694.376    -57314.07    -51585.12 
Loop time of 189.172 on 1 procs for 1505 steps with 19652 atoms

Performance: 0.687 ns/day, 34.915 hours/ns, 7.956 timesteps/s
99.9% CPU use with 1 MPI tasks x no OpenMP threads

MPI task timing breakdown:
Section |  min time  |  avg time  |  max time  |%varavg| %total
---------------------------------------------------------------
Pair    | 99.536     | 99.536     | 99.536     |   0.0 | 52.62
Neigh   | 85.638     | 85.638     | 85.638     |   0.0 | 45.27
Comm    | 1.5144     | 1.5144     | 1.5144     |   0.0 |  0.80
Output  | 0.050019   | 0.050019   | 0.050019   |   0.0 |  0.03
Modify  | 1.9148     | 1.9148     | 1.9148     |   0.0 |  1.01
Other   |            | 0.518      |            |       |  0.27

Nlocal:    19652 ave 19652 max 19652 min
Histogram: 1 0 0 0 0 0 0 0 0 0
Nghost:    16402 ave 16402 max 16402 min
Histogram: 1 0 0 0 0 0 0 0 0 0
Neighs:    1.1308e+06 ave 1.1308e+06 max 1.1308e+06 min
Histogram: 1 0 0 0 0 0 0 0 0 0

Total # of neighbors = 1130802
Ave neighs/atom = 57.5413
Neighbor list builds = 1505
Dangerous builds not checked
Setting up Verlet run ...
  Unit style    : metal
  Current step  : 50000
  Time step     : 0.001
Per MPI rank memory allocation (min/avg/max) = 18.21 | 18.21 | 18.21 Mbytes
Step Temp Press TotEng PotEng Enthalpy 
   50000    2212.3989    401.03242   -51694.376    -57314.07    -51585.12 
   50495    2159.1541    344.25278   -51874.979   -57359.427   -51781.346 
Loop time of 71.6253 on 1 procs for 495 steps with 19652 atoms

Performance: 0.597 ns/day, 40.194 hours/ns, 6.911 timesteps/s
99.9% CPU use with 1 MPI tasks x no OpenMP threads

MPI task timing breakdown:
Section |  min time  |  avg time  |  max time  |%varavg| %total
---------------------------------------------------------------
Pair    | 38.509     | 38.509     | 38.509     |   0.0 | 53.77
Neigh   | 31.596     | 31.596     | 31.596     |   0.0 | 44.11
Comm    | 0.57255    | 0.57255    | 0.57255    |   0.0 |  0.80
Output  | 0.00022483 | 0.00022483 | 0.00022483 |   0.0 |  0.00
Modify  | 0.747      | 0.747      | 0.747      |   0.0 |  1.04
Other   |            | 0.1997     |            |       |  0.28

Nlocal:    19652 ave 19652 max 19652 min
Histogram: 1 0 0 0 0 0 0 0 0 0
Nghost:    16395 ave 16395 max 16395 min
Histogram: 1 0 0 0 0 0 0 0 0 0
Neighs:    1.13296e+06 ave 1.13296e+06 max 1.13296e+06 min
Histogram: 1 0 0 0 0 0 0 0 0 0

Total # of neighbors = 1132961
Ave neighs/atom = 57.6512
Neighbor list builds = 495
Dangerous builds not checked
Setting up Verlet run ...
  Unit style    : metal
  Current step  : 50495
  Time step     : 0.001
Per MPI rank memory allocation (min/avg/max) = 18.21 | 18.21 | 18.21 Mbytes
Step Temp Press TotEng PotEng Enthalpy 
   50495    2159.1541    344.25278   -51874.979   -57359.427   -51781.346 
   52000    2159.9751   -729.11665   -51935.743   -57422.277   -52133.914 
Loop time of 180.726 on 1 procs for 1505 steps with 19652 atoms

Performance: 0.719 ns/day, 33.357 hours/ns, 8.328 timesteps/s
100.0% CPU use with 1 MPI tasks x no OpenMP threads

MPI task timing breakdown:
Section |  min time  |  avg time  |  max time  |%varavg| %total
---------------------------------------------------------------
Pair    | 94.96      | 94.96      | 94.96      |   0.0 | 52.54
Neigh   | 81.969     | 81.969     | 81.969     |   0.0 | 45.36
Comm    | 1.4371     | 1.4371     | 1.4371     |   0.0 |  0.80
Output  | 0.062956   | 0.062956   | 0.062956   |   0.0 |  0.03
Modify  | 1.8005     | 1.8005     | 1.8005     |   0.0 |  1.00
Other   |            | 0.4963     |            |       |  0.27

Nlocal:    19652 ave 19652 max 19652 min
Histogram: 1 0 0 0 0 0 0 0 0 0
Nghost:    16434 ave 16434 max 16434 min
Histogram: 1 0 0 0 0 0 0 0 0 0
Neighs:    1.13391e+06 ave 1.13391e+06 max 1.13391e+06 min
Histogram: 1 0 0 0 0 0 0 0 0 0

Total # of neighbors = 1133908
Ave neighs/atom = 57.6994
Neighbor list builds = 1505
Dangerous builds not checked
Setting up Verlet run ...
  Unit style    : metal
  Current step  : 52000
  Time step     : 0.001
Per MPI rank memory allocation (min/avg/max) = 18.21 | 18.21 | 18.21 Mbytes
Step Temp Press TotEng PotEng Enthalpy 
   52000    2159.9751   -729.11665   -51935.743   -57422.277   -52133.914 
   52495    2109.0486    712.14412   -52184.828   -57542.004   -51992.644 
Loop time of 60.4753 on 1 procs for 495 steps with 19652 atoms

Performance: 0.707 ns/day, 33.937 hours/ns, 8.185 timesteps/s
99.8% CPU use with 1 MPI tasks x no OpenMP threads

MPI task timing breakdown:
Section |  min time  |  avg time  |  max time  |%varavg| %total
---------------------------------------------------------------
Pair    | 31.786     | 31.786     | 31.786     |   0.0 | 52.56
Neigh   | 27.396     | 27.396     | 27.396     |   0.0 | 45.30
Comm    | 0.48994    | 0.48994    | 0.48994    |   0.0 |  0.81
Output  | 0.00021791 | 0.00021791 | 0.00021791 |   0.0 |  0.00
Modify  | 0.63242    | 0.63242    | 0.63242    |   0.0 |  1.05
Other   |            | 0.1707     |            |       |  0.28

Nlocal:    19652 ave 19652 max 19652 min
Histogram: 1 0 0 0 0 0 0 0 0 0
Nghost:    16543 ave 16543 max 16543 min
Histogram: 1 0 0 0 0 0 0 0 0 0
Neighs:    1.14208e+06 ave 1.14208e+06 max 1.14208e+06 min
Histogram: 1 0 0 0 0 0 0 0 0 0

Total # of neighbors = 1142085
Ave neighs/atom = 58.1155
Neighbor list builds = 495
Dangerous builds not checked
Setting up Verlet run ...
  Unit style    : metal
  Current step  : 52495
  Time step     : 0.001
Per MPI rank memory allocation (min/avg/max) = 18.21 | 18.21 | 18.21 Mbytes
Step Temp Press TotEng PotEng Enthalpy 
   52495    2109.0486    712.14412   -52184.828   -57542.004   -51992.644 
   54000    2113.7402   -425.59435   -52164.993   -57534.086   -52280.156 
Loop time of 182.995 on 1 procs for 1505 steps with 19652 atoms

Performance: 0.711 ns/day, 33.775 hours/ns, 8.224 timesteps/s
99.9% CPU use with 1 MPI tasks x no OpenMP threads

MPI task timing breakdown:
Section |  min time  |  avg time  |  max time  |%varavg| %total
---------------------------------------------------------------
Pair    | 95.916     | 95.916     | 95.916     |   0.0 | 52.41
Neigh   | 83.212     | 83.212     | 83.212     |   0.0 | 45.47
Comm    | 1.4551     | 1.4551     | 1.4551     |   0.0 |  0.80
Output  | 0.054498   | 0.054498   | 0.054498   |   0.0 |  0.03
Modify  | 1.8471     | 1.8471     | 1.8471     |   0.0 |  1.01
Other   |            | 0.5114     |            |       |  0.28

Nlocal:    19652 ave 19652 max 19652 min
Histogram: 1 0 0 0 0 0 0 0 0 0
Nghost:    16455 ave 16455 max 16455 min
Histogram: 1 0 0 0 0 0 0 0 0 0
Neighs:    1.13917e+06 ave 1.13917e+06 max 1.13917e+06 min
Histogram: 1 0 0 0 0 0 0 0 0 0

Total # of neighbors = 1139166
Ave neighs/atom = 57.9669
Neighbor list builds = 1505
Dangerous builds not checked
Setting up Verlet run ...
  Unit style    : metal
  Current step  : 54000
  Time step     : 0.001
Per MPI rank memory allocation (min/avg/max) = 18.21 | 18.21 | 18.21 Mbytes
Step Temp Press TotEng PotEng Enthalpy 
   54000    2113.7402   -425.59435   -52164.993   -57534.086   -52280.156 
   54495    2062.9012    159.19631   -52441.396   -57681.353   -52398.604 
Loop time of 64.7609 on 1 procs for 495 steps with 19652 atoms

Performance: 0.660 ns/day, 36.342 hours/ns, 7.644 timesteps/s
99.6% CPU use with 1 MPI tasks x no OpenMP threads

MPI task timing breakdown:
Section |  min time  |  avg time  |  max time  |%varavg| %total
---------------------------------------------------------------
Pair    | 34.244     | 34.244     | 34.244     |   0.0 | 52.88
Neigh   | 29.139     | 29.139     | 29.139     |   0.0 | 44.99
Comm    | 0.52096    | 0.52096    | 0.52096    |   0.0 |  0.80
Output  | 0.00016999 | 0.00016999 | 0.00016999 |   0.0 |  0.00
Modify  | 0.6697     | 0.6697     | 0.6697     |   0.0 |  1.03
Other   |            | 0.1874     |            |       |  0.29

Nlocal:    19652 ave 19652 max 19652 min
Histogram: 1 0 0 0 0 0 0 0 0 0
Nghost:    16485 ave 16485 max 16485 min
Histogram: 1 0 0 0 0 0 0 0 0 0
Neighs:    1.14686e+06 ave 1.14686e+06 max 1.14686e+06 min
Histogram: 1 0 0 0 0 0 0 0 0 0

Total # of neighbors = 1146859
Ave neighs/atom = 58.3584
Neighbor list builds = 495
Dangerous builds not checked
Setting up Verlet run ...
  Unit style    : metal
  Current step  : 54495
  Time step     : 0.001
Per MPI rank memory allocation (min/avg/max) = 18.21 | 18.21 | 18.21 Mbytes
Step Temp Press TotEng PotEng Enthalpy 
   54495    2062.9012    159.19631   -52441.396   -57681.353   -52398.604 
   56000    2019.9223   -683.40435   -52576.102   -57706.889   -52759.891 
Loop time of 193.34 on 1 procs for 1505 steps with 19652 atoms

Performance: 0.673 ns/day, 35.685 hours/ns, 7.784 timesteps/s
99.9% CPU use with 1 MPI tasks x no OpenMP threads

MPI task timing breakdown:
Section |  min time  |  avg time  |  max time  |%varavg| %total
---------------------------------------------------------------
Pair    | 102.61     | 102.61     | 102.61     |   0.0 | 53.07
Neigh   | 86.711     | 86.711     | 86.711     |   0.0 | 44.85
Comm    | 1.5165     | 1.5165     | 1.5165     |   0.0 |  0.78
Output  | 0.045406   | 0.045406   | 0.045406   |   0.0 |  0.02
Modify  | 1.9247     | 1.9247     | 1.9247     |   0.0 |  1.00
Other   |            | 0.5314     |            |       |  0.27

Nlocal:    19652 ave 19652 max 19652 min
Histogram: 1 0 0 0 0 0 0 0 0 0
Nghost:    16585 ave 16585 max 16585 min
Histogram: 1 0 0 0 0 0 0 0 0 0
Neighs:    1.14673e+06 ave 1.14673e+06 max 1.14673e+06 min
Histogram: 1 0 0 0 0 0 0 0 0 0

Total # of neighbors = 1146731
Ave neighs/atom = 58.3519
Neighbor list builds = 1505
Dangerous builds not checked
Setting up Verlet run ...
  Unit style    : metal
  Current step  : 56000
  Time step     : 0.001
Per MPI rank memory allocation (min/avg/max) = 18.21 | 18.21 | 18.21 Mbytes
Step Temp Press TotEng PotEng Enthalpy 
   56000    2019.9223   -683.40435   -52576.102   -57706.889   -52759.891 
   56495    2016.7148   -527.62743    -52666.81   -57789.449   -52808.264 
Loop time of 66.7748 on 1 procs for 495 steps with 19652 atoms

Performance: 0.640 ns/day, 37.472 hours/ns, 7.413 timesteps/s
99.9% CPU use with 1 MPI tasks x no OpenMP threads

MPI task timing breakdown:
Section |  min time  |  avg time  |  max time  |%varavg| %total
---------------------------------------------------------------
Pair    | 35.624     | 35.624     | 35.624     |   0.0 | 53.35
Neigh   | 29.755     | 29.755     | 29.755     |   0.0 | 44.56
Comm    | 0.52888    | 0.52888    | 0.52888    |   0.0 |  0.79
Output  | 0.00026011 | 0.00026011 | 0.00026011 |   0.0 |  0.00
Modify  | 0.68264    | 0.68264    | 0.68264    |   0.0 |  1.02
Other   |            | 0.1847     |            |       |  0.28

Nlocal:    19652 ave 19652 max 19652 min
Histogram: 1 0 0 0 0 0 0 0 0 0
Nghost:    16548 ave 16548 max 16548 min
Histogram: 1 0 0 0 0 0 0 0 0 0
Neighs:    1.14998e+06 ave 1.14998e+06 max 1.14998e+06 min
Histogram: 1 0 0 0 0 0 0 0 0 0

Total # of neighbors = 1149984
Ave neighs/atom = 58.5174
Neighbor list builds = 495
Dangerous builds not checked
Setting up Verlet run ...
  Unit style    : metal
  Current step  : 56495
  Time step     : 0.001
Per MPI rank memory allocation (min/avg/max) = 18.21 | 18.21 | 18.21 Mbytes
Step Temp Press TotEng PotEng Enthalpy 
   56495    2016.7148   -527.62743    -52666.81   -57789.449   -52808.264 
   58000     1981.036     334.0381   -52818.992   -57851.004    -52729.86 
Loop time of 182.98 on 1 procs for 1505 steps with 19652 atoms

Performance: 0.711 ns/day, 33.773 hours/ns, 8.225 timesteps/s
99.8% CPU use with 1 MPI tasks x no OpenMP threads

MPI task timing breakdown:
Section |  min time  |  avg time  |  max time  |%varavg| %total
---------------------------------------------------------------
Pair    | 96.408     | 96.408     | 96.408     |   0.0 | 52.69
Neigh   | 82.758     | 82.758     | 82.758     |   0.0 | 45.23
Comm    | 1.4277     | 1.4277     | 1.4277     |   0.0 |  0.78
Output  | 0.049724   | 0.049724   | 0.049724   |   0.0 |  0.03
Modify  | 1.8339     | 1.8339     | 1.8339     |   0.0 |  1.00
Other   |            | 0.5023     |            |       |  0.27

Nlocal:    19652 ave 19652 max 19652 min
Histogram: 1 0 0 0 0 0 0 0 0 0
Nghost:    16591 ave 16591 max 16591 min
Histogram: 1 0 0 0 0 0 0 0 0 0
Neighs:    1.15527e+06 ave 1.15527e+06 max 1.15527e+06 min
Histogram: 1 0 0 0 0 0 0 0 0 0

Total # of neighbors = 1155272
Ave neighs/atom = 58.7865
Neighbor list builds = 1505
Dangerous builds not checked
Setting up Verlet run ...
  Unit style    : metal
  Current step  : 58000
  Time step     : 0.001
Per MPI rank memory allocation (min/avg/max) = 18.21 | 18.21 | 18.21 Mbytes
Step Temp Press TotEng PotEng Enthalpy 
   58000     1981.036     334.0381   -52818.992   -57851.004    -52729.86 
   58495    1964.8874   -487.30541   -52952.996   -57943.989   -53082.921 
Loop time of 58.6529 on 1 procs for 495 steps with 19652 atoms

Performance: 0.729 ns/day, 32.914 hours/ns, 8.439 timesteps/s
99.8% CPU use with 1 MPI tasks x no OpenMP threads

MPI task timing breakdown:
Section |  min time  |  avg time  |  max time  |%varavg| %total
---------------------------------------------------------------
Pair    | 30.537     | 30.537     | 30.537     |   0.0 | 52.06
Neigh   | 26.897     | 26.897     | 26.897     |   0.0 | 45.86
Comm    | 0.4597     | 0.4597     | 0.4597     |   0.0 |  0.78
Output  | 0.00017691 | 0.00017691 | 0.00017691 |   0.0 |  0.00
Modify  | 0.59631    | 0.59631    | 0.59631    |   0.0 |  1.02
Other   |            | 0.1617     |            |       |  0.28

Nlocal:    19652 ave 19652 max 19652 min
Histogram: 1 0 0 0 0 0 0 0 0 0
Nghost:    16505 ave 16505 max 16505 min
Histogram: 1 0 0 0 0 0 0 0 0 0
Neighs:    1.15623e+06 ave 1.15623e+06 max 1.15623e+06 min
Histogram: 1 0 0 0 0 0 0 0 0 0

Total # of neighbors = 1156226
Ave neighs/atom = 58.835
Neighbor list builds = 495
Dangerous builds not checked
Setting up Verlet run ...
  Unit style    : metal
  Current step  : 58495
  Time step     : 0.001
Per MPI rank memory allocation (min/avg/max) = 18.21 | 18.21 | 18.21 Mbytes
Step Temp Press TotEng PotEng Enthalpy 
   58495    1964.8874   -487.30541   -52952.996   -57943.989   -53082.921 
   60000    1937.3756   -671.37219   -53083.155   -58004.266   -53261.687 
Loop time of 189.81 on 1 procs for 1505 steps with 19652 atoms

Performance: 0.685 ns/day, 35.033 hours/ns, 7.929 timesteps/s
99.7% CPU use with 1 MPI tasks x no OpenMP threads

MPI task timing breakdown:
Section |  min time  |  avg time  |  max time  |%varavg| %total
---------------------------------------------------------------
Pair    | 100.1      | 100.1      | 100.1      |   0.0 | 52.73
Neigh   | 85.786     | 85.786     | 85.786     |   0.0 | 45.20
Comm    | 1.4796     | 1.4796     | 1.4796     |   0.0 |  0.78
Output  | 0.056613   | 0.056613   | 0.056613   |   0.0 |  0.03
Modify  | 1.8807     | 1.8807     | 1.8807     |   0.0 |  0.99
Other   |            | 0.5117     |            |       |  0.27

Nlocal:    19652 ave 19652 max 19652 min
Histogram: 1 0 0 0 0 0 0 0 0 0
Nghost:    16562 ave 16562 max 16562 min
Histogram: 1 0 0 0 0 0 0 0 0 0
Neighs:    1.15958e+06 ave 1.15958e+06 max 1.15958e+06 min
Histogram: 1 0 0 0 0 0 0 0 0 0

Total # of neighbors = 1159582
Ave neighs/atom = 59.0058
Neighbor list builds = 1505
Dangerous builds not checked
Setting up Verlet run ...
  Unit style    : metal
  Current step  : 60000
  Time step     : 0.001
Per MPI rank memory allocation (min/avg/max) = 18.21 | 18.21 | 18.21 Mbytes
Step Temp Press TotEng PotEng Enthalpy 
   60000    1937.3756   -671.37219   -53083.155   -58004.266   -53261.687 
   60495    1907.5057    19.557894   -53162.511   -58007.749   -53157.315 
Loop time of 65.7517 on 1 procs for 495 steps with 19652 atoms

Performance: 0.650 ns/day, 36.898 hours/ns, 7.528 timesteps/s
99.9% CPU use with 1 MPI tasks x no OpenMP threads

MPI task timing breakdown:
Section |  min time  |  avg time  |  max time  |%varavg| %total
---------------------------------------------------------------
Pair    | 34.839     | 34.839     | 34.839     |   0.0 | 52.99
Neigh   | 29.549     | 29.549     | 29.549     |   0.0 | 44.94
Comm    | 0.51359    | 0.51359    | 0.51359    |   0.0 |  0.78
Output  | 0.00016689 | 0.00016689 | 0.00016689 |   0.0 |  0.00
Modify  | 0.67252    | 0.67252    | 0.67252    |   0.0 |  1.02
Other   |            | 0.177      |            |       |  0.27

Nlocal:    19652 ave 19652 max 19652 min
Histogram: 1 0 0 0 0 0 0 0 0 0
Nghost:    16554 ave 16554 max 16554 min
Histogram: 1 0 0 0 0 0 0 0 0 0
Neighs:    1.16115e+06 ave 1.16115e+06 max 1.16115e+06 min
Histogram: 1 0 0 0 0 0 0 0 0 0

Total # of neighbors = 1161152
Ave neighs/atom = 59.0857
Neighbor list builds = 495
Dangerous builds not checked
Setting up Verlet run ...
  Unit style    : metal
  Current step  : 60495
  Time step     : 0.001
Per MPI rank memory allocation (min/avg/max) = 18.21 | 18.21 | 18.21 Mbytes
Step Temp Press TotEng PotEng Enthalpy 
   60495    1907.5057    19.557894   -53162.511   -58007.749   -53157.315 
   62000    1904.3972    -413.2459   -53212.995   -58050.338   -53322.632 
Loop time of 207.937 on 1 procs for 1505 steps with 19652 atoms

Performance: 0.625 ns/day, 38.379 hours/ns, 7.238 timesteps/s
99.9% CPU use with 1 MPI tasks x no OpenMP threads

MPI task timing breakdown:
Section |  min time  |  avg time  |  max time  |%varavg| %total
---------------------------------------------------------------
Pair    | 110.71     | 110.71     | 110.71     |   0.0 | 53.24
Neigh   | 92.902     | 92.902     | 92.902     |   0.0 | 44.68
Comm    | 1.6196     | 1.6196     | 1.6196     |   0.0 |  0.78
Output  | 0.067702   | 0.067702   | 0.067702   |   0.0 |  0.03
Modify  | 2.0889     | 2.0889     | 2.0889     |   0.0 |  1.00
Other   |            | 0.5523     |            |       |  0.27

Nlocal:    19652 ave 19652 max 19652 min
Histogram: 1 0 0 0 0 0 0 0 0 0
Nghost:    16612 ave 16612 max 16612 min
Histogram: 1 0 0 0 0 0 0 0 0 0
Neighs:    1.16259e+06 ave 1.16259e+06 max 1.16259e+06 min
Histogram: 1 0 0 0 0 0 0 0 0 0

Total # of neighbors = 1162594
Ave neighs/atom = 59.1591
Neighbor list builds = 1505
Dangerous builds not checked
Setting up Verlet run ...
  Unit style    : metal
  Current step  : 62000
  Time step     : 0.001
Per MPI rank memory allocation (min/avg/max) = 18.21 | 18.21 | 18.21 Mbytes
Step Temp Press TotEng PotEng Enthalpy 
   62000    1904.3972    -413.2459   -53212.995   -58050.338   -53322.632 
   62495    1862.5497    2.0868882   -53492.233   -58223.279   -53491.683 
Loop time of 69.0418 on 1 procs for 495 steps with 19652 atoms

Performance: 0.619 ns/day, 38.744 hours/ns, 7.170 timesteps/s
99.7% CPU use with 1 MPI tasks x no OpenMP threads

MPI task timing breakdown:
Section |  min time  |  avg time  |  max time  |%varavg| %total
---------------------------------------------------------------
Pair    | 37.062     | 37.062     | 37.062     |   0.0 | 53.68
Neigh   | 30.523     | 30.523     | 30.523     |   0.0 | 44.21
Comm    | 0.55066    | 0.55066    | 0.55066    |   0.0 |  0.80
Output  | 0.00017095 | 0.00017095 | 0.00017095 |   0.0 |  0.00
Modify  | 0.71682    | 0.71682    | 0.71682    |   0.0 |  1.04
Other   |            | 0.1896     |            |       |  0.27

Nlocal:    19652 ave 19652 max 19652 min
Histogram: 1 0 0 0 0 0 0 0 0 0
Nghost:    16577 ave 16577 max 16577 min
Histogram: 1 0 0 0 0 0 0 0 0 0
Neighs:    1.17022e+06 ave 1.17022e+06 max 1.17022e+06 min
Histogram: 1 0 0 0 0 0 0 0 0 0

Total # of neighbors = 1170218
Ave neighs/atom = 59.547
Neighbor list builds = 495
Dangerous builds not checked
Setting up Verlet run ...
  Unit style    : metal
  Current step  : 62495
  Time step     : 0.001
Per MPI rank memory allocation (min/avg/max) = 18.21 | 18.21 | 18.21 Mbytes
Step Temp Press TotEng PotEng Enthalpy 
   62495    1862.5497    2.0868882   -53492.233   -58223.279   -53491.683 
   64000    1847.1366    247.31379   -53564.247   -58256.142   -53499.178 
Loop time of 189.74 on 1 procs for 1505 steps with 19652 atoms

Performance: 0.685 ns/day, 35.020 hours/ns, 7.932 timesteps/s
99.9% CPU use with 1 MPI tasks x no OpenMP threads

MPI task timing breakdown:
Section |  min time  |  avg time  |  max time  |%varavg| %total
---------------------------------------------------------------
Pair    | 100.59     | 100.59     | 100.59     |   0.0 | 53.01
Neigh   | 85.196     | 85.196     | 85.196     |   0.0 | 44.90
Comm    | 1.4907     | 1.4907     | 1.4907     |   0.0 |  0.79
Output  | 0.068204   | 0.068204   | 0.068204   |   0.0 |  0.04
Modify  | 1.8809     | 1.8809     | 1.8809     |   0.0 |  0.99
Other   |            | 0.5136     |            |       |  0.27

Nlocal:    19652 ave 19652 max 19652 min
Histogram: 1 0 0 0 0 0 0 0 0 0
Nghost:    16581 ave 16581 max 16581 min
Histogram: 1 0 0 0 0 0 0 0 0 0
Neighs:    1.17188e+06 ave 1.17188e+06 max 1.17188e+06 min
Histogram: 1 0 0 0 0 0 0 0 0 0

Total # of neighbors = 1171881
Ave neighs/atom = 59.6316
Neighbor list builds = 1505
Dangerous builds not checked
Setting up Verlet run ...
  Unit style    : metal
  Current step  : 64000
  Time step     : 0.001
Per MPI rank memory allocation (min/avg/max) = 18.21 | 18.21 | 18.21 Mbytes
Step Temp Press TotEng PotEng Enthalpy 
   64000    1847.1366    247.31379   -53564.247   -58256.142   -53499.178 
   64495    1811.4275    52.956284   -53752.325   -58353.516   -53738.443 
Loop time of 62.3289 on 1 procs for 495 steps with 19652 atoms

Performance: 0.686 ns/day, 34.977 hours/ns, 7.942 timesteps/s
99.6% CPU use with 1 MPI tasks x no OpenMP threads

MPI task timing breakdown:
Section |  min time  |  avg time  |  max time  |%varavg| %total
---------------------------------------------------------------
Pair    | 32.933     | 32.933     | 32.933     |   0.0 | 52.84
Neigh   | 28.111     | 28.111     | 28.111     |   0.0 | 45.10
Comm    | 0.48549    | 0.48549    | 0.48549    |   0.0 |  0.78
Output  | 0.00030208 | 0.00030208 | 0.00030208 |   0.0 |  0.00
Modify  | 0.62799    | 0.62799    | 0.62799    |   0.0 |  1.01
Other   |            | 0.1717     |            |       |  0.28

Nlocal:    19652 ave 19652 max 19652 min
Histogram: 1 0 0 0 0 0 0 0 0 0
Nghost:    16588 ave 16588 max 16588 min
Histogram: 1 0 0 0 0 0 0 0 0 0
Neighs:    1.17686e+06 ave 1.17686e+06 max 1.17686e+06 min
Histogram: 1 0 0 0 0 0 0 0 0 0

Total # of neighbors = 1176855
Ave neighs/atom = 59.8847
Neighbor list builds = 495
Dangerous builds not checked
Setting up Verlet run ...
  Unit style    : metal
  Current step  : 64495
  Time step     : 0.001
Per MPI rank memory allocation (min/avg/max) = 18.21 | 18.21 | 18.21 Mbytes
Step Temp Press TotEng PotEng Enthalpy 
   64495    1811.4275    52.956284   -53752.325   -58353.516   -53738.443 
   66000    1789.2124   -33.350319   -53876.358   -58421.121   -53885.085 
Loop time of 212.524 on 1 procs for 1505 steps with 19652 atoms

Performance: 0.612 ns/day, 39.226 hours/ns, 7.082 timesteps/s
99.8% CPU use with 1 MPI tasks x no OpenMP threads

MPI task timing breakdown:
Section |  min time  |  avg time  |  max time  |%varavg| %total
---------------------------------------------------------------
Pair    | 114.28     | 114.28     | 114.28     |   0.0 | 53.77
Neigh   | 93.84      | 93.84      | 93.84      |   0.0 | 44.16
Comm    | 1.6533     | 1.6533     | 1.6533     |   0.0 |  0.78
Output  | 0.068827   | 0.068827   | 0.068827   |   0.0 |  0.03
Modify  | 2.1177     | 2.1177     | 2.1177     |   0.0 |  1.00
Other   |            | 0.5667     |            |       |  0.27

Nlocal:    19652 ave 19652 max 19652 min
Histogram: 1 0 0 0 0 0 0 0 0 0
Nghost:    16626 ave 16626 max 16626 min
Histogram: 1 0 0 0 0 0 0 0 0 0
Neighs:    1.17917e+06 ave 1.17917e+06 max 1.17917e+06 min
Histogram: 1 0 0 0 0 0 0 0 0 0

Total # of neighbors = 1179168
Ave neighs/atom = 60.0024
Neighbor list builds = 1505
Dangerous builds not checked
Setting up Verlet run ...
  Unit style    : metal
  Current step  : 66000
  Time step     : 0.001
Per MPI rank memory allocation (min/avg/max) = 18.21 | 18.21 | 18.21 Mbytes
Step Temp Press TotEng PotEng Enthalpy 
   66000    1789.2124   -33.350319   -53876.358   -58421.121   -53885.085 
   66495    1757.9374    469.57741   -54003.569   -58468.891   -53881.029 
Loop time of 65.4584 on 1 procs for 495 steps with 19652 atoms

Performance: 0.653 ns/day, 36.733 hours/ns, 7.562 timesteps/s
100.0% CPU use with 1 MPI tasks x no OpenMP threads

MPI task timing breakdown:
Section |  min time  |  avg time  |  max time  |%varavg| %total
---------------------------------------------------------------
Pair    | 34.862     | 34.862     | 34.862     |   0.0 | 53.26
Neigh   | 29.256     | 29.256     | 29.256     |   0.0 | 44.69
Comm    | 0.50622    | 0.50622    | 0.50622    |   0.0 |  0.77
Output  | 0.00018597 | 0.00018597 | 0.00018597 |   0.0 |  0.00
Modify  | 0.65717    | 0.65717    | 0.65717    |   0.0 |  1.00
Other   |            | 0.1768     |            |       |  0.27

Nlocal:    19652 ave 19652 max 19652 min
Histogram: 1 0 0 0 0 0 0 0 0 0
Nghost:    16730 ave 16730 max 16730 min
Histogram: 1 0 0 0 0 0 0 0 0 0
Neighs:    1.18249e+06 ave 1.18249e+06 max 1.18249e+06 min
Histogram: 1 0 0 0 0 0 0 0 0 0

Total # of neighbors = 1182487
Ave neighs/atom = 60.1713
Neighbor list builds = 495
Dangerous builds not checked
Setting up Verlet run ...
  Unit style    : metal
  Current step  : 66495
  Time step     : 0.001
Per MPI rank memory allocation (min/avg/max) = 18.21 | 18.21 | 18.21 Mbytes
Step Temp Press TotEng PotEng Enthalpy 
   66495    1757.9374    469.57741   -54003.569   -58468.891   -53881.029 
   68000    1751.4098    156.12908   -54107.374   -58556.115   -54066.739 
Loop time of 209.413 on 1 procs for 1505 steps with 19652 atoms

Performance: 0.621 ns/day, 38.651 hours/ns, 7.187 timesteps/s
99.9% CPU use with 1 MPI tasks x no OpenMP threads

MPI task timing breakdown:
Section |  min time  |  avg time  |  max time  |%varavg| %total
---------------------------------------------------------------
Pair    | 113.01     | 113.01     | 113.01     |   0.0 | 53.97
Neigh   | 92.075     | 92.075     | 92.075     |   0.0 | 43.97
Comm    | 1.628      | 1.628      | 1.628      |   0.0 |  0.78
Output  | 0.051951   | 0.051951   | 0.051951   |   0.0 |  0.02
Modify  | 2.079      | 2.079      | 2.079      |   0.0 |  0.99
Other   |            | 0.5666     |            |       |  0.27

Nlocal:    19652 ave 19652 max 19652 min
Histogram: 1 0 0 0 0 0 0 0 0 0
Nghost:    16718 ave 16718 max 16718 min
Histogram: 1 0 0 0 0 0 0 0 0 0
Neighs:    1.18527e+06 ave 1.18527e+06 max 1.18527e+06 min
Histogram: 1 0 0 0 0 0 0 0 0 0

Total # of neighbors = 1185268
Ave neighs/atom = 60.3128
Neighbor list builds = 1505
Dangerous builds not checked
Setting up Verlet run ...
  Unit style    : metal
  Current step  : 68000
  Time step     : 0.001
Per MPI rank memory allocation (min/avg/max) = 18.21 | 18.21 | 18.21 Mbytes
Step Temp Press TotEng PotEng Enthalpy 
   68000    1751.4098    156.12908   -54107.374   -58556.115   -54066.739 
   68495    1717.9712    221.08949   -54296.718   -58660.521   -54239.404 
Loop time of 63.1297 on 1 procs for 495 steps with 19652 atoms

Performance: 0.677 ns/day, 35.426 hours/ns, 7.841 timesteps/s
99.8% CPU use with 1 MPI tasks x no OpenMP threads

MPI task timing breakdown:
Section |  min time  |  avg time  |  max time  |%varavg| %total
---------------------------------------------------------------
Pair    | 33.557     | 33.557     | 33.557     |   0.0 | 53.16
Neigh   | 28.241     | 28.241     | 28.241     |   0.0 | 44.73
Comm    | 0.50138    | 0.50138    | 0.50138    |   0.0 |  0.79
Output  | 0.00018096 | 0.00018096 | 0.00018096 |   0.0 |  0.00
Modify  | 0.65227    | 0.65227    | 0.65227    |   0.0 |  1.03
Other   |            | 0.1781     |            |       |  0.28

Nlocal:    19652 ave 19652 max 19652 min
Histogram: 1 0 0 0 0 0 0 0 0 0
Nghost:    16724 ave 16724 max 16724 min
Histogram: 1 0 0 0 0 0 0 0 0 0
Neighs:    1.19061e+06 ave 1.19061e+06 max 1.19061e+06 min
Histogram: 1 0 0 0 0 0 0 0 0 0

Total # of neighbors = 1190609
Ave neighs/atom = 60.5846
Neighbor list builds = 495
Dangerous builds not checked
Setting up Verlet run ...
  Unit style    : metal
  Current step  : 68495
  Time step     : 0.001
Per MPI rank memory allocation (min/avg/max) = 18.21 | 18.21 | 18.21 Mbytes
Step Temp Press TotEng PotEng Enthalpy 
   68495    1717.9712    221.08949   -54296.718   -58660.521   -54239.404 
   70000     1708.557    786.99487   -54333.871   -58673.761   -54130.154 
Loop time of 197.657 on 1 procs for 1505 steps with 19652 atoms

Performance: 0.658 ns/day, 36.481 hours/ns, 7.614 timesteps/s
99.9% CPU use with 1 MPI tasks x no OpenMP threads

MPI task timing breakdown:
Section |  min time  |  avg time  |  max time  |%varavg| %total
---------------------------------------------------------------
Pair    | 105.63     | 105.63     | 105.63     |   0.0 | 53.44
Neigh   | 87.899     | 87.899     | 87.899     |   0.0 | 44.47
Comm    | 1.551      | 1.551      | 1.551      |   0.0 |  0.78
Output  | 0.049725   | 0.049725   | 0.049725   |   0.0 |  0.03
Modify  | 1.9843     | 1.9843     | 1.9843     |   0.0 |  1.00
Other   |            | 0.5442     |            |       |  0.28

Nlocal:    19652 ave 19652 max 19652 min
Histogram: 1 0 0 0 0 0 0 0 0 0
Nghost:    16723 ave 16723 max 16723 min
Histogram: 1 0 0 0 0 0 0 0 0 0
Neighs:    1.1923e+06 ave 1.1923e+06 max 1.1923e+06 min
Histogram: 1 0 0 0 0 0 0 0 0 0

Total # of neighbors = 1192299
Ave neighs/atom = 60.6706
Neighbor list builds = 1505
Dangerous builds not checked
Setting up Verlet run ...
  Unit style    : metal
  Current step  : 70000
  Time step     : 0.001
Per MPI rank memory allocation (min/avg/max) = 18.21 | 18.21 | 18.21 Mbytes
Step Temp Press TotEng PotEng Enthalpy 
   70000     1708.557    786.99487   -54333.871   -58673.761   -54130.154 
   70495    1663.9906    219.37086   -54552.014   -58778.702   -54495.423 
Loop time of 63.9013 on 1 procs for 495 steps with 19652 atoms

Performance: 0.669 ns/day, 35.859 hours/ns, 7.746 timesteps/s
99.9% CPU use with 1 MPI tasks x no OpenMP threads

MPI task timing breakdown:
Section |  min time  |  avg time  |  max time  |%varavg| %total
---------------------------------------------------------------
Pair    | 34.047     | 34.047     | 34.047     |   0.0 | 53.28
Neigh   | 28.506     | 28.506     | 28.506     |   0.0 | 44.61
Comm    | 0.50969    | 0.50969    | 0.50969    |   0.0 |  0.80
Output  | 0.00019407 | 0.00019407 | 0.00019407 |   0.0 |  0.00
Modify  | 0.654      | 0.654      | 0.654      |   0.0 |  1.02
Other   |            | 0.1849     |            |       |  0.29

Nlocal:    19652 ave 19652 max 19652 min
Histogram: 1 0 0 0 0 0 0 0 0 0
Nghost:    16692 ave 16692 max 16692 min
Histogram: 1 0 0 0 0 0 0 0 0 0
Neighs:    1.19662e+06 ave 1.19662e+06 max 1.19662e+06 min
Histogram: 1 0 0 0 0 0 0 0 0 0

Total # of neighbors = 1196617
Ave neighs/atom = 60.8903
Neighbor list builds = 495
Dangerous builds not checked
Setting up Verlet run ...
  Unit style    : metal
  Current step  : 70495
  Time step     : 0.001
Per MPI rank memory allocation (min/avg/max) = 18.21 | 18.21 | 18.21 Mbytes
Step Temp Press TotEng PotEng Enthalpy 
   70495    1663.9906    219.37086   -54552.014   -58778.702   -54495.423 
   72000    1646.8667   -65.535292   -54671.148   -58854.339   -54688.025 
Loop time of 201.09 on 1 procs for 1505 steps with 19652 atoms

Performance: 0.647 ns/day, 37.115 hours/ns, 7.484 timesteps/s
99.8% CPU use with 1 MPI tasks x no OpenMP threads

MPI task timing breakdown:
Section |  min time  |  avg time  |  max time  |%varavg| %total
---------------------------------------------------------------
Pair    | 107.98     | 107.98     | 107.98     |   0.0 | 53.70
Neigh   | 88.885     | 88.885     | 88.885     |   0.0 | 44.20
Comm    | 1.5776     | 1.5776     | 1.5776     |   0.0 |  0.78
Output  | 0.065572   | 0.065572   | 0.065572   |   0.0 |  0.03
Modify  | 2.0206     | 2.0206     | 2.0206     |   0.0 |  1.00
Other   |            | 0.558      |            |       |  0.28

Nlocal:    19652 ave 19652 max 19652 min
Histogram: 1 0 0 0 0 0 0 0 0 0
Nghost:    16808 ave 16808 max 16808 min
Histogram: 1 0 0 0 0 0 0 0 0 0
Neighs:    1.19878e+06 ave 1.19878e+06 max 1.19878e+06 min
Histogram: 1 0 0 0 0 0 0 0 0 0

Total # of neighbors = 1198780
Ave neighs/atom = 61.0004
Neighbor list builds = 1505
Dangerous builds not checked
Setting up Verlet run ...
  Unit style    : metal
  Current step  : 72000
  Time step     : 0.001
Per MPI rank memory allocation (min/avg/max) = 18.21 | 18.21 | 18.21 Mbytes
Step Temp Press TotEng PotEng Enthalpy 
   72000    1646.8667   -65.535292   -54671.148   -58854.339   -54688.025 
   72495     1599.436    764.27753   -54838.086   -58900.799   -54641.987 
Loop time of 59.7918 on 1 procs for 495 steps with 19652 atoms

Performance: 0.715 ns/day, 33.553 hours/ns, 8.279 timesteps/s
99.9% CPU use with 1 MPI tasks x no OpenMP threads

MPI task timing breakdown:
Section |  min time  |  avg time  |  max time  |%varavg| %total
---------------------------------------------------------------
Pair    | 31.666     | 31.666     | 31.666     |   0.0 | 52.96
Neigh   | 26.887     | 26.887     | 26.887     |   0.0 | 44.97
Comm    | 0.46712    | 0.46712    | 0.46712    |   0.0 |  0.78
Output  | 0.00017285 | 0.00017285 | 0.00017285 |   0.0 |  0.00
Modify  | 0.60426    | 0.60426    | 0.60426    |   0.0 |  1.01
Other   |            | 0.167      |            |       |  0.28

Nlocal:    19652 ave 19652 max 19652 min
Histogram: 1 0 0 0 0 0 0 0 0 0
Nghost:    16786 ave 16786 max 16786 min
Histogram: 1 0 0 0 0 0 0 0 0 0
Neighs:    1.20284e+06 ave 1.20284e+06 max 1.20284e+06 min
Histogram: 1 0 0 0 0 0 0 0 0 0

Total # of neighbors = 1202835
Ave neighs/atom = 61.2067
Neighbor list builds = 495
Dangerous builds not checked
Setting up Verlet run ...
  Unit style    : metal
  Current step  : 72495
  Time step     : 0.001
Per MPI rank memory allocation (min/avg/max) = 18.21 | 18.21 | 18.21 Mbytes
Step Temp Press TotEng PotEng Enthalpy 
   72495     1599.436    764.27753   -54838.086   -58900.799   -54641.987 
   74000    1594.6887    -1014.478   -54926.815   -58977.469   -55187.179 
Loop time of 182.877 on 1 procs for 1505 steps with 19652 atoms

Performance: 0.711 ns/day, 33.754 hours/ns, 8.230 timesteps/s
99.9% CPU use with 1 MPI tasks x no OpenMP threads

MPI task timing breakdown:
Section |  min time  |  avg time  |  max time  |%varavg| %total
---------------------------------------------------------------
Pair    | 97.036     | 97.036     | 97.036     |   0.0 | 53.06
Neigh   | 82.059     | 82.059     | 82.059     |   0.0 | 44.87
Comm    | 1.4285     | 1.4285     | 1.4285     |   0.0 |  0.78
Output  | 0.043866   | 0.043866   | 0.043866   |   0.0 |  0.02
Modify  | 1.8097     | 1.8097     | 1.8097     |   0.0 |  0.99
Other   |            | 0.5        |            |       |  0.27

Nlocal:    19652 ave 19652 max 19652 min
Histogram: 1 0 0 0 0 0 0 0 0 0
Nghost:    16788 ave 16788 max 16788 min
Histogram: 1 0 0 0 0 0 0 0 0 0
Neighs:    1.2038e+06 ave 1.2038e+06 max 1.2038e+06 min
Histogram: 1 0 0 0 0 0 0 0 0 0

Total # of neighbors = 1203795
Ave neighs/atom = 61.2556
Neighbor list builds = 1505
Dangerous builds not checked
Setting up Verlet run ...
  Unit style    : metal
  Current step  : 74000
  Time step     : 0.001
Per MPI rank memory allocation (min/avg/max) = 18.21 | 18.21 | 18.21 Mbytes
Step Temp Press TotEng PotEng Enthalpy 
   74000    1594.6887    -1014.478   -54926.815   -58977.469   -55187.179 
   74495    1553.8198   -134.53003   -55130.601   -59077.444    -55164.94 
Loop time of 62.2031 on 1 procs for 495 steps with 19652 atoms

Performance: 0.688 ns/day, 34.906 hours/ns, 7.958 timesteps/s
99.4% CPU use with 1 MPI tasks x no OpenMP threads

MPI task timing breakdown:
Section |  min time  |  avg time  |  max time  |%varavg| %total
---------------------------------------------------------------
Pair    | 32.954     | 32.954     | 32.954     |   0.0 | 52.98
Neigh   | 27.888     | 27.888     | 27.888     |   0.0 | 44.83
Comm    | 0.49371    | 0.49371    | 0.49371    |   0.0 |  0.79
Output  | 0.00018978 | 0.00018978 | 0.00018978 |   0.0 |  0.00
Modify  | 0.69391    | 0.69391    | 0.69391    |   0.0 |  1.12
Other   |            | 0.1724     |            |       |  0.28

Nlocal:    19652 ave 19652 max 19652 min
Histogram: 1 0 0 0 0 0 0 0 0 0
Nghost:    16840 ave 16840 max 16840 min
Histogram: 1 0 0 0 0 0 0 0 0 0
Neighs:    1.20958e+06 ave 1.20958e+06 max 1.20958e+06 min
Histogram: 1 0 0 0 0 0 0 0 0 0

Total # of neighbors = 1209579
Ave neighs/atom = 61.5499
Neighbor list builds = 495
Dangerous builds not checked
Setting up Verlet run ...
  Unit style    : metal
  Current step  : 74495
  Time step     : 0.001
Per MPI rank memory allocation (min/avg/max) = 18.21 | 18.21 | 18.21 Mbytes
Step Temp Press TotEng PotEng Enthalpy 
   74495    1553.8198   -134.53003   -55130.601   -59077.444    -55164.94 
   76000    1554.3588   -236.02577   -55181.983   -59130.196   -55242.174 
Loop time of 186.518 on 1 procs for 1505 steps with 19652 atoms

Performance: 0.697 ns/day, 34.426 hours/ns, 8.069 timesteps/s
99.8% CPU use with 1 MPI tasks x no OpenMP threads

MPI task timing breakdown:
Section |  min time  |  avg time  |  max time  |%varavg| %total
---------------------------------------------------------------
Pair    | 99.017     | 99.017     | 99.017     |   0.0 | 53.09
Neigh   | 83.629     | 83.629     | 83.629     |   0.0 | 44.84
Comm    | 1.4626     | 1.4626     | 1.4626     |   0.0 |  0.78
Output  | 0.042699   | 0.042699   | 0.042699   |   0.0 |  0.02
Modify  | 1.8549     | 1.8549     | 1.8549     |   0.0 |  0.99
Other   |            | 0.5123     |            |       |  0.27

Nlocal:    19652 ave 19652 max 19652 min
Histogram: 1 0 0 0 0 0 0 0 0 0
Nghost:    16881 ave 16881 max 16881 min
Histogram: 1 0 0 0 0 0 0 0 0 0
Neighs:    1.21092e+06 ave 1.21092e+06 max 1.21092e+06 min
Histogram: 1 0 0 0 0 0 0 0 0 0

Total # of neighbors = 1210916
Ave neighs/atom = 61.618
Neighbor list builds = 1505
Dangerous builds not checked
Setting up Verlet run ...
  Unit style    : metal
  Current step  : 76000
  Time step     : 0.001
Per MPI rank memory allocation (min/avg/max) = 18.21 | 18.21 | 18.21 Mbytes
Step Temp Press TotEng PotEng Enthalpy 
   76000    1554.3588   -236.02577   -55181.983   -59130.196   -55242.174 
   76495    1500.0321     586.7196   -55388.967   -59199.185   -55240.029 
Loop time of 65.2525 on 1 procs for 495 steps with 19652 atoms

Performance: 0.655 ns/day, 36.618 hours/ns, 7.586 timesteps/s
100.0% CPU use with 1 MPI tasks x no OpenMP threads

MPI task timing breakdown:
Section |  min time  |  avg time  |  max time  |%varavg| %total
---------------------------------------------------------------
Pair    | 34.921     | 34.921     | 34.921     |   0.0 | 53.52
Neigh   | 28.967     | 28.967     | 28.967     |   0.0 | 44.39
Comm    | 0.51031    | 0.51031    | 0.51031    |   0.0 |  0.78
Output  | 0.0002749  | 0.0002749  | 0.0002749  |   0.0 |  0.00
Modify  | 0.6666     | 0.6666     | 0.6666     |   0.0 |  1.02
Other   |            | 0.1871     |            |       |  0.29

Nlocal:    19652 ave 19652 max 19652 min
Histogram: 1 0 0 0 0 0 0 0 0 0
Nghost:    16874 ave 16874 max 16874 min
Histogram: 1 0 0 0 0 0 0 0 0 0
Neighs:    1.21644e+06 ave 1.21644e+06 max 1.21644e+06 min
Histogram: 1 0 0 0 0 0 0 0 0 0

Total # of neighbors = 1216440
Ave neighs/atom = 61.899
Neighbor list builds = 495
Dangerous builds not checked
Setting up Verlet run ...
  Unit style    : metal
  Current step  : 76495
  Time step     : 0.001
Per MPI rank memory allocation (min/avg/max) = 18.21 | 18.21 | 18.21 Mbytes
Step Temp Press TotEng PotEng Enthalpy 
   76495    1500.0321     586.7196   -55388.967   -59199.185   -55240.029 
   78000    1498.3792    749.42894   -55516.145   -59322.165   -55326.758 
Loop time of 198.688 on 1 procs for 1505 steps with 19652 atoms

Performance: 0.654 ns/day, 36.672 hours/ns, 7.575 timesteps/s
99.5% CPU use with 1 MPI tasks x no OpenMP threads

MPI task timing breakdown:
Section |  min time  |  avg time  |  max time  |%varavg| %total
---------------------------------------------------------------
Pair    | 106.6      | 106.6      | 106.6      |   0.0 | 53.65
Neigh   | 87.994     | 87.994     | 87.994     |   0.0 | 44.29
Comm    | 1.5358     | 1.5358     | 1.5358     |   0.0 |  0.77
Output  | 0.043923   | 0.043923   | 0.043923   |   0.0 |  0.02
Modify  | 1.9725     | 1.9725     | 1.9725     |   0.0 |  0.99
Other   |            | 0.5444     |            |       |  0.27

Nlocal:    19652 ave 19652 max 19652 min
Histogram: 1 0 0 0 0 0 0 0 0 0
Nghost:    16869 ave 16869 max 16869 min
Histogram: 1 0 0 0 0 0 0 0 0 0
Neighs:    1.22227e+06 ave 1.22227e+06 max 1.22227e+06 min
Histogram: 1 0 0 0 0 0 0 0 0 0

Total # of neighbors = 1222270
Ave neighs/atom = 62.1957
Neighbor list builds = 1505
Dangerous builds not checked
Setting up Verlet run ...
  Unit style    : metal
  Current step  : 78000
  Time step     : 0.001
Per MPI rank memory allocation (min/avg/max) = 18.21 | 18.21 | 18.21 Mbytes
Step Temp Press TotEng PotEng Enthalpy 
   78000    1498.3792    749.42894   -55516.145   -59322.165   -55326.758 
   78495    1471.4975    833.79569   -55662.097   -59399.834   -55452.048 
Loop time of 63.0232 on 1 procs for 495 steps with 19652 atoms

Performance: 0.679 ns/day, 35.367 hours/ns, 7.854 timesteps/s
99.6% CPU use with 1 MPI tasks x no OpenMP threads

MPI task timing breakdown:
Section |  min time  |  avg time  |  max time  |%varavg| %total
---------------------------------------------------------------
Pair    | 33.33      | 33.33      | 33.33      |   0.0 | 52.89
Neigh   | 28.373     | 28.373     | 28.373     |   0.0 | 45.02
Comm    | 0.49985    | 0.49985    | 0.49985    |   0.0 |  0.79
Output  | 0.00016499 | 0.00016499 | 0.00016499 |   0.0 |  0.00
Modify  | 0.64578    | 0.64578    | 0.64578    |   0.0 |  1.02
Other   |            | 0.1735     |            |       |  0.28

Nlocal:    19652 ave 19652 max 19652 min
Histogram: 1 0 0 0 0 0 0 0 0 0
Nghost:    16965 ave 16965 max 16965 min
Histogram: 1 0 0 0 0 0 0 0 0 0
Neighs:    1.22597e+06 ave 1.22597e+06 max 1.22597e+06 min
Histogram: 1 0 0 0 0 0 0 0 0 0

Total # of neighbors = 1225971
Ave neighs/atom = 62.384
Neighbor list builds = 495
Dangerous builds not checked
Setting up Verlet run ...
  Unit style    : metal
  Current step  : 78495
  Time step     : 0.001
Per MPI rank memory allocation (min/avg/max) = 18.21 | 18.21 | 18.21 Mbytes
Step Temp Press TotEng PotEng Enthalpy 
   78495    1471.4975    833.79569   -55662.097   -59399.834   -55452.048 
   80000    1457.3831   -215.02093   -55753.317   -59455.203   -55807.483 
Loop time of 199.532 on 1 procs for 1505 steps with 19652 atoms

Performance: 0.652 ns/day, 36.828 hours/ns, 7.543 timesteps/s
99.5% CPU use with 1 MPI tasks x no OpenMP threads

MPI task timing breakdown:
Section |  min time  |  avg time  |  max time  |%varavg| %total
---------------------------------------------------------------
Pair    | 107.25     | 107.25     | 107.25     |   0.0 | 53.75
Neigh   | 88.118     | 88.118     | 88.118     |   0.0 | 44.16
Comm    | 1.5554     | 1.5554     | 1.5554     |   0.0 |  0.78
Output  | 0.06838    | 0.06838    | 0.06838    |   0.0 |  0.03
Modify  | 1.9939     | 1.9939     | 1.9939     |   0.0 |  1.00
Other   |            | 0.5425     |            |       |  0.27

Nlocal:    19652 ave 19652 max 19652 min
Histogram: 1 0 0 0 0 0 0 0 0 0
Nghost:    16954 ave 16954 max 16954 min
Histogram: 1 0 0 0 0 0 0 0 0 0
Neighs:    1.22644e+06 ave 1.22644e+06 max 1.22644e+06 min
Histogram: 1 0 0 0 0 0 0 0 0 0

Total # of neighbors = 1226444
Ave neighs/atom = 62.4081
Neighbor list builds = 1505
Dangerous builds not checked
Setting up Verlet run ...
  Unit style    : metal
  Current step  : 80000
  Time step     : 0.001
Per MPI rank memory allocation (min/avg/max) = 18.21 | 18.21 | 18.21 Mbytes
Step Temp Press TotEng PotEng Enthalpy 
   80000    1457.3831   -215.02093   -55753.317   -59455.203   -55807.483 
   80495    1409.8695    22.251357   -55955.761   -59536.958   -55950.175 
Loop time of 69.7995 on 1 procs for 495 steps with 19652 atoms

Performance: 0.613 ns/day, 39.169 hours/ns, 7.092 timesteps/s
99.9% CPU use with 1 MPI tasks x no OpenMP threads

MPI task timing breakdown:
Section |  min time  |  avg time  |  max time  |%varavg| %total
---------------------------------------------------------------
Pair    | 37.778     | 37.778     | 37.778     |   0.0 | 54.12
Neigh   | 30.552     | 30.552     | 30.552     |   0.0 | 43.77
Comm    | 0.55099    | 0.55099    | 0.55099    |   0.0 |  0.79
Output  | 0.00028205 | 0.00028205 | 0.00028205 |   0.0 |  0.00
Modify  | 0.72423    | 0.72423    | 0.72423    |   0.0 |  1.04
Other   |            | 0.1941     |            |       |  0.28

Nlocal:    19652 ave 19652 max 19652 min
Histogram: 1 0 0 0 0 0 0 0 0 0
Nghost:    16959 ave 16959 max 16959 min
Histogram: 1 0 0 0 0 0 0 0 0 0
Neighs:    1.23065e+06 ave 1.23065e+06 max 1.23065e+06 min
Histogram: 1 0 0 0 0 0 0 0 0 0

Total # of neighbors = 1230646
Ave neighs/atom = 62.6219
Neighbor list builds = 495
Dangerous builds not checked
Setting up Verlet run ...
  Unit style    : metal
  Current step  : 80495
  Time step     : 0.001
Per MPI rank memory allocation (min/avg/max) = 18.21 | 18.21 | 18.21 Mbytes
Step Temp Press TotEng PotEng Enthalpy 
   80495    1409.8695    22.251357   -55955.761   -59536.958   -55950.175 
   82000    1405.9017   -957.50213   -56022.975   -59594.093   -56263.082 
Loop time of 196.834 on 1 procs for 1505 steps with 19652 atoms

Performance: 0.661 ns/day, 36.330 hours/ns, 7.646 timesteps/s
99.5% CPU use with 1 MPI tasks x no OpenMP threads

MPI task timing breakdown:
Section |  min time  |  avg time  |  max time  |%varavg| %total
---------------------------------------------------------------
Pair    | 105.43     | 105.43     | 105.43     |   0.0 | 53.57
Neigh   | 87.324     | 87.324     | 87.324     |   0.0 | 44.36
Comm    | 1.5295     | 1.5295     | 1.5295     |   0.0 |  0.78
Output  | 0.043576   | 0.043576   | 0.043576   |   0.0 |  0.02
Modify  | 1.9701     | 1.9701     | 1.9701     |   0.0 |  1.00
Other   |            | 0.5325     |            |       |  0.27

Nlocal:    19652 ave 19652 max 19652 min
Histogram: 1 0 0 0 0 0 0 0 0 0
Nghost:    16964 ave 16964 max 16964 min
Histogram: 1 0 0 0 0 0 0 0 0 0
Neighs:    1.23239e+06 ave 1.23239e+06 max 1.23239e+06 min
Histogram: 1 0 0 0 0 0 0 0 0 0

Total # of neighbors = 1232394
Ave neighs/atom = 62.7109
Neighbor list builds = 1505
Dangerous builds not checked
Setting up Verlet run ...
  Unit style    : metal
  Current step  : 82000
  Time step     : 0.001
Per MPI rank memory allocation (min/avg/max) = 18.21 | 18.21 | 18.21 Mbytes
Step Temp Press TotEng PotEng Enthalpy 
   82000    1405.9017   -957.50213   -56022.975   -59594.093   -56263.082 
   82495    1353.9772    -170.6002   -56253.151   -59692.377   -56295.713 
Loop time of 61.4392 on 1 procs for 495 steps with 19652 atoms

Performance: 0.696 ns/day, 34.478 hours/ns, 8.057 timesteps/s
100.0% CPU use with 1 MPI tasks x no OpenMP threads

MPI task timing breakdown:
Section |  min time  |  avg time  |  max time  |%varavg| %total
---------------------------------------------------------------
Pair    | 32.6       | 32.6       | 32.6       |   0.0 | 53.06
Neigh   | 27.561     | 27.561     | 27.561     |   0.0 | 44.86
Comm    | 0.48501    | 0.48501    | 0.48501    |   0.0 |  0.79
Output  | 0.00018406 | 0.00018406 | 0.00018406 |   0.0 |  0.00
Modify  | 0.62263    | 0.62263    | 0.62263    |   0.0 |  1.01
Other   |            | 0.1702     |            |       |  0.28

Nlocal:    19652 ave 19652 max 19652 min
Histogram: 1 0 0 0 0 0 0 0 0 0
Nghost:    16897 ave 16897 max 16897 min
Histogram: 1 0 0 0 0 0 0 0 0 0
Neighs:    1.23866e+06 ave 1.23866e+06 max 1.23866e+06 min
Histogram: 1 0 0 0 0 0 0 0 0 0

Total # of neighbors = 1238658
Ave neighs/atom = 63.0296
Neighbor list builds = 495
Dangerous builds not checked
Setting up Verlet run ...
  Unit style    : metal
  Current step  : 82495
  Time step     : 0.001
Per MPI rank memory allocation (min/avg/max) = 18.21 | 18.21 | 18.21 Mbytes
Step Temp Press TotEng PotEng Enthalpy 
   82495    1353.9772    -170.6002   -56253.151   -59692.377   -56295.713 
   84000    1344.3357   -367.07951   -56350.706   -59765.441   -56442.141 
Loop time of 194.886 on 1 procs for 1505 steps with 19652 atoms

Performance: 0.667 ns/day, 35.970 hours/ns, 7.722 timesteps/s
99.8% CPU use with 1 MPI tasks x no OpenMP threads

MPI task timing breakdown:
Section |  min time  |  avg time  |  max time  |%varavg| %total
---------------------------------------------------------------
Pair    | 104.39     | 104.39     | 104.39     |   0.0 | 53.57
Neigh   | 86.355     | 86.355     | 86.355     |   0.0 | 44.31
Comm    | 1.5155     | 1.5155     | 1.5155     |   0.0 |  0.78
Output  | 0.15782    | 0.15782    | 0.15782    |   0.0 |  0.08
Modify  | 1.9355     | 1.9355     | 1.9355     |   0.0 |  0.99
Other   |            | 0.5271     |            |       |  0.27

Nlocal:    19652 ave 19652 max 19652 min
Histogram: 1 0 0 0 0 0 0 0 0 0
Nghost:    17038 ave 17038 max 17038 min
Histogram: 1 0 0 0 0 0 0 0 0 0
Neighs:    1.24061e+06 ave 1.24061e+06 max 1.24061e+06 min
Histogram: 1 0 0 0 0 0 0 0 0 0

Total # of neighbors = 1240608
Ave neighs/atom = 63.1288
Neighbor list builds = 1505
Dangerous builds not checked
Setting up Verlet run ...
  Unit style    : metal
  Current step  : 84000
  Time step     : 0.001
Per MPI rank memory allocation (min/avg/max) = 18.21 | 18.21 | 18.21 Mbytes
Step Temp Press TotEng PotEng Enthalpy 
   84000    1344.3357   -367.07951   -56350.706   -59765.441   -56442.141 
   84495    1314.8923   -271.16892    -56525.06   -59865.007   -56592.323 
Loop time of 64.2853 on 1 procs for 495 steps with 19652 atoms

Performance: 0.665 ns/day, 36.075 hours/ns, 7.700 timesteps/s
99.4% CPU use with 1 MPI tasks x no OpenMP threads

MPI task timing breakdown:
Section |  min time  |  avg time  |  max time  |%varavg| %total
---------------------------------------------------------------
Pair    | 34.635     | 34.635     | 34.635     |   0.0 | 53.88
Neigh   | 28.307     | 28.307     | 28.307     |   0.0 | 44.03
Comm    | 0.50821    | 0.50821    | 0.50821    |   0.0 |  0.79
Output  | 0.00025201 | 0.00025201 | 0.00025201 |   0.0 |  0.00
Modify  | 0.65521    | 0.65521    | 0.65521    |   0.0 |  1.02
Other   |            | 0.1789     |            |       |  0.28

Nlocal:    19652 ave 19652 max 19652 min
Histogram: 1 0 0 0 0 0 0 0 0 0
Nghost:    17107 ave 17107 max 17107 min
Histogram: 1 0 0 0 0 0 0 0 0 0
Neighs:    1.24629e+06 ave 1.24629e+06 max 1.24629e+06 min
Histogram: 1 0 0 0 0 0 0 0 0 0

Total # of neighbors = 1246287
Ave neighs/atom = 63.4178
Neighbor list builds = 495
Dangerous builds not checked
Setting up Verlet run ...
  Unit style    : metal
  Current step  : 84495
  Time step     : 0.001
Per MPI rank memory allocation (min/avg/max) = 18.21 | 18.21 | 18.21 Mbytes
Step Temp Press TotEng PotEng Enthalpy 
   84495    1314.8923   -271.16892    -56525.06   -59865.007   -56592.323 
   86000    1303.5888   -51.126836   -56655.094   -59966.328   -56667.724 
Loop time of 207.822 on 1 procs for 1505 steps with 19652 atoms

Performance: 0.626 ns/day, 38.358 hours/ns, 7.242 timesteps/s
99.6% CPU use with 1 MPI tasks x no OpenMP threads

MPI task timing breakdown:
Section |  min time  |  avg time  |  max time  |%varavg| %total
---------------------------------------------------------------
Pair    | 112.57     | 112.57     | 112.57     |   0.0 | 54.16
Neigh   | 90.926     | 90.926     | 90.926     |   0.0 | 43.75
Comm    | 1.6307     | 1.6307     | 1.6307     |   0.0 |  0.78
Output  | 0.062636   | 0.062636   | 0.062636   |   0.0 |  0.03
Modify  | 2.0819     | 2.0819     | 2.0819     |   0.0 |  1.00
Other   |            | 0.5544     |            |       |  0.27

Nlocal:    19652 ave 19652 max 19652 min
Histogram: 1 0 0 0 0 0 0 0 0 0
Nghost:    16978 ave 16978 max 16978 min
Histogram: 1 0 0 0 0 0 0 0 0 0
Neighs:    1.25125e+06 ave 1.25125e+06 max 1.25125e+06 min
Histogram: 1 0 0 0 0 0 0 0 0 0

Total # of neighbors = 1251251
Ave neighs/atom = 63.6704
Neighbor list builds = 1505
Dangerous builds not checked
Setting up Verlet run ...
  Unit style    : metal
  Current step  : 86000
  Time step     : 0.001
Per MPI rank memory allocation (min/avg/max) = 18.21 | 18.21 | 18.21 Mbytes
Step Temp Press TotEng PotEng Enthalpy 
   86000    1303.5888   -51.126836   -56655.094   -59966.328   -56667.724 
   86495    1265.6402    388.90713   -56833.104   -60047.946   -56737.412 
Loop time of 66.9101 on 1 procs for 495 steps with 19652 atoms

Performance: 0.639 ns/day, 37.548 hours/ns, 7.398 timesteps/s
99.8% CPU use with 1 MPI tasks x no OpenMP threads

MPI task timing breakdown:
Section |  min time  |  avg time  |  max time  |%varavg| %total
---------------------------------------------------------------
Pair    | 36.264     | 36.264     | 36.264     |   0.0 | 54.20
Neigh   | 29.281     | 29.281     | 29.281     |   0.0 | 43.76
Comm    | 0.51484    | 0.51484    | 0.51484    |   0.0 |  0.77
Output  | 0.00022602 | 0.00022602 | 0.00022602 |   0.0 |  0.00
Modify  | 0.66896    | 0.66896    | 0.66896    |   0.0 |  1.00
Other   |            | 0.1807     |            |       |  0.27

Nlocal:    19652 ave 19652 max 19652 min
Histogram: 1 0 0 0 0 0 0 0 0 0
Nghost:    17067 ave 17067 max 17067 min
Histogram: 1 0 0 0 0 0 0 0 0 0
Neighs:    1.25664e+06 ave 1.25664e+06 max 1.25664e+06 min
Histogram: 1 0 0 0 0 0 0 0 0 0

Total # of neighbors = 1256641
Ave neighs/atom = 63.9447
Neighbor list builds = 495
Dangerous builds not checked
Setting up Verlet run ...
  Unit style    : metal
  Current step  : 86495
  Time step     : 0.001
Per MPI rank memory allocation (min/avg/max) = 18.21 | 18.21 | 18.21 Mbytes
Step Temp Press TotEng PotEng Enthalpy 
   86495    1265.6402    388.90713   -56833.104   -60047.946   -56737.412 
   88000    1252.2305   -1138.2046   -56917.129   -60097.909   -57197.506 
Loop time of 191.53 on 1 procs for 1505 steps with 19652 atoms

Performance: 0.679 ns/day, 35.351 hours/ns, 7.858 timesteps/s
99.8% CPU use with 1 MPI tasks x no OpenMP threads

MPI task timing breakdown:
Section |  min time  |  avg time  |  max time  |%varavg| %total
---------------------------------------------------------------
Pair    | 102.97     | 102.97     | 102.97     |   0.0 | 53.76
Neigh   | 84.595     | 84.595     | 84.595     |   0.0 | 44.17
Comm    | 1.4741     | 1.4741     | 1.4741     |   0.0 |  0.77
Output  | 0.069535   | 0.069535   | 0.069535   |   0.0 |  0.04
Modify  | 1.8966     | 1.8966     | 1.8966     |   0.0 |  0.99
Other   |            | 0.5195     |            |       |  0.27

Nlocal:    19652 ave 19652 max 19652 min
Histogram: 1 0 0 0 0 0 0 0 0 0
Nghost:    17062 ave 17062 max 17062 min
Histogram: 1 0 0 0 0 0 0 0 0 0
Neighs:    1.2557e+06 ave 1.2557e+06 max 1.2557e+06 min
Histogram: 1 0 0 0 0 0 0 0 0 0

Total # of neighbors = 1255695
Ave neighs/atom = 63.8965
Neighbor list builds = 1505
Dangerous builds not checked
Setting up Verlet run ...
  Unit style    : metal
  Current step  : 88000
  Time step     : 0.001
Per MPI rank memory allocation (min/avg/max) = 18.21 | 18.21 | 18.21 Mbytes
Step Temp Press TotEng PotEng Enthalpy 
   88000    1252.2305   -1138.2046   -56917.129   -60097.909   -57197.506 
   88495    1217.1514   -498.50272   -57119.018   -60210.693   -57241.181 
Loop time of 58.7149 on 1 procs for 495 steps with 19652 atoms

Performance: 0.728 ns/day, 32.949 hours/ns, 8.431 timesteps/s
100.0% CPU use with 1 MPI tasks x no OpenMP threads

MPI task timing breakdown:
Section |  min time  |  avg time  |  max time  |%varavg| %total
---------------------------------------------------------------
Pair    | 31.089     | 31.089     | 31.089     |   0.0 | 52.95
Neigh   | 26.406     | 26.406     | 26.406     |   0.0 | 44.97
Comm    | 0.46222    | 0.46222    | 0.46222    |   0.0 |  0.79
Output  | 0.00021291 | 0.00021291 | 0.00021291 |   0.0 |  0.00
Modify  | 0.59521    | 0.59521    | 0.59521    |   0.0 |  1.01
Other   |            | 0.1624     |            |       |  0.28

Nlocal:    19652 ave 19652 max 19652 min
Histogram: 1 0 0 0 0 0 0 0 0 0
Nghost:    17108 ave 17108 max 17108 min
Histogram: 1 0 0 0 0 0 0 0 0 0
Neighs:    1.26162e+06 ave 1.26162e+06 max 1.26162e+06 min
Histogram: 1 0 0 0 0 0 0 0 0 0

Total # of neighbors = 1261615
Ave neighs/atom = 64.1978
Neighbor list builds = 495
Dangerous builds not checked
Setting up Verlet run ...
  Unit style    : metal
  Current step  : 88495
  Time step     : 0.001
Per MPI rank memory allocation (min/avg/max) = 18.21 | 18.21 | 18.21 Mbytes
Step Temp Press TotEng PotEng Enthalpy 
   88495    1217.1514   -498.50272   -57119.018   -60210.693   -57241.181 
   90000    1204.9759    1144.4333   -57203.992    -60264.74   -56924.881 
Loop time of 188.798 on 1 procs for 1505 steps with 19652 atoms

Performance: 0.689 ns/day, 34.846 hours/ns, 7.971 timesteps/s
99.6% CPU use with 1 MPI tasks x no OpenMP threads

MPI task timing breakdown:
Section |  min time  |  avg time  |  max time  |%varavg| %total
---------------------------------------------------------------
Pair    | 101.33     | 101.33     | 101.33     |   0.0 | 53.67
Neigh   | 83.627     | 83.627     | 83.627     |   0.0 | 44.29
Comm    | 1.4354     | 1.4354     | 1.4354     |   0.0 |  0.76
Output  | 0.05251    | 0.05251    | 0.05251    |   0.0 |  0.03
Modify  | 1.8408     | 1.8408     | 1.8408     |   0.0 |  0.98
Other   |            | 0.5082     |            |       |  0.27

Nlocal:    19652 ave 19652 max 19652 min
Histogram: 1 0 0 0 0 0 0 0 0 0
Nghost:    17167 ave 17167 max 17167 min
Histogram: 1 0 0 0 0 0 0 0 0 0
Neighs:    1.26791e+06 ave 1.26791e+06 max 1.26791e+06 min
Histogram: 1 0 0 0 0 0 0 0 0 0

Total # of neighbors = 1267906
Ave neighs/atom = 64.5179
Neighbor list builds = 1505
Dangerous builds not checked
Setting up Verlet run ...
  Unit style    : metal
  Current step  : 90000
  Time step     : 0.001
Per MPI rank memory allocation (min/avg/max) = 18.21 | 18.21 | 18.21 Mbytes
Step Temp Press TotEng PotEng Enthalpy 
   90000    1204.9759    1144.4333   -57203.992    -60264.74   -56924.881 
   90495    1173.3184    469.64302   -57403.077   -60383.412   -57288.932 
Loop time of 60.2528 on 1 procs for 495 steps with 19652 atoms

Performance: 0.710 ns/day, 33.812 hours/ns, 8.215 timesteps/s
99.2% CPU use with 1 MPI tasks x no OpenMP threads

MPI task timing breakdown:
Section |  min time  |  avg time  |  max time  |%varavg| %total
---------------------------------------------------------------
Pair    | 32.185     | 32.185     | 32.185     |   0.0 | 53.42
Neigh   | 26.839     | 26.839     | 26.839     |   0.0 | 44.54
Comm    | 0.4662     | 0.4662     | 0.4662     |   0.0 |  0.77
Output  | 0.00017309 | 0.00017309 | 0.00017309 |   0.0 |  0.00
Modify  | 0.59666    | 0.59666    | 0.59666    |   0.0 |  0.99
Other   |            | 0.1657     |            |       |  0.27

Nlocal:    19652 ave 19652 max 19652 min
[...]
Setting up Verlet run ...
  Unit style    : metal
  Current step  : 120000
  Time step     : 0.001
Per MPI rank memory allocation (min/avg/max) = 18.21 | 18.21 | 18.21 Mbytes
Step Temp Press TotEng PotEng Enthalpy 
  120000    443.71942   -1196.4926   -62241.687   -63368.775   -62502.248 
  120495    423.32785   -408.90288   -62386.586   -63461.878   -62475.238 
Loop time of 73.1191 on 1 procs for 495 steps with 19652 atoms

Performance: 0.585 ns/day, 41.032 hours/ns, 6.770 timesteps/s
100.0% CPU use with 1 MPI tasks x no OpenMP threads

MPI task timing breakdown:
Section |  min time  |  avg time  |  max time  |%varavg| %total
---------------------------------------------------------------
Pair    | 39.552     | 39.552     | 39.552     |   0.0 | 54.09
Neigh   | 32.102     | 32.102     | 32.102     |   0.0 | 43.90
Comm    | 0.54895    | 0.54895    | 0.54895    |   0.0 |  0.75
Output  | 0.00021195 | 0.00021195 | 0.00021195 |   0.0 |  0.00
Modify  | 0.7222     | 0.7222     | 0.7222     |   0.0 |  0.99
Other   |            | 0.1937     |            |       |  0.26

Nlocal:    19652 ave 19652 max 19652 min
Histogram: 1 0 0 0 0 0 0 0 0 0
Nghost:    17977 ave 17977 max 17977 min
Histogram: 1 0 0 0 0 0 0 0 0 0
Neighs:    1.43154e+06 ave 1.43154e+06 max 1.43154e+06 min
Histogram: 1 0 0 0 0 0 0 0 0 0

Total # of neighbors = 1431545
Ave neighs/atom = 72.8447
Neighbor list builds = 495
Dangerous builds not checked
Setting up Verlet run ...
  Unit style    : metal
  Current step  : 120495
  Time step     : 0.001
Per MPI rank memory allocation (min/avg/max) = 18.21 | 18.21 | 18.21 Mbytes
Step Temp Press TotEng PotEng Enthalpy 
  120495    423.32785   -408.90288   -62386.586   -63461.878   -62475.238 
  122000    400.77092     -631.106   -62558.455    -63576.45   -62694.741 
Loop time of 227.243 on 1 procs for 1505 steps with 19652 atoms

Performance: 0.572 ns/day, 41.942 hours/ns, 6.623 timesteps/s
99.6% CPU use with 1 MPI tasks x no OpenMP threads

MPI task timing breakdown:
Section |  min time  |  avg time  |  max time  |%varavg| %total
---------------------------------------------------------------
Pair    | 123.1      | 123.1      | 123.1      |   0.0 | 54.17
Neigh   | 99.535     | 99.535     | 99.535     |   0.0 | 43.80
Comm    | 1.6986     | 1.6986     | 1.6986     |   0.0 |  0.75
Output  | 0.10234    | 0.10234    | 0.10234    |   0.0 |  0.05
Modify  | 2.2089     | 2.2089     | 2.2089     |   0.0 |  0.97
Other   |            | 0.595      |            |       |  0.26

Nlocal:    19652 ave 19652 max 19652 min
Histogram: 1 0 0 0 0 0 0 0 0 0
Nghost:    18004 ave 18004 max 18004 min
Histogram: 1 0 0 0 0 0 0 0 0 0
Neighs:    1.43702e+06 ave 1.43702e+06 max 1.43702e+06 min
Histogram: 1 0 0 0 0 0 0 0 0 0

Total # of neighbors = 1437018
Ave neighs/atom = 73.1232
Neighbor list builds = 1505
Dangerous builds not checked
Setting up Verlet run ...
  Unit style    : metal
  Current step  : 122000
  Time step     : 0.001
Per MPI rank memory allocation (min/avg/max) = 18.21 | 18.21 | 18.21 Mbytes
Step Temp Press TotEng PotEng Enthalpy 
  122000    400.77092     -631.106   -62558.455    -63576.45   -62694.741 
  122495    371.89106   -312.68175   -62723.449   -63668.086   -62790.704 
Loop time of 79.266 on 1 procs for 495 steps with 19652 atoms

Performance: 0.540 ns/day, 44.481 hours/ns, 6.245 timesteps/s
99.8% CPU use with 1 MPI tasks x no OpenMP threads

MPI task timing breakdown:
Section |  min time  |  avg time  |  max time  |%varavg| %total
---------------------------------------------------------------
Pair    | 43.212     | 43.212     | 43.212     |   0.0 | 54.52
Neigh   | 34.475     | 34.475     | 34.475     |   0.0 | 43.49
Comm    | 0.5835     | 0.5835     | 0.5835     |   0.0 |  0.74
Output  | 0.00018501 | 0.00018501 | 0.00018501 |   0.0 |  0.00
Modify  | 0.78445    | 0.78445    | 0.78445    |   0.0 |  0.99
Other   |            | 0.211      |            |       |  0.27

Nlocal:    19652 ave 19652 max 19652 min
Histogram: 1 0 0 0 0 0 0 0 0 0
Nghost:    18036 ave 18036 max 18036 min
Histogram: 1 0 0 0 0 0 0 0 0 0
Neighs:    1.44206e+06 ave 1.44206e+06 max 1.44206e+06 min
Histogram: 1 0 0 0 0 0 0 0 0 0

Total # of neighbors = 1442063
Ave neighs/atom = 73.38
Neighbor list builds = 495
Dangerous builds not checked
Setting up Verlet run ...
  Unit style    : metal
  Current step  : 122495
  Time step     : 0.001
Per MPI rank memory allocation (min/avg/max) = 18.21 | 18.21 | 18.21 Mbytes
Step Temp Press TotEng PotEng Enthalpy 
  122495    371.89106   -312.68175   -62723.449   -63668.086   -62790.704 
  124000    348.98286    522.98443   -62905.215   -63791.663   -62793.353 
Loop time of 231.417 on 1 procs for 1505 steps with 19652 atoms

Performance: 0.562 ns/day, 42.713 hours/ns, 6.503 timesteps/s
99.4% CPU use with 1 MPI tasks x no OpenMP threads

MPI task timing breakdown:
Section |  min time  |  avg time  |  max time  |%varavg| %total
---------------------------------------------------------------
Pair    | 125.51     | 125.51     | 125.51     |   0.0 | 54.23
Neigh   | 101.2      | 101.2      | 101.2      |   0.0 | 43.73
Comm    | 1.7228     | 1.7228     | 1.7228     |   0.0 |  0.74
Output  | 0.096384   | 0.096384   | 0.096384   |   0.0 |  0.04
Modify  | 2.289      | 2.289      | 2.289      |   0.0 |  0.99
Other   |            | 0.605      |            |       |  0.26

Nlocal:    19652 ave 19652 max 19652 min
Histogram: 1 0 0 0 0 0 0 0 0 0
Nghost:    18106 ave 18106 max 18106 min
Histogram: 1 0 0 0 0 0 0 0 0 0
Neighs:    1.44963e+06 ave 1.44963e+06 max 1.44963e+06 min
Histogram: 1 0 0 0 0 0 0 0 0 0

Total # of neighbors = 1449626
Ave neighs/atom = 73.7648
Neighbor list builds = 1505
Dangerous builds not checked
Setting up Verlet run ...
  Unit style    : metal
  Current step  : 124000
  Time step     : 0.001
Per MPI rank memory allocation (min/avg/max) = 18.21 | 18.21 | 18.21 Mbytes
Step Temp Press TotEng PotEng Enthalpy 
  124000    348.98286    522.98443   -62905.215   -63791.663   -62793.353 
  124495    327.40678    456.29363   -63046.492   -63878.135   -62949.149 
Loop time of 75.5462 on 1 procs for 495 steps with 19652 atoms

Performance: 0.566 ns/day, 42.394 hours/ns, 6.552 timesteps/s
99.8% CPU use with 1 MPI tasks x no OpenMP threads

MPI task timing breakdown:
Section |  min time  |  avg time  |  max time  |%varavg| %total
---------------------------------------------------------------
Pair    | 41.064     | 41.064     | 41.064     |   0.0 | 54.36
Neigh   | 32.958     | 32.958     | 32.958     |   0.0 | 43.63
Comm    | 0.56567    | 0.56567    | 0.56567    |   0.0 |  0.75
Output  | 0.00021696 | 0.00021696 | 0.00021696 |   0.0 |  0.00
Modify  | 0.7555     | 0.7555     | 0.7555     |   0.0 |  1.00
Other   |            | 0.2027     |            |       |  0.27

Nlocal:    19652 ave 19652 max 19652 min
Histogram: 1 0 0 0 0 0 0 0 0 0
Nghost:    18121 ave 18121 max 18121 min
Histogram: 1 0 0 0 0 0 0 0 0 0
Neighs:    1.45328e+06 ave 1.45328e+06 max 1.45328e+06 min
Histogram: 1 0 0 0 0 0 0 0 0 0

Total # of neighbors = 1453282
Ave neighs/atom = 73.9508
Neighbor list builds = 495
Dangerous builds not checked
Setting up Verlet run ...
  Unit style    : metal
  Current step  : 124495
  Time step     : 0.001
Per MPI rank memory allocation (min/avg/max) = 18.21 | 18.21 | 18.21 Mbytes
Step Temp Press TotEng PotEng Enthalpy 
  124495    327.40678    456.29363   -63046.492   -63878.135   -62949.149 
  126000    302.57939    45.033107   -63204.699   -63973.279   -63195.118 
Loop time of 235.109 on 1 procs for 1505 steps with 19652 atoms

Performance: 0.553 ns/day, 43.394 hours/ns, 6.401 timesteps/s
99.8% CPU use with 1 MPI tasks x no OpenMP threads

MPI task timing breakdown:
Section |  min time  |  avg time  |  max time  |%varavg| %total
---------------------------------------------------------------
Pair    | 128.3      | 128.3      | 128.3      |   0.0 | 54.57
Neigh   | 101.98     | 101.98     | 101.98     |   0.0 | 43.38
Comm    | 1.7623     | 1.7623     | 1.7623     |   0.0 |  0.75
Output  | 0.11713    | 0.11713    | 0.11713    |   0.0 |  0.05
Modify  | 2.3326     | 2.3326     | 2.3326     |   0.0 |  0.99
Other   |            | 0.6194     |            |       |  0.26

Nlocal:    19652 ave 19652 max 19652 min
Histogram: 1 0 0 0 0 0 0 0 0 0
Nghost:    18103 ave 18103 max 18103 min
Histogram: 1 0 0 0 0 0 0 0 0 0
Neighs:    1.45686e+06 ave 1.45686e+06 max 1.45686e+06 min
Histogram: 1 0 0 0 0 0 0 0 0 0

Total # of neighbors = 1456865
Ave neighs/atom = 74.1332
Neighbor list builds = 1505
Dangerous builds not checked
Setting up Verlet run ...
  Unit style    : metal
  Current step  : 126000
  Time step     : 0.001
Per MPI rank memory allocation (min/avg/max) = 18.21 | 18.21 | 18.21 Mbytes
Step Temp Press TotEng PotEng Enthalpy 
  126000    302.57939    45.033107   -63204.699   -63973.279   -63195.118 
  126495    275.01417   -17.647856   -63352.918   -64051.479   -63356.663 
Loop time of 76.4734 on 1 procs for 495 steps with 19652 atoms

Performance: 0.559 ns/day, 42.914 hours/ns, 6.473 timesteps/s
97.8% CPU use with 1 MPI tasks x no OpenMP threads

MPI task timing breakdown:
Section |  min time  |  avg time  |  max time  |%varavg| %total
---------------------------------------------------------------
Pair    | 41.961     | 41.961     | 41.961     |   0.0 | 54.87
Neigh   | 32.985     | 32.985     | 32.985     |   0.0 | 43.13
Comm    | 0.56773    | 0.56773    | 0.56773    |   0.0 |  0.74
Output  | 0.00018907 | 0.00018907 | 0.00018907 |   0.0 |  0.00
Modify  | 0.75911    | 0.75911    | 0.75911    |   0.0 |  0.99
Other   |            | 0.2005     |            |       |  0.26

Nlocal:    19652 ave 19652 max 19652 min
Histogram: 1 0 0 0 0 0 0 0 0 0
Nghost:    18102 ave 18102 max 18102 min
Histogram: 1 0 0 0 0 0 0 0 0 0
Neighs:    1.46081e+06 ave 1.46081e+06 max 1.46081e+06 min
Histogram: 1 0 0 0 0 0 0 0 0 0

Total # of neighbors = 1460809
Ave neighs/atom = 74.3339
Neighbor list builds = 495
Dangerous builds not checked
Setting up Verlet run ...
  Unit style    : metal
  Current step  : 126495
  Time step     : 0.001
Per MPI rank memory allocation (min/avg/max) = 18.21 | 18.21 | 18.21 Mbytes
Step Temp Press TotEng PotEng Enthalpy 
  126495    275.01417   -17.647856   -63352.918   -64051.479   -63356.663 
  128000    248.40319    -22.89157   -63517.115   -64148.081   -63521.957 
Loop time of 214.705 on 1 procs for 1505 steps with 19652 atoms

Performance: 0.606 ns/day, 39.628 hours/ns, 7.010 timesteps/s
99.2% CPU use with 1 MPI tasks x no OpenMP threads

MPI task timing breakdown:
Section |  min time  |  avg time  |  max time  |%varavg| %total
---------------------------------------------------------------
Pair    | 115.9      | 115.9      | 115.9      |   0.0 | 53.98
Neigh   | 94.438     | 94.438     | 94.438     |   0.0 | 43.99
Comm    | 1.6036     | 1.6036     | 1.6036     |   0.0 |  0.75
Output  | 0.10627    | 0.10627    | 0.10627    |   0.0 |  0.05
Modify  | 2.0956     | 2.0956     | 2.0956     |   0.0 |  0.98
Other   |            | 0.5615     |            |       |  0.26

Nlocal:    19652 ave 19652 max 19652 min
Histogram: 1 0 0 0 0 0 0 0 0 0
Nghost:    18149 ave 18149 max 18149 min
Histogram: 1 0 0 0 0 0 0 0 0 0
Neighs:    1.46486e+06 ave 1.46486e+06 max 1.46486e+06 min
Histogram: 1 0 0 0 0 0 0 0 0 0

Total # of neighbors = 1464858
Ave neighs/atom = 74.5399
Neighbor list builds = 1505
Dangerous builds not checked
Setting up Verlet run ...
  Unit style    : metal
  Current step  : 128000
  Time step     : 0.001
Per MPI rank memory allocation (min/avg/max) = 18.21 | 18.21 | 18.21 Mbytes
Step Temp Press TotEng PotEng Enthalpy 
  128000    248.40319    -22.89157   -63517.115   -64148.081   -63521.957 
  128495    224.24119    209.96025   -63647.464   -64217.057   -63603.173 
Loop time of 68.877 on 1 procs for 495 steps with 19652 atoms

Performance: 0.621 ns/day, 38.652 hours/ns, 7.187 timesteps/s
99.6% CPU use with 1 MPI tasks x no OpenMP threads

MPI task timing breakdown:
Section |  min time  |  avg time  |  max time  |%varavg| %total
---------------------------------------------------------------
Pair    | 37.289     | 37.289     | 37.289     |   0.0 | 54.14
Neigh   | 30.215     | 30.215     | 30.215     |   0.0 | 43.87
Comm    | 0.51132    | 0.51132    | 0.51132    |   0.0 |  0.74
Output  | 0.00015998 | 0.00015998 | 0.00015998 |   0.0 |  0.00
Modify  | 0.67329    | 0.67329    | 0.67329    |   0.0 |  0.98
Other   |            | 0.1876     |            |       |  0.27

Nlocal:    19652 ave 19652 max 19652 min
Histogram: 1 0 0 0 0 0 0 0 0 0
Nghost:    18156 ave 18156 max 18156 min
Histogram: 1 0 0 0 0 0 0 0 0 0
Neighs:    1.46847e+06 ave 1.46847e+06 max 1.46847e+06 min
Histogram: 1 0 0 0 0 0 0 0 0 0

Total # of neighbors = 1468474
Ave neighs/atom = 74.7239
Neighbor list builds = 495
Dangerous builds not checked
Setting up Verlet run ...
  Unit style    : metal
  Current step  : 128495
  Time step     : 0.001
Per MPI rank memory allocation (min/avg/max) = 18.21 | 18.21 | 18.21 Mbytes
Step Temp Press TotEng PotEng Enthalpy 
  128495    224.24119    209.96025   -63647.464   -64217.057   -63603.173 
  130000    200.56305    236.01149   -63791.718   -64301.166   -63742.072 
Loop time of 240.278 on 1 procs for 1505 steps with 19652 atoms

Performance: 0.541 ns/day, 44.348 hours/ns, 6.264 timesteps/s
95.0% CPU use with 1 MPI tasks x no OpenMP threads

MPI task timing breakdown:
Section |  min time  |  avg time  |  max time  |%varavg| %total
---------------------------------------------------------------
Pair    | 131.18     | 131.18     | 131.18     |   0.0 | 54.60
Neigh   | 104.16     | 104.16     | 104.16     |   0.0 | 43.35
Comm    | 1.8184     | 1.8184     | 1.8184     |   0.0 |  0.76
Output  | 0.069245   | 0.069245   | 0.069245   |   0.0 |  0.03
Modify  | 2.4006     | 2.4006     | 2.4006     |   0.0 |  1.00
Other   |            | 0.6442     |            |       |  0.27

Nlocal:    19652 ave 19652 max 19652 min
Histogram: 1 0 0 0 0 0 0 0 0 0
Nghost:    18145 ave 18145 max 18145 min
Histogram: 1 0 0 0 0 0 0 0 0 0
Neighs:    1.47217e+06 ave 1.47217e+06 max 1.47217e+06 min
Histogram: 1 0 0 0 0 0 0 0 0 0

Total # of neighbors = 1472167
Ave neighs/atom = 74.9118
Neighbor list builds = 1505
Dangerous builds not checked
Setting up Verlet run ...
  Unit style    : metal
  Current step  : 130000
  Time step     : 0.001
Per MPI rank memory allocation (min/avg/max) = 18.21 | 18.21 | 18.21 Mbytes
Step Temp Press TotEng PotEng Enthalpy 
  130000    200.56305    236.01149   -63791.718   -64301.166   -63742.072 
  130495    177.57211    494.75123   -63920.553   -64371.602   -63816.751 
Loop time of 80.9585 on 1 procs for 495 steps with 19652 atoms

Performance: 0.528 ns/day, 45.431 hours/ns, 6.114 timesteps/s
94.8% CPU use with 1 MPI tasks x no OpenMP threads

MPI task timing breakdown:
Section |  min time  |  avg time  |  max time  |%varavg| %total
---------------------------------------------------------------
Pair    | 44.21      | 44.21      | 44.21      |   0.0 | 54.61
Neigh   | 35.127     | 35.127     | 35.127     |   0.0 | 43.39
Comm    | 0.61445    | 0.61445    | 0.61445    |   0.0 |  0.76
Output  | 0.00019383 | 0.00019383 | 0.00019383 |   0.0 |  0.00
Modify  | 0.80181    | 0.80181    | 0.80181    |   0.0 |  0.99
Other   |            | 0.205      |            |       |  0.25

Nlocal:    19652 ave 19652 max 19652 min
Histogram: 1 0 0 0 0 0 0 0 0 0
Nghost:    18228 ave 18228 max 18228 min
Histogram: 1 0 0 0 0 0 0 0 0 0
Neighs:    1.47556e+06 ave 1.47556e+06 max 1.47556e+06 min
Histogram: 1 0 0 0 0 0 0 0 0 0

Total # of neighbors = 1475562
Ave neighs/atom = 75.0846
Neighbor list builds = 495
Dangerous builds not checked
Setting up Verlet run ...
  Unit style    : metal
  Current step  : 130495
  Time step     : 0.001
Per MPI rank memory allocation (min/avg/max) = 18.21 | 18.21 | 18.21 Mbytes
Step Temp Press TotEng PotEng Enthalpy 
  130495    177.57211    494.75123   -63920.553   -64371.602   -63816.751 
  132000    150.70734   -34.236668   -64069.886   -64452.696   -64077.053 
Loop time of 225.546 on 1 procs for 1505 steps with 19652 atoms

Performance: 0.577 ns/day, 41.629 hours/ns, 6.673 timesteps/s
98.7% CPU use with 1 MPI tasks x no OpenMP threads

MPI task timing breakdown:
Section |  min time  |  avg time  |  max time  |%varavg| %total
---------------------------------------------------------------
Pair    | 122.77     | 122.77     | 122.77     |   0.0 | 54.43
Neigh   | 98.185     | 98.185     | 98.185     |   0.0 | 43.53
Comm    | 1.6916     | 1.6916     | 1.6916     |   0.0 |  0.75
Output  | 0.057705   | 0.057705   | 0.057705   |   0.0 |  0.03
Modify  | 2.2356     | 2.2356     | 2.2356     |   0.0 |  0.99
Other   |            | 0.6063     |            |       |  0.27

Nlocal:    19652 ave 19652 max 19652 min
Histogram: 1 0 0 0 0 0 0 0 0 0
Nghost:    18222 ave 18222 max 18222 min
Histogram: 1 0 0 0 0 0 0 0 0 0
Neighs:    1.47855e+06 ave 1.47855e+06 max 1.47855e+06 min
Histogram: 1 0 0 0 0 0 0 0 0 0

Total # of neighbors = 1478548
Ave neighs/atom = 75.2365
Neighbor list builds = 1505
Dangerous builds not checked
Setting up Verlet run ...
  Unit style    : metal
  Current step  : 132000
  Time step     : 0.001
Per MPI rank memory allocation (min/avg/max) = 18.21 | 18.21 | 18.21 Mbytes
Step Temp Press TotEng PotEng Enthalpy 
  132000    150.70734   -34.236668   -64069.886   -64452.696   -64077.053 
  132495     126.4621   -179.65487   -64189.907   -64511.132    -64227.45 
Loop time of 74.1218 on 1 procs for 495 steps with 19652 atoms

Performance: 0.577 ns/day, 41.595 hours/ns, 6.678 timesteps/s
98.2% CPU use with 1 MPI tasks x no OpenMP threads

MPI task timing breakdown:
Section |  min time  |  avg time  |  max time  |%varavg| %total
---------------------------------------------------------------
Pair    | 40.307     | 40.307     | 40.307     |   0.0 | 54.38
Neigh   | 32.274     | 32.274     | 32.274     |   0.0 | 43.54
Comm    | 0.56093    | 0.56093    | 0.56093    |   0.0 |  0.76
Output  | 0.00026393 | 0.00026393 | 0.00026393 |   0.0 |  0.00
Modify  | 0.7767     | 0.7767     | 0.7767     |   0.0 |  1.05
Other   |            | 0.2025     |            |       |  0.27

Nlocal:    19652 ave 19652 max 19652 min
Histogram: 1 0 0 0 0 0 0 0 0 0
Nghost:    18251 ave 18251 max 18251 min
Histogram: 1 0 0 0 0 0 0 0 0 0
Neighs:    1.48126e+06 ave 1.48126e+06 max 1.48126e+06 min
Histogram: 1 0 0 0 0 0 0 0 0 0

Total # of neighbors = 1481257
Ave neighs/atom = 75.3744
Neighbor list builds = 495
Dangerous builds not checked
Setting up Verlet run ...
  Unit style    : metal
  Current step  : 132495
  Time step     : 0.001
Per MPI rank memory allocation (min/avg/max) = 18.21 | 18.21 | 18.21 Mbytes
Step Temp Press TotEng PotEng Enthalpy 
  132495     126.4621   -179.65487   -64189.907   -64511.132    -64227.45 
  134000    99.168834    279.15692   -64342.783   -64594.681   -64284.642 
Loop time of 215.559 on 1 procs for 1505 steps with 19652 atoms

Performance: 0.603 ns/day, 39.786 hours/ns, 6.982 timesteps/s
98.7% CPU use with 1 MPI tasks x no OpenMP threads

MPI task timing breakdown:
Section |  min time  |  avg time  |  max time  |%varavg| %total
---------------------------------------------------------------
Pair    | 116.6      | 116.6      | 116.6      |   0.0 | 54.09
Neigh   | 94.587     | 94.587     | 94.587     |   0.0 | 43.88
Comm    | 1.5792     | 1.5792     | 1.5792     |   0.0 |  0.73
Output  | 0.10421    | 0.10421    | 0.10421    |   0.0 |  0.05
Modify  | 2.1189     | 2.1189     | 2.1189     |   0.0 |  0.98
Other   |            | 0.5725     |            |       |  0.27

Nlocal:    19652 ave 19652 max 19652 min
Histogram: 1 0 0 0 0 0 0 0 0 0
Nghost:    18258 ave 18258 max 18258 min
Histogram: 1 0 0 0 0 0 0 0 0 0
Neighs:    1.48533e+06 ave 1.48533e+06 max 1.48533e+06 min
Histogram: 1 0 0 0 0 0 0 0 0 0

Total # of neighbors = 1485327
Ave neighs/atom = 75.5815
Neighbor list builds = 1505
Dangerous builds not checked
Total wall time: 5:17:57
