LAMMPS (12 Dec 2018)
Lattice spacing in x,y,z = 4 4 4
Created orthogonal box = (0 0 0) to (68 68 68)
  1 by 1 by 1 MPI processor grid
Created 19652 atoms
  Time spent = 0.0039022 secs
Setting atom values ...
  206 settings made for type/fraction
Neighbor list info ...
  update every 1 steps, delay 0 steps, check no
  max neighbors/atom: 2000, page size: 100000
  master list distance cutoff = 8.5
  ghost atom cutoff = 8.5
  binsize = 4.25, bins = 16 16 16
  1 neighbor lists, perpetual/occasional/extra = 1 0 0
  (1) pair eam/alloy, perpetual
      attributes: half, newton on
      pair build: half/bin/atomonly/newton
      stencil: half/bin/3d/newton
      bin: standard
Setting up Verlet run ...
  Unit style    : metal
  Current step  : 0
  Time step     : 0.001
Per MPI rank memory allocation (min/avg/max) = 18.19 | 18.19 | 18.19 Mbytes
Step Temp Press TotEng PotEng Enthalpy 
       0          300    639595.78   -102542.49   -103304.52    22980.119 
    1000    191.22446    582337.53   -102542.43   -103028.15    11743.081 
Loop time of 157.114 on 1 procs for 1000 steps with 19652 atoms

Performance: 0.550 ns/day, 43.643 hours/ns, 6.365 timesteps/s
99.7% CPU use with 1 MPI tasks x no OpenMP threads

MPI task timing breakdown:
Section |  min time  |  avg time  |  max time  |%varavg| %total
---------------------------------------------------------------
Pair    | 89.182     | 89.182     | 89.182     |   0.0 | 56.76
Neigh   | 65.98      | 65.98      | 65.98      |   0.0 | 41.99
Comm    | 1.1631     | 1.1631     | 1.1631     |   0.0 |  0.74
Output  | 0.00018597 | 0.00018597 | 0.00018597 |   0.0 |  0.00
Modify  | 0.40751    | 0.40751    | 0.40751    |   0.0 |  0.26
Other   |            | 0.3816     |            |       |  0.24

Nlocal:    19652 ave 19652 max 19652 min
Histogram: 1 0 0 0 0 0 0 0 0 0
Nghost:    19908 ave 19908 max 19908 min
Histogram: 1 0 0 0 0 0 0 0 0 0
Neighs:    1.5631e+06 ave 1.5631e+06 max 1.5631e+06 min
Histogram: 1 0 0 0 0 0 0 0 0 0

Total # of neighbors = 1563095
Ave neighs/atom = 79.5387
Neighbor list builds = 1000
Dangerous builds not checked
Setting up Verlet run ...
  Unit style    : metal
  Current step  : 1000
  Time step     : 0.001
Per MPI rank memory allocation (min/avg/max) = 18.19 | 18.19 | 18.19 Mbytes
Step Temp Press TotEng PotEng Enthalpy 
    1000    191.22446    582337.53   -102542.43   -103028.15    11743.081 
    2000    302.38015   0.86182564   -121847.04   -122615.11   -121846.79 
Loop time of 129.952 on 1 procs for 1000 steps with 19652 atoms

Performance: 0.665 ns/day, 36.098 hours/ns, 7.695 timesteps/s
99.0% CPU use with 1 MPI tasks x no OpenMP threads

MPI task timing breakdown:
Section |  min time  |  avg time  |  max time  |%varavg| %total
---------------------------------------------------------------
Pair    | 69.448     | 69.448     | 69.448     |   0.0 | 53.44
Neigh   | 57.555     | 57.555     | 57.555     |   0.0 | 44.29
Comm    | 1.0609     | 1.0609     | 1.0609     |   0.0 |  0.82
Output  | 0.00016093 | 0.00016093 | 0.00016093 |   0.0 |  0.00
Modify  | 1.4951     | 1.4951     | 1.4951     |   0.0 |  1.15
Other   |            | 0.3929     |            |       |  0.30

Nlocal:    19652 ave 19652 max 19652 min
Histogram: 1 0 0 0 0 0 0 0 0 0
Nghost:    14812 ave 14812 max 14812 min
Histogram: 1 0 0 0 0 0 0 0 0 0
Neighs:    1.09687e+06 ave 1.09687e+06 max 1.09687e+06 min
Histogram: 1 0 0 0 0 0 0 0 0 0

Total # of neighbors = 1096867
Ave neighs/atom = 55.8145
Neighbor list builds = 1000
Dangerous builds not checked
Setting up Verlet run ...
  Unit style    : metal
  Current step  : 2000
  Time step     : 0.001
Per MPI rank memory allocation (min/avg/max) = 18.19 | 18.19 | 18.19 Mbytes
Step Temp Press TotEng PotEng Enthalpy 
    2000    302.38015   0.86182564   -121847.04   -122615.11   -121846.79 
    5000    1101.4509    738.56963   -117374.07   -120171.85   -117160.76 
   10000    2458.4208   -1640.7218   -106438.95   -112683.56   -106939.61 
Loop time of 981.002 on 1 procs for 8000 steps with 19652 atoms

Performance: 0.705 ns/day, 34.063 hours/ns, 8.155 timesteps/s
99.1% CPU use with 1 MPI tasks x no OpenMP threads

MPI task timing breakdown:
Section |  min time  |  avg time  |  max time  |%varavg| %total
---------------------------------------------------------------
Pair    | 526.67     | 526.67     | 526.67     |   0.0 | 53.69
Neigh   | 430.53     | 430.53     | 430.53     |   0.0 | 43.89
Comm    | 8.4277     | 8.4277     | 8.4277     |   0.0 |  0.86
Output  | 0.42457    | 0.42457    | 0.42457    |   0.0 |  0.04
Modify  | 11.739     | 11.739     | 11.739     |   0.0 |  1.20
Other   |            | 3.21       |            |       |  0.33

Nlocal:    19652 ave 19652 max 19652 min
Histogram: 1 0 0 0 0 0 0 0 0 0
Nghost:    15651 ave 15651 max 15651 min
Histogram: 1 0 0 0 0 0 0 0 0 0
Neighs:    1.00391e+06 ave 1.00391e+06 max 1.00391e+06 min
Histogram: 1 0 0 0 0 0 0 0 0 0

Total # of neighbors = 1003912
Ave neighs/atom = 51.0845
Neighbor list builds = 8000
Dangerous builds not checked
Setting up Verlet run ...
  Unit style    : metal
  Current step  : 10000
  Time step     : 0.001
Per MPI rank memory allocation (min/avg/max) = 18.19 | 18.19 | 18.19 Mbytes
Step Temp Press TotEng PotEng Enthalpy 
   10000    2458.4208   -1640.7218   -106438.95   -112683.56   -106939.61 
   15000    2449.8828    997.76384   -106407.86   -112630.79   -106104.36 
   20000    2443.2111   -1032.9662   -106407.73   -112613.71   -106722.74 
   25000    2453.4399     1516.801   -106296.31   -112528.27   -105835.06 
   30000    2443.2183     1458.838    -106398.6   -112604.59    -105955.4 
   35000    2429.8561   -184.70369   -106407.02   -112579.08   -106463.31 
   40000    2457.3205    72.371531   -106370.23   -112612.04   -106348.17 
Loop time of 3886.79 on 1 procs for 30000 steps with 19652 atoms

Performance: 0.667 ns/day, 35.989 hours/ns, 7.718 timesteps/s
99.1% CPU use with 1 MPI tasks x no OpenMP threads

MPI task timing breakdown:
Section |  min time  |  avg time  |  max time  |%varavg| %total
---------------------------------------------------------------
Pair    | 2043.5     | 2043.5     | 2043.5     |   0.0 | 52.57
Neigh   | 1753.2     | 1753.2     | 1753.2     |   0.0 | 45.11
Comm    | 32.305     | 32.305     | 32.305     |   0.0 |  0.83
Output  | 0.86675    | 0.86675    | 0.86675    |   0.0 |  0.02
Modify  | 45.288     | 45.288     | 45.288     |   0.0 |  1.17
Other   |            | 11.66      |            |       |  0.30

Nlocal:    19652 ave 19652 max 19652 min
Histogram: 1 0 0 0 0 0 0 0 0 0
Nghost:    15654 ave 15654 max 15654 min
Histogram: 1 0 0 0 0 0 0 0 0 0
Neighs:    1.00635e+06 ave 1.00635e+06 max 1.00635e+06 min
Histogram: 1 0 0 0 0 0 0 0 0 0

Total # of neighbors = 1006350
Ave neighs/atom = 51.2085
Neighbor list builds = 30000
Dangerous builds not checked
Setting up Verlet run ...
  Unit style    : metal
  Current step  : 40000
  Time step     : 0.001
Per MPI rank memory allocation (min/avg/max) = 18.19 | 18.19 | 18.19 Mbytes
Step Temp Press TotEng PotEng Enthalpy 
   40000    2457.3205    72.371531   -106370.23   -112612.04   -106348.17 
   40495     2411.196    409.68699   -106602.18   -112726.84   -106477.58 
Loop time of 57.5369 on 1 procs for 495 steps with 19652 atoms

Performance: 0.743 ns/day, 32.288 hours/ns, 8.603 timesteps/s
100.0% CPU use with 1 MPI tasks x no OpenMP threads

MPI task timing breakdown:
Section |  min time  |  avg time  |  max time  |%varavg| %total
---------------------------------------------------------------
Pair    | 30.237     | 30.237     | 30.237     |   0.0 | 52.55
Neigh   | 25.949     | 25.949     | 25.949     |   0.0 | 45.10
Comm    | 0.49052    | 0.49052    | 0.49052    |   0.0 |  0.85
Output  | 0.00016809 | 0.00016809 | 0.00016809 |   0.0 |  0.00
Modify  | 0.67211    | 0.67211    | 0.67211    |   0.0 |  1.17
Other   |            | 0.1883     |            |       |  0.33

Nlocal:    19652 ave 19652 max 19652 min
Histogram: 1 0 0 0 0 0 0 0 0 0
Nghost:    15634 ave 15634 max 15634 min
Histogram: 1 0 0 0 0 0 0 0 0 0
Neighs:    1.00835e+06 ave 1.00835e+06 max 1.00835e+06 min
Histogram: 1 0 0 0 0 0 0 0 0 0

Total # of neighbors = 1008349
Ave neighs/atom = 51.3102
Neighbor list builds = 495
Dangerous builds not checked
Setting up Verlet run ...
  Unit style    : metal
  Current step  : 40495
  Time step     : 0.001
Per MPI rank memory allocation (min/avg/max) = 18.19 | 18.19 | 18.19 Mbytes
Step Temp Press TotEng PotEng Enthalpy 
   40495     2411.196    409.68699   -106602.18   -112726.84   -106477.58 
   45000    2402.6278     393.6896   -106660.56   -112763.45   -106540.88 
Loop time of 579.175 on 1 procs for 4505 steps with 19652 atoms

Performance: 0.672 ns/day, 35.712 hours/ns, 7.778 timesteps/s
99.0% CPU use with 1 MPI tasks x no OpenMP threads

MPI task timing breakdown:
Section |  min time  |  avg time  |  max time  |%varavg| %total
---------------------------------------------------------------
Pair    | 307.63     | 307.63     | 307.63     |   0.0 | 53.11
Neigh   | 258.15     | 258.15     | 258.15     |   0.0 | 44.57
Comm    | 4.9359     | 4.9359     | 4.9359     |   0.0 |  0.85
Output  | 0.086838   | 0.086838   | 0.086838   |   0.0 |  0.01
Modify  | 6.5343     | 6.5343     | 6.5343     |   0.0 |  1.13
Other   |            | 1.844      |            |       |  0.32

Nlocal:    19652 ave 19652 max 19652 min
Histogram: 1 0 0 0 0 0 0 0 0 0
Nghost:    15761 ave 15761 max 15761 min
Histogram: 1 0 0 0 0 0 0 0 0 0
Neighs:    1.00874e+06 ave 1.00874e+06 max 1.00874e+06 min
Histogram: 1 0 0 0 0 0 0 0 0 0

Total # of neighbors = 1008741
Ave neighs/atom = 51.3302
Neighbor list builds = 4505
Dangerous builds not checked
Setting up Verlet run ...
  Unit style    : metal
  Current step  : 45000
  Time step     : 0.001
Per MPI rank memory allocation (min/avg/max) = 18.19 | 18.19 | 18.19 Mbytes
Step Temp Press TotEng PotEng Enthalpy 
   45000    2402.6278     393.6896   -106660.56   -112763.45   -106540.88 
   45495    2364.1617    90.398468   -106884.11    -112889.3   -106856.66 
Loop time of 59.1177 on 1 procs for 495 steps with 19652 atoms

Performance: 0.723 ns/day, 33.175 hours/ns, 8.373 timesteps/s
99.6% CPU use with 1 MPI tasks x no OpenMP threads

MPI task timing breakdown:
Section |  min time  |  avg time  |  max time  |%varavg| %total
---------------------------------------------------------------
Pair    | 30.826     | 30.826     | 30.826     |   0.0 | 52.14
Neigh   | 26.909     | 26.909     | 26.909     |   0.0 | 45.52
Comm    | 0.5104     | 0.5104     | 0.5104     |   0.0 |  0.86
Output  | 0.00017309 | 0.00017309 | 0.00017309 |   0.0 |  0.00
Modify  | 0.67876    | 0.67876    | 0.67876    |   0.0 |  1.15
Other   |            | 0.1933     |            |       |  0.33

Nlocal:    19652 ave 19652 max 19652 min
Histogram: 1 0 0 0 0 0 0 0 0 0
Nghost:    15687 ave 15687 max 15687 min
Histogram: 1 0 0 0 0 0 0 0 0 0
Neighs:    1.00979e+06 ave 1.00979e+06 max 1.00979e+06 min
Histogram: 1 0 0 0 0 0 0 0 0 0

Total # of neighbors = 1009793
Ave neighs/atom = 51.3837
Neighbor list builds = 495
Dangerous builds not checked
Setting up Verlet run ...
  Unit style    : metal
  Current step  : 45495
  Time step     : 0.001
Per MPI rank memory allocation (min/avg/max) = 18.19 | 18.19 | 18.19 Mbytes
Step Temp Press TotEng PotEng Enthalpy 
   45495    2364.1617    90.398468   -106884.11    -112889.3   -106856.66 
   50000    2348.1954    399.81978   -106910.53   -112875.16   -106789.21 
Loop time of 546.028 on 1 procs for 4505 steps with 19652 atoms

Performance: 0.713 ns/day, 33.668 hours/ns, 8.250 timesteps/s
99.4% CPU use with 1 MPI tasks x no OpenMP threads

MPI task timing breakdown:
Section |  min time  |  avg time  |  max time  |%varavg| %total
---------------------------------------------------------------
Pair    | 285.64     | 285.64     | 285.64     |   0.0 | 52.31
Neigh   | 247.6      | 247.6      | 247.6      |   0.0 | 45.35
Comm    | 4.6754     | 4.6754     | 4.6754     |   0.0 |  0.86
Output  | 0.07894    | 0.07894    | 0.07894    |   0.0 |  0.01
Modify  | 6.2626     | 6.2626     | 6.2626     |   0.0 |  1.15
Other   |            | 1.769      |            |       |  0.32

Nlocal:    19652 ave 19652 max 19652 min
Histogram: 1 0 0 0 0 0 0 0 0 0
Nghost:    15676 ave 15676 max 15676 min
Histogram: 1 0 0 0 0 0 0 0 0 0
Neighs:    1.011e+06 ave 1.011e+06 max 1.011e+06 min
Histogram: 1 0 0 0 0 0 0 0 0 0

Total # of neighbors = 1010995
Ave neighs/atom = 51.4449
Neighbor list builds = 4505
Dangerous builds not checked
Setting up Verlet run ...
  Unit style    : metal
  Current step  : 50000
  Time step     : 0.001
Per MPI rank memory allocation (min/avg/max) = 18.19 | 18.19 | 18.19 Mbytes
Step Temp Press TotEng PotEng Enthalpy 
   50000    2348.1954    399.81978   -106910.53   -112875.16   -106789.21 
   50495    2306.7892    849.64399   -107195.46   -113054.91   -106938.14 
Loop time of 58.4712 on 1 procs for 495 steps with 19652 atoms

Performance: 0.731 ns/day, 32.812 hours/ns, 8.466 timesteps/s
100.0% CPU use with 1 MPI tasks x no OpenMP threads

MPI task timing breakdown:
Section |  min time  |  avg time  |  max time  |%varavg| %total
---------------------------------------------------------------
Pair    | 30.416     | 30.416     | 30.416     |   0.0 | 52.02
Neigh   | 26.663     | 26.663     | 26.663     |   0.0 | 45.60
Comm    | 0.51601    | 0.51601    | 0.51601    |   0.0 |  0.88
Output  | 0.00011897 | 0.00011897 | 0.00011897 |   0.0 |  0.00
Modify  | 0.68351    | 0.68351    | 0.68351    |   0.0 |  1.17
Other   |            | 0.1931     |            |       |  0.33

Nlocal:    19652 ave 19652 max 19652 min
Histogram: 1 0 0 0 0 0 0 0 0 0
Nghost:    15725 ave 15725 max 15725 min
Histogram: 1 0 0 0 0 0 0 0 0 0
Neighs:    1.01295e+06 ave 1.01295e+06 max 1.01295e+06 min
Histogram: 1 0 0 0 0 0 0 0 0 0

Total # of neighbors = 1012952
Ave neighs/atom = 51.5445
Neighbor list builds = 495
Dangerous builds not checked
Setting up Verlet run ...
  Unit style    : metal
  Current step  : 50495
  Time step     : 0.001
Per MPI rank memory allocation (min/avg/max) = 18.19 | 18.19 | 18.19 Mbytes
Step Temp Press TotEng PotEng Enthalpy 
   50495    2306.7892    849.64399   -107195.46   -113054.91   -106938.14 
   55000    2324.5438      502.641   -107237.31   -113141.86   -107085.13 
Loop time of 550.891 on 1 procs for 4505 steps with 19652 atoms

Performance: 0.707 ns/day, 33.968 hours/ns, 8.178 timesteps/s
99.1% CPU use with 1 MPI tasks x no OpenMP threads

MPI task timing breakdown:
Section |  min time  |  avg time  |  max time  |%varavg| %total
---------------------------------------------------------------
Pair    | 287.83     | 287.83     | 287.83     |   0.0 | 52.25
Neigh   | 250.19     | 250.19     | 250.19     |   0.0 | 45.41
Comm    | 4.6621     | 4.6621     | 4.6621     |   0.0 |  0.85
Output  | 0.070271   | 0.070271   | 0.070271   |   0.0 |  0.01
Modify  | 6.3708     | 6.3708     | 6.3708     |   0.0 |  1.16
Other   |            | 1.77       |            |       |  0.32

Nlocal:    19652 ave 19652 max 19652 min
Histogram: 1 0 0 0 0 0 0 0 0 0
Nghost:    15766 ave 15766 max 15766 min
Histogram: 1 0 0 0 0 0 0 0 0 0
Neighs:    1.01374e+06 ave 1.01374e+06 max 1.01374e+06 min
Histogram: 1 0 0 0 0 0 0 0 0 0

Total # of neighbors = 1013736
Ave neighs/atom = 51.5844
Neighbor list builds = 4505
Dangerous builds not checked
Setting up Verlet run ...
  Unit style    : metal
  Current step  : 55000
  Time step     : 0.001
Per MPI rank memory allocation (min/avg/max) = 18.19 | 18.19 | 18.19 Mbytes
Step Temp Press TotEng PotEng Enthalpy 
   55000    2324.5438      502.641   -107237.31   -113141.86   -107085.13 
   55495    2267.5318    427.77218   -107482.09   -113241.83   -107352.73 
Loop time of 60.4348 on 1 procs for 495 steps with 19652 atoms

Performance: 0.708 ns/day, 33.914 hours/ns, 8.191 timesteps/s
99.4% CPU use with 1 MPI tasks x no OpenMP threads

MPI task timing breakdown:
Section |  min time  |  avg time  |  max time  |%varavg| %total
---------------------------------------------------------------
Pair    | 31.518     | 31.518     | 31.518     |   0.0 | 52.15
Neigh   | 27.492     | 27.492     | 27.492     |   0.0 | 45.49
Comm    | 0.52044    | 0.52044    | 0.52044    |   0.0 |  0.86
Output  | 0.00016713 | 0.00016713 | 0.00016713 |   0.0 |  0.00
Modify  | 0.70552    | 0.70552    | 0.70552    |   0.0 |  1.17
Other   |            | 0.1994     |            |       |  0.33

Nlocal:    19652 ave 19652 max 19652 min
Histogram: 1 0 0 0 0 0 0 0 0 0
Nghost:    15729 ave 15729 max 15729 min
Histogram: 1 0 0 0 0 0 0 0 0 0
Neighs:    1.01495e+06 ave 1.01495e+06 max 1.01495e+06 min
Histogram: 1 0 0 0 0 0 0 0 0 0

Total # of neighbors = 1014947
Ave neighs/atom = 51.646
Neighbor list builds = 495
Dangerous builds not checked
Setting up Verlet run ...
  Unit style    : metal
  Current step  : 55495
  Time step     : 0.001
Per MPI rank memory allocation (min/avg/max) = 18.19 | 18.19 | 18.19 Mbytes
Step Temp Press TotEng PotEng Enthalpy 
   55495    2267.5318    427.77218   -107482.09   -113241.83   -107352.73 
   60000    2243.6117    1421.7921   -107622.57   -113321.55   -107193.77 
Loop time of 558.791 on 1 procs for 4505 steps with 19652 atoms

Performance: 0.697 ns/day, 34.455 hours/ns, 8.062 timesteps/s
99.0% CPU use with 1 MPI tasks x no OpenMP threads

MPI task timing breakdown:
Section |  min time  |  avg time  |  max time  |%varavg| %total
---------------------------------------------------------------
Pair    | 290.85     | 290.85     | 290.85     |   0.0 | 52.05
Neigh   | 254.92     | 254.92     | 254.92     |   0.0 | 45.62
Comm    | 4.6691     | 4.6691     | 4.6691     |   0.0 |  0.84
Output  | 0.067269   | 0.067269   | 0.067269   |   0.0 |  0.01
Modify  | 6.5511     | 6.5511     | 6.5511     |   0.0 |  1.17
Other   |            | 1.733      |            |       |  0.31

Nlocal:    19652 ave 19652 max 19652 min
Histogram: 1 0 0 0 0 0 0 0 0 0
Nghost:    15796 ave 15796 max 15796 min
Histogram: 1 0 0 0 0 0 0 0 0 0
Neighs:    1.01757e+06 ave 1.01757e+06 max 1.01757e+06 min
Histogram: 1 0 0 0 0 0 0 0 0 0

Total # of neighbors = 1017567
Ave neighs/atom = 51.7793
Neighbor list builds = 4505
Dangerous builds not checked
Setting up Verlet run ...
  Unit style    : metal
  Current step  : 60000
  Time step     : 0.001
Per MPI rank memory allocation (min/avg/max) = 18.19 | 18.19 | 18.19 Mbytes
Step Temp Press TotEng PotEng Enthalpy 
   60000    2243.6117    1421.7921   -107622.57   -113321.55   -107193.77 
   60495    2212.3761    1679.2826    -107827.6   -113447.24   -107321.66 
Loop time of 57.3909 on 1 procs for 495 steps with 19652 atoms

Performance: 0.745 ns/day, 32.206 hours/ns, 8.625 timesteps/s
99.2% CPU use with 1 MPI tasks x no OpenMP threads

MPI task timing breakdown:
Section |  min time  |  avg time  |  max time  |%varavg| %total
---------------------------------------------------------------
Pair    | 29.546     | 29.546     | 29.546     |   0.0 | 51.48
Neigh   | 26.528     | 26.528     | 26.528     |   0.0 | 46.22
Comm    | 0.47259    | 0.47259    | 0.47259    |   0.0 |  0.82
Output  | 0.00014496 | 0.00014496 | 0.00014496 |   0.0 |  0.00
Modify  | 0.67023    | 0.67023    | 0.67023    |   0.0 |  1.17
Other   |            | 0.1731     |            |       |  0.30

Nlocal:    19652 ave 19652 max 19652 min
Histogram: 1 0 0 0 0 0 0 0 0 0
Nghost:    15739 ave 15739 max 15739 min
Histogram: 1 0 0 0 0 0 0 0 0 0
Neighs:    1.01933e+06 ave 1.01933e+06 max 1.01933e+06 min
Histogram: 1 0 0 0 0 0 0 0 0 0

Total # of neighbors = 1019328
Ave neighs/atom = 51.8689
Neighbor list builds = 495
Dangerous builds not checked
Setting up Verlet run ...
  Unit style    : metal
  Current step  : 60495
  Time step     : 0.001
Per MPI rank memory allocation (min/avg/max) = 18.19 | 18.19 | 18.19 Mbytes
Step Temp Press TotEng PotEng Enthalpy 
   60495    2212.3761    1679.2826    -107827.6   -113447.24   -107321.66 
   65000    2205.6542    835.54422   -107889.23   -113491.79   -107637.47 
Loop time of 563.614 on 1 procs for 4505 steps with 19652 atoms

Performance: 0.691 ns/day, 34.752 hours/ns, 7.993 timesteps/s
99.2% CPU use with 1 MPI tasks x no OpenMP threads

MPI task timing breakdown:
Section |  min time  |  avg time  |  max time  |%varavg| %total
---------------------------------------------------------------
Pair    | 294.47     | 294.47     | 294.47     |   0.0 | 52.25
Neigh   | 255.84     | 255.84     | 255.84     |   0.0 | 45.39
Comm    | 4.8139     | 4.8139     | 4.8139     |   0.0 |  0.85
Output  | 0.083672   | 0.083672   | 0.083672   |   0.0 |  0.01
Modify  | 6.6405     | 6.6405     | 6.6405     |   0.0 |  1.18
Other   |            | 1.772      |            |       |  0.31

Nlocal:    19652 ave 19652 max 19652 min
Histogram: 1 0 0 0 0 0 0 0 0 0
Nghost:    15795 ave 15795 max 15795 min
Histogram: 1 0 0 0 0 0 0 0 0 0
Neighs:    1.01835e+06 ave 1.01835e+06 max 1.01835e+06 min
Histogram: 1 0 0 0 0 0 0 0 0 0

Total # of neighbors = 1018348
Ave neighs/atom = 51.8191
Neighbor list builds = 4505
Dangerous builds not checked
Setting up Verlet run ...
  Unit style    : metal
  Current step  : 65000
  Time step     : 0.001
Per MPI rank memory allocation (min/avg/max) = 18.19 | 18.19 | 18.19 Mbytes
Step Temp Press TotEng PotEng Enthalpy 
   65000    2205.6542    835.54422   -107889.23   -113491.79   -107637.47 
   65495    2167.3003    1699.9651   -108143.11   -113648.25   -107632.12 
Loop time of 59.7949 on 1 procs for 495 steps with 19652 atoms

Performance: 0.715 ns/day, 33.555 hours/ns, 8.278 timesteps/s
99.7% CPU use with 1 MPI tasks x no OpenMP threads

MPI task timing breakdown:
Section |  min time  |  avg time  |  max time  |%varavg| %total
---------------------------------------------------------------
Pair    | 31.186     | 31.186     | 31.186     |   0.0 | 52.16
Neigh   | 27.17      | 27.17      | 27.17      |   0.0 | 45.44
Comm    | 0.51759    | 0.51759    | 0.51759    |   0.0 |  0.87
Output  | 0.00015903 | 0.00015903 | 0.00015903 |   0.0 |  0.00
Modify  | 0.71985    | 0.71985    | 0.71985    |   0.0 |  1.20
Other   |            | 0.2012     |            |       |  0.34

Nlocal:    19652 ave 19652 max 19652 min
Histogram: 1 0 0 0 0 0 0 0 0 0
Nghost:    15749 ave 15749 max 15749 min
Histogram: 1 0 0 0 0 0 0 0 0 0
Neighs:    1.02118e+06 ave 1.02118e+06 max 1.02118e+06 min
Histogram: 1 0 0 0 0 0 0 0 0 0

Total # of neighbors = 1021177
Ave neighs/atom = 51.963
Neighbor list builds = 495
Dangerous builds not checked
Setting up Verlet run ...
  Unit style    : metal
  Current step  : 65495
  Time step     : 0.001
Per MPI rank memory allocation (min/avg/max) = 18.19 | 18.19 | 18.19 Mbytes
Step Temp Press TotEng PotEng Enthalpy 
   65495    2167.3003    1699.9651   -108143.11   -113648.25   -107632.12 
   70000    2160.2552    175.83038   -108168.17   -113655.42   -108115.21 
Loop time of 577.749 on 1 procs for 4505 steps with 19652 atoms

Performance: 0.674 ns/day, 35.624 hours/ns, 7.798 timesteps/s
98.9% CPU use with 1 MPI tasks x no OpenMP threads

MPI task timing breakdown:
Section |  min time  |  avg time  |  max time  |%varavg| %total
---------------------------------------------------------------
Pair    | 301.09     | 301.09     | 301.09     |   0.0 | 52.11
Neigh   | 263.01     | 263.01     | 263.01     |   0.0 | 45.52
Comm    | 4.8961     | 4.8961     | 4.8961     |   0.0 |  0.85
Output  | 0.089258   | 0.089258   | 0.089258   |   0.0 |  0.02
Modify  | 6.8878     | 6.8878     | 6.8878     |   0.0 |  1.19
Other   |            | 1.77       |            |       |  0.31

Nlocal:    19652 ave 19652 max 19652 min
Histogram: 1 0 0 0 0 0 0 0 0 0
Nghost:    15753 ave 15753 max 15753 min
Histogram: 1 0 0 0 0 0 0 0 0 0
Neighs:    1.01918e+06 ave 1.01918e+06 max 1.01918e+06 min
Histogram: 1 0 0 0 0 0 0 0 0 0

Total # of neighbors = 1019179
Ave neighs/atom = 51.8613
Neighbor list builds = 4505
Dangerous builds not checked
Setting up Verlet run ...
  Unit style    : metal
  Current step  : 70000
  Time step     : 0.001
Per MPI rank memory allocation (min/avg/max) = 18.19 | 18.19 | 18.19 Mbytes
Step Temp Press TotEng PotEng Enthalpy 
   70000    2160.2552    175.83038   -108168.17   -113655.42   -108115.21 
   70495    2114.9189    369.57598   -108459.98   -113832.07    -108348.9 
Loop time of 59.9553 on 1 procs for 495 steps with 19652 atoms

Performance: 0.713 ns/day, 33.645 hours/ns, 8.256 timesteps/s
99.9% CPU use with 1 MPI tasks x no OpenMP threads

MPI task timing breakdown:
Section |  min time  |  avg time  |  max time  |%varavg| %total
---------------------------------------------------------------
Pair    | 31.14      | 31.14      | 31.14      |   0.0 | 51.94
Neigh   | 27.386     | 27.386     | 27.386     |   0.0 | 45.68
Comm    | 0.50908    | 0.50908    | 0.50908    |   0.0 |  0.85
Output  | 0.00021005 | 0.00021005 | 0.00021005 |   0.0 |  0.00
Modify  | 0.73301    | 0.73301    | 0.73301    |   0.0 |  1.22
Other   |            | 0.1867     |            |       |  0.31

Nlocal:    19652 ave 19652 max 19652 min
Histogram: 1 0 0 0 0 0 0 0 0 0
Nghost:    15749 ave 15749 max 15749 min
Histogram: 1 0 0 0 0 0 0 0 0 0
Neighs:    1.02095e+06 ave 1.02095e+06 max 1.02095e+06 min
Histogram: 1 0 0 0 0 0 0 0 0 0

Total # of neighbors = 1020950
Ave neighs/atom = 51.9515
Neighbor list builds = 495
Dangerous builds not checked
Setting up Verlet run ...
  Unit style    : metal
  Current step  : 70495
  Time step     : 0.001
Per MPI rank memory allocation (min/avg/max) = 18.19 | 18.19 | 18.19 Mbytes
Step Temp Press TotEng PotEng Enthalpy 
   70495    2114.9189    369.57598   -108459.98   -113832.07    -108348.9 
   75000    2101.8649   -849.34798   -108606.58   -113945.51   -108862.12 
Loop time of 552.345 on 1 procs for 4505 steps with 19652 atoms

Performance: 0.705 ns/day, 34.058 hours/ns, 8.156 timesteps/s
99.0% CPU use with 1 MPI tasks x no OpenMP threads

MPI task timing breakdown:
Section |  min time  |  avg time  |  max time  |%varavg| %total
---------------------------------------------------------------
Pair    | 287.02     | 287.02     | 287.02     |   0.0 | 51.96
Neigh   | 252.33     | 252.33     | 252.33     |   0.0 | 45.68
Comm    | 4.6433     | 4.6433     | 4.6433     |   0.0 |  0.84
Output  | 0.065761   | 0.065761   | 0.065761   |   0.0 |  0.01
Modify  | 6.5424     | 6.5424     | 6.5424     |   0.0 |  1.18
Other   |            | 1.742      |            |       |  0.32

Nlocal:    19652 ave 19652 max 19652 min
Histogram: 1 0 0 0 0 0 0 0 0 0
Nghost:    15763 ave 15763 max 15763 min
Histogram: 1 0 0 0 0 0 0 0 0 0
Neighs:    1.01991e+06 ave 1.01991e+06 max 1.01991e+06 min
Histogram: 1 0 0 0 0 0 0 0 0 0

Total # of neighbors = 1019913
Ave neighs/atom = 51.8987
Neighbor list builds = 4505
Dangerous builds not checked
Setting up Verlet run ...
  Unit style    : metal
  Current step  : 75000
  Time step     : 0.001
Per MPI rank memory allocation (min/avg/max) = 18.19 | 18.19 | 18.19 Mbytes
Step Temp Press TotEng PotEng Enthalpy 
   75000    2101.8649   -849.34798   -108606.58   -113945.51   -108862.12 
   75495    2052.5113   -428.38664   -108783.06   -113996.62   -108911.82 
Loop time of 60.4966 on 1 procs for 495 steps with 19652 atoms

Performance: 0.707 ns/day, 33.949 hours/ns, 8.182 timesteps/s
98.4% CPU use with 1 MPI tasks x no OpenMP threads

MPI task timing breakdown:
Section |  min time  |  avg time  |  max time  |%varavg| %total
---------------------------------------------------------------
Pair    | 31.531     | 31.531     | 31.531     |   0.0 | 52.12
Neigh   | 27.548     | 27.548     | 27.548     |   0.0 | 45.54
Comm    | 0.51225    | 0.51225    | 0.51225    |   0.0 |  0.85
Output  | 0.00017214 | 0.00017214 | 0.00017214 |   0.0 |  0.00
Modify  | 0.70262    | 0.70262    | 0.70262    |   0.0 |  1.16
Other   |            | 0.2031     |            |       |  0.34

Nlocal:    19652 ave 19652 max 19652 min
Histogram: 1 0 0 0 0 0 0 0 0 0
Nghost:    15880 ave 15880 max 15880 min
Histogram: 1 0 0 0 0 0 0 0 0 0
Neighs:    1.021e+06 ave 1.021e+06 max 1.021e+06 min
Histogram: 1 0 0 0 0 0 0 0 0 0

Total # of neighbors = 1021002
Ave neighs/atom = 51.9541
Neighbor list builds = 495
Dangerous builds not checked
Setting up Verlet run ...
  Unit style    : metal
  Current step  : 75495
  Time step     : 0.001
Per MPI rank memory allocation (min/avg/max) = 18.19 | 18.19 | 18.19 Mbytes
Step Temp Press TotEng PotEng Enthalpy 
   75495    2052.5113   -428.38664   -108783.06   -113996.62   -108911.82 
   80000    2028.2274    20.680082   -108973.75   -114125.63   -108967.55 
Loop time of 546.055 on 1 procs for 4505 steps with 19652 atoms

Performance: 0.713 ns/day, 33.670 hours/ns, 8.250 timesteps/s
99.3% CPU use with 1 MPI tasks x no OpenMP threads

MPI task timing breakdown:
Section |  min time  |  avg time  |  max time  |%varavg| %total
---------------------------------------------------------------
Pair    | 285.56     | 285.56     | 285.56     |   0.0 | 52.29
Neigh   | 247.61     | 247.61     | 247.61     |   0.0 | 45.35
Comm    | 4.6887     | 4.6887     | 4.6887     |   0.0 |  0.86
Output  | 0.071686   | 0.071686   | 0.071686   |   0.0 |  0.01
Modify  | 6.3108     | 6.3108     | 6.3108     |   0.0 |  1.16
Other   |            | 1.811      |            |       |  0.33

Nlocal:    19652 ave 19652 max 19652 min
Histogram: 1 0 0 0 0 0 0 0 0 0
Nghost:    15821 ave 15821 max 15821 min
Histogram: 1 0 0 0 0 0 0 0 0 0
Neighs:    1.02434e+06 ave 1.02434e+06 max 1.02434e+06 min
Histogram: 1 0 0 0 0 0 0 0 0 0

Total # of neighbors = 1024339
Ave neighs/atom = 52.1239
Neighbor list builds = 4505
Dangerous builds not checked
Setting up Verlet run ...
  Unit style    : metal
  Current step  : 80000
  Time step     : 0.001
Per MPI rank memory allocation (min/avg/max) = 18.19 | 18.19 | 18.19 Mbytes
Step Temp Press TotEng PotEng Enthalpy 
   80000    2028.2274    20.680082   -108973.75   -114125.63   -108967.55 
   80495     2033.795    564.29894   -109031.93   -114197.95   -108862.76 
Loop time of 60.5846 on 1 procs for 495 steps with 19652 atoms

Performance: 0.706 ns/day, 33.998 hours/ns, 8.170 timesteps/s
98.4% CPU use with 1 MPI tasks x no OpenMP threads

MPI task timing breakdown:
Section |  min time  |  avg time  |  max time  |%varavg| %total
---------------------------------------------------------------
Pair    | 31.668     | 31.668     | 31.668     |   0.0 | 52.27
Neigh   | 27.497     | 27.497     | 27.497     |   0.0 | 45.39
Comm    | 0.51273    | 0.51273    | 0.51273    |   0.0 |  0.85
Output  | 0.00013208 | 0.00013208 | 0.00013208 |   0.0 |  0.00
Modify  | 0.70378    | 0.70378    | 0.70378    |   0.0 |  1.16
Other   |            | 0.2029     |            |       |  0.33

Nlocal:    19652 ave 19652 max 19652 min
Histogram: 1 0 0 0 0 0 0 0 0 0
Nghost:    15718 ave 15718 max 15718 min
Histogram: 1 0 0 0 0 0 0 0 0 0
Neighs:    1.02499e+06 ave 1.02499e+06 max 1.02499e+06 min
Histogram: 1 0 0 0 0 0 0 0 0 0

Total # of neighbors = 1024989
Ave neighs/atom = 52.157
Neighbor list builds = 495
Dangerous builds not checked
Setting up Verlet run ...
  Unit style    : metal
  Current step  : 80495
  Time step     : 0.001
Per MPI rank memory allocation (min/avg/max) = 18.19 | 18.19 | 18.19 Mbytes
Step Temp Press TotEng PotEng Enthalpy 
   80495     2033.795    564.29894   -109031.93   -114197.95   -108862.76 
   85000    2005.6428   -368.82484   -109241.22   -114335.74   -109351.66 
Loop time of 592.479 on 1 procs for 4505 steps with 19652 atoms

Performance: 0.657 ns/day, 36.532 hours/ns, 7.604 timesteps/s
98.0% CPU use with 1 MPI tasks x no OpenMP threads

MPI task timing breakdown:
Section |  min time  |  avg time  |  max time  |%varavg| %total
---------------------------------------------------------------
Pair    | 310.04     | 310.04     | 310.04     |   0.0 | 52.33
Neigh   | 268.4      | 268.4      | 268.4      |   0.0 | 45.30
Comm    | 4.9808     | 4.9808     | 4.9808     |   0.0 |  0.84
Output  | 0.082208   | 0.082208   | 0.082208   |   0.0 |  0.01
Modify  | 7.1264     | 7.1264     | 7.1264     |   0.0 |  1.20
Other   |            | 1.848      |            |       |  0.31

Nlocal:    19652 ave 19652 max 19652 min
Histogram: 1 0 0 0 0 0 0 0 0 0
Nghost:    15822 ave 15822 max 15822 min
Histogram: 1 0 0 0 0 0 0 0 0 0
Neighs:    1.02501e+06 ave 1.02501e+06 max 1.02501e+06 min
Histogram: 1 0 0 0 0 0 0 0 0 0

Total # of neighbors = 1025013
Ave neighs/atom = 52.1582
Neighbor list builds = 4505
Dangerous builds not checked
Setting up Verlet run ...
  Unit style    : metal
  Current step  : 85000
  Time step     : 0.001
Per MPI rank memory allocation (min/avg/max) = 18.19 | 18.19 | 18.19 Mbytes
Step Temp Press TotEng PotEng Enthalpy 
   85000    2005.6428   -368.82484   -109241.22   -114335.74   -109351.66 
   85495    1965.0348    579.05889   -109406.96   -114398.33    -109233.8 
Loop time of 60.3969 on 1 procs for 495 steps with 19652 atoms

Performance: 0.708 ns/day, 33.893 hours/ns, 8.196 timesteps/s
99.7% CPU use with 1 MPI tasks x no OpenMP threads

MPI task timing breakdown:
Section |  min time  |  avg time  |  max time  |%varavg| %total
---------------------------------------------------------------
Pair    | 31.53      | 31.53      | 31.53      |   0.0 | 52.20
Neigh   | 27.492     | 27.492     | 27.492     |   0.0 | 45.52
Comm    | 0.49696    | 0.49696    | 0.49696    |   0.0 |  0.82
Output  | 0.00016499 | 0.00016499 | 0.00016499 |   0.0 |  0.00
Modify  | 0.69432    | 0.69432    | 0.69432    |   0.0 |  1.15
Other   |            | 0.1837     |            |       |  0.30

Nlocal:    19652 ave 19652 max 19652 min
Histogram: 1 0 0 0 0 0 0 0 0 0
Nghost:    15785 ave 15785 max 15785 min
Histogram: 1 0 0 0 0 0 0 0 0 0
Neighs:    1.02707e+06 ave 1.02707e+06 max 1.02707e+06 min
Histogram: 1 0 0 0 0 0 0 0 0 0

Total # of neighbors = 1027069
Ave neighs/atom = 52.2628
Neighbor list builds = 495
Dangerous builds not checked
Setting up Verlet run ...
  Unit style    : metal
  Current step  : 85495
  Time step     : 0.001
Per MPI rank memory allocation (min/avg/max) = 18.19 | 18.19 | 18.19 Mbytes
Step Temp Press TotEng PotEng Enthalpy 
   85495    1965.0348    579.05889   -109406.96   -114398.33    -109233.8 
   90000    1925.6655    1796.6875   -109563.31   -114454.68   -109027.87 
Loop time of 553.085 on 1 procs for 4505 steps with 19652 atoms

Performance: 0.704 ns/day, 34.103 hours/ns, 8.145 timesteps/s
99.3% CPU use with 1 MPI tasks x no OpenMP threads

MPI task timing breakdown:
Section |  min time  |  avg time  |  max time  |%varavg| %total
---------------------------------------------------------------
Pair    | 288.94     | 288.94     | 288.94     |   0.0 | 52.24
Neigh   | 251.07     | 251.07     | 251.07     |   0.0 | 45.40
Comm    | 4.6552     | 4.6552     | 4.6552     |   0.0 |  0.84
Output  | 0.14651    | 0.14651    | 0.14651    |   0.0 |  0.03
Modify  | 6.516      | 6.516      | 6.516      |   0.0 |  1.18
Other   |            | 1.757      |            |       |  0.32

Nlocal:    19652 ave 19652 max 19652 min
Histogram: 1 0 0 0 0 0 0 0 0 0
Nghost:    15849 ave 15849 max 15849 min
Histogram: 1 0 0 0 0 0 0 0 0 0
Neighs:    1.0308e+06 ave 1.0308e+06 max 1.0308e+06 min
Histogram: 1 0 0 0 0 0 0 0 0 0

Total # of neighbors = 1030795
Ave neighs/atom = 52.4524
Neighbor list builds = 4505
Dangerous builds not checked
Setting up Verlet run ...
  Unit style    : metal
  Current step  : 90000
  Time step     : 0.001
Per MPI rank memory allocation (min/avg/max) = 18.19 | 18.19 | 18.19 Mbytes
Step Temp Press TotEng PotEng Enthalpy 
   90000    1925.6655    1796.6875   -109563.31   -114454.68   -109027.87 
   90495    1919.5224      1700.86   -109717.46   -114593.22   -109210.79 
Loop time of 63.7689 on 1 procs for 495 steps with 19652 atoms

Performance: 0.671 ns/day, 35.785 hours/ns, 7.762 timesteps/s
98.3% CPU use with 1 MPI tasks x no OpenMP threads

MPI task timing breakdown:
Section |  min time  |  avg time  |  max time  |%varavg| %total
---------------------------------------------------------------
Pair    | 33.401     | 33.401     | 33.401     |   0.0 | 52.38
Neigh   | 28.883     | 28.883     | 28.883     |   0.0 | 45.29
Comm    | 0.53361    | 0.53361    | 0.53361    |   0.0 |  0.84
Output  | 0.00017095 | 0.00017095 | 0.00017095 |   0.0 |  0.00
Modify  | 0.75458    | 0.75458    | 0.75458    |   0.0 |  1.18
Other   |            | 0.1962     |            |       |  0.31

Nlocal:    19652 ave 19652 max 19652 min
Histogram: 1 0 0 0 0 0 0 0 0 0
Nghost:    15866 ave 15866 max 15866 min
Histogram: 1 0 0 0 0 0 0 0 0 0
Neighs:    1.03169e+06 ave 1.03169e+06 max 1.03169e+06 min
Histogram: 1 0 0 0 0 0 0 0 0 0

Total # of neighbors = 1031688
Ave neighs/atom = 52.4979
Neighbor list builds = 495
Dangerous builds not checked
Setting up Verlet run ...
  Unit style    : metal
  Current step  : 90495
  Time step     : 0.001
Per MPI rank memory allocation (min/avg/max) = 18.19 | 18.19 | 18.19 Mbytes
Step Temp Press TotEng PotEng Enthalpy 
   90495    1919.5224      1700.86   -109717.46   -114593.22   -109210.79 
   95000    1892.1935    1485.5502   -109914.06    -114720.4   -109471.68 
Loop time of 571.683 on 1 procs for 4505 steps with 19652 atoms

Performance: 0.681 ns/day, 35.250 hours/ns, 7.880 timesteps/s
99.4% CPU use with 1 MPI tasks x no OpenMP threads

MPI task timing breakdown:
Section |  min time  |  avg time  |  max time  |%varavg| %total
---------------------------------------------------------------
Pair    | 299.33     | 299.33     | 299.33     |   0.0 | 52.36
Neigh   | 259.02     | 259.02     | 259.02     |   0.0 | 45.31
Comm    | 4.7583     | 4.7583     | 4.7583     |   0.0 |  0.83
Output  | 0.098584   | 0.098584   | 0.098584   |   0.0 |  0.02
Modify  | 6.7394     | 6.7394     | 6.7394     |   0.0 |  1.18
Other   |            | 1.743      |            |       |  0.30

Nlocal:    19652 ave 19652 max 19652 min
Histogram: 1 0 0 0 0 0 0 0 0 0
Nghost:    15793 ave 15793 max 15793 min
Histogram: 1 0 0 0 0 0 0 0 0 0
Neighs:    1.03232e+06 ave 1.03232e+06 max 1.03232e+06 min
Histogram: 1 0 0 0 0 0 0 0 0 0

Total # of neighbors = 1032318
Ave neighs/atom = 52.5299
Neighbor list builds = 4505
Dangerous builds not checked
Setting up Verlet run ...
  Unit style    : metal
  Current step  : 95000
  Time step     : 0.001
Per MPI rank memory allocation (min/avg/max) = 18.19 | 18.19 | 18.19 Mbytes
Step Temp Press TotEng PotEng Enthalpy 
   95000    1892.1935    1485.5502   -109914.06    -114720.4   -109471.68 
   95495    1868.0996    1225.7115   -110034.31   -114779.45   -109669.41 
Loop time of 60.4247 on 1 procs for 495 steps with 19652 atoms

Performance: 0.708 ns/day, 33.908 hours/ns, 8.192 timesteps/s
99.9% CPU use with 1 MPI tasks x no OpenMP threads

MPI task timing breakdown:
Section |  min time  |  avg time  |  max time  |%varavg| %total
---------------------------------------------------------------
Pair    | 31.581     | 31.581     | 31.581     |   0.0 | 52.27
Neigh   | 27.428     | 27.428     | 27.428     |   0.0 | 45.39
Comm    | 0.50556    | 0.50556    | 0.50556    |   0.0 |  0.84
Output  | 0.00021791 | 0.00021791 | 0.00021791 |   0.0 |  0.00
Modify  | 0.72324    | 0.72324    | 0.72324    |   0.0 |  1.20
Other   |            | 0.1866     |            |       |  0.31

Nlocal:    19652 ave 19652 max 19652 min
Histogram: 1 0 0 0 0 0 0 0 0 0
Nghost:    15854 ave 15854 max 15854 min
Histogram: 1 0 0 0 0 0 0 0 0 0
Neighs:    1.03248e+06 ave 1.03248e+06 max 1.03248e+06 min
Histogram: 1 0 0 0 0 0 0 0 0 0

Total # of neighbors = 1032481
Ave neighs/atom = 52.5382
Neighbor list builds = 495
Dangerous builds not checked
Setting up Verlet run ...
  Unit style    : metal
  Current step  : 95495
  Time step     : 0.001
Per MPI rank memory allocation (min/avg/max) = 18.19 | 18.19 | 18.19 Mbytes
Step Temp Press TotEng PotEng Enthalpy 
   95495    1868.0996    1225.7115   -110034.31   -114779.45   -109669.41 
  100000    1849.4521    1144.6617   -110126.12   -114823.89    -109785.4 
Loop time of 563.852 on 1 procs for 4505 steps with 19652 atoms

Performance: 0.690 ns/day, 34.767 hours/ns, 7.990 timesteps/s
99.0% CPU use with 1 MPI tasks x no OpenMP threads

MPI task timing breakdown:
Section |  min time  |  avg time  |  max time  |%varavg| %total
---------------------------------------------------------------
Pair    | 293.94     | 293.94     | 293.94     |   0.0 | 52.13
Neigh   | 256.57     | 256.57     | 256.57     |   0.0 | 45.50
Comm    | 4.7041     | 4.7041     | 4.7041     |   0.0 |  0.83
Output  | 0.083765   | 0.083765   | 0.083765   |   0.0 |  0.01
Modify  | 6.7945     | 6.7945     | 6.7945     |   0.0 |  1.21
Other   |            | 1.758      |            |       |  0.31

Nlocal:    19652 ave 19652 max 19652 min
Histogram: 1 0 0 0 0 0 0 0 0 0
Nghost:    15838 ave 15838 max 15838 min
Histogram: 1 0 0 0 0 0 0 0 0 0
Neighs:    1.033e+06 ave 1.033e+06 max 1.033e+06 min
Histogram: 1 0 0 0 0 0 0 0 0 0

Total # of neighbors = 1032998
Ave neighs/atom = 52.5645
Neighbor list builds = 4505
Dangerous builds not checked
Setting up Verlet run ...
  Unit style    : metal
  Current step  : 100000
  Time step     : 0.001
Per MPI rank memory allocation (min/avg/max) = 18.19 | 18.19 | 18.19 Mbytes
Step Temp Press TotEng PotEng Enthalpy 
  100000    1849.4521    1144.6617   -110126.12   -114823.89    -109785.4 
  100495    1827.2462    1140.2856    -110327.4   -114968.77   -109988.45 
Loop time of 60.4551 on 1 procs for 495 steps with 19652 atoms

Performance: 0.707 ns/day, 33.925 hours/ns, 8.188 timesteps/s
99.8% CPU use with 1 MPI tasks x no OpenMP threads

MPI task timing breakdown:
Section |  min time  |  avg time  |  max time  |%varavg| %total
---------------------------------------------------------------
Pair    | 31.408     | 31.408     | 31.408     |   0.0 | 51.95
Neigh   | 27.601     | 27.601     | 27.601     |   0.0 | 45.66
Comm    | 0.51718    | 0.51718    | 0.51718    |   0.0 |  0.86
Output  | 0.00015903 | 0.00015903 | 0.00015903 |   0.0 |  0.00
Modify  | 0.73847    | 0.73847    | 0.73847    |   0.0 |  1.22
Other   |            | 0.1907     |            |       |  0.32

Nlocal:    19652 ave 19652 max 19652 min
Histogram: 1 0 0 0 0 0 0 0 0 0
Nghost:    15878 ave 15878 max 15878 min
Histogram: 1 0 0 0 0 0 0 0 0 0
Neighs:    1.03493e+06 ave 1.03493e+06 max 1.03493e+06 min
Histogram: 1 0 0 0 0 0 0 0 0 0

Total # of neighbors = 1034926
Ave neighs/atom = 52.6626
Neighbor list builds = 495
Dangerous builds not checked
Setting up Verlet run ...
  Unit style    : metal
  Current step  : 100495
  Time step     : 0.001
Per MPI rank memory allocation (min/avg/max) = 18.19 | 18.19 | 18.19 Mbytes
Step Temp Press TotEng PotEng Enthalpy 
  100495    1827.2462    1140.2856    -110327.4   -114968.77   -109988.45 
  105000    1800.4762    495.99992   -110515.01   -115088.39    -110367.5 
Loop time of 572.582 on 1 procs for 4505 steps with 19652 atoms

Performance: 0.680 ns/day, 35.305 hours/ns, 7.868 timesteps/s
99.0% CPU use with 1 MPI tasks x no OpenMP threads

MPI task timing breakdown:
Section |  min time  |  avg time  |  max time  |%varavg| %total
---------------------------------------------------------------
Pair    | 298.76     | 298.76     | 298.76     |   0.0 | 52.18
Neigh   | 260.28     | 260.28     | 260.28     |   0.0 | 45.46
Comm    | 4.7525     | 4.7525     | 4.7525     |   0.0 |  0.83
Output  | 0.22949    | 0.22949    | 0.22949    |   0.0 |  0.04
Modify  | 6.8301     | 6.8301     | 6.8301     |   0.0 |  1.19
Other   |            | 1.738      |            |       |  0.30

Nlocal:    19652 ave 19652 max 19652 min
Histogram: 1 0 0 0 0 0 0 0 0 0
Nghost:    15842 ave 15842 max 15842 min
Histogram: 1 0 0 0 0 0 0 0 0 0
Neighs:    1.03434e+06 ave 1.03434e+06 max 1.03434e+06 min
Histogram: 1 0 0 0 0 0 0 0 0 0

Total # of neighbors = 1034338
Ave neighs/atom = 52.6327
Neighbor list builds = 4505
Dangerous builds not checked
Setting up Verlet run ...
  Unit style    : metal
  Current step  : 105000
  Time step     : 0.001
Per MPI rank memory allocation (min/avg/max) = 18.19 | 18.19 | 18.19 Mbytes
Step Temp Press TotEng PotEng Enthalpy 
  105000    1800.4762    495.99992   -110515.01   -115088.39    -110367.5 
  105495    1770.5765    -39.63937   -110698.31   -115195.74   -110710.09 
Loop time of 60.8597 on 1 procs for 495 steps with 19652 atoms

Performance: 0.703 ns/day, 34.152 hours/ns, 8.133 timesteps/s
99.1% CPU use with 1 MPI tasks x no OpenMP threads

MPI task timing breakdown:
Section |  min time  |  avg time  |  max time  |%varavg| %total
---------------------------------------------------------------
Pair    | 31.697     | 31.697     | 31.697     |   0.0 | 52.08
Neigh   | 27.762     | 27.762     | 27.762     |   0.0 | 45.62
Comm    | 0.49059    | 0.49059    | 0.49059    |   0.0 |  0.81
Output  | 0.0001471  | 0.0001471  | 0.0001471  |   0.0 |  0.00
Modify  | 0.71987    | 0.71987    | 0.71987    |   0.0 |  1.18
Other   |            | 0.1894     |            |       |  0.31

Nlocal:    19652 ave 19652 max 19652 min
Histogram: 1 0 0 0 0 0 0 0 0 0
Nghost:    15794 ave 15794 max 15794 min
Histogram: 1 0 0 0 0 0 0 0 0 0
Neighs:    1.03505e+06 ave 1.03505e+06 max 1.03505e+06 min
Histogram: 1 0 0 0 0 0 0 0 0 0

Total # of neighbors = 1035051
Ave neighs/atom = 52.669
Neighbor list builds = 495
Dangerous builds not checked
Setting up Verlet run ...
  Unit style    : metal
  Current step  : 105495
  Time step     : 0.001
Per MPI rank memory allocation (min/avg/max) = 18.19 | 18.19 | 18.19 Mbytes
Step Temp Press TotEng PotEng Enthalpy 
  105495    1770.5765    -39.63937   -110698.31   -115195.74   -110710.09 
  110000    1730.9045   -2238.1932   -110894.24   -115290.89   -111560.93 
Loop time of 565.874 on 1 procs for 4505 steps with 19652 atoms

Performance: 0.688 ns/day, 34.892 hours/ns, 7.961 timesteps/s
98.8% CPU use with 1 MPI tasks x no OpenMP threads

MPI task timing breakdown:
Section |  min time  |  avg time  |  max time  |%varavg| %total
---------------------------------------------------------------
Pair    | 298.22     | 298.22     | 298.22     |   0.0 | 52.70
Neigh   | 254.43     | 254.43     | 254.43     |   0.0 | 44.96
Comm    | 4.7968     | 4.7968     | 4.7968     |   0.0 |  0.85
Output  | 0.074137   | 0.074137   | 0.074137   |   0.0 |  0.01
Modify  | 6.5547     | 6.5547     | 6.5547     |   0.0 |  1.16
Other   |            | 1.799      |            |       |  0.32

Nlocal:    19652 ave 19652 max 19652 min
Histogram: 1 0 0 0 0 0 0 0 0 0
Nghost:    15806 ave 15806 max 15806 min
Histogram: 1 0 0 0 0 0 0 0 0 0
Neighs:    1.03208e+06 ave 1.03208e+06 max 1.03208e+06 min
Histogram: 1 0 0 0 0 0 0 0 0 0

Total # of neighbors = 1032085
Ave neighs/atom = 52.5181
Neighbor list builds = 4505
Dangerous builds not checked
Setting up Verlet run ...
  Unit style    : metal
  Current step  : 110000
  Time step     : 0.001
Per MPI rank memory allocation (min/avg/max) = 18.19 | 18.19 | 18.19 Mbytes
Step Temp Press TotEng PotEng Enthalpy 
  110000    1730.9045   -2238.1932   -110894.24   -115290.89   -111560.93 
  110495    1732.8277   -1315.6224   -111002.15   -115403.69   -111393.16 
Loop time of 61.007 on 1 procs for 495 steps with 19652 atoms

Performance: 0.701 ns/day, 34.235 hours/ns, 8.114 timesteps/s
99.3% CPU use with 1 MPI tasks x no OpenMP threads

MPI task timing breakdown:
Section |  min time  |  avg time  |  max time  |%varavg| %total
---------------------------------------------------------------
Pair    | 31.85      | 31.85      | 31.85      |   0.0 | 52.21
Neigh   | 27.692     | 27.692     | 27.692     |   0.0 | 45.39
Comm    | 0.53662    | 0.53662    | 0.53662    |   0.0 |  0.88
Output  | 0.00017285 | 0.00017285 | 0.00017285 |   0.0 |  0.00
Modify  | 0.74187    | 0.74187    | 0.74187    |   0.0 |  1.22
Other   |            | 0.1864     |            |       |  0.31

Nlocal:    19652 ave 19652 max 19652 min
Histogram: 1 0 0 0 0 0 0 0 0 0
Nghost:    15788 ave 15788 max 15788 min
Histogram: 1 0 0 0 0 0 0 0 0 0
Neighs:    1.0349e+06 ave 1.0349e+06 max 1.0349e+06 min
Histogram: 1 0 0 0 0 0 0 0 0 0

Total # of neighbors = 1034898
Ave neighs/atom = 52.6612
Neighbor list builds = 495
Dangerous builds not checked
Setting up Verlet run ...
  Unit style    : metal
  Current step  : 110495
  Time step     : 0.001
Per MPI rank memory allocation (min/avg/max) = 18.19 | 18.19 | 18.19 Mbytes
Step Temp Press TotEng PotEng Enthalpy 
  110495    1732.8277   -1315.6224   -111002.15   -115403.69   -111393.16 
  115000    1712.9964    1356.6066   -111151.31   -115502.47      -110750 
Loop time of 534.22 on 1 procs for 4505 steps with 19652 atoms

Performance: 0.729 ns/day, 32.940 hours/ns, 8.433 timesteps/s
98.7% CPU use with 1 MPI tasks x no OpenMP threads

MPI task timing breakdown:
Section |  min time  |  avg time  |  max time  |%varavg| %total
---------------------------------------------------------------
Pair    | 278.11     | 278.11     | 278.11     |   0.0 | 52.06
Neigh   | 243.62     | 243.62     | 243.62     |   0.0 | 45.60
Comm    | 4.4715     | 4.4715     | 4.4715     |   0.0 |  0.84
Output  | 0.079396   | 0.079396   | 0.079396   |   0.0 |  0.01
Modify  | 6.2538     | 6.2538     | 6.2538     |   0.0 |  1.17
Other   |            | 1.689      |            |       |  0.32

Nlocal:    19652 ave 19652 max 19652 min
Histogram: 1 0 0 0 0 0 0 0 0 0
Nghost:    15829 ave 15829 max 15829 min
Histogram: 1 0 0 0 0 0 0 0 0 0
Neighs:    1.04088e+06 ave 1.04088e+06 max 1.04088e+06 min
Histogram: 1 0 0 0 0 0 0 0 0 0

Total # of neighbors = 1040878
Ave neighs/atom = 52.9655
Neighbor list builds = 4505
Dangerous builds not checked
Setting up Verlet run ...
  Unit style    : metal
  Current step  : 115000
  Time step     : 0.001
Per MPI rank memory allocation (min/avg/max) = 18.19 | 18.19 | 18.19 Mbytes
Step Temp Press TotEng PotEng Enthalpy 
  115000    1712.9964    1356.6066   -111151.31   -115502.47      -110750 
  115495    1676.6329    1090.1991    -111340.8    -115599.6   -111018.29 
Loop time of 55.2114 on 1 procs for 495 steps with 19652 atoms

Performance: 0.775 ns/day, 30.983 hours/ns, 8.966 timesteps/s
99.9% CPU use with 1 MPI tasks x no OpenMP threads

MPI task timing breakdown:
Section |  min time  |  avg time  |  max time  |%varavg| %total
---------------------------------------------------------------
Pair    | 28.651     | 28.651     | 28.651     |   0.0 | 51.89
Neigh   | 25.268     | 25.268     | 25.268     |   0.0 | 45.77
Comm    | 0.46653    | 0.46653    | 0.46653    |   0.0 |  0.84
Output  | 0.00015807 | 0.00015807 | 0.00015807 |   0.0 |  0.00
Modify  | 0.64143    | 0.64143    | 0.64143    |   0.0 |  1.16
Other   |            | 0.1843     |            |       |  0.33

Nlocal:    19652 ave 19652 max 19652 min
Histogram: 1 0 0 0 0 0 0 0 0 0
Nghost:    15809 ave 15809 max 15809 min
Histogram: 1 0 0 0 0 0 0 0 0 0
Neighs:    1.04121e+06 ave 1.04121e+06 max 1.04121e+06 min
Histogram: 1 0 0 0 0 0 0 0 0 0

Total # of neighbors = 1041213
Ave neighs/atom = 52.9825
Neighbor list builds = 495
Dangerous builds not checked
Setting up Verlet run ...
  Unit style    : metal
  Current step  : 115495
  Time step     : 0.001
Per MPI rank memory allocation (min/avg/max) = 18.19 | 18.19 | 18.19 Mbytes
Step Temp Press TotEng PotEng Enthalpy 
  115495    1676.6329    1090.1991    -111340.8    -115599.6   -111018.29 
  120000      1656.11    385.49202   -111442.45   -115649.12   -111328.37 
Loop time of 562.238 on 1 procs for 4505 steps with 19652 atoms

Performance: 0.692 ns/day, 34.668 hours/ns, 8.013 timesteps/s
99.3% CPU use with 1 MPI tasks x no OpenMP threads

MPI task timing breakdown:
Section |  min time  |  avg time  |  max time  |%varavg| %total
---------------------------------------------------------------
Pair    | 295.34     | 295.34     | 295.34     |   0.0 | 52.53
Neigh   | 253.83     | 253.83     | 253.83     |   0.0 | 45.15
Comm    | 4.6799     | 4.6799     | 4.6799     |   0.0 |  0.83
Output  | 0.080235   | 0.080235   | 0.080235   |   0.0 |  0.01
Modify  | 6.5772     | 6.5772     | 6.5772     |   0.0 |  1.17
Other   |            | 1.734      |            |       |  0.31

Nlocal:    19652 ave 19652 max 19652 min
Histogram: 1 0 0 0 0 0 0 0 0 0
Nghost:    15912 ave 15912 max 15912 min
Histogram: 1 0 0 0 0 0 0 0 0 0
Neighs:    1.04042e+06 ave 1.04042e+06 max 1.04042e+06 min
Histogram: 1 0 0 0 0 0 0 0 0 0

Total # of neighbors = 1040424
Ave neighs/atom = 52.9424
Neighbor list builds = 4505
Dangerous builds not checked
Setting up Verlet run ...
  Unit style    : metal
  Current step  : 120000
  Time step     : 0.001
Per MPI rank memory allocation (min/avg/max) = 18.19 | 18.19 | 18.19 Mbytes
Step Temp Press TotEng PotEng Enthalpy 
  120000      1656.11    385.49202   -111442.45   -115649.12   -111328.37 
  120495    1616.7886    -104.6837   -111665.87   -115772.66   -111696.83 
Loop time of 62.621 on 1 procs for 495 steps with 19652 atoms

Performance: 0.683 ns/day, 35.141 hours/ns, 7.905 timesteps/s
99.1% CPU use with 1 MPI tasks x no OpenMP threads

MPI task timing breakdown:
Section |  min time  |  avg time  |  max time  |%varavg| %total
---------------------------------------------------------------
Pair    | 33.004     | 33.004     | 33.004     |   0.0 | 52.70
Neigh   | 28.123     | 28.123     | 28.123     |   0.0 | 44.91
Comm    | 0.5304     | 0.5304     | 0.5304     |   0.0 |  0.85
Output  | 0.00018096 | 0.00018096 | 0.00018096 |   0.0 |  0.00
Modify  | 0.74996    | 0.74996    | 0.74996    |   0.0 |  1.20
Other   |            | 0.2137     |            |       |  0.34

Nlocal:    19652 ave 19652 max 19652 min
Histogram: 1 0 0 0 0 0 0 0 0 0
Nghost:    15893 ave 15893 max 15893 min
Histogram: 1 0 0 0 0 0 0 0 0 0
Neighs:    1.04116e+06 ave 1.04116e+06 max 1.04116e+06 min
Histogram: 1 0 0 0 0 0 0 0 0 0

Total # of neighbors = 1041155
Ave neighs/atom = 52.9796
Neighbor list builds = 495
Dangerous builds not checked
Setting up Verlet run ...
  Unit style    : metal
  Current step  : 120495
  Time step     : 0.001
Per MPI rank memory allocation (min/avg/max) = 18.19 | 18.19 | 18.19 Mbytes
Step Temp Press TotEng PotEng Enthalpy 
  120495    1616.7886    -104.6837   -111665.87   -115772.66   -111696.83 
  125000    1604.1513   -2017.1899   -111773.51    -115848.2   -112371.23 
Loop time of 584.503 on 1 procs for 4505 steps with 19652 atoms

Performance: 0.666 ns/day, 36.040 hours/ns, 7.707 timesteps/s
98.2% CPU use with 1 MPI tasks x no OpenMP threads

MPI task timing breakdown:
Section |  min time  |  avg time  |  max time  |%varavg| %total
---------------------------------------------------------------
Pair    | 309.52     | 309.52     | 309.52     |   0.0 | 52.96
Neigh   | 261.17     | 261.17     | 261.17     |   0.0 | 44.68
Comm    | 4.9379     | 4.9379     | 4.9379     |   0.0 |  0.84
Output  | 0.11727    | 0.11727    | 0.11727    |   0.0 |  0.02
Modify  | 6.8523     | 6.8523     | 6.8523     |   0.0 |  1.17
Other   |            | 1.901      |            |       |  0.33

Nlocal:    19652 ave 19652 max 19652 min
Histogram: 1 0 0 0 0 0 0 0 0 0
Nghost:    15888 ave 15888 max 15888 min
Histogram: 1 0 0 0 0 0 0 0 0 0
Neighs:    1.03942e+06 ave 1.03942e+06 max 1.03942e+06 min
Histogram: 1 0 0 0 0 0 0 0 0 0

Total # of neighbors = 1039417
Ave neighs/atom = 52.8912
Neighbor list builds = 4505
Dangerous builds not checked
Setting up Verlet run ...
  Unit style    : metal
  Current step  : 125000
  Time step     : 0.001
Per MPI rank memory allocation (min/avg/max) = 18.19 | 18.19 | 18.19 Mbytes
Step Temp Press TotEng PotEng Enthalpy 
  125000    1604.1513   -2017.1899   -111773.51    -115848.2   -112371.23 
  125495    1563.5251   -836.33544   -112027.49   -115998.99   -112274.66 
Loop time of 66.3653 on 1 procs for 495 steps with 19652 atoms

Performance: 0.644 ns/day, 37.242 hours/ns, 7.459 timesteps/s
93.4% CPU use with 1 MPI tasks x no OpenMP threads

MPI task timing breakdown:
Section |  min time  |  avg time  |  max time  |%varavg| %total
---------------------------------------------------------------
Pair    | 35.064     | 35.064     | 35.064     |   0.0 | 52.83
Neigh   | 29.713     | 29.713     | 29.713     |   0.0 | 44.77
Comm    | 0.58293    | 0.58293    | 0.58293    |   0.0 |  0.88
Output  | 0.00016904 | 0.00016904 | 0.00016904 |   0.0 |  0.00
Modify  | 0.78783    | 0.78783    | 0.78783    |   0.0 |  1.19
Other   |            | 0.2175     |            |       |  0.33

Nlocal:    19652 ave 19652 max 19652 min
Histogram: 1 0 0 0 0 0 0 0 0 0
Nghost:    15877 ave 15877 max 15877 min
Histogram: 1 0 0 0 0 0 0 0 0 0
Neighs:    1.04228e+06 ave 1.04228e+06 max 1.04228e+06 min
Histogram: 1 0 0 0 0 0 0 0 0 0

Total # of neighbors = 1042285
Ave neighs/atom = 53.0371
Neighbor list builds = 495
Dangerous builds not checked
Setting up Verlet run ...
  Unit style    : metal
  Current step  : 125495
  Time step     : 0.001
Per MPI rank memory allocation (min/avg/max) = 18.19 | 18.19 | 18.19 Mbytes
Step Temp Press TotEng PotEng Enthalpy 
  125495    1563.5251   -836.33544   -112027.49   -115998.99   -112274.66 
  130000     1545.596   -1167.5539   -112156.22   -116082.17   -112501.16 
Loop time of 562.748 on 1 procs for 4505 steps with 19652 atoms

Performance: 0.692 ns/day, 34.699 hours/ns, 8.005 timesteps/s
96.1% CPU use with 1 MPI tasks x no OpenMP threads

MPI task timing breakdown:
Section |  min time  |  avg time  |  max time  |%varavg| %total
---------------------------------------------------------------
Pair    | 294.54     | 294.54     | 294.54     |   0.0 | 52.34
Neigh   | 255.02     | 255.02     | 255.02     |   0.0 | 45.32
Comm    | 4.7808     | 4.7808     | 4.7808     |   0.0 |  0.85
Output  | 0.070195   | 0.070195   | 0.070195   |   0.0 |  0.01
Modify  | 6.6079     | 6.6079     | 6.6079     |   0.0 |  1.17
Other   |            | 1.737      |            |       |  0.31

Nlocal:    19652 ave 19652 max 19652 min
Histogram: 1 0 0 0 0 0 0 0 0 0
Nghost:    15864 ave 15864 max 15864 min
Histogram: 1 0 0 0 0 0 0 0 0 0
Neighs:    1.04275e+06 ave 1.04275e+06 max 1.04275e+06 min
Histogram: 1 0 0 0 0 0 0 0 0 0

Total # of neighbors = 1042750
Ave neighs/atom = 53.0608
Neighbor list builds = 4505
Dangerous builds not checked
Setting up Verlet run ...
  Unit style    : metal
  Current step  : 130000
  Time step     : 0.001
Per MPI rank memory allocation (min/avg/max) = 18.19 | 18.19 | 18.19 Mbytes
Step Temp Press TotEng PotEng Enthalpy 
  130000     1545.596   -1167.5539   -112156.22   -116082.17   -112501.16 
  130495      1521.12   -83.238097   -112349.12    -116212.9   -112373.65 
Loop time of 61.6996 on 1 procs for 495 steps with 19652 atoms

Performance: 0.693 ns/day, 34.624 hours/ns, 8.023 timesteps/s
99.8% CPU use with 1 MPI tasks x no OpenMP threads

MPI task timing breakdown:
Section |  min time  |  avg time  |  max time  |%varavg| %total
---------------------------------------------------------------
Pair    | 32.508     | 32.508     | 32.508     |   0.0 | 52.69
Neigh   | 27.723     | 27.723     | 27.723     |   0.0 | 44.93
Comm    | 0.51735    | 0.51735    | 0.51735    |   0.0 |  0.84
Output  | 0.00017691 | 0.00017691 | 0.00017691 |   0.0 |  0.00
Modify  | 0.75684    | 0.75684    | 0.75684    |   0.0 |  1.23
Other   |            | 0.1944     |            |       |  0.32

Nlocal:    19652 ave 19652 max 19652 min
Histogram: 1 0 0 0 0 0 0 0 0 0
Nghost:    15866 ave 15866 max 15866 min
Histogram: 1 0 0 0 0 0 0 0 0 0
Neighs:    1.04592e+06 ave 1.04592e+06 max 1.04592e+06 min
Histogram: 1 0 0 0 0 0 0 0 0 0

Total # of neighbors = 1045918
Ave neighs/atom = 53.222
Neighbor list builds = 495
Dangerous builds not checked
Setting up Verlet run ...
  Unit style    : metal
  Current step  : 130495
  Time step     : 0.001
Per MPI rank memory allocation (min/avg/max) = 18.19 | 18.19 | 18.19 Mbytes
Step Temp Press TotEng PotEng Enthalpy 
  130495      1521.12   -83.238097   -112349.12    -116212.9   -112373.65 
  135000    1511.8844    1318.8569   -112487.17   -116327.49   -112099.62 
Loop time of 582.926 on 1 procs for 4505 steps with 19652 atoms

Performance: 0.668 ns/day, 35.943 hours/ns, 7.728 timesteps/s
96.3% CPU use with 1 MPI tasks x no OpenMP threads

MPI task timing breakdown:
Section |  min time  |  avg time  |  max time  |%varavg| %total
---------------------------------------------------------------
Pair    | 308.23     | 308.23     | 308.23     |   0.0 | 52.88
Neigh   | 261.05     | 261.05     | 261.05     |   0.0 | 44.78
Comm    | 4.8582     | 4.8582     | 4.8582     |   0.0 |  0.83
Output  | 0.069716   | 0.069716   | 0.069716   |   0.0 |  0.01
Modify  | 6.8913     | 6.8913     | 6.8913     |   0.0 |  1.18
Other   |            | 1.819      |            |       |  0.31

Nlocal:    19652 ave 19652 max 19652 min
Histogram: 1 0 0 0 0 0 0 0 0 0
Nghost:    15826 ave 15826 max 15826 min
Histogram: 1 0 0 0 0 0 0 0 0 0
Neighs:    1.0498e+06 ave 1.0498e+06 max 1.0498e+06 min
Histogram: 1 0 0 0 0 0 0 0 0 0

Total # of neighbors = 1049797
Ave neighs/atom = 53.4193
Neighbor list builds = 4505
Dangerous builds not checked
Setting up Verlet run ...
  Unit style    : metal
  Current step  : 135000
  Time step     : 0.001
Per MPI rank memory allocation (min/avg/max) = 18.19 | 18.19 | 18.19 Mbytes
Step Temp Press TotEng PotEng Enthalpy 
  135000    1511.8844    1318.8569   -112487.17   -116327.49   -112099.62 
  135495    1467.8951   -14.738182   -112717.46   -116446.05   -112721.79 
Loop time of 52.906 on 1 procs for 495 steps with 19652 atoms

Performance: 0.808 ns/day, 29.689 hours/ns, 9.356 timesteps/s
100.0% CPU use with 1 MPI tasks x no OpenMP threads

MPI task timing breakdown:
Section |  min time  |  avg time  |  max time  |%varavg| %total
---------------------------------------------------------------
Pair    | 27.502     | 27.502     | 27.502     |   0.0 | 51.98
Neigh   | 24.171     | 24.171     | 24.171     |   0.0 | 45.69
Comm    | 0.44131    | 0.44131    | 0.44131    |   0.0 |  0.83
Output  | 0.00015783 | 0.00015783 | 0.00015783 |   0.0 |  0.00
Modify  | 0.61499    | 0.61499    | 0.61499    |   0.0 |  1.16
Other   |            | 0.1765     |            |       |  0.33

Nlocal:    19652 ave 19652 max 19652 min
Histogram: 1 0 0 0 0 0 0 0 0 0
Nghost:    15828 ave 15828 max 15828 min
Histogram: 1 0 0 0 0 0 0 0 0 0
Neighs:    1.04857e+06 ave 1.04857e+06 max 1.04857e+06 min
Histogram: 1 0 0 0 0 0 0 0 0 0

Total # of neighbors = 1048570
Ave neighs/atom = 53.3569
Neighbor list builds = 495
Dangerous builds not checked
Setting up Verlet run ...
  Unit style    : metal
  Current step  : 135495
  Time step     : 0.001
Per MPI rank memory allocation (min/avg/max) = 18.19 | 18.19 | 18.19 Mbytes
Step Temp Press TotEng PotEng Enthalpy 
  135495    1467.8951   -14.738182   -112717.46   -116446.05   -112721.79 
  140000     1445.195   -901.79802   -112839.76   -116510.68   -113105.24 
Loop time of 603.94 on 1 procs for 4505 steps with 19652 atoms

Performance: 0.644 ns/day, 37.239 hours/ns, 7.459 timesteps/s
93.3% CPU use with 1 MPI tasks x no OpenMP threads

MPI task timing breakdown:
Section |  min time  |  avg time  |  max time  |%varavg| %total
---------------------------------------------------------------
Pair    | 319.82     | 319.82     | 319.82     |   0.0 | 52.96
Neigh   | 269.9      | 269.9      | 269.9      |   0.0 | 44.69
Comm    | 5.1351     | 5.1351     | 5.1351     |   0.0 |  0.85
Output  | 0.11223    | 0.11223    | 0.11223    |   0.0 |  0.02
Modify  | 7.0205     | 7.0205     | 7.0205     |   0.0 |  1.16
Other   |            | 1.947      |            |       |  0.32

Nlocal:    19652 ave 19652 max 19652 min
Histogram: 1 0 0 0 0 0 0 0 0 0
Nghost:    15871 ave 15871 max 15871 min
Histogram: 1 0 0 0 0 0 0 0 0 0
Neighs:    1.04786e+06 ave 1.04786e+06 max 1.04786e+06 min
Histogram: 1 0 0 0 0 0 0 0 0 0

Total # of neighbors = 1047865
Ave neighs/atom = 53.321
Neighbor list builds = 4505
Dangerous builds not checked
Setting up Verlet run ...
  Unit style    : metal
  Current step  : 140000
  Time step     : 0.001
Per MPI rank memory allocation (min/avg/max) = 18.19 | 18.19 | 18.19 Mbytes
Step Temp Press TotEng PotEng Enthalpy 
  140000     1445.195   -901.79802   -112839.76   -116510.68   -113105.24 
  140495    1420.2549    44.635675   -113035.73    -116643.3   -113022.62 
Loop time of 62.3374 on 1 procs for 495 steps with 19652 atoms

Performance: 0.686 ns/day, 34.982 hours/ns, 7.941 timesteps/s
99.4% CPU use with 1 MPI tasks x no OpenMP threads

MPI task timing breakdown:
Section |  min time  |  avg time  |  max time  |%varavg| %total
---------------------------------------------------------------
Pair    | 32.711     | 32.711     | 32.711     |   0.0 | 52.47
Neigh   | 28.175     | 28.175     | 28.175     |   0.0 | 45.20
Comm    | 0.51874    | 0.51874    | 0.51874    |   0.0 |  0.83
Output  | 0.00018001 | 0.00018001 | 0.00018001 |   0.0 |  0.00
Modify  | 0.74301    | 0.74301    | 0.74301    |   0.0 |  1.19
Other   |            | 0.1895     |            |       |  0.30

Nlocal:    19652 ave 19652 max 19652 min
Histogram: 1 0 0 0 0 0 0 0 0 0
Nghost:    15915 ave 15915 max 15915 min
Histogram: 1 0 0 0 0 0 0 0 0 0
Neighs:    1.05101e+06 ave 1.05101e+06 max 1.05101e+06 min
Histogram: 1 0 0 0 0 0 0 0 0 0

Total # of neighbors = 1051007
Ave neighs/atom = 53.4809
Neighbor list builds = 495
Dangerous builds not checked
Setting up Verlet run ...
  Unit style    : metal
  Current step  : 140495
  Time step     : 0.001
Per MPI rank memory allocation (min/avg/max) = 18.19 | 18.19 | 18.19 Mbytes
Step Temp Press TotEng PotEng Enthalpy 
  140495    1420.2549    44.635675   -113035.73    -116643.3   -113022.62 
  145000    1407.8713    427.70613   -113141.21   -116717.33   -113015.71 
Loop time of 584.344 on 1 procs for 4505 steps with 19652 atoms

Performance: 0.666 ns/day, 36.031 hours/ns, 7.710 timesteps/s
98.5% CPU use with 1 MPI tasks x no OpenMP threads

MPI task timing breakdown:
Section |  min time  |  avg time  |  max time  |%varavg| %total
---------------------------------------------------------------
Pair    | 309.63     | 309.63     | 309.63     |   0.0 | 52.99
Neigh   | 260.83     | 260.83     | 260.83     |   0.0 | 44.64
Comm    | 4.9617     | 4.9617     | 4.9617     |   0.0 |  0.85
Output  | 0.074335   | 0.074335   | 0.074335   |   0.0 |  0.01
Modify  | 6.9551     | 6.9551     | 6.9551     |   0.0 |  1.19
Other   |            | 1.887      |            |       |  0.32

Nlocal:    19652 ave 19652 max 19652 min
Histogram: 1 0 0 0 0 0 0 0 0 0
Nghost:    15882 ave 15882 max 15882 min
Histogram: 1 0 0 0 0 0 0 0 0 0
Neighs:    1.05234e+06 ave 1.05234e+06 max 1.05234e+06 min
Histogram: 1 0 0 0 0 0 0 0 0 0

Total # of neighbors = 1052341
Ave neighs/atom = 53.5488
Neighbor list builds = 4505
Dangerous builds not checked
Setting up Verlet run ...
  Unit style    : metal
  Current step  : 145000
  Time step     : 0.001
Per MPI rank memory allocation (min/avg/max) = 18.19 | 18.19 | 18.19 Mbytes
Step Temp Press TotEng PotEng Enthalpy 
  145000    1407.8713    427.70613   -113141.21   -116717.33   -113015.71 
  145495    1359.6987   -491.28111   -113351.75   -116805.51   -113495.91 
Loop time of 61.9213 on 1 procs for 495 steps with 19652 atoms

Performance: 0.691 ns/day, 34.748 hours/ns, 7.994 timesteps/s
97.9% CPU use with 1 MPI tasks x no OpenMP threads

MPI task timing breakdown:
Section |  min time  |  avg time  |  max time  |%varavg| %total
---------------------------------------------------------------
Pair    | 32.591     | 32.591     | 32.591     |   0.0 | 52.63
Neigh   | 27.858     | 27.858     | 27.858     |   0.0 | 44.99
Comm    | 0.53785    | 0.53785    | 0.53785    |   0.0 |  0.87
Output  | 0.0001719  | 0.0001719  | 0.0001719  |   0.0 |  0.00
Modify  | 0.74357    | 0.74357    | 0.74357    |   0.0 |  1.20
Other   |            | 0.1906     |            |       |  0.31

Nlocal:    19652 ave 19652 max 19652 min
Histogram: 1 0 0 0 0 0 0 0 0 0
Nghost:    15871 ave 15871 max 15871 min
Histogram: 1 0 0 0 0 0 0 0 0 0
Neighs:    1.05185e+06 ave 1.05185e+06 max 1.05185e+06 min
Histogram: 1 0 0 0 0 0 0 0 0 0

Total # of neighbors = 1051854
Ave neighs/atom = 53.524
Neighbor list builds = 495
Dangerous builds not checked
Setting up Verlet run ...
  Unit style    : metal
  Current step  : 145495
  Time step     : 0.001
Per MPI rank memory allocation (min/avg/max) = 18.19 | 18.19 | 18.19 Mbytes
Step Temp Press TotEng PotEng Enthalpy 
  145495    1359.6987   -491.28111   -113351.75   -116805.51   -113495.91 
  150000    1350.4988   -743.86582   -113510.92   -116941.31   -113729.12 
Loop time of 559.796 on 1 procs for 4505 steps with 19652 atoms

Performance: 0.695 ns/day, 34.517 hours/ns, 8.048 timesteps/s
98.4% CPU use with 1 MPI tasks x no OpenMP threads

MPI task timing breakdown:
Section |  min time  |  avg time  |  max time  |%varavg| %total
---------------------------------------------------------------
Pair    | 294.6      | 294.6      | 294.6      |   0.0 | 52.63
Neigh   | 251.88     | 251.88     | 251.88     |   0.0 | 44.99
Comm    | 4.702      | 4.702      | 4.702      |   0.0 |  0.84
Output  | 0.16259    | 0.16259    | 0.16259    |   0.0 |  0.03
Modify  | 6.7451     | 6.7451     | 6.7451     |   0.0 |  1.20
Other   |            | 1.712      |            |       |  0.31

Nlocal:    19652 ave 19652 max 19652 min
Histogram: 1 0 0 0 0 0 0 0 0 0
Nghost:    15892 ave 15892 max 15892 min
Histogram: 1 0 0 0 0 0 0 0 0 0
Neighs:    1.05278e+06 ave 1.05278e+06 max 1.05278e+06 min
Histogram: 1 0 0 0 0 0 0 0 0 0

Total # of neighbors = 1052779
Ave neighs/atom = 53.5711
Neighbor list builds = 4505
Dangerous builds not checked
Setting up Verlet run ...
  Unit style    : metal
  Current step  : 150000
  Time step     : 0.001
Per MPI rank memory allocation (min/avg/max) = 18.19 | 18.19 | 18.19 Mbytes
Step Temp Press TotEng PotEng Enthalpy 
  150000    1350.4988   -743.86582   -113510.92   -116941.31   -113729.12 
  150495    1312.9526    317.73884   -113716.66   -117051.68   -113623.66 
Loop time of 62.7421 on 1 procs for 495 steps with 19652 atoms

Performance: 0.682 ns/day, 35.209 hours/ns, 7.889 timesteps/s
99.9% CPU use with 1 MPI tasks x no OpenMP threads

MPI task timing breakdown:
Section |  min time  |  avg time  |  max time  |%varavg| %total
---------------------------------------------------------------
Pair    | 33.131     | 33.131     | 33.131     |   0.0 | 52.81
Neigh   | 28.135     | 28.135     | 28.135     |   0.0 | 44.84
Comm    | 0.52352    | 0.52352    | 0.52352    |   0.0 |  0.83
Output  | 0.00019097 | 0.00019097 | 0.00019097 |   0.0 |  0.00
Modify  | 0.75988    | 0.75988    | 0.75988    |   0.0 |  1.21
Other   |            | 0.1928     |            |       |  0.31

Nlocal:    19652 ave 19652 max 19652 min
Histogram: 1 0 0 0 0 0 0 0 0 0
Nghost:    15952 ave 15952 max 15952 min
Histogram: 1 0 0 0 0 0 0 0 0 0
Neighs:    1.05611e+06 ave 1.05611e+06 max 1.05611e+06 min
Histogram: 1 0 0 0 0 0 0 0 0 0

Total # of neighbors = 1056111
Ave neighs/atom = 53.7406
Neighbor list builds = 495
Dangerous builds not checked
Setting up Verlet run ...
  Unit style    : metal
  Current step  : 150495
  Time step     : 0.001
Per MPI rank memory allocation (min/avg/max) = 18.19 | 18.19 | 18.19 Mbytes
Step Temp Press TotEng PotEng Enthalpy 
  150495    1312.9526    317.73884   -113716.66   -117051.68   -113623.66 
  155000    1304.5505    657.10154   -113810.13    -117123.8   -113618.06 
Loop time of 568.276 on 1 procs for 4505 steps with 19652 atoms

Performance: 0.685 ns/day, 35.040 hours/ns, 7.927 timesteps/s
98.5% CPU use with 1 MPI tasks x no OpenMP threads

MPI task timing breakdown:
Section |  min time  |  avg time  |  max time  |%varavg| %total
---------------------------------------------------------------
Pair    | 299.96     | 299.96     | 299.96     |   0.0 | 52.78
Neigh   | 255.21     | 255.21     | 255.21     |   0.0 | 44.91
Comm    | 4.6774     | 4.6774     | 4.6774     |   0.0 |  0.82
Output  | 0.080083   | 0.080083   | 0.080083   |   0.0 |  0.01
Modify  | 6.6494     | 6.6494     | 6.6494     |   0.0 |  1.17
Other   |            | 1.696      |            |       |  0.30

Nlocal:    19652 ave 19652 max 19652 min
Histogram: 1 0 0 0 0 0 0 0 0 0
Nghost:    15937 ave 15937 max 15937 min
Histogram: 1 0 0 0 0 0 0 0 0 0
Neighs:    1.05737e+06 ave 1.05737e+06 max 1.05737e+06 min
Histogram: 1 0 0 0 0 0 0 0 0 0

Total # of neighbors = 1057367
Ave neighs/atom = 53.8045
Neighbor list builds = 4505
Dangerous builds not checked
Setting up Verlet run ...
  Unit style    : metal
  Current step  : 155000
  Time step     : 0.001
Per MPI rank memory allocation (min/avg/max) = 18.19 | 18.19 | 18.19 Mbytes
Step Temp Press TotEng PotEng Enthalpy 
  155000    1304.5505    657.10154   -113810.13    -117123.8   -113618.06 
  155495    1257.6478   -149.82513   -114030.85   -117225.39   -114074.67 
Loop time of 62.1963 on 1 procs for 495 steps with 19652 atoms

Performance: 0.688 ns/day, 34.902 hours/ns, 7.959 timesteps/s
99.0% CPU use with 1 MPI tasks x no OpenMP threads

MPI task timing breakdown:
Section |  min time  |  avg time  |  max time  |%varavg| %total
---------------------------------------------------------------
Pair    | 32.811     | 32.811     | 32.811     |   0.0 | 52.75
Neigh   | 27.933     | 27.933     | 27.933     |   0.0 | 44.91
Comm    | 0.51907    | 0.51907    | 0.51907    |   0.0 |  0.83
Output  | 0.00014782 | 0.00014782 | 0.00014782 |   0.0 |  0.00
Modify  | 0.73964    | 0.73964    | 0.73964    |   0.0 |  1.19
Other   |            | 0.1934     |            |       |  0.31

Nlocal:    19652 ave 19652 max 19652 min
Histogram: 1 0 0 0 0 0 0 0 0 0
Nghost:    15939 ave 15939 max 15939 min
Histogram: 1 0 0 0 0 0 0 0 0 0
Neighs:    1.05706e+06 ave 1.05706e+06 max 1.05706e+06 min
Histogram: 1 0 0 0 0 0 0 0 0 0

Total # of neighbors = 1057059
Ave neighs/atom = 53.7889
Neighbor list builds = 495
Dangerous builds not checked
Setting up Verlet run ...
  Unit style    : metal
  Current step  : 155495
  Time step     : 0.001
Per MPI rank memory allocation (min/avg/max) = 18.19 | 18.19 | 18.19 Mbytes
Step Temp Press TotEng PotEng Enthalpy 
  155495    1257.6478   -149.82513   -114030.85   -117225.39   -114074.67 
  160000    1254.6854   -599.31534   -114130.04   -117317.05   -114305.27 
Loop time of 562.741 on 1 procs for 4505 steps with 19652 atoms

Performance: 0.692 ns/day, 34.699 hours/ns, 8.005 timesteps/s
99.6% CPU use with 1 MPI tasks x no OpenMP threads

MPI task timing breakdown:
Section |  min time  |  avg time  |  max time  |%varavg| %total
---------------------------------------------------------------
Pair    | 296.85     | 296.85     | 296.85     |   0.0 | 52.75
Neigh   | 252.92     | 252.92     | 252.92     |   0.0 | 44.94
Comm    | 4.6315     | 4.6315     | 4.6315     |   0.0 |  0.82
Output  | 0.075933   | 0.075933   | 0.075933   |   0.0 |  0.01
Modify  | 6.5687     | 6.5687     | 6.5687     |   0.0 |  1.17
Other   |            | 1.691      |            |       |  0.30

Nlocal:    19652 ave 19652 max 19652 min
Histogram: 1 0 0 0 0 0 0 0 0 0
Nghost:    15918 ave 15918 max 15918 min
Histogram: 1 0 0 0 0 0 0 0 0 0
Neighs:    1.05768e+06 ave 1.05768e+06 max 1.05768e+06 min
Histogram: 1 0 0 0 0 0 0 0 0 0

Total # of neighbors = 1057676
Ave neighs/atom = 53.8203
Neighbor list builds = 4505
Dangerous builds not checked
Setting up Verlet run ...
  Unit style    : metal
  Current step  : 160000
  Time step     : 0.001
Per MPI rank memory allocation (min/avg/max) = 18.19 | 18.19 | 18.19 Mbytes
Step Temp Press TotEng PotEng Enthalpy 
  160000    1254.6854   -599.31534   -114130.04   -117317.05   -114305.27 
  160495    1214.6973    356.25426   -114376.72   -117462.16   -114272.81 
Loop time of 64.8174 on 1 procs for 495 steps with 19652 atoms

Performance: 0.660 ns/day, 36.373 hours/ns, 7.637 timesteps/s
99.9% CPU use with 1 MPI tasks x no OpenMP threads

MPI task timing breakdown:
Section |  min time  |  avg time  |  max time  |%varavg| %total
---------------------------------------------------------------
Pair    | 34.443     | 34.443     | 34.443     |   0.0 | 53.14
Neigh   | 28.841     | 28.841     | 28.841     |   0.0 | 44.50
Comm    | 0.58635    | 0.58635    | 0.58635    |   0.0 |  0.90
Output  | 0.00015783 | 0.00015783 | 0.00015783 |   0.0 |  0.00
Modify  | 0.76378    | 0.76378    | 0.76378    |   0.0 |  1.18
Other   |            | 0.1833     |            |       |  0.28

Nlocal:    19652 ave 19652 max 19652 min
Histogram: 1 0 0 0 0 0 0 0 0 0
Nghost:    15950 ave 15950 max 15950 min
Histogram: 1 0 0 0 0 0 0 0 0 0
Neighs:    1.06047e+06 ave 1.06047e+06 max 1.06047e+06 min
Histogram: 1 0 0 0 0 0 0 0 0 0

Total # of neighbors = 1060466
Ave neighs/atom = 53.9622
Neighbor list builds = 495
Dangerous builds not checked
Setting up Verlet run ...
  Unit style    : metal
  Current step  : 160495
  Time step     : 0.001
Per MPI rank memory allocation (min/avg/max) = 18.19 | 18.19 | 18.19 Mbytes
Step Temp Press TotEng PotEng Enthalpy 
  160495    1214.6973    356.25426   -114376.72   -117462.16   -114272.81 
  165000    1209.3196    1866.6826   -114525.74   -117597.52   -113982.66 
Loop time of 561.795 on 1 procs for 4505 steps with 19652 atoms

Performance: 0.693 ns/day, 34.640 hours/ns, 8.019 timesteps/s
99.1% CPU use with 1 MPI tasks x no OpenMP threads

MPI task timing breakdown:
Section |  min time  |  avg time  |  max time  |%varavg| %total
---------------------------------------------------------------
Pair    | 297.14     | 297.14     | 297.14     |   0.0 | 52.89
Neigh   | 251.38     | 251.38     | 251.38     |   0.0 | 44.75
Comm    | 4.7623     | 4.7623     | 4.7623     |   0.0 |  0.85
Output  | 0.17925    | 0.17925    | 0.17925    |   0.0 |  0.03
Modify  | 6.6497     | 6.6497     | 6.6497     |   0.0 |  1.18
Other   |            | 1.685      |            |       |  0.30

Nlocal:    19652 ave 19652 max 19652 min
Histogram: 1 0 0 0 0 0 0 0 0 0
Nghost:    15973 ave 15973 max 15973 min
Histogram: 1 0 0 0 0 0 0 0 0 0
Neighs:    1.06458e+06 ave 1.06458e+06 max 1.06458e+06 min
Histogram: 1 0 0 0 0 0 0 0 0 0

Total # of neighbors = 1064576
Ave neighs/atom = 54.1714
Neighbor list builds = 4505
Dangerous builds not checked
Setting up Verlet run ...
  Unit style    : metal
  Current step  : 165000
  Time step     : 0.001
Per MPI rank memory allocation (min/avg/max) = 18.19 | 18.19 | 18.19 Mbytes
Step Temp Press TotEng PotEng Enthalpy 
  165000    1209.3196    1866.6826   -114525.74   -117597.52   -113982.66 
  165495    1165.9391   -1298.5999   -114729.12   -117690.71   -115108.09 
Loop time of 62.654 on 1 procs for 495 steps with 19652 atoms

Performance: 0.683 ns/day, 35.159 hours/ns, 7.901 timesteps/s
99.0% CPU use with 1 MPI tasks x no OpenMP threads

MPI task timing breakdown:
Section |  min time  |  avg time  |  max time  |%varavg| %total
---------------------------------------------------------------
Pair    | 33.393     | 33.393     | 33.393     |   0.0 | 53.30
Neigh   | 27.815     | 27.815     | 27.815     |   0.0 | 44.39
Comm    | 0.52161    | 0.52161    | 0.52161    |   0.0 |  0.83
Output  | 0.00016904 | 0.00016904 | 0.00016904 |   0.0 |  0.00
Modify  | 0.73296    | 0.73296    | 0.73296    |   0.0 |  1.17
Other   |            | 0.192      |            |       |  0.31

Nlocal:    19652 ave 19652 max 19652 min
Histogram: 1 0 0 0 0 0 0 0 0 0
Nghost:    15949 ave 15949 max 15949 min
Histogram: 1 0 0 0 0 0 0 0 0 0
Neighs:    1.0606e+06 ave 1.0606e+06 max 1.0606e+06 min
Histogram: 1 0 0 0 0 0 0 0 0 0

Total # of neighbors = 1060605
Ave neighs/atom = 53.9693
Neighbor list builds = 495
Dangerous builds not checked
Setting up Verlet run ...
  Unit style    : metal
  Current step  : 165495
  Time step     : 0.001
Per MPI rank memory allocation (min/avg/max) = 18.19 | 18.19 | 18.19 Mbytes
Step Temp Press TotEng PotEng Enthalpy 
  165495    1165.9391   -1298.5999   -114729.12   -117690.71   -115108.09 
  170000    1156.7875   -421.69853   -114868.57   -117806.92   -114991.42 
Loop time of 594.465 on 1 procs for 4505 steps with 19652 atoms

Performance: 0.655 ns/day, 36.655 hours/ns, 7.578 timesteps/s
[...]
Setting up Verlet run ...
  Unit style    : metal
  Current step  : 240000
  Time step     : 0.001
Per MPI rank memory allocation (min/avg/max) = 18.19 | 18.19 | 18.19 Mbytes
Step Temp Press TotEng PotEng Enthalpy 
  240000    448.14623   -216.36148   -119862.69   -121001.02   -119924.43 
  240495    419.90372    266.89658   -120005.02   -121071.61   -119928.94 
Loop time of 60.2887 on 1 procs for 495 steps with 19652 atoms

Performance: 0.709 ns/day, 33.832 hours/ns, 8.210 timesteps/s
99.3% CPU use with 1 MPI tasks x no OpenMP threads

MPI task timing breakdown:
Section |  min time  |  avg time  |  max time  |%varavg| %total
---------------------------------------------------------------
Pair    | 32.63      | 32.63      | 32.63      |   0.0 | 54.12
Neigh   | 26.177     | 26.177     | 26.177     |   0.0 | 43.42
Comm    | 0.55396    | 0.55396    | 0.55396    |   0.0 |  0.92
Output  | 0.00013208 | 0.00013208 | 0.00013208 |   0.0 |  0.00
Modify  | 0.71392    | 0.71392    | 0.71392    |   0.0 |  1.18
Other   |            | 0.2143     |            |       |  0.36

Nlocal:    19652 ave 19652 max 19652 min
Histogram: 1 0 0 0 0 0 0 0 0 0
Nghost:    16089 ave 16089 max 16089 min
Histogram: 1 0 0 0 0 0 0 0 0 0
Neighs:    1.10018e+06 ave 1.10018e+06 max 1.10018e+06 min
Histogram: 1 0 0 0 0 0 0 0 0 0

Total # of neighbors = 1100179
Ave neighs/atom = 55.9831
Neighbor list builds = 495
Dangerous builds not checked
Setting up Verlet run ...
  Unit style    : metal
  Current step  : 240495
  Time step     : 0.001
Per MPI rank memory allocation (min/avg/max) = 18.19 | 18.19 | 18.19 Mbytes
Step Temp Press TotEng PotEng Enthalpy 
  240495    419.90372    266.89658   -120005.02   -121071.61   -119928.94 
  245000     397.4636   -397.19447   -120151.48   -121161.07   -120264.73 
Loop time of 600.791 on 1 procs for 4505 steps with 19652 atoms

Performance: 0.648 ns/day, 37.045 hours/ns, 7.498 timesteps/s
99.3% CPU use with 1 MPI tasks x no OpenMP threads

MPI task timing breakdown:
Section |  min time  |  avg time  |  max time  |%varavg| %total
---------------------------------------------------------------
Pair    | 327.93     | 327.93     | 327.93     |   0.0 | 54.58
Neigh   | 258.01     | 258.01     | 258.01     |   0.0 | 42.95
Comm    | 5.3596     | 5.3596     | 5.3596     |   0.0 |  0.89
Output  | 0.10359    | 0.10359    | 0.10359    |   0.0 |  0.02
Modify  | 7.3266     | 7.3266     | 7.3266     |   0.0 |  1.22
Other   |            | 2.058      |            |       |  0.34

Nlocal:    19652 ave 19652 max 19652 min
Histogram: 1 0 0 0 0 0 0 0 0 0
Nghost:    16096 ave 16096 max 16096 min
Histogram: 1 0 0 0 0 0 0 0 0 0
Neighs:    1.09956e+06 ave 1.09956e+06 max 1.09956e+06 min
Histogram: 1 0 0 0 0 0 0 0 0 0

Total # of neighbors = 1099555
Ave neighs/atom = 55.9513
Neighbor list builds = 4505
Dangerous builds not checked
Setting up Verlet run ...
  Unit style    : metal
  Current step  : 245000
  Time step     : 0.001
Per MPI rank memory allocation (min/avg/max) = 18.19 | 18.19 | 18.19 Mbytes
Step Temp Press TotEng PotEng Enthalpy 
  245000     397.4636   -397.19447   -120151.48   -121161.07   -120264.73 
  245495    370.29316    293.32798   -120293.66   -121234.24   -120210.14 
Loop time of 63.3743 on 1 procs for 495 steps with 19652 atoms

Performance: 0.675 ns/day, 35.564 hours/ns, 7.811 timesteps/s
98.6% CPU use with 1 MPI tasks x no OpenMP threads

MPI task timing breakdown:
Section |  min time  |  avg time  |  max time  |%varavg| %total
---------------------------------------------------------------
Pair    | 34.298     | 34.298     | 34.298     |   0.0 | 54.12
Neigh   | 27.507     | 27.507     | 27.507     |   0.0 | 43.40
Comm    | 0.56149    | 0.56149    | 0.56149    |   0.0 |  0.89
Output  | 0.00019193 | 0.00019193 | 0.00019193 |   0.0 |  0.00
Modify  | 0.78846    | 0.78846    | 0.78846    |   0.0 |  1.24
Other   |            | 0.2197     |            |       |  0.35

Nlocal:    19652 ave 19652 max 19652 min
Histogram: 1 0 0 0 0 0 0 0 0 0
Nghost:    16087 ave 16087 max 16087 min
Histogram: 1 0 0 0 0 0 0 0 0 0
Neighs:    1.10117e+06 ave 1.10117e+06 max 1.10117e+06 min
Histogram: 1 0 0 0 0 0 0 0 0 0

Total # of neighbors = 1101173
Ave neighs/atom = 56.0336
Neighbor list builds = 495
Dangerous builds not checked
Setting up Verlet run ...
  Unit style    : metal
  Current step  : 245495
  Time step     : 0.001
Per MPI rank memory allocation (min/avg/max) = 18.19 | 18.19 | 18.19 Mbytes
Step Temp Press TotEng PotEng Enthalpy 
  245495    370.29316    293.32798   -120293.66   -121234.24   -120210.14 
  250000    345.50781    164.95457   -120434.16   -121311.78    -120387.2 
Loop time of 606.787 on 1 procs for 4505 steps with 19652 atoms

Performance: 0.641 ns/day, 37.414 hours/ns, 7.424 timesteps/s
98.6% CPU use with 1 MPI tasks x no OpenMP threads

MPI task timing breakdown:
Section |  min time  |  avg time  |  max time  |%varavg| %total
---------------------------------------------------------------
Pair    | 333.13     | 333.13     | 333.13     |   0.0 | 54.90
Neigh   | 258.61     | 258.61     | 258.61     |   0.0 | 42.62
Comm    | 5.439      | 5.439      | 5.439      |   0.0 |  0.90
Output  | 0.086806   | 0.086806   | 0.086806   |   0.0 |  0.01
Modify  | 7.456      | 7.456      | 7.456      |   0.0 |  1.23
Other   |            | 2.061      |            |       |  0.34

Nlocal:    19652 ave 19652 max 19652 min
Histogram: 1 0 0 0 0 0 0 0 0 0
Nghost:    16106 ave 16106 max 16106 min
Histogram: 1 0 0 0 0 0 0 0 0 0
Neighs:    1.10209e+06 ave 1.10209e+06 max 1.10209e+06 min
Histogram: 1 0 0 0 0 0 0 0 0 0

Total # of neighbors = 1102089
Ave neighs/atom = 56.0802
Neighbor list builds = 4505
Dangerous builds not checked
Setting up Verlet run ...
  Unit style    : metal
  Current step  : 250000
  Time step     : 0.001
Per MPI rank memory allocation (min/avg/max) = 18.19 | 18.19 | 18.19 Mbytes
Step Temp Press TotEng PotEng Enthalpy 
  250000    345.50781    164.95457   -120434.16   -121311.78    -120387.2 
  250495    322.92484   -12.012588   -120566.46   -121386.71   -120569.87 
Loop time of 64.1856 on 1 procs for 495 steps with 19652 atoms

Performance: 0.666 ns/day, 36.019 hours/ns, 7.712 timesteps/s
100.0% CPU use with 1 MPI tasks x no OpenMP threads

MPI task timing breakdown:
Section |  min time  |  avg time  |  max time  |%varavg| %total
---------------------------------------------------------------
Pair    | 34.921     | 34.921     | 34.921     |   0.0 | 54.41
Neigh   | 27.657     | 27.657     | 27.657     |   0.0 | 43.09
Comm    | 0.5825     | 0.5825     | 0.5825     |   0.0 |  0.91
Output  | 0.00018001 | 0.00018001 | 0.00018001 |   0.0 |  0.00
Modify  | 0.79815    | 0.79815    | 0.79815    |   0.0 |  1.24
Other   |            | 0.2262     |            |       |  0.35

Nlocal:    19652 ave 19652 max 19652 min
Histogram: 1 0 0 0 0 0 0 0 0 0
Nghost:    16119 ave 16119 max 16119 min
Histogram: 1 0 0 0 0 0 0 0 0 0
Neighs:    1.1024e+06 ave 1.1024e+06 max 1.1024e+06 min
Histogram: 1 0 0 0 0 0 0 0 0 0

Total # of neighbors = 1102397
Ave neighs/atom = 56.0959
Neighbor list builds = 495
Dangerous builds not checked
Setting up Verlet run ...
  Unit style    : metal
  Current step  : 250495
  Time step     : 0.001
Per MPI rank memory allocation (min/avg/max) = 18.19 | 18.19 | 18.19 Mbytes
Step Temp Press TotEng PotEng Enthalpy 
  250495    322.92484   -12.012588   -120566.46   -121386.71   -120569.87 
  255000     299.8642    299.27221   -120696.59   -121458.27    -120611.5 
Loop time of 616.904 on 1 procs for 4505 steps with 19652 atoms

Performance: 0.631 ns/day, 38.038 hours/ns, 7.303 timesteps/s
98.4% CPU use with 1 MPI tasks x no OpenMP threads

MPI task timing breakdown:
Section |  min time  |  avg time  |  max time  |%varavg| %total
---------------------------------------------------------------
Pair    | 337.79     | 337.79     | 337.79     |   0.0 | 54.76
Neigh   | 263.76     | 263.76     | 263.76     |   0.0 | 42.76
Comm    | 5.5104     | 5.5104     | 5.5104     |   0.0 |  0.89
Output  | 0.078046   | 0.078046   | 0.078046   |   0.0 |  0.01
Modify  | 7.6563     | 7.6563     | 7.6563     |   0.0 |  1.24
Other   |            | 2.106      |            |       |  0.34

Nlocal:    19652 ave 19652 max 19652 min
Histogram: 1 0 0 0 0 0 0 0 0 0
Nghost:    16095 ave 16095 max 16095 min
Histogram: 1 0 0 0 0 0 0 0 0 0
Neighs:    1.10325e+06 ave 1.10325e+06 max 1.10325e+06 min
Histogram: 1 0 0 0 0 0 0 0 0 0

Total # of neighbors = 1103247
Ave neighs/atom = 56.1392
Neighbor list builds = 4505
Dangerous builds not checked
Setting up Verlet run ...
  Unit style    : metal
  Current step  : 255000
  Time step     : 0.001
Per MPI rank memory allocation (min/avg/max) = 18.19 | 18.19 | 18.19 Mbytes
Step Temp Press TotEng PotEng Enthalpy 
  255000     299.8642    299.27221   -120696.59   -121458.27    -120611.5 
  255495    274.02993    227.10639   -120834.29   -121530.35   -120769.75 
Loop time of 66.1225 on 1 procs for 495 steps with 19652 atoms

Performance: 0.647 ns/day, 37.106 hours/ns, 7.486 timesteps/s
99.2% CPU use with 1 MPI tasks x no OpenMP threads

MPI task timing breakdown:
Section |  min time  |  avg time  |  max time  |%varavg| %total
---------------------------------------------------------------
Pair    | 36.324     | 36.324     | 36.324     |   0.0 | 54.93
Neigh   | 28.179     | 28.179     | 28.179     |   0.0 | 42.62
Comm    | 0.59513    | 0.59513    | 0.59513    |   0.0 |  0.90
Output  | 0.00018406 | 0.00018406 | 0.00018406 |   0.0 |  0.00
Modify  | 0.8017     | 0.8017     | 0.8017     |   0.0 |  1.21
Other   |            | 0.2231     |            |       |  0.34

Nlocal:    19652 ave 19652 max 19652 min
Histogram: 1 0 0 0 0 0 0 0 0 0
Nghost:    16118 ave 16118 max 16118 min
Histogram: 1 0 0 0 0 0 0 0 0 0
Neighs:    1.10426e+06 ave 1.10426e+06 max 1.10426e+06 min
Histogram: 1 0 0 0 0 0 0 0 0 0

Total # of neighbors = 1104256
Ave neighs/atom = 56.1905
Neighbor list builds = 495
Dangerous builds not checked
Setting up Verlet run ...
  Unit style    : metal
  Current step  : 255495
  Time step     : 0.001
Per MPI rank memory allocation (min/avg/max) = 18.19 | 18.19 | 18.19 Mbytes
Step Temp Press TotEng PotEng Enthalpy 
  255495    274.02993    227.10639   -120834.29   -121530.35   -120769.75 
  260000    250.00574    423.24074   -120964.71   -121599.75   -120844.48 
Loop time of 584.744 on 1 procs for 4505 steps with 19652 atoms

Performance: 0.666 ns/day, 36.055 hours/ns, 7.704 timesteps/s
98.9% CPU use with 1 MPI tasks x no OpenMP threads

MPI task timing breakdown:
Section |  min time  |  avg time  |  max time  |%varavg| %total
---------------------------------------------------------------
Pair    | 320.82     | 320.82     | 320.82     |   0.0 | 54.87
Neigh   | 249.13     | 249.13     | 249.13     |   0.0 | 42.61
Comm    | 5.4461     | 5.4461     | 5.4461     |   0.0 |  0.93
Output  | 0.1511     | 0.1511     | 0.1511     |   0.0 |  0.03
Modify  | 7.1106     | 7.1106     | 7.1106     |   0.0 |  1.22
Other   |            | 2.079      |            |       |  0.36

Nlocal:    19652 ave 19652 max 19652 min
Histogram: 1 0 0 0 0 0 0 0 0 0
Nghost:    16097 ave 16097 max 16097 min
Histogram: 1 0 0 0 0 0 0 0 0 0
Neighs:    1.10467e+06 ave 1.10467e+06 max 1.10467e+06 min
Histogram: 1 0 0 0 0 0 0 0 0 0

Total # of neighbors = 1104672
Ave neighs/atom = 56.2117
Neighbor list builds = 4505
Dangerous builds not checked
Setting up Verlet run ...
  Unit style    : metal
  Current step  : 260000
  Time step     : 0.001
Per MPI rank memory allocation (min/avg/max) = 18.19 | 18.19 | 18.19 Mbytes
Step Temp Press TotEng PotEng Enthalpy 
  260000    250.00574    423.24074   -120964.71   -121599.75   -120844.48 
  260495    223.14224   -99.612204   -121097.38   -121664.18   -121125.67 
Loop time of 62.19 on 1 procs for 495 steps with 19652 atoms

Performance: 0.688 ns/day, 34.899 hours/ns, 7.959 timesteps/s
95.7% CPU use with 1 MPI tasks x no OpenMP threads

MPI task timing breakdown:
Section |  min time  |  avg time  |  max time  |%varavg| %total
---------------------------------------------------------------
Pair    | 33.734     | 33.734     | 33.734     |   0.0 | 54.24
Neigh   | 26.838     | 26.838     | 26.838     |   0.0 | 43.15
Comm    | 0.60064    | 0.60064    | 0.60064    |   0.0 |  0.97
Output  | 0.00015712 | 0.00015712 | 0.00015712 |   0.0 |  0.00
Modify  | 0.77785    | 0.77785    | 0.77785    |   0.0 |  1.25
Other   |            | 0.2395     |            |       |  0.39

Nlocal:    19652 ave 19652 max 19652 min
Histogram: 1 0 0 0 0 0 0 0 0 0
Nghost:    16166 ave 16166 max 16166 min
Histogram: 1 0 0 0 0 0 0 0 0 0
Neighs:    1.1045e+06 ave 1.1045e+06 max 1.1045e+06 min
Histogram: 1 0 0 0 0 0 0 0 0 0

Total # of neighbors = 1104505
Ave neighs/atom = 56.2032
Neighbor list builds = 495
Dangerous builds not checked
Setting up Verlet run ...
  Unit style    : metal
  Current step  : 260495
  Time step     : 0.001
Per MPI rank memory allocation (min/avg/max) = 18.19 | 18.19 | 18.19 Mbytes
Step Temp Press TotEng PotEng Enthalpy 
  260495    223.14224   -99.612204   -121097.38   -121664.18   -121125.67 
  265000    198.84808    320.43998    -121227.4   -121732.49   -121136.45 
Loop time of 606.414 on 1 procs for 4505 steps with 19652 atoms

Performance: 0.642 ns/day, 37.391 hours/ns, 7.429 timesteps/s
99.3% CPU use with 1 MPI tasks x no OpenMP threads

MPI task timing breakdown:
Section |  min time  |  avg time  |  max time  |%varavg| %total
---------------------------------------------------------------
Pair    | 335.76     | 335.76     | 335.76     |   0.0 | 55.37
Neigh   | 255.09     | 255.09     | 255.09     |   0.0 | 42.07
Comm    | 5.7328     | 5.7328     | 5.7328     |   0.0 |  0.95
Output  | 0.081813   | 0.081813   | 0.081813   |   0.0 |  0.01
Modify  | 7.5907     | 7.5907     | 7.5907     |   0.0 |  1.25
Other   |            | 2.155      |            |       |  0.36

Nlocal:    19652 ave 19652 max 19652 min
Histogram: 1 0 0 0 0 0 0 0 0 0
Nghost:    16112 ave 16112 max 16112 min
Histogram: 1 0 0 0 0 0 0 0 0 0
Neighs:    1.10591e+06 ave 1.10591e+06 max 1.10591e+06 min
Histogram: 1 0 0 0 0 0 0 0 0 0

Total # of neighbors = 1105910
Ave neighs/atom = 56.2747
Neighbor list builds = 4505
Dangerous builds not checked
Setting up Verlet run ...
  Unit style    : metal
  Current step  : 265000
  Time step     : 0.001
Per MPI rank memory allocation (min/avg/max) = 18.19 | 18.19 | 18.19 Mbytes
Step Temp Press TotEng PotEng Enthalpy 
  265000    198.84808    320.43998    -121227.4   -121732.49   -121136.45 
  265495    175.96232   -186.20012   -121354.85   -121801.81    -121407.7 
Loop time of 67.8296 on 1 procs for 495 steps with 19652 atoms

Performance: 0.631 ns/day, 38.064 hours/ns, 7.298 timesteps/s
99.9% CPU use with 1 MPI tasks x no OpenMP threads

MPI task timing breakdown:
Section |  min time  |  avg time  |  max time  |%varavg| %total
---------------------------------------------------------------
Pair    | 37.4       | 37.4       | 37.4       |   0.0 | 55.14
Neigh   | 28.783     | 28.783     | 28.783     |   0.0 | 42.43
Comm    | 0.60415    | 0.60415    | 0.60415    |   0.0 |  0.89
Output  | 0.00018597 | 0.00018597 | 0.00018597 |   0.0 |  0.00
Modify  | 0.8148     | 0.8148     | 0.8148     |   0.0 |  1.20
Other   |            | 0.2272     |            |       |  0.34

Nlocal:    19652 ave 19652 max 19652 min
Histogram: 1 0 0 0 0 0 0 0 0 0
Nghost:    16158 ave 16158 max 16158 min
Histogram: 1 0 0 0 0 0 0 0 0 0
Neighs:    1.10561e+06 ave 1.10561e+06 max 1.10561e+06 min
Histogram: 1 0 0 0 0 0 0 0 0 0

Total # of neighbors = 1105611
Ave neighs/atom = 56.2595
Neighbor list builds = 495
Dangerous builds not checked
Setting up Verlet run ...
  Unit style    : metal
  Current step  : 265495
  Time step     : 0.001
Per MPI rank memory allocation (min/avg/max) = 18.19 | 18.19 | 18.19 Mbytes
Step Temp Press TotEng PotEng Enthalpy 
  265495    175.96232   -186.20012   -121354.85   -121801.81    -121407.7 
  270000    148.49781   -456.43165   -121492.18   -121869.38   -121621.72 
Loop time of 605.545 on 1 procs for 4505 steps with 19652 atoms

Performance: 0.643 ns/day, 37.338 hours/ns, 7.440 timesteps/s
99.5% CPU use with 1 MPI tasks x no OpenMP threads

MPI task timing breakdown:
Section |  min time  |  avg time  |  max time  |%varavg| %total
---------------------------------------------------------------
Pair    | 333.68     | 333.68     | 333.68     |   0.0 | 55.10
Neigh   | 256.86     | 256.86     | 256.86     |   0.0 | 42.42
Comm    | 5.4781     | 5.4781     | 5.4781     |   0.0 |  0.90
Output  | 0.07032    | 0.07032    | 0.07032    |   0.0 |  0.01
Modify  | 7.3873     | 7.3873     | 7.3873     |   0.0 |  1.22
Other   |            | 2.076      |            |       |  0.34

Nlocal:    19652 ave 19652 max 19652 min
Histogram: 1 0 0 0 0 0 0 0 0 0
Nghost:    16132 ave 16132 max 16132 min
Histogram: 1 0 0 0 0 0 0 0 0 0
Neighs:    1.10642e+06 ave 1.10642e+06 max 1.10642e+06 min
Histogram: 1 0 0 0 0 0 0 0 0 0

Total # of neighbors = 1106423
Ave neighs/atom = 56.3008
Neighbor list builds = 4505
Dangerous builds not checked
Setting up Verlet run ...
  Unit style    : metal
  Current step  : 270000
  Time step     : 0.001
Per MPI rank memory allocation (min/avg/max) = 18.19 | 18.19 | 18.19 Mbytes
Step Temp Press TotEng PotEng Enthalpy 
  270000    148.49781   -456.43165   -121492.18   -121869.38   -121621.72 
  270495     127.2935    37.354251    -121610.4   -121933.74   -121599.81 
Loop time of 62.9965 on 1 procs for 495 steps with 19652 atoms

Performance: 0.679 ns/day, 35.352 hours/ns, 7.858 timesteps/s
98.9% CPU use with 1 MPI tasks x no OpenMP threads

MPI task timing breakdown:
Section |  min time  |  avg time  |  max time  |%varavg| %total
---------------------------------------------------------------
Pair    | 34.044     | 34.044     | 34.044     |   0.0 | 54.04
Neigh   | 27.423     | 27.423     | 27.423     |   0.0 | 43.53
Comm    | 0.54907    | 0.54907    | 0.54907    |   0.0 |  0.87
Output  | 0.00017381 | 0.00017381 | 0.00017381 |   0.0 |  0.00
Modify  | 0.76244    | 0.76244    | 0.76244    |   0.0 |  1.21
Other   |            | 0.2175     |            |       |  0.35

Nlocal:    19652 ave 19652 max 19652 min
Histogram: 1 0 0 0 0 0 0 0 0 0
Nghost:    16141 ave 16141 max 16141 min
Histogram: 1 0 0 0 0 0 0 0 0 0
Neighs:    1.10776e+06 ave 1.10776e+06 max 1.10776e+06 min
Histogram: 1 0 0 0 0 0 0 0 0 0

Total # of neighbors = 1107759
Ave neighs/atom = 56.3688
Neighbor list builds = 495
Dangerous builds not checked
Setting up Verlet run ...
  Unit style    : metal
  Current step  : 270495
  Time step     : 0.001
Per MPI rank memory allocation (min/avg/max) = 18.19 | 18.19 | 18.19 Mbytes
Step Temp Press TotEng PotEng Enthalpy 
  270495     127.2935    37.354251    -121610.4   -121933.74   -121599.81 
  275000    100.17315    83.236419   -121751.86   -122006.31   -121728.27 
Loop time of 594.429 on 1 procs for 4505 steps with 19652 atoms

Performance: 0.655 ns/day, 36.652 hours/ns, 7.579 timesteps/s
98.7% CPU use with 1 MPI tasks x no OpenMP threads

MPI task timing breakdown:
Section |  min time  |  avg time  |  max time  |%varavg| %total
---------------------------------------------------------------
Pair    | 326.88     | 326.88     | 326.88     |   0.0 | 54.99
Neigh   | 252.77     | 252.77     | 252.77     |   0.0 | 42.52
Comm    | 5.3659     | 5.3659     | 5.3659     |   0.0 |  0.90
Output  | 0.093292   | 0.093292   | 0.093292   |   0.0 |  0.02
Modify  | 7.3619     | 7.3619     | 7.3619     |   0.0 |  1.24
Other   |            | 1.961      |            |       |  0.33

Nlocal:    19652 ave 19652 max 19652 min
Histogram: 1 0 0 0 0 0 0 0 0 0
Nghost:    16123 ave 16123 max 16123 min
Histogram: 1 0 0 0 0 0 0 0 0 0
Neighs:    1.10838e+06 ave 1.10838e+06 max 1.10838e+06 min
Histogram: 1 0 0 0 0 0 0 0 0 0

Total # of neighbors = 1108381
Ave neighs/atom = 56.4004
Neighbor list builds = 4505
Dangerous builds not checked
Total wall time: 9:51:45
