LAMMPS (12 Dec 2018)
Lattice spacing in x,y,z = 4 4 4
Created orthogonal box = (0 0 0) to (68 68 68)
  1 by 1 by 1 MPI processor grid
Created 19652 atoms
  Time spent = 0.0038209 secs
Setting atom values ...
  19480 settings made for type/fraction
Neighbor list info ...
  update every 1 steps, delay 0 steps, check no
  max neighbors/atom: 2000, page size: 100000
  master list distance cutoff = 8.5
  ghost atom cutoff = 8.5
  binsize = 4.25, bins = 16 16 16
  1 neighbor lists, perpetual/occasional/extra = 1 0 0
  (1) pair eam/alloy, perpetual
      attributes: half, newton on
      pair build: half/bin/atomonly/newton
      stencil: half/bin/3d/newton
      bin: standard
Setting up Verlet run ...
  Unit style    : metal
  Current step  : 0
  Time step     : 0.001
Per MPI rank memory allocation (min/avg/max) = 18.19 | 18.19 | 18.19 Mbytes
Step Temp Press TotEng PotEng Enthalpy Volume 
       0          300    701299.96   -100796.08   -101558.11    36836.167       314432 
    1000    308.71225     593537.8   -100796.02   -101580.18    15687.571       314432 
Loop time of 155.777 on 1 procs for 1000 steps with 19652 atoms

Performance: 0.555 ns/day, 43.271 hours/ns, 6.419 timesteps/s
99.5% CPU use with 1 MPI tasks x no OpenMP threads

MPI task timing breakdown:
Section |  min time  |  avg time  |  max time  |%varavg| %total
---------------------------------------------------------------
Pair    | 86.136     | 86.136     | 86.136     |   0.0 | 55.29
Neigh   | 67.61      | 67.61      | 67.61      |   0.0 | 43.40
Comm    | 1.162      | 1.162      | 1.162      |   0.0 |  0.75
Output  | 0.069301   | 0.069301   | 0.069301   |   0.0 |  0.04
Modify  | 0.40674    | 0.40674    | 0.40674    |   0.0 |  0.26
Other   |            | 0.393      |            |       |  0.25

Nlocal:    19652 ave 19652 max 19652 min
Histogram: 1 0 0 0 0 0 0 0 0 0
Nghost:    19556 ave 19556 max 19556 min
Histogram: 1 0 0 0 0 0 0 0 0 0
Neighs:    1.58352e+06 ave 1.58352e+06 max 1.58352e+06 min
Histogram: 1 0 0 0 0 0 0 0 0 0

Total # of neighbors = 1583516
Ave neighs/atom = 80.5779
Neighbor list builds = 1000
Dangerous builds not checked
Setting up Verlet run ...
  Unit style    : metal
  Current step  : 1000
  Time step     : 0.001
Per MPI rank memory allocation (min/avg/max) = 18.19 | 18.19 | 18.19 Mbytes
Step Temp Press TotEng PotEng Enthalpy Volume 
    1000    308.71225     593537.8   -100796.02   -101580.18    15687.571       314432 
    2000    292.95102    14.308967   -122592.48    -123336.6   -122588.38    459585.51 
Loop time of 127.957 on 1 procs for 1000 steps with 19652 atoms

Performance: 0.675 ns/day, 35.544 hours/ns, 7.815 timesteps/s
98.8% CPU use with 1 MPI tasks x no OpenMP threads

MPI task timing breakdown:
Section |  min time  |  avg time  |  max time  |%varavg| %total
---------------------------------------------------------------
Pair    | 67.872     | 67.872     | 67.872     |   0.0 | 53.04
Neigh   | 57.151     | 57.151     | 57.151     |   0.0 | 44.66
Comm    | 1.0266     | 1.0266     | 1.0266     |   0.0 |  0.80
Output  | 0.07192    | 0.07192    | 0.07192    |   0.0 |  0.06
Modify  | 1.4637     | 1.4637     | 1.4637     |   0.0 |  1.14
Other   |            | 0.3718     |            |       |  0.29

Nlocal:    19652 ave 19652 max 19652 min
Histogram: 1 0 0 0 0 0 0 0 0 0
Nghost:    14809 ave 14809 max 14809 min
Histogram: 1 0 0 0 0 0 0 0 0 0
Neighs:    1.0802e+06 ave 1.0802e+06 max 1.0802e+06 min
Histogram: 1 0 0 0 0 0 0 0 0 0

Total # of neighbors = 1080197
Ave neighs/atom = 54.9663
Neighbor list builds = 1000
Dangerous builds not checked
Setting up Verlet run ...
  Unit style    : metal
  Current step  : 2000
  Time step     : 0.001
Per MPI rank memory allocation (min/avg/max) = 18.19 | 18.19 | 18.19 Mbytes
Step Temp Press TotEng PotEng Enthalpy Volume 
    2000    292.95102    14.308967   -122592.48    -123336.6   -122588.38    459585.51 
    3000    468.29137    204.56052   -121642.57   -122832.08   -121583.82    460134.93 
    4000    815.57373    6.5888931   -119847.01   -121918.64   -119845.11    462508.56 
    5000    1094.0683   -1214.4236   -118231.43   -121010.46    -118584.5    465803.83 
    6000    1360.8143   -757.86382   -116677.73   -120134.32    -116899.3    468408.91 
    7000    1639.5944   -1113.6835   -114994.09   -119158.81   -115322.07    471841.64 
    8000    1901.7791   -1050.0646   -113215.16   -118045.85   -113526.92    475684.88 
    9000    2141.3169   -1735.5923   -111068.15   -116507.29   -111589.59    481360.23 
   10000    2401.0684    3.3884704   -107962.37    -114061.3   -107961.33    488229.98 
Loop time of 939.372 on 1 procs for 8000 steps with 19652 atoms

Performance: 0.736 ns/day, 32.617 hours/ns, 8.516 timesteps/s
99.2% CPU use with 1 MPI tasks x no OpenMP threads

MPI task timing breakdown:
Section |  min time  |  avg time  |  max time  |%varavg| %total
---------------------------------------------------------------
Pair    | 496.41     | 496.41     | 496.41     |   0.0 | 52.84
Neigh   | 419.92     | 419.92     | 419.92     |   0.0 | 44.70
Comm    | 7.9074     | 7.9074     | 7.9074     |   0.0 |  0.84
Output  | 0.6876     | 0.6876     | 0.6876     |   0.0 |  0.07
Modify  | 11.428     | 11.428     | 11.428     |   0.0 |  1.22
Other   |            | 3.016      |            |       |  0.32

Nlocal:    19652 ave 19652 max 19652 min
Histogram: 1 0 0 0 0 0 0 0 0 0
Nghost:    15488 ave 15488 max 15488 min
Histogram: 1 0 0 0 0 0 0 0 0 0
Neighs:    1.00583e+06 ave 1.00583e+06 max 1.00583e+06 min
Histogram: 1 0 0 0 0 0 0 0 0 0

Total # of neighbors = 1005831
Ave neighs/atom = 51.1821
Neighbor list builds = 8000
Dangerous builds not checked
Setting up Verlet run ...
  Unit style    : metal
  Current step  : 10000
  Time step     : 0.001
Per MPI rank memory allocation (min/avg/max) = 18.19 | 18.19 | 18.19 Mbytes
Step Temp Press TotEng PotEng Enthalpy Volume 
   10000    2401.0684    3.3884704   -107962.37    -114061.3   -107961.33    488229.98 
   11000     2439.554    -200.1222   -106901.98   -113098.67    -106963.4    491725.84 
   12000    2436.9591   -761.71791   -106943.99   -113134.09      -107178     492201.4 
   13000    2443.7552   -1893.8371   -106815.87   -113023.23   -107399.08    493398.27 
   14000    2452.2938   -720.89639   -106841.04   -113070.09   -107062.58    492380.12 
   15000    2445.8205   -372.38499   -106930.19    -113142.8   -107044.49    491753.67 
   16000    2448.1068    228.24282    -106883.4   -113101.81   -106813.41    491268.36 
   17000    2445.9187    457.65694   -106928.86   -113141.72   -106788.56    491163.31 
   18000    2443.1431    1223.1536   -106836.06   -113041.87   -106461.36    490813.45 
   19000    2444.8304    1596.0442   -106909.81   -113119.91   -106421.39    490297.69 
   20000    2452.8741   -493.71124    -106838.7   -113069.22   -106990.32    492018.75 
   21000    2465.7269   -366.19841   -106785.95   -113049.12   -106898.44    492153.02 
   22000    2463.3554   -91.536049   -106820.98   -113078.13   -106849.08    491797.36 
   23000    2423.1987   -712.39342   -106945.92   -113101.07   -107164.89    492463.32 
   24000    2442.8292   -740.52853   -106872.57   -113077.58   -107100.15    492372.43 
   25000    2434.6826    590.23927   -106848.12   -113032.44   -106667.11    491344.37 
   26000    2459.0462    1139.2464    -106804.4    -113050.6   -106455.38    490850.66 
   27000    2480.9826    307.21691   -106773.47   -113075.39    -106679.2    491636.52 
   28000    2484.6933   -5.9995024   -106717.25    -113028.6   -106719.09     492167.3 
   29000    2439.5556     182.1058   -106896.99   -113093.69   -106841.15    491306.45 
   30000    2458.6261    605.24464   -106813.68   -113058.81   -106628.06    491351.57 
   31000    2459.6462    170.67907   -106837.84   -113085.57   -106785.46     491667.3 
   32000    2453.4457    243.12598   -106901.61   -113133.58   -106827.04    491396.87 
   33000     2468.987    809.97506   -106856.02   -113127.47   -106607.83    490943.38 
   34000    2470.6894   -436.20396   -106817.42   -113093.19   -106951.44     492250.8 
   35000     2445.561   -816.37859    -106828.2   -113040.15   -107079.26    492703.06 
   36000    2432.5432   -1393.7196   -106931.11      -113110   -107359.75    492748.49 
   37000     2430.678   -153.94143   -106919.56   -113093.71   -106966.82    491833.31 
   38000    2442.3797    893.81391   -106968.72   -113172.59   -106694.92    490798.94 
   39000    2436.7684    1278.3992   -106873.43   -113063.04   -106481.91    490684.66 
   40000    2449.9731     1368.147   -106875.26   -113098.41    -106456.2    490738.97 
Loop time of 3534.4 on 1 procs for 30000 steps with 19652 atoms

Performance: 0.733 ns/day, 32.726 hours/ns, 8.488 timesteps/s
98.6% CPU use with 1 MPI tasks x no OpenMP threads

MPI task timing breakdown:
Section |  min time  |  avg time  |  max time  |%varavg| %total
---------------------------------------------------------------
Pair    | 1814.4     | 1814.4     | 1814.4     |   0.0 | 51.34
Neigh   | 1625.5     | 1625.5     | 1625.5     |   0.0 | 45.99
Comm    | 29.527     | 29.527     | 29.527     |   0.0 |  0.84
Output  | 12.701     | 12.701     | 12.701     |   0.0 |  0.36
Modify  | 41.275     | 41.275     | 41.275     |   0.0 |  1.17
Other   |            | 10.98      |            |       |  0.31

Nlocal:    19652 ave 19652 max 19652 min
Histogram: 1 0 0 0 0 0 0 0 0 0
Nghost:    15667 ave 15667 max 15667 min
Histogram: 1 0 0 0 0 0 0 0 0 0
Neighs:    1.00162e+06 ave 1.00162e+06 max 1.00162e+06 min
Histogram: 1 0 0 0 0 0 0 0 0 0

Total # of neighbors = 1001619
Ave neighs/atom = 50.9678
Neighbor list builds = 30000
Dangerous builds not checked
Setting up Verlet run ...
  Unit style    : metal
  Current step  : 40000
  Time step     : 0.001
Per MPI rank memory allocation (min/avg/max) = 18.19 | 18.19 | 18.19 Mbytes
Step Temp Press TotEng PotEng Enthalpy Volume 
   40000    2449.9731     1368.147   -106875.26   -113098.41    -106456.2    490738.97 
   40495    2398.4099    720.95934   -107035.65   -113127.83   -106814.93    490513.08 
Loop time of 63.3362 on 1 procs for 495 steps with 19652 atoms

Performance: 0.675 ns/day, 35.542 hours/ns, 7.815 timesteps/s
98.9% CPU use with 1 MPI tasks x no OpenMP threads

MPI task timing breakdown:
Section |  min time  |  avg time  |  max time  |%varavg| %total
---------------------------------------------------------------
Pair    | 33.403     | 33.403     | 33.403     |   0.0 | 52.74
Neigh   | 28.404     | 28.404     | 28.404     |   0.0 | 44.85
Comm    | 0.54888    | 0.54888    | 0.54888    |   0.0 |  0.87
Output  | 0.000175   | 0.000175   | 0.000175   |   0.0 |  0.00
Modify  | 0.76611    | 0.76611    | 0.76611    |   0.0 |  1.21
Other   |            | 0.2147     |            |       |  0.34

Nlocal:    19652 ave 19652 max 19652 min
Histogram: 1 0 0 0 0 0 0 0 0 0
Nghost:    15561 ave 15561 max 15561 min
Histogram: 1 0 0 0 0 0 0 0 0 0
Neighs:    1.00209e+06 ave 1.00209e+06 max 1.00209e+06 min
Histogram: 1 0 0 0 0 0 0 0 0 0

Total # of neighbors = 1002090
Ave neighs/atom = 50.9918
Neighbor list builds = 495
Dangerous builds not checked
Setting up Verlet run ...
  Unit style    : metal
  Current step  : 40495
  Time step     : 0.001
Per MPI rank memory allocation (min/avg/max) = 18.19 | 18.19 | 18.19 Mbytes
Step Temp Press TotEng PotEng Enthalpy Volume 
   40495    2398.4099    720.95934   -107035.65   -113127.83   -106814.93    490513.08 
   41000    2385.0772     1272.511   -107195.66   -113253.97   -106806.65    489779.91 
Loop time of 65.2546 on 1 procs for 505 steps with 19652 atoms

Performance: 0.669 ns/day, 35.894 hours/ns, 7.739 timesteps/s
96.9% CPU use with 1 MPI tasks x no OpenMP threads

MPI task timing breakdown:
Section |  min time  |  avg time  |  max time  |%varavg| %total
---------------------------------------------------------------
Pair    | 34.143     | 34.143     | 34.143     |   0.0 | 52.32
Neigh   | 29.29      | 29.29      | 29.29      |   0.0 | 44.89
Comm    | 0.5554     | 0.5554     | 0.5554     |   0.0 |  0.85
Output  | 0.28804    | 0.28804    | 0.28804    |   0.0 |  0.44
Modify  | 0.77259    | 0.77259    | 0.77259    |   0.0 |  1.18
Other   |            | 0.2053     |            |       |  0.31

Nlocal:    19652 ave 19652 max 19652 min
Histogram: 1 0 0 0 0 0 0 0 0 0
Nghost:    15608 ave 15608 max 15608 min
Histogram: 1 0 0 0 0 0 0 0 0 0
Neighs:    1.00337e+06 ave 1.00337e+06 max 1.00337e+06 min
Histogram: 1 0 0 0 0 0 0 0 0 0

Total # of neighbors = 1003367
Ave neighs/atom = 51.0567
Neighbor list builds = 505
Dangerous builds not checked
Setting up Verlet run ...
  Unit style    : metal
  Current step  : 41000
  Time step     : 0.001
Per MPI rank memory allocation (min/avg/max) = 18.19 | 18.19 | 18.19 Mbytes
Step Temp Press TotEng PotEng Enthalpy Volume 
   41000    2385.0772     1272.511   -107195.66   -113253.97   -106806.65    489779.91 
   41495    2352.7423    1318.6922   -107440.27   -113416.45    -107037.7    489113.11 
Loop time of 60.7164 on 1 procs for 495 steps with 19652 atoms

Performance: 0.704 ns/day, 34.072 hours/ns, 8.153 timesteps/s
99.9% CPU use with 1 MPI tasks x no OpenMP threads

MPI task timing breakdown:
Section |  min time  |  avg time  |  max time  |%varavg| %total
---------------------------------------------------------------
Pair    | 31.952     | 31.952     | 31.952     |   0.0 | 52.62
Neigh   | 27.345     | 27.345     | 27.345     |   0.0 | 45.04
Comm    | 0.52571    | 0.52571    | 0.52571    |   0.0 |  0.87
Output  | 0.00015903 | 0.00015903 | 0.00015903 |   0.0 |  0.00
Modify  | 0.69866    | 0.69866    | 0.69866    |   0.0 |  1.15
Other   |            | 0.1953     |            |       |  0.32

Nlocal:    19652 ave 19652 max 19652 min
Histogram: 1 0 0 0 0 0 0 0 0 0
Nghost:    15654 ave 15654 max 15654 min
Histogram: 1 0 0 0 0 0 0 0 0 0
Neighs:    1.00524e+06 ave 1.00524e+06 max 1.00524e+06 min
Histogram: 1 0 0 0 0 0 0 0 0 0

Total # of neighbors = 1005245
Ave neighs/atom = 51.1523
Neighbor list builds = 495
Dangerous builds not checked
Setting up Verlet run ...
  Unit style    : metal
  Current step  : 41495
  Time step     : 0.001
Per MPI rank memory allocation (min/avg/max) = 18.19 | 18.19 | 18.19 Mbytes
Step Temp Press TotEng PotEng Enthalpy Volume 
   41495    2352.7423    1318.6922   -107440.27   -113416.45    -107037.7    489113.11 
   42000    2337.4915    1479.6412   -107528.69   -113466.13   -107077.03    489059.41 
Loop time of 60.5005 on 1 procs for 505 steps with 19652 atoms

Performance: 0.721 ns/day, 33.279 hours/ns, 8.347 timesteps/s
98.6% CPU use with 1 MPI tasks x no OpenMP threads

MPI task timing breakdown:
Section |  min time  |  avg time  |  max time  |%varavg| %total
---------------------------------------------------------------
Pair    | 31.408     | 31.408     | 31.408     |   0.0 | 51.91
Neigh   | 27.556     | 27.556     | 27.556     |   0.0 | 45.55
Comm    | 0.50572    | 0.50572    | 0.50572    |   0.0 |  0.84
Output  | 0.13826    | 0.13826    | 0.13826    |   0.0 |  0.23
Modify  | 0.69704    | 0.69704    | 0.69704    |   0.0 |  1.15
Other   |            | 0.1963     |            |       |  0.32

Nlocal:    19652 ave 19652 max 19652 min
Histogram: 1 0 0 0 0 0 0 0 0 0
Nghost:    15708 ave 15708 max 15708 min
Histogram: 1 0 0 0 0 0 0 0 0 0
Neighs:    1.00553e+06 ave 1.00553e+06 max 1.00553e+06 min
Histogram: 1 0 0 0 0 0 0 0 0 0

Total # of neighbors = 1005528
Ave neighs/atom = 51.1667
Neighbor list builds = 505
Dangerous builds not checked
Setting up Verlet run ...
  Unit style    : metal
  Current step  : 42000
  Time step     : 0.001
Per MPI rank memory allocation (min/avg/max) = 18.19 | 18.19 | 18.19 Mbytes
Step Temp Press TotEng PotEng Enthalpy Volume 
   42000    2337.4915    1479.6412   -107528.69   -113466.13   -107077.03    489059.41 
   42495    2303.2994    1721.4353   -107777.47   -113628.06   -107253.14    488002.12 
Loop time of 59.3047 on 1 procs for 495 steps with 19652 atoms

Performance: 0.721 ns/day, 33.280 hours/ns, 8.347 timesteps/s
99.7% CPU use with 1 MPI tasks x no OpenMP threads

MPI task timing breakdown:
Section |  min time  |  avg time  |  max time  |%varavg| %total
---------------------------------------------------------------
Pair    | 30.395     | 30.395     | 30.395     |   0.0 | 51.25
Neigh   | 27.418     | 27.418     | 27.418     |   0.0 | 46.23
Comm    | 0.51799    | 0.51799    | 0.51799    |   0.0 |  0.87
Output  | 0.00020313 | 0.00020313 | 0.00020313 |   0.0 |  0.00
Modify  | 0.76577    | 0.76577    | 0.76577    |   0.0 |  1.29
Other   |            | 0.2084     |            |       |  0.35

Nlocal:    19652 ave 19652 max 19652 min
Histogram: 1 0 0 0 0 0 0 0 0 0
Nghost:    15706 ave 15706 max 15706 min
Histogram: 1 0 0 0 0 0 0 0 0 0
Neighs:    1.0072e+06 ave 1.0072e+06 max 1.0072e+06 min
Histogram: 1 0 0 0 0 0 0 0 0 0

Total # of neighbors = 1007195
Ave neighs/atom = 51.2515
Neighbor list builds = 495
Dangerous builds not checked
Setting up Verlet run ...
  Unit style    : metal
  Current step  : 42495
  Time step     : 0.001
Per MPI rank memory allocation (min/avg/max) = 18.19 | 18.19 | 18.19 Mbytes
Step Temp Press TotEng PotEng Enthalpy Volume 
   42495    2303.2994    1721.4353   -107777.47   -113628.06   -107253.14    488002.12 
   43000     2334.906    1828.2101   -107722.15   -113653.03   -107165.01    488262.55 
Loop time of 64.2647 on 1 procs for 505 steps with 19652 atoms

Performance: 0.679 ns/day, 35.349 hours/ns, 7.858 timesteps/s
99.3% CPU use with 1 MPI tasks x no OpenMP threads

MPI task timing breakdown:
Section |  min time  |  avg time  |  max time  |%varavg| %total
---------------------------------------------------------------
Pair    | 33.758     | 33.758     | 33.758     |   0.0 | 52.53
Neigh   | 28.778     | 28.778     | 28.778     |   0.0 | 44.78
Comm    | 0.57583    | 0.57583    | 0.57583    |   0.0 |  0.90
Output  | 0.17862    | 0.17862    | 0.17862    |   0.0 |  0.28
Modify  | 0.7683     | 0.7683     | 0.7683     |   0.0 |  1.20
Other   |            | 0.2052     |            |       |  0.32

Nlocal:    19652 ave 19652 max 19652 min
Histogram: 1 0 0 0 0 0 0 0 0 0
Nghost:    15651 ave 15651 max 15651 min
Histogram: 1 0 0 0 0 0 0 0 0 0
Neighs:    1.00698e+06 ave 1.00698e+06 max 1.00698e+06 min
Histogram: 1 0 0 0 0 0 0 0 0 0

Total # of neighbors = 1006976
Ave neighs/atom = 51.2404
Neighbor list builds = 505
Dangerous builds not checked
Setting up Verlet run ...
  Unit style    : metal
  Current step  : 43000
  Time step     : 0.001
Per MPI rank memory allocation (min/avg/max) = 18.19 | 18.19 | 18.19 Mbytes
Step Temp Press TotEng PotEng Enthalpy Volume 
   43000     2334.906    1828.2101   -107722.15   -113653.03   -107165.01    488262.55 
   43495    2269.5231    1467.0129   -108060.73   -113825.53   -107614.73    487099.41 
Loop time of 54.0884 on 1 procs for 495 steps with 19652 atoms

Performance: 0.791 ns/day, 30.353 hours/ns, 9.152 timesteps/s
99.7% CPU use with 1 MPI tasks x no OpenMP threads

MPI task timing breakdown:
Section |  min time  |  avg time  |  max time  |%varavg| %total
---------------------------------------------------------------
Pair    | 27.723     | 27.723     | 27.723     |   0.0 | 51.25
Neigh   | 25.097     | 25.097     | 25.097     |   0.0 | 46.40
Comm    | 0.45458    | 0.45458    | 0.45458    |   0.0 |  0.84
Output  | 0.00012517 | 0.00012517 | 0.00012517 |   0.0 |  0.00
Modify  | 0.64164    | 0.64164    | 0.64164    |   0.0 |  1.19
Other   |            | 0.1727     |            |       |  0.32

Nlocal:    19652 ave 19652 max 19652 min
Histogram: 1 0 0 0 0 0 0 0 0 0
Nghost:    15706 ave 15706 max 15706 min
Histogram: 1 0 0 0 0 0 0 0 0 0
Neighs:    1.00988e+06 ave 1.00988e+06 max 1.00988e+06 min
Histogram: 1 0 0 0 0 0 0 0 0 0

Total # of neighbors = 1009883
Ave neighs/atom = 51.3883
Neighbor list builds = 495
Dangerous builds not checked
Setting up Verlet run ...
  Unit style    : metal
  Current step  : 43495
  Time step     : 0.001
Per MPI rank memory allocation (min/avg/max) = 18.19 | 18.19 | 18.19 Mbytes
Step Temp Press TotEng PotEng Enthalpy Volume 
   43495    2269.5231    1467.0129   -108060.73   -113825.53   -107614.73    487099.41 
   44000    2247.0606    1054.1285    -108183.9   -113891.64   -107863.38    487167.77 
Loop time of 56.4267 on 1 procs for 505 steps with 19652 atoms

Performance: 0.773 ns/day, 31.038 hours/ns, 8.950 timesteps/s
99.1% CPU use with 1 MPI tasks x no OpenMP threads

MPI task timing breakdown:
Section |  min time  |  avg time  |  max time  |%varavg| %total
---------------------------------------------------------------
Pair    | 28.776     | 28.776     | 28.776     |   0.0 | 51.00
Neigh   | 26.148     | 26.148     | 26.148     |   0.0 | 46.34
Comm    | 0.47909    | 0.47909    | 0.47909    |   0.0 |  0.85
Output  | 0.18021    | 0.18021    | 0.18021    |   0.0 |  0.32
Modify  | 0.67023    | 0.67023    | 0.67023    |   0.0 |  1.19
Other   |            | 0.1733     |            |       |  0.31

Nlocal:    19652 ave 19652 max 19652 min
Histogram: 1 0 0 0 0 0 0 0 0 0
Nghost:    15767 ave 15767 max 15767 min
Histogram: 1 0 0 0 0 0 0 0 0 0
Neighs:    1.00943e+06 ave 1.00943e+06 max 1.00943e+06 min
Histogram: 1 0 0 0 0 0 0 0 0 0

Total # of neighbors = 1009427
Ave neighs/atom = 51.3651
Neighbor list builds = 505
Dangerous builds not checked
Setting up Verlet run ...
  Unit style    : metal
  Current step  : 44000
  Time step     : 0.001
Per MPI rank memory allocation (min/avg/max) = 18.19 | 18.19 | 18.19 Mbytes
Step Temp Press TotEng PotEng Enthalpy Volume 
   44000    2247.0606    1054.1285    -108183.9   -113891.64   -107863.38    487167.77 
   44495    2225.8986    971.58742   -108338.57   -113992.56   -108043.41    486740.63 
Loop time of 56.3178 on 1 procs for 495 steps with 19652 atoms

Performance: 0.759 ns/day, 31.604 hours/ns, 8.789 timesteps/s
99.6% CPU use with 1 MPI tasks x no OpenMP threads

MPI task timing breakdown:
Section |  min time  |  avg time  |  max time  |%varavg| %total
---------------------------------------------------------------
Pair    | 28.934     | 28.934     | 28.934     |   0.0 | 51.38
Neigh   | 26.04      | 26.04      | 26.04      |   0.0 | 46.24
Comm    | 0.47972    | 0.47972    | 0.47972    |   0.0 |  0.85
Output  | 0.000144   | 0.000144   | 0.000144   |   0.0 |  0.00
Modify  | 0.68777    | 0.68777    | 0.68777    |   0.0 |  1.22
Other   |            | 0.1768     |            |       |  0.31

Nlocal:    19652 ave 19652 max 19652 min
Histogram: 1 0 0 0 0 0 0 0 0 0
Nghost:    15659 ave 15659 max 15659 min
Histogram: 1 0 0 0 0 0 0 0 0 0
Neighs:    1.01047e+06 ave 1.01047e+06 max 1.01047e+06 min
Histogram: 1 0 0 0 0 0 0 0 0 0

Total # of neighbors = 1010468
Ave neighs/atom = 51.4181
Neighbor list builds = 495
Dangerous builds not checked
Setting up Verlet run ...
  Unit style    : metal
  Current step  : 44495
  Time step     : 0.001
Per MPI rank memory allocation (min/avg/max) = 18.19 | 18.19 | 18.19 Mbytes
Step Temp Press TotEng PotEng Enthalpy Volume 
   44495    2225.8986    971.58742   -108338.57   -113992.56   -108043.41    486740.63 
   45000    2203.9709    1305.6263   -108491.86   -114090.15   -108095.52     486355.8 
Loop time of 57.829 on 1 procs for 505 steps with 19652 atoms

Performance: 0.755 ns/day, 31.809 hours/ns, 8.733 timesteps/s
98.6% CPU use with 1 MPI tasks x no OpenMP threads

MPI task timing breakdown:
Section |  min time  |  avg time  |  max time  |%varavg| %total
---------------------------------------------------------------
Pair    | 29.514     | 29.514     | 29.514     |   0.0 | 51.04
Neigh   | 26.581     | 26.581     | 26.581     |   0.0 | 45.97
Comm    | 0.48458    | 0.48458    | 0.48458    |   0.0 |  0.84
Output  | 0.37269    | 0.37269    | 0.37269    |   0.0 |  0.64
Modify  | 0.69903    | 0.69903    | 0.69903    |   0.0 |  1.21
Other   |            | 0.1773     |            |       |  0.31

Nlocal:    19652 ave 19652 max 19652 min
Histogram: 1 0 0 0 0 0 0 0 0 0
Nghost:    15659 ave 15659 max 15659 min
Histogram: 1 0 0 0 0 0 0 0 0 0
Neighs:    1.01121e+06 ave 1.01121e+06 max 1.01121e+06 min
Histogram: 1 0 0 0 0 0 0 0 0 0

Total # of neighbors = 1011211
Ave neighs/atom = 51.4559
Neighbor list builds = 505
Dangerous builds not checked
Setting up Verlet run ...
  Unit style    : metal
  Current step  : 45000
  Time step     : 0.001
Per MPI rank memory allocation (min/avg/max) = 18.19 | 18.19 | 18.19 Mbytes
Step Temp Press TotEng PotEng Enthalpy Volume 
   45000    2203.9709    1305.6263   -108491.86   -114090.15   -108095.52     486355.8 
   45495    2178.8901    812.85949    -108709.2   -114243.78   -108462.66    485934.44 
Loop time of 56.461 on 1 procs for 495 steps with 19652 atoms

Performance: 0.757 ns/day, 31.684 hours/ns, 8.767 timesteps/s
98.4% CPU use with 1 MPI tasks x no OpenMP threads

MPI task timing breakdown:
Section |  min time  |  avg time  |  max time  |%varavg| %total
---------------------------------------------------------------
Pair    | 28.935     | 28.935     | 28.935     |   0.0 | 51.25
Neigh   | 26.181     | 26.181     | 26.181     |   0.0 | 46.37
Comm    | 0.48986    | 0.48986    | 0.48986    |   0.0 |  0.87
Output  | 0.00016999 | 0.00016999 | 0.00016999 |   0.0 |  0.00
Modify  | 0.67936    | 0.67936    | 0.67936    |   0.0 |  1.20
Other   |            | 0.1762     |            |       |  0.31

Nlocal:    19652 ave 19652 max 19652 min
Histogram: 1 0 0 0 0 0 0 0 0 0
Nghost:    15669 ave 15669 max 15669 min
Histogram: 1 0 0 0 0 0 0 0 0 0
Neighs:    1.01216e+06 ave 1.01216e+06 max 1.01216e+06 min
Histogram: 1 0 0 0 0 0 0 0 0 0

Total # of neighbors = 1012158
Ave neighs/atom = 51.5041
Neighbor list builds = 495
Dangerous builds not checked
Setting up Verlet run ...
  Unit style    : metal
  Current step  : 45495
  Time step     : 0.001
Per MPI rank memory allocation (min/avg/max) = 18.19 | 18.19 | 18.19 Mbytes
Step Temp Press TotEng PotEng Enthalpy Volume 
   45495    2178.8901    812.85949    -108709.2   -114243.78   -108462.66    485934.44 
   46000     2143.319    1366.1705   -108792.82   -114237.04   -108378.83    485501.06 
Loop time of 53.2607 on 1 procs for 505 steps with 19652 atoms

Performance: 0.819 ns/day, 29.296 hours/ns, 9.482 timesteps/s
99.1% CPU use with 1 MPI tasks x no OpenMP threads

MPI task timing breakdown:
Section |  min time  |  avg time  |  max time  |%varavg| %total
---------------------------------------------------------------
Pair    | 26.976     | 26.976     | 26.976     |   0.0 | 50.65
Neigh   | 24.817     | 24.817     | 24.817     |   0.0 | 46.60
Comm    | 0.44289    | 0.44289    | 0.44289    |   0.0 |  0.83
Output  | 0.23674    | 0.23674    | 0.23674    |   0.0 |  0.44
Modify  | 0.62588    | 0.62588    | 0.62588    |   0.0 |  1.18
Other   |            | 0.1621     |            |       |  0.30

Nlocal:    19652 ave 19652 max 19652 min
Histogram: 1 0 0 0 0 0 0 0 0 0
Nghost:    15763 ave 15763 max 15763 min
Histogram: 1 0 0 0 0 0 0 0 0 0
Neighs:    1.01312e+06 ave 1.01312e+06 max 1.01312e+06 min
Histogram: 1 0 0 0 0 0 0 0 0 0

Total # of neighbors = 1013120
Ave neighs/atom = 51.553
Neighbor list builds = 505
Dangerous builds not checked
Setting up Verlet run ...
  Unit style    : metal
  Current step  : 46000
  Time step     : 0.001
Per MPI rank memory allocation (min/avg/max) = 18.19 | 18.19 | 18.19 Mbytes
Step Temp Press TotEng PotEng Enthalpy Volume 
   46000     2143.319    1366.1705   -108792.82   -114237.04   -108378.83    485501.06 
   46495     2113.508    1080.8342   -109063.63   -114432.13   -108736.31    485198.74 
Loop time of 55.2694 on 1 procs for 495 steps with 19652 atoms

Performance: 0.774 ns/day, 31.015 hours/ns, 8.956 timesteps/s
99.2% CPU use with 1 MPI tasks x no OpenMP threads

MPI task timing breakdown:
Section |  min time  |  avg time  |  max time  |%varavg| %total
---------------------------------------------------------------
Pair    | 28.462     | 28.462     | 28.462     |   0.0 | 51.50
Neigh   | 25.53      | 25.53      | 25.53      |   0.0 | 46.19
Comm    | 0.45685    | 0.45685    | 0.45685    |   0.0 |  0.83
Output  | 0.00016999 | 0.00016999 | 0.00016999 |   0.0 |  0.00
Modify  | 0.65199    | 0.65199    | 0.65199    |   0.0 |  1.18
Other   |            | 0.1679     |            |       |  0.30

Nlocal:    19652 ave 19652 max 19652 min
Histogram: 1 0 0 0 0 0 0 0 0 0
Nghost:    15676 ave 15676 max 15676 min
Histogram: 1 0 0 0 0 0 0 0 0 0
Neighs:    1.01431e+06 ave 1.01431e+06 max 1.01431e+06 min
Histogram: 1 0 0 0 0 0 0 0 0 0

Total # of neighbors = 1014306
Ave neighs/atom = 51.6134
Neighbor list builds = 495
Dangerous builds not checked
Setting up Verlet run ...
  Unit style    : metal
  Current step  : 46495
  Time step     : 0.001
Per MPI rank memory allocation (min/avg/max) = 18.19 | 18.19 | 18.19 Mbytes
Step Temp Press TotEng PotEng Enthalpy Volume 
   46495     2113.508    1080.8342   -109063.63   -114432.13   -108736.31    485198.74 
   47000    2098.5213    1150.7338   -109178.27   -114508.71   -108830.22    484586.74 
Loop time of 52.9758 on 1 procs for 505 steps with 19652 atoms

Performance: 0.824 ns/day, 29.140 hours/ns, 9.533 timesteps/s
98.7% CPU use with 1 MPI tasks x no OpenMP threads

MPI task timing breakdown:
Section |  min time  |  avg time  |  max time  |%varavg| %total
---------------------------------------------------------------
Pair    | 26.871     | 26.871     | 26.871     |   0.0 | 50.72
Neigh   | 24.639     | 24.639     | 24.639     |   0.0 | 46.51
Comm    | 0.43902    | 0.43902    | 0.43902    |   0.0 |  0.83
Output  | 0.22929    | 0.22929    | 0.22929    |   0.0 |  0.43
Modify  | 0.63251    | 0.63251    | 0.63251    |   0.0 |  1.19
Other   |            | 0.1645     |            |       |  0.31

Nlocal:    19652 ave 19652 max 19652 min
Histogram: 1 0 0 0 0 0 0 0 0 0
Nghost:    15704 ave 15704 max 15704 min
Histogram: 1 0 0 0 0 0 0 0 0 0
Neighs:    1.01578e+06 ave 1.01578e+06 max 1.01578e+06 min
Histogram: 1 0 0 0 0 0 0 0 0 0

Total # of neighbors = 1015785
Ave neighs/atom = 51.6886
Neighbor list builds = 505
Dangerous builds not checked
Setting up Verlet run ...
  Unit style    : metal
  Current step  : 47000
  Time step     : 0.001
Per MPI rank memory allocation (min/avg/max) = 18.19 | 18.19 | 18.19 Mbytes
Step Temp Press TotEng PotEng Enthalpy Volume 
   47000    2098.5213    1150.7338   -109178.27   -114508.71   -108830.22    484586.74 
   47495    2059.1053     660.7925   -109408.37   -114638.68   -109208.56    484451.15 
Loop time of 53.4251 on 1 procs for 495 steps with 19652 atoms

Performance: 0.801 ns/day, 29.980 hours/ns, 9.265 timesteps/s
99.0% CPU use with 1 MPI tasks x no OpenMP threads

MPI task timing breakdown:
Section |  min time  |  avg time  |  max time  |%varavg| %total
---------------------------------------------------------------
Pair    | 27.241     | 27.241     | 27.241     |   0.0 | 50.99
Neigh   | 24.919     | 24.919     | 24.919     |   0.0 | 46.64
Comm    | 0.44197    | 0.44197    | 0.44197    |   0.0 |  0.83
Output  | 0.00013709 | 0.00013709 | 0.00013709 |   0.0 |  0.00
Modify  | 0.65948    | 0.65948    | 0.65948    |   0.0 |  1.23
Other   |            | 0.1638     |            |       |  0.31

Nlocal:    19652 ave 19652 max 19652 min
Histogram: 1 0 0 0 0 0 0 0 0 0
Nghost:    15678 ave 15678 max 15678 min
Histogram: 1 0 0 0 0 0 0 0 0 0
Neighs:    1.01579e+06 ave 1.01579e+06 max 1.01579e+06 min
Histogram: 1 0 0 0 0 0 0 0 0 0

Total # of neighbors = 1015792
Ave neighs/atom = 51.689
Neighbor list builds = 495
Dangerous builds not checked
Setting up Verlet run ...
  Unit style    : metal
  Current step  : 47495
  Time step     : 0.001
Per MPI rank memory allocation (min/avg/max) = 18.19 | 18.19 | 18.19 Mbytes
Step Temp Press TotEng PotEng Enthalpy Volume 
   47495    2059.1053     660.7925   -109408.37   -114638.68   -109208.56    484451.15 
   48000    2061.6111    770.27695   -109479.09   -114715.77   -109246.35    484096.86 
Loop time of 53.0823 on 1 procs for 505 steps with 19652 atoms

Performance: 0.822 ns/day, 29.198 hours/ns, 9.514 timesteps/s
99.6% CPU use with 1 MPI tasks x no OpenMP threads

MPI task timing breakdown:
Section |  min time  |  avg time  |  max time  |%varavg| %total
---------------------------------------------------------------
Pair    | 26.941     | 26.941     | 26.941     |   0.0 | 50.75
Neigh   | 24.753     | 24.753     | 24.753     |   0.0 | 46.63
Comm    | 0.43842    | 0.43842    | 0.43842    |   0.0 |  0.83
Output  | 0.15826    | 0.15826    | 0.15826    |   0.0 |  0.30
Modify  | 0.63035    | 0.63035    | 0.63035    |   0.0 |  1.19
Other   |            | 0.161      |            |       |  0.30

Nlocal:    19652 ave 19652 max 19652 min
Histogram: 1 0 0 0 0 0 0 0 0 0
Nghost:    15690 ave 15690 max 15690 min
Histogram: 1 0 0 0 0 0 0 0 0 0
Neighs:    1.01718e+06 ave 1.01718e+06 max 1.01718e+06 min
Histogram: 1 0 0 0 0 0 0 0 0 0

Total # of neighbors = 1017183
Ave neighs/atom = 51.7598
Neighbor list builds = 505
Dangerous builds not checked
Setting up Verlet run ...
  Unit style    : metal
  Current step  : 48000
  Time step     : 0.001
Per MPI rank memory allocation (min/avg/max) = 18.19 | 18.19 | 18.19 Mbytes
Step Temp Press TotEng PotEng Enthalpy Volume 
   48000    2061.6111    770.27695   -109479.09   -114715.77   -109246.35    484096.86 
   48495    2036.3914    1289.6114   -109725.98    -114898.6   -109337.15    483079.75 
Loop time of 47.5975 on 1 procs for 495 steps with 19652 atoms

Performance: 0.899 ns/day, 26.710 hours/ns, 10.400 timesteps/s
99.4% CPU use with 1 MPI tasks x no OpenMP threads

MPI task timing breakdown:
Section |  min time  |  avg time  |  max time  |%varavg| %total
---------------------------------------------------------------
Pair    | 24.075     | 24.075     | 24.075     |   0.0 | 50.58
Neigh   | 22.436     | 22.436     | 22.436     |   0.0 | 47.14
Comm    | 0.39376    | 0.39376    | 0.39376    |   0.0 |  0.83
Output  | 0.00012302 | 0.00012302 | 0.00012302 |   0.0 |  0.00
Modify  | 0.55119    | 0.55119    | 0.55119    |   0.0 |  1.16
Other   |            | 0.1414     |            |       |  0.30

Nlocal:    19652 ave 19652 max 19652 min
Histogram: 1 0 0 0 0 0 0 0 0 0
Nghost:    15777 ave 15777 max 15777 min
Histogram: 1 0 0 0 0 0 0 0 0 0
Neighs:    1.01936e+06 ave 1.01936e+06 max 1.01936e+06 min
Histogram: 1 0 0 0 0 0 0 0 0 0

Total # of neighbors = 1019355
Ave neighs/atom = 51.8703
Neighbor list builds = 495
Dangerous builds not checked
Setting up Verlet run ...
  Unit style    : metal
  Current step  : 48495
  Time step     : 0.001
Per MPI rank memory allocation (min/avg/max) = 18.19 | 18.19 | 18.19 Mbytes
Step Temp Press TotEng PotEng Enthalpy Volume 
   48495    2036.3914    1289.6114   -109725.98    -114898.6   -109337.15    483079.75 
   49000    1989.8472    1699.2549   -109879.09   -114933.49   -109367.24    482612.02 
Loop time of 44.0189 on 1 procs for 505 steps with 19652 atoms

Performance: 0.991 ns/day, 24.213 hours/ns, 11.472 timesteps/s
99.7% CPU use with 1 MPI tasks x no OpenMP threads

MPI task timing breakdown:
Section |  min time  |  avg time  |  max time  |%varavg| %total
---------------------------------------------------------------
Pair    | 21.895     | 21.895     | 21.895     |   0.0 | 49.74
Neigh   | 21.083     | 21.083     | 21.083     |   0.0 | 47.90
Comm    | 0.3523     | 0.3523     | 0.3523     |   0.0 |  0.80
Output  | 0.070687   | 0.070687   | 0.070687   |   0.0 |  0.16
Modify  | 0.49063    | 0.49063    | 0.49063    |   0.0 |  1.11
Other   |            | 0.1274     |            |       |  0.29

Nlocal:    19652 ave 19652 max 19652 min
Histogram: 1 0 0 0 0 0 0 0 0 0
Nghost:    15670 ave 15670 max 15670 min
Histogram: 1 0 0 0 0 0 0 0 0 0
Neighs:    1.02058e+06 ave 1.02058e+06 max 1.02058e+06 min
Histogram: 1 0 0 0 0 0 0 0 0 0

Total # of neighbors = 1020575
Ave neighs/atom = 51.9324
Neighbor list builds = 505
Dangerous builds not checked
Setting up Verlet run ...
  Unit style    : metal
  Current step  : 49000
  Time step     : 0.001
Per MPI rank memory allocation (min/avg/max) = 18.19 | 18.19 | 18.19 Mbytes
Step Temp Press TotEng PotEng Enthalpy Volume 
   49000    1989.8472    1699.2549   -109879.09   -114933.49   -109367.24    482612.02 
   49495    1970.6017    1257.8403   -110067.88   -115073.39   -109689.09    482487.32 
Loop time of 46.6061 on 1 procs for 495 steps with 19652 atoms

Performance: 0.918 ns/day, 26.154 hours/ns, 10.621 timesteps/s
99.5% CPU use with 1 MPI tasks x no OpenMP threads

MPI task timing breakdown:
Section |  min time  |  avg time  |  max time  |%varavg| %total
---------------------------------------------------------------
Pair    | 23.589     | 23.589     | 23.589     |   0.0 | 50.61
Neigh   | 21.984     | 21.984     | 21.984     |   0.0 | 47.17
Comm    | 0.37424    | 0.37424    | 0.37424    |   0.0 |  0.80
Output  | 0.00016499 | 0.00016499 | 0.00016499 |   0.0 |  0.00
Modify  | 0.52293    | 0.52293    | 0.52293    |   0.0 |  1.12
Other   |            | 0.1356     |            |       |  0.29

Nlocal:    19652 ave 19652 max 19652 min
Histogram: 1 0 0 0 0 0 0 0 0 0
Nghost:    15751 ave 15751 max 15751 min
Histogram: 1 0 0 0 0 0 0 0 0 0
Neighs:    1.02071e+06 ave 1.02071e+06 max 1.02071e+06 min
Histogram: 1 0 0 0 0 0 0 0 0 0

Total # of neighbors = 1020711
Ave neighs/atom = 51.9393
Neighbor list builds = 495
Dangerous builds not checked
Setting up Verlet run ...
  Unit style    : metal
  Current step  : 49495
  Time step     : 0.001
Per MPI rank memory allocation (min/avg/max) = 18.19 | 18.19 | 18.19 Mbytes
Step Temp Press TotEng PotEng Enthalpy Volume 
   49495    1970.6017    1257.8403   -110067.88   -115073.39   -109689.09    482487.32 
   50000    1936.0906     993.9041   -110148.92   -115066.77   -109849.54    482604.73 
Loop time of 49.2336 on 1 procs for 505 steps with 19652 atoms

Performance: 0.886 ns/day, 27.081 hours/ns, 10.257 timesteps/s
98.6% CPU use with 1 MPI tasks x no OpenMP threads

MPI task timing breakdown:
Section |  min time  |  avg time  |  max time  |%varavg| %total
---------------------------------------------------------------
Pair    | 24.541     | 24.541     | 24.541     |   0.0 | 49.85
Neigh   | 22.942     | 22.942     | 22.942     |   0.0 | 46.60
Comm    | 0.399      | 0.399      | 0.399      |   0.0 |  0.81
Output  | 0.64395    | 0.64395    | 0.64395    |   0.0 |  1.31
Modify  | 0.56281    | 0.56281    | 0.56281    |   0.0 |  1.14
Other   |            | 0.1453     |            |       |  0.30

Nlocal:    19652 ave 19652 max 19652 min
Histogram: 1 0 0 0 0 0 0 0 0 0
Nghost:    15667 ave 15667 max 15667 min
Histogram: 1 0 0 0 0 0 0 0 0 0
Neighs:    1.02068e+06 ave 1.02068e+06 max 1.02068e+06 min
Histogram: 1 0 0 0 0 0 0 0 0 0

Total # of neighbors = 1020681
Ave neighs/atom = 51.9378
Neighbor list builds = 505
Dangerous builds not checked
Setting up Verlet run ...
  Unit style    : metal
  Current step  : 50000
  Time step     : 0.001
Per MPI rank memory allocation (min/avg/max) = 18.19 | 18.19 | 18.19 Mbytes
Step Temp Press TotEng PotEng Enthalpy Volume 
   50000    1936.0906     993.9041   -110148.92   -115066.77   -109849.54    482604.73 
   50495    1926.7103     768.4033    -110404.5   -115298.52   -110173.43    481797.78 
Loop time of 50.6291 on 1 procs for 495 steps with 19652 atoms

Performance: 0.845 ns/day, 28.411 hours/ns, 9.777 timesteps/s
99.8% CPU use with 1 MPI tasks x no OpenMP threads

MPI task timing breakdown:
Section |  min time  |  avg time  |  max time  |%varavg| %total
---------------------------------------------------------------
Pair    | 25.805     | 25.805     | 25.805     |   0.0 | 50.97
Neigh   | 23.665     | 23.665     | 23.665     |   0.0 | 46.74
Comm    | 0.41933    | 0.41933    | 0.41933    |   0.0 |  0.83
Output  | 0.00013089 | 0.00013089 | 0.00013089 |   0.0 |  0.00
Modify  | 0.58756    | 0.58756    | 0.58756    |   0.0 |  1.16
Other   |            | 0.1525     |            |       |  0.30

Nlocal:    19652 ave 19652 max 19652 min
Histogram: 1 0 0 0 0 0 0 0 0 0
Nghost:    15773 ave 15773 max 15773 min
Histogram: 1 0 0 0 0 0 0 0 0 0
Neighs:    1.02267e+06 ave 1.02267e+06 max 1.02267e+06 min
Histogram: 1 0 0 0 0 0 0 0 0 0

Total # of neighbors = 1022671
Ave neighs/atom = 52.039
Neighbor list builds = 495
Dangerous builds not checked
Setting up Verlet run ...
  Unit style    : metal
  Current step  : 50495
  Time step     : 0.001
Per MPI rank memory allocation (min/avg/max) = 18.19 | 18.19 | 18.19 Mbytes
Step Temp Press TotEng PotEng Enthalpy Volume 
   50495    1926.7103     768.4033    -110404.5   -115298.52   -110173.43    481797.78 
   51000    1884.9919    510.01248   -110535.69   -115323.74   -110382.35    481725.24 
Loop time of 47.4587 on 1 procs for 505 steps with 19652 atoms

Performance: 0.919 ns/day, 26.105 hours/ns, 10.641 timesteps/s
99.7% CPU use with 1 MPI tasks x no OpenMP threads

MPI task timing breakdown:
Section |  min time  |  avg time  |  max time  |%varavg| %total
---------------------------------------------------------------
Pair    | 23.875     | 23.875     | 23.875     |   0.0 | 50.31
Neigh   | 22.336     | 22.336     | 22.336     |   0.0 | 47.06
Comm    | 0.39183    | 0.39183    | 0.39183    |   0.0 |  0.83
Output  | 0.17111    | 0.17111    | 0.17111    |   0.0 |  0.36
Modify  | 0.54354    | 0.54354    | 0.54354    |   0.0 |  1.15
Other   |            | 0.1411     |            |       |  0.30

Nlocal:    19652 ave 19652 max 19652 min
Histogram: 1 0 0 0 0 0 0 0 0 0
Nghost:    15813 ave 15813 max 15813 min
Histogram: 1 0 0 0 0 0 0 0 0 0
Neighs:    1.02286e+06 ave 1.02286e+06 max 1.02286e+06 min
Histogram: 1 0 0 0 0 0 0 0 0 0

Total # of neighbors = 1022861
Ave neighs/atom = 52.0487
Neighbor list builds = 505
Dangerous builds not checked
Setting up Verlet run ...
  Unit style    : metal
  Current step  : 51000
  Time step     : 0.001
Per MPI rank memory allocation (min/avg/max) = 18.19 | 18.19 | 18.19 Mbytes
Step Temp Press TotEng PotEng Enthalpy Volume 
   51000    1884.9919    510.01248   -110535.69   -115323.74   -110382.35    481725.24 
   51495    1854.0301    595.11339   -110755.67   -115465.07   -110576.96    481101.54 
Loop time of 43.4032 on 1 procs for 495 steps with 19652 atoms

Performance: 0.985 ns/day, 24.356 hours/ns, 11.405 timesteps/s
100.0% CPU use with 1 MPI tasks x no OpenMP threads

MPI task timing breakdown:
Section |  min time  |  avg time  |  max time  |%varavg| %total
---------------------------------------------------------------
Pair    | 21.734     | 21.734     | 21.734     |   0.0 | 50.08
Neigh   | 20.713     | 20.713     | 20.713     |   0.0 | 47.72
Comm    | 0.34961    | 0.34961    | 0.34961    |   0.0 |  0.81
Output  | 0.00012684 | 0.00012684 | 0.00012684 |   0.0 |  0.00
Modify  | 0.48112    | 0.48112    | 0.48112    |   0.0 |  1.11
Other   |            | 0.1247     |            |       |  0.29

Nlocal:    19652 ave 19652 max 19652 min
Histogram: 1 0 0 0 0 0 0 0 0 0
Nghost:    15805 ave 15805 max 15805 min
Histogram: 1 0 0 0 0 0 0 0 0 0
Neighs:    1.02452e+06 ave 1.02452e+06 max 1.02452e+06 min
Histogram: 1 0 0 0 0 0 0 0 0 0

Total # of neighbors = 1024524
Ave neighs/atom = 52.1333
Neighbor list builds = 495
Dangerous builds not checked
Setting up Verlet run ...
  Unit style    : metal
  Current step  : 51495
  Time step     : 0.001
Per MPI rank memory allocation (min/avg/max) = 18.19 | 18.19 | 18.19 Mbytes
Step Temp Press TotEng PotEng Enthalpy Volume 
   51495    1854.0301    595.11339   -110755.67   -115465.07   -110576.96    481101.54 
   52000    1855.2522    626.27312   -110865.12   -115577.63   -110677.13    480928.67 
Loop time of 44.0933 on 1 procs for 505 steps with 19652 atoms

Performance: 0.990 ns/day, 24.254 hours/ns, 11.453 timesteps/s
100.0% CPU use with 1 MPI tasks x no OpenMP threads

MPI task timing breakdown:
Section |  min time  |  avg time  |  max time  |%varavg| %total
---------------------------------------------------------------
Pair    | 22.035     | 22.035     | 22.035     |   0.0 | 49.97
Neigh   | 21.034     | 21.034     | 21.034     |   0.0 | 47.70
Comm    | 0.35631    | 0.35631    | 0.35631    |   0.0 |  0.81
Output  | 0.052454   | 0.052454   | 0.052454   |   0.0 |  0.12
Modify  | 0.48834    | 0.48834    | 0.48834    |   0.0 |  1.11
Other   |            | 0.1268     |            |       |  0.29

Nlocal:    19652 ave 19652 max 19652 min
Histogram: 1 0 0 0 0 0 0 0 0 0
Nghost:    15759 ave 15759 max 15759 min
Histogram: 1 0 0 0 0 0 0 0 0 0
Neighs:    1.02513e+06 ave 1.02513e+06 max 1.02513e+06 min
Histogram: 1 0 0 0 0 0 0 0 0 0

Total # of neighbors = 1025133
Ave neighs/atom = 52.1643
Neighbor list builds = 505
Dangerous builds not checked
Setting up Verlet run ...
  Unit style    : metal
  Current step  : 52000
  Time step     : 0.001
Per MPI rank memory allocation (min/avg/max) = 18.19 | 18.19 | 18.19 Mbytes
Step Temp Press TotEng PotEng Enthalpy Volume 
   52000    1855.2522    626.27312   -110865.12   -115577.63   -110677.13    480928.67 
   52495    1812.1298    498.11987   -111043.26   -115646.24   -110893.89    480448.73 
Loop time of 43.4134 on 1 procs for 495 steps with 19652 atoms

Performance: 0.985 ns/day, 24.362 hours/ns, 11.402 timesteps/s
99.7% CPU use with 1 MPI tasks x no OpenMP threads

MPI task timing breakdown:
Section |  min time  |  avg time  |  max time  |%varavg| %total
---------------------------------------------------------------
Pair    | 21.736     | 21.736     | 21.736     |   0.0 | 50.07
Neigh   | 20.719     | 20.719     | 20.719     |   0.0 | 47.72
Comm    | 0.35082    | 0.35082    | 0.35082    |   0.0 |  0.81
Output  | 0.00013304 | 0.00013304 | 0.00013304 |   0.0 |  0.00
Modify  | 0.48174    | 0.48174    | 0.48174    |   0.0 |  1.11
Other   |            | 0.1259     |            |       |  0.29

Nlocal:    19652 ave 19652 max 19652 min
Histogram: 1 0 0 0 0 0 0 0 0 0
Nghost:    15751 ave 15751 max 15751 min
Histogram: 1 0 0 0 0 0 0 0 0 0
Neighs:    1.0262e+06 ave 1.0262e+06 max 1.0262e+06 min
Histogram: 1 0 0 0 0 0 0 0 0 0

Total # of neighbors = 1026198
Ave neighs/atom = 52.2185
Neighbor list builds = 495
Dangerous builds not checked
Setting up Verlet run ...
  Unit style    : metal
  Current step  : 52495
  Time step     : 0.001
Per MPI rank memory allocation (min/avg/max) = 18.19 | 18.19 | 18.19 Mbytes
Step Temp Press TotEng PotEng Enthalpy Volume 
   52495    1812.1298    498.11987   -111043.26   -115646.24   -110893.89    480448.73 
   53000    1785.5906    2.8818871   -111256.53   -115792.09   -111255.66    480450.34 
Loop time of 44.8515 on 1 procs for 505 steps with 19652 atoms

Performance: 0.973 ns/day, 24.671 hours/ns, 11.259 timesteps/s
99.8% CPU use with 1 MPI tasks x no OpenMP threads

MPI task timing breakdown:
Section |  min time  |  avg time  |  max time  |%varavg| %total
---------------------------------------------------------------
Pair    | 22.492     | 22.492     | 22.492     |   0.0 | 50.15
Neigh   | 21.311     | 21.311     | 21.311     |   0.0 | 47.51
Comm    | 0.36211    | 0.36211    | 0.36211    |   0.0 |  0.81
Output  | 0.054848   | 0.054848   | 0.054848   |   0.0 |  0.12
Modify  | 0.50097    | 0.50097    | 0.50097    |   0.0 |  1.12
Other   |            | 0.1305     |            |       |  0.29

Nlocal:    19652 ave 19652 max 19652 min
Histogram: 1 0 0 0 0 0 0 0 0 0
Nghost:    15766 ave 15766 max 15766 min
Histogram: 1 0 0 0 0 0 0 0 0 0
Neighs:    1.02689e+06 ave 1.02689e+06 max 1.02689e+06 min
Histogram: 1 0 0 0 0 0 0 0 0 0

Total # of neighbors = 1026893
Ave neighs/atom = 52.2539
Neighbor list builds = 505
Dangerous builds not checked
Setting up Verlet run ...
  Unit style    : metal
  Current step  : 53000
  Time step     : 0.001
Per MPI rank memory allocation (min/avg/max) = 18.19 | 18.19 | 18.19 Mbytes
Step Temp Press TotEng PotEng Enthalpy Volume 
   53000    1785.5906    2.8818871   -111256.53   -115792.09   -111255.66    480450.34 
   53495    1766.7914    566.78635   -111425.55   -115913.36   -111255.86    479672.51 
Loop time of 42.9775 on 1 procs for 495 steps with 19652 atoms

Performance: 0.995 ns/day, 24.118 hours/ns, 11.518 timesteps/s
99.8% CPU use with 1 MPI tasks x no OpenMP threads

MPI task timing breakdown:
Section |  min time  |  avg time  |  max time  |%varavg| %total
---------------------------------------------------------------
Pair    | 21.564     | 21.564     | 21.564     |   0.0 | 50.18
Neigh   | 20.473     | 20.473     | 20.473     |   0.0 | 47.64
Comm    | 0.34334    | 0.34334    | 0.34334    |   0.0 |  0.80
Output  | 0.00013208 | 0.00013208 | 0.00013208 |   0.0 |  0.00
Modify  | 0.47356    | 0.47356    | 0.47356    |   0.0 |  1.10
Other   |            | 0.1236     |            |       |  0.29

Nlocal:    19652 ave 19652 max 19652 min
Histogram: 1 0 0 0 0 0 0 0 0 0
Nghost:    15765 ave 15765 max 15765 min
Histogram: 1 0 0 0 0 0 0 0 0 0
Neighs:    1.02876e+06 ave 1.02876e+06 max 1.02876e+06 min
Histogram: 1 0 0 0 0 0 0 0 0 0

Total # of neighbors = 1028760
Ave neighs/atom = 52.3489
Neighbor list builds = 495
Dangerous builds not checked
Setting up Verlet run ...
  Unit style    : metal
  Current step  : 53495
  Time step     : 0.001
Per MPI rank memory allocation (min/avg/max) = 18.19 | 18.19 | 18.19 Mbytes
Step Temp Press TotEng PotEng Enthalpy Volume 
   53495    1766.7914    566.78635   -111425.55   -115913.36   -111255.86    479672.51 
   54000    1731.6239   -115.06025   -111567.21   -115965.69   -111601.66     479741.4 
Loop time of 44.0135 on 1 procs for 505 steps with 19652 atoms

Performance: 0.991 ns/day, 24.210 hours/ns, 11.474 timesteps/s
100.0% CPU use with 1 MPI tasks x no OpenMP threads

MPI task timing breakdown:
Section |  min time  |  avg time  |  max time  |%varavg| %total
---------------------------------------------------------------
Pair    | 22.01      | 22.01      | 22.01      |   0.0 | 50.01
Neigh   | 20.984     | 20.984     | 20.984     |   0.0 | 47.68
Comm    | 0.35547    | 0.35547    | 0.35547    |   0.0 |  0.81
Output  | 0.053069   | 0.053069   | 0.053069   |   0.0 |  0.12
Modify  | 0.48476    | 0.48476    | 0.48476    |   0.0 |  1.10
Other   |            | 0.1263     |            |       |  0.29

Nlocal:    19652 ave 19652 max 19652 min
Histogram: 1 0 0 0 0 0 0 0 0 0
Nghost:    15733 ave 15733 max 15733 min
Histogram: 1 0 0 0 0 0 0 0 0 0
Neighs:    1.02843e+06 ave 1.02843e+06 max 1.02843e+06 min
Histogram: 1 0 0 0 0 0 0 0 0 0

Total # of neighbors = 1028427
Ave neighs/atom = 52.3319
Neighbor list builds = 505
Dangerous builds not checked
Setting up Verlet run ...
  Unit style    : metal
  Current step  : 54000
  Time step     : 0.001
Per MPI rank memory allocation (min/avg/max) = 18.19 | 18.19 | 18.19 Mbytes
Step Temp Press TotEng PotEng Enthalpy Volume 
   54000    1731.6239   -115.06025   -111567.21   -115965.69   -111601.66     479741.4 
   54495    1710.7797   -105.90402   -111774.62   -116120.15    -111806.3    479262.81 
Loop time of 45.8961 on 1 procs for 495 steps with 19652 atoms

Performance: 0.932 ns/day, 25.755 hours/ns, 10.785 timesteps/s
100.0% CPU use with 1 MPI tasks x no OpenMP threads

MPI task timing breakdown:
Section |  min time  |  avg time  |  max time  |%varavg| %total
---------------------------------------------------------------
Pair    | 23.253     | 23.253     | 23.253     |   0.0 | 50.66
Neigh   | 21.614     | 21.614     | 21.614     |   0.0 | 47.09
Comm    | 0.37323    | 0.37323    | 0.37323    |   0.0 |  0.81
Output  | 0.00012708 | 0.00012708 | 0.00012708 |   0.0 |  0.00
Modify  | 0.51728    | 0.51728    | 0.51728    |   0.0 |  1.13
Other   |            | 0.1389     |            |       |  0.30

Nlocal:    19652 ave 19652 max 19652 min
Histogram: 1 0 0 0 0 0 0 0 0 0
Nghost:    15816 ave 15816 max 15816 min
Histogram: 1 0 0 0 0 0 0 0 0 0
Neighs:    1.02951e+06 ave 1.02951e+06 max 1.02951e+06 min
Histogram: 1 0 0 0 0 0 0 0 0 0

Total # of neighbors = 1029508
Ave neighs/atom = 52.3869
Neighbor list builds = 495
Dangerous builds not checked
Setting up Verlet run ...
  Unit style    : metal
  Current step  : 54495
  Time step     : 0.001
Per MPI rank memory allocation (min/avg/max) = 18.19 | 18.19 | 18.19 Mbytes
Step Temp Press TotEng PotEng Enthalpy Volume 
   54495    1710.7797   -105.90402   -111774.62   -116120.15    -111806.3    479262.81 
   55000    1701.8112   -124.11152   -111912.95    -116235.7   -111950.04    478876.06 
Loop time of 44.2317 on 1 procs for 505 steps with 19652 atoms

Performance: 0.986 ns/day, 24.330 hours/ns, 11.417 timesteps/s
100.0% CPU use with 1 MPI tasks x no OpenMP threads

MPI task timing breakdown:
Section |  min time  |  avg time  |  max time  |%varavg| %total
---------------------------------------------------------------
Pair    | 22.123     | 22.123     | 22.123     |   0.0 | 50.02
Neigh   | 21.079     | 21.079     | 21.079     |   0.0 | 47.65
Comm    | 0.35285    | 0.35285    | 0.35285    |   0.0 |  0.80
Output  | 0.057653   | 0.057653   | 0.057653   |   0.0 |  0.13
Modify  | 0.4919     | 0.4919     | 0.4919     |   0.0 |  1.11
Other   |            | 0.1279     |            |       |  0.29

Nlocal:    19652 ave 19652 max 19652 min
Histogram: 1 0 0 0 0 0 0 0 0 0
Nghost:    15822 ave 15822 max 15822 min
Histogram: 1 0 0 0 0 0 0 0 0 0
Neighs:    1.0306e+06 ave 1.0306e+06 max 1.0306e+06 min
Histogram: 1 0 0 0 0 0 0 0 0 0

Total # of neighbors = 1030597
Ave neighs/atom = 52.4423
Neighbor list builds = 505
Dangerous builds not checked
Setting up Verlet run ...
  Unit style    : metal
  Current step  : 55000
  Time step     : 0.001
Per MPI rank memory allocation (min/avg/max) = 18.19 | 18.19 | 18.19 Mbytes
Step Temp Press TotEng PotEng Enthalpy Volume 
   55000    1701.8112   -124.11152   -111912.95    -116235.7   -111950.04    478876.06 
   55495    1657.9226   -162.05108   -112152.78   -116364.06   -112201.17    478414.38 
Loop time of 42.6934 on 1 procs for 495 steps with 19652 atoms

Performance: 1.002 ns/day, 23.958 hours/ns, 11.594 timesteps/s
100.0% CPU use with 1 MPI tasks x no OpenMP threads

MPI task timing breakdown:
Section |  min time  |  avg time  |  max time  |%varavg| %total
---------------------------------------------------------------
Pair    | 21.406     | 21.406     | 21.406     |   0.0 | 50.14
Neigh   | 20.36      | 20.36      | 20.36      |   0.0 | 47.69
Comm    | 0.33464    | 0.33464    | 0.33464    |   0.0 |  0.78
Output  | 0.0001111  | 0.0001111  | 0.0001111  |   0.0 |  0.00
Modify  | 0.47071    | 0.47071    | 0.47071    |   0.0 |  1.10
Other   |            | 0.1223     |            |       |  0.29

Nlocal:    19652 ave 19652 max 19652 min
Histogram: 1 0 0 0 0 0 0 0 0 0
Nghost:    15820 ave 15820 max 15820 min
Histogram: 1 0 0 0 0 0 0 0 0 0
Neighs:    1.03249e+06 ave 1.03249e+06 max 1.03249e+06 min
Histogram: 1 0 0 0 0 0 0 0 0 0

Total # of neighbors = 1032489
Ave neighs/atom = 52.5386
Neighbor list builds = 495
Dangerous builds not checked
Setting up Verlet run ...
  Unit style    : metal
  Current step  : 55495
  Time step     : 0.001
Per MPI rank memory allocation (min/avg/max) = 18.19 | 18.19 | 18.19 Mbytes
Step Temp Press TotEng PotEng Enthalpy Volume 
   55495    1657.9226   -162.05108   -112152.78   -116364.06   -112201.17    478414.38 
   56000      1659.15   -297.45273   -112199.11    -116413.5   -112287.92    478328.92 
Loop time of 43.9526 on 1 procs for 505 steps with 19652 atoms

Performance: 0.993 ns/day, 24.176 hours/ns, 11.490 timesteps/s
100.0% CPU use with 1 MPI tasks x no OpenMP threads

MPI task timing breakdown:
Section |  min time  |  avg time  |  max time  |%varavg| %total
---------------------------------------------------------------
Pair    | 22.003     | 22.003     | 22.003     |   0.0 | 50.06
Neigh   | 20.934     | 20.934     | 20.934     |   0.0 | 47.63
Comm    | 0.34426    | 0.34426    | 0.34426    |   0.0 |  0.78
Output  | 0.060345   | 0.060345   | 0.060345   |   0.0 |  0.14
Modify  | 0.4848     | 0.4848     | 0.4848     |   0.0 |  1.10
Other   |            | 0.1258     |            |       |  0.29

Nlocal:    19652 ave 19652 max 19652 min
Histogram: 1 0 0 0 0 0 0 0 0 0
Nghost:    15823 ave 15823 max 15823 min
Histogram: 1 0 0 0 0 0 0 0 0 0
Neighs:    1.03215e+06 ave 1.03215e+06 max 1.03215e+06 min
Histogram: 1 0 0 0 0 0 0 0 0 0

Total # of neighbors = 1032146
Ave neighs/atom = 52.5212
Neighbor list builds = 505
Dangerous builds not checked
Setting up Verlet run ...
  Unit style    : metal
  Current step  : 56000
  Time step     : 0.001
Per MPI rank memory allocation (min/avg/max) = 18.19 | 18.19 | 18.19 Mbytes
Step Temp Press TotEng PotEng Enthalpy Volume 
   56000      1659.15   -297.45273   -112199.11    -116413.5   -112287.92    478328.92 
   56495    1607.2334   -375.66069   -112476.14   -116558.65   -112588.14    477686.24 
Loop time of 49.4423 on 1 procs for 495 steps with 19652 atoms

Performance: 0.865 ns/day, 27.745 hours/ns, 10.012 timesteps/s
100.0% CPU use with 1 MPI tasks x no OpenMP threads

MPI task timing breakdown:
Section |  min time  |  avg time  |  max time  |%varavg| %total
---------------------------------------------------------------
Pair    | 25.384     | 25.384     | 25.384     |   0.0 | 51.34
Neigh   | 22.916     | 22.916     | 22.916     |   0.0 | 46.35
Comm    | 0.41427    | 0.41427    | 0.41427    |   0.0 |  0.84
Output  | 0.00018001 | 0.00018001 | 0.00018001 |   0.0 |  0.00
Modify  | 0.56778    | 0.56778    | 0.56778    |   0.0 |  1.15
Other   |            | 0.1603     |            |       |  0.32

Nlocal:    19652 ave 19652 max 19652 min
Histogram: 1 0 0 0 0 0 0 0 0 0
Nghost:    15800 ave 15800 max 15800 min
Histogram: 1 0 0 0 0 0 0 0 0 0
Neighs:    1.03429e+06 ave 1.03429e+06 max 1.03429e+06 min
Histogram: 1 0 0 0 0 0 0 0 0 0

Total # of neighbors = 1034289
Ave neighs/atom = 52.6302
Neighbor list builds = 495
Dangerous builds not checked
Setting up Verlet run ...
  Unit style    : metal
  Current step  : 56495
  Time step     : 0.001
Per MPI rank memory allocation (min/avg/max) = 18.19 | 18.19 | 18.19 Mbytes
Step Temp Press TotEng PotEng Enthalpy Volume 
   56495    1607.2334   -375.66069   -112476.14   -116558.65   -112588.14    477686.24 
   57000    1610.4797   -313.49499   -112612.13   -116702.89   -112705.55    477460.18 
Loop time of 45.8623 on 1 procs for 505 steps with 19652 atoms

Performance: 0.951 ns/day, 25.227 hours/ns, 11.011 timesteps/s
99.9% CPU use with 1 MPI tasks x no OpenMP threads

MPI task timing breakdown:
Section |  min time  |  avg time  |  max time  |%varavg| %total
---------------------------------------------------------------
Pair    | 23.235     | 23.235     | 23.235     |   0.0 | 50.66
Neigh   | 21.53      | 21.53      | 21.53      |   0.0 | 46.94
Comm    | 0.37787    | 0.37787    | 0.37787    |   0.0 |  0.82
Output  | 0.062739   | 0.062739   | 0.062739   |   0.0 |  0.14
Modify  | 0.5107     | 0.5107     | 0.5107     |   0.0 |  1.11
Other   |            | 0.1463     |            |       |  0.32

Nlocal:    19652 ave 19652 max 19652 min
Histogram: 1 0 0 0 0 0 0 0 0 0
Nghost:    15866 ave 15866 max 15866 min
Histogram: 1 0 0 0 0 0 0 0 0 0
Neighs:    1.0354e+06 ave 1.0354e+06 max 1.0354e+06 min
Histogram: 1 0 0 0 0 0 0 0 0 0

Total # of neighbors = 1035400
Ave neighs/atom = 52.6867
Neighbor list builds = 505
Dangerous builds not checked
Setting up Verlet run ...
  Unit style    : metal
  Current step  : 57000
  Time step     : 0.001
Per MPI rank memory allocation (min/avg/max) = 18.19 | 18.19 | 18.19 Mbytes
Step Temp Press TotEng PotEng Enthalpy Volume 
   57000    1610.4797   -313.49499   -112612.13   -116702.89   -112705.55    477460.18 
   57495     1566.207   -247.66719   -112842.05   -116820.36   -112915.75    476770.48 
Loop time of 49.5634 on 1 procs for 495 steps with 19652 atoms

Performance: 0.863 ns/day, 27.813 hours/ns, 9.987 timesteps/s
100.0% CPU use with 1 MPI tasks x no OpenMP threads

MPI task timing breakdown:
Section |  min time  |  avg time  |  max time  |%varavg| %total
---------------------------------------------------------------
Pair    | 25.512     | 25.512     | 25.512     |   0.0 | 51.47
Neigh   | 22.911     | 22.911     | 22.911     |   0.0 | 46.23
Comm    | 0.40786    | 0.40786    | 0.40786    |   0.0 |  0.82
Output  | 0.00018597 | 0.00018597 | 0.00018597 |   0.0 |  0.00
Modify  | 0.57129    | 0.57129    | 0.57129    |   0.0 |  1.15
Other   |            | 0.1608     |            |       |  0.32

Nlocal:    19652 ave 19652 max 19652 min
Histogram: 1 0 0 0 0 0 0 0 0 0
Nghost:    15868 ave 15868 max 15868 min
Histogram: 1 0 0 0 0 0 0 0 0 0
Neighs:    1.03744e+06 ave 1.03744e+06 max 1.03744e+06 min
Histogram: 1 0 0 0 0 0 0 0 0 0

Total # of neighbors = 1037439
Ave neighs/atom = 52.7905
Neighbor list builds = 495
Dangerous builds not checked
Setting up Verlet run ...
  Unit style    : metal
  Current step  : 57495
  Time step     : 0.001
Per MPI rank memory allocation (min/avg/max) = 18.19 | 18.19 | 18.19 Mbytes
Step Temp Press TotEng PotEng Enthalpy Volume 
   57495     1566.207   -247.66719   -112842.05   -116820.36   -112915.75    476770.48 
   58000    1545.5148   -53.891277   -112950.08   -116875.82    -112966.1    476473.51 
Loop time of 51.6354 on 1 procs for 505 steps with 19652 atoms

Performance: 0.845 ns/day, 28.402 hours/ns, 9.780 timesteps/s
99.7% CPU use with 1 MPI tasks x no OpenMP threads

MPI task timing breakdown:
Section |  min time  |  avg time  |  max time  |%varavg| %total
---------------------------------------------------------------
Pair    | 26.526     | 26.526     | 26.526     |   0.0 | 51.37
Neigh   | 23.85      | 23.85      | 23.85      |   0.0 | 46.19
Comm    | 0.43194    | 0.43194    | 0.43194    |   0.0 |  0.84
Output  | 0.060564   | 0.060564   | 0.060564   |   0.0 |  0.12
Modify  | 0.59864    | 0.59864    | 0.59864    |   0.0 |  1.16
Other   |            | 0.1681     |            |       |  0.33

Nlocal:    19652 ave 19652 max 19652 min
Histogram: 1 0 0 0 0 0 0 0 0 0
Nghost:    15806 ave 15806 max 15806 min
Histogram: 1 0 0 0 0 0 0 0 0 0
Neighs:    1.03803e+06 ave 1.03803e+06 max 1.03803e+06 min
Histogram: 1 0 0 0 0 0 0 0 0 0

Total # of neighbors = 1038033
Ave neighs/atom = 52.8207
Neighbor list builds = 505
Dangerous builds not checked
Setting up Verlet run ...
  Unit style    : metal
  Current step  : 58000
  Time step     : 0.001
Per MPI rank memory allocation (min/avg/max) = 18.19 | 18.19 | 18.19 Mbytes
Step Temp Press TotEng PotEng Enthalpy Volume 
   58000    1545.5148   -53.891277   -112950.08   -116875.82    -112966.1    476473.51 
   58495    1511.4704   -160.84453   -113182.34   -117021.61   -113230.12    475914.28 
Loop time of 46.8837 on 1 procs for 495 steps with 19652 atoms

Performance: 0.912 ns/day, 26.310 hours/ns, 10.558 timesteps/s
100.0% CPU use with 1 MPI tasks x no OpenMP threads

MPI task timing breakdown:
Section |  min time  |  avg time  |  max time  |%varavg| %total
---------------------------------------------------------------
Pair    | 23.939     | 23.939     | 23.939     |   0.0 | 51.06
Neigh   | 21.881     | 21.881     | 21.881     |   0.0 | 46.67
Comm    | 0.38598    | 0.38598    | 0.38598    |   0.0 |  0.82
Output  | 0.00014615 | 0.00014615 | 0.00014615 |   0.0 |  0.00
Modify  | 0.52773    | 0.52773    | 0.52773    |   0.0 |  1.13
Other   |            | 0.1498     |            |       |  0.32

Nlocal:    19652 ave 19652 max 19652 min
Histogram: 1 0 0 0 0 0 0 0 0 0
Nghost:    15812 ave 15812 max 15812 min
Histogram: 1 0 0 0 0 0 0 0 0 0
Neighs:    1.04013e+06 ave 1.04013e+06 max 1.04013e+06 min
Histogram: 1 0 0 0 0 0 0 0 0 0

Total # of neighbors = 1040129
Ave neighs/atom = 52.9274
Neighbor list builds = 495
Dangerous builds not checked
Setting up Verlet run ...
  Unit style    : metal
  Current step  : 58495
  Time step     : 0.001
Per MPI rank memory allocation (min/avg/max) = 18.19 | 18.19 | 18.19 Mbytes
Step Temp Press TotEng PotEng Enthalpy Volume 
   58495    1511.4704   -160.84453   -113182.34   -117021.61   -113230.12    475914.28 
   59000    1491.4057     279.5705   -113333.09   -117121.39   -113250.12    475493.31 
Loop time of 51.425 on 1 procs for 505 steps with 19652 atoms

Performance: 0.848 ns/day, 28.287 hours/ns, 9.820 timesteps/s
99.9% CPU use with 1 MPI tasks x no OpenMP threads

MPI task timing breakdown:
Section |  min time  |  avg time  |  max time  |%varavg| %total
---------------------------------------------------------------
Pair    | 26.511     | 26.511     | 26.511     |   0.0 | 51.55
Neigh   | 23.687     | 23.687     | 23.687     |   0.0 | 46.06
Comm    | 0.42852    | 0.42852    | 0.42852    |   0.0 |  0.83
Output  | 0.058206   | 0.058206   | 0.058206   |   0.0 |  0.11
Modify  | 0.576      | 0.576      | 0.576      |   0.0 |  1.12
Other   |            | 0.1637     |            |       |  0.32

Nlocal:    19652 ave 19652 max 19652 min
Histogram: 1 0 0 0 0 0 0 0 0 0
Nghost:    15768 ave 15768 max 15768 min
Histogram: 1 0 0 0 0 0 0 0 0 0
Neighs:    1.04083e+06 ave 1.04083e+06 max 1.04083e+06 min
Histogram: 1 0 0 0 0 0 0 0 0 0

Total # of neighbors = 1040829
Ave neighs/atom = 52.963
Neighbor list builds = 505
Dangerous builds not checked
Setting up Verlet run ...
  Unit style    : metal
  Current step  : 59000
  Time step     : 0.001
Per MPI rank memory allocation (min/avg/max) = 18.19 | 18.19 | 18.19 Mbytes
Step Temp Press TotEng PotEng Enthalpy Volume 
   59000    1491.4057     279.5705   -113333.09   -117121.39   -113250.12    475493.31 
   59495    1463.9893    162.85456   -113482.14    -117200.8   -113433.84    475159.85 
Loop time of 55.5762 on 1 procs for 495 steps with 19652 atoms

Performance: 0.770 ns/day, 31.188 hours/ns, 8.907 timesteps/s
100.0% CPU use with 1 MPI tasks x no OpenMP threads

MPI task timing breakdown:
Section |  min time  |  avg time  |  max time  |%varavg| %total
---------------------------------------------------------------
Pair    | 28.828     | 28.828     | 28.828     |   0.0 | 51.87
Neigh   | 25.45      | 25.45      | 25.45      |   0.0 | 45.79
Comm    | 0.45801    | 0.45801    | 0.45801    |   0.0 |  0.82
Output  | 0.00016522 | 0.00016522 | 0.00016522 |   0.0 |  0.00
Modify  | 0.65934    | 0.65934    | 0.65934    |   0.0 |  1.19
Other   |            | 0.1808     |            |       |  0.33

Nlocal:    19652 ave 19652 max 19652 min
Histogram: 1 0 0 0 0 0 0 0 0 0
Nghost:    15837 ave 15837 max 15837 min
Histogram: 1 0 0 0 0 0 0 0 0 0
Neighs:    1.04165e+06 ave 1.04165e+06 max 1.04165e+06 min
Histogram: 1 0 0 0 0 0 0 0 0 0

Total # of neighbors = 1041648
Ave neighs/atom = 53.0047
Neighbor list builds = 495
Dangerous builds not checked
Setting up Verlet run ...
  Unit style    : metal
  Current step  : 59495
  Time step     : 0.001
Per MPI rank memory allocation (min/avg/max) = 18.19 | 18.19 | 18.19 Mbytes
Step Temp Press TotEng PotEng Enthalpy Volume 
   59495    1463.9893    162.85456   -113482.14    -117200.8   -113433.84    475159.85 
   60000    1454.4144   -299.03091   -113640.98   -117335.32   -113729.64    475036.66 
Loop time of 47.1787 on 1 procs for 505 steps with 19652 atoms

Performance: 0.925 ns/day, 25.951 hours/ns, 10.704 timesteps/s
99.8% CPU use with 1 MPI tasks x no OpenMP threads

MPI task timing breakdown:
Section |  min time  |  avg time  |  max time  |%varavg| %total
---------------------------------------------------------------
Pair    | 23.964     | 23.964     | 23.964     |   0.0 | 50.79
Neigh   | 22.029     | 22.029     | 22.029     |   0.0 | 46.69
Comm    | 0.3837     | 0.3837     | 0.3837     |   0.0 |  0.81
Output  | 0.12105    | 0.12105    | 0.12105    |   0.0 |  0.26
Modify  | 0.5311     | 0.5311     | 0.5311     |   0.0 |  1.13
Other   |            | 0.1497     |            |       |  0.32

Nlocal:    19652 ave 19652 max 19652 min
Histogram: 1 0 0 0 0 0 0 0 0 0
Nghost:    15853 ave 15853 max 15853 min
Histogram: 1 0 0 0 0 0 0 0 0 0
Neighs:    1.04267e+06 ave 1.04267e+06 max 1.04267e+06 min
Histogram: 1 0 0 0 0 0 0 0 0 0

Total # of neighbors = 1042667
Ave neighs/atom = 53.0565
Neighbor list builds = 505
Dangerous builds not checked
Setting up Verlet run ...
  Unit style    : metal
  Current step  : 60000
  Time step     : 0.001
Per MPI rank memory allocation (min/avg/max) = 18.19 | 18.19 | 18.19 Mbytes
Step Temp Press TotEng PotEng Enthalpy Volume 
   60000    1454.4144   -299.03091   -113640.98   -117335.32   -113729.64    475036.66 
   60495    1405.6865   -262.03104   -113843.77   -117414.34   -113921.42    474803.65 
Loop time of 44.9422 on 1 procs for 495 steps with 19652 atoms

Performance: 0.952 ns/day, 25.220 hours/ns, 11.014 timesteps/s
100.0% CPU use with 1 MPI tasks x no OpenMP threads

MPI task timing breakdown:
Section |  min time  |  avg time  |  max time  |%varavg| %total
---------------------------------------------------------------
Pair    | 22.875     | 22.875     | 22.875     |   0.0 | 50.90
Neigh   | 21.061     | 21.061     | 21.061     |   0.0 | 46.86
Comm    | 0.36365    | 0.36365    | 0.36365    |   0.0 |  0.81
Output  | 0.00014114 | 0.00014114 | 0.00014114 |   0.0 |  0.00
Modify  | 0.49975    | 0.49975    | 0.49975    |   0.0 |  1.11
Other   |            | 0.1431     |            |       |  0.32

Nlocal:    19652 ave 19652 max 19652 min
Histogram: 1 0 0 0 0 0 0 0 0 0
Nghost:    15839 ave 15839 max 15839 min
Histogram: 1 0 0 0 0 0 0 0 0 0
Neighs:    1.04342e+06 ave 1.04342e+06 max 1.04342e+06 min
Histogram: 1 0 0 0 0 0 0 0 0 0

Total # of neighbors = 1043416
Ave neighs/atom = 53.0946
Neighbor list builds = 495
Dangerous builds not checked
Setting up Verlet run ...
  Unit style    : metal
  Current step  : 60495
  Time step     : 0.001
Per MPI rank memory allocation (min/avg/max) = 18.19 | 18.19 | 18.19 Mbytes
Step Temp Press TotEng PotEng Enthalpy Volume 
   60495    1405.6865   -262.03104   -113843.77   -117414.34   -113921.42    474803.65 
   61000    1404.2594   -458.10913   -113986.37   -117553.32   -114121.99    474317.83 
Loop time of 47.112 on 1 procs for 505 steps with 19652 atoms

Performance: 0.926 ns/day, 25.914 hours/ns, 10.719 timesteps/s
99.9% CPU use with 1 MPI tasks x no OpenMP threads

MPI task timing breakdown:
Section |  min time  |  avg time  |  max time  |%varavg| %total
---------------------------------------------------------------
Pair    | 23.979     | 23.979     | 23.979     |   0.0 | 50.90
Neigh   | 22         | 22         | 22         |   0.0 | 46.70
Comm    | 0.39037    | 0.39037    | 0.39037    |   0.0 |  0.83
Output  | 0.059859   | 0.059859   | 0.059859   |   0.0 |  0.13
Modify  | 0.5315     | 0.5315     | 0.5315     |   0.0 |  1.13
Other   |            | 0.1521     |            |       |  0.32

Nlocal:    19652 ave 19652 max 19652 min
Histogram: 1 0 0 0 0 0 0 0 0 0
Nghost:    15801 ave 15801 max 15801 min
Histogram: 1 0 0 0 0 0 0 0 0 0
Neighs:    1.04431e+06 ave 1.04431e+06 max 1.04431e+06 min
Histogram: 1 0 0 0 0 0 0 0 0 0

Total # of neighbors = 1044307
Ave neighs/atom = 53.14
Neighbor list builds = 505
Dangerous builds not checked
Setting up Verlet run ...
  Unit style    : metal
  Current step  : 61000
  Time step     : 0.001
Per MPI rank memory allocation (min/avg/max) = 18.19 | 18.19 | 18.19 Mbytes
Step Temp Press TotEng PotEng Enthalpy Volume 
   61000    1404.2594   -458.10913   -113986.37   -117553.32   -114121.99    474317.83 
   61495    1364.5275   -61.928995   -114188.93   -117654.96   -114207.24    473701.22 
Loop time of 45.151 on 1 procs for 495 steps with 19652 atoms

Performance: 0.947 ns/day, 25.337 hours/ns, 10.963 timesteps/s
100.0% CPU use with 1 MPI tasks x no OpenMP threads

MPI task timing breakdown:
Section |  min time  |  avg time  |  max time  |%varavg| %total
---------------------------------------------------------------
Pair    | 23.044     | 23.044     | 23.044     |   0.0 | 51.04
Neigh   | 21.092     | 21.092     | 21.092     |   0.0 | 46.71
Comm    | 0.36774    | 0.36774    | 0.36774    |   0.0 |  0.81
Output  | 0.00016093 | 0.00016093 | 0.00016093 |   0.0 |  0.00
Modify  | 0.50245    | 0.50245    | 0.50245    |   0.0 |  1.11
Other   |            | 0.144      |            |       |  0.32

Nlocal:    19652 ave 19652 max 19652 min
Histogram: 1 0 0 0 0 0 0 0 0 0
Nghost:    15864 ave 15864 max 15864 min
Histogram: 1 0 0 0 0 0 0 0 0 0
Neighs:    1.04608e+06 ave 1.04608e+06 max 1.04608e+06 min
Histogram: 1 0 0 0 0 0 0 0 0 0

Total # of neighbors = 1046075
Ave neighs/atom = 53.23
Neighbor list builds = 495
Dangerous builds not checked
Setting up Verlet run ...
  Unit style    : metal
  Current step  : 61495
  Time step     : 0.001
Per MPI rank memory allocation (min/avg/max) = 18.19 | 18.19 | 18.19 Mbytes
Step Temp Press TotEng PotEng Enthalpy Volume 
   61495    1364.5275   -61.928995   -114188.93   -117654.96   -114207.24    473701.22 
   62000    1340.7685   -356.20799   -114360.19   -117765.87   -114465.45    473421.23 
Loop time of 44.5 on 1 procs for 505 steps with 19652 atoms

Performance: 0.980 ns/day, 24.477 hours/ns, 11.348 timesteps/s
100.0% CPU use with 1 MPI tasks x no OpenMP threads

MPI task timing breakdown:
Section |  min time  |  avg time  |  max time  |%varavg| %total
---------------------------------------------------------------
Pair    | 22.526     | 22.526     | 22.526     |   0.0 | 50.62
Neigh   | 20.932     | 20.932     | 20.932     |   0.0 | 47.04
Comm    | 0.35908    | 0.35908    | 0.35908    |   0.0 |  0.81
Output  | 0.053474   | 0.053474   | 0.053474   |   0.0 |  0.12
Modify  | 0.48894    | 0.48894    | 0.48894    |   0.0 |  1.10
Other   |            | 0.1405     |            |       |  0.32

Nlocal:    19652 ave 19652 max 19652 min
Histogram: 1 0 0 0 0 0 0 0 0 0
Nghost:    15881 ave 15881 max 15881 min
Histogram: 1 0 0 0 0 0 0 0 0 0
Neighs:    1.04688e+06 ave 1.04688e+06 max 1.04688e+06 min
Histogram: 1 0 0 0 0 0 0 0 0 0

Total # of neighbors = 1046879
Ave neighs/atom = 53.2709
Neighbor list builds = 505
Dangerous builds not checked
Setting up Verlet run ...
  Unit style    : metal
  Current step  : 62000
  Time step     : 0.001
Per MPI rank memory allocation (min/avg/max) = 18.19 | 18.19 | 18.19 Mbytes
Step Temp Press TotEng PotEng Enthalpy Volume 
   62000    1340.7685   -356.20799   -114360.19   -117765.87   -114465.45    473421.23 
   62495     1303.979    230.00336   -114555.91   -117868.14   -114488.06    472648.16 
Loop time of 43.8435 on 1 procs for 495 steps with 19652 atoms

Performance: 0.975 ns/day, 24.604 hours/ns, 11.290 timesteps/s
100.0% CPU use with 1 MPI tasks x no OpenMP threads

MPI task timing breakdown:
Section |  min time  |  avg time  |  max time  |%varavg| %total
---------------------------------------------------------------
Pair    | 22.228     | 22.228     | 22.228     |   0.0 | 50.70
Neigh   | 20.64      | 20.64      | 20.64      |   0.0 | 47.08
Comm    | 0.3552     | 0.3552     | 0.3552     |   0.0 |  0.81
Output  | 0.00013494 | 0.00013494 | 0.00013494 |   0.0 |  0.00
Modify  | 0.48219    | 0.48219    | 0.48219    |   0.0 |  1.10
Other   |            | 0.138      |            |       |  0.31

Nlocal:    19652 ave 19652 max 19652 min
Histogram: 1 0 0 0 0 0 0 0 0 0
Nghost:    15898 ave 15898 max 15898 min
Histogram: 1 0 0 0 0 0 0 0 0 0
Neighs:    1.04973e+06 ave 1.04973e+06 max 1.04973e+06 min
Histogram: 1 0 0 0 0 0 0 0 0 0

Total # of neighbors = 1049728
Ave neighs/atom = 53.4158
Neighbor list builds = 495
Dangerous builds not checked
Setting up Verlet run ...
  Unit style    : metal
  Current step  : 62495
  Time step     : 0.001
Per MPI rank memory allocation (min/avg/max) = 18.19 | 18.19 | 18.19 Mbytes
Step Temp Press TotEng PotEng Enthalpy Volume 
   62495     1303.979    230.00336   -114555.91   -117868.14   -114488.06    472648.16 
   63000    1301.3218   -239.63573   -114713.59   -118019.06   -114784.29    472694.45 
Loop time of 45.4559 on 1 procs for 505 steps with 19652 atoms

Performance: 0.960 ns/day, 25.003 hours/ns, 11.110 timesteps/s
100.0% CPU use with 1 MPI tasks x no OpenMP threads

MPI task timing breakdown:
Section |  min time  |  avg time  |  max time  |%varavg| %total
---------------------------------------------------------------
Pair    | 23.056     | 23.056     | 23.056     |   0.0 | 50.72
Neigh   | 21.328     | 21.328     | 21.328     |   0.0 | 46.92
Comm    | 0.369      | 0.369      | 0.369      |   0.0 |  0.81
Output  | 0.05424    | 0.05424    | 0.05424    |   0.0 |  0.12
Modify  | 0.5045     | 0.5045     | 0.5045     |   0.0 |  1.11
Other   |            | 0.145      |            |       |  0.32

Nlocal:    19652 ave 19652 max 19652 min
Histogram: 1 0 0 0 0 0 0 0 0 0
Nghost:    15886 ave 15886 max 15886 min
Histogram: 1 0 0 0 0 0 0 0 0 0
Neighs:    1.05018e+06 ave 1.05018e+06 max 1.05018e+06 min
Histogram: 1 0 0 0 0 0 0 0 0 0

Total # of neighbors = 1050181
Ave neighs/atom = 53.4389
Neighbor list builds = 505
Dangerous builds not checked
Setting up Verlet run ...
  Unit style    : metal
  Current step  : 63000
  Time step     : 0.001
Per MPI rank memory allocation (min/avg/max) = 18.19 | 18.19 | 18.19 Mbytes
Step Temp Press TotEng PotEng Enthalpy Volume 
   63000    1301.3218   -239.63573   -114713.59   -118019.06   -114784.29    472694.45 
   63495     1266.191    394.72126   -114923.24   -118139.48   -114807.02    471708.55 
Loop time of 48.8866 on 1 procs for 495 steps with 19652 atoms

Performance: 0.875 ns/day, 27.434 hours/ns, 10.125 timesteps/s
99.8% CPU use with 1 MPI tasks x no OpenMP threads

MPI task timing breakdown:
Section |  min time  |  avg time  |  max time  |%varavg| %total
---------------------------------------------------------------
Pair    | 25.23      | 25.23      | 25.23      |   0.0 | 51.61
Neigh   | 22.547     | 22.547     | 22.547     |   0.0 | 46.12
Comm    | 0.40409    | 0.40409    | 0.40409    |   0.0 |  0.83
Output  | 0.00014091 | 0.00014091 | 0.00014091 |   0.0 |  0.00
Modify  | 0.5489     | 0.5489     | 0.5489     |   0.0 |  1.12
Other   |            | 0.1565     |            |       |  0.32

Nlocal:    19652 ave 19652 max 19652 min
Histogram: 1 0 0 0 0 0 0 0 0 0
Nghost:    15892 ave 15892 max 15892 min
Histogram: 1 0 0 0 0 0 0 0 0 0
Neighs:    1.05305e+06 ave 1.05305e+06 max 1.05305e+06 min
Histogram: 1 0 0 0 0 0 0 0 0 0

Total # of neighbors = 1053047
Ave neighs/atom = 53.5847
Neighbor list builds = 495
Dangerous builds not checked
Setting up Verlet run ...
  Unit style    : metal
  Current step  : 63495
  Time step     : 0.001
Per MPI rank memory allocation (min/avg/max) = 18.19 | 18.19 | 18.19 Mbytes
Step Temp Press TotEng PotEng Enthalpy Volume 
   63495     1266.191    394.72126   -114923.24   -118139.48   -114807.02    471708.55 
   64000    1250.7189   -461.96661   -115054.42   -118231.36   -115190.49    471922.53 
Loop time of 45.655 on 1 procs for 505 steps with 19652 atoms

Performance: 0.956 ns/day, 25.113 hours/ns, 11.061 timesteps/s
99.7% CPU use with 1 MPI tasks x no OpenMP threads

MPI task timing breakdown:
Section |  min time  |  avg time  |  max time  |%varavg| %total
---------------------------------------------------------------
Pair    | 23.151     | 23.151     | 23.151     |   0.0 | 50.71
Neigh   | 21.28      | 21.28      | 21.28      |   0.0 | 46.61
Comm    | 0.36781    | 0.36781    | 0.36781    |   0.0 |  0.81
Output  | 0.20587    | 0.20587    | 0.20587    |   0.0 |  0.45
Modify  | 0.50524    | 0.50524    | 0.50524    |   0.0 |  1.11
Other   |            | 0.1449     |            |       |  0.32

Nlocal:    19652 ave 19652 max 19652 min
Histogram: 1 0 0 0 0 0 0 0 0 0
Nghost:    15919 ave 15919 max 15919 min
Histogram: 1 0 0 0 0 0 0 0 0 0
Neighs:    1.05261e+06 ave 1.05261e+06 max 1.05261e+06 min
Histogram: 1 0 0 0 0 0 0 0 0 0

Total # of neighbors = 1052612
Ave neighs/atom = 53.5626
Neighbor list builds = 505
Dangerous builds not checked
Setting up Verlet run ...
  Unit style    : metal
  Current step  : 64000
  Time step     : 0.001
Per MPI rank memory allocation (min/avg/max) = 18.19 | 18.19 | 18.19 Mbytes
Step Temp Press TotEng PotEng Enthalpy Volume 
   64000    1250.7189   -461.96661   -115054.42   -118231.36   -115190.49    471922.53 
[...]

Performance: 0.948 ns/day, 25.314 hours/ns, 10.973 timesteps/s
99.9% CPU use with 1 MPI tasks x no OpenMP threads

MPI task timing breakdown:
Section |  min time  |  avg time  |  max time  |%varavg| %total
---------------------------------------------------------------
Pair    | 23.191     | 23.191     | 23.191     |   0.0 | 51.41
Neigh   | 20.916     | 20.916     | 20.916     |   0.0 | 46.37
Comm    | 0.36213    | 0.36213    | 0.36213    |   0.0 |  0.80
Output  | 0.00013304 | 0.00013304 | 0.00013304 |   0.0 |  0.00
Modify  | 0.49549    | 0.49549    | 0.49549    |   0.0 |  1.10
Other   |            | 0.144      |            |       |  0.32

Nlocal:    19652 ave 19652 max 19652 min
Histogram: 1 0 0 0 0 0 0 0 0 0
Nghost:    16041 ave 16041 max 16041 min
Histogram: 1 0 0 0 0 0 0 0 0 0
Neighs:    1.08899e+06 ave 1.08899e+06 max 1.08899e+06 min
Histogram: 1 0 0 0 0 0 0 0 0 0

Total # of neighbors = 1088989
Ave neighs/atom = 55.4136
Neighbor list builds = 495
Dangerous builds not checked
Setting up Verlet run ...
  Unit style    : metal
  Current step  : 80495
  Time step     : 0.001
Per MPI rank memory allocation (min/avg/max) = 18.19 | 18.19 | 18.19 Mbytes
Step Temp Press TotEng PotEng Enthalpy Volume 
   80495    420.48408    13.784875   -120158.47   -121226.54    -120154.5    461840.41 
   81000    396.94096    17.084885   -120286.35   -121294.61   -120281.43    461577.94 
Loop time of 45.1983 on 1 procs for 505 steps with 19652 atoms

Performance: 0.965 ns/day, 24.862 hours/ns, 11.173 timesteps/s
99.6% CPU use with 1 MPI tasks x no OpenMP threads

MPI task timing breakdown:
Section |  min time  |  avg time  |  max time  |%varavg| %total
---------------------------------------------------------------
Pair    | 23.133     | 23.133     | 23.133     |   0.0 | 51.18
Neigh   | 21.004     | 21.004     | 21.004     |   0.0 | 46.47
Comm    | 0.36044    | 0.36044    | 0.36044    |   0.0 |  0.80
Output  | 0.062905   | 0.062905   | 0.062905   |   0.0 |  0.14
Modify  | 0.49466    | 0.49466    | 0.49466    |   0.0 |  1.09
Other   |            | 0.1433     |            |       |  0.32

Nlocal:    19652 ave 19652 max 19652 min
Histogram: 1 0 0 0 0 0 0 0 0 0
Nghost:    16011 ave 16011 max 16011 min
Histogram: 1 0 0 0 0 0 0 0 0 0
Neighs:    1.0899e+06 ave 1.0899e+06 max 1.0899e+06 min
Histogram: 1 0 0 0 0 0 0 0 0 0

Total # of neighbors = 1089897
Ave neighs/atom = 55.4599
Neighbor list builds = 505
Dangerous builds not checked
Setting up Verlet run ...
  Unit style    : metal
  Current step  : 81000
  Time step     : 0.001
Per MPI rank memory allocation (min/avg/max) = 18.19 | 18.19 | 18.19 Mbytes
Step Temp Press TotEng PotEng Enthalpy Volume 
   81000    396.94096    17.084885   -120286.35   -121294.61   -120281.43    461577.94 
   81495    374.61304    189.06603   -120422.46   -121374.01   -120368.02    461305.85 
Loop time of 46.8898 on 1 procs for 495 steps with 19652 atoms

Performance: 0.912 ns/day, 26.313 hours/ns, 10.557 timesteps/s
100.0% CPU use with 1 MPI tasks x no OpenMP threads

MPI task timing breakdown:
Section |  min time  |  avg time  |  max time  |%varavg| %total
---------------------------------------------------------------
Pair    | 24.288     | 24.288     | 24.288     |   0.0 | 51.80
Neigh   | 21.566     | 21.566     | 21.566     |   0.0 | 45.99
Comm    | 0.37374    | 0.37374    | 0.37374    |   0.0 |  0.80
Output  | 0.00011706 | 0.00011706 | 0.00011706 |   0.0 |  0.00
Modify  | 0.51819    | 0.51819    | 0.51819    |   0.0 |  1.11
Other   |            | 0.1434     |            |       |  0.31

Nlocal:    19652 ave 19652 max 19652 min
Histogram: 1 0 0 0 0 0 0 0 0 0
Nghost:    16014 ave 16014 max 16014 min
Histogram: 1 0 0 0 0 0 0 0 0 0
Neighs:    1.09051e+06 ave 1.09051e+06 max 1.09051e+06 min
Histogram: 1 0 0 0 0 0 0 0 0 0

Total # of neighbors = 1090513
Ave neighs/atom = 55.4912
Neighbor list builds = 495
Dangerous builds not checked
Setting up Verlet run ...
  Unit style    : metal
  Current step  : 81495
  Time step     : 0.001
Per MPI rank memory allocation (min/avg/max) = 18.19 | 18.19 | 18.19 Mbytes
Step Temp Press TotEng PotEng Enthalpy Volume 
   81495    374.61304    189.06603   -120422.46   -121374.01   -120368.02    461305.85 
   82000    347.74244    117.13297   -120549.12   -121432.42   -120515.41    461120.75 
Loop time of 47.0885 on 1 procs for 505 steps with 19652 atoms

Performance: 0.927 ns/day, 25.901 hours/ns, 10.724 timesteps/s
99.6% CPU use with 1 MPI tasks x no OpenMP threads

MPI task timing breakdown:
Section |  min time  |  avg time  |  max time  |%varavg| %total
---------------------------------------------------------------
Pair    | 24.168     | 24.168     | 24.168     |   0.0 | 51.32
Neigh   | 21.714     | 21.714     | 21.714     |   0.0 | 46.11
Comm    | 0.37143    | 0.37143    | 0.37143    |   0.0 |  0.79
Output  | 0.17061    | 0.17061    | 0.17061    |   0.0 |  0.36
Modify  | 0.52347    | 0.52347    | 0.52347    |   0.0 |  1.11
Other   |            | 0.142      |            |       |  0.30

Nlocal:    19652 ave 19652 max 19652 min
Histogram: 1 0 0 0 0 0 0 0 0 0
Nghost:    16021 ave 16021 max 16021 min
Histogram: 1 0 0 0 0 0 0 0 0 0
Neighs:    1.09157e+06 ave 1.09157e+06 max 1.09157e+06 min
Histogram: 1 0 0 0 0 0 0 0 0 0

Total # of neighbors = 1091567
Ave neighs/atom = 55.5448
Neighbor list builds = 505
Dangerous builds not checked
Setting up Verlet run ...
  Unit style    : metal
  Current step  : 82000
  Time step     : 0.001
Per MPI rank memory allocation (min/avg/max) = 18.19 | 18.19 | 18.19 Mbytes
Step Temp Press TotEng PotEng Enthalpy Volume 
   82000    347.74244    117.13297   -120549.12   -121432.42   -120515.41    461120.75 
   82495    323.66197    12.069927   -120686.32   -121508.46   -120682.85    460900.93 
Loop time of 46.4376 on 1 procs for 495 steps with 19652 atoms

Performance: 0.921 ns/day, 26.059 hours/ns, 10.659 timesteps/s
100.0% CPU use with 1 MPI tasks x no OpenMP threads

MPI task timing breakdown:
Section |  min time  |  avg time  |  max time  |%varavg| %total
---------------------------------------------------------------
Pair    | 24.025     | 24.025     | 24.025     |   0.0 | 51.74
Neigh   | 21.372     | 21.372     | 21.372     |   0.0 | 46.02
Comm    | 0.37631    | 0.37631    | 0.37631    |   0.0 |  0.81
Output  | 0.000386   | 0.000386   | 0.000386   |   0.0 |  0.00
Modify  | 0.51594    | 0.51594    | 0.51594    |   0.0 |  1.11
Other   |            | 0.1484     |            |       |  0.32

Nlocal:    19652 ave 19652 max 19652 min
Histogram: 1 0 0 0 0 0 0 0 0 0
Nghost:    16032 ave 16032 max 16032 min
Histogram: 1 0 0 0 0 0 0 0 0 0
Neighs:    1.09213e+06 ave 1.09213e+06 max 1.09213e+06 min
Histogram: 1 0 0 0 0 0 0 0 0 0

Total # of neighbors = 1092129
Ave neighs/atom = 55.5734
Neighbor list builds = 495
Dangerous builds not checked
Setting up Verlet run ...
  Unit style    : metal
  Current step  : 82495
  Time step     : 0.001
Per MPI rank memory allocation (min/avg/max) = 18.19 | 18.19 | 18.19 Mbytes
Step Temp Press TotEng PotEng Enthalpy Volume 
   82495    323.66197    12.069927   -120686.32   -121508.46   -120682.85    460900.93 
   83000    297.59851   0.74258894   -120816.42   -121572.35   -120816.21    460695.13 
Loop time of 49.6449 on 1 procs for 505 steps with 19652 atoms

Performance: 0.879 ns/day, 27.307 hours/ns, 10.172 timesteps/s
99.8% CPU use with 1 MPI tasks x no OpenMP threads

MPI task timing breakdown:
Section |  min time  |  avg time  |  max time  |%varavg| %total
---------------------------------------------------------------
Pair    | 25.755     | 25.755     | 25.755     |   0.0 | 51.88
Neigh   | 22.698     | 22.698     | 22.698     |   0.0 | 45.72
Comm    | 0.40289    | 0.40289    | 0.40289    |   0.0 |  0.81
Output  | 0.066306   | 0.066306   | 0.066306   |   0.0 |  0.13
Modify  | 0.56239    | 0.56239    | 0.56239    |   0.0 |  1.13
Other   |            | 0.1604     |            |       |  0.32

Nlocal:    19652 ave 19652 max 19652 min
Histogram: 1 0 0 0 0 0 0 0 0 0
Nghost:    16039 ave 16039 max 16039 min
Histogram: 1 0 0 0 0 0 0 0 0 0
Neighs:    1.09289e+06 ave 1.09289e+06 max 1.09289e+06 min
Histogram: 1 0 0 0 0 0 0 0 0 0

Total # of neighbors = 1092891
Ave neighs/atom = 55.6122
Neighbor list builds = 505
Dangerous builds not checked
Setting up Verlet run ...
  Unit style    : metal
  Current step  : 83000
  Time step     : 0.001
Per MPI rank memory allocation (min/avg/max) = 18.19 | 18.19 | 18.19 Mbytes
Step Temp Press TotEng PotEng Enthalpy Volume 
   83000    297.59851   0.74258894   -120816.42   -121572.35   -120816.21    460695.13 
   83495    272.47246    174.54665   -120948.71   -121640.81   -120898.55    460421.39 
Loop time of 51.5998 on 1 procs for 495 steps with 19652 atoms

Performance: 0.829 ns/day, 28.956 hours/ns, 9.593 timesteps/s
100.0% CPU use with 1 MPI tasks x no OpenMP threads

MPI task timing breakdown:
Section |  min time  |  avg time  |  max time  |%varavg| %total
---------------------------------------------------------------
Pair    | 27.17      | 27.17      | 27.17      |   0.0 | 52.66
Neigh   | 23.255     | 23.255     | 23.255     |   0.0 | 45.07
Comm    | 0.43035    | 0.43035    | 0.43035    |   0.0 |  0.83
Output  | 0.00018001 | 0.00018001 | 0.00018001 |   0.0 |  0.00
Modify  | 0.57939    | 0.57939    | 0.57939    |   0.0 |  1.12
Other   |            | 0.165      |            |       |  0.32

Nlocal:    19652 ave 19652 max 19652 min
Histogram: 1 0 0 0 0 0 0 0 0 0
Nghost:    16018 ave 16018 max 16018 min
Histogram: 1 0 0 0 0 0 0 0 0 0
Neighs:    1.09399e+06 ave 1.09399e+06 max 1.09399e+06 min
Histogram: 1 0 0 0 0 0 0 0 0 0

Total # of neighbors = 1093990
Ave neighs/atom = 55.6681
Neighbor list builds = 495
Dangerous builds not checked
Setting up Verlet run ...
  Unit style    : metal
  Current step  : 83495
  Time step     : 0.001
Per MPI rank memory allocation (min/avg/max) = 18.19 | 18.19 | 18.19 Mbytes
Step Temp Press TotEng PotEng Enthalpy Volume 
   83495    272.47246    174.54665   -120948.71   -121640.81   -120898.55    460421.39 
   84000    248.89543   -232.67709   -121080.25   -121712.46    -121147.1    460358.86 
Loop time of 49.0446 on 1 procs for 505 steps with 19652 atoms

Performance: 0.890 ns/day, 26.977 hours/ns, 10.297 timesteps/s
99.7% CPU use with 1 MPI tasks x no OpenMP threads

MPI task timing breakdown:
Section |  min time  |  avg time  |  max time  |%varavg| %total
---------------------------------------------------------------
Pair    | 25.393     | 25.393     | 25.393     |   0.0 | 51.78
Neigh   | 22.365     | 22.365     | 22.365     |   0.0 | 45.60
Comm    | 0.39631    | 0.39631    | 0.39631    |   0.0 |  0.81
Output  | 0.19082    | 0.19082    | 0.19082    |   0.0 |  0.39
Modify  | 0.54458    | 0.54458    | 0.54458    |   0.0 |  1.11
Other   |            | 0.1546     |            |       |  0.32

Nlocal:    19652 ave 19652 max 19652 min
Histogram: 1 0 0 0 0 0 0 0 0 0
Nghost:    16068 ave 16068 max 16068 min
Histogram: 1 0 0 0 0 0 0 0 0 0
Neighs:    1.09441e+06 ave 1.09441e+06 max 1.09441e+06 min
Histogram: 1 0 0 0 0 0 0 0 0 0

Total # of neighbors = 1094414
Ave neighs/atom = 55.6897
Neighbor list builds = 505
Dangerous builds not checked
Setting up Verlet run ...
  Unit style    : metal
  Current step  : 84000
  Time step     : 0.001
Per MPI rank memory allocation (min/avg/max) = 18.19 | 18.19 | 18.19 Mbytes
Step Temp Press TotEng PotEng Enthalpy Volume 
   84000    248.89543   -232.67709   -121080.25   -121712.46    -121147.1    460358.86 
   84495    222.63539    276.28965   -121208.39   -121773.91   -121129.09     459878.5 
Loop time of 47.5369 on 1 procs for 495 steps with 19652 atoms

Performance: 0.900 ns/day, 26.676 hours/ns, 10.413 timesteps/s
99.9% CPU use with 1 MPI tasks x no OpenMP threads

MPI task timing breakdown:
Section |  min time  |  avg time  |  max time  |%varavg| %total
---------------------------------------------------------------
Pair    | 24.664     | 24.664     | 24.664     |   0.0 | 51.88
Neigh   | 21.804     | 21.804     | 21.804     |   0.0 | 45.87
Comm    | 0.38161    | 0.38161    | 0.38161    |   0.0 |  0.80
Output  | 0.00014901 | 0.00014901 | 0.00014901 |   0.0 |  0.00
Modify  | 0.53697    | 0.53697    | 0.53697    |   0.0 |  1.13
Other   |            | 0.1504     |            |       |  0.32

Nlocal:    19652 ave 19652 max 19652 min
Histogram: 1 0 0 0 0 0 0 0 0 0
Nghost:    16048 ave 16048 max 16048 min
Histogram: 1 0 0 0 0 0 0 0 0 0
Neighs:    1.09595e+06 ave 1.09595e+06 max 1.09595e+06 min
Histogram: 1 0 0 0 0 0 0 0 0 0

Total # of neighbors = 1095946
Ave neighs/atom = 55.7677
Neighbor list builds = 495
Dangerous builds not checked
Setting up Verlet run ...
  Unit style    : metal
  Current step  : 84495
  Time step     : 0.001
Per MPI rank memory allocation (min/avg/max) = 18.19 | 18.19 | 18.19 Mbytes
Step Temp Press TotEng PotEng Enthalpy Volume 
   84495    222.63539    276.28965   -121208.39   -121773.91   -121129.09     459878.5 
   85000    198.78966    153.62287   -121339.03   -121843.98   -121294.96    459693.03 
Loop time of 50.6669 on 1 procs for 505 steps with 19652 atoms

Performance: 0.861 ns/day, 27.870 hours/ns, 9.967 timesteps/s
99.9% CPU use with 1 MPI tasks x no OpenMP threads

MPI task timing breakdown:
Section |  min time  |  avg time  |  max time  |%varavg| %total
---------------------------------------------------------------
Pair    | 26.383     | 26.383     | 26.383     |   0.0 | 52.07
Neigh   | 23.079     | 23.079     | 23.079     |   0.0 | 45.55
Comm    | 0.411      | 0.411      | 0.411      |   0.0 |  0.81
Output  | 0.057133   | 0.057133   | 0.057133   |   0.0 |  0.11
Modify  | 0.57558    | 0.57558    | 0.57558    |   0.0 |  1.14
Other   |            | 0.1616     |            |       |  0.32

Nlocal:    19652 ave 19652 max 19652 min
Histogram: 1 0 0 0 0 0 0 0 0 0
Nghost:    16033 ave 16033 max 16033 min
Histogram: 1 0 0 0 0 0 0 0 0 0
Neighs:    1.0967e+06 ave 1.0967e+06 max 1.0967e+06 min
Histogram: 1 0 0 0 0 0 0 0 0 0

Total # of neighbors = 1096698
Ave neighs/atom = 55.8059
Neighbor list builds = 505
Dangerous builds not checked
Setting up Verlet run ...
  Unit style    : metal
  Current step  : 85000
  Time step     : 0.001
Per MPI rank memory allocation (min/avg/max) = 18.19 | 18.19 | 18.19 Mbytes
Step Temp Press TotEng PotEng Enthalpy Volume 
   85000    198.78966    153.62287   -121339.03   -121843.98   -121294.96    459693.03 
   85495    175.51189    102.89143   -121463.48    -121909.3   -121433.97    459560.45 
Loop time of 49.8032 on 1 procs for 495 steps with 19652 atoms

Performance: 0.859 ns/day, 27.948 hours/ns, 9.939 timesteps/s
99.9% CPU use with 1 MPI tasks x no OpenMP threads

MPI task timing breakdown:
Section |  min time  |  avg time  |  max time  |%varavg| %total
---------------------------------------------------------------
Pair    | 26.094     | 26.094     | 26.094     |   0.0 | 52.39
Neigh   | 22.579     | 22.579     | 22.579     |   0.0 | 45.34
Comm    | 0.4066     | 0.4066     | 0.4066     |   0.0 |  0.82
Output  | 0.00012898 | 0.00012898 | 0.00012898 |   0.0 |  0.00
Modify  | 0.5656     | 0.5656     | 0.5656     |   0.0 |  1.14
Other   |            | 0.1575     |            |       |  0.32

Nlocal:    19652 ave 19652 max 19652 min
Histogram: 1 0 0 0 0 0 0 0 0 0
Nghost:    16070 ave 16070 max 16070 min
Histogram: 1 0 0 0 0 0 0 0 0 0
Neighs:    1.0967e+06 ave 1.0967e+06 max 1.0967e+06 min
Histogram: 1 0 0 0 0 0 0 0 0 0

Total # of neighbors = 1096696
Ave neighs/atom = 55.8058
Neighbor list builds = 495
Dangerous builds not checked
Setting up Verlet run ...
  Unit style    : metal
  Current step  : 85495
  Time step     : 0.001
Per MPI rank memory allocation (min/avg/max) = 18.19 | 18.19 | 18.19 Mbytes
Step Temp Press TotEng PotEng Enthalpy Volume 
   85495    175.51189    102.89143   -121463.48    -121909.3   -121433.97    459560.45 
   86000    150.52373   -18.063012   -121593.06   -121975.41   -121598.24    459428.72 
Loop time of 47.8591 on 1 procs for 505 steps with 19652 atoms

Performance: 0.912 ns/day, 26.325 hours/ns, 10.552 timesteps/s
99.7% CPU use with 1 MPI tasks x no OpenMP threads

MPI task timing breakdown:
Section |  min time  |  avg time  |  max time  |%varavg| %total
---------------------------------------------------------------
Pair    | 24.673     | 24.673     | 24.673     |   0.0 | 51.55
Neigh   | 21.97      | 21.97      | 21.97      |   0.0 | 45.91
Comm    | 0.38448    | 0.38448    | 0.38448    |   0.0 |  0.80
Output  | 0.14925    | 0.14925    | 0.14925    |   0.0 |  0.31
Modify  | 0.53232    | 0.53232    | 0.53232    |   0.0 |  1.11
Other   |            | 0.1497     |            |       |  0.31

Nlocal:    19652 ave 19652 max 19652 min
Histogram: 1 0 0 0 0 0 0 0 0 0
Nghost:    16081 ave 16081 max 16081 min
Histogram: 1 0 0 0 0 0 0 0 0 0
Neighs:    1.09736e+06 ave 1.09736e+06 max 1.09736e+06 min
Histogram: 1 0 0 0 0 0 0 0 0 0

Total # of neighbors = 1097358
Ave neighs/atom = 55.8395
Neighbor list builds = 505
Dangerous builds not checked
Setting up Verlet run ...
  Unit style    : metal
  Current step  : 86000
  Time step     : 0.001
Per MPI rank memory allocation (min/avg/max) = 18.19 | 18.19 | 18.19 Mbytes
Step Temp Press TotEng PotEng Enthalpy Volume 
   86000    150.52373   -18.063012   -121593.06   -121975.41   -121598.24    459428.72 
   86495     127.1116    -87.04513   -121716.94   -122039.81   -121741.89    459269.59 
Loop time of 47.2366 on 1 procs for 495 steps with 19652 atoms

Performance: 0.905 ns/day, 26.508 hours/ns, 10.479 timesteps/s
100.0% CPU use with 1 MPI tasks x no OpenMP threads

MPI task timing breakdown:
Section |  min time  |  avg time  |  max time  |%varavg| %total
---------------------------------------------------------------
Pair    | 24.524     | 24.524     | 24.524     |   0.0 | 51.92
Neigh   | 21.649     | 21.649     | 21.649     |   0.0 | 45.83
Comm    | 0.38222    | 0.38222    | 0.38222    |   0.0 |  0.81
Output  | 0.0001471  | 0.0001471  | 0.0001471  |   0.0 |  0.00
Modify  | 0.53182    | 0.53182    | 0.53182    |   0.0 |  1.13
Other   |            | 0.1494     |            |       |  0.32

Nlocal:    19652 ave 19652 max 19652 min
Histogram: 1 0 0 0 0 0 0 0 0 0
Nghost:    16096 ave 16096 max 16096 min
Histogram: 1 0 0 0 0 0 0 0 0 0
Neighs:    1.09828e+06 ave 1.09828e+06 max 1.09828e+06 min
Histogram: 1 0 0 0 0 0 0 0 0 0

Total # of neighbors = 1098280
Ave neighs/atom = 55.8864
Neighbor list builds = 495
Dangerous builds not checked
Setting up Verlet run ...
  Unit style    : metal
  Current step  : 86495
  Time step     : 0.001
Per MPI rank memory allocation (min/avg/max) = 18.19 | 18.19 | 18.19 Mbytes
Step Temp Press TotEng PotEng Enthalpy Volume 
   86495     127.1116    -87.04513   -121716.94   -122039.81   -121741.89    459269.59 
   87000    102.35383    159.85798   -121844.71    -122104.7   -121798.93     458921.9 
Loop time of 48.2023 on 1 procs for 505 steps with 19652 atoms

Performance: 0.905 ns/day, 26.514 hours/ns, 10.477 timesteps/s
99.8% CPU use with 1 MPI tasks x no OpenMP threads

MPI task timing breakdown:
Section |  min time  |  avg time  |  max time  |%varavg| %total
---------------------------------------------------------------
Pair    | 24.978     | 24.978     | 24.978     |   0.0 | 51.82
Neigh   | 21.988     | 21.988     | 21.988     |   0.0 | 45.62
Comm    | 0.38953    | 0.38953    | 0.38953    |   0.0 |  0.81
Output  | 0.15206    | 0.15206    | 0.15206    |   0.0 |  0.32
Modify  | 0.54175    | 0.54175    | 0.54175    |   0.0 |  1.12
Other   |            | 0.1521     |            |       |  0.32

Nlocal:    19652 ave 19652 max 19652 min
Histogram: 1 0 0 0 0 0 0 0 0 0
Nghost:    16081 ave 16081 max 16081 min
Histogram: 1 0 0 0 0 0 0 0 0 0
Neighs:    1.0993e+06 ave 1.0993e+06 max 1.0993e+06 min
Histogram: 1 0 0 0 0 0 0 0 0 0

Total # of neighbors = 1099299
Ave neighs/atom = 55.9383
Neighbor list builds = 505
Dangerous builds not checked
Total wall time: 2:36:23
