LAMMPS (12 Dec 2018)
Lattice spacing in x,y,z = 4 4 4
Created orthogonal box = (0 0 0) to (68 68 68)
  1 by 1 by 1 MPI processor grid
Created 19652 atoms
  Time spent = 0.00438595 secs
Setting atom values ...
  19480 settings made for type/fraction
Neighbor list info ...
  update every 1 steps, delay 0 steps, check no
  max neighbors/atom: 2000, page size: 100000
  master list distance cutoff = 8.5
  ghost atom cutoff = 8.5
  binsize = 4.25, bins = 16 16 16
  1 neighbor lists, perpetual/occasional/extra = 1 0 0
  (1) pair eam/alloy, perpetual
      attributes: half, newton on
      pair build: half/bin/atomonly/newton
      stencil: half/bin/3d/newton
      bin: standard
Setting up Verlet run ...
  Unit style    : metal
  Current step  : 0
  Time step     : 0.001
Per MPI rank memory allocation (min/avg/max) = 18.19 | 18.19 | 18.19 Mbytes
Step Temp Press TotEng PotEng Enthalpy 
       0          300    24374.552   -65178.202    -65940.23   -60394.622 
    1000    211.85425    34801.648   -65178.134   -65716.264   -58348.206 
Loop time of 133.869 on 1 procs for 1000 steps with 19652 atoms

Performance: 0.645 ns/day, 37.186 hours/ns, 7.470 timesteps/s
99.1% CPU use with 1 MPI tasks x no OpenMP threads

MPI task timing breakdown:
Section |  min time  |  avg time  |  max time  |%varavg| %total
---------------------------------------------------------------
Pair    | 75.629     | 75.629     | 75.629     |   0.0 | 56.49
Neigh   | 56.54      | 56.54      | 56.54      |   0.0 | 42.23
Comm    | 1.0219     | 1.0219     | 1.0219     |   0.0 |  0.76
Output  | 0.00014186 | 0.00014186 | 0.00014186 |   0.0 |  0.00
Modify  | 0.34109    | 0.34109    | 0.34109    |   0.0 |  0.25
Other   |            | 0.3373     |            |       |  0.25

Nlocal:    19652 ave 19652 max 19652 min
Histogram: 1 0 0 0 0 0 0 0 0 0
Nghost:    20101 ave 20101 max 20101 min
Histogram: 1 0 0 0 0 0 0 0 0 0
Neighs:    1.56904e+06 ave 1.56904e+06 max 1.56904e+06 min
Histogram: 1 0 0 0 0 0 0 0 0 0

Total # of neighbors = 1569041
Ave neighs/atom = 79.8413
Neighbor list builds = 1000
Dangerous builds not checked
Setting up Verlet run ...
  Unit style    : metal
  Current step  : 1000
  Time step     : 0.001
Per MPI rank memory allocation (min/avg/max) = 18.2 | 18.2 | 18.2 Mbytes
Step Temp Press TotEng PotEng Enthalpy 
    1000    211.85425    34801.648   -65178.134   -65716.264   -58348.206 
    2000    307.84505   -110.57815   -64705.822   -65487.777   -64728.648 
Loop time of 135.03 on 1 procs for 1000 steps with 19652 atoms

Performance: 0.640 ns/day, 37.508 hours/ns, 7.406 timesteps/s
99.8% CPU use with 1 MPI tasks x no OpenMP threads

MPI task timing breakdown:
Section |  min time  |  avg time  |  max time  |%varavg| %total
---------------------------------------------------------------
Pair    | 74.776     | 74.776     | 74.776     |   0.0 | 55.38
Neigh   | 57.601     | 57.601     | 57.601     |   0.0 | 42.66
Comm    | 1.0211     | 1.0211     | 1.0211     |   0.0 |  0.76
Output  | 0.00015998 | 0.00015998 | 0.00015998 |   0.0 |  0.00
Modify  | 1.2753     | 1.2753     | 1.2753     |   0.0 |  0.94
Other   |            | 0.3556     |            |       |  0.26

Nlocal:    19652 ave 19652 max 19652 min
Histogram: 1 0 0 0 0 0 0 0 0 0
Nghost:    20084 ave 20084 max 20084 min
Histogram: 1 0 0 0 0 0 0 0 0 0
Neighs:    1.45612e+06 ave 1.45612e+06 max 1.45612e+06 min
Histogram: 1 0 0 0 0 0 0 0 0 0

Total # of neighbors = 1456120
Ave neighs/atom = 74.0953
Neighbor list builds = 1000
Dangerous builds not checked
Setting up Verlet run ...
  Unit style    : metal
  Current step  : 2000
  Time step     : 0.001
Per MPI rank memory allocation (min/avg/max) = 18.2 | 18.2 | 18.2 Mbytes
Step Temp Press TotEng PotEng Enthalpy 
    2000    307.84505   -110.57815   -64705.822   -65487.777   -64728.648 
    5000    1036.2729    831.87036   -59582.254   -62214.481   -59389.963 
   10000    2461.2291   -693.65917   -50944.931   -57196.677   -51141.792 
Loop time of 1148.38 on 1 procs for 8000 steps with 19652 atoms

Performance: 0.602 ns/day, 39.874 hours/ns, 6.966 timesteps/s
98.9% CPU use with 1 MPI tasks x no OpenMP threads

MPI task timing breakdown:
Section |  min time  |  avg time  |  max time  |%varavg| %total
---------------------------------------------------------------
Pair    | 619.81     | 619.81     | 619.81     |   0.0 | 53.97
Neigh   | 505.1      | 505.1      | 505.1      |   0.0 | 43.98
Comm    | 8.7725     | 8.7725     | 8.7725     |   0.0 |  0.76
Output  | 0.24833    | 0.24833    | 0.24833    |   0.0 |  0.02
Modify  | 11.316     | 11.316     | 11.316     |   0.0 |  0.99
Other   |            | 3.133      |            |       |  0.27

Nlocal:    19652 ave 19652 max 19652 min
Histogram: 1 0 0 0 0 0 0 0 0 0
Nghost:    16168 ave 16168 max 16168 min
Histogram: 1 0 0 0 0 0 0 0 0 0
Neighs:    1.08548e+06 ave 1.08548e+06 max 1.08548e+06 min
Histogram: 1 0 0 0 0 0 0 0 0 0

Total # of neighbors = 1085479
Ave neighs/atom = 55.235
Neighbor list builds = 8000
Dangerous builds not checked
Setting up Verlet run ...
  Unit style    : metal
  Current step  : 10000
  Time step     : 0.001
Per MPI rank memory allocation (min/avg/max) = 18.2 | 18.2 | 18.2 Mbytes
Step Temp Press TotEng PotEng Enthalpy 
   10000    2461.2291   -693.65917   -50944.931   -57196.677   -51141.792 
   15000    2429.3227   -451.46871   -51059.838   -57230.539    -51187.74 
   20000    2424.3952    118.88878   -51061.351   -57219.536   -51027.699 
   25000     2447.952    48.542553    -50987.32   -57205.341    -50973.56 
   30000     2437.493    285.58501   -50965.814   -57157.268   -50884.777 
   35000    2455.6591    134.38261   -50874.833   -57112.431   -50836.585 
   40000    2442.2411   -44.885753   -50965.897   -57169.412   -50978.637 
Loop time of 4063.85 on 1 procs for 30000 steps with 19652 atoms

Performance: 0.638 ns/day, 37.628 hours/ns, 7.382 timesteps/s
98.8% CPU use with 1 MPI tasks x no OpenMP threads

MPI task timing breakdown:
Section |  min time  |  avg time  |  max time  |%varavg| %total
---------------------------------------------------------------
Pair    | 2190       | 2190       | 2190       |   0.0 | 53.89
Neigh   | 1784.2     | 1784.2     | 1784.2     |   0.0 | 43.91
Comm    | 33.339     | 33.339     | 33.339     |   0.0 |  0.82
Output  | 0.54479    | 0.54479    | 0.54479    |   0.0 |  0.01
Modify  | 43.87      | 43.87      | 43.87      |   0.0 |  1.08
Other   |            | 11.86      |            |       |  0.29

Nlocal:    19652 ave 19652 max 19652 min
Histogram: 1 0 0 0 0 0 0 0 0 0
Nghost:    16111 ave 16111 max 16111 min
Histogram: 1 0 0 0 0 0 0 0 0 0
Neighs:    1.08506e+06 ave 1.08506e+06 max 1.08506e+06 min
Histogram: 1 0 0 0 0 0 0 0 0 0

Total # of neighbors = 1085061
Ave neighs/atom = 55.2138
Neighbor list builds = 30000
Dangerous builds not checked
Setting up Verlet run ...
  Unit style    : metal
  Current step  : 40000
  Time step     : 0.001
Per MPI rank memory allocation (min/avg/max) = 18.2 | 18.2 | 18.2 Mbytes
Step Temp Press TotEng PotEng Enthalpy 
   40000    2442.2411   -44.885753   -50965.897   -57169.412   -50978.637 
   40495    2399.4031    1285.6546   -51207.505   -57302.207   -50845.496 
Loop time of 73.7553 on 1 procs for 495 steps with 19652 atoms

Performance: 0.580 ns/day, 41.389 hours/ns, 6.711 timesteps/s
99.6% CPU use with 1 MPI tasks x no OpenMP threads

MPI task timing breakdown:
Section |  min time  |  avg time  |  max time  |%varavg| %total
---------------------------------------------------------------
Pair    | 40.488     | 40.488     | 40.488     |   0.0 | 54.89
Neigh   | 31.654     | 31.654     | 31.654     |   0.0 | 42.92
Comm    | 0.6205     | 0.6205     | 0.6205     |   0.0 |  0.84
Output  | 0.00017309 | 0.00017309 | 0.00017309 |   0.0 |  0.00
Modify  | 0.76772    | 0.76772    | 0.76772    |   0.0 |  1.04
Other   |            | 0.2254     |            |       |  0.31

Nlocal:    19652 ave 19652 max 19652 min
Histogram: 1 0 0 0 0 0 0 0 0 0
Nghost:    16269 ave 16269 max 16269 min
Histogram: 1 0 0 0 0 0 0 0 0 0
Neighs:    1.09406e+06 ave 1.09406e+06 max 1.09406e+06 min
Histogram: 1 0 0 0 0 0 0 0 0 0

Total # of neighbors = 1094058
Ave neighs/atom = 55.6716
Neighbor list builds = 495
Dangerous builds not checked
Setting up Verlet run ...
  Unit style    : metal
  Current step  : 40495
  Time step     : 0.001
Per MPI rank memory allocation (min/avg/max) = 18.2 | 18.2 | 18.2 Mbytes
Step Temp Press TotEng PotEng Enthalpy 
   40495    2399.4031    1285.6546   -51207.505   -57302.207   -50845.496 
   45000    2396.2638   -160.03227   -51314.442    -57401.17   -51359.468 
Loop time of 671.954 on 1 procs for 4505 steps with 19652 atoms

Performance: 0.579 ns/day, 41.433 hours/ns, 6.704 timesteps/s
98.7% CPU use with 1 MPI tasks x no OpenMP threads

MPI task timing breakdown:
Section |  min time  |  avg time  |  max time  |%varavg| %total
---------------------------------------------------------------
Pair    | 373.34     | 373.34     | 373.34     |   0.0 | 55.56
Neigh   | 283.77     | 283.77     | 283.77     |   0.0 | 42.23
Comm    | 5.6075     | 5.6075     | 5.6075     |   0.0 |  0.83
Output  | 0.083566   | 0.083566   | 0.083566   |   0.0 |  0.01
Modify  | 7.0799     | 7.0799     | 7.0799     |   0.0 |  1.05
Other   |            | 2.068      |            |       |  0.31

Nlocal:    19652 ave 19652 max 19652 min
Histogram: 1 0 0 0 0 0 0 0 0 0
Nghost:    16282 ave 16282 max 16282 min
Histogram: 1 0 0 0 0 0 0 0 0 0
Neighs:    1.09443e+06 ave 1.09443e+06 max 1.09443e+06 min
Histogram: 1 0 0 0 0 0 0 0 0 0

Total # of neighbors = 1094428
Ave neighs/atom = 55.6904
Neighbor list builds = 4505
Dangerous builds not checked
Setting up Verlet run ...
  Unit style    : metal
  Current step  : 45000
  Time step     : 0.001
Per MPI rank memory allocation (min/avg/max) = 18.2 | 18.2 | 18.2 Mbytes
Step Temp Press TotEng PotEng Enthalpy 
   45000    2396.2638   -160.03227   -51314.442    -57401.17   -51359.468 
   45495    2359.8256   -433.50914   -51485.357   -57479.529   -51607.077 
Loop time of 71.2846 on 1 procs for 495 steps with 19652 atoms

Performance: 0.600 ns/day, 40.003 hours/ns, 6.944 timesteps/s
99.8% CPU use with 1 MPI tasks x no OpenMP threads

MPI task timing breakdown:
Section |  min time  |  avg time  |  max time  |%varavg| %total
---------------------------------------------------------------
Pair    | 39.368     | 39.368     | 39.368     |   0.0 | 55.23
Neigh   | 30.329     | 30.329     | 30.329     |   0.0 | 42.55
Comm    | 0.61106    | 0.61106    | 0.61106    |   0.0 |  0.86
Output  | 0.0001812  | 0.0001812  | 0.0001812  |   0.0 |  0.00
Modify  | 0.75269    | 0.75269    | 0.75269    |   0.0 |  1.06
Other   |            | 0.2238     |            |       |  0.31

Nlocal:    19652 ave 19652 max 19652 min
Histogram: 1 0 0 0 0 0 0 0 0 0
Nghost:    16264 ave 16264 max 16264 min
Histogram: 1 0 0 0 0 0 0 0 0 0
Neighs:    1.09747e+06 ave 1.09747e+06 max 1.09747e+06 min
Histogram: 1 0 0 0 0 0 0 0 0 0

Total # of neighbors = 1097467
Ave neighs/atom = 55.8451
Neighbor list builds = 495
Dangerous builds not checked
Setting up Verlet run ...
  Unit style    : metal
  Current step  : 45495
  Time step     : 0.001
Per MPI rank memory allocation (min/avg/max) = 18.2 | 18.2 | 18.2 Mbytes
Step Temp Press TotEng PotEng Enthalpy 
   45495    2359.8256   -433.50914   -51485.357   -57479.529   -51607.077 
   50000     2363.434     223.8753    -51531.72   -57535.057    -51469.12 
Loop time of 629.787 on 1 procs for 4505 steps with 19652 atoms

Performance: 0.618 ns/day, 38.833 hours/ns, 7.153 timesteps/s
98.5% CPU use with 1 MPI tasks x no OpenMP threads

MPI task timing breakdown:
Section |  min time  |  avg time  |  max time  |%varavg| %total
---------------------------------------------------------------
Pair    | 341.34     | 341.34     | 341.34     |   0.0 | 54.20
Neigh   | 274.61     | 274.61     | 274.61     |   0.0 | 43.60
Comm    | 5.1565     | 5.1565     | 5.1565     |   0.0 |  0.82
Output  | 0.079057   | 0.079057   | 0.079057   |   0.0 |  0.01
Modify  | 6.7568     | 6.7568     | 6.7568     |   0.0 |  1.07
Other   |            | 1.841      |            |       |  0.29

Nlocal:    19652 ave 19652 max 19652 min
Histogram: 1 0 0 0 0 0 0 0 0 0
Nghost:    16142 ave 16142 max 16142 min
Histogram: 1 0 0 0 0 0 0 0 0 0
Neighs:    1.10156e+06 ave 1.10156e+06 max 1.10156e+06 min
Histogram: 1 0 0 0 0 0 0 0 0 0

Total # of neighbors = 1101565
Ave neighs/atom = 56.0536
Neighbor list builds = 4505
Dangerous builds not checked
Setting up Verlet run ...
  Unit style    : metal
  Current step  : 50000
  Time step     : 0.001
Per MPI rank memory allocation (min/avg/max) = 18.21 | 18.21 | 18.21 Mbytes
Step Temp Press TotEng PotEng Enthalpy 
   50000     2363.434     223.8753    -51531.72   -57535.057    -51469.12 
   50495    2321.6433   -139.78257   -51702.706   -57599.891   -51741.726 
Loop time of 71.6672 on 1 procs for 495 steps with 19652 atoms

Performance: 0.597 ns/day, 40.217 hours/ns, 6.907 timesteps/s
99.3% CPU use with 1 MPI tasks x no OpenMP threads

MPI task timing breakdown:
Section |  min time  |  avg time  |  max time  |%varavg| %total
---------------------------------------------------------------
Pair    | 39.186     | 39.186     | 39.186     |   0.0 | 54.68
Neigh   | 30.916     | 30.916     | 30.916     |   0.0 | 43.14
Comm    | 0.59314    | 0.59314    | 0.59314    |   0.0 |  0.83
Output  | 0.0002799  | 0.0002799  | 0.0002799  |   0.0 |  0.00
Modify  | 0.74971    | 0.74971    | 0.74971    |   0.0 |  1.05
Other   |            | 0.2224     |            |       |  0.31

Nlocal:    19652 ave 19652 max 19652 min
Histogram: 1 0 0 0 0 0 0 0 0 0
Nghost:    16199 ave 16199 max 16199 min
Histogram: 1 0 0 0 0 0 0 0 0 0
Neighs:    1.1037e+06 ave 1.1037e+06 max 1.1037e+06 min
Histogram: 1 0 0 0 0 0 0 0 0 0

Total # of neighbors = 1103702
Ave neighs/atom = 56.1623
Neighbor list builds = 495
Dangerous builds not checked
Setting up Verlet run ...
  Unit style    : metal
  Current step  : 50495
  Time step     : 0.001
Per MPI rank memory allocation (min/avg/max) = 18.21 | 18.21 | 18.21 Mbytes
Step Temp Press TotEng PotEng Enthalpy 
   50495    2321.6433   -139.78257   -51702.706   -57599.891   -51741.726 
   55000    2305.8834    748.23082   -51806.844   -57663.998   -51598.891 
Loop time of 681.384 on 1 procs for 4505 steps with 19652 atoms

Performance: 0.571 ns/day, 42.014 hours/ns, 6.612 timesteps/s
99.7% CPU use with 1 MPI tasks x no OpenMP threads

MPI task timing breakdown:
Section |  min time  |  avg time  |  max time  |%varavg| %total
---------------------------------------------------------------
Pair    | 365.9      | 365.9      | 365.9      |   0.0 | 53.70
Neigh   | 301.09     | 301.09     | 301.09     |   0.0 | 44.19
Comm    | 5.3618     | 5.3618     | 5.3618     |   0.0 |  0.79
Output  | 0.078943   | 0.078943   | 0.078943   |   0.0 |  0.01
Modify  | 6.9712     | 6.9712     | 6.9712     |   0.0 |  1.02
Other   |            | 1.983      |            |       |  0.29

Nlocal:    19652 ave 19652 max 19652 min
Histogram: 1 0 0 0 0 0 0 0 0 0
Nghost:    16289 ave 16289 max 16289 min
Histogram: 1 0 0 0 0 0 0 0 0 0
Neighs:    1.10879e+06 ave 1.10879e+06 max 1.10879e+06 min
Histogram: 1 0 0 0 0 0 0 0 0 0

Total # of neighbors = 1108788
Ave neighs/atom = 56.4211
Neighbor list builds = 4505
Dangerous builds not checked
Setting up Verlet run ...
  Unit style    : metal
  Current step  : 55000
  Time step     : 0.001
Per MPI rank memory allocation (min/avg/max) = 18.21 | 18.21 | 18.21 Mbytes
Step Temp Press TotEng PotEng Enthalpy 
   55000    2305.8834    748.23082   -51806.844   -57663.998   -51598.891 
   55495    2272.6062   -215.22032   -51963.018   -57735.645   -52022.746 
Loop time of 73.5677 on 1 procs for 495 steps with 19652 atoms

Performance: 0.581 ns/day, 41.284 hours/ns, 6.728 timesteps/s
98.1% CPU use with 1 MPI tasks x no OpenMP threads

MPI task timing breakdown:
Section |  min time  |  avg time  |  max time  |%varavg| %total
---------------------------------------------------------------
Pair    | 39.06      | 39.06      | 39.06      |   0.0 | 53.09
Neigh   | 32.876     | 32.876     | 32.876     |   0.0 | 44.69
Comm    | 0.59409    | 0.59409    | 0.59409    |   0.0 |  0.81
Output  | 0.00017619 | 0.00017619 | 0.00017619 |   0.0 |  0.00
Modify  | 0.80117    | 0.80117    | 0.80117    |   0.0 |  1.09
Other   |            | 0.2367     |            |       |  0.32

Nlocal:    19652 ave 19652 max 19652 min
Histogram: 1 0 0 0 0 0 0 0 0 0
Nghost:    16309 ave 16309 max 16309 min
Histogram: 1 0 0 0 0 0 0 0 0 0
Neighs:    1.10992e+06 ave 1.10992e+06 max 1.10992e+06 min
Histogram: 1 0 0 0 0 0 0 0 0 0

Total # of neighbors = 1109921
Ave neighs/atom = 56.4788
Neighbor list builds = 495
Dangerous builds not checked
Setting up Verlet run ...
  Unit style    : metal
  Current step  : 55495
  Time step     : 0.001
Per MPI rank memory allocation (min/avg/max) = 18.21 | 18.21 | 18.21 Mbytes
Step Temp Press TotEng PotEng Enthalpy 
   55495    2272.6062   -215.22032   -51963.018   -57735.645   -52022.746 
   60000    2275.8464    24.041384   -51903.667   -57684.524   -51896.981 
Loop time of 695.013 on 1 procs for 4505 steps with 19652 atoms

Performance: 0.560 ns/day, 42.854 hours/ns, 6.482 timesteps/s
97.9% CPU use with 1 MPI tasks x no OpenMP threads

MPI task timing breakdown:
Section |  min time  |  avg time  |  max time  |%varavg| %total
---------------------------------------------------------------
Pair    | 369.9      | 369.9      | 369.9      |   0.0 | 53.22
Neigh   | 309.77     | 309.77     | 309.77     |   0.0 | 44.57
Comm    | 5.783      | 5.783      | 5.783      |   0.0 |  0.83
Output  | 0.27413    | 0.27413    | 0.27413    |   0.0 |  0.04
Modify  | 7.2988     | 7.2988     | 7.2988     |   0.0 |  1.05
Other   |            | 1.991      |            |       |  0.29

Nlocal:    19652 ave 19652 max 19652 min
Histogram: 1 0 0 0 0 0 0 0 0 0
Nghost:    16316 ave 16316 max 16316 min
Histogram: 1 0 0 0 0 0 0 0 0 0
Neighs:    1.10786e+06 ave 1.10786e+06 max 1.10786e+06 min
Histogram: 1 0 0 0 0 0 0 0 0 0

Total # of neighbors = 1107855
Ave neighs/atom = 56.3737
Neighbor list builds = 4505
Dangerous builds not checked
Setting up Verlet run ...
  Unit style    : metal
  Current step  : 60000
  Time step     : 0.001
Per MPI rank memory allocation (min/avg/max) = 18.21 | 18.21 | 18.21 Mbytes
Step Temp Press TotEng PotEng Enthalpy 
   60000    2275.8464    24.041384   -51903.667   -57684.524   -51896.981 
   60495    2222.3386    409.32208   -52268.667    -57913.61    -52156.02 
Loop time of 71.4984 on 1 procs for 495 steps with 19652 atoms

Performance: 0.598 ns/day, 40.123 hours/ns, 6.923 timesteps/s
96.1% CPU use with 1 MPI tasks x no OpenMP threads

MPI task timing breakdown:
Section |  min time  |  avg time  |  max time  |%varavg| %total
---------------------------------------------------------------
Pair    | 37.786     | 37.786     | 37.786     |   0.0 | 52.85
Neigh   | 32.128     | 32.128     | 32.128     |   0.0 | 44.93
Comm    | 0.5942     | 0.5942     | 0.5942     |   0.0 |  0.83
Output  | 0.000175   | 0.000175   | 0.000175   |   0.0 |  0.00
Modify  | 0.76741    | 0.76741    | 0.76741    |   0.0 |  1.07
Other   |            | 0.2228     |            |       |  0.31

Nlocal:    19652 ave 19652 max 19652 min
Histogram: 1 0 0 0 0 0 0 0 0 0
Nghost:    16300 ave 16300 max 16300 min
Histogram: 1 0 0 0 0 0 0 0 0 0
Neighs:    1.12002e+06 ave 1.12002e+06 max 1.12002e+06 min
Histogram: 1 0 0 0 0 0 0 0 0 0

Total # of neighbors = 1120024
Ave neighs/atom = 56.9929
Neighbor list builds = 495
Dangerous builds not checked
Setting up Verlet run ...
  Unit style    : metal
  Current step  : 60495
  Time step     : 0.001
Per MPI rank memory allocation (min/avg/max) = 18.21 | 18.21 | 18.21 Mbytes
Step Temp Press TotEng PotEng Enthalpy 
   60495    2222.3386    409.32208   -52268.667    -57913.61    -52156.02 
   65000    2200.0183   -66.916012   -52363.243    -57951.49   -52381.634 
Loop time of 679.495 on 1 procs for 4505 steps with 19652 atoms

Performance: 0.573 ns/day, 41.898 hours/ns, 6.630 timesteps/s
98.5% CPU use with 1 MPI tasks x no OpenMP threads

MPI task timing breakdown:
Section |  min time  |  avg time  |  max time  |%varavg| %total
---------------------------------------------------------------
Pair    | 362.52     | 362.52     | 362.52     |   0.0 | 53.35
Neigh   | 302.43     | 302.43     | 302.43     |   0.0 | 44.51
Comm    | 5.4074     | 5.4074     | 5.4074     |   0.0 |  0.80
Output  | 0.12867    | 0.12867    | 0.12867    |   0.0 |  0.02
Modify  | 7.0143     | 7.0143     | 7.0143     |   0.0 |  1.03
Other   |            | 1.995      |            |       |  0.29

Nlocal:    19652 ave 19652 max 19652 min
Histogram: 1 0 0 0 0 0 0 0 0 0
Nghost:    16368 ave 16368 max 16368 min
Histogram: 1 0 0 0 0 0 0 0 0 0
Neighs:    1.12122e+06 ave 1.12122e+06 max 1.12122e+06 min
Histogram: 1 0 0 0 0 0 0 0 0 0

Total # of neighbors = 1121217
Ave neighs/atom = 57.0536
Neighbor list builds = 4505
Dangerous builds not checked
Setting up Verlet run ...
  Unit style    : metal
  Current step  : 65000
  Time step     : 0.001
Per MPI rank memory allocation (min/avg/max) = 18.21 | 18.21 | 18.21 Mbytes
Step Temp Press TotEng PotEng Enthalpy 
   65000    2200.0183   -66.916012   -52363.243    -57951.49   -52381.634 
   65495    2166.7855   -55.063515    -52525.13   -58028.963   -52540.236 
Loop time of 67.835 on 1 procs for 495 steps with 19652 atoms

Performance: 0.630 ns/day, 38.067 hours/ns, 7.297 timesteps/s
98.7% CPU use with 1 MPI tasks x no OpenMP threads

MPI task timing breakdown:
Section |  min time  |  avg time  |  max time  |%varavg| %total
---------------------------------------------------------------
Pair    | 35.798     | 35.798     | 35.798     |   0.0 | 52.77
Neigh   | 30.554     | 30.554     | 30.554     |   0.0 | 45.04
Comm    | 0.54692    | 0.54692    | 0.54692    |   0.0 |  0.81
Output  | 0.00015998 | 0.00015998 | 0.00015998 |   0.0 |  0.00
Modify  | 0.72745    | 0.72745    | 0.72745    |   0.0 |  1.07
Other   |            | 0.2085     |            |       |  0.31

Nlocal:    19652 ave 19652 max 19652 min
Histogram: 1 0 0 0 0 0 0 0 0 0
Nghost:    16368 ave 16368 max 16368 min
Histogram: 1 0 0 0 0 0 0 0 0 0
Neighs:    1.12305e+06 ave 1.12305e+06 max 1.12305e+06 min
Histogram: 1 0 0 0 0 0 0 0 0 0

Total # of neighbors = 1123051
Ave neighs/atom = 57.1469
Neighbor list builds = 495
Dangerous builds not checked
Setting up Verlet run ...
  Unit style    : metal
  Current step  : 65495
  Time step     : 0.001
Per MPI rank memory allocation (min/avg/max) = 18.21 | 18.21 | 18.21 Mbytes
Step Temp Press TotEng PotEng Enthalpy 
   65495    2166.7855   -55.063515    -52525.13   -58028.963   -52540.236 
   70000    2151.8529   -130.19227    -52593.92   -58059.823   -52629.569 
Loop time of 656.9 on 1 procs for 4505 steps with 19652 atoms

Performance: 0.593 ns/day, 40.504 hours/ns, 6.858 timesteps/s
98.8% CPU use with 1 MPI tasks x no OpenMP threads

MPI task timing breakdown:
Section |  min time  |  avg time  |  max time  |%varavg| %total
---------------------------------------------------------------
Pair    | 348.99     | 348.99     | 348.99     |   0.0 | 53.13
Neigh   | 293.65     | 293.65     | 293.65     |   0.0 | 44.70
Comm    | 5.2377     | 5.2377     | 5.2377     |   0.0 |  0.80
Output  | 0.19282    | 0.19282    | 0.19282    |   0.0 |  0.03
Modify  | 6.8079     | 6.8079     | 6.8079     |   0.0 |  1.04
Other   |            | 2.02       |            |       |  0.31

Nlocal:    19652 ave 19652 max 19652 min
Histogram: 1 0 0 0 0 0 0 0 0 0
Nghost:    16314 ave 16314 max 16314 min
Histogram: 1 0 0 0 0 0 0 0 0 0
Neighs:    1.12577e+06 ave 1.12577e+06 max 1.12577e+06 min
Histogram: 1 0 0 0 0 0 0 0 0 0

Total # of neighbors = 1125766
Ave neighs/atom = 57.2851
Neighbor list builds = 4505
Dangerous builds not checked
Setting up Verlet run ...
  Unit style    : metal
  Current step  : 70000
  Time step     : 0.001
Per MPI rank memory allocation (min/avg/max) = 18.21 | 18.21 | 18.21 Mbytes
Step Temp Press TotEng PotEng Enthalpy 
   70000    2151.8529   -130.19227    -52593.92   -58059.823   -52629.569 
   70495     2119.275    328.85531   -52806.125   -58189.276    -52716.66 
Loop time of 63.6228 on 1 procs for 495 steps with 19652 atoms

Performance: 0.672 ns/day, 35.703 hours/ns, 7.780 timesteps/s
99.6% CPU use with 1 MPI tasks x no OpenMP threads

MPI task timing breakdown:
Section |  min time  |  avg time  |  max time  |%varavg| %total
---------------------------------------------------------------
Pair    | 33.123     | 33.123     | 33.123     |   0.0 | 52.06
Neigh   | 29.107     | 29.107     | 29.107     |   0.0 | 45.75
Comm    | 0.51329    | 0.51329    | 0.51329    |   0.0 |  0.81
Output  | 0.00016713 | 0.00016713 | 0.00016713 |   0.0 |  0.00
Modify  | 0.68231    | 0.68231    | 0.68231    |   0.0 |  1.07
Other   |            | 0.1969     |            |       |  0.31

Nlocal:    19652 ave 19652 max 19652 min
Histogram: 1 0 0 0 0 0 0 0 0 0
Nghost:    16428 ave 16428 max 16428 min
Histogram: 1 0 0 0 0 0 0 0 0 0
Neighs:    1.1328e+06 ave 1.1328e+06 max 1.1328e+06 min
Histogram: 1 0 0 0 0 0 0 0 0 0

Total # of neighbors = 1132795
Ave neighs/atom = 57.6427
Neighbor list builds = 495
Dangerous builds not checked
Setting up Verlet run ...
  Unit style    : metal
  Current step  : 70495
  Time step     : 0.001
Per MPI rank memory allocation (min/avg/max) = 18.21 | 18.21 | 18.21 Mbytes
Step Temp Press TotEng PotEng Enthalpy 
   70495     2119.275    328.85531   -52806.125   -58189.276    -52716.66 
   75000    2097.8527    244.57615   -52921.139   -58249.876   -52854.733 
Loop time of 619.287 on 1 procs for 4505 steps with 19652 atoms

Performance: 0.629 ns/day, 38.185 hours/ns, 7.274 timesteps/s
99.1% CPU use with 1 MPI tasks x no OpenMP threads

MPI task timing breakdown:
Section |  min time  |  avg time  |  max time  |%varavg| %total
---------------------------------------------------------------
Pair    | 326.74     | 326.74     | 326.74     |   0.0 | 52.76
Neigh   | 279.41     | 279.41     | 279.41     |   0.0 | 45.12
Comm    | 4.8595     | 4.8595     | 4.8595     |   0.0 |  0.78
Output  | 0.068496   | 0.068496   | 0.068496   |   0.0 |  0.01
Modify  | 6.3754     | 6.3754     | 6.3754     |   0.0 |  1.03
Other   |            | 1.83       |            |       |  0.30

Nlocal:    19652 ave 19652 max 19652 min
Histogram: 1 0 0 0 0 0 0 0 0 0
Nghost:    16393 ave 16393 max 16393 min
Histogram: 1 0 0 0 0 0 0 0 0 0
Neighs:    1.13571e+06 ave 1.13571e+06 max 1.13571e+06 min
Histogram: 1 0 0 0 0 0 0 0 0 0

Total # of neighbors = 1135709
Ave neighs/atom = 57.791
Neighbor list builds = 4505
Dangerous builds not checked
Setting up Verlet run ...
  Unit style    : metal
  Current step  : 75000
  Time step     : 0.001
Per MPI rank memory allocation (min/avg/max) = 18.21 | 18.21 | 18.21 Mbytes
Step Temp Press TotEng PotEng Enthalpy 
   75000    2097.8527    244.57615   -52921.139   -58249.876   -52854.733 
   75495    2068.4499   -68.140496   -53077.929    -58331.98    -53096.38 
Loop time of 61.5359 on 1 procs for 495 steps with 19652 atoms

Performance: 0.695 ns/day, 34.532 hours/ns, 8.044 timesteps/s
98.9% CPU use with 1 MPI tasks x no OpenMP threads

MPI task timing breakdown:
Section |  min time  |  avg time  |  max time  |%varavg| %total
---------------------------------------------------------------
Pair    | 31.949     | 31.949     | 31.949     |   0.0 | 51.92
Neigh   | 28.245     | 28.245     | 28.245     |   0.0 | 45.90
Comm    | 0.49156    | 0.49156    | 0.49156    |   0.0 |  0.80
Output  | 0.00015807 | 0.00015807 | 0.00015807 |   0.0 |  0.00
Modify  | 0.66947    | 0.66947    | 0.66947    |   0.0 |  1.09
Other   |            | 0.1809     |            |       |  0.29

Nlocal:    19652 ave 19652 max 19652 min
Histogram: 1 0 0 0 0 0 0 0 0 0
Nghost:    16378 ave 16378 max 16378 min
Histogram: 1 0 0 0 0 0 0 0 0 0
Neighs:    1.13878e+06 ave 1.13878e+06 max 1.13878e+06 min
Histogram: 1 0 0 0 0 0 0 0 0 0

Total # of neighbors = 1138783
Ave neighs/atom = 57.9474
Neighbor list builds = 495
Dangerous builds not checked
Setting up Verlet run ...
  Unit style    : metal
  Current step  : 75495
  Time step     : 0.001
Per MPI rank memory allocation (min/avg/max) = 18.21 | 18.21 | 18.21 Mbytes
Step Temp Press TotEng PotEng Enthalpy 
   75495    2068.4499   -68.140496   -53077.929    -58331.98    -53096.38 
   80000    2046.8321   -1084.5874   -53141.503   -58340.644   -53435.714 
Loop time of 607.395 on 1 procs for 4505 steps with 19652 atoms

Performance: 0.641 ns/day, 37.452 hours/ns, 7.417 timesteps/s
98.5% CPU use with 1 MPI tasks x no OpenMP threads

MPI task timing breakdown:
Section |  min time  |  avg time  |  max time  |%varavg| %total
---------------------------------------------------------------
Pair    | 317.71     | 317.71     | 317.71     |   0.0 | 52.31
Neigh   | 276.72     | 276.72     | 276.72     |   0.0 | 45.56
Comm    | 4.8666     | 4.8666     | 4.8666     |   0.0 |  0.80
Output  | 0.077743   | 0.077743   | 0.077743   |   0.0 |  0.01
Modify  | 6.315      | 6.315      | 6.315      |   0.0 |  1.04
Other   |            | 1.71       |            |       |  0.28

Nlocal:    19652 ave 19652 max 19652 min
Histogram: 1 0 0 0 0 0 0 0 0 0
Nghost:    16334 ave 16334 max 16334 min
Histogram: 1 0 0 0 0 0 0 0 0 0
Neighs:    1.13615e+06 ave 1.13615e+06 max 1.13615e+06 min
Histogram: 1 0 0 0 0 0 0 0 0 0

Total # of neighbors = 1136152
Ave neighs/atom = 57.8136
Neighbor list builds = 4505
Dangerous builds not checked
Setting up Verlet run ...
  Unit style    : metal
  Current step  : 80000
  Time step     : 0.001
Per MPI rank memory allocation (min/avg/max) = 18.21 | 18.21 | 18.21 Mbytes
Step Temp Press TotEng PotEng Enthalpy 
   80000    2046.8321   -1084.5874   -53141.503   -58340.644   -53435.714 
   80495    2018.1968   -86.012195   -53403.892   -58530.296   -53426.999 
Loop time of 56.6301 on 1 procs for 495 steps with 19652 atoms

Performance: 0.755 ns/day, 31.779 hours/ns, 8.741 timesteps/s
99.0% CPU use with 1 MPI tasks x no OpenMP threads

MPI task timing breakdown:
Section |  min time  |  avg time  |  max time  |%varavg| %total
---------------------------------------------------------------
Pair    | 28.919     | 28.919     | 28.919     |   0.0 | 51.07
Neigh   | 26.516     | 26.516     | 26.516     |   0.0 | 46.82
Comm    | 0.44228    | 0.44228    | 0.44228    |   0.0 |  0.78
Output  | 0.00012589 | 0.00012589 | 0.00012589 |   0.0 |  0.00
Modify  | 0.59274    | 0.59274    | 0.59274    |   0.0 |  1.05
Other   |            | 0.1598     |            |       |  0.28

Nlocal:    19652 ave 19652 max 19652 min
Histogram: 1 0 0 0 0 0 0 0 0 0
Nghost:    16527 ave 16527 max 16527 min
Histogram: 1 0 0 0 0 0 0 0 0 0
Neighs:    1.14807e+06 ave 1.14807e+06 max 1.14807e+06 min
Histogram: 1 0 0 0 0 0 0 0 0 0

Total # of neighbors = 1148072
Ave neighs/atom = 58.4201
Neighbor list builds = 495
Dangerous builds not checked
Setting up Verlet run ...
  Unit style    : metal
  Current step  : 80495
  Time step     : 0.001
Per MPI rank memory allocation (min/avg/max) = 18.21 | 18.21 | 18.21 Mbytes
Step Temp Press TotEng PotEng Enthalpy 
   80495    2018.1968   -86.012195   -53403.892   -58530.296   -53426.999 
   85000     1999.811   -160.04458   -53443.963   -58523.665   -53486.975 
Loop time of 571.575 on 1 procs for 4505 steps with 19652 atoms

Performance: 0.681 ns/day, 35.243 hours/ns, 7.882 timesteps/s
99.6% CPU use with 1 MPI tasks x no OpenMP threads

MPI task timing breakdown:
Section |  min time  |  avg time  |  max time  |%varavg| %total
---------------------------------------------------------------
Pair    | 297.48     | 297.48     | 297.48     |   0.0 | 52.05
Neigh   | 262.07     | 262.07     | 262.07     |   0.0 | 45.85
Comm    | 4.4837     | 4.4837     | 4.4837     |   0.0 |  0.78
Output  | 0.078822   | 0.078822   | 0.078822   |   0.0 |  0.01
Modify  | 5.8506     | 5.8506     | 5.8506     |   0.0 |  1.02
Other   |            | 1.616      |            |       |  0.28

Nlocal:    19652 ave 19652 max 19652 min
Histogram: 1 0 0 0 0 0 0 0 0 0
Nghost:    16492 ave 16492 max 16492 min
Histogram: 1 0 0 0 0 0 0 0 0 0
Neighs:    1.14748e+06 ave 1.14748e+06 max 1.14748e+06 min
Histogram: 1 0 0 0 0 0 0 0 0 0

Total # of neighbors = 1147485
Ave neighs/atom = 58.3902
Neighbor list builds = 4505
Dangerous builds not checked
Setting up Verlet run ...
  Unit style    : metal
  Current step  : 85000
  Time step     : 0.001
Per MPI rank memory allocation (min/avg/max) = 18.21 | 18.21 | 18.21 Mbytes
Step Temp Press TotEng PotEng Enthalpy 
   85000     1999.811   -160.04458   -53443.963   -58523.665   -53486.975 
   85495    1961.1566    220.53329   -53649.096   -58630.612   -53590.165 
Loop time of 69.1863 on 1 procs for 495 steps with 19652 atoms

Performance: 0.618 ns/day, 38.825 hours/ns, 7.155 timesteps/s
98.7% CPU use with 1 MPI tasks x no OpenMP threads

MPI task timing breakdown:
Section |  min time  |  avg time  |  max time  |%varavg| %total
---------------------------------------------------------------
Pair    | 36.506     | 36.506     | 36.506     |   0.0 | 52.77
Neigh   | 31.206     | 31.206     | 31.206     |   0.0 | 45.10
Comm    | 0.53877    | 0.53877    | 0.53877    |   0.0 |  0.78
Output  | 0.00016999 | 0.00016999 | 0.00016999 |   0.0 |  0.00
Modify  | 0.73254    | 0.73254    | 0.73254    |   0.0 |  1.06
Other   |            | 0.2029     |            |       |  0.29

Nlocal:    19652 ave 19652 max 19652 min
Histogram: 1 0 0 0 0 0 0 0 0 0
Nghost:    16518 ave 16518 max 16518 min
Histogram: 1 0 0 0 0 0 0 0 0 0
Neighs:    1.15368e+06 ave 1.15368e+06 max 1.15368e+06 min
Histogram: 1 0 0 0 0 0 0 0 0 0

Total # of neighbors = 1153685
Ave neighs/atom = 58.7057
Neighbor list builds = 495
Dangerous builds not checked
Setting up Verlet run ...
  Unit style    : metal
  Current step  : 85495
  Time step     : 0.001
Per MPI rank memory allocation (min/avg/max) = 18.21 | 18.21 | 18.21 Mbytes
Step Temp Press TotEng PotEng Enthalpy 
   85495    1961.1566    220.53329   -53649.096   -58630.612   -53590.165 
   90000    1951.0658    127.83529   -53740.358   -58696.243   -53706.277 
Loop time of 624.171 on 1 procs for 4505 steps with 19652 atoms

Performance: 0.624 ns/day, 38.486 hours/ns, 7.218 timesteps/s
99.2% CPU use with 1 MPI tasks x no OpenMP threads

MPI task timing breakdown:
Section |  min time  |  avg time  |  max time  |%varavg| %total
---------------------------------------------------------------
Pair    | 331.82     | 331.82     | 331.82     |   0.0 | 53.16
Neigh   | 279.24     | 279.24     | 279.24     |   0.0 | 44.74
Comm    | 4.8755     | 4.8755     | 4.8755     |   0.0 |  0.78
Output  | 0.065792   | 0.065792   | 0.065792   |   0.0 |  0.01
Modify  | 6.3665     | 6.3665     | 6.3665     |   0.0 |  1.02
Other   |            | 1.81       |            |       |  0.29

Nlocal:    19652 ave 19652 max 19652 min
Histogram: 1 0 0 0 0 0 0 0 0 0
Nghost:    16482 ave 16482 max 16482 min
Histogram: 1 0 0 0 0 0 0 0 0 0
Neighs:    1.15677e+06 ave 1.15677e+06 max 1.15677e+06 min
Histogram: 1 0 0 0 0 0 0 0 0 0

Total # of neighbors = 1156769
Ave neighs/atom = 58.8627
Neighbor list builds = 4505
Dangerous builds not checked
Setting up Verlet run ...
  Unit style    : metal
  Current step  : 90000
  Time step     : 0.001
Per MPI rank memory allocation (min/avg/max) = 18.21 | 18.21 | 18.21 Mbytes
Step Temp Press TotEng PotEng Enthalpy 
   90000    1951.0658    127.83529   -53740.358   -58696.243   -53706.277 
   90495    1915.8419    69.505212   -53925.164   -58791.577   -53906.701 
Loop time of 63.3122 on 1 procs for 495 steps with 19652 atoms

Performance: 0.676 ns/day, 35.529 hours/ns, 7.818 timesteps/s
100.0% CPU use with 1 MPI tasks x no OpenMP threads

MPI task timing breakdown:
Section |  min time  |  avg time  |  max time  |%varavg| %total
---------------------------------------------------------------
Pair    | 33.279     | 33.279     | 33.279     |   0.0 | 52.56
Neigh   | 28.678     | 28.678     | 28.678     |   0.0 | 45.30
Comm    | 0.50226    | 0.50226    | 0.50226    |   0.0 |  0.79
Output  | 0.00018311 | 0.00018311 | 0.00018311 |   0.0 |  0.00
Modify  | 0.66413    | 0.66413    | 0.66413    |   0.0 |  1.05
Other   |            | 0.1887     |            |       |  0.30

Nlocal:    19652 ave 19652 max 19652 min
Histogram: 1 0 0 0 0 0 0 0 0 0
Nghost:    16567 ave 16567 max 16567 min
Histogram: 1 0 0 0 0 0 0 0 0 0
Neighs:    1.16141e+06 ave 1.16141e+06 max 1.16141e+06 min
Histogram: 1 0 0 0 0 0 0 0 0 0

Total # of neighbors = 1161412
Ave neighs/atom = 59.0989
Neighbor list builds = 495
Dangerous builds not checked
Setting up Verlet run ...
  Unit style    : metal
  Current step  : 90495
  Time step     : 0.001
Per MPI rank memory allocation (min/avg/max) = 18.21 | 18.21 | 18.21 Mbytes
Step Temp Press TotEng PotEng Enthalpy 
   90495    1915.8419    69.505212   -53925.164   -58791.577   -53906.701 
   95000    1903.7019    645.39365   -53973.082   -58808.658   -53801.897 
Loop time of 608.711 on 1 procs for 4505 steps with 19652 atoms

Performance: 0.639 ns/day, 37.533 hours/ns, 7.401 timesteps/s
99.5% CPU use with 1 MPI tasks x no OpenMP threads

MPI task timing breakdown:
Section |  min time  |  avg time  |  max time  |%varavg| %total
---------------------------------------------------------------
Pair    | 324.69     | 324.69     | 324.69     |   0.0 | 53.34
Neigh   | 271.32     | 271.32     | 271.32     |   0.0 | 44.57
Comm    | 4.736      | 4.736      | 4.736      |   0.0 |  0.78
Output  | 0.084381   | 0.084381   | 0.084381   |   0.0 |  0.01
Modify  | 6.1279     | 6.1279     | 6.1279     |   0.0 |  1.01
Other   |            | 1.748      |            |       |  0.29

Nlocal:    19652 ave 19652 max 19652 min
Histogram: 1 0 0 0 0 0 0 0 0 0
Nghost:    16574 ave 16574 max 16574 min
Histogram: 1 0 0 0 0 0 0 0 0 0
Neighs:    1.1632e+06 ave 1.1632e+06 max 1.1632e+06 min
Histogram: 1 0 0 0 0 0 0 0 0 0

Total # of neighbors = 1163201
Ave neighs/atom = 59.19
Neighbor list builds = 4505
Dangerous builds not checked
Setting up Verlet run ...
  Unit style    : metal
  Current step  : 95000
  Time step     : 0.001
Per MPI rank memory allocation (min/avg/max) = 18.21 | 18.21 | 18.21 Mbytes
Step Temp Press TotEng PotEng Enthalpy 
   95000    1903.7019    645.39365   -53973.082   -58808.658   -53801.897 
   95495    1869.7129    261.57056   -54192.357   -58941.598   -54123.284 
Loop time of 67.0577 on 1 procs for 495 steps with 19652 atoms

Performance: 0.638 ns/day, 37.631 hours/ns, 7.382 timesteps/s
100.0% CPU use with 1 MPI tasks x no OpenMP threads

MPI task timing breakdown:
Section |  min time  |  avg time  |  max time  |%varavg| %total
---------------------------------------------------------------
Pair    | 35.523     | 35.523     | 35.523     |   0.0 | 52.97
Neigh   | 30.11      | 30.11      | 30.11      |   0.0 | 44.90
Comm    | 0.52737    | 0.52737    | 0.52737    |   0.0 |  0.79
Output  | 0.00016785 | 0.00016785 | 0.00016785 |   0.0 |  0.00
Modify  | 0.70097    | 0.70097    | 0.70097    |   0.0 |  1.05
Other   |            | 0.1961     |            |       |  0.29

Nlocal:    19652 ave 19652 max 19652 min
Histogram: 1 0 0 0 0 0 0 0 0 0
Nghost:    16614 ave 16614 max 16614 min
Histogram: 1 0 0 0 0 0 0 0 0 0
Neighs:    1.16776e+06 ave 1.16776e+06 max 1.16776e+06 min
Histogram: 1 0 0 0 0 0 0 0 0 0

Total # of neighbors = 1167765
Ave neighs/atom = 59.4222
Neighbor list builds = 495
Dangerous builds not checked
Setting up Verlet run ...
  Unit style    : metal
  Current step  : 95495
  Time step     : 0.001
Per MPI rank memory allocation (min/avg/max) = 18.21 | 18.21 | 18.21 Mbytes
Step Temp Press TotEng PotEng Enthalpy 
   95495    1869.7129    261.57056   -54192.357   -58941.598   -54123.284 
  100000      1856.52    951.74524   -54280.074   -58995.804   -54029.754 
Loop time of 556.795 on 1 procs for 4505 steps with 19652 atoms

Performance: 0.699 ns/day, 34.332 hours/ns, 8.091 timesteps/s
99.3% CPU use with 1 MPI tasks x no OpenMP threads

MPI task timing breakdown:
Section |  min time  |  avg time  |  max time  |%varavg| %total
---------------------------------------------------------------
Pair    | 289.11     | 289.11     | 289.11     |   0.0 | 51.92
Neigh   | 256.09     | 256.09     | 256.09     |   0.0 | 45.99
Comm    | 4.3181     | 4.3181     | 4.3181     |   0.0 |  0.78
Output  | 0.089078   | 0.089078   | 0.089078   |   0.0 |  0.02
Modify  | 5.6506     | 5.6506     | 5.6506     |   0.0 |  1.01
Other   |            | 1.536      |            |       |  0.28

Nlocal:    19652 ave 19652 max 19652 min
Histogram: 1 0 0 0 0 0 0 0 0 0
Nghost:    16607 ave 16607 max 16607 min
Histogram: 1 0 0 0 0 0 0 0 0 0
Neighs:    1.17224e+06 ave 1.17224e+06 max 1.17224e+06 min
Histogram: 1 0 0 0 0 0 0 0 0 0

Total # of neighbors = 1172241
Ave neighs/atom = 59.65
Neighbor list builds = 4505
Dangerous builds not checked
Setting up Verlet run ...
  Unit style    : metal
  Current step  : 100000
  Time step     : 0.001
Per MPI rank memory allocation (min/avg/max) = 18.21 | 18.21 | 18.21 Mbytes
Step Temp Press TotEng PotEng Enthalpy 
  100000      1856.52    951.74524   -54280.074   -58995.804   -54029.754 
  100495    1817.4559    510.05472   -54478.678   -59095.182   -54345.006 
Loop time of 54.5164 on 1 procs for 495 steps with 19652 atoms

Performance: 0.784 ns/day, 30.593 hours/ns, 9.080 timesteps/s
99.9% CPU use with 1 MPI tasks x no OpenMP threads

MPI task timing breakdown:
Section |  min time  |  avg time  |  max time  |%varavg| %total
---------------------------------------------------------------
Pair    | 27.813     | 27.813     | 27.813     |   0.0 | 51.02
Neigh   | 25.573     | 25.573     | 25.573     |   0.0 | 46.91
Comm    | 0.41542    | 0.41542    | 0.41542    |   0.0 |  0.76
Output  | 0.00012898 | 0.00012898 | 0.00012898 |   0.0 |  0.00
Modify  | 0.56708    | 0.56708    | 0.56708    |   0.0 |  1.04
Other   |            | 0.1468     |            |       |  0.27

Nlocal:    19652 ave 19652 max 19652 min
Histogram: 1 0 0 0 0 0 0 0 0 0
Nghost:    16637 ave 16637 max 16637 min
Histogram: 1 0 0 0 0 0 0 0 0 0
Neighs:    1.17702e+06 ave 1.17702e+06 max 1.17702e+06 min
Histogram: 1 0 0 0 0 0 0 0 0 0

Total # of neighbors = 1177025
Ave neighs/atom = 59.8934
Neighbor list builds = 495
Dangerous builds not checked
Setting up Verlet run ...
  Unit style    : metal
  Current step  : 100495
  Time step     : 0.001
Per MPI rank memory allocation (min/avg/max) = 18.21 | 18.21 | 18.21 Mbytes
Step Temp Press TotEng PotEng Enthalpy 
  100495    1817.4559    510.05472   -54478.678   -59095.182   -54345.006 
  105000    1808.8316    -3.952673   -54577.674   -59172.271   -54578.708 
Loop time of 584.766 on 1 procs for 4505 steps with 19652 atoms

Performance: 0.666 ns/day, 36.057 hours/ns, 7.704 timesteps/s
99.8% CPU use with 1 MPI tasks x no OpenMP threads

MPI task timing breakdown:
Section |  min time  |  avg time  |  max time  |%varavg| %total
---------------------------------------------------------------
Pair    | 308.92     | 308.92     | 308.92     |   0.0 | 52.83
Neigh   | 263.78     | 263.78     | 263.78     |   0.0 | 45.11
Comm    | 4.4805     | 4.4805     | 4.4805     |   0.0 |  0.77
Output  | 0.098674   | 0.098674   | 0.098674   |   0.0 |  0.02
Modify  | 5.8696     | 5.8696     | 5.8696     |   0.0 |  1.00
Other   |            | 1.617      |            |       |  0.28

Nlocal:    19652 ave 19652 max 19652 min
Histogram: 1 0 0 0 0 0 0 0 0 0
Nghost:    16612 ave 16612 max 16612 min
Histogram: 1 0 0 0 0 0 0 0 0 0
Neighs:    1.17992e+06 ave 1.17992e+06 max 1.17992e+06 min
Histogram: 1 0 0 0 0 0 0 0 0 0

Total # of neighbors = 1179920
Ave neighs/atom = 60.0407
Neighbor list builds = 4505
Dangerous builds not checked
Setting up Verlet run ...
  Unit style    : metal
  Current step  : 105000
  Time step     : 0.001
Per MPI rank memory allocation (min/avg/max) = 18.21 | 18.21 | 18.21 Mbytes
Step Temp Press TotEng PotEng Enthalpy 
  105000    1808.8316    -3.952673   -54577.674   -59172.271   -54578.708 
  105495    1759.2844    63.964923   -54758.978   -59227.721   -54742.281 
Loop time of 63.8315 on 1 procs for 495 steps with 19652 atoms

Performance: 0.670 ns/day, 35.820 hours/ns, 7.755 timesteps/s
99.9% CPU use with 1 MPI tasks x no OpenMP threads

MPI task timing breakdown:
Section |  min time  |  avg time  |  max time  |%varavg| %total
---------------------------------------------------------------
Pair    | 33.597     | 33.597     | 33.597     |   0.0 | 52.63
Neigh   | 28.874     | 28.874     | 28.874     |   0.0 | 45.23
Comm    | 0.51143    | 0.51143    | 0.51143    |   0.0 |  0.80
Output  | 0.00017619 | 0.00017619 | 0.00017619 |   0.0 |  0.00
Modify  | 0.65649    | 0.65649    | 0.65649    |   0.0 |  1.03
Other   |            | 0.1924     |            |       |  0.30

Nlocal:    19652 ave 19652 max 19652 min
Histogram: 1 0 0 0 0 0 0 0 0 0
Nghost:    16696 ave 16696 max 16696 min
Histogram: 1 0 0 0 0 0 0 0 0 0
Neighs:    1.18263e+06 ave 1.18263e+06 max 1.18263e+06 min
Histogram: 1 0 0 0 0 0 0 0 0 0

Total # of neighbors = 1182634
Ave neighs/atom = 60.1788
Neighbor list builds = 495
Dangerous builds not checked
Setting up Verlet run ...
  Unit style    : metal
  Current step  : 105495
  Time step     : 0.001
Per MPI rank memory allocation (min/avg/max) = 18.21 | 18.21 | 18.21 Mbytes
Step Temp Press TotEng PotEng Enthalpy 
  105495    1759.2844    63.964923   -54758.978   -59227.721   -54742.281 
  110000    1748.8202   -938.16447   -54811.424   -59253.586     -55056.4 
Loop time of 621.487 on 1 procs for 4505 steps with 19652 atoms

Performance: 0.626 ns/day, 38.321 hours/ns, 7.249 timesteps/s
99.0% CPU use with 1 MPI tasks x no OpenMP threads

MPI task timing breakdown:
Section |  min time  |  avg time  |  max time  |%varavg| %total
---------------------------------------------------------------
Pair    | 331.1      | 331.1      | 331.1      |   0.0 | 53.28
Neigh   | 277.23     | 277.23     | 277.23     |   0.0 | 44.61
Comm    | 4.9128     | 4.9128     | 4.9128     |   0.0 |  0.79
Output  | 0.11639    | 0.11639    | 0.11639    |   0.0 |  0.02
Modify  | 6.289      | 6.289      | 6.289      |   0.0 |  1.01
Other   |            | 1.842      |            |       |  0.30

Nlocal:    19652 ave 19652 max 19652 min
Histogram: 1 0 0 0 0 0 0 0 0 0
Nghost:    16670 ave 16670 max 16670 min
Histogram: 1 0 0 0 0 0 0 0 0 0
Neighs:    1.18145e+06 ave 1.18145e+06 max 1.18145e+06 min
Histogram: 1 0 0 0 0 0 0 0 0 0

Total # of neighbors = 1181446
Ave neighs/atom = 60.1184
Neighbor list builds = 4505
Dangerous builds not checked
Setting up Verlet run ...
  Unit style    : metal
  Current step  : 110000
  Time step     : 0.001
Per MPI rank memory allocation (min/avg/max) = 18.21 | 18.21 | 18.21 Mbytes
Step Temp Press TotEng PotEng Enthalpy 
  110000    1748.8202   -938.16447   -54811.424   -59253.586     -55056.4 
  110495    1702.6445    433.04798   -55080.572   -59405.444   -54968.492 
Loop time of 69.8752 on 1 procs for 495 steps with 19652 atoms

Performance: 0.612 ns/day, 39.212 hours/ns, 7.084 timesteps/s
98.6% CPU use with 1 MPI tasks x no OpenMP threads

MPI task timing breakdown:
Section |  min time  |  avg time  |  max time  |%varavg| %total
---------------------------------------------------------------
Pair    | 37.203     | 37.203     | 37.203     |   0.0 | 53.24
Neigh   | 31.178     | 31.178     | 31.178     |   0.0 | 44.62
Comm    | 0.5559     | 0.5559     | 0.5559     |   0.0 |  0.80
Output  | 0.00013995 | 0.00013995 | 0.00013995 |   0.0 |  0.00
Modify  | 0.72506    | 0.72506    | 0.72506    |   0.0 |  1.04
Other   |            | 0.2132     |            |       |  0.31

Nlocal:    19652 ave 19652 max 19652 min
Histogram: 1 0 0 0 0 0 0 0 0 0
Nghost:    16730 ave 16730 max 16730 min
Histogram: 1 0 0 0 0 0 0 0 0 0
Neighs:    1.19156e+06 ave 1.19156e+06 max 1.19156e+06 min
Histogram: 1 0 0 0 0 0 0 0 0 0

Total # of neighbors = 1191563
Ave neighs/atom = 60.6332
Neighbor list builds = 495
Dangerous builds not checked
Setting up Verlet run ...
  Unit style    : metal
  Current step  : 110495
  Time step     : 0.001
Per MPI rank memory allocation (min/avg/max) = 18.21 | 18.21 | 18.21 Mbytes
Step Temp Press TotEng PotEng Enthalpy 
  110495    1702.6445    433.04798   -55080.572   -59405.444   -54968.492 
  115000    1718.0014    428.62332   -55085.391   -59449.272   -54974.613 
Loop time of 627.975 on 1 procs for 4505 steps with 19652 atoms

Performance: 0.620 ns/day, 38.721 hours/ns, 7.174 timesteps/s
99.6% CPU use with 1 MPI tasks x no OpenMP threads

MPI task timing breakdown:
Section |  min time  |  avg time  |  max time  |%varavg| %total
---------------------------------------------------------------
Pair    | 335.47     | 335.47     | 335.47     |   0.0 | 53.42
Neigh   | 279.36     | 279.36     | 279.36     |   0.0 | 44.49
Comm    | 4.9376     | 4.9376     | 4.9376     |   0.0 |  0.79
Output  | 0.067511   | 0.067511   | 0.067511   |   0.0 |  0.01
Modify  | 6.2939     | 6.2939     | 6.2939     |   0.0 |  1.00
Other   |            | 1.843      |            |       |  0.29

Nlocal:    19652 ave 19652 max 19652 min
Histogram: 1 0 0 0 0 0 0 0 0 0
Nghost:    16757 ave 16757 max 16757 min
Histogram: 1 0 0 0 0 0 0 0 0 0
Neighs:    1.19444e+06 ave 1.19444e+06 max 1.19444e+06 min
Histogram: 1 0 0 0 0 0 0 0 0 0

Total # of neighbors = 1194444
Ave neighs/atom = 60.7798
Neighbor list builds = 4505
Dangerous builds not checked
Setting up Verlet run ...
  Unit style    : metal
  Current step  : 115000
  Time step     : 0.001
Per MPI rank memory allocation (min/avg/max) = 18.21 | 18.21 | 18.21 Mbytes
Step Temp Press TotEng PotEng Enthalpy 
  115000    1718.0014    428.62332   -55085.391   -59449.272   -54974.613 
  115495    1676.2663    307.65039   -55340.005   -59597.874   -55260.932 
Loop time of 60.5433 on 1 procs for 495 steps with 19652 atoms

Performance: 0.706 ns/day, 33.975 hours/ns, 8.176 timesteps/s
99.3% CPU use with 1 MPI tasks x no OpenMP threads

MPI task timing breakdown:
Section |  min time  |  avg time  |  max time  |%varavg| %total
---------------------------------------------------------------
Pair    | 31.532     | 31.532     | 31.532     |   0.0 | 52.08
Neigh   | 27.714     | 27.714     | 27.714     |   0.0 | 45.77
Comm    | 0.48458    | 0.48458    | 0.48458    |   0.0 |  0.80
Output  | 0.00016594 | 0.00016594 | 0.00016594 |   0.0 |  0.00
Modify  | 0.63189    | 0.63189    | 0.63189    |   0.0 |  1.04
Other   |            | 0.181      |            |       |  0.30

Nlocal:    19652 ave 19652 max 19652 min
Histogram: 1 0 0 0 0 0 0 0 0 0
Nghost:    16835 ave 16835 max 16835 min
Histogram: 1 0 0 0 0 0 0 0 0 0
Neighs:    1.20132e+06 ave 1.20132e+06 max 1.20132e+06 min
Histogram: 1 0 0 0 0 0 0 0 0 0

Total # of neighbors = 1201316
Ave neighs/atom = 61.1295
Neighbor list builds = 495
Dangerous builds not checked
Setting up Verlet run ...
  Unit style    : metal
  Current step  : 115495
  Time step     : 0.001
Per MPI rank memory allocation (min/avg/max) = 18.21 | 18.21 | 18.21 Mbytes
Step Temp Press TotEng PotEng Enthalpy 
  115495    1676.2663    307.65039   -55340.005   -59597.874   -55260.932 
  120000    1658.9973    121.24462   -55472.976   -59686.981   -55441.904 
Loop time of 545.82 on 1 procs for 4505 steps with 19652 atoms

Performance: 0.713 ns/day, 33.655 hours/ns, 8.254 timesteps/s
99.3% CPU use with 1 MPI tasks x no OpenMP threads

MPI task timing breakdown:
Section |  min time  |  avg time  |  max time  |%varavg| %total
---------------------------------------------------------------
Pair    | 284.73     | 284.73     | 284.73     |   0.0 | 52.17
Neigh   | 249.71     | 249.71     | 249.71     |   0.0 | 45.75
Comm    | 4.2175     | 4.2175     | 4.2175     |   0.0 |  0.77
Output  | 0.088346   | 0.088346   | 0.088346   |   0.0 |  0.02
Modify  | 5.5473     | 5.5473     | 5.5473     |   0.0 |  1.02
Other   |            | 1.526      |            |       |  0.28

Nlocal:    19652 ave 19652 max 19652 min
Histogram: 1 0 0 0 0 0 0 0 0 0
Nghost:    16757 ave 16757 max 16757 min
Histogram: 1 0 0 0 0 0 0 0 0 0
Neighs:    1.20467e+06 ave 1.20467e+06 max 1.20467e+06 min
Histogram: 1 0 0 0 0 0 0 0 0 0

Total # of neighbors = 1204671
Ave neighs/atom = 61.3002
Neighbor list builds = 4505
Dangerous builds not checked
Setting up Verlet run ...
  Unit style    : metal
  Current step  : 120000
  Time step     : 0.001
Per MPI rank memory allocation (min/avg/max) = 18.21 | 18.21 | 18.21 Mbytes
Step Temp Press TotEng PotEng Enthalpy 
  120000    1658.9973    121.24462   -55472.976   -59686.981   -55441.904 
  120495    1612.6545    698.92946   -55615.634   -59711.923   -55437.051 
Loop time of 64.0816 on 1 procs for 495 steps with 19652 atoms

Performance: 0.667 ns/day, 35.960 hours/ns, 7.725 timesteps/s
99.7% CPU use with 1 MPI tasks x no OpenMP threads

MPI task timing breakdown:
Section |  min time  |  avg time  |  max time  |%varavg| %total
---------------------------------------------------------------
Pair    | 33.601     | 33.601     | 33.601     |   0.0 | 52.43
Neigh   | 29.132     | 29.132     | 29.132     |   0.0 | 45.46
Comm    | 0.49242    | 0.49242    | 0.49242    |   0.0 |  0.77
Output  | 0.00015593 | 0.00015593 | 0.00015593 |   0.0 |  0.00
Modify  | 0.67075    | 0.67075    | 0.67075    |   0.0 |  1.05
Other   |            | 0.1851     |            |       |  0.29

Nlocal:    19652 ave 19652 max 19652 min
Histogram: 1 0 0 0 0 0 0 0 0 0
Nghost:    16809 ave 16809 max 16809 min
Histogram: 1 0 0 0 0 0 0 0 0 0
Neighs:    1.20789e+06 ave 1.20789e+06 max 1.20789e+06 min
Histogram: 1 0 0 0 0 0 0 0 0 0

Total # of neighbors = 1207890
Ave neighs/atom = 61.464
Neighbor list builds = 495
Dangerous builds not checked
Setting up Verlet run ...
  Unit style    : metal
  Current step  : 120495
  Time step     : 0.001
Per MPI rank memory allocation (min/avg/max) = 18.21 | 18.21 | 18.21 Mbytes
Step Temp Press TotEng PotEng Enthalpy 
  120495    1612.6545    698.92946   -55615.634   -59711.923   -55437.051 
  125000    1612.9513   -449.04877   -55665.723   -59762.766   -55780.502 
Loop time of 600.595 on 1 procs for 4505 steps with 19652 atoms

Performance: 0.648 ns/day, 37.033 hours/ns, 7.501 timesteps/s
99.1% CPU use with 1 MPI tasks x no OpenMP threads

MPI task timing breakdown:
Section |  min time  |  avg time  |  max time  |%varavg| %total
---------------------------------------------------------------
Pair    | 318.84     | 318.84     | 318.84     |   0.0 | 53.09
Neigh   | 268.38     | 268.38     | 268.38     |   0.0 | 44.69
Comm    | 4.5948     | 4.5948     | 4.5948     |   0.0 |  0.77
Output  | 1.0409     | 1.0409     | 1.0409     |   0.0 |  0.17
Modify  | 6.0579     | 6.0579     | 6.0579     |   0.0 |  1.01
Other   |            | 1.688      |            |       |  0.28

Nlocal:    19652 ave 19652 max 19652 min
Histogram: 1 0 0 0 0 0 0 0 0 0
Nghost:    16873 ave 16873 max 16873 min
Histogram: 1 0 0 0 0 0 0 0 0 0
Neighs:    1.20793e+06 ave 1.20793e+06 max 1.20793e+06 min
Histogram: 1 0 0 0 0 0 0 0 0 0

Total # of neighbors = 1207926
Ave neighs/atom = 61.4658
Neighbor list builds = 4505
Dangerous builds not checked
Setting up Verlet run ...
  Unit style    : metal
  Current step  : 125000
  Time step     : 0.001
Per MPI rank memory allocation (min/avg/max) = 18.21 | 18.21 | 18.21 Mbytes
Step Temp Press TotEng PotEng Enthalpy 
  125000    1612.9513   -449.04877   -55665.723   -59762.766   -55780.502 
  125495    1556.9611   -99.970916   -55916.148   -59870.971   -55941.574 
Loop time of 67.0174 on 1 procs for 495 steps with 19652 atoms

Performance: 0.638 ns/day, 37.608 hours/ns, 7.386 timesteps/s
99.9% CPU use with 1 MPI tasks x no OpenMP threads

MPI task timing breakdown:
Section |  min time  |  avg time  |  max time  |%varavg| %total
---------------------------------------------------------------
Pair    | 35.742     | 35.742     | 35.742     |   0.0 | 53.33
Neigh   | 29.834     | 29.834     | 29.834     |   0.0 | 44.52
Comm    | 0.53203    | 0.53203    | 0.53203    |   0.0 |  0.79
Output  | 0.00013304 | 0.00013304 | 0.00013304 |   0.0 |  0.00
Modify  | 0.70746    | 0.70746    | 0.70746    |   0.0 |  1.06
Other   |            | 0.2011     |            |       |  0.30

Nlocal:    19652 ave 19652 max 19652 min
Histogram: 1 0 0 0 0 0 0 0 0 0
Nghost:    16817 ave 16817 max 16817 min
Histogram: 1 0 0 0 0 0 0 0 0 0
Neighs:    1.21387e+06 ave 1.21387e+06 max 1.21387e+06 min
Histogram: 1 0 0 0 0 0 0 0 0 0

Total # of neighbors = 1213868
Ave neighs/atom = 61.7682
Neighbor list builds = 495
Dangerous builds not checked
Setting up Verlet run ...
  Unit style    : metal
  Current step  : 125495
  Time step     : 0.001
Per MPI rank memory allocation (min/avg/max) = 18.21 | 18.21 | 18.21 Mbytes
Step Temp Press TotEng PotEng Enthalpy 
  125495    1556.9611   -99.970916   -55916.148   -59870.971   -55941.574 
  130000    1546.1097   -62.012063   -56023.882   -59951.142   -56039.606 
Loop time of 594.591 on 1 procs for 4505 steps with 19652 atoms

Performance: 0.655 ns/day, 36.662 hours/ns, 7.577 timesteps/s
99.4% CPU use with 1 MPI tasks x no OpenMP threads

MPI task timing breakdown:
Section |  min time  |  avg time  |  max time  |%varavg| %total
---------------------------------------------------------------
Pair    | 315.62     | 315.62     | 315.62     |   0.0 | 53.08
Neigh   | 266.68     | 266.68     | 266.68     |   0.0 | 44.85
Comm    | 4.5416     | 4.5416     | 4.5416     |   0.0 |  0.76
Output  | 0.10096    | 0.10096    | 0.10096    |   0.0 |  0.02
Modify  | 5.9838     | 5.9838     | 5.9838     |   0.0 |  1.01
Other   |            | 1.665      |            |       |  0.28

Nlocal:    19652 ave 19652 max 19652 min
Histogram: 1 0 0 0 0 0 0 0 0 0
Nghost:    16886 ave 16886 max 16886 min
Histogram: 1 0 0 0 0 0 0 0 0 0
Neighs:    1.21794e+06 ave 1.21794e+06 max 1.21794e+06 min
Histogram: 1 0 0 0 0 0 0 0 0 0

Total # of neighbors = 1217940
Ave neighs/atom = 61.9754
Neighbor list builds = 4505
Dangerous builds not checked
Setting up Verlet run ...
  Unit style    : metal
  Current step  : 130000
  Time step     : 0.001
Per MPI rank memory allocation (min/avg/max) = 18.21 | 18.21 | 18.21 Mbytes
Step Temp Press TotEng PotEng Enthalpy 
  130000    1546.1097   -62.012063   -56023.882   -59951.142   -56039.606 
  130495     1519.776    241.49836   -56227.304   -60087.673   -56166.418 
Loop time of 55.1101 on 1 procs for 495 steps with 19652 atoms

Performance: 0.776 ns/day, 30.926 hours/ns, 8.982 timesteps/s
100.0% CPU use with 1 MPI tasks x no OpenMP threads

MPI task timing breakdown:
Section |  min time  |  avg time  |  max time  |%varavg| %total
---------------------------------------------------------------
Pair    | 28.468     | 28.468     | 28.468     |   0.0 | 51.66
Neigh   | 25.516     | 25.516     | 25.516     |   0.0 | 46.30
Comm    | 0.41648    | 0.41648    | 0.41648    |   0.0 |  0.76
Output  | 0.00012898 | 0.00012898 | 0.00012898 |   0.0 |  0.00
Modify  | 0.55864    | 0.55864    | 0.55864    |   0.0 |  1.01
Other   |            | 0.151      |            |       |  0.27

Nlocal:    19652 ave 19652 max 19652 min
Histogram: 1 0 0 0 0 0 0 0 0 0
Nghost:    16979 ave 16979 max 16979 min
Histogram: 1 0 0 0 0 0 0 0 0 0
Neighs:    1.22476e+06 ave 1.22476e+06 max 1.22476e+06 min
Histogram: 1 0 0 0 0 0 0 0 0 0

Total # of neighbors = 1224760
Ave neighs/atom = 62.3224
Neighbor list builds = 495
Dangerous builds not checked
Setting up Verlet run ...
  Unit style    : metal
  Current step  : 130495
  Time step     : 0.001
Per MPI rank memory allocation (min/avg/max) = 18.21 | 18.21 | 18.21 Mbytes
Step Temp Press TotEng PotEng Enthalpy 
  130495     1519.776    241.49836   -56227.304   -60087.673   -56166.418 
  135000    1495.7825    441.76509   -56340.179   -60139.603   -56229.071 
Loop time of 619.084 on 1 procs for 4505 steps with 19652 atoms

Performance: 0.629 ns/day, 38.173 hours/ns, 7.277 timesteps/s
99.2% CPU use with 1 MPI tasks x no OpenMP threads

MPI task timing breakdown:
Section |  min time  |  avg time  |  max time  |%varavg| %total
---------------------------------------------------------------
Pair    | 331.49     | 331.49     | 331.49     |   0.0 | 53.54
Neigh   | 274.82     | 274.82     | 274.82     |   0.0 | 44.39
Comm    | 4.7266     | 4.7266     | 4.7266     |   0.0 |  0.76
Output  | 0.18664    | 0.18664    | 0.18664    |   0.0 |  0.03
Modify  | 6.1438     | 6.1438     | 6.1438     |   0.0 |  0.99
Other   |            | 1.716      |            |       |  0.28

Nlocal:    19652 ave 19652 max 19652 min
Histogram: 1 0 0 0 0 0 0 0 0 0
Nghost:    16948 ave 16948 max 16948 min
Histogram: 1 0 0 0 0 0 0 0 0 0
Neighs:    1.22791e+06 ave 1.22791e+06 max 1.22791e+06 min
Histogram: 1 0 0 0 0 0 0 0 0 0

Total # of neighbors = 1227910
Ave neighs/atom = 62.4827
Neighbor list builds = 4505
Dangerous builds not checked
Setting up Verlet run ...
  Unit style    : metal
  Current step  : 135000
  Time step     : 0.001
Per MPI rank memory allocation (min/avg/max) = 18.21 | 18.21 | 18.21 Mbytes
Step Temp Press TotEng PotEng Enthalpy 
  135000    1495.7825    441.76509   -56340.179   -60139.603   -56229.071 
  135495    1462.1157    642.39304   -56506.339   -60220.246   -56345.419 
Loop time of 68.1876 on 1 procs for 495 steps with 19652 atoms

Performance: 0.627 ns/day, 38.265 hours/ns, 7.259 timesteps/s
98.1% CPU use with 1 MPI tasks x no OpenMP threads

MPI task timing breakdown:
Section |  min time  |  avg time  |  max time  |%varavg| %total
---------------------------------------------------------------
Pair    | 36.219     | 36.219     | 36.219     |   0.0 | 53.12
Neigh   | 30.561     | 30.561     | 30.561     |   0.0 | 44.82
Comm    | 0.52428    | 0.52428    | 0.52428    |   0.0 |  0.77
Output  | 0.00018001 | 0.00018001 | 0.00018001 |   0.0 |  0.00
Modify  | 0.69394    | 0.69394    | 0.69394    |   0.0 |  1.02
Other   |            | 0.189      |            |       |  0.28

Nlocal:    19652 ave 19652 max 19652 min
Histogram: 1 0 0 0 0 0 0 0 0 0
Nghost:    16977 ave 16977 max 16977 min
Histogram: 1 0 0 0 0 0 0 0 0 0
Neighs:    1.23366e+06 ave 1.23366e+06 max 1.23366e+06 min
Histogram: 1 0 0 0 0 0 0 0 0 0

Total # of neighbors = 1233659
Ave neighs/atom = 62.7752
Neighbor list builds = 495
Dangerous builds not checked
Setting up Verlet run ...
  Unit style    : metal
  Current step  : 135495
  Time step     : 0.001
Per MPI rank memory allocation (min/avg/max) = 18.21 | 18.21 | 18.21 Mbytes
Step Temp Press TotEng PotEng Enthalpy 
  135495    1462.1157    642.39304   -56506.339   -60220.246   -56345.419 
  140000    1448.3172    609.01406   -56632.515   -60311.373   -56480.535 
Loop time of 662.978 on 1 procs for 4505 steps with 19652 atoms

Performance: 0.587 ns/day, 40.879 hours/ns, 6.795 timesteps/s
99.5% CPU use with 1 MPI tasks x no OpenMP threads

MPI task timing breakdown:
Section |  min time  |  avg time  |  max time  |%varavg| %total
---------------------------------------------------------------
Pair    | 360.12     | 360.12     | 360.12     |   0.0 | 54.32
Neigh   | 289.27     | 289.27     | 289.27     |   0.0 | 43.63
Comm    | 5.0532     | 5.0532     | 5.0532     |   0.0 |  0.76
Output  | 0.068891   | 0.068891   | 0.068891   |   0.0 |  0.01
Modify  | 6.5853     | 6.5853     | 6.5853     |   0.0 |  0.99
Other   |            | 1.886      |            |       |  0.28

Nlocal:    19652 ave 19652 max 19652 min
Histogram: 1 0 0 0 0 0 0 0 0 0
Nghost:    17056 ave 17056 max 17056 min
Histogram: 1 0 0 0 0 0 0 0 0 0
Neighs:    1.23765e+06 ave 1.23765e+06 max 1.23765e+06 min
Histogram: 1 0 0 0 0 0 0 0 0 0

Total # of neighbors = 1237650
Ave neighs/atom = 62.9783
Neighbor list builds = 4505
Dangerous builds not checked
Setting up Verlet run ...
  Unit style    : metal
  Current step  : 140000
  Time step     : 0.001
Per MPI rank memory allocation (min/avg/max) = 18.21 | 18.21 | 18.21 Mbytes
Step Temp Press TotEng PotEng Enthalpy 
  140000    1448.3172    609.01406   -56632.515   -60311.373   -56480.535 
  140495    1421.2959    529.13975   -56804.873   -60415.094   -56673.242 
Loop time of 78.9296 on 1 procs for 495 steps with 19652 atoms

Performance: 0.542 ns/day, 44.293 hours/ns, 6.271 timesteps/s
93.8% CPU use with 1 MPI tasks x no OpenMP threads

MPI task timing breakdown:
Section |  min time  |  avg time  |  max time  |%varavg| %total
---------------------------------------------------------------
Pair    | 42.5       | 42.5       | 42.5       |   0.0 | 53.85
Neigh   | 34.771     | 34.771     | 34.771     |   0.0 | 44.05
Comm    | 0.62436    | 0.62436    | 0.62436    |   0.0 |  0.79
Output  | 0.00017309 | 0.00017309 | 0.00017309 |   0.0 |  0.00
Modify  | 0.80914    | 0.80914    | 0.80914    |   0.0 |  1.03
Other   |            | 0.2251     |            |       |  0.29

Nlocal:    19652 ave 19652 max 19652 min
Histogram: 1 0 0 0 0 0 0 0 0 0
Nghost:    16990 ave 16990 max 16990 min
Histogram: 1 0 0 0 0 0 0 0 0 0
Neighs:    1.2417e+06 ave 1.2417e+06 max 1.2417e+06 min
Histogram: 1 0 0 0 0 0 0 0 0 0

Total # of neighbors = 1241702
Ave neighs/atom = 63.1845
Neighbor list builds = 495
Dangerous builds not checked
Setting up Verlet run ...
  Unit style    : metal
  Current step  : 140495
  Time step     : 0.001
Per MPI rank memory allocation (min/avg/max) = 18.21 | 18.21 | 18.21 Mbytes
Step Temp Press TotEng PotEng Enthalpy 
  140495    1421.2959    529.13975   -56804.873   -60415.094   -56673.242 
  145000    1409.8593   -136.57546   -56861.283   -60442.454   -56895.254 
Loop time of 686.653 on 1 procs for 4505 steps with 19652 atoms

Performance: 0.567 ns/day, 42.339 hours/ns, 6.561 timesteps/s
98.6% CPU use with 1 MPI tasks x no OpenMP threads

MPI task timing breakdown:
Section |  min time  |  avg time  |  max time  |%varavg| %total
---------------------------------------------------------------
Pair    | 374.67     | 374.67     | 374.67     |   0.0 | 54.56
Neigh   | 297.9      | 297.9      | 297.9      |   0.0 | 43.38
Comm    | 5.2724     | 5.2724     | 5.2724     |   0.0 |  0.77
Output  | 0.092795   | 0.092795   | 0.092795   |   0.0 |  0.01
Modify  | 6.801      | 6.801      | 6.801      |   0.0 |  0.99
Other   |            | 1.919      |            |       |  0.28

Nlocal:    19652 ave 19652 max 19652 min
Histogram: 1 0 0 0 0 0 0 0 0 0
Nghost:    17049 ave 17049 max 17049 min
Histogram: 1 0 0 0 0 0 0 0 0 0
Neighs:    1.24215e+06 ave 1.24215e+06 max 1.24215e+06 min
Histogram: 1 0 0 0 0 0 0 0 0 0

Total # of neighbors = 1242148
Ave neighs/atom = 63.2072
Neighbor list builds = 4505
Dangerous builds not checked
Setting up Verlet run ...
  Unit style    : metal
  Current step  : 145000
  Time step     : 0.001
Per MPI rank memory allocation (min/avg/max) = 18.21 | 18.21 | 18.21 Mbytes
Step Temp Press TotEng PotEng Enthalpy 
  145000    1409.8593   -136.57546   -56861.283   -60442.454   -56895.254 
  145495    1365.7604   -969.06606   -57078.181   -60547.337   -57318.482 
Loop time of 82.2371 on 1 procs for 495 steps with 19652 atoms

Performance: 0.520 ns/day, 46.149 hours/ns, 6.019 timesteps/s
96.0% CPU use with 1 MPI tasks x no OpenMP threads

MPI task timing breakdown:
Section |  min time  |  avg time  |  max time  |%varavg| %total
---------------------------------------------------------------
Pair    | 44.86      | 44.86      | 44.86      |   0.0 | 54.55
Neigh   | 35.691     | 35.691     | 35.691     |   0.0 | 43.40
Comm    | 0.63312    | 0.63312    | 0.63312    |   0.0 |  0.77
Output  | 0.00018477 | 0.00018477 | 0.00018477 |   0.0 |  0.00
Modify  | 0.80863    | 0.80863    | 0.80863    |   0.0 |  0.98
Other   |            | 0.2437     |            |       |  0.30

Nlocal:    19652 ave 19652 max 19652 min
Histogram: 1 0 0 0 0 0 0 0 0 0
Nghost:    17103 ave 17103 max 17103 min
Histogram: 1 0 0 0 0 0 0 0 0 0
Neighs:    1.24548e+06 ave 1.24548e+06 max 1.24548e+06 min
Histogram: 1 0 0 0 0 0 0 0 0 0

Total # of neighbors = 1245476
Ave neighs/atom = 63.3766
Neighbor list builds = 495
Dangerous builds not checked
Setting up Verlet run ...
  Unit style    : metal
  Current step  : 145495
  Time step     : 0.001
Per MPI rank memory allocation (min/avg/max) = 18.21 | 18.21 | 18.21 Mbytes
Step Temp Press TotEng PotEng Enthalpy 
  145495    1365.7604   -969.06606   -57078.181   -60547.337   -57318.482 
  150000     1346.883    352.54509   -57182.889   -60604.094   -57095.864 
Loop time of 689.795 on 1 procs for 4505 steps with 19652 atoms

Performance: 0.564 ns/day, 42.533 hours/ns, 6.531 timesteps/s
98.9% CPU use with 1 MPI tasks x no OpenMP threads

MPI task timing breakdown:
Section |  min time  |  avg time  |  max time  |%varavg| %total
---------------------------------------------------------------
Pair    | 379.29     | 379.29     | 379.29     |   0.0 | 54.99
Neigh   | 296.2      | 296.2      | 296.2      |   0.0 | 42.94
Comm    | 5.3794     | 5.3794     | 5.3794     |   0.0 |  0.78
Output  | 0.18317    | 0.18317    | 0.18317    |   0.0 |  0.03
Modify  | 6.7706     | 6.7706     | 6.7706     |   0.0 |  0.98
Other   |            | 1.966      |            |       |  0.29

Nlocal:    19652 ave 19652 max 19652 min
Histogram: 1 0 0 0 0 0 0 0 0 0
Nghost:    17055 ave 17055 max 17055 min
Histogram: 1 0 0 0 0 0 0 0 0 0
Neighs:    1.25223e+06 ave 1.25223e+06 max 1.25223e+06 min
Histogram: 1 0 0 0 0 0 0 0 0 0

Total # of neighbors = 1252233
Ave neighs/atom = 63.7204
Neighbor list builds = 4505
Dangerous builds not checked
Setting up Verlet run ...
  Unit style    : metal
  Current step  : 150000
  Time step     : 0.001
Per MPI rank memory allocation (min/avg/max) = 18.21 | 18.21 | 18.21 Mbytes
Step Temp Press TotEng PotEng Enthalpy 
  150000     1346.883    352.54509   -57182.889   -60604.094   -57095.864 
  150495    1314.1473    686.06689   -57366.115   -60704.169   -57197.498 
Loop time of 80.5385 on 1 procs for 495 steps with 19652 atoms

Performance: 0.531 ns/day, 45.196 hours/ns, 6.146 timesteps/s
99.0% CPU use with 1 MPI tasks x no OpenMP threads

MPI task timing breakdown:
Section |  min time  |  avg time  |  max time  |%varavg| %total
---------------------------------------------------------------
Pair    | 44.414     | 44.414     | 44.414     |   0.0 | 55.15
Neigh   | 34.461     | 34.461     | 34.461     |   0.0 | 42.79
Comm    | 0.63958    | 0.63958    | 0.63958    |   0.0 |  0.79
Output  | 0.00015092 | 0.00015092 | 0.00015092 |   0.0 |  0.00
Modify  | 0.79583    | 0.79583    | 0.79583    |   0.0 |  0.99
Other   |            | 0.2279     |            |       |  0.28

Nlocal:    19652 ave 19652 max 19652 min
Histogram: 1 0 0 0 0 0 0 0 0 0
Nghost:    17138 ave 17138 max 17138 min
Histogram: 1 0 0 0 0 0 0 0 0 0
Neighs:    1.25788e+06 ave 1.25788e+06 max 1.25788e+06 min
Histogram: 1 0 0 0 0 0 0 0 0 0

Total # of neighbors = 1257879
Ave neighs/atom = 64.0077
Neighbor list builds = 495
Dangerous builds not checked
Setting up Verlet run ...
  Unit style    : metal
  Current step  : 150495
  Time step     : 0.001
Per MPI rank memory allocation (min/avg/max) = 18.21 | 18.21 | 18.21 Mbytes
Step Temp Press TotEng PotEng Enthalpy 
  150495    1314.1473    686.06689   -57366.115   -60704.169   -57197.498 
  155000    1303.1882    1164.4775   -57485.221   -60795.438   -57200.252 
Loop time of 715.596 on 1 procs for 4505 steps with 19652 atoms

Performance: 0.544 ns/day, 44.124 hours/ns, 6.295 timesteps/s
98.6% CPU use with 1 MPI tasks x no OpenMP threads

MPI task timing breakdown:
Section |  min time  |  avg time  |  max time  |%varavg| %total
---------------------------------------------------------------
Pair    | 396.54     | 396.54     | 396.54     |   0.0 | 55.41
Neigh   | 304.32     | 304.32     | 304.32     |   0.0 | 42.53
Comm    | 5.5679     | 5.5679     | 5.5679     |   0.0 |  0.78
Output  | 0.095986   | 0.095986   | 0.095986   |   0.0 |  0.01
Modify  | 7.0281     | 7.0281     | 7.0281     |   0.0 |  0.98
Other   |            | 2.036      |            |       |  0.28

Nlocal:    19652 ave 19652 max 19652 min
Histogram: 1 0 0 0 0 0 0 0 0 0
Nghost:    17138 ave 17138 max 17138 min
Histogram: 1 0 0 0 0 0 0 0 0 0
Neighs:    1.26363e+06 ave 1.26363e+06 max 1.26363e+06 min
Histogram: 1 0 0 0 0 0 0 0 0 0

Total # of neighbors = 1263626
Ave neighs/atom = 64.3001
Neighbor list builds = 4505
Dangerous builds not checked
Setting up Verlet run ...
  Unit style    : metal
  Current step  : 155000
  Time step     : 0.001
Per MPI rank memory allocation (min/avg/max) = 18.21 | 18.21 | 18.21 Mbytes
Step Temp Press TotEng PotEng Enthalpy 
  155000    1303.1882    1164.4775   -57485.221   -60795.438   -57200.252 
  155495    1270.3727    702.36214   -57658.367   -60885.229   -57486.937 
Loop time of 75.6745 on 1 procs for 495 steps with 19652 atoms

Performance: 0.565 ns/day, 42.466 hours/ns, 6.541 timesteps/s
99.5% CPU use with 1 MPI tasks x no OpenMP threads

MPI task timing breakdown:
Section |  min time  |  avg time  |  max time  |%varavg| %total
---------------------------------------------------------------
Pair    | 41.536     | 41.536     | 41.536     |   0.0 | 54.89
Neigh   | 32.557     | 32.557     | 32.557     |   0.0 | 43.02
Comm    | 0.59195    | 0.59195    | 0.59195    |   0.0 |  0.78
Output  | 0.00018692 | 0.00018692 | 0.00018692 |   0.0 |  0.00
Modify  | 0.76946    | 0.76946    | 0.76946    |   0.0 |  1.02
Other   |            | 0.2196     |            |       |  0.29

Nlocal:    19652 ave 19652 max 19652 min
Histogram: 1 0 0 0 0 0 0 0 0 0
Nghost:    17116 ave 17116 max 17116 min
Histogram: 1 0 0 0 0 0 0 0 0 0
Neighs:    1.26711e+06 ave 1.26711e+06 max 1.26711e+06 min
Histogram: 1 0 0 0 0 0 0 0 0 0

Total # of neighbors = 1267107
Ave neighs/atom = 64.4773
Neighbor list builds = 495
Dangerous builds not checked
Setting up Verlet run ...
  Unit style    : metal
  Current step  : 155495
  Time step     : 0.001
Per MPI rank memory allocation (min/avg/max) = 18.21 | 18.21 | 18.21 Mbytes
Step Temp Press TotEng PotEng Enthalpy 
  155495    1270.3727    702.36214   -57658.367   -60885.229   -57486.937 
  160000    1241.4217   -445.66567   -57803.036   -60956.361   -57911.723 
Loop time of 713.422 on 1 procs for 4505 steps with 19652 atoms

Performance: 0.546 ns/day, 43.989 hours/ns, 6.315 timesteps/s
97.8% CPU use with 1 MPI tasks x no OpenMP threads

MPI task timing breakdown:
Section |  min time  |  avg time  |  max time  |%varavg| %total
---------------------------------------------------------------
Pair    | 390.95     | 390.95     | 390.95     |   0.0 | 54.80
Neigh   | 307.32     | 307.32     | 307.32     |   0.0 | 43.08
Comm    | 5.7759     | 5.7759     | 5.7759     |   0.0 |  0.81
Output  | 0.18791    | 0.18791    | 0.18791    |   0.0 |  0.03
Modify  | 7.0934     | 7.0934     | 7.0934     |   0.0 |  0.99
Other   |            | 2.101      |            |       |  0.29

Nlocal:    19652 ave 19652 max 19652 min
Histogram: 1 0 0 0 0 0 0 0 0 0
Nghost:    17125 ave 17125 max 17125 min
Histogram: 1 0 0 0 0 0 0 0 0 0
Neighs:    1.2671e+06 ave 1.2671e+06 max 1.2671e+06 min
Histogram: 1 0 0 0 0 0 0 0 0 0

Total # of neighbors = 1267096
Ave neighs/atom = 64.4767
Neighbor list builds = 4505
Dangerous builds not checked
Setting up Verlet run ...
  Unit style    : metal
  Current step  : 160000
  Time step     : 0.001
Per MPI rank memory allocation (min/avg/max) = 18.21 | 18.21 | 18.21 Mbytes
Step Temp Press TotEng PotEng Enthalpy 
  160000    1241.4217   -445.66567   -57803.036   -60956.361   -57911.723 
  160495    1211.3928     96.29531   -57979.595   -61056.643   -57956.228 
Loop time of 79.4366 on 1 procs for 495 steps with 19652 atoms

Performance: 0.538 ns/day, 44.577 hours/ns, 6.231 timesteps/s
97.6% CPU use with 1 MPI tasks x no OpenMP threads

MPI task timing breakdown:
Section |  min time  |  avg time  |  max time  |%varavg| %total
---------------------------------------------------------------
Pair    | 44.008     | 44.008     | 44.008     |   0.0 | 55.40
Neigh   | 33.805     | 33.805     | 33.805     |   0.0 | 42.56
Comm    | 0.61312    | 0.61312    | 0.61312    |   0.0 |  0.77
Output  | 0.00020695 | 0.00020695 | 0.00020695 |   0.0 |  0.00
Modify  | 0.78695    | 0.78695    | 0.78695    |   0.0 |  0.99
Other   |            | 0.2236     |            |       |  0.28

Nlocal:    19652 ave 19652 max 19652 min
Histogram: 1 0 0 0 0 0 0 0 0 0
Nghost:    17164 ave 17164 max 17164 min
Histogram: 1 0 0 0 0 0 0 0 0 0
Neighs:    1.27424e+06 ave 1.27424e+06 max 1.27424e+06 min
Histogram: 1 0 0 0 0 0 0 0 0 0

Total # of neighbors = 1274245
Ave neighs/atom = 64.8405
Neighbor list builds = 495
Dangerous builds not checked
Setting up Verlet run ...
  Unit style    : metal
  Current step  : 160495
  Time step     : 0.001
Per MPI rank memory allocation (min/avg/max) = 18.21 | 18.21 | 18.21 Mbytes
Step Temp Press TotEng PotEng Enthalpy 
  160495    1211.3928     96.29531   -57979.595   -61056.643   -57956.228 
  165000    1192.9074   -488.21627   -58081.861   -61111.954   -58200.229 
Loop time of 654.162 on 1 procs for 4505 steps with 19652 atoms

Performance: 0.595 ns/day, 40.336 hours/ns, 6.887 timesteps/s
98.1% CPU use with 1 MPI tasks x no OpenMP threads

MPI task timing breakdown:
Section |  min time  |  avg time  |  max time  |%varavg| %total
---------------------------------------------------------------
Pair    | 358.23     | 358.23     | 358.23     |   0.0 | 54.76
Neigh   | 282.5      | 282.5      | 282.5      |   0.0 | 43.19
Comm    | 5.0995     | 5.0995     | 5.0995     |   0.0 |  0.78
Output  | 0.070764   | 0.070764   | 0.070764   |   0.0 |  0.01
Modify  | 6.4824     | 6.4824     | 6.4824     |   0.0 |  0.99
Other   |            | 1.78       |            |       |  0.27

Nlocal:    19652 ave 19652 max 19652 min
Histogram: 1 0 0 0 0 0 0 0 0 0
Nghost:    17184 ave 17184 max 17184 min
Histogram: 1 0 0 0 0 0 0 0 0 0
Neighs:    1.27586e+06 ave 1.27586e+06 max 1.27586e+06 min
Histogram: 1 0 0 0 0 0 0 0 0 0

Total # of neighbors = 1275861
Ave neighs/atom = 64.9227
Neighbor list builds = 4505
Dangerous builds not checked
Setting up Verlet run ...
  Unit style    : metal
  Current step  : 165000
  Time step     : 0.001
Per MPI rank memory allocation (min/avg/max) = 18.21 | 18.21 | 18.21 Mbytes
Step Temp Press TotEng PotEng Enthalpy 
  165000    1192.9074   -488.21627   -58081.861   -61111.954   -58200.229 
  165495    1159.5982    24.580947   -58286.396   -61231.881    -58280.47 
Loop time of 65.2532 on 1 procs for 495 steps with 19652 atoms

Performance: 0.655 ns/day, 36.618 hours/ns, 7.586 timesteps/s
97.8% CPU use with 1 MPI tasks x no OpenMP threads

MPI task timing breakdown:
Section |  min time  |  avg time  |  max time  |%varavg| %total
---------------------------------------------------------------
Pair    | 35.14      | 35.14      | 35.14      |   0.0 | 53.85
Neigh   | 28.751     | 28.751     | 28.751     |   0.0 | 44.06
Comm    | 0.51946    | 0.51946    | 0.51946    |   0.0 |  0.80
Output  | 0.00012612 | 0.00012612 | 0.00012612 |   0.0 |  0.00
Modify  | 0.6636     | 0.6636     | 0.6636     |   0.0 |  1.02
Other   |            | 0.1786     |            |       |  0.27

Nlocal:    19652 ave 19652 max 19652 min
Histogram: 1 0 0 0 0 0 0 0 0 0
Nghost:    17282 ave 17282 max 17282 min
Histogram: 1 0 0 0 0 0 0 0 0 0
Neighs:    1.2826e+06 ave 1.2826e+06 max 1.2826e+06 min
Histogram: 1 0 0 0 0 0 0 0 0 0

Total # of neighbors = 1282595
Ave neighs/atom = 65.2654
Neighbor list builds = 495
Dangerous builds not checked
Setting up Verlet run ...
  Unit style    : metal
  Current step  : 165495
  Time step     : 0.001
Per MPI rank memory allocation (min/avg/max) = 18.21 | 18.21 | 18.21 Mbytes
Step Temp Press TotEng PotEng Enthalpy 
  165495    1159.5982    24.580947   -58286.396   -61231.881    -58280.47 
  170000    1146.0324    17.301368   -58390.608   -61301.635   -58386.446 
Loop time of 616.809 on 1 procs for 4505 steps with 19652 atoms

Performance: 0.631 ns/day, 38.032 hours/ns, 7.304 timesteps/s
[...]
Setting up Verlet run ...
  Unit style    : metal
  Current step  : 240000
  Time step     : 0.001
Per MPI rank memory allocation (min/avg/max) = 18.21 | 18.21 | 18.21 Mbytes
Step Temp Press TotEng PotEng Enthalpy 
  240000    448.93862   -683.77039   -62940.732   -64081.077   -63089.584 
  240495    422.20679   -243.47145   -63098.524   -64170.968   -63151.345 
Loop time of 76.0599 on 1 procs for 495 steps with 19652 atoms

Performance: 0.562 ns/day, 42.682 hours/ns, 6.508 timesteps/s
98.3% CPU use with 1 MPI tasks x no OpenMP threads

MPI task timing breakdown:
Section |  min time  |  avg time  |  max time  |%varavg| %total
---------------------------------------------------------------
Pair    | 41.35      | 41.35      | 41.35      |   0.0 | 54.36
Neigh   | 33.199     | 33.199     | 33.199     |   0.0 | 43.65
Comm    | 0.5727     | 0.5727     | 0.5727     |   0.0 |  0.75
Output  | 0.00017405 | 0.00017405 | 0.00017405 |   0.0 |  0.00
Modify  | 0.73046    | 0.73046    | 0.73046    |   0.0 |  0.96
Other   |            | 0.208      |            |       |  0.27

Nlocal:    19652 ave 19652 max 19652 min
Histogram: 1 0 0 0 0 0 0 0 0 0
Nghost:    18008 ave 18008 max 18008 min
Histogram: 1 0 0 0 0 0 0 0 0 0
Neighs:    1.42832e+06 ave 1.42832e+06 max 1.42832e+06 min
Histogram: 1 0 0 0 0 0 0 0 0 0

Total # of neighbors = 1428324
Ave neighs/atom = 72.6808
Neighbor list builds = 495
Dangerous builds not checked
Setting up Verlet run ...
  Unit style    : metal
  Current step  : 240495
  Time step     : 0.001
Per MPI rank memory allocation (min/avg/max) = 18.21 | 18.21 | 18.21 Mbytes
Step Temp Press TotEng PotEng Enthalpy 
  240495    422.20679   -243.47145   -63098.524   -64170.968   -63151.345 
  245000    399.10809    246.30051    -63290.91   -64304.681   -63237.758 
Loop time of 645.989 on 1 procs for 4505 steps with 19652 atoms

Performance: 0.603 ns/day, 39.832 hours/ns, 6.974 timesteps/s
99.0% CPU use with 1 MPI tasks x no OpenMP threads

MPI task timing breakdown:
Section |  min time  |  avg time  |  max time  |%varavg| %total
---------------------------------------------------------------
Pair    | 348.5      | 348.5      | 348.5      |   0.0 | 53.95
Neigh   | 284.69     | 284.69     | 284.69     |   0.0 | 44.07
Comm    | 4.7791     | 4.7791     | 4.7791     |   0.0 |  0.74
Output  | 0.10549    | 0.10549    | 0.10549    |   0.0 |  0.02
Modify  | 6.1676     | 6.1676     | 6.1676     |   0.0 |  0.95
Other   |            | 1.743      |            |       |  0.27

Nlocal:    19652 ave 19652 max 19652 min
Histogram: 1 0 0 0 0 0 0 0 0 0
Nghost:    18056 ave 18056 max 18056 min
Histogram: 1 0 0 0 0 0 0 0 0 0
Neighs:    1.43595e+06 ave 1.43595e+06 max 1.43595e+06 min
Histogram: 1 0 0 0 0 0 0 0 0 0

Total # of neighbors = 1435946
Ave neighs/atom = 73.0687
Neighbor list builds = 4505
Dangerous builds not checked
Setting up Verlet run ...
  Unit style    : metal
  Current step  : 245000
  Time step     : 0.001
Per MPI rank memory allocation (min/avg/max) = 18.21 | 18.21 | 18.21 Mbytes
Step Temp Press TotEng PotEng Enthalpy 
  245000    399.10809    246.30051    -63290.91   -64304.681   -63237.758 
  245495    374.50779    289.97272   -63443.275   -64394.559   -63380.878 
Loop time of 74.4224 on 1 procs for 495 steps with 19652 atoms

Performance: 0.575 ns/day, 41.763 hours/ns, 6.651 timesteps/s
99.1% CPU use with 1 MPI tasks x no OpenMP threads

MPI task timing breakdown:
Section |  min time  |  avg time  |  max time  |%varavg| %total
---------------------------------------------------------------
Pair    | 40.403     | 40.403     | 40.403     |   0.0 | 54.29
Neigh   | 32.546     | 32.546     | 32.546     |   0.0 | 43.73
Comm    | 0.5572     | 0.5572     | 0.5572     |   0.0 |  0.75
Output  | 0.00014997 | 0.00014997 | 0.00014997 |   0.0 |  0.00
Modify  | 0.71975    | 0.71975    | 0.71975    |   0.0 |  0.97
Other   |            | 0.1964     |            |       |  0.26

Nlocal:    19652 ave 19652 max 19652 min
Histogram: 1 0 0 0 0 0 0 0 0 0
Nghost:    18046 ave 18046 max 18046 min
Histogram: 1 0 0 0 0 0 0 0 0 0
Neighs:    1.43934e+06 ave 1.43934e+06 max 1.43934e+06 min
Histogram: 1 0 0 0 0 0 0 0 0 0

Total # of neighbors = 1439343
Ave neighs/atom = 73.2416
Neighbor list builds = 495
Dangerous builds not checked
Setting up Verlet run ...
  Unit style    : metal
  Current step  : 245495
  Time step     : 0.001
Per MPI rank memory allocation (min/avg/max) = 18.21 | 18.21 | 18.21 Mbytes
Step Temp Press TotEng PotEng Enthalpy 
  245495    374.50779    289.97272   -63443.275   -64394.559   -63380.878 
  250000    350.55052    60.364656   -63610.411   -64500.842   -63597.466 
Loop time of 673.05 on 1 procs for 4505 steps with 19652 atoms

Performance: 0.578 ns/day, 41.500 hours/ns, 6.693 timesteps/s
98.9% CPU use with 1 MPI tasks x no OpenMP threads

MPI task timing breakdown:
Section |  min time  |  avg time  |  max time  |%varavg| %total
---------------------------------------------------------------
Pair    | 365.71     | 365.71     | 365.71     |   0.0 | 54.34
Neigh   | 293.53     | 293.53     | 293.53     |   0.0 | 43.61
Comm    | 5.1389     | 5.1389     | 5.1389     |   0.0 |  0.76
Output  | 0.29805    | 0.29805    | 0.29805    |   0.0 |  0.04
Modify  | 6.5529     | 6.5529     | 6.5529     |   0.0 |  0.97
Other   |            | 1.819      |            |       |  0.27

Nlocal:    19652 ave 19652 max 19652 min
Histogram: 1 0 0 0 0 0 0 0 0 0
Nghost:    18035 ave 18035 max 18035 min
Histogram: 1 0 0 0 0 0 0 0 0 0
Neighs:    1.44392e+06 ave 1.44392e+06 max 1.44392e+06 min
Histogram: 1 0 0 0 0 0 0 0 0 0

Total # of neighbors = 1443917
Ave neighs/atom = 73.4743
Neighbor list builds = 4505
Dangerous builds not checked
Setting up Verlet run ...
  Unit style    : metal
  Current step  : 250000
  Time step     : 0.001
Per MPI rank memory allocation (min/avg/max) = 18.21 | 18.21 | 18.21 Mbytes
Step Temp Press TotEng PotEng Enthalpy 
  250000    350.55052    60.364656   -63610.411   -64500.842   -63597.466 
  250495    321.85017     33.97112   -63761.084   -64578.613   -63753.815 
Loop time of 79.7282 on 1 procs for 495 steps with 19652 atoms

Performance: 0.536 ns/day, 44.741 hours/ns, 6.209 timesteps/s
99.2% CPU use with 1 MPI tasks x no OpenMP threads

MPI task timing breakdown:
Section |  min time  |  avg time  |  max time  |%varavg| %total
---------------------------------------------------------------
Pair    | 44.247     | 44.247     | 44.247     |   0.0 | 55.50
Neigh   | 33.841     | 33.841     | 33.841     |   0.0 | 42.45
Comm    | 0.62041    | 0.62041    | 0.62041    |   0.0 |  0.78
Output  | 0.00019717 | 0.00019717 | 0.00019717 |   0.0 |  0.00
Modify  | 0.81122    | 0.81122    | 0.81122    |   0.0 |  1.02
Other   |            | 0.2083     |            |       |  0.26

Nlocal:    19652 ave 19652 max 19652 min
Histogram: 1 0 0 0 0 0 0 0 0 0
Nghost:    18090 ave 18090 max 18090 min
Histogram: 1 0 0 0 0 0 0 0 0 0
Neighs:    1.44721e+06 ave 1.44721e+06 max 1.44721e+06 min
Histogram: 1 0 0 0 0 0 0 0 0 0

Total # of neighbors = 1447212
Ave neighs/atom = 73.642
Neighbor list builds = 495
Dangerous builds not checked
Setting up Verlet run ...
  Unit style    : metal
  Current step  : 250495
  Time step     : 0.001
Per MPI rank memory allocation (min/avg/max) = 18.21 | 18.21 | 18.21 Mbytes
Step Temp Press TotEng PotEng Enthalpy 
  250495    321.85017     33.97112   -63761.084   -64578.613   -63753.815 
  255000    296.76649    134.64014   -63926.948   -64680.762   -63898.245 
Loop time of 674.45 on 1 procs for 4505 steps with 19652 atoms

Performance: 0.577 ns/day, 41.587 hours/ns, 6.680 timesteps/s
99.2% CPU use with 1 MPI tasks x no OpenMP threads

MPI task timing breakdown:
Section |  min time  |  avg time  |  max time  |%varavg| %total
---------------------------------------------------------------
Pair    | 368.5      | 368.5      | 368.5      |   0.0 | 54.64
Neigh   | 292.13     | 292.13     | 292.13     |   0.0 | 43.31
Comm    | 5.1471     | 5.1471     | 5.1471     |   0.0 |  0.76
Output  | 0.24298    | 0.24298    | 0.24298    |   0.0 |  0.04
Modify  | 6.6006     | 6.6006     | 6.6006     |   0.0 |  0.98
Other   |            | 1.821      |            |       |  0.27

Nlocal:    19652 ave 19652 max 19652 min
Histogram: 1 0 0 0 0 0 0 0 0 0
Nghost:    18083 ave 18083 max 18083 min
Histogram: 1 0 0 0 0 0 0 0 0 0
Neighs:    1.45225e+06 ave 1.45225e+06 max 1.45225e+06 min
Histogram: 1 0 0 0 0 0 0 0 0 0

Total # of neighbors = 1452248
Ave neighs/atom = 73.8982
Neighbor list builds = 4505
Dangerous builds not checked
Setting up Verlet run ...
  Unit style    : metal
  Current step  : 255000
  Time step     : 0.001
Per MPI rank memory allocation (min/avg/max) = 18.21 | 18.21 | 18.21 Mbytes
Step Temp Press TotEng PotEng Enthalpy 
  255000    296.76649    134.64014   -63926.948   -64680.762   -63898.245 
  255495    273.06044   -198.45211   -64058.146   -64751.744   -64100.384 
Loop time of 67.8661 on 1 procs for 495 steps with 19652 atoms

Performance: 0.630 ns/day, 38.084 hours/ns, 7.294 timesteps/s
100.0% CPU use with 1 MPI tasks x no OpenMP threads

MPI task timing breakdown:
Section |  min time  |  avg time  |  max time  |%varavg| %total
---------------------------------------------------------------
Pair    | 36.466     | 36.466     | 36.466     |   0.0 | 53.73
Neigh   | 30.056     | 30.056     | 30.056     |   0.0 | 44.29
Comm    | 0.5036     | 0.5036     | 0.5036     |   0.0 |  0.74
Output  | 0.00013304 | 0.00013304 | 0.00013304 |   0.0 |  0.00
Modify  | 0.65337    | 0.65337    | 0.65337    |   0.0 |  0.96
Other   |            | 0.1872     |            |       |  0.28

Nlocal:    19652 ave 19652 max 19652 min
Histogram: 1 0 0 0 0 0 0 0 0 0
Nghost:    18113 ave 18113 max 18113 min
Histogram: 1 0 0 0 0 0 0 0 0 0
Neighs:    1.45445e+06 ave 1.45445e+06 max 1.45445e+06 min
Histogram: 1 0 0 0 0 0 0 0 0 0

Total # of neighbors = 1454448
Ave neighs/atom = 74.0102
Neighbor list builds = 495
Dangerous builds not checked
Setting up Verlet run ...
  Unit style    : metal
  Current step  : 255495
  Time step     : 0.001
Per MPI rank memory allocation (min/avg/max) = 18.21 | 18.21 | 18.21 Mbytes
Step Temp Press TotEng PotEng Enthalpy 
  255495    273.06044   -198.45211   -64058.146   -64751.744   -64100.384 
  260000    249.37561   -474.66747   -64201.849   -64835.286   -64302.647 
Loop time of 694.429 on 1 procs for 4505 steps with 19652 atoms

Performance: 0.561 ns/day, 42.818 hours/ns, 6.487 timesteps/s
97.9% CPU use with 1 MPI tasks x no OpenMP threads

MPI task timing breakdown:
Section |  min time  |  avg time  |  max time  |%varavg| %total
---------------------------------------------------------------
Pair    | 379.54     | 379.54     | 379.54     |   0.0 | 54.66
Neigh   | 300.96     | 300.96     | 300.96     |   0.0 | 43.34
Comm    | 5.2217     | 5.2217     | 5.2217     |   0.0 |  0.75
Output  | 0.084074   | 0.084074   | 0.084074   |   0.0 |  0.01
Modify  | 6.7461     | 6.7461     | 6.7461     |   0.0 |  0.97
Other   |            | 1.874      |            |       |  0.27

Nlocal:    19652 ave 19652 max 19652 min
Histogram: 1 0 0 0 0 0 0 0 0 0
Nghost:    18149 ave 18149 max 18149 min
Histogram: 1 0 0 0 0 0 0 0 0 0
Neighs:    1.45744e+06 ave 1.45744e+06 max 1.45744e+06 min
Histogram: 1 0 0 0 0 0 0 0 0 0

Total # of neighbors = 1457442
Ave neighs/atom = 74.1625
Neighbor list builds = 4505
Dangerous builds not checked
Setting up Verlet run ...
  Unit style    : metal
  Current step  : 260000
  Time step     : 0.001
Per MPI rank memory allocation (min/avg/max) = 18.21 | 18.21 | 18.21 Mbytes
Step Temp Press TotEng PotEng Enthalpy 
  260000    249.37561   -474.66747   -64201.849   -64835.286   -64302.647 
  260495    225.78651    396.18684   -64342.396   -64915.914   -64258.566 
Loop time of 79.1856 on 1 procs for 495 steps with 19652 atoms

Performance: 0.540 ns/day, 44.436 hours/ns, 6.251 timesteps/s
98.2% CPU use with 1 MPI tasks x no OpenMP threads

MPI task timing breakdown:
Section |  min time  |  avg time  |  max time  |%varavg| %total
---------------------------------------------------------------
Pair    | 43.61      | 43.61      | 43.61      |   0.0 | 55.07
Neigh   | 33.978     | 33.978     | 33.978     |   0.0 | 42.91
Comm    | 0.60384    | 0.60384    | 0.60384    |   0.0 |  0.76
Output  | 0.000144   | 0.000144   | 0.000144   |   0.0 |  0.00
Modify  | 0.7682     | 0.7682     | 0.7682     |   0.0 |  0.97
Other   |            | 0.2255     |            |       |  0.28

Nlocal:    19652 ave 19652 max 19652 min
Histogram: 1 0 0 0 0 0 0 0 0 0
Nghost:    18161 ave 18161 max 18161 min
Histogram: 1 0 0 0 0 0 0 0 0 0
Neighs:    1.46236e+06 ave 1.46236e+06 max 1.46236e+06 min
Histogram: 1 0 0 0 0 0 0 0 0 0

Total # of neighbors = 1462358
Ave neighs/atom = 74.4127
Neighbor list builds = 495
Dangerous builds not checked
Setting up Verlet run ...
  Unit style    : metal
  Current step  : 260495
  Time step     : 0.001
Per MPI rank memory allocation (min/avg/max) = 18.21 | 18.21 | 18.21 Mbytes
Step Temp Press TotEng PotEng Enthalpy 
  260495    225.78651    396.18684   -64342.396   -64915.914   -64258.566 
  265000    200.58496    333.94126   -64489.591   -64999.095   -64419.096 
Loop time of 681.942 on 1 procs for 4505 steps with 19652 atoms

Performance: 0.571 ns/day, 42.048 hours/ns, 6.606 timesteps/s
98.7% CPU use with 1 MPI tasks x no OpenMP threads

MPI task timing breakdown:
Section |  min time  |  avg time  |  max time  |%varavg| %total
---------------------------------------------------------------
Pair    | 373.4      | 373.4      | 373.4      |   0.0 | 54.76
Neigh   | 294.77     | 294.77     | 294.77     |   0.0 | 43.22
Comm    | 5.2009     | 5.2009     | 5.2009     |   0.0 |  0.76
Output  | 0.1109     | 0.1109     | 0.1109     |   0.0 |  0.02
Modify  | 6.591      | 6.591      | 6.591      |   0.0 |  0.97
Other   |            | 1.873      |            |       |  0.27

Nlocal:    19652 ave 19652 max 19652 min
Histogram: 1 0 0 0 0 0 0 0 0 0
Nghost:    18179 ave 18179 max 18179 min
Histogram: 1 0 0 0 0 0 0 0 0 0
Neighs:    1.46534e+06 ave 1.46534e+06 max 1.46534e+06 min
Histogram: 1 0 0 0 0 0 0 0 0 0

Total # of neighbors = 1465340
Ave neighs/atom = 74.5644
Neighbor list builds = 4505
Dangerous builds not checked
Setting up Verlet run ...
  Unit style    : metal
  Current step  : 265000
  Time step     : 0.001
Per MPI rank memory allocation (min/avg/max) = 18.21 | 18.21 | 18.21 Mbytes
Step Temp Press TotEng PotEng Enthalpy 
  265000    200.58496    333.94126   -64489.591   -64999.095   -64419.096 
  265495    176.12931    308.49346   -64619.084   -65066.469   -64554.094 
Loop time of 69.8473 on 1 procs for 495 steps with 19652 atoms

Performance: 0.612 ns/day, 39.196 hours/ns, 7.087 timesteps/s
99.4% CPU use with 1 MPI tasks x no OpenMP threads

MPI task timing breakdown:
Section |  min time  |  avg time  |  max time  |%varavg| %total
---------------------------------------------------------------
Pair    | 37.914     | 37.914     | 37.914     |   0.0 | 54.28
Neigh   | 30.534     | 30.534     | 30.534     |   0.0 | 43.72
Comm    | 0.53045    | 0.53045    | 0.53045    |   0.0 |  0.76
Output  | 0.0002172  | 0.0002172  | 0.0002172  |   0.0 |  0.00
Modify  | 0.67783    | 0.67783    | 0.67783    |   0.0 |  0.97
Other   |            | 0.191      |            |       |  0.27

Nlocal:    19652 ave 19652 max 19652 min
Histogram: 1 0 0 0 0 0 0 0 0 0
Nghost:    18191 ave 18191 max 18191 min
Histogram: 1 0 0 0 0 0 0 0 0 0
Neighs:    1.46835e+06 ave 1.46835e+06 max 1.46835e+06 min
Histogram: 1 0 0 0 0 0 0 0 0 0

Total # of neighbors = 1468352
Ave neighs/atom = 74.7177
Neighbor list builds = 495
Dangerous builds not checked
Setting up Verlet run ...
  Unit style    : metal
  Current step  : 265495
  Time step     : 0.001
Per MPI rank memory allocation (min/avg/max) = 18.21 | 18.21 | 18.21 Mbytes
Step Temp Press TotEng PotEng Enthalpy 
  265495    176.12931    308.49346   -64619.084   -65066.469   -64554.094 
  270000    148.37696   -349.26845   -64769.432   -65146.323   -64842.897 
Loop time of 672.82 on 1 procs for 4505 steps with 19652 atoms

Performance: 0.579 ns/day, 41.486 hours/ns, 6.696 timesteps/s
98.7% CPU use with 1 MPI tasks x no OpenMP threads

MPI task timing breakdown:
Section |  min time  |  avg time  |  max time  |%varavg| %total
---------------------------------------------------------------
Pair    | 367.52     | 367.52     | 367.52     |   0.0 | 54.62
Neigh   | 291.42     | 291.42     | 291.42     |   0.0 | 43.31
Comm    | 5.2068     | 5.2068     | 5.2068     |   0.0 |  0.77
Output  | 0.20334    | 0.20334    | 0.20334    |   0.0 |  0.03
Modify  | 6.602      | 6.602      | 6.602      |   0.0 |  0.98
Other   |            | 1.87       |            |       |  0.28

Nlocal:    19652 ave 19652 max 19652 min
Histogram: 1 0 0 0 0 0 0 0 0 0
Nghost:    18267 ave 18267 max 18267 min
Histogram: 1 0 0 0 0 0 0 0 0 0
Neighs:    1.47032e+06 ave 1.47032e+06 max 1.47032e+06 min
Histogram: 1 0 0 0 0 0 0 0 0 0

Total # of neighbors = 1470317
Ave neighs/atom = 74.8177
Neighbor list builds = 4505
Dangerous builds not checked
Setting up Verlet run ...
  Unit style    : metal
  Current step  : 270000
  Time step     : 0.001
Per MPI rank memory allocation (min/avg/max) = 18.21 | 18.21 | 18.21 Mbytes
Step Temp Press TotEng PotEng Enthalpy 
  270000    148.37696   -349.26845   -64769.432   -65146.323   -64842.897 
  270495    127.33856   -22.912109   -64884.643   -65208.095   -64889.452 
Loop time of 77.1528 on 1 procs for 495 steps with 19652 atoms

Performance: 0.554 ns/day, 43.296 hours/ns, 6.416 timesteps/s
98.8% CPU use with 1 MPI tasks x no OpenMP threads

MPI task timing breakdown:
Section |  min time  |  avg time  |  max time  |%varavg| %total
---------------------------------------------------------------
Pair    | 42.524     | 42.524     | 42.524     |   0.0 | 55.12
Neigh   | 33.013     | 33.013     | 33.013     |   0.0 | 42.79
Comm    | 0.6094     | 0.6094     | 0.6094     |   0.0 |  0.79
Output  | 0.00019002 | 0.00019002 | 0.00019002 |   0.0 |  0.00
Modify  | 0.79145    | 0.79145    | 0.79145    |   0.0 |  1.03
Other   |            | 0.2142     |            |       |  0.28

Nlocal:    19652 ave 19652 max 19652 min
Histogram: 1 0 0 0 0 0 0 0 0 0
Nghost:    18233 ave 18233 max 18233 min
Histogram: 1 0 0 0 0 0 0 0 0 0
Neighs:    1.47312e+06 ave 1.47312e+06 max 1.47312e+06 min
Histogram: 1 0 0 0 0 0 0 0 0 0

Total # of neighbors = 1473125
Ave neighs/atom = 74.9606
Neighbor list builds = 495
Dangerous builds not checked
Setting up Verlet run ...
  Unit style    : metal
  Current step  : 270495
  Time step     : 0.001
Per MPI rank memory allocation (min/avg/max) = 18.21 | 18.21 | 18.21 Mbytes
Step Temp Press TotEng PotEng Enthalpy 
  270495    127.33856   -22.912109   -64884.643   -65208.095   -64889.452 
  275000    100.57642    117.08378   -65029.607    -65285.08   -65005.093 
Loop time of 691.113 on 1 procs for 4505 steps with 19652 atoms

Performance: 0.563 ns/day, 42.614 hours/ns, 6.518 timesteps/s
98.2% CPU use with 1 MPI tasks x no OpenMP threads

MPI task timing breakdown:
Section |  min time  |  avg time  |  max time  |%varavg| %total
---------------------------------------------------------------
Pair    | 380.7      | 380.7      | 380.7      |   0.0 | 55.09
Neigh   | 295.58     | 295.58     | 295.58     |   0.0 | 42.77
Comm    | 5.3924     | 5.3924     | 5.3924     |   0.0 |  0.78
Output  | 0.59795    | 0.59795    | 0.59795    |   0.0 |  0.09
Modify  | 6.9461     | 6.9461     | 6.9461     |   0.0 |  1.01
Other   |            | 1.892      |            |       |  0.27

Nlocal:    19652 ave 19652 max 19652 min
Histogram: 1 0 0 0 0 0 0 0 0 0
Nghost:    18277 ave 18277 max 18277 min
Histogram: 1 0 0 0 0 0 0 0 0 0
Neighs:    1.47618e+06 ave 1.47618e+06 max 1.47618e+06 min
Histogram: 1 0 0 0 0 0 0 0 0 0

Total # of neighbors = 1476179
Ave neighs/atom = 75.116
Neighbor list builds = 4505
Dangerous builds not checked
Total wall time: 10:55:41
