LAMMPS (12 Dec 2018)
Lattice spacing in x,y,z = 4 4 4
Created orthogonal box = (0 0 0) to (68 68 68)
  1 by 1 by 1 MPI processor grid
Created 19652 atoms
  Time spent = 0.00433183 secs
Setting atom values ...
  19281 settings made for type/fraction
Neighbor list info ...
  update every 1 steps, delay 0 steps, check no
  max neighbors/atom: 2000, page size: 100000
  master list distance cutoff = 8.2
  ghost atom cutoff = 8.2
  binsize = 4.1, bins = 17 17 17
  1 neighbor lists, perpetual/occasional/extra = 1 0 0
  (1) pair eam/alloy, perpetual
      attributes: half, newton on
      pair build: half/bin/atomonly/newton
      stencil: half/bin/3d/newton
      bin: standard
Setting up Verlet run ...
  Unit style    : metal
  Current step  : 0
  Time step     : 0.001
Per MPI rank memory allocation (min/avg/max) = 17.03 | 17.03 | 17.03 Mbytes
Step Temp Press TotEng PotEng Enthalpy 
       0          300   -361438.29   -69322.262   -70084.289   -140255.62 
    1000    1443.9113   -77474.772   -69322.621   -72990.287    -84527.28 
Loop time of 171.676 on 1 procs for 1000 steps with 19652 atoms

Performance: 0.503 ns/day, 47.688 hours/ns, 5.825 timesteps/s
99.4% CPU use with 1 MPI tasks x no OpenMP threads

MPI task timing breakdown:
Section |  min time  |  avg time  |  max time  |%varavg| %total
---------------------------------------------------------------
Pair    | 94.235     | 94.235     | 94.235     |   0.0 | 54.89
Neigh   | 75.126     | 75.126     | 75.126     |   0.0 | 43.76
Comm    | 1.391      | 1.391      | 1.391      |   0.0 |  0.81
Output  | 0.000175   | 0.000175   | 0.000175   |   0.0 |  0.00
Modify  | 0.49409    | 0.49409    | 0.49409    |   0.0 |  0.29
Other   |            | 0.4296     |            |       |  0.25

Nlocal:    19652 ave 19652 max 19652 min
Histogram: 1 0 0 0 0 0 0 0 0 0
Nghost:    17802 ave 17802 max 17802 min
Histogram: 1 0 0 0 0 0 0 0 0 0
Neighs:    1.44895e+06 ave 1.44895e+06 max 1.44895e+06 min
Histogram: 1 0 0 0 0 0 0 0 0 0

Total # of neighbors = 1448951
Ave neighs/atom = 73.7305
Neighbor list builds = 1000
Dangerous builds not checked
Setting up Verlet run ...
  Unit style    : metal
  Current step  : 1000
  Time step     : 0.001
Per MPI rank memory allocation (min/avg/max) = 17.03 | 17.03 | 17.03 Mbytes
Step Temp Press TotEng PotEng Enthalpy 
    1000    1443.9113   -77474.772   -69322.621   -72990.287    -84527.28 
    2000    433.30495   -3667.8589    -80340.86   -81441.494   -80881.263 
Loop time of 193.148 on 1 procs for 1000 steps with 19652 atoms

Performance: 0.447 ns/day, 53.652 hours/ns, 5.177 timesteps/s
99.3% CPU use with 1 MPI tasks x no OpenMP threads

MPI task timing breakdown:
Section |  min time  |  avg time  |  max time  |%varavg| %total
---------------------------------------------------------------
Pair    | 107.81     | 107.81     | 107.81     |   0.0 | 55.82
Neigh   | 82.164     | 82.164     | 82.164     |   0.0 | 42.54
Comm    | 1.187      | 1.187      | 1.187      |   0.0 |  0.61
Output  | 0.07615    | 0.07615    | 0.07615    |   0.0 |  0.04
Modify  | 1.5048     | 1.5048     | 1.5048     |   0.0 |  0.78
Other   |            | 0.4063     |            |       |  0.21

Nlocal:    19652 ave 19652 max 19652 min
Histogram: 1 0 0 0 0 0 0 0 0 0
Nghost:    19974 ave 19974 max 19974 min
Histogram: 1 0 0 0 0 0 0 0 0 0
Neighs:    1.87608e+06 ave 1.87608e+06 max 1.87608e+06 min
Histogram: 1 0 0 0 0 0 0 0 0 0

Total # of neighbors = 1876079
Ave neighs/atom = 95.465
Neighbor list builds = 1000
Dangerous builds not checked
Setting up Verlet run ...
  Unit style    : metal
  Current step  : 2000
  Time step     : 0.001
Per MPI rank memory allocation (min/avg/max) = 18.94 | 18.94 | 18.94 Mbytes
Step Temp Press TotEng PotEng Enthalpy 
    2000    433.30495   -3667.8589    -80340.86   -81441.494   -80881.263 
    4000    820.84305    -613.9232   -79918.679   -82003.695    -80005.78 
    6000    1358.0022     382.1673   -76795.662   -80245.111   -76740.072 
    8000    1898.9979   -1540.3534   -72900.802    -77724.43   -73133.644 
   10000    2439.6173     247.8527   -69186.727   -75383.577   -69147.927 
Loop time of 1654.03 on 1 procs for 8000 steps with 19652 atoms

Performance: 0.418 ns/day, 57.431 hours/ns, 4.837 timesteps/s
99.4% CPU use with 1 MPI tasks x no OpenMP threads

MPI task timing breakdown:
Section |  min time  |  avg time  |  max time  |%varavg| %total
---------------------------------------------------------------
Pair    | 921.43     | 921.43     | 921.43     |   0.0 | 55.71
Neigh   | 706.37     | 706.37     | 706.37     |   0.0 | 42.71
Comm    | 10.139     | 10.139     | 10.139     |   0.0 |  0.61
Output  | 0.3157     | 0.3157     | 0.3157     |   0.0 |  0.02
Modify  | 12.185     | 12.185     | 12.185     |   0.0 |  0.74
Other   |            | 3.589      |            |       |  0.22

Nlocal:    19652 ave 19652 max 19652 min
Histogram: 1 0 0 0 0 0 0 0 0 0
Nghost:    19631 ave 19631 max 19631 min
Histogram: 1 0 0 0 0 0 0 0 0 0
Neighs:    1.75965e+06 ave 1.75965e+06 max 1.75965e+06 min
Histogram: 1 0 0 0 0 0 0 0 0 0

Total # of neighbors = 1759649
Ave neighs/atom = 89.5405
Neighbor list builds = 8000
Dangerous builds not checked
Setting up Verlet run ...
  Unit style    : metal
  Current step  : 10000
  Time step     : 0.001
Per MPI rank memory allocation (min/avg/max) = 18.96 | 18.96 | 18.96 Mbytes
Step Temp Press TotEng PotEng Enthalpy 
   10000    2439.6173     247.8527   -69186.727   -75383.577   -69147.927 
   12000     2428.935   -2823.4087   -69041.795   -75211.511   -69485.519 
   14000    2441.1822   -1251.7177    -69092.24   -75293.065   -69288.581 
   16000    2455.0414    554.25177   -69021.201    -75257.23    -68934.34 
   18000    2423.7666   -1401.6485   -69161.344   -75317.932   -69381.198 
   20000    2455.3559    2116.4111   -69053.456   -75290.284   -68722.016 
   22000    2439.6212   -727.45456    -69182.67    -75379.53   -69296.687 
   24000    2463.4953    725.99826   -69067.839   -75325.341   -68954.078 
   26000    2446.6975   -217.14912   -69101.421   -75316.255   -69135.463 
   28000    2447.0595    168.55342   -69041.215   -75256.969   -69014.795 
   30000     2457.533    97.460448   -69155.454   -75397.812     -69140.2 
   32000    2441.5847    -808.8852   -69133.055   -75334.903   -69259.867 
   34000    2475.1129    1244.9303   -69035.584   -75322.597   -68840.578 
   36000    2448.6585    649.97522   -69115.565    -75335.38   -69013.768 
   38000    2432.7948   -12.244802   -69148.068   -75327.589   -69149.988 
   40000    2437.8239   -1737.5549   -69142.901   -75335.196   -69415.448 
Loop time of 5879.79 on 1 procs for 30000 steps with 19652 atoms

Performance: 0.441 ns/day, 54.443 hours/ns, 5.102 timesteps/s
99.1% CPU use with 1 MPI tasks x no OpenMP threads

MPI task timing breakdown:
Section |  min time  |  avg time  |  max time  |%varavg| %total
---------------------------------------------------------------
Pair    | 3268.2     | 3268.2     | 3268.2     |   0.0 | 55.58
Neigh   | 2516.7     | 2516.7     | 2516.7     |   0.0 | 42.80
Comm    | 36.219     | 36.219     | 36.219     |   0.0 |  0.62
Output  | 2.2096     | 2.2096     | 2.2096     |   0.0 |  0.04
Modify  | 43.91      | 43.91      | 43.91      |   0.0 |  0.75
Other   |            | 12.57      |            |       |  0.21

Nlocal:    19652 ave 19652 max 19652 min
Histogram: 1 0 0 0 0 0 0 0 0 0
Nghost:    19654 ave 19654 max 19654 min
Histogram: 1 0 0 0 0 0 0 0 0 0
Neighs:    1.75499e+06 ave 1.75499e+06 max 1.75499e+06 min
Histogram: 1 0 0 0 0 0 0 0 0 0

Total # of neighbors = 1754987
Ave neighs/atom = 89.3032
Neighbor list builds = 30000
Dangerous builds not checked
Setting up Verlet run ...
  Unit style    : metal
  Current step  : 40000
  Time step     : 0.001
Per MPI rank memory allocation (min/avg/max) = 18.96 | 18.96 | 18.96 Mbytes
Step Temp Press TotEng PotEng Enthalpy 
   40000    2437.8239   -1737.5549   -69142.901   -75335.196   -69415.448 
   40495    2411.2244   -1419.7873    -69276.74    -75401.47   -69499.154 
Loop time of 81.3814 on 1 procs for 495 steps with 19652 atoms

Performance: 0.526 ns/day, 45.669 hours/ns, 6.082 timesteps/s
99.9% CPU use with 1 MPI tasks x no OpenMP threads

MPI task timing breakdown:
Section |  min time  |  avg time  |  max time  |%varavg| %total
---------------------------------------------------------------
Pair    | 44.143     | 44.143     | 44.143     |   0.0 | 54.24
Neigh   | 35.903     | 35.903     | 35.903     |   0.0 | 44.12
Comm    | 0.51679    | 0.51679    | 0.51679    |   0.0 |  0.64
Output  | 0.00016594 | 0.00016594 | 0.00016594 |   0.0 |  0.00
Modify  | 0.64068    | 0.64068    | 0.64068    |   0.0 |  0.79
Other   |            | 0.1772     |            |       |  0.22

Nlocal:    19652 ave 19652 max 19652 min
Histogram: 1 0 0 0 0 0 0 0 0 0
Nghost:    19704 ave 19704 max 19704 min
Histogram: 1 0 0 0 0 0 0 0 0 0
Neighs:    1.75754e+06 ave 1.75754e+06 max 1.75754e+06 min
Histogram: 1 0 0 0 0 0 0 0 0 0

Total # of neighbors = 1757541
Ave neighs/atom = 89.4332
Neighbor list builds = 495
Dangerous builds not checked
Setting up Verlet run ...
  Unit style    : metal
  Current step  : 40495
  Time step     : 0.001
Per MPI rank memory allocation (min/avg/max) = 18.96 | 18.96 | 18.96 Mbytes
Step Temp Press TotEng PotEng Enthalpy 
   40495    2411.2244   -1419.7873    -69276.74    -75401.47   -69499.154 
   42000     2404.018   -573.91205   -69330.664   -75437.088   -69420.486 
Loop time of 262.325 on 1 procs for 1505 steps with 19652 atoms

Performance: 0.496 ns/day, 48.417 hours/ns, 5.737 timesteps/s
99.3% CPU use with 1 MPI tasks x no OpenMP threads

MPI task timing breakdown:
Section |  min time  |  avg time  |  max time  |%varavg| %total
---------------------------------------------------------------
Pair    | 143.58     | 143.58     | 143.58     |   0.0 | 54.73
Neigh   | 114.45     | 114.45     | 114.45     |   0.0 | 43.63
Comm    | 1.6393     | 1.6393     | 1.6393     |   0.0 |  0.62
Output  | 0.079058   | 0.079058   | 0.079058   |   0.0 |  0.03
Modify  | 2.0132     | 2.0132     | 2.0132     |   0.0 |  0.77
Other   |            | 0.5637     |            |       |  0.21

Nlocal:    19652 ave 19652 max 19652 min
Histogram: 1 0 0 0 0 0 0 0 0 0
Nghost:    19696 ave 19696 max 19696 min
Histogram: 1 0 0 0 0 0 0 0 0 0
Neighs:    1.75999e+06 ave 1.75999e+06 max 1.75999e+06 min
Histogram: 1 0 0 0 0 0 0 0 0 0

Total # of neighbors = 1759994
Ave neighs/atom = 89.558
Neighbor list builds = 1505
Dangerous builds not checked
Setting up Verlet run ...
  Unit style    : metal
  Current step  : 42000
  Time step     : 0.001
Per MPI rank memory allocation (min/avg/max) = 18.96 | 18.96 | 18.96 Mbytes
Step Temp Press TotEng PotEng Enthalpy 
   42000     2404.018   -573.91205   -69330.664   -75437.088   -69420.486 
   42495    2368.0572   -1118.1405   -69616.011   -75631.092   -69790.498 
Loop time of 85.3691 on 1 procs for 495 steps with 19652 atoms

Performance: 0.501 ns/day, 47.906 hours/ns, 5.798 timesteps/s
99.5% CPU use with 1 MPI tasks x no OpenMP threads

MPI task timing breakdown:
Section |  min time  |  avg time  |  max time  |%varavg| %total
---------------------------------------------------------------
Pair    | 46.96      | 46.96      | 46.96      |   0.0 | 55.01
Neigh   | 37.002     | 37.002     | 37.002     |   0.0 | 43.34
Comm    | 0.52417    | 0.52417    | 0.52417    |   0.0 |  0.61
Output  | 0.0001421  | 0.0001421  | 0.0001421  |   0.0 |  0.00
Modify  | 0.68132    | 0.68132    | 0.68132    |   0.0 |  0.80
Other   |            | 0.2007     |            |       |  0.24

Nlocal:    19652 ave 19652 max 19652 min
Histogram: 1 0 0 0 0 0 0 0 0 0
Nghost:    19734 ave 19734 max 19734 min
Histogram: 1 0 0 0 0 0 0 0 0 0
Neighs:    1.7648e+06 ave 1.7648e+06 max 1.7648e+06 min
Histogram: 1 0 0 0 0 0 0 0 0 0

Total # of neighbors = 1764799
Ave neighs/atom = 89.8025
Neighbor list builds = 495
Dangerous builds not checked
Setting up Verlet run ...
  Unit style    : metal
  Current step  : 42495
  Time step     : 0.001
Per MPI rank memory allocation (min/avg/max) = 18.96 | 18.96 | 18.96 Mbytes
Step Temp Press TotEng PotEng Enthalpy 
   42495    2368.0572   -1118.1405   -69616.011   -75631.092   -69790.498 
   44000     2349.668    4337.7704   -69670.057   -75638.428   -68995.462 
Loop time of 289.259 on 1 procs for 1505 steps with 19652 atoms

Performance: 0.450 ns/day, 53.389 hours/ns, 5.203 timesteps/s
99.1% CPU use with 1 MPI tasks x no OpenMP threads

MPI task timing breakdown:
Section |  min time  |  avg time  |  max time  |%varavg| %total
---------------------------------------------------------------
Pair    | 160.4      | 160.4      | 160.4      |   0.0 | 55.45
Neigh   | 124.08     | 124.08     | 124.08     |   0.0 | 42.90
Comm    | 1.7939     | 1.7939     | 1.7939     |   0.0 |  0.62
Output  | 0.083859   | 0.083859   | 0.083859   |   0.0 |  0.03
Modify  | 2.2265     | 2.2265     | 2.2265     |   0.0 |  0.77
Other   |            | 0.6705     |            |       |  0.23

Nlocal:    19652 ave 19652 max 19652 min
Histogram: 1 0 0 0 0 0 0 0 0 0
Nghost:    19652 ave 19652 max 19652 min
Histogram: 1 0 0 0 0 0 0 0 0 0
Neighs:    1.77041e+06 ave 1.77041e+06 max 1.77041e+06 min
Histogram: 1 0 0 0 0 0 0 0 0 0

Total # of neighbors = 1770413
Ave neighs/atom = 90.0882
Neighbor list builds = 1505
Dangerous builds not checked
Setting up Verlet run ...
  Unit style    : metal
  Current step  : 44000
  Time step     : 0.001
Per MPI rank memory allocation (min/avg/max) = 18.96 | 18.96 | 18.96 Mbytes
Step Temp Press TotEng PotEng Enthalpy 
   44000     2349.668    4337.7704   -69670.057   -75638.428   -68995.462 
   44495    2324.7814    2512.8076   -69881.784   -75786.941   -69491.487 
Loop time of 90.8886 on 1 procs for 495 steps with 19652 atoms

Performance: 0.471 ns/day, 51.004 hours/ns, 5.446 timesteps/s
98.3% CPU use with 1 MPI tasks x no OpenMP threads

MPI task timing breakdown:
Section |  min time  |  avg time  |  max time  |%varavg| %total
---------------------------------------------------------------
Pair    | 50.475     | 50.475     | 50.475     |   0.0 | 55.54
Neigh   | 38.91      | 38.91      | 38.91      |   0.0 | 42.81
Comm    | 0.56303    | 0.56303    | 0.56303    |   0.0 |  0.62
Output  | 0.00020409 | 0.00020409 | 0.00020409 |   0.0 |  0.00
Modify  | 0.71976    | 0.71976    | 0.71976    |   0.0 |  0.79
Other   |            | 0.22       |            |       |  0.24

Nlocal:    19652 ave 19652 max 19652 min
Histogram: 1 0 0 0 0 0 0 0 0 0
Nghost:    19687 ave 19687 max 19687 min
Histogram: 1 0 0 0 0 0 0 0 0 0
Neighs:    1.77246e+06 ave 1.77246e+06 max 1.77246e+06 min
Histogram: 1 0 0 0 0 0 0 0 0 0

Total # of neighbors = 1772457
Ave neighs/atom = 90.1922
Neighbor list builds = 495
Dangerous builds not checked
Setting up Verlet run ...
  Unit style    : metal
  Current step  : 44495
  Time step     : 0.001
Per MPI rank memory allocation (min/avg/max) = 18.96 | 18.96 | 18.96 Mbytes
Step Temp Press TotEng PotEng Enthalpy 
   44495    2324.7814    2512.8076   -69881.784   -75786.941   -69491.487 
   46000    2296.4902   -3675.0318   -70123.349   -75956.643   -70694.814 
Loop time of 267.187 on 1 procs for 1505 steps with 19652 atoms

Performance: 0.487 ns/day, 49.315 hours/ns, 5.633 timesteps/s
99.1% CPU use with 1 MPI tasks x no OpenMP threads

MPI task timing breakdown:
Section |  min time  |  avg time  |  max time  |%varavg| %total
---------------------------------------------------------------
Pair    | 147.69     | 147.69     | 147.69     |   0.0 | 55.27
Neigh   | 115.06     | 115.06     | 115.06     |   0.0 | 43.06
Comm    | 1.6598     | 1.6598     | 1.6598     |   0.0 |  0.62
Output  | 0.10583    | 0.10583    | 0.10583    |   0.0 |  0.04
Modify  | 2.0652     | 2.0652     | 2.0652     |   0.0 |  0.77
Other   |            | 0.6113     |            |       |  0.23

Nlocal:    19652 ave 19652 max 19652 min
Histogram: 1 0 0 0 0 0 0 0 0 0
Nghost:    19763 ave 19763 max 19763 min
Histogram: 1 0 0 0 0 0 0 0 0 0
Neighs:    1.77005e+06 ave 1.77005e+06 max 1.77005e+06 min
Histogram: 1 0 0 0 0 0 0 0 0 0

Total # of neighbors = 1770053
Ave neighs/atom = 90.0699
Neighbor list builds = 1505
Dangerous builds not checked
Setting up Verlet run ...
  Unit style    : metal
  Current step  : 46000
  Time step     : 0.001
Per MPI rank memory allocation (min/avg/max) = 18.96 | 18.96 | 18.96 Mbytes
Step Temp Press TotEng PotEng Enthalpy 
   46000    2296.4902   -3675.0318   -70123.349   -75956.643   -70694.814 
   46495    2255.3059   -2126.0648   -70230.534   -75959.216   -70560.788 
Loop time of 95.5376 on 1 procs for 495 steps with 19652 atoms

Performance: 0.448 ns/day, 53.613 hours/ns, 5.181 timesteps/s
99.7% CPU use with 1 MPI tasks x no OpenMP threads

MPI task timing breakdown:
Section |  min time  |  avg time  |  max time  |%varavg| %total
---------------------------------------------------------------
Pair    | 52.896     | 52.896     | 52.896     |   0.0 | 55.37
Neigh   | 41.064     | 41.064     | 41.064     |   0.0 | 42.98
Comm    | 0.60461    | 0.60461    | 0.60461    |   0.0 |  0.63
Output  | 0.00013804 | 0.00013804 | 0.00013804 |   0.0 |  0.00
Modify  | 0.75565    | 0.75565    | 0.75565    |   0.0 |  0.79
Other   |            | 0.2175     |            |       |  0.23

Nlocal:    19652 ave 19652 max 19652 min
Histogram: 1 0 0 0 0 0 0 0 0 0
Nghost:    19752 ave 19752 max 19752 min
Histogram: 1 0 0 0 0 0 0 0 0 0
Neighs:    1.77159e+06 ave 1.77159e+06 max 1.77159e+06 min
Histogram: 1 0 0 0 0 0 0 0 0 0

Total # of neighbors = 1771590
Ave neighs/atom = 90.1481
Neighbor list builds = 495
Dangerous builds not checked
Setting up Verlet run ...
  Unit style    : metal
  Current step  : 46495
  Time step     : 0.001
Per MPI rank memory allocation (min/avg/max) = 18.96 | 18.96 | 18.96 Mbytes
Step Temp Press TotEng PotEng Enthalpy 
   46495    2255.3059   -2126.0648   -70230.534   -75959.216   -70560.788 
   48000    2271.3914    3465.4287   -70316.698   -76086.239   -69780.891 
Loop time of 266.816 on 1 procs for 1505 steps with 19652 atoms

Performance: 0.487 ns/day, 49.246 hours/ns, 5.641 timesteps/s
99.3% CPU use with 1 MPI tasks x no OpenMP threads

MPI task timing breakdown:
Section |  min time  |  avg time  |  max time  |%varavg| %total
---------------------------------------------------------------
Pair    | 147.95     | 147.95     | 147.95     |   0.0 | 55.45
Neigh   | 114.46     | 114.46     | 114.46     |   0.0 | 42.90
Comm    | 1.662      | 1.662      | 1.662      |   0.0 |  0.62
Output  | 0.082985   | 0.082985   | 0.082985   |   0.0 |  0.03
Modify  | 2.0391     | 2.0391     | 2.0391     |   0.0 |  0.76
Other   |            | 0.619      |            |       |  0.23

Nlocal:    19652 ave 19652 max 19652 min
Histogram: 1 0 0 0 0 0 0 0 0 0
Nghost:    19777 ave 19777 max 19777 min
Histogram: 1 0 0 0 0 0 0 0 0 0
Neighs:    1.77967e+06 ave 1.77967e+06 max 1.77967e+06 min
Histogram: 1 0 0 0 0 0 0 0 0 0

Total # of neighbors = 1779674
Ave neighs/atom = 90.5594
Neighbor list builds = 1505
Dangerous builds not checked
Setting up Verlet run ...
  Unit style    : metal
  Current step  : 48000
  Time step     : 0.001
Per MPI rank memory allocation (min/avg/max) = 18.96 | 18.96 | 18.96 Mbytes
Step Temp Press TotEng PotEng Enthalpy 
   48000    2271.3914    3465.4287   -70316.698   -76086.239   -69780.891 
   48495    2212.0932    1756.0263   -70585.795   -76204.713   -70314.719 
Loop time of 84.1803 on 1 procs for 495 steps with 19652 atoms

Performance: 0.508 ns/day, 47.239 hours/ns, 5.880 timesteps/s
99.8% CPU use with 1 MPI tasks x no OpenMP threads

MPI task timing breakdown:
Section |  min time  |  avg time  |  max time  |%varavg| %total
---------------------------------------------------------------
Pair    | 46.279     | 46.279     | 46.279     |   0.0 | 54.98
Neigh   | 36.52      | 36.52      | 36.52      |   0.0 | 43.38
Comm    | 0.52324    | 0.52324    | 0.52324    |   0.0 |  0.62
Output  | 0.00015998 | 0.00015998 | 0.00015998 |   0.0 |  0.00
Modify  | 0.65785    | 0.65785    | 0.65785    |   0.0 |  0.78
Other   |            | 0.2        |            |       |  0.24

Nlocal:    19652 ave 19652 max 19652 min
Histogram: 1 0 0 0 0 0 0 0 0 0
Nghost:    19808 ave 19808 max 19808 min
Histogram: 1 0 0 0 0 0 0 0 0 0
Neighs:    1.78283e+06 ave 1.78283e+06 max 1.78283e+06 min
Histogram: 1 0 0 0 0 0 0 0 0 0

Total # of neighbors = 1782831
Ave neighs/atom = 90.7201
Neighbor list builds = 495
Dangerous builds not checked
Setting up Verlet run ...
  Unit style    : metal
  Current step  : 48495
  Time step     : 0.001
Per MPI rank memory allocation (min/avg/max) = 18.96 | 18.96 | 18.96 Mbytes
Step Temp Press TotEng PotEng Enthalpy 
   48495    2212.0932    1756.0263   -70585.795   -76204.713   -70314.719 
   50000    2204.1475   -4811.2037   -70629.399   -76228.135   -71374.755 
Loop time of 269.231 on 1 procs for 1505 steps with 19652 atoms

Performance: 0.483 ns/day, 49.692 hours/ns, 5.590 timesteps/s
99.5% CPU use with 1 MPI tasks x no OpenMP threads

MPI task timing breakdown:
Section |  min time  |  avg time  |  max time  |%varavg| %total
---------------------------------------------------------------
Pair    | 148.89     | 148.89     | 148.89     |   0.0 | 55.30
Neigh   | 115.86     | 115.86     | 115.86     |   0.0 | 43.03
Comm    | 1.6817     | 1.6817     | 1.6817     |   0.0 |  0.62
Output  | 0.07997    | 0.07997    | 0.07997    |   0.0 |  0.03
Modify  | 2.0914     | 2.0914     | 2.0914     |   0.0 |  0.78
Other   |            | 0.6249     |            |       |  0.23

Nlocal:    19652 ave 19652 max 19652 min
Histogram: 1 0 0 0 0 0 0 0 0 0
Nghost:    19806 ave 19806 max 19806 min
Histogram: 1 0 0 0 0 0 0 0 0 0
Neighs:    1.77597e+06 ave 1.77597e+06 max 1.77597e+06 min
Histogram: 1 0 0 0 0 0 0 0 0 0

Total # of neighbors = 1775974
Ave neighs/atom = 90.3712
Neighbor list builds = 1505
Dangerous builds not checked
Setting up Verlet run ...
  Unit style    : metal
  Current step  : 50000
  Time step     : 0.001
Per MPI rank memory allocation (min/avg/max) = 18.96 | 18.96 | 18.96 Mbytes
Step Temp Press TotEng PotEng Enthalpy 
   50000    2204.1475   -4811.2037   -70629.399   -76228.135   -71374.755 
   50495     2165.854   -2396.0695   -70936.641   -76438.108   -71306.307 
Loop time of 90.2498 on 1 procs for 495 steps with 19652 atoms

Performance: 0.474 ns/day, 50.645 hours/ns, 5.485 timesteps/s
99.5% CPU use with 1 MPI tasks x no OpenMP threads

MPI task timing breakdown:
Section |  min time  |  avg time  |  max time  |%varavg| %total
---------------------------------------------------------------
Pair    | 50.169     | 50.169     | 50.169     |   0.0 | 55.59
Neigh   | 38.573     | 38.573     | 38.573     |   0.0 | 42.74
Comm    | 0.57303    | 0.57303    | 0.57303    |   0.0 |  0.63
Output  | 0.00017691 | 0.00017691 | 0.00017691 |   0.0 |  0.00
Modify  | 0.72196    | 0.72196    | 0.72196    |   0.0 |  0.80
Other   |            | 0.2123     |            |       |  0.24

Nlocal:    19652 ave 19652 max 19652 min
Histogram: 1 0 0 0 0 0 0 0 0 0
Nghost:    19827 ave 19827 max 19827 min
Histogram: 1 0 0 0 0 0 0 0 0 0
Neighs:    1.78323e+06 ave 1.78323e+06 max 1.78323e+06 min
Histogram: 1 0 0 0 0 0 0 0 0 0

Total # of neighbors = 1783232
Ave neighs/atom = 90.7405
Neighbor list builds = 495
Dangerous builds not checked
Setting up Verlet run ...
  Unit style    : metal
  Current step  : 50495
  Time step     : 0.001
Per MPI rank memory allocation (min/avg/max) = 18.96 | 18.96 | 18.96 Mbytes
Step Temp Press TotEng PotEng Enthalpy 
   50495     2165.854   -2396.0695   -70936.641   -76438.108   -71306.307 
   52000    2168.1739    3673.4199   -71024.974   -76532.334   -70461.126 
Loop time of 276.679 on 1 procs for 1505 steps with 19652 atoms

Performance: 0.470 ns/day, 51.067 hours/ns, 5.440 timesteps/s
99.3% CPU use with 1 MPI tasks x no OpenMP threads

MPI task timing breakdown:
Section |  min time  |  avg time  |  max time  |%varavg| %total
---------------------------------------------------------------
Pair    | 154.19     | 154.19     | 154.19     |   0.0 | 55.73
Neigh   | 117.85     | 117.85     | 117.85     |   0.0 | 42.59
Comm    | 1.7831     | 1.7831     | 1.7831     |   0.0 |  0.64
Output  | 0.094134   | 0.094134   | 0.094134   |   0.0 |  0.03
Modify  | 2.1312     | 2.1312     | 2.1312     |   0.0 |  0.77
Other   |            | 0.6311     |            |       |  0.23

Nlocal:    19652 ave 19652 max 19652 min
Histogram: 1 0 0 0 0 0 0 0 0 0
Nghost:    19845 ave 19845 max 19845 min
Histogram: 1 0 0 0 0 0 0 0 0 0
Neighs:    1.79208e+06 ave 1.79208e+06 max 1.79208e+06 min
Histogram: 1 0 0 0 0 0 0 0 0 0

Total # of neighbors = 1792080
Ave neighs/atom = 91.1907
Neighbor list builds = 1505
Dangerous builds not checked
Setting up Verlet run ...
  Unit style    : metal
  Current step  : 52000
  Time step     : 0.001
Per MPI rank memory allocation (min/avg/max) = 18.96 | 18.96 | 18.96 Mbytes
Step Temp Press TotEng PotEng Enthalpy 
   52000    2168.1739    3673.4199   -71024.974   -76532.334   -70461.126 
   52495    2128.2261    1435.7959   -71244.479   -76650.368   -71024.259 
Loop time of 86.5654 on 1 procs for 495 steps with 19652 atoms

Performance: 0.494 ns/day, 48.578 hours/ns, 5.718 timesteps/s
100.0% CPU use with 1 MPI tasks x no OpenMP threads

MPI task timing breakdown:
Section |  min time  |  avg time  |  max time  |%varavg| %total
---------------------------------------------------------------
Pair    | 48.033     | 48.033     | 48.033     |   0.0 | 55.49
Neigh   | 37.096     | 37.096     | 37.096     |   0.0 | 42.85
Comm    | 0.55458    | 0.55458    | 0.55458    |   0.0 |  0.64
Output  | 0.00016689 | 0.00016689 | 0.00016689 |   0.0 |  0.00
Modify  | 0.67588    | 0.67588    | 0.67588    |   0.0 |  0.78
Other   |            | 0.2058     |            |       |  0.24

Nlocal:    19652 ave 19652 max 19652 min
Histogram: 1 0 0 0 0 0 0 0 0 0
Nghost:    19879 ave 19879 max 19879 min
Histogram: 1 0 0 0 0 0 0 0 0 0
Neighs:    1.79316e+06 ave 1.79316e+06 max 1.79316e+06 min
Histogram: 1 0 0 0 0 0 0 0 0 0

Total # of neighbors = 1793159
Ave neighs/atom = 91.2456
Neighbor list builds = 495
Dangerous builds not checked
Setting up Verlet run ...
  Unit style    : metal
  Current step  : 52495
  Time step     : 0.001
Per MPI rank memory allocation (min/avg/max) = 18.96 | 18.96 | 18.96 Mbytes
Step Temp Press TotEng PotEng Enthalpy 
   52495    2128.2261    1435.7959   -71244.479   -76650.368   -71024.259 
   54000    2070.7553   -2404.3278   -71387.327   -76647.234   -71757.031 
Loop time of 276.811 on 1 procs for 1505 steps with 19652 atoms

Performance: 0.470 ns/day, 51.091 hours/ns, 5.437 timesteps/s
99.4% CPU use with 1 MPI tasks x no OpenMP threads

MPI task timing breakdown:
Section |  min time  |  avg time  |  max time  |%varavg| %total
---------------------------------------------------------------
Pair    | 152.85     | 152.85     | 152.85     |   0.0 | 55.22
Neigh   | 119.36     | 119.36     | 119.36     |   0.0 | 43.12
Comm    | 1.7715     | 1.7715     | 1.7715     |   0.0 |  0.64
Output  | 0.085577   | 0.085577   | 0.085577   |   0.0 |  0.03
Modify  | 2.1377     | 2.1377     | 2.1377     |   0.0 |  0.77
Other   |            | 0.611      |            |       |  0.22

Nlocal:    19652 ave 19652 max 19652 min
Histogram: 1 0 0 0 0 0 0 0 0 0
Nghost:    19730 ave 19730 max 19730 min
Histogram: 1 0 0 0 0 0 0 0 0 0
Neighs:    1.7885e+06 ave 1.7885e+06 max 1.7885e+06 min
Histogram: 1 0 0 0 0 0 0 0 0 0

Total # of neighbors = 1788500
Ave neighs/atom = 91.0085
Neighbor list builds = 1505
Dangerous builds not checked
Setting up Verlet run ...
  Unit style    : metal
  Current step  : 54000
  Time step     : 0.001
Per MPI rank memory allocation (min/avg/max) = 18.96 | 18.96 | 18.96 Mbytes
Step Temp Press TotEng PotEng Enthalpy 
   54000    2070.7553   -2404.3278   -71387.327   -76647.234   -71757.031 
   54495     2055.531    102.52944   -71544.973   -76766.209   -71529.255 
Loop time of 84.8562 on 1 procs for 495 steps with 19652 atoms

Performance: 0.504 ns/day, 47.619 hours/ns, 5.833 timesteps/s
98.8% CPU use with 1 MPI tasks x no OpenMP threads

MPI task timing breakdown:
Section |  min time  |  avg time  |  max time  |%varavg| %total
---------------------------------------------------------------
Pair    | 46.774     | 46.774     | 46.774     |   0.0 | 55.12
Neigh   | 36.692     | 36.692     | 36.692     |   0.0 | 43.24
Comm    | 0.54279    | 0.54279    | 0.54279    |   0.0 |  0.64
Output  | 0.00011706 | 0.00011706 | 0.00011706 |   0.0 |  0.00
Modify  | 0.66257    | 0.66257    | 0.66257    |   0.0 |  0.78
Other   |            | 0.1845     |            |       |  0.22

Nlocal:    19652 ave 19652 max 19652 min
Histogram: 1 0 0 0 0 0 0 0 0 0
Nghost:    19859 ave 19859 max 19859 min
Histogram: 1 0 0 0 0 0 0 0 0 0
Neighs:    1.79351e+06 ave 1.79351e+06 max 1.79351e+06 min
Histogram: 1 0 0 0 0 0 0 0 0 0

Total # of neighbors = 1793512
Ave neighs/atom = 91.2636
Neighbor list builds = 495
Dangerous builds not checked
Setting up Verlet run ...
  Unit style    : metal
  Current step  : 54495
  Time step     : 0.001
Per MPI rank memory allocation (min/avg/max) = 18.96 | 18.96 | 18.96 Mbytes
Step Temp Press TotEng PotEng Enthalpy 
   54495     2055.531    102.52944   -71544.973   -76766.209   -71529.255 
   56000    2070.5155    4012.4245   -71686.749   -76946.047   -71074.641 
Loop time of 257.502 on 1 procs for 1505 steps with 19652 atoms

Performance: 0.505 ns/day, 47.527 hours/ns, 5.845 timesteps/s
99.1% CPU use with 1 MPI tasks x no OpenMP threads

MPI task timing breakdown:
Section |  min time  |  avg time  |  max time  |%varavg| %total
---------------------------------------------------------------
Pair    | 142.18     | 142.18     | 142.18     |   0.0 | 55.22
Neigh   | 111.04     | 111.04     | 111.04     |   0.0 | 43.12
Comm    | 1.6704     | 1.6704     | 1.6704     |   0.0 |  0.65
Output  | 0.082493   | 0.082493   | 0.082493   |   0.0 |  0.03
Modify  | 1.9791     | 1.9791     | 1.9791     |   0.0 |  0.77
Other   |            | 0.547      |            |       |  0.21

Nlocal:    19652 ave 19652 max 19652 min
Histogram: 1 0 0 0 0 0 0 0 0 0
Nghost:    19844 ave 19844 max 19844 min
Histogram: 1 0 0 0 0 0 0 0 0 0
Neighs:    1.80297e+06 ave 1.80297e+06 max 1.80297e+06 min
Histogram: 1 0 0 0 0 0 0 0 0 0

Total # of neighbors = 1802970
Ave neighs/atom = 91.7449
Neighbor list builds = 1505
Dangerous builds not checked
Setting up Verlet run ...
  Unit style    : metal
  Current step  : 56000
  Time step     : 0.001
Per MPI rank memory allocation (min/avg/max) = 18.96 | 18.96 | 18.96 Mbytes
Step Temp Press TotEng PotEng Enthalpy 
   56000    2070.5155    4012.4245   -71686.749   -76946.047   -71074.641 
   56495    2027.5786    1820.8845   -71923.265     -77073.5   -71645.749 
Loop time of 84.9477 on 1 procs for 495 steps with 19652 atoms

Performance: 0.503 ns/day, 47.670 hours/ns, 5.827 timesteps/s
99.3% CPU use with 1 MPI tasks x no OpenMP threads

MPI task timing breakdown:
Section |  min time  |  avg time  |  max time  |%varavg| %total
---------------------------------------------------------------
Pair    | 46.871     | 46.871     | 46.871     |   0.0 | 55.18
Neigh   | 36.666     | 36.666     | 36.666     |   0.0 | 43.16
Comm    | 0.54608    | 0.54608    | 0.54608    |   0.0 |  0.64
Output  | 0.00016904 | 0.00016904 | 0.00016904 |   0.0 |  0.00
Modify  | 0.68243    | 0.68243    | 0.68243    |   0.0 |  0.80
Other   |            | 0.182      |            |       |  0.21

Nlocal:    19652 ave 19652 max 19652 min
Histogram: 1 0 0 0 0 0 0 0 0 0
Nghost:    19820 ave 19820 max 19820 min
Histogram: 1 0 0 0 0 0 0 0 0 0
Neighs:    1.80384e+06 ave 1.80384e+06 max 1.80384e+06 min
Histogram: 1 0 0 0 0 0 0 0 0 0

Total # of neighbors = 1803838
Ave neighs/atom = 91.789
Neighbor list builds = 495
Dangerous builds not checked
Setting up Verlet run ...
  Unit style    : metal
  Current step  : 56495
  Time step     : 0.001
Per MPI rank memory allocation (min/avg/max) = 18.96 | 18.96 | 18.96 Mbytes
Step Temp Press TotEng PotEng Enthalpy 
   56495    2027.5786    1820.8845   -71923.265     -77073.5   -71645.749 
   58000    2021.5613    757.62977   -71951.022   -77085.972    -71835.52 
Loop time of 266.601 on 1 procs for 1505 steps with 19652 atoms

Performance: 0.488 ns/day, 49.206 hours/ns, 5.645 timesteps/s
99.5% CPU use with 1 MPI tasks x no OpenMP threads

MPI task timing breakdown:
Section |  min time  |  avg time  |  max time  |%varavg| %total
---------------------------------------------------------------
Pair    | 147.75     | 147.75     | 147.75     |   0.0 | 55.42
Neigh   | 114.44     | 114.44     | 114.44     |   0.0 | 42.92
Comm    | 1.6832     | 1.6832     | 1.6832     |   0.0 |  0.63
Output  | 0.074533   | 0.074533   | 0.074533   |   0.0 |  0.03
Modify  | 2.0676     | 2.0676     | 2.0676     |   0.0 |  0.78
Other   |            | 0.5864     |            |       |  0.22

Nlocal:    19652 ave 19652 max 19652 min
Histogram: 1 0 0 0 0 0 0 0 0 0
Nghost:    19899 ave 19899 max 19899 min
Histogram: 1 0 0 0 0 0 0 0 0 0
Neighs:    1.80258e+06 ave 1.80258e+06 max 1.80258e+06 min
Histogram: 1 0 0 0 0 0 0 0 0 0

Total # of neighbors = 1802577
Ave neighs/atom = 91.7249
Neighbor list builds = 1505
Dangerous builds not checked
Setting up Verlet run ...
  Unit style    : metal
  Current step  : 58000
  Time step     : 0.001
Per MPI rank memory allocation (min/avg/max) = 18.96 | 18.96 | 18.96 Mbytes
Step Temp Press TotEng PotEng Enthalpy 
   58000    2021.5613    757.62977   -71951.022   -77085.972    -71835.52 
   58495    1971.8674    243.51646   -72241.628   -77250.351   -72204.586 
Loop time of 86.5275 on 1 procs for 495 steps with 19652 atoms

Performance: 0.494 ns/day, 48.556 hours/ns, 5.721 timesteps/s
98.9% CPU use with 1 MPI tasks x no OpenMP threads

MPI task timing breakdown:
Section |  min time  |  avg time  |  max time  |%varavg| %total
---------------------------------------------------------------
Pair    | 47.92      | 47.92      | 47.92      |   0.0 | 55.38
Neigh   | 37.209     | 37.209     | 37.209     |   0.0 | 43.00
Comm    | 0.5325     | 0.5325     | 0.5325     |   0.0 |  0.62
Output  | 0.00014687 | 0.00014687 | 0.00014687 |   0.0 |  0.00
Modify  | 0.65463    | 0.65463    | 0.65463    |   0.0 |  0.76
Other   |            | 0.2107     |            |       |  0.24

Nlocal:    19652 ave 19652 max 19652 min
Histogram: 1 0 0 0 0 0 0 0 0 0
Nghost:    19884 ave 19884 max 19884 min
Histogram: 1 0 0 0 0 0 0 0 0 0
Neighs:    1.80701e+06 ave 1.80701e+06 max 1.80701e+06 min
Histogram: 1 0 0 0 0 0 0 0 0 0

Total # of neighbors = 1807011
Ave neighs/atom = 91.9505
Neighbor list builds = 495
Dangerous builds not checked
Setting up Verlet run ...
  Unit style    : metal
  Current step  : 58495
  Time step     : 0.001
Per MPI rank memory allocation (min/avg/max) = 18.96 | 18.96 | 18.96 Mbytes
Step Temp Press TotEng PotEng Enthalpy 
   58495    1971.8674    243.51646   -72241.628   -77250.351   -72204.586 
   60000    1955.6852    1713.0345   -72390.877   -77358.495   -72130.915 
Loop time of 252.164 on 1 procs for 1505 steps with 19652 atoms

Performance: 0.516 ns/day, 46.542 hours/ns, 5.968 timesteps/s
99.8% CPU use with 1 MPI tasks x no OpenMP threads

MPI task timing breakdown:
Section |  min time  |  avg time  |  max time  |%varavg| %total
---------------------------------------------------------------
Pair    | 139.69     | 139.69     | 139.69     |   0.0 | 55.40
Neigh   | 108.26     | 108.26     | 108.26     |   0.0 | 42.93
Comm    | 1.5389     | 1.5389     | 1.5389     |   0.0 |  0.61
Output  | 0.16053    | 0.16053    | 0.16053    |   0.0 |  0.06
Modify  | 1.919      | 1.919      | 1.919      |   0.0 |  0.76
Other   |            | 0.5948     |            |       |  0.24

Nlocal:    19652 ave 19652 max 19652 min
Histogram: 1 0 0 0 0 0 0 0 0 0
Nghost:    19887 ave 19887 max 19887 min
Histogram: 1 0 0 0 0 0 0 0 0 0
Neighs:    1.81132e+06 ave 1.81132e+06 max 1.81132e+06 min
Histogram: 1 0 0 0 0 0 0 0 0 0

Total # of neighbors = 1811316
Ave neighs/atom = 92.1696
Neighbor list builds = 1505
Dangerous builds not checked
Setting up Verlet run ...
  Unit style    : metal
  Current step  : 60000
  Time step     : 0.001
Per MPI rank memory allocation (min/avg/max) = 18.96 | 18.96 | 18.96 Mbytes
Step Temp Press TotEng PotEng Enthalpy 
   60000    1955.6852    1713.0345   -72390.877   -77358.495   -72130.915 
   60495    1918.8464   -849.94692   -72604.267   -77478.311     -72733.2 
Loop time of 83.8277 on 1 procs for 495 steps with 19652 atoms

Performance: 0.510 ns/day, 47.041 hours/ns, 5.905 timesteps/s
100.0% CPU use with 1 MPI tasks x no OpenMP threads

MPI task timing breakdown:
Section |  min time  |  avg time  |  max time  |%varavg| %total
---------------------------------------------------------------
Pair    | 46.475     | 46.475     | 46.475     |   0.0 | 55.44
Neigh   | 36.004     | 36.004     | 36.004     |   0.0 | 42.95
Comm    | 0.51743    | 0.51743    | 0.51743    |   0.0 |  0.62
Output  | 0.00013304 | 0.00013304 | 0.00013304 |   0.0 |  0.00
Modify  | 0.63673    | 0.63673    | 0.63673    |   0.0 |  0.76
Other   |            | 0.1941     |            |       |  0.23

Nlocal:    19652 ave 19652 max 19652 min
Histogram: 1 0 0 0 0 0 0 0 0 0
Nghost:    19972 ave 19972 max 19972 min
Histogram: 1 0 0 0 0 0 0 0 0 0
Neighs:    1.81107e+06 ave 1.81107e+06 max 1.81107e+06 min
Histogram: 1 0 0 0 0 0 0 0 0 0

Total # of neighbors = 1811066
Ave neighs/atom = 92.1568
Neighbor list builds = 495
Dangerous builds not checked
Setting up Verlet run ...
  Unit style    : metal
  Current step  : 60495
  Time step     : 0.001
Per MPI rank memory allocation (min/avg/max) = 18.96 | 18.96 | 18.96 Mbytes
Step Temp Press TotEng PotEng Enthalpy 
   60495    1918.8464   -849.94692   -72604.267   -77478.311     -72733.2 
   62000    1902.6581   -707.42174   -72655.886   -77488.811   -72763.176 
Loop time of 270.959 on 1 procs for 1505 steps with 19652 atoms

Performance: 0.480 ns/day, 50.011 hours/ns, 5.554 timesteps/s
99.1% CPU use with 1 MPI tasks x no OpenMP threads

MPI task timing breakdown:
Section |  min time  |  avg time  |  max time  |%varavg| %total
---------------------------------------------------------------
Pair    | 151.29     | 151.29     | 151.29     |   0.0 | 55.83
Neigh   | 115.14     | 115.14     | 115.14     |   0.0 | 42.49
Comm    | 1.6843     | 1.6843     | 1.6843     |   0.0 |  0.62
Output  | 0.15759    | 0.15759    | 0.15759    |   0.0 |  0.06
Modify  | 2.0749     | 2.0749     | 2.0749     |   0.0 |  0.77
Other   |            | 0.6125     |            |       |  0.23

Nlocal:    19652 ave 19652 max 19652 min
Histogram: 1 0 0 0 0 0 0 0 0 0
Nghost:    19903 ave 19903 max 19903 min
Histogram: 1 0 0 0 0 0 0 0 0 0
Neighs:    1.81118e+06 ave 1.81118e+06 max 1.81118e+06 min
Histogram: 1 0 0 0 0 0 0 0 0 0

Total # of neighbors = 1811177
Ave neighs/atom = 92.1625
Neighbor list builds = 1505
Dangerous builds not checked
Setting up Verlet run ...
  Unit style    : metal
  Current step  : 62000
  Time step     : 0.001
Per MPI rank memory allocation (min/avg/max) = 18.96 | 18.96 | 18.96 Mbytes
Step Temp Press TotEng PotEng Enthalpy 
   62000    1902.6581   -707.42174   -72655.886   -77488.811   -72763.176 
   62495    1861.3653   -567.99789   -72945.449   -77673.487   -73031.306 
Loop time of 85.3261 on 1 procs for 495 steps with 19652 atoms

Performance: 0.501 ns/day, 47.882 hours/ns, 5.801 timesteps/s
99.4% CPU use with 1 MPI tasks x no OpenMP threads

MPI task timing breakdown:
Section |  min time  |  avg time  |  max time  |%varavg| %total
---------------------------------------------------------------
Pair    | 47.43      | 47.43      | 47.43      |   0.0 | 55.59
Neigh   | 36.486     | 36.486     | 36.486     |   0.0 | 42.76
Comm    | 0.54184    | 0.54184    | 0.54184    |   0.0 |  0.64
Output  | 0.00018215 | 0.00018215 | 0.00018215 |   0.0 |  0.00
Modify  | 0.66903    | 0.66903    | 0.66903    |   0.0 |  0.78
Other   |            | 0.1991     |            |       |  0.23

Nlocal:    19652 ave 19652 max 19652 min
Histogram: 1 0 0 0 0 0 0 0 0 0
Nghost:    19931 ave 19931 max 19931 min
Histogram: 1 0 0 0 0 0 0 0 0 0
Neighs:    1.8173e+06 ave 1.8173e+06 max 1.8173e+06 min
Histogram: 1 0 0 0 0 0 0 0 0 0

Total # of neighbors = 1817304
Ave neighs/atom = 92.4743
Neighbor list builds = 495
Dangerous builds not checked
Setting up Verlet run ...
  Unit style    : metal
  Current step  : 62495
  Time step     : 0.001
Per MPI rank memory allocation (min/avg/max) = 18.96 | 18.96 | 18.96 Mbytes
Step Temp Press TotEng PotEng Enthalpy 
   62495    1861.3653   -567.99789   -72945.449   -77673.487   -73031.306 
   64000    1843.4843   -562.42625   -73069.776   -77752.394   -73154.703 
Loop time of 252.981 on 1 procs for 1505 steps with 19652 atoms

Performance: 0.514 ns/day, 46.693 hours/ns, 5.949 timesteps/s
99.5% CPU use with 1 MPI tasks x no OpenMP threads

MPI task timing breakdown:
Section |  min time  |  avg time  |  max time  |%varavg| %total
---------------------------------------------------------------
Pair    | 140.01     | 140.01     | 140.01     |   0.0 | 55.34
Neigh   | 108.78     | 108.78     | 108.78     |   0.0 | 43.00
Comm    | 1.5621     | 1.5621     | 1.5621     |   0.0 |  0.62
Output  | 0.082124   | 0.082124   | 0.082124   |   0.0 |  0.03
Modify  | 1.9579     | 1.9579     | 1.9579     |   0.0 |  0.77
Other   |            | 0.5889     |            |       |  0.23

Nlocal:    19652 ave 19652 max 19652 min
Histogram: 1 0 0 0 0 0 0 0 0 0
Nghost:    19950 ave 19950 max 19950 min
Histogram: 1 0 0 0 0 0 0 0 0 0
Neighs:    1.81856e+06 ave 1.81856e+06 max 1.81856e+06 min
Histogram: 1 0 0 0 0 0 0 0 0 0

Total # of neighbors = 1818560
Ave neighs/atom = 92.5382
Neighbor list builds = 1505
Dangerous builds not checked
Setting up Verlet run ...
  Unit style    : metal
  Current step  : 64000
  Time step     : 0.001
Per MPI rank memory allocation (min/avg/max) = 18.96 | 18.96 | 18.96 Mbytes
Step Temp Press TotEng PotEng Enthalpy 
   64000    1843.4843   -562.42625   -73069.776   -77752.394   -73154.703 
   64495    1828.2165    31.250465   -73261.149   -77904.985    -73256.44 
Loop time of 77.9967 on 1 procs for 495 steps with 19652 atoms

Performance: 0.548 ns/day, 43.769 hours/ns, 6.346 timesteps/s
100.0% CPU use with 1 MPI tasks x no OpenMP threads

MPI task timing breakdown:
Section |  min time  |  avg time  |  max time  |%varavg| %total
---------------------------------------------------------------
Pair    | 43.039     | 43.039     | 43.039     |   0.0 | 55.18
Neigh   | 33.695     | 33.695     | 33.695     |   0.0 | 43.20
Comm    | 0.47872    | 0.47872    | 0.47872    |   0.0 |  0.61
Output  | 0.00018597 | 0.00018597 | 0.00018597 |   0.0 |  0.00
Modify  | 0.59697    | 0.59697    | 0.59697    |   0.0 |  0.77
Other   |            | 0.1868     |            |       |  0.24

Nlocal:    19652 ave 19652 max 19652 min
Histogram: 1 0 0 0 0 0 0 0 0 0
Nghost:    20005 ave 20005 max 20005 min
Histogram: 1 0 0 0 0 0 0 0 0 0
Neighs:    1.82239e+06 ave 1.82239e+06 max 1.82239e+06 min
Histogram: 1 0 0 0 0 0 0 0 0 0

Total # of neighbors = 1822386
Ave neighs/atom = 92.7329
Neighbor list builds = 495
Dangerous builds not checked
Setting up Verlet run ...
  Unit style    : metal
  Current step  : 64495
  Time step     : 0.001
Per MPI rank memory allocation (min/avg/max) = 18.96 | 18.96 | 18.96 Mbytes
Step Temp Press TotEng PotEng Enthalpy 
   64495    1828.2165    31.250465   -73261.149   -77904.985    -73256.44 
   66000    1794.3079    1604.7463   -73432.597   -77990.302     -73191.4 
Loop time of 260.597 on 1 procs for 1505 steps with 19652 atoms

Performance: 0.499 ns/day, 48.098 hours/ns, 5.775 timesteps/s
99.3% CPU use with 1 MPI tasks x no OpenMP threads

MPI task timing breakdown:
Section |  min time  |  avg time  |  max time  |%varavg| %total
---------------------------------------------------------------
Pair    | 144.7      | 144.7      | 144.7      |   0.0 | 55.53
Neigh   | 111.57     | 111.57     | 111.57     |   0.0 | 42.81
Comm    | 1.5999     | 1.5999     | 1.5999     |   0.0 |  0.61
Output  | 0.11722    | 0.11722    | 0.11722    |   0.0 |  0.04
Modify  | 2.0005     | 2.0005     | 2.0005     |   0.0 |  0.77
Other   |            | 0.6098     |            |       |  0.23

Nlocal:    19652 ave 19652 max 19652 min
Histogram: 1 0 0 0 0 0 0 0 0 0
Nghost:    19980 ave 19980 max 19980 min
Histogram: 1 0 0 0 0 0 0 0 0 0
Neighs:    1.82633e+06 ave 1.82633e+06 max 1.82633e+06 min
Histogram: 1 0 0 0 0 0 0 0 0 0

Total # of neighbors = 1826326
Ave neighs/atom = 92.9333
Neighbor list builds = 1505
Dangerous builds not checked
Setting up Verlet run ...
  Unit style    : metal
  Current step  : 66000
  Time step     : 0.001
Per MPI rank memory allocation (min/avg/max) = 18.96 | 18.96 | 18.96 Mbytes
Step Temp Press TotEng PotEng Enthalpy 
   66000    1794.3079    1604.7463   -73432.597   -77990.302     -73191.4 
   66495    1766.6467    66.107785   -73665.048   -78152.492   -73655.127 
Loop time of 82.9378 on 1 procs for 495 steps with 19652 atoms

Performance: 0.516 ns/day, 46.542 hours/ns, 5.968 timesteps/s
99.6% CPU use with 1 MPI tasks x no OpenMP threads

MPI task timing breakdown:
Section |  min time  |  avg time  |  max time  |%varavg| %total
---------------------------------------------------------------
Pair    | 46.115     | 46.115     | 46.115     |   0.0 | 55.60
Neigh   | 35.483     | 35.483     | 35.483     |   0.0 | 42.78
Comm    | 0.52092    | 0.52092    | 0.52092    |   0.0 |  0.63
Output  | 0.00016809 | 0.00016809 | 0.00016809 |   0.0 |  0.00
Modify  | 0.62967    | 0.62967    | 0.62967    |   0.0 |  0.76
Other   |            | 0.1892     |            |       |  0.23

Nlocal:    19652 ave 19652 max 19652 min
Histogram: 1 0 0 0 0 0 0 0 0 0
Nghost:    19977 ave 19977 max 19977 min
Histogram: 1 0 0 0 0 0 0 0 0 0
Neighs:    1.82879e+06 ave 1.82879e+06 max 1.82879e+06 min
Histogram: 1 0 0 0 0 0 0 0 0 0

Total # of neighbors = 1828791
Ave neighs/atom = 93.0588
Neighbor list builds = 495
Dangerous builds not checked
Setting up Verlet run ...
  Unit style    : metal
  Current step  : 66495
  Time step     : 0.001
Per MPI rank memory allocation (min/avg/max) = 18.96 | 18.96 | 18.96 Mbytes
Step Temp Press TotEng PotEng Enthalpy 
   66495    1766.6467    66.107785   -73665.048   -78152.492   -73655.127 
   68000    1752.6773    1005.8815   -73761.549   -78213.509   -73610.824 
Loop time of 228.342 on 1 procs for 1505 steps with 19652 atoms

Performance: 0.569 ns/day, 42.145 hours/ns, 6.591 timesteps/s
99.9% CPU use with 1 MPI tasks x no OpenMP threads

MPI task timing breakdown:
Section |  min time  |  avg time  |  max time  |%varavg| %total
---------------------------------------------------------------
Pair    | 125.29     | 125.29     | 125.29     |   0.0 | 54.87
Neigh   | 99.254     | 99.254     | 99.254     |   0.0 | 43.47
Comm    | 1.4141     | 1.4141     | 1.4141     |   0.0 |  0.62
Output  | 0.13988    | 0.13988    | 0.13988    |   0.0 |  0.06
Modify  | 1.7121     | 1.7121     | 1.7121     |   0.0 |  0.75
Other   |            | 0.5295     |            |       |  0.23

Nlocal:    19652 ave 19652 max 19652 min
Histogram: 1 0 0 0 0 0 0 0 0 0
Nghost:    20063 ave 20063 max 20063 min
Histogram: 1 0 0 0 0 0 0 0 0 0
Neighs:    1.83143e+06 ave 1.83143e+06 max 1.83143e+06 min
Histogram: 1 0 0 0 0 0 0 0 0 0

Total # of neighbors = 1831431
Ave neighs/atom = 93.1931
Neighbor list builds = 1505
Dangerous builds not checked
Setting up Verlet run ...
  Unit style    : metal
  Current step  : 68000
  Time step     : 0.001
Per MPI rank memory allocation (min/avg/max) = 18.96 | 18.96 | 18.96 Mbytes
Step Temp Press TotEng PotEng Enthalpy 
   68000    1752.6773    1005.8815   -73761.549   -78213.509   -73610.824 
   68495    1710.5321    302.46606    -73977.16   -78322.068   -73931.886 
Loop time of 72.2687 on 1 procs for 495 steps with 19652 atoms

Performance: 0.592 ns/day, 40.555 hours/ns, 6.849 timesteps/s
99.5% CPU use with 1 MPI tasks x no OpenMP threads

MPI task timing breakdown:
Section |  min time  |  avg time  |  max time  |%varavg| %total
---------------------------------------------------------------
Pair    | 39.629     | 39.629     | 39.629     |   0.0 | 54.84
Neigh   | 31.471     | 31.471     | 31.471     |   0.0 | 43.55
Comm    | 0.45408    | 0.45408    | 0.45408    |   0.0 |  0.63
Output  | 0.00017619 | 0.00017619 | 0.00017619 |   0.0 |  0.00
Modify  | 0.53976    | 0.53976    | 0.53976    |   0.0 |  0.75
Other   |            | 0.1748     |            |       |  0.24

Nlocal:    19652 ave 19652 max 19652 min
Histogram: 1 0 0 0 0 0 0 0 0 0
Nghost:    20092 ave 20092 max 20092 min
Histogram: 1 0 0 0 0 0 0 0 0 0
Neighs:    1.83335e+06 ave 1.83335e+06 max 1.83335e+06 min
Histogram: 1 0 0 0 0 0 0 0 0 0

Total # of neighbors = 1833348
Ave neighs/atom = 93.2907
Neighbor list builds = 495
Dangerous builds not checked
Setting up Verlet run ...
  Unit style    : metal
  Current step  : 68495
  Time step     : 0.001
Per MPI rank memory allocation (min/avg/max) = 18.96 | 18.96 | 18.96 Mbytes
Step Temp Press TotEng PotEng Enthalpy 
   68495    1710.5321    302.46606    -73977.16   -78322.068   -73931.886 
   70000    1707.4951    2399.8866   -74089.101   -78426.294   -73730.857 
Loop time of 235.858 on 1 procs for 1505 steps with 19652 atoms

Performance: 0.551 ns/day, 43.532 hours/ns, 6.381 timesteps/s
99.9% CPU use with 1 MPI tasks x no OpenMP threads

MPI task timing breakdown:
Section |  min time  |  avg time  |  max time  |%varavg| %total
---------------------------------------------------------------
Pair    | 130.7      | 130.7      | 130.7      |   0.0 | 55.41
Neigh   | 101.27     | 101.27     | 101.27     |   0.0 | 42.94
Comm    | 1.5068     | 1.5068     | 1.5068     |   0.0 |  0.64
Output  | 0.061682   | 0.061682   | 0.061682   |   0.0 |  0.03
Modify  | 1.78       | 1.78       | 1.78       |   0.0 |  0.75
Other   |            | 0.5348     |            |       |  0.23

Nlocal:    19652 ave 19652 max 19652 min
Histogram: 1 0 0 0 0 0 0 0 0 0
Nghost:    20031 ave 20031 max 20031 min
Histogram: 1 0 0 0 0 0 0 0 0 0
Neighs:    1.83778e+06 ave 1.83778e+06 max 1.83778e+06 min
Histogram: 1 0 0 0 0 0 0 0 0 0

Total # of neighbors = 1837776
Ave neighs/atom = 93.516
Neighbor list builds = 1505
Dangerous builds not checked
Setting up Verlet run ...
  Unit style    : metal
  Current step  : 70000
  Time step     : 0.001
Per MPI rank memory allocation (min/avg/max) = 18.96 | 18.96 | 18.96 Mbytes
Step Temp Press TotEng PotEng Enthalpy 
   70000    1707.4951    2399.8866   -74089.101   -78426.294   -73730.857 
   70495    1660.1457   -395.55853   -74323.806   -78540.727   -74382.824 
Loop time of 80.55 on 1 procs for 495 steps with 19652 atoms

Performance: 0.531 ns/day, 45.202 hours/ns, 6.145 timesteps/s
99.7% CPU use with 1 MPI tasks x no OpenMP threads

MPI task timing breakdown:
Section |  min time  |  avg time  |  max time  |%varavg| %total
---------------------------------------------------------------
Pair    | 44.638     | 44.638     | 44.638     |   0.0 | 55.42
Neigh   | 34.606     | 34.606     | 34.606     |   0.0 | 42.96
Comm    | 0.50177    | 0.50177    | 0.50177    |   0.0 |  0.62
Output  | 0.00018311 | 0.00018311 | 0.00018311 |   0.0 |  0.00
Modify  | 0.61963    | 0.61963    | 0.61963    |   0.0 |  0.77
Other   |            | 0.1845     |            |       |  0.23

Nlocal:    19652 ave 19652 max 19652 min
Histogram: 1 0 0 0 0 0 0 0 0 0
Nghost:    20084 ave 20084 max 20084 min
Histogram: 1 0 0 0 0 0 0 0 0 0
Neighs:    1.83823e+06 ave 1.83823e+06 max 1.83823e+06 min
Histogram: 1 0 0 0 0 0 0 0 0 0

Total # of neighbors = 1838227
Ave neighs/atom = 93.5389
Neighbor list builds = 495
Dangerous builds not checked
Setting up Verlet run ...
  Unit style    : metal
  Current step  : 70495
  Time step     : 0.001
Per MPI rank memory allocation (min/avg/max) = 18.96 | 18.96 | 18.96 Mbytes
Step Temp Press TotEng PotEng Enthalpy 
   70495    1660.1457   -395.55853   -74323.806   -78540.727   -74382.824 
   72000    1658.2383   -1018.7829   -74452.346   -78664.422   -74604.132 
Loop time of 259.624 on 1 procs for 1505 steps with 19652 atoms

Performance: 0.501 ns/day, 47.919 hours/ns, 5.797 timesteps/s
99.1% CPU use with 1 MPI tasks x no OpenMP threads

MPI task timing breakdown:
Section |  min time  |  avg time  |  max time  |%varavg| %total
---------------------------------------------------------------
Pair    | 143.49     | 143.49     | 143.49     |   0.0 | 55.27
Neigh   | 111.85     | 111.85     | 111.85     |   0.0 | 43.08
Comm    | 1.6239     | 1.6239     | 1.6239     |   0.0 |  0.63
Output  | 0.088447   | 0.088447   | 0.088447   |   0.0 |  0.03
Modify  | 2.0091     | 2.0091     | 2.0091     |   0.0 |  0.77
Other   |            | 0.5626     |            |       |  0.22

Nlocal:    19652 ave 19652 max 19652 min
Histogram: 1 0 0 0 0 0 0 0 0 0
Nghost:    20078 ave 20078 max 20078 min
Histogram: 1 0 0 0 0 0 0 0 0 0
Neighs:    1.84085e+06 ave 1.84085e+06 max 1.84085e+06 min
Histogram: 1 0 0 0 0 0 0 0 0 0

Total # of neighbors = 1840854
Ave neighs/atom = 93.6726
Neighbor list builds = 1505
Dangerous builds not checked
Setting up Verlet run ...
  Unit style    : metal
  Current step  : 72000
  Time step     : 0.001
Per MPI rank memory allocation (min/avg/max) = 18.96 | 18.96 | 18.96 Mbytes
Step Temp Press TotEng PotEng Enthalpy 
   72000    1658.2383   -1018.7829   -74452.346   -78664.422   -74604.132 
   72495    1626.4862   -516.70632   -74671.959   -78803.382   -74748.768 
Loop time of 78.1018 on 1 procs for 495 steps with 19652 atoms

Performance: 0.548 ns/day, 43.828 hours/ns, 6.338 timesteps/s
99.5% CPU use with 1 MPI tasks x no OpenMP threads

MPI task timing breakdown:
Section |  min time  |  avg time  |  max time  |%varavg| %total
---------------------------------------------------------------
Pair    | 42.763     | 42.763     | 42.763     |   0.0 | 54.75
Neigh   | 34.082     | 34.082     | 34.082     |   0.0 | 43.64
Comm    | 0.48999    | 0.48999    | 0.48999    |   0.0 |  0.63
Output  | 0.00011611 | 0.00011611 | 0.00011611 |   0.0 |  0.00
Modify  | 0.59835    | 0.59835    | 0.59835    |   0.0 |  0.77
Other   |            | 0.1687     |            |       |  0.22

Nlocal:    19652 ave 19652 max 19652 min
Histogram: 1 0 0 0 0 0 0 0 0 0
Nghost:    20150 ave 20150 max 20150 min
Histogram: 1 0 0 0 0 0 0 0 0 0
Neighs:    1.84483e+06 ave 1.84483e+06 max 1.84483e+06 min
Histogram: 1 0 0 0 0 0 0 0 0 0

Total # of neighbors = 1844833
Ave neighs/atom = 93.8751
Neighbor list builds = 495
Dangerous builds not checked
Setting up Verlet run ...
  Unit style    : metal
  Current step  : 72495
  Time step     : 0.001
Per MPI rank memory allocation (min/avg/max) = 18.96 | 18.96 | 18.96 Mbytes
Step Temp Press TotEng PotEng Enthalpy 
   72495    1626.4862   -516.70632   -74671.959   -78803.382   -74748.768 
   74000    1607.2594   -242.33848   -74823.357   -78905.943   -74859.312 
Loop time of 230.409 on 1 procs for 1505 steps with 19652 atoms

Performance: 0.564 ns/day, 42.527 hours/ns, 6.532 timesteps/s
99.9% CPU use with 1 MPI tasks x no OpenMP threads

MPI task timing breakdown:
Section |  min time  |  avg time  |  max time  |%varavg| %total
---------------------------------------------------------------
Pair    | 127.12     | 127.12     | 127.12     |   0.0 | 55.17
Neigh   | 99.511     | 99.511     | 99.511     |   0.0 | 43.19
Comm    | 1.4369     | 1.4369     | 1.4369     |   0.0 |  0.62
Output  | 0.07606    | 0.07606    | 0.07606    |   0.0 |  0.03
Modify  | 1.7468     | 1.7468     | 1.7468     |   0.0 |  0.76
Other   |            | 0.5189     |            |       |  0.23

Nlocal:    19652 ave 19652 max 19652 min
Histogram: 1 0 0 0 0 0 0 0 0 0
Nghost:    20130 ave 20130 max 20130 min
Histogram: 1 0 0 0 0 0 0 0 0 0
Neighs:    1.84788e+06 ave 1.84788e+06 max 1.84788e+06 min
Histogram: 1 0 0 0 0 0 0 0 0 0

Total # of neighbors = 1847878
Ave neighs/atom = 94.03
Neighbor list builds = 1505
Dangerous builds not checked
Setting up Verlet run ...
  Unit style    : metal
  Current step  : 74000
  Time step     : 0.001
Per MPI rank memory allocation (min/avg/max) = 18.96 | 18.96 | 18.96 Mbytes
Step Temp Press TotEng PotEng Enthalpy 
   74000    1607.2594   -242.33848   -74823.357   -78905.943   -74859.312 
   74495    1551.8268   -1102.9518   -75053.149   -78994.931   -75216.679 
Loop time of 72.0132 on 1 procs for 495 steps with 19652 atoms

Performance: 0.594 ns/day, 40.411 hours/ns, 6.874 timesteps/s
100.0% CPU use with 1 MPI tasks x no OpenMP threads

MPI task timing breakdown:
Section |  min time  |  avg time  |  max time  |%varavg| %total
---------------------------------------------------------------
Pair    | 39.835     | 39.835     | 39.835     |   0.0 | 55.32
Neigh   | 31.009     | 31.009     | 31.009     |   0.0 | 43.06
Comm    | 0.45263    | 0.45263    | 0.45263    |   0.0 |  0.63
Output  | 0.00015092 | 0.00015092 | 0.00015092 |   0.0 |  0.00
Modify  | 0.54609    | 0.54609    | 0.54609    |   0.0 |  0.76
Other   |            | 0.1711     |            |       |  0.24

Nlocal:    19652 ave 19652 max 19652 min
Histogram: 1 0 0 0 0 0 0 0 0 0
Nghost:    20146 ave 20146 max 20146 min
Histogram: 1 0 0 0 0 0 0 0 0 0
Neighs:    1.84851e+06 ave 1.84851e+06 max 1.84851e+06 min
Histogram: 1 0 0 0 0 0 0 0 0 0

Total # of neighbors = 1848513
Ave neighs/atom = 94.0623
Neighbor list builds = 495
Dangerous builds not checked
Setting up Verlet run ...
  Unit style    : metal
  Current step  : 74495
  Time step     : 0.001
Per MPI rank memory allocation (min/avg/max) = 18.96 | 18.96 | 18.96 Mbytes
Step Temp Press TotEng PotEng Enthalpy 
   74495    1551.8268   -1102.9518   -75053.149   -78994.931   -75216.679 
   76000    1535.3987    -3397.331   -75176.042   -79076.095   -75679.764 
Loop time of 224.988 on 1 procs for 1505 steps with 19652 atoms

Performance: 0.578 ns/day, 41.526 hours/ns, 6.689 timesteps/s
99.4% CPU use with 1 MPI tasks x no OpenMP threads

MPI task timing breakdown:
Section |  min time  |  avg time  |  max time  |%varavg| %total
---------------------------------------------------------------
Pair    | 124.03     | 124.03     | 124.03     |   0.0 | 55.13
Neigh   | 97.277     | 97.277     | 97.277     |   0.0 | 43.24
Comm    | 1.3835     | 1.3835     | 1.3835     |   0.0 |  0.61
Output  | 0.06347    | 0.06347    | 0.06347    |   0.0 |  0.03
Modify  | 1.7098     | 1.7098     | 1.7098     |   0.0 |  0.76
Other   |            | 0.5269     |            |       |  0.23

Nlocal:    19652 ave 19652 max 19652 min
Histogram: 1 0 0 0 0 0 0 0 0 0
Nghost:    20067 ave 20067 max 20067 min
Histogram: 1 0 0 0 0 0 0 0 0 0
Neighs:    1.84867e+06 ave 1.84867e+06 max 1.84867e+06 min
Histogram: 1 0 0 0 0 0 0 0 0 0

Total # of neighbors = 1848666
Ave neighs/atom = 94.0701
Neighbor list builds = 1505
Dangerous builds not checked
Setting up Verlet run ...
  Unit style    : metal
  Current step  : 76000
  Time step     : 0.001
Per MPI rank memory allocation (min/avg/max) = 18.96 | 18.96 | 18.96 Mbytes
Step Temp Press TotEng PotEng Enthalpy 
   76000    1535.3987    -3397.331   -75176.042   -79076.095   -75679.764 
   76495    1519.5893    1525.5667   -75371.926   -79231.822   -75146.858 
Loop time of 73.7643 on 1 procs for 495 steps with 19652 atoms

Performance: 0.580 ns/day, 41.394 hours/ns, 6.711 timesteps/s
98.7% CPU use with 1 MPI tasks x no OpenMP threads

MPI task timing breakdown:
Section |  min time  |  avg time  |  max time  |%varavg| %total
---------------------------------------------------------------
Pair    | 40.563     | 40.563     | 40.563     |   0.0 | 54.99
Neigh   | 32.026     | 32.026     | 32.026     |   0.0 | 43.42
Comm    | 0.44585    | 0.44585    | 0.44585    |   0.0 |  0.60
Output  | 0.00013208 | 0.00013208 | 0.00013208 |   0.0 |  0.00
Modify  | 0.55778    | 0.55778    | 0.55778    |   0.0 |  0.76
Other   |            | 0.1712     |            |       |  0.23

Nlocal:    19652 ave 19652 max 19652 min
Histogram: 1 0 0 0 0 0 0 0 0 0
Nghost:    20144 ave 20144 max 20144 min
Histogram: 1 0 0 0 0 0 0 0 0 0
Neighs:    1.85762e+06 ave 1.85762e+06 max 1.85762e+06 min
Histogram: 1 0 0 0 0 0 0 0 0 0

Total # of neighbors = 1857623
Ave neighs/atom = 94.5259
Neighbor list builds = 495
Dangerous builds not checked
Setting up Verlet run ...
  Unit style    : metal
  Current step  : 76495
  Time step     : 0.001
Per MPI rank memory allocation (min/avg/max) = 18.96 | 18.96 | 18.96 Mbytes
Step Temp Press TotEng PotEng Enthalpy 
   76495    1519.5893    1525.5667   -75371.926   -79231.822   -75146.858 
   78000    1508.8139   -202.43874   -75461.379   -79293.904   -75491.249 
Loop time of 267.273 on 1 procs for 1505 steps with 19652 atoms

Performance: 0.487 ns/day, 49.331 hours/ns, 5.631 timesteps/s
99.5% CPU use with 1 MPI tasks x no OpenMP threads

MPI task timing breakdown:
Section |  min time  |  avg time  |  max time  |%varavg| %total
---------------------------------------------------------------
Pair    | 149.62     | 149.62     | 149.62     |   0.0 | 55.98
Neigh   | 113.18     | 113.18     | 113.18     |   0.0 | 42.35
Comm    | 1.6567     | 1.6567     | 1.6567     |   0.0 |  0.62
Output  | 0.15803    | 0.15803    | 0.15803    |   0.0 |  0.06
Modify  | 2.0519     | 2.0519     | 2.0519     |   0.0 |  0.77
Other   |            | 0.61       |            |       |  0.23

Nlocal:    19652 ave 19652 max 19652 min
Histogram: 1 0 0 0 0 0 0 0 0 0
Nghost:    20150 ave 20150 max 20150 min
Histogram: 1 0 0 0 0 0 0 0 0 0
Neighs:    1.85721e+06 ave 1.85721e+06 max 1.85721e+06 min
Histogram: 1 0 0 0 0 0 0 0 0 0

Total # of neighbors = 1857213
Ave neighs/atom = 94.505
Neighbor list builds = 1505
Dangerous builds not checked
Setting up Verlet run ...
  Unit style    : metal
  Current step  : 78000
  Time step     : 0.001
Per MPI rank memory allocation (min/avg/max) = 18.96 | 18.96 | 18.96 Mbytes
Step Temp Press TotEng PotEng Enthalpy 
   78000    1508.8139   -202.43874   -75461.379   -79293.904   -75491.249 
   78495    1470.9044   -965.60451   -75742.877   -79479.108   -75885.033 
Loop time of 78.8543 on 1 procs for 495 steps with 19652 atoms

Performance: 0.542 ns/day, 44.250 hours/ns, 6.277 timesteps/s
99.5% CPU use with 1 MPI tasks x no OpenMP threads

MPI task timing breakdown:
Section |  min time  |  avg time  |  max time  |%varavg| %total
---------------------------------------------------------------
Pair    | 43.733     | 43.733     | 43.733     |   0.0 | 55.46
Neigh   | 33.844     | 33.844     | 33.844     |   0.0 | 42.92
Comm    | 0.48165    | 0.48165    | 0.48165    |   0.0 |  0.61
Output  | 0.00016403 | 0.00016403 | 0.00016403 |   0.0 |  0.00
Modify  | 0.61212    | 0.61212    | 0.61212    |   0.0 |  0.78
Other   |            | 0.1835     |            |       |  0.23

Nlocal:    19652 ave 19652 max 19652 min
Histogram: 1 0 0 0 0 0 0 0 0 0
Nghost:    20163 ave 20163 max 20163 min
Histogram: 1 0 0 0 0 0 0 0 0 0
Neighs:    1.86057e+06 ave 1.86057e+06 max 1.86057e+06 min
Histogram: 1 0 0 0 0 0 0 0 0 0

Total # of neighbors = 1860572
Ave neighs/atom = 94.676
Neighbor list builds = 495
Dangerous builds not checked
Setting up Verlet run ...
  Unit style    : metal
  Current step  : 78495
  Time step     : 0.001
Per MPI rank memory allocation (min/avg/max) = 18.96 | 18.96 | 18.96 Mbytes
Step Temp Press TotEng PotEng Enthalpy 
   78495    1470.9044   -965.60451   -75742.877   -79479.108   -75885.033 
   80000    1458.2007   -536.98589     -75866.2   -79570.162   -75945.136 
Loop time of 251.809 on 1 procs for 1505 steps with 19652 atoms

Performance: 0.516 ns/day, 46.476 hours/ns, 5.977 timesteps/s
99.6% CPU use with 1 MPI tasks x no OpenMP threads

MPI task timing breakdown:
Section |  min time  |  avg time  |  max time  |%varavg| %total
---------------------------------------------------------------
Pair    | 140.13     | 140.13     | 140.13     |   0.0 | 55.65
Neigh   | 107.59     | 107.59     | 107.59     |   0.0 | 42.73
Comm    | 1.5444     | 1.5444     | 1.5444     |   0.0 |  0.61
Output  | 0.077098   | 0.077098   | 0.077098   |   0.0 |  0.03
Modify  | 1.887      | 1.887      | 1.887      |   0.0 |  0.75
Other   |            | 0.5808     |            |       |  0.23

Nlocal:    19652 ave 19652 max 19652 min
Histogram: 1 0 0 0 0 0 0 0 0 0
Nghost:    20186 ave 20186 max 20186 min
Histogram: 1 0 0 0 0 0 0 0 0 0
Neighs:    1.86254e+06 ave 1.86254e+06 max 1.86254e+06 min
Histogram: 1 0 0 0 0 0 0 0 0 0

Total # of neighbors = 1862543
Ave neighs/atom = 94.7763
Neighbor list builds = 1505
Dangerous builds not checked
Setting up Verlet run ...
  Unit style    : metal
  Current step  : 80000
  Time step     : 0.001
Per MPI rank memory allocation (min/avg/max) = 18.96 | 18.96 | 18.96 Mbytes
Step Temp Press TotEng PotEng Enthalpy 
   80000    1458.2007   -536.98589     -75866.2   -79570.162   -75945.136 
   80495    1405.0264    1.8785408   -76064.207   -79633.102   -76063.931 
Loop time of 82.3395 on 1 procs for 495 steps with 19652 atoms

Performance: 0.519 ns/day, 46.206 hours/ns, 6.012 timesteps/s
99.7% CPU use with 1 MPI tasks x no OpenMP threads

MPI task timing breakdown:
Section |  min time  |  avg time  |  max time  |%varavg| %total
---------------------------------------------------------------
Pair    | 45.652     | 45.652     | 45.652     |   0.0 | 55.44
Neigh   | 35.345     | 35.345     | 35.345     |   0.0 | 42.93
Comm    | 0.51454    | 0.51454    | 0.51454    |   0.0 |  0.62
Output  | 0.00015402 | 0.00015402 | 0.00015402 |   0.0 |  0.00
Modify  | 0.63322    | 0.63322    | 0.63322    |   0.0 |  0.77
Other   |            | 0.1945     |            |       |  0.24

Nlocal:    19652 ave 19652 max 19652 min
Histogram: 1 0 0 0 0 0 0 0 0 0
Nghost:    20125 ave 20125 max 20125 min
Histogram: 1 0 0 0 0 0 0 0 0 0
Neighs:    1.86602e+06 ave 1.86602e+06 max 1.86602e+06 min
Histogram: 1 0 0 0 0 0 0 0 0 0

Total # of neighbors = 1866019
Ave neighs/atom = 94.9531
Neighbor list builds = 495
Dangerous builds not checked
Setting up Verlet run ...
  Unit style    : metal
  Current step  : 80495
  Time step     : 0.001
Per MPI rank memory allocation (min/avg/max) = 18.96 | 18.96 | 18.96 Mbytes
Step Temp Press TotEng PotEng Enthalpy 
   80495    1405.0264    1.8785408   -76064.207   -79633.102   -76063.931 
   82000    1388.3313   -447.19694   -76302.611   -79829.099   -76368.067 
Loop time of 248.531 on 1 procs for 1505 steps with 19652 atoms

Performance: 0.523 ns/day, 45.871 hours/ns, 6.056 timesteps/s
99.8% CPU use with 1 MPI tasks x no OpenMP threads

MPI task timing breakdown:
Section |  min time  |  avg time  |  max time  |%varavg| %total
---------------------------------------------------------------
Pair    | 138.07     | 138.07     | 138.07     |   0.0 | 55.56
Neigh   | 106.4      | 106.4      | 106.4      |   0.0 | 42.81
Comm    | 1.5047     | 1.5047     | 1.5047     |   0.0 |  0.61
Output  | 0.10686    | 0.10686    | 0.10686    |   0.0 |  0.04
Modify  | 1.8728     | 1.8728     | 1.8728     |   0.0 |  0.75
Other   |            | 0.5782     |            |       |  0.23

Nlocal:    19652 ave 19652 max 19652 min
Histogram: 1 0 0 0 0 0 0 0 0 0
Nghost:    20195 ave 20195 max 20195 min
Histogram: 1 0 0 0 0 0 0 0 0 0
Neighs:    1.87007e+06 ave 1.87007e+06 max 1.87007e+06 min
Histogram: 1 0 0 0 0 0 0 0 0 0

Total # of neighbors = 1870070
Ave neighs/atom = 95.1593
Neighbor list builds = 1505
Dangerous builds not checked
Setting up Verlet run ...
  Unit style    : metal
  Current step  : 82000
  Time step     : 0.001
Per MPI rank memory allocation (min/avg/max) = 18.96 | 18.96 | 18.96 Mbytes
Step Temp Press TotEng PotEng Enthalpy 
   82000    1388.3313   -447.19694   -76302.611   -79829.099   -76368.067 
   82495    1361.1911    798.79283    -76470.73   -79928.279   -76354.042 
Loop time of 81.1941 on 1 procs for 495 steps with 19652 atoms

Performance: 0.527 ns/day, 45.563 hours/ns, 6.097 timesteps/s
99.9% CPU use with 1 MPI tasks x no OpenMP threads

MPI task timing breakdown:
Section |  min time  |  avg time  |  max time  |%varavg| %total
---------------------------------------------------------------
Pair    | 45.178     | 45.178     | 45.178     |   0.0 | 55.64
Neigh   | 34.71      | 34.71      | 34.71      |   0.0 | 42.75
Comm    | 0.49464    | 0.49464    | 0.49464    |   0.0 |  0.61
Output  | 0.00017691 | 0.00017691 | 0.00017691 |   0.0 |  0.00
Modify  | 0.6161     | 0.6161     | 0.6161     |   0.0 |  0.76
Other   |            | 0.1956     |            |       |  0.24

Nlocal:    19652 ave 19652 max 19652 min
Histogram: 1 0 0 0 0 0 0 0 0 0
Nghost:    20239 ave 20239 max 20239 min
Histogram: 1 0 0 0 0 0 0 0 0 0
Neighs:    1.87399e+06 ave 1.87399e+06 max 1.87399e+06 min
Histogram: 1 0 0 0 0 0 0 0 0 0

Total # of neighbors = 1873993
Ave neighs/atom = 95.3589
Neighbor list builds = 495
Dangerous builds not checked
Setting up Verlet run ...
  Unit style    : metal
  Current step  : 82495
  Time step     : 0.001
Per MPI rank memory allocation (min/avg/max) = 18.96 | 18.96 | 18.96 Mbytes
Step Temp Press TotEng PotEng Enthalpy 
   82495    1361.1911    798.79283    -76470.73   -79928.279   -76354.042 
   84000    1349.1544   -1436.7766   -76563.531   -79990.506    -76773.44 
Loop time of 247.96 on 1 procs for 1505 steps with 19652 atoms

Performance: 0.524 ns/day, 45.766 hours/ns, 6.070 timesteps/s
99.4% CPU use with 1 MPI tasks x no OpenMP threads

MPI task timing breakdown:
Section |  min time  |  avg time  |  max time  |%varavg| %total
---------------------------------------------------------------
Pair    | 137.14     | 137.14     | 137.14     |   0.0 | 55.31
Neigh   | 105.51     | 105.51     | 105.51     |   0.0 | 42.55
Comm    | 1.4913     | 1.4913     | 1.4913     |   0.0 |  0.60
Output  | 1.3756     | 1.3756     | 1.3756     |   0.0 |  0.55
Modify  | 1.858      | 1.858      | 1.858      |   0.0 |  0.75
Other   |            | 0.5853     |            |       |  0.24

Nlocal:    19652 ave 19652 max 19652 min
Histogram: 1 0 0 0 0 0 0 0 0 0
Nghost:    20248 ave 20248 max 20248 min
Histogram: 1 0 0 0 0 0 0 0 0 0
Neighs:    1.87274e+06 ave 1.87274e+06 max 1.87274e+06 min
Histogram: 1 0 0 0 0 0 0 0 0 0

Total # of neighbors = 1872738
Ave neighs/atom = 95.295
Neighbor list builds = 1505
Dangerous builds not checked
Setting up Verlet run ...
  Unit style    : metal
  Current step  : 84000
  Time step     : 0.001
Per MPI rank memory allocation (min/avg/max) = 18.96 | 18.96 | 18.96 Mbytes
Step Temp Press TotEng PotEng Enthalpy 
   84000    1349.1544   -1436.7766   -76563.531   -79990.506    -76773.44 
   84495    1315.6704     569.0019   -76788.485   -80130.408   -76705.606 
Loop time of 85.268 on 1 procs for 495 steps with 19652 atoms

Performance: 0.502 ns/day, 47.850 hours/ns, 5.805 timesteps/s
99.0% CPU use with 1 MPI tasks x no OpenMP threads

MPI task timing breakdown:
Section |  min time  |  avg time  |  max time  |%varavg| %total
---------------------------------------------------------------
Pair    | 47.61      | 47.61      | 47.61      |   0.0 | 55.84
Neigh   | 36.3       | 36.3       | 36.3       |   0.0 | 42.57
Comm    | 0.51423    | 0.51423    | 0.51423    |   0.0 |  0.60
Output  | 0.00010991 | 0.00010991 | 0.00010991 |   0.0 |  0.00
Modify  | 0.64084    | 0.64084    | 0.64084    |   0.0 |  0.75
Other   |            | 0.2025     |            |       |  0.24

Nlocal:    19652 ave 19652 max 19652 min
Histogram: 1 0 0 0 0 0 0 0 0 0
Nghost:    20242 ave 20242 max 20242 min
Histogram: 1 0 0 0 0 0 0 0 0 0
Neighs:    1.8787e+06 ave 1.8787e+06 max 1.8787e+06 min
Histogram: 1 0 0 0 0 0 0 0 0 0

Total # of neighbors = 1878697
Ave neighs/atom = 95.5983
Neighbor list builds = 495
Dangerous builds not checked
Setting up Verlet run ...
  Unit style    : metal
  Current step  : 84495
  Time step     : 0.001
Per MPI rank memory allocation (min/avg/max) = 18.96 | 18.96 | 18.96 Mbytes
Step Temp Press TotEng PotEng Enthalpy 
   84495    1315.6704     569.0019   -76788.485   -80130.408   -76705.606 
   86000    1296.4648   -586.71448   -76987.829   -80280.968   -77073.152 
Loop time of 269.596 on 1 procs for 1505 steps with 19652 atoms

Performance: 0.482 ns/day, 49.759 hours/ns, 5.582 timesteps/s
99.4% CPU use with 1 MPI tasks x no OpenMP threads

MPI task timing breakdown:
Section |  min time  |  avg time  |  max time  |%varavg| %total
---------------------------------------------------------------
Pair    | 151.15     | 151.15     | 151.15     |   0.0 | 56.07
Neigh   | 113.91     | 113.91     | 113.91     |   0.0 | 42.25
Comm    | 1.6762     | 1.6762     | 1.6762     |   0.0 |  0.62
Output  | 0.16434    | 0.16434    | 0.16434    |   0.0 |  0.06
Modify  | 2.0647     | 2.0647     | 2.0647     |   0.0 |  0.77
Other   |            | 0.6213     |            |       |  0.23

Nlocal:    19652 ave 19652 max 19652 min
Histogram: 1 0 0 0 0 0 0 0 0 0
Nghost:    20246 ave 20246 max 20246 min
Histogram: 1 0 0 0 0 0 0 0 0 0
Neighs:    1.8802e+06 ave 1.8802e+06 max 1.8802e+06 min
Histogram: 1 0 0 0 0 0 0 0 0 0

Total # of neighbors = 1880200
Ave neighs/atom = 95.6747
Neighbor list builds = 1505
Dangerous builds not checked
Setting up Verlet run ...
  Unit style    : metal
  Current step  : 86000
  Time step     : 0.001
Per MPI rank memory allocation (min/avg/max) = 18.96 | 18.96 | 18.96 Mbytes
Step Temp Press TotEng PotEng Enthalpy 
   86000    1296.4648   -586.71448   -76987.829   -80280.968   -77073.152 
   86495    1272.7794   -501.86264   -77176.243   -80409.219   -77249.093 
Loop time of 93.4499 on 1 procs for 495 steps with 19652 atoms

Performance: 0.458 ns/day, 52.441 hours/ns, 5.297 timesteps/s
99.1% CPU use with 1 MPI tasks x no OpenMP threads

MPI task timing breakdown:
Section |  min time  |  avg time  |  max time  |%varavg| %total
---------------------------------------------------------------
Pair    | 52.245     | 52.245     | 52.245     |   0.0 | 55.91
Neigh   | 39.637     | 39.637     | 39.637     |   0.0 | 42.41
Comm    | 0.63452    | 0.63452    | 0.63452    |   0.0 |  0.68
Output  | 0.00017095 | 0.00017095 | 0.00017095 |   0.0 |  0.00
Modify  | 0.72879    | 0.72879    | 0.72879    |   0.0 |  0.78
Other   |            | 0.2045     |            |       |  0.22

Nlocal:    19652 ave 19652 max 19652 min
Histogram: 1 0 0 0 0 0 0 0 0 0
Nghost:    20302 ave 20302 max 20302 min
Histogram: 1 0 0 0 0 0 0 0 0 0
Neighs:    1.88382e+06 ave 1.88382e+06 max 1.88382e+06 min
Histogram: 1 0 0 0 0 0 0 0 0 0

Total # of neighbors = 1883824
Ave neighs/atom = 95.8591
Neighbor list builds = 495
Dangerous builds not checked
Setting up Verlet run ...
  Unit style    : metal
  Current step  : 86495
  Time step     : 0.001
Per MPI rank memory allocation (min/avg/max) = 18.96 | 18.96 | 18.96 Mbytes
Step Temp Press TotEng PotEng Enthalpy 
   86495    1272.7794   -501.86264   -77176.243   -80409.219   -77249.093 
   88000    1247.8687   -2040.6621   -77321.718   -80491.418   -77617.825 
Loop time of 269.037 on 1 procs for 1505 steps with 19652 atoms

Performance: 0.483 ns/day, 49.656 hours/ns, 5.594 timesteps/s
99.0% CPU use with 1 MPI tasks x no OpenMP threads

MPI task timing breakdown:
Section |  min time  |  avg time  |  max time  |%varavg| %total
---------------------------------------------------------------
Pair    | 142.92     | 142.92     | 142.92     |   0.0 | 53.12
Neigh   | 121.64     | 121.64     | 121.64     |   0.0 | 45.21
Comm    | 1.6697     | 1.6697     | 1.6697     |   0.0 |  0.62
Output  | 0.27066    | 0.27066    | 0.27066    |   0.0 |  0.10
Modify  | 1.9947     | 1.9947     | 1.9947     |   0.0 |  0.74
Other   |            | 0.5481     |            |       |  0.20

Nlocal:    19652 ave 19652 max 19652 min
Histogram: 1 0 0 0 0 0 0 0 0 0
Nghost:    20272 ave 20272 max 20272 min
Histogram: 1 0 0 0 0 0 0 0 0 0
Neighs:    1.88376e+06 ave 1.88376e+06 max 1.88376e+06 min
Histogram: 1 0 0 0 0 0 0 0 0 0

Total # of neighbors = 1883764
Ave neighs/atom = 95.8561
Neighbor list builds = 1505
Dangerous builds not checked
Setting up Verlet run ...
  Unit style    : metal
  Current step  : 88000
  Time step     : 0.001
Per MPI rank memory allocation (min/avg/max) = 18.96 | 18.96 | 18.96 Mbytes
Step Temp Press TotEng PotEng Enthalpy 
   88000    1247.8687   -2040.6621   -77321.718   -80491.418   -77617.825 
   88495    1220.4951   -59.168325   -77518.494   -80618.663   -77527.053 
Loop time of 92.9804 on 1 procs for 495 steps with 19652 atoms

Performance: 0.460 ns/day, 52.178 hours/ns, 5.324 timesteps/s
99.6% CPU use with 1 MPI tasks x no OpenMP threads

MPI task timing breakdown:
Section |  min time  |  avg time  |  max time  |%varavg| %total
---------------------------------------------------------------
Pair    | 49.429     | 49.429     | 49.429     |   0.0 | 53.16
Neigh   | 42.097     | 42.097     | 42.097     |   0.0 | 45.27
Comm    | 0.55628    | 0.55628    | 0.55628    |   0.0 |  0.60
Output  | 0.00014997 | 0.00014997 | 0.00014997 |   0.0 |  0.00
Modify  | 0.6929     | 0.6929     | 0.6929     |   0.0 |  0.75
Other   |            | 0.2048     |            |       |  0.22

Nlocal:    19652 ave 19652 max 19652 min
Histogram: 1 0 0 0 0 0 0 0 0 0
Nghost:    20320 ave 20320 max 20320 min
Histogram: 1 0 0 0 0 0 0 0 0 0
Neighs:    1.8896e+06 ave 1.8896e+06 max 1.8896e+06 min
Histogram: 1 0 0 0 0 0 0 0 0 0

Total # of neighbors = 1889597
Ave neighs/atom = 96.1529
Neighbor list builds = 495
Dangerous builds not checked
Setting up Verlet run ...
  Unit style    : metal
  Current step  : 88495
  Time step     : 0.001
Per MPI rank memory allocation (min/avg/max) = 18.96 | 18.96 | 18.96 Mbytes
Step Temp Press TotEng PotEng Enthalpy 
   88495    1220.4951   -59.168325   -77518.494   -80618.663   -77527.053 
   90000    1194.2602    3184.3568     -77671.6    -80705.13    -77212.08 
Loop time of 280.271 on 1 procs for 1505 steps with 19652 atoms

Performance: 0.464 ns/day, 51.730 hours/ns, 5.370 timesteps/s
99.0% CPU use with 1 MPI tasks x no OpenMP threads

MPI task timing breakdown:
Section |  min time  |  avg time  |  max time  |%varavg| %total
---------------------------------------------------------------
Pair    | 148.88     | 148.88     | 148.88     |   0.0 | 53.12
Neigh   | 126.8      | 126.8      | 126.8      |   0.0 | 45.24
Comm    | 1.6584     | 1.6584     | 1.6584     |   0.0 |  0.59
Output  | 0.23086    | 0.23086    | 0.23086    |   0.0 |  0.08
Modify  | 2.0649     | 2.0649     | 2.0649     |   0.0 |  0.74
Other   |            | 0.6329     |            |       |  0.23

Nlocal:    19652 ave 19652 max 19652 min
Histogram: 1 0 0 0 0 0 0 0 0 0
Nghost:    20349 ave 20349 max 20349 min
Histogram: 1 0 0 0 0 0 0 0 0 0
Neighs:    1.89415e+06 ave 1.89415e+06 max 1.89415e+06 min
Histogram: 1 0 0 0 0 0 0 0 0 0

Total # of neighbors = 1894154
Ave neighs/atom = 96.3848
Neighbor list builds = 1505
Dangerous builds not checked
Setting up Verlet run ...
  Unit style    : metal
  Current step  : 90000
  Time step     : 0.001
Per MPI rank memory allocation (min/avg/max) = 18.96 | 18.96 | 18.96 Mbytes
Step Temp Press TotEng PotEng Enthalpy 
   90000    1194.2602    3184.3568     -77671.6    -80705.13    -77212.08 
   90495    1163.4421   -2190.3371   -77868.952   -80824.201   -78185.225 
Loop time of 93.9635 on 1 procs for 495 steps with 19652 atoms

Performance: 0.455 ns/day, 52.729 hours/ns, 5.268 timesteps/s
99.5% CPU use with 1 MPI tasks x no OpenMP threads

MPI task timing breakdown:
Section |  min time  |  avg time  |  max time  |%varavg| %total
---------------------------------------------------------------
Pair    | 50.584     | 50.584     | 50.584     |   0.0 | 53.83
Neigh   | 41.911     | 41.911     | 41.911     |   0.0 | 44.60
Comm    | 0.56828    | 0.56828    | 0.56828    |   0.0 |  0.60
Output  | 0.00012398 | 0.00012398 | 0.00012398 |   0.0 |  0.00
Modify  | 0.69181    | 0.69181    | 0.69181    |   0.0 |  0.74
Other   |            | 0.2081     |            |       |  0.22

Nlocal:    19652 ave 19652 max 19652 min
[...]
Setting up Verlet run ...
  Unit style    : metal
  Current step  : 120000
  Time step     : 0.001
Per MPI rank memory allocation (min/avg/max) = 19.34 | 19.34 | 19.34 Mbytes
Step Temp Press TotEng PotEng Enthalpy 
  120000    451.93475   -134.49064   -82440.353   -83588.308   -82459.012 
  120495    420.53613   -499.19239   -82608.536   -83676.736   -82677.718 
Loop time of 91.7609 on 1 procs for 495 steps with 19652 atoms

Performance: 0.466 ns/day, 51.493 hours/ns, 5.394 timesteps/s
98.4% CPU use with 1 MPI tasks x no OpenMP threads

MPI task timing breakdown:
Section |  min time  |  avg time  |  max time  |%varavg| %total
---------------------------------------------------------------
Pair    | 49.987     | 49.987     | 49.987     |   0.0 | 54.48
Neigh   | 40.362     | 40.362     | 40.362     |   0.0 | 43.99
Comm    | 0.52751    | 0.52751    | 0.52751    |   0.0 |  0.57
Output  | 0.00015712 | 0.00015712 | 0.00015712 |   0.0 |  0.00
Modify  | 0.67055    | 0.67055    | 0.67055    |   0.0 |  0.73
Other   |            | 0.2137     |            |       |  0.23

Nlocal:    19652 ave 19652 max 19652 min
Histogram: 1 0 0 0 0 0 0 0 0 0
Nghost:    20684 ave 20684 max 20684 min
Histogram: 1 0 0 0 0 0 0 0 0 0
Neighs:    1.96881e+06 ave 1.96881e+06 max 1.96881e+06 min
Histogram: 1 0 0 0 0 0 0 0 0 0

Total # of neighbors = 1968813
Ave neighs/atom = 100.184
Neighbor list builds = 495
Dangerous builds not checked
Setting up Verlet run ...
  Unit style    : metal
  Current step  : 120495
  Time step     : 0.001
Per MPI rank memory allocation (min/avg/max) = 19.34 | 19.34 | 19.34 Mbytes
Step Temp Press TotEng PotEng Enthalpy 
  120495    420.53613   -499.19239   -82608.536   -83676.736   -82677.718 
  122000    403.66885    1015.3726   -82711.343   -83736.699   -82570.848 
Loop time of 288.933 on 1 procs for 1505 steps with 19652 atoms

Performance: 0.450 ns/day, 53.328 hours/ns, 5.209 timesteps/s
98.9% CPU use with 1 MPI tasks x no OpenMP threads

MPI task timing breakdown:
Section |  min time  |  avg time  |  max time  |%varavg| %total
---------------------------------------------------------------
Pair    | 156.72     | 156.72     | 156.72     |   0.0 | 54.24
Neigh   | 127.6      | 127.6      | 127.6      |   0.0 | 44.16
Comm    | 1.7168     | 1.7168     | 1.7168     |   0.0 |  0.59
Output  | 0.09369    | 0.09369    | 0.09369    |   0.0 |  0.03
Modify  | 2.1234     | 2.1234     | 2.1234     |   0.0 |  0.73
Other   |            | 0.6839     |            |       |  0.24

Nlocal:    19652 ave 19652 max 19652 min
Histogram: 1 0 0 0 0 0 0 0 0 0
Nghost:    20685 ave 20685 max 20685 min
Histogram: 1 0 0 0 0 0 0 0 0 0
Neighs:    1.97273e+06 ave 1.97273e+06 max 1.97273e+06 min
Histogram: 1 0 0 0 0 0 0 0 0 0

Total # of neighbors = 1972734
Ave neighs/atom = 100.383
Neighbor list builds = 1505
Dangerous builds not checked
Setting up Verlet run ...
  Unit style    : metal
  Current step  : 122000
  Time step     : 0.001
Per MPI rank memory allocation (min/avg/max) = 19.34 | 19.34 | 19.34 Mbytes
Step Temp Press TotEng PotEng Enthalpy 
  122000    403.66885    1015.3726   -82711.343   -83736.699   -82570.848 
  122495    371.10505    498.27049   -82872.619    -83815.26   -82803.732 
Loop time of 101.43 on 1 procs for 495 steps with 19652 atoms

Performance: 0.422 ns/day, 56.919 hours/ns, 4.880 timesteps/s
99.9% CPU use with 1 MPI tasks x no OpenMP threads

MPI task timing breakdown:
Section |  min time  |  avg time  |  max time  |%varavg| %total
---------------------------------------------------------------
Pair    | 55.527     | 55.527     | 55.527     |   0.0 | 54.74
Neigh   | 44.32      | 44.32      | 44.32      |   0.0 | 43.70
Comm    | 0.6043     | 0.6043     | 0.6043     |   0.0 |  0.60
Output  | 0.00017619 | 0.00017619 | 0.00017619 |   0.0 |  0.00
Modify  | 0.7427     | 0.7427     | 0.7427     |   0.0 |  0.73
Other   |            | 0.2357     |            |       |  0.23

Nlocal:    19652 ave 19652 max 19652 min
Histogram: 1 0 0 0 0 0 0 0 0 0
Nghost:    20675 ave 20675 max 20675 min
Histogram: 1 0 0 0 0 0 0 0 0 0
Neighs:    1.97443e+06 ave 1.97443e+06 max 1.97443e+06 min
Histogram: 1 0 0 0 0 0 0 0 0 0

Total # of neighbors = 1974430
Ave neighs/atom = 100.47
Neighbor list builds = 495
Dangerous builds not checked
Setting up Verlet run ...
  Unit style    : metal
  Current step  : 122495
  Time step     : 0.001
Per MPI rank memory allocation (min/avg/max) = 19.34 | 19.34 | 19.34 Mbytes
Step Temp Press TotEng PotEng Enthalpy 
  122495    371.10505    498.27049   -82872.619    -83815.26   -82803.732 
  124000    350.68638   -4.5927097     -82985.7   -83876.476   -82986.335 
Loop time of 291.658 on 1 procs for 1505 steps with 19652 atoms

Performance: 0.446 ns/day, 53.831 hours/ns, 5.160 timesteps/s
99.7% CPU use with 1 MPI tasks x no OpenMP threads

MPI task timing breakdown:
Section |  min time  |  avg time  |  max time  |%varavg| %total
---------------------------------------------------------------
Pair    | 158.39     | 158.39     | 158.39     |   0.0 | 54.31
Neigh   | 128.63     | 128.63     | 128.63     |   0.0 | 44.10
Comm    | 1.733      | 1.733      | 1.733      |   0.0 |  0.59
Output  | 0.079661   | 0.079661   | 0.079661   |   0.0 |  0.03
Modify  | 2.1468     | 2.1468     | 2.1468     |   0.0 |  0.74
Other   |            | 0.68       |            |       |  0.23

Nlocal:    19652 ave 19652 max 19652 min
Histogram: 1 0 0 0 0 0 0 0 0 0
Nghost:    20729 ave 20729 max 20729 min
Histogram: 1 0 0 0 0 0 0 0 0 0
Neighs:    1.97582e+06 ave 1.97582e+06 max 1.97582e+06 min
Histogram: 1 0 0 0 0 0 0 0 0 0

Total # of neighbors = 1975815
Ave neighs/atom = 100.54
Neighbor list builds = 1505
Dangerous builds not checked
Setting up Verlet run ...
  Unit style    : metal
  Current step  : 124000
  Time step     : 0.001
Per MPI rank memory allocation (min/avg/max) = 19.34 | 19.34 | 19.34 Mbytes
Step Temp Press TotEng PotEng Enthalpy 
  124000    350.68638   -4.5927097     -82985.7   -83876.476   -82986.335 
  124495    320.86759    446.14881   -83139.339   -83954.372   -83077.779 
Loop time of 101.138 on 1 procs for 495 steps with 19652 atoms

Performance: 0.423 ns/day, 56.755 hours/ns, 4.894 timesteps/s
98.0% CPU use with 1 MPI tasks x no OpenMP threads

MPI task timing breakdown:
Section |  min time  |  avg time  |  max time  |%varavg| %total
---------------------------------------------------------------
Pair    | 55.76      | 55.76      | 55.76      |   0.0 | 55.13
Neigh   | 43.761     | 43.761     | 43.761     |   0.0 | 43.27
Comm    | 0.62838    | 0.62838    | 0.62838    |   0.0 |  0.62
Output  | 0.00017095 | 0.00017095 | 0.00017095 |   0.0 |  0.00
Modify  | 0.77661    | 0.77661    | 0.77661    |   0.0 |  0.77
Other   |            | 0.2121     |            |       |  0.21

Nlocal:    19652 ave 19652 max 19652 min
Histogram: 1 0 0 0 0 0 0 0 0 0
Nghost:    20698 ave 20698 max 20698 min
Histogram: 1 0 0 0 0 0 0 0 0 0
Neighs:    1.97835e+06 ave 1.97835e+06 max 1.97835e+06 min
Histogram: 1 0 0 0 0 0 0 0 0 0

Total # of neighbors = 1978346
Ave neighs/atom = 100.669
Neighbor list builds = 495
Dangerous builds not checked
Setting up Verlet run ...
  Unit style    : metal
  Current step  : 124495
  Time step     : 0.001
Per MPI rank memory allocation (min/avg/max) = 19.34 | 19.34 | 19.34 Mbytes
Step Temp Press TotEng PotEng Enthalpy 
  124495    320.86759    446.14881   -83139.339   -83954.372   -83077.779 
  126000    301.73116    727.31203    -83253.64   -84020.064   -83153.384 
Loop time of 296.606 on 1 procs for 1505 steps with 19652 atoms

Performance: 0.438 ns/day, 54.745 hours/ns, 5.074 timesteps/s
98.5% CPU use with 1 MPI tasks x no OpenMP threads

MPI task timing breakdown:
Section |  min time  |  avg time  |  max time  |%varavg| %total
---------------------------------------------------------------
Pair    | 161.27     | 161.27     | 161.27     |   0.0 | 54.37
Neigh   | 130.51     | 130.51     | 130.51     |   0.0 | 44.00
Comm    | 1.766      | 1.766      | 1.766      |   0.0 |  0.60
Output  | 0.19246    | 0.19246    | 0.19246    |   0.0 |  0.06
Modify  | 2.1822     | 2.1822     | 2.1822     |   0.0 |  0.74
Other   |            | 0.6841     |            |       |  0.23

Nlocal:    19652 ave 19652 max 19652 min
Histogram: 1 0 0 0 0 0 0 0 0 0
Nghost:    20672 ave 20672 max 20672 min
Histogram: 1 0 0 0 0 0 0 0 0 0
Neighs:    1.9807e+06 ave 1.9807e+06 max 1.9807e+06 min
Histogram: 1 0 0 0 0 0 0 0 0 0

Total # of neighbors = 1980697
Ave neighs/atom = 100.789
Neighbor list builds = 1505
Dangerous builds not checked
Setting up Verlet run ...
  Unit style    : metal
  Current step  : 126000
  Time step     : 0.001
Per MPI rank memory allocation (min/avg/max) = 19.34 | 19.34 | 19.34 Mbytes
Step Temp Press TotEng PotEng Enthalpy 
  126000    301.73116    727.31203    -83253.64   -84020.064   -83153.384 
  126495    273.50226   -220.09798   -83401.397   -84096.118    -83431.72 
Loop time of 98.7508 on 1 procs for 495 steps with 19652 atoms

Performance: 0.433 ns/day, 55.416 hours/ns, 5.013 timesteps/s
99.3% CPU use with 1 MPI tasks x no OpenMP threads

MPI task timing breakdown:
Section |  min time  |  avg time  |  max time  |%varavg| %total
---------------------------------------------------------------
Pair    | 53.857     | 53.857     | 53.857     |   0.0 | 54.54
Neigh   | 43.338     | 43.338     | 43.338     |   0.0 | 43.89
Comm    | 0.57726    | 0.57726    | 0.57726    |   0.0 |  0.58
Output  | 0.00017715 | 0.00017715 | 0.00017715 |   0.0 |  0.00
Modify  | 0.73965    | 0.73965    | 0.73965    |   0.0 |  0.75
Other   |            | 0.239      |            |       |  0.24

Nlocal:    19652 ave 19652 max 19652 min
Histogram: 1 0 0 0 0 0 0 0 0 0
Nghost:    20688 ave 20688 max 20688 min
Histogram: 1 0 0 0 0 0 0 0 0 0
Neighs:    1.9822e+06 ave 1.9822e+06 max 1.9822e+06 min
Histogram: 1 0 0 0 0 0 0 0 0 0

Total # of neighbors = 1982202
Ave neighs/atom = 100.865
Neighbor list builds = 495
Dangerous builds not checked
Setting up Verlet run ...
  Unit style    : metal
  Current step  : 126495
  Time step     : 0.001
Per MPI rank memory allocation (min/avg/max) = 19.34 | 19.34 | 19.34 Mbytes
Step Temp Press TotEng PotEng Enthalpy 
  126495    273.50226   -220.09798   -83401.397   -84096.118    -83431.72 
  128000    251.45563   -108.10882   -83524.702   -84163.422   -83539.581 
Loop time of 308.807 on 1 procs for 1505 steps with 19652 atoms

Performance: 0.421 ns/day, 56.997 hours/ns, 4.874 timesteps/s
97.1% CPU use with 1 MPI tasks x no OpenMP threads

MPI task timing breakdown:
Section |  min time  |  avg time  |  max time  |%varavg| %total
---------------------------------------------------------------
Pair    | 168.17     | 168.17     | 168.17     |   0.0 | 54.46
Neigh   | 135.59     | 135.59     | 135.59     |   0.0 | 43.91
Comm    | 1.8201     | 1.8201     | 1.8201     |   0.0 |  0.59
Output  | 0.22142    | 0.22142    | 0.22142    |   0.0 |  0.07
Modify  | 2.2823     | 2.2823     | 2.2823     |   0.0 |  0.74
Other   |            | 0.7186     |            |       |  0.23

Nlocal:    19652 ave 19652 max 19652 min
Histogram: 1 0 0 0 0 0 0 0 0 0
Nghost:    20714 ave 20714 max 20714 min
Histogram: 1 0 0 0 0 0 0 0 0 0
Neighs:    1.98458e+06 ave 1.98458e+06 max 1.98458e+06 min
Histogram: 1 0 0 0 0 0 0 0 0 0

Total # of neighbors = 1984578
Ave neighs/atom = 100.986
Neighbor list builds = 1505
Dangerous builds not checked
Setting up Verlet run ...
  Unit style    : metal
  Current step  : 128000
  Time step     : 0.001
Per MPI rank memory allocation (min/avg/max) = 19.34 | 19.34 | 19.34 Mbytes
Step Temp Press TotEng PotEng Enthalpy 
  128000    251.45563   -108.10882   -83524.702   -84163.422   -83539.581 
  128495    222.67315    72.291113   -83660.882   -84226.492   -83650.943 
Loop time of 94.6548 on 1 procs for 495 steps with 19652 atoms

Performance: 0.452 ns/day, 53.117 hours/ns, 5.230 timesteps/s
100.0% CPU use with 1 MPI tasks x no OpenMP threads

MPI task timing breakdown:
Section |  min time  |  avg time  |  max time  |%varavg| %total
---------------------------------------------------------------
Pair    | 51.766     | 51.766     | 51.766     |   0.0 | 54.69
Neigh   | 41.473     | 41.473     | 41.473     |   0.0 | 43.81
Comm    | 0.53085    | 0.53085    | 0.53085    |   0.0 |  0.56
Output  | 0.00016713 | 0.00016713 | 0.00016713 |   0.0 |  0.00
Modify  | 0.66852    | 0.66852    | 0.66852    |   0.0 |  0.71
Other   |            | 0.2165     |            |       |  0.23

Nlocal:    19652 ave 19652 max 19652 min
Histogram: 1 0 0 0 0 0 0 0 0 0
Nghost:    20725 ave 20725 max 20725 min
Histogram: 1 0 0 0 0 0 0 0 0 0
Neighs:    1.98699e+06 ave 1.98699e+06 max 1.98699e+06 min
Histogram: 1 0 0 0 0 0 0 0 0 0

Total # of neighbors = 1986992
Ave neighs/atom = 101.109
Neighbor list builds = 495
Dangerous builds not checked
Setting up Verlet run ...
  Unit style    : metal
  Current step  : 128495
  Time step     : 0.001
Per MPI rank memory allocation (min/avg/max) = 19.34 | 19.34 | 19.34 Mbytes
Step Temp Press TotEng PotEng Enthalpy 
  128495    222.67315    72.291113   -83660.882   -84226.492   -83650.943 
  130000     202.0008    37.481839   -83783.456   -84296.556   -83778.307 
Loop time of 296.159 on 1 procs for 1505 steps with 19652 atoms

Performance: 0.439 ns/day, 54.662 hours/ns, 5.082 timesteps/s
98.9% CPU use with 1 MPI tasks x no OpenMP threads

MPI task timing breakdown:
Section |  min time  |  avg time  |  max time  |%varavg| %total
---------------------------------------------------------------
Pair    | 160.93     | 160.93     | 160.93     |   0.0 | 54.34
Neigh   | 130.52     | 130.52     | 130.52     |   0.0 | 44.07
Comm    | 1.7468     | 1.7468     | 1.7468     |   0.0 |  0.59
Output  | 0.059995   | 0.059995   | 0.059995   |   0.0 |  0.02
Modify  | 2.1748     | 2.1748     | 2.1748     |   0.0 |  0.73
Other   |            | 0.7224     |            |       |  0.24

Nlocal:    19652 ave 19652 max 19652 min
Histogram: 1 0 0 0 0 0 0 0 0 0
Nghost:    20713 ave 20713 max 20713 min
Histogram: 1 0 0 0 0 0 0 0 0 0
Neighs:    1.98866e+06 ave 1.98866e+06 max 1.98866e+06 min
Histogram: 1 0 0 0 0 0 0 0 0 0

Total # of neighbors = 1988659
Ave neighs/atom = 101.194
Neighbor list builds = 1505
Dangerous builds not checked
Setting up Verlet run ...
  Unit style    : metal
  Current step  : 130000
  Time step     : 0.001
Per MPI rank memory allocation (min/avg/max) = 19.34 | 19.34 | 19.34 Mbytes
Step Temp Press TotEng PotEng Enthalpy 
  130000     202.0008    37.481839   -83783.456   -84296.556   -83778.307 
  130495    174.79472     193.8476   -83914.562   -84358.557    -83887.96 
Loop time of 100.439 on 1 procs for 495 steps with 19652 atoms

Performance: 0.426 ns/day, 56.363 hours/ns, 4.928 timesteps/s
98.2% CPU use with 1 MPI tasks x no OpenMP threads

MPI task timing breakdown:
Section |  min time  |  avg time  |  max time  |%varavg| %total
---------------------------------------------------------------
Pair    | 54.463     | 54.463     | 54.463     |   0.0 | 54.22
Neigh   | 44.387     | 44.387     | 44.387     |   0.0 | 44.19
Comm    | 0.59764    | 0.59764    | 0.59764    |   0.0 |  0.60
Output  | 0.0001719  | 0.0001719  | 0.0001719  |   0.0 |  0.00
Modify  | 0.7548     | 0.7548     | 0.7548     |   0.0 |  0.75
Other   |            | 0.2368     |            |       |  0.24

Nlocal:    19652 ave 19652 max 19652 min
Histogram: 1 0 0 0 0 0 0 0 0 0
Nghost:    20727 ave 20727 max 20727 min
Histogram: 1 0 0 0 0 0 0 0 0 0
Neighs:    1.99088e+06 ave 1.99088e+06 max 1.99088e+06 min
Histogram: 1 0 0 0 0 0 0 0 0 0

Total # of neighbors = 1990882
Ave neighs/atom = 101.307
Neighbor list builds = 495
Dangerous builds not checked
Setting up Verlet run ...
  Unit style    : metal
  Current step  : 130495
  Time step     : 0.001
Per MPI rank memory allocation (min/avg/max) = 19.34 | 19.34 | 19.34 Mbytes
Step Temp Press TotEng PotEng Enthalpy 
  130495    174.79472     193.8476   -83914.562   -84358.557    -83887.96 
  132000    149.37985     26.77084   -84048.852   -84428.291   -84045.182 
Loop time of 307.407 on 1 procs for 1505 steps with 19652 atoms

Performance: 0.423 ns/day, 56.738 hours/ns, 4.896 timesteps/s
98.7% CPU use with 1 MPI tasks x no OpenMP threads

MPI task timing breakdown:
Section |  min time  |  avg time  |  max time  |%varavg| %total
---------------------------------------------------------------
Pair    | 167.06     | 167.06     | 167.06     |   0.0 | 54.34
Neigh   | 134.63     | 134.63     | 134.63     |   0.0 | 43.80
Comm    | 1.8215     | 1.8215     | 1.8215     |   0.0 |  0.59
Output  | 0.93979    | 0.93979    | 0.93979    |   0.0 |  0.31
Modify  | 2.2531     | 2.2531     | 2.2531     |   0.0 |  0.73
Other   |            | 0.6996     |            |       |  0.23

Nlocal:    19652 ave 19652 max 19652 min
Histogram: 1 0 0 0 0 0 0 0 0 0
Nghost:    20725 ave 20725 max 20725 min
Histogram: 1 0 0 0 0 0 0 0 0 0
Neighs:    1.99309e+06 ave 1.99309e+06 max 1.99309e+06 min
Histogram: 1 0 0 0 0 0 0 0 0 0

Total # of neighbors = 1993092
Ave neighs/atom = 101.419
Neighbor list builds = 1505
Dangerous builds not checked
Setting up Verlet run ...
  Unit style    : metal
  Current step  : 132000
  Time step     : 0.001
Per MPI rank memory allocation (min/avg/max) = 19.34 | 19.34 | 19.34 Mbytes
Step Temp Press TotEng PotEng Enthalpy 
  132000    149.37985     26.77084   -84048.852   -84428.291   -84045.182 
  132495    126.75687    86.988707   -84167.082   -84489.056   -84155.167 
Loop time of 101.434 on 1 procs for 495 steps with 19652 atoms

Performance: 0.422 ns/day, 56.921 hours/ns, 4.880 timesteps/s
97.5% CPU use with 1 MPI tasks x no OpenMP threads

MPI task timing breakdown:
Section |  min time  |  avg time  |  max time  |%varavg| %total
---------------------------------------------------------------
Pair    | 55.126     | 55.126     | 55.126     |   0.0 | 54.35
Neigh   | 44.695     | 44.695     | 44.695     |   0.0 | 44.06
Comm    | 0.60915    | 0.60915    | 0.60915    |   0.0 |  0.60
Output  | 0.00014091 | 0.00014091 | 0.00014091 |   0.0 |  0.00
Modify  | 0.77129    | 0.77129    | 0.77129    |   0.0 |  0.76
Other   |            | 0.2318     |            |       |  0.23

Nlocal:    19652 ave 19652 max 19652 min
Histogram: 1 0 0 0 0 0 0 0 0 0
Nghost:    20755 ave 20755 max 20755 min
Histogram: 1 0 0 0 0 0 0 0 0 0
Neighs:    1.99515e+06 ave 1.99515e+06 max 1.99515e+06 min
Histogram: 1 0 0 0 0 0 0 0 0 0

Total # of neighbors = 1995150
Ave neighs/atom = 101.524
Neighbor list builds = 495
Dangerous builds not checked
Setting up Verlet run ...
  Unit style    : metal
  Current step  : 132495
  Time step     : 0.001
Per MPI rank memory allocation (min/avg/max) = 19.34 | 19.34 | 19.34 Mbytes
Step Temp Press TotEng PotEng Enthalpy 
  132495    126.75687    86.988707   -84167.082   -84489.056   -84155.167 
  134000    99.621054   -97.640755   -84309.042   -84562.088   -84322.404 
Loop time of 294.704 on 1 procs for 1505 steps with 19652 atoms

Performance: 0.441 ns/day, 54.393 hours/ns, 5.107 timesteps/s
97.9% CPU use with 1 MPI tasks x no OpenMP threads

MPI task timing breakdown:
Section |  min time  |  avg time  |  max time  |%varavg| %total
---------------------------------------------------------------
Pair    | 159.78     | 159.78     | 159.78     |   0.0 | 54.22
Neigh   | 130.09     | 130.09     | 130.09     |   0.0 | 44.14
Comm    | 1.8442     | 1.8442     | 1.8442     |   0.0 |  0.63
Output  | 0.13683    | 0.13683    | 0.13683    |   0.0 |  0.05
Modify  | 2.2197     | 2.2197     | 2.2197     |   0.0 |  0.75
Other   |            | 0.6352     |            |       |  0.22

Nlocal:    19652 ave 19652 max 19652 min
Histogram: 1 0 0 0 0 0 0 0 0 0
Nghost:    20744 ave 20744 max 20744 min
Histogram: 1 0 0 0 0 0 0 0 0 0
Neighs:    1.99705e+06 ave 1.99705e+06 max 1.99705e+06 min
Histogram: 1 0 0 0 0 0 0 0 0 0

Total # of neighbors = 1997048
Ave neighs/atom = 101.621
Neighbor list builds = 1505
Dangerous builds not checked
Total wall time: 6:52:56
