LAMMPS (12 Dec 2018)
Lattice spacing in x,y,z = 4 4 4
Created orthogonal box = (0 0 0) to (68 68 68)
  1 by 1 by 2 MPI processor grid
Created 19652 atoms
  Time spent = 0.00178504 secs
Setting atom values ...
  19480 settings made for type/fraction
Neighbor list info ...
  update every 1 steps, delay 0 steps, check no
  max neighbors/atom: 2000, page size: 100000
  master list distance cutoff = 8.5
  ghost atom cutoff = 8.5
  binsize = 4.25, bins = 16 16 16
  1 neighbor lists, perpetual/occasional/extra = 1 0 0
  (1) pair eam/alloy, perpetual
      attributes: half, newton on
      pair build: half/bin/atomonly/newton
      stencil: half/bin/3d/newton
      bin: standard
Setting up Verlet run ...
  Unit style    : metal
  Current step  : 0
  Time step     : 0.001
Per MPI rank memory allocation (min/avg/max) = 11.15 | 11.15 | 11.15 Mbytes
Step Temp Press TotEng PotEng Enthalpy 
       0          300    644501.64   -38570.515   -39332.543    87914.888 
    1000    882.52892    635174.76   -38570.722   -40812.425    86084.254 
Loop time of 106.271 on 2 procs for 1000 steps with 19652 atoms

Performance: 0.813 ns/day, 29.520 hours/ns, 9.410 timesteps/s
98.1% CPU use with 2 MPI tasks x no OpenMP threads

MPI task timing breakdown:
Section |  min time  |  avg time  |  max time  |%varavg| %total
---------------------------------------------------------------
Pair    | 61.372     | 61.447     | 61.523     |   1.0 | 57.82
Neigh   | 39.603     | 39.922     | 40.241     |   5.0 | 37.57
Comm    | 4.014      | 4.4092     | 4.8044     |  18.8 |  4.15
Output  | 9.203e-05  | 0.00013459 | 0.00017715 |   0.0 |  0.00
Modify  | 0.24702    | 0.24982    | 0.25262    |   0.6 |  0.24
Other   |            | 0.2425     |            |       |  0.23

Nlocal:    9826 ave 9828 max 9824 min
Histogram: 1 0 0 0 0 0 0 0 0 1
Nghost:    13288.5 ave 13295 max 13282 min
Histogram: 1 0 0 0 0 0 0 0 0 1
Neighs:    791391 ave 791450 max 791332 min
Histogram: 1 0 0 0 0 0 0 0 0 1

Total # of neighbors = 1582782
Ave neighs/atom = 80.5405
Neighbor list builds = 1000
Dangerous builds not checked
Setting up Verlet run ...
  Unit style    : metal
  Current step  : 1000
  Time step     : 0.001
Per MPI rank memory allocation (min/avg/max) = 11.15 | 11.15 | 11.15 Mbytes
Step Temp Press TotEng PotEng Enthalpy 
    1000    882.52892    635174.76   -38570.722   -40812.425    86084.254 
    2000    349.61471   -128.95424   -81238.017    -82126.07   -81290.276 
Loop time of 75.6505 on 2 procs for 1000 steps with 19652 atoms

Performance: 1.142 ns/day, 21.014 hours/ns, 13.219 timesteps/s
97.7% CPU use with 2 MPI tasks x no OpenMP threads

MPI task timing breakdown:
Section |  min time  |  avg time  |  max time  |%varavg| %total
---------------------------------------------------------------
Pair    | 40.516     | 41.046     | 41.576     |   8.3 | 54.26
Neigh   | 29.154     | 29.171     | 29.188     |   0.3 | 38.56
Comm    | 3.6392     | 4.2071     | 4.775      |  27.7 |  5.56
Output  | 9.2983e-05 | 0.00013947 | 0.00018597 |   0.0 |  0.00
Modify  | 0.97504    | 0.98594    | 0.99685    |   1.1 |  1.30
Other   |            | 0.2403     |            |       |  0.32

Nlocal:    9826 ave 9832 max 9820 min
Histogram: 1 0 0 0 0 0 0 0 0 1
Nghost:    9796.5 ave 9804 max 9789 min
Histogram: 1 0 0 0 0 0 0 0 0 1
Neighs:    360936 ave 361041 max 360831 min
Histogram: 1 0 0 0 0 0 0 0 0 1

Total # of neighbors = 721872
Ave neighs/atom = 36.7327
Neighbor list builds = 1000
Dangerous builds not checked
Setting up Verlet run ...
  Unit style    : metal
  Current step  : 2000
  Time step     : 0.001
Per MPI rank memory allocation (min/avg/max) = 11.16 | 11.16 | 11.16 Mbytes
Step Temp Press TotEng PotEng Enthalpy 
    2000    349.61471   -128.95424   -81238.017    -82126.07   -81290.276 
   10000    2461.8317   -528.71901   -69088.146   -75341.422    -69321.28 
Loop time of 470.502 on 2 procs for 8000 steps with 19652 atoms

Performance: 1.469 ns/day, 16.337 hours/ns, 17.003 timesteps/s
97.2% CPU use with 2 MPI tasks x no OpenMP threads

MPI task timing breakdown:
Section |  min time  |  avg time  |  max time  |%varavg| %total
---------------------------------------------------------------
Pair    | 242.71     | 242.88     | 243.05     |   1.1 | 51.62
Neigh   | 194.85     | 196.6      | 198.35     |  12.5 | 41.79
Comm    | 19.961     | 21.917     | 23.874     |  41.8 |  4.66
Output  | 0.052704   | 0.052726   | 0.052747   |   0.0 |  0.01
Modify  | 7.271      | 7.2835     | 7.296      |   0.5 |  1.55
Other   |            | 1.769      |            |       |  0.38

Nlocal:    9826 ave 9829 max 9823 min
Histogram: 1 0 0 0 0 0 0 0 0 1
Nghost:    9446.5 ave 9449 max 9444 min
Histogram: 1 0 0 0 0 0 0 0 0 1
Neighs:    341660 ave 341845 max 341476 min
Histogram: 1 0 0 0 0 0 0 0 0 1

Total # of neighbors = 683321
Ave neighs/atom = 34.7711
Neighbor list builds = 8000
Dangerous builds not checked
Setting up Verlet run ...
  Unit style    : metal
  Current step  : 10000
  Time step     : 0.001
Per MPI rank memory allocation (min/avg/max) = 11.18 | 11.18 | 11.18 Mbytes
Step Temp Press TotEng PotEng Enthalpy 
   10000    2461.8317   -528.71901   -69088.146   -75341.422    -69321.28 
   20000    2436.9236    430.86902   -68930.564   -75120.572   -68740.969 
   30000    2413.3655   -772.93089   -69058.659   -75188.828    -69399.88 
   40000    2445.2151   -1049.2335   -68984.175   -75195.244    -69447.75 
Loop time of 1824.93 on 2 procs for 30000 steps with 19652 atoms

Performance: 1.420 ns/day, 16.897 hours/ns, 16.439 timesteps/s
98.2% CPU use with 2 MPI tasks x no OpenMP threads

MPI task timing breakdown:
Section |  min time  |  avg time  |  max time  |%varavg| %total
---------------------------------------------------------------
Pair    | 940.39     | 940.4      | 940.41     |   0.0 | 51.53
Neigh   | 745.38     | 746.7      | 748.01     |   4.8 | 40.92
Comm    | 100.54     | 101.99     | 103.44     |  14.4 |  5.59
Output  | 2.7339     | 2.734      | 2.734      |   0.0 |  0.15
Modify  | 26.372     | 26.458     | 26.544     |   1.7 |  1.45
Other   |            | 6.645      |            |       |  0.36

Nlocal:    9826 ave 9836 max 9816 min
Histogram: 1 0 0 0 0 0 0 0 0 1
Nghost:    9451.5 ave 9454 max 9449 min
Histogram: 1 0 0 0 0 0 0 0 0 1
Neighs:    341224 ave 341726 max 340722 min
Histogram: 1 0 0 0 0 0 0 0 0 1

Total # of neighbors = 682448
Ave neighs/atom = 34.7266
Neighbor list builds = 30000
Dangerous builds not checked
Setting up Verlet run ...
  Unit style    : metal
  Current step  : 40000
  Time step     : 0.001
Per MPI rank memory allocation (min/avg/max) = 11.22 | 11.22 | 11.22 Mbytes
Step Temp Press TotEng PotEng Enthalpy 
   40000    2445.2151   -1049.2335   -68984.175   -75195.244    -69447.75 
   40495    2414.9809    61.449986   -69188.198    -75322.47   -69161.181 
Loop time of 29.9959 on 2 procs for 495 steps with 19652 atoms

Performance: 1.426 ns/day, 16.833 hours/ns, 16.502 timesteps/s
97.1% CPU use with 2 MPI tasks x no OpenMP threads

MPI task timing breakdown:
Section |  min time  |  avg time  |  max time  |%varavg| %total
---------------------------------------------------------------
Pair    | 15.299     | 15.694     | 16.089     |  10.0 | 52.32
Neigh   | 11.763     | 12.052     | 12.34      |   8.3 | 40.18
Comm    | 1.0037     | 1.7011     | 2.3984     |  53.5 |  5.67
Output  | 9.9897e-05 | 0.00013793 | 0.00017595 |   0.0 |  0.00
Modify  | 0.43303    | 0.43764    | 0.44225    |   0.7 |  1.46
Other   |            | 0.1114     |            |       |  0.37

Nlocal:    9826 ave 9837 max 9815 min
Histogram: 1 0 0 0 0 0 0 0 0 1
Nghost:    9454 ave 9457 max 9451 min
Histogram: 1 0 0 0 0 0 0 0 0 1
Neighs:    342545 ave 343208 max 341882 min
Histogram: 1 0 0 0 0 0 0 0 0 1

Total # of neighbors = 685090
Ave neighs/atom = 34.8611
Neighbor list builds = 495
Dangerous builds not checked
Setting up Verlet run ...
  Unit style    : metal
  Current step  : 40495
  Time step     : 0.001
Per MPI rank memory allocation (min/avg/max) = 11.22 | 11.22 | 11.22 Mbytes
Step Temp Press TotEng PotEng Enthalpy 
   40495    2414.9809    61.449986   -69188.198    -75322.47   -69161.181 
   50000    2411.3299    544.87873   -69278.808   -75403.806   -69039.937 
Loop time of 563.668 on 2 procs for 9505 steps with 19652 atoms

Performance: 1.457 ns/day, 16.473 hours/ns, 16.863 timesteps/s
98.2% CPU use with 2 MPI tasks x no OpenMP threads

MPI task timing breakdown:
Section |  min time  |  avg time  |  max time  |%varavg| %total
---------------------------------------------------------------
Pair    | 290.99     | 291.18     | 291.38     |   1.2 | 51.66
Neigh   | 232.9      | 233.81     | 234.73     |   6.0 | 41.48
Comm    | 27.63      | 28.381     | 29.132     |  14.1 |  5.04
Output  | 0.048974   | 0.048988   | 0.049003   |   0.0 |  0.01
Modify  | 8.1911     | 8.2013     | 8.2114     |   0.4 |  1.45
Other   |            | 2.039      |            |       |  0.36

Nlocal:    9826 ave 9829 max 9823 min
Histogram: 1 0 0 0 0 0 0 0 0 1
Nghost:    9466 ave 9501 max 9431 min
Histogram: 1 0 0 0 0 0 0 0 0 1
Neighs:    343488 ave 343627 max 343349 min
Histogram: 1 0 0 0 0 0 0 0 0 1

Total # of neighbors = 686976
Ave neighs/atom = 34.9571
Neighbor list builds = 9505
Dangerous builds not checked
Setting up Verlet run ...
  Unit style    : metal
  Current step  : 50000
  Time step     : 0.001
Per MPI rank memory allocation (min/avg/max) = 11.23 | 11.23 | 11.23 Mbytes
Step Temp Press TotEng PotEng Enthalpy 
   50000    2411.3299    544.87873   -69278.808   -75403.806   -69039.937 
   50495    2348.1765    5.2641274   -69471.008    -75435.59   -69468.698 
Loop time of 27.1297 on 2 procs for 495 steps with 19652 atoms

Performance: 1.576 ns/day, 15.224 hours/ns, 18.246 timesteps/s
99.9% CPU use with 2 MPI tasks x no OpenMP threads

MPI task timing breakdown:
Section |  min time  |  avg time  |  max time  |%varavg| %total
---------------------------------------------------------------
Pair    | 13.763     | 13.918     | 14.073     |   4.2 | 51.30
Neigh   | 10.503     | 11.202     | 11.902     |  20.9 | 41.29
Comm    | 0.93585    | 1.5077     | 2.0796     |  46.6 |  5.56
Output  | 0.000103   | 0.00012398 | 0.00014496 |   0.0 |  0.00
Modify  | 0.37343    | 0.39861    | 0.42379    |   4.0 |  1.47
Other   |            | 0.1028     |            |       |  0.38

Nlocal:    9826 ave 9847 max 9805 min
Histogram: 1 0 0 0 0 0 0 0 0 1
Nghost:    9457.5 ave 9461 max 9454 min
Histogram: 1 0 0 0 0 0 0 0 0 1
Neighs:    343141 ave 344545 max 341737 min
Histogram: 1 0 0 0 0 0 0 0 0 1

Total # of neighbors = 686282
Ave neighs/atom = 34.9217
Neighbor list builds = 495
Dangerous builds not checked
Setting up Verlet run ...
  Unit style    : metal
  Current step  : 50495
  Time step     : 0.001
Per MPI rank memory allocation (min/avg/max) = 11.23 | 11.23 | 11.23 Mbytes
Step Temp Press TotEng PotEng Enthalpy 
   50495    2348.1765    5.2641274   -69471.008    -75435.59   -69468.698 
   60000     2364.831    859.81316    -69521.35   -75528.237   -69144.941 
Loop time of 570.814 on 2 procs for 9505 steps with 19652 atoms

Performance: 1.439 ns/day, 16.682 hours/ns, 16.652 timesteps/s
98.5% CPU use with 2 MPI tasks x no OpenMP threads

MPI task timing breakdown:
Section |  min time  |  avg time  |  max time  |%varavg| %total
---------------------------------------------------------------
Pair    | 293.71     | 295.74     | 297.76     |  11.8 | 51.81
Neigh   | 230.86     | 232.18     | 233.5      |   8.7 | 40.67
Comm    | 31.827     | 32.474     | 33.121     |  11.4 |  5.69
Output  | 0.052273   | 0.052292   | 0.052311   |   0.0 |  0.01
Modify  | 8.1745     | 8.2881     | 8.4017     |   3.9 |  1.45
Other   |            | 2.089      |            |       |  0.37

Nlocal:    9826 ave 9837 max 9815 min
Histogram: 1 0 0 0 0 0 0 0 0 1
Nghost:    9413.5 ave 9416 max 9411 min
Histogram: 1 0 0 0 0 0 0 0 0 1
Neighs:    343758 ave 344306 max 343211 min
Histogram: 1 0 0 0 0 0 0 0 0 1

Total # of neighbors = 687517
Ave neighs/atom = 34.9846
Neighbor list builds = 9505
Dangerous builds not checked
Setting up Verlet run ...
  Unit style    : metal
  Current step  : 60000
  Time step     : 0.001
Per MPI rank memory allocation (min/avg/max) = 11.24 | 11.24 | 11.24 Mbytes
Step Temp Press TotEng PotEng Enthalpy 
   60000     2364.831    859.81316    -69521.35   -75528.237   -69144.941 
   60495    2304.6298    276.55146   -69761.323   -75615.292   -69640.378 
Loop time of 27.9479 on 2 procs for 495 steps with 19652 atoms

Performance: 1.530 ns/day, 15.683 hours/ns, 17.712 timesteps/s
99.9% CPU use with 2 MPI tasks x no OpenMP threads

MPI task timing breakdown:
Section |  min time  |  avg time  |  max time  |%varavg| %total
---------------------------------------------------------------
Pair    | 13.802     | 14.36      | 14.917     |  14.7 | 51.38
Neigh   | 10.946     | 11.505     | 12.063     |  16.5 | 41.17
Comm    | 1.558      | 1.5695     | 1.581      |   0.9 |  5.62
Output  | 8.5831e-05 | 0.00011444 | 0.00014305 |   0.0 |  0.00
Modify  | 0.39419    | 0.40741    | 0.42062    |   2.1 |  1.46
Other   |            | 0.1064     |            |       |  0.38

Nlocal:    9826 ave 9846 max 9806 min
Histogram: 1 0 0 0 0 0 0 0 0 1
Nghost:    9478 ave 9490 max 9466 min
Histogram: 1 0 0 0 0 0 0 0 0 1
Neighs:    344157 ave 344924 max 343390 min
Histogram: 1 0 0 0 0 0 0 0 0 1

Total # of neighbors = 688314
Ave neighs/atom = 35.0251
Neighbor list builds = 495
Dangerous builds not checked
Setting up Verlet run ...
  Unit style    : metal
  Current step  : 60495
  Time step     : 0.001
Per MPI rank memory allocation (min/avg/max) = 11.24 | 11.24 | 11.24 Mbytes
Step Temp Press TotEng PotEng Enthalpy 
   60495    2304.6298    276.55146   -69761.323   -75615.292   -69640.378 
   70000    2305.1731    6.5673822    -69868.62   -75723.969   -69865.747 
Loop time of 604.742 on 2 procs for 9505 steps with 19652 atoms

Performance: 1.358 ns/day, 17.673 hours/ns, 15.717 timesteps/s
95.4% CPU use with 2 MPI tasks x no OpenMP threads

MPI task timing breakdown:
Section |  min time  |  avg time  |  max time  |%varavg| %total
---------------------------------------------------------------
Pair    | 308.54     | 311.16     | 313.78     |  14.9 | 51.45
Neigh   | 235.23     | 235.93     | 236.63     |   4.5 | 39.01
Comm    | 37.302     | 40.683     | 44.063     |  53.0 |  6.73
Output  | 0.45609    | 0.45609    | 0.4561     |   0.0 |  0.08
Modify  | 14.335     | 14.406     | 14.476     |   1.8 |  2.38
Other   |            | 2.113      |            |       |  0.35

Nlocal:    9826 ave 9827 max 9825 min
Histogram: 1 0 0 0 0 0 0 0 0 1
Nghost:    9493 ave 9496 max 9490 min
Histogram: 1 0 0 0 0 0 0 0 0 1
Neighs:    344084 ave 344229 max 343939 min
Histogram: 1 0 0 0 0 0 0 0 0 1

Total # of neighbors = 688168
Ave neighs/atom = 35.0177
Neighbor list builds = 9505
Dangerous builds not checked
Setting up Verlet run ...
  Unit style    : metal
  Current step  : 70000
  Time step     : 0.001
Per MPI rank memory allocation (min/avg/max) = 11.24 | 11.24 | 11.24 Mbytes
Step Temp Press TotEng PotEng Enthalpy 
   70000    2305.1731    6.5673822    -69868.62   -75723.969   -69865.747 
   70495    2253.0397   -55.302502   -70070.284    -75793.21   -70094.454 
Loop time of 24.035 on 2 procs for 495 steps with 19652 atoms

Performance: 1.779 ns/day, 13.488 hours/ns, 20.595 timesteps/s
98.4% CPU use with 2 MPI tasks x no OpenMP threads

MPI task timing breakdown:
Section |  min time  |  avg time  |  max time  |%varavg| %total
---------------------------------------------------------------
Pair    | 11.584     | 11.843     | 12.103     |   7.5 | 49.27
Neigh   | 9.5255     | 10.288     | 11.05      |  23.8 | 42.80
Comm    | 0.93194    | 1.4606     | 1.9892     |  43.7 |  6.08
Output  | 6.7949e-05 | 9.8467e-05 | 0.00012898 |   0.0 |  0.00
Modify  | 0.33513    | 0.35557    | 0.37601    |   3.4 |  1.48
Other   |            | 0.08797    |            |       |  0.37

Nlocal:    9826 ave 9848 max 9804 min
Histogram: 1 0 0 0 0 0 0 0 0 1
Nghost:    9483.5 ave 9494 max 9473 min
Histogram: 1 0 0 0 0 0 0 0 0 1
Neighs:    344220 ave 344906 max 343535 min
Histogram: 1 0 0 0 0 0 0 0 0 1

Total # of neighbors = 688441
Ave neighs/atom = 35.0316
Neighbor list builds = 495
Dangerous builds not checked
Setting up Verlet run ...
  Unit style    : metal
  Current step  : 70495
  Time step     : 0.001
Per MPI rank memory allocation (min/avg/max) = 11.24 | 11.24 | 11.24 Mbytes
Step Temp Press TotEng PotEng Enthalpy 
   70495    2253.0397   -55.302502   -70070.284    -75793.21   -70094.454 
   80000    2250.7008    465.03839   -70125.696   -75842.681   -69922.845 
Loop time of 569.845 on 2 procs for 9505 steps with 19652 atoms

Performance: 1.441 ns/day, 16.653 hours/ns, 16.680 timesteps/s
96.6% CPU use with 2 MPI tasks x no OpenMP threads

MPI task timing breakdown:
Section |  min time  |  avg time  |  max time  |%varavg| %total
---------------------------------------------------------------
Pair    | 275.91     | 278.25     | 280.6      |  14.1 | 48.83
Neigh   | 224.17     | 226.77     | 229.38     |  17.3 | 39.80
Comm    | 53.793     | 54.137     | 54.481     |   4.7 |  9.50
Output  | 0.058719   | 0.058747   | 0.058776   |   0.0 |  0.01
Modify  | 8.5391     | 8.5939     | 8.6487     |   1.9 |  1.51
Other   |            | 2.03       |            |       |  0.36

Nlocal:    9826 ave 9838 max 9814 min
Histogram: 1 0 0 0 0 0 0 0 0 1
Nghost:    9450 ave 9460 max 9440 min
Histogram: 1 0 0 0 0 0 0 0 0 1
Neighs:    344640 ave 345247 max 344033 min
Histogram: 1 0 0 0 0 0 0 0 0 1

Total # of neighbors = 689280
Ave neighs/atom = 35.0743
Neighbor list builds = 9505
Dangerous builds not checked
Setting up Verlet run ...
  Unit style    : metal
  Current step  : 80000
  Time step     : 0.001
Per MPI rank memory allocation (min/avg/max) = 11.25 | 11.25 | 11.25 Mbytes
Step Temp Press TotEng PotEng Enthalpy 
   80000    2250.7008    465.03839   -70125.696   -75842.681   -69922.845 
   80495    2205.2263    181.74144   -70305.738   -75907.213   -70226.476 
Loop time of 26.569 on 2 procs for 495 steps with 19652 atoms

Performance: 1.610 ns/day, 14.910 hours/ns, 18.631 timesteps/s
99.6% CPU use with 2 MPI tasks x no OpenMP threads

MPI task timing breakdown:
Section |  min time  |  avg time  |  max time  |%varavg| %total
---------------------------------------------------------------
Pair    | 13.138     | 13.329     | 13.519     |   5.2 | 50.17
Neigh   | 11.571     | 11.605     | 11.639     |   1.0 | 43.68
Comm    | 0.90622    | 1.1348     | 1.3634     |  21.5 |  4.27
Output  | 8.4877e-05 | 9.8944e-05 | 0.00011301 |   0.0 |  0.00
Modify  | 0.39447    | 0.39473    | 0.39499    |   0.0 |  1.49
Other   |            | 0.1055     |            |       |  0.40

Nlocal:    9826 ave 9842 max 9810 min
Histogram: 1 0 0 0 0 0 0 0 0 1
Nghost:    9444 ave 9448 max 9440 min
Histogram: 1 0 0 0 0 0 0 0 0 1
Neighs:    344662 ave 345193 max 344131 min
Histogram: 1 0 0 0 0 0 0 0 0 1

Total # of neighbors = 689324
Ave neighs/atom = 35.0765
Neighbor list builds = 495
Dangerous builds not checked
Setting up Verlet run ...
  Unit style    : metal
  Current step  : 80495
  Time step     : 0.001
Per MPI rank memory allocation (min/avg/max) = 11.25 | 11.25 | 11.25 Mbytes
Step Temp Press TotEng PotEng Enthalpy 
   80495    2205.2263    181.74144   -70305.738   -75907.213   -70226.476 
   90000    2213.3269   -189.46121    -70364.74   -75986.792   -70447.401 
Loop time of 536.306 on 2 procs for 9505 steps with 19652 atoms

Performance: 1.531 ns/day, 15.673 hours/ns, 17.723 timesteps/s
98.8% CPU use with 2 MPI tasks x no OpenMP threads

MPI task timing breakdown:
Section |  min time  |  avg time  |  max time  |%varavg| %total
---------------------------------------------------------------
Pair    | 270.43     | 273.61     | 276.79     |  19.2 | 51.02
Neigh   | 227.35     | 227.48     | 227.62     |   0.9 | 42.42
Comm    | 22.115     | 25.179     | 28.243     |  61.1 |  4.69
Output  | 0.23198    | 0.232      | 0.23202    |   0.0 |  0.04
Modify  | 7.8056     | 7.8222     | 7.8388     |   0.6 |  1.46
Other   |            | 1.98       |            |       |  0.37

Nlocal:    9826 ave 9840 max 9812 min
Histogram: 1 0 0 0 0 0 0 0 0 1
Nghost:    9453 ave 9473 max 9433 min
Histogram: 1 0 0 0 0 0 0 0 0 1
Neighs:    344532 ave 345250 max 343814 min
Histogram: 1 0 0 0 0 0 0 0 0 1

Total # of neighbors = 689064
Ave neighs/atom = 35.0633
Neighbor list builds = 9505
Dangerous builds not checked
Setting up Verlet run ...
  Unit style    : metal
  Current step  : 90000
  Time step     : 0.001
Per MPI rank memory allocation (min/avg/max) = 11.25 | 11.25 | 11.25 Mbytes
Step Temp Press TotEng PotEng Enthalpy 
   90000    2213.3269   -189.46121    -70364.74   -75986.792   -70447.401 
   90495    2159.9459    172.43649   -70681.636   -76168.095   -70606.657 
Loop time of 26.6461 on 2 procs for 495 steps with 19652 atoms

Performance: 1.605 ns/day, 14.953 hours/ns, 18.577 timesteps/s
99.6% CPU use with 2 MPI tasks x no OpenMP threads

MPI task timing breakdown:
Section |  min time  |  avg time  |  max time  |%varavg| %total
---------------------------------------------------------------
Pair    | 13.385     | 13.544     | 13.702     |   4.3 | 50.83
Neigh   | 11.05      | 11.344     | 11.639     |   8.8 | 42.57
Comm    | 1.1225     | 1.2642     | 1.406      |  12.6 |  4.74
Output  | 8.7976e-05 | 0.00010741 | 0.00012684 |   0.0 |  0.00
Modify  | 0.38029    | 0.38898    | 0.39767    |   1.4 |  1.46
Other   |            | 0.1048     |            |       |  0.39

Nlocal:    9826 ave 9835 max 9817 min
Histogram: 1 0 0 0 0 0 0 0 0 1
Nghost:    9488 ave 9492 max 9484 min
Histogram: 1 0 0 0 0 0 0 0 0 1
Neighs:    345344 ave 345800 max 344889 min
Histogram: 1 0 0 0 0 0 0 0 0 1

Total # of neighbors = 690689
Ave neighs/atom = 35.146
Neighbor list builds = 495
Dangerous builds not checked
Setting up Verlet run ...
  Unit style    : metal
  Current step  : 90495
  Time step     : 0.001
Per MPI rank memory allocation (min/avg/max) = 11.25 | 11.25 | 11.25 Mbytes
Step Temp Press TotEng PotEng Enthalpy 
   90495    2159.9459    172.43649   -70681.636   -76168.095   -70606.657 
  100000    2131.0526   -712.87311   -70764.037   -76177.105   -71074.788 
Loop time of 556.347 on 2 procs for 9505 steps with 19652 atoms

Performance: 1.476 ns/day, 16.259 hours/ns, 17.085 timesteps/s
97.7% CPU use with 2 MPI tasks x no OpenMP threads

MPI task timing breakdown:
Section |  min time  |  avg time  |  max time  |%varavg| %total
---------------------------------------------------------------
Pair    | 284.6      | 284.67     | 284.74     |   0.4 | 51.17
Neigh   | 223.12     | 225.4      | 227.68     |  15.2 | 40.51
Comm    | 33.835     | 36.277     | 38.72      |  40.6 |  6.52
Output  | 0.25438    | 0.2544     | 0.25441    |   0.0 |  0.05
Modify  | 7.6197     | 7.7406     | 7.8614     |   4.3 |  1.39
Other   |            | 2.007      |            |       |  0.36

Nlocal:    9826 ave 9863 max 9789 min
Histogram: 1 0 0 0 0 0 0 0 0 1
Nghost:    9456 ave 9457 max 9455 min
Histogram: 1 0 0 0 0 0 0 0 0 1
Neighs:    344724 ave 347035 max 342413 min
Histogram: 1 0 0 0 0 0 0 0 0 1

Total # of neighbors = 689448
Ave neighs/atom = 35.0828
Neighbor list builds = 9505
Dangerous builds not checked
Setting up Verlet run ...
  Unit style    : metal
  Current step  : 100000
  Time step     : 0.001
Per MPI rank memory allocation (min/avg/max) = 11.25 | 11.25 | 11.25 Mbytes
Step Temp Press TotEng PotEng Enthalpy 
  100000    2131.0526   -712.87311   -70764.037   -76177.105   -71074.788 
  100495    2096.6067   -420.96324   -70901.787   -76227.359   -71084.929 
Loop time of 29.4422 on 2 procs for 495 steps with 19652 atoms

Performance: 1.453 ns/day, 16.522 hours/ns, 16.813 timesteps/s
96.4% CPU use with 2 MPI tasks x no OpenMP threads

MPI task timing breakdown:
Section |  min time  |  avg time  |  max time  |%varavg| %total
---------------------------------------------------------------
Pair    | 14.996     | 15.115     | 15.235     |   3.1 | 51.34
Neigh   | 11.709     | 11.924     | 12.138     |   6.2 | 40.50
Comm    | 1.5211     | 1.8598     | 2.1985     |  24.8 |  6.32
Output  | 8.7976e-05 | 0.00014043 | 0.00019288 |   0.0 |  0.00
Modify  | 0.42911    | 0.43104    | 0.43297    |   0.3 |  1.46
Other   |            | 0.1122     |            |       |  0.38

Nlocal:    9826 ave 9847 max 9805 min
Histogram: 1 0 0 0 0 0 0 0 0 1
Nghost:    9496 ave 9507 max 9485 min
Histogram: 1 0 0 0 0 0 0 0 0 1
Neighs:    345234 ave 347160 max 343307 min
Histogram: 1 0 0 0 0 0 0 0 0 1

Total # of neighbors = 690467
Ave neighs/atom = 35.1347
Neighbor list builds = 495
Dangerous builds not checked
Setting up Verlet run ...
  Unit style    : metal
  Current step  : 100495
  Time step     : 0.001
Per MPI rank memory allocation (min/avg/max) = 11.25 | 11.25 | 11.25 Mbytes
Step Temp Press TotEng PotEng Enthalpy 
  100495    2096.6067   -420.96324   -70901.787   -76227.359   -71084.929 
  110000    2084.6379   -896.86677   -71131.983   -76427.153   -71521.916 
Loop time of 560.629 on 2 procs for 9505 steps with 19652 atoms

Performance: 1.465 ns/day, 16.384 hours/ns, 16.954 timesteps/s
96.9% CPU use with 2 MPI tasks x no OpenMP threads

MPI task timing breakdown:
Section |  min time  |  avg time  |  max time  |%varavg| %total
---------------------------------------------------------------
Pair    | 278.07     | 278.88     | 279.68     |   4.8 | 49.74
Neigh   | 225.45     | 227.68     | 229.9      |  14.7 | 40.61
Comm    | 31.758     | 34.843     | 37.929     |  52.3 |  6.21
Output  | 0.047469   | 0.047488   | 0.047508   |   0.0 |  0.01
Modify  | 17.123     | 17.136     | 17.148     |   0.3 |  3.06
Other   |            | 2.048      |            |       |  0.37

Nlocal:    9826 ave 9832 max 9820 min
Histogram: 1 0 0 0 0 0 0 0 0 1
Nghost:    9473 ave 9510 max 9436 min
Histogram: 1 0 0 0 0 0 0 0 0 1
Neighs:    345242 ave 345513 max 344970 min
Histogram: 1 0 0 0 0 0 0 0 0 1

Total # of neighbors = 690483
Ave neighs/atom = 35.1355
Neighbor list builds = 9505
Dangerous builds not checked
Setting up Verlet run ...
  Unit style    : metal
  Current step  : 110000
  Time step     : 0.001
Per MPI rank memory allocation (min/avg/max) = 11.26 | 11.26 | 11.26 Mbytes
Step Temp Press TotEng PotEng Enthalpy 
  110000    2084.6379   -896.86677   -71131.983   -76427.153   -71521.916 
  110495    2050.9922   -699.62265    -71289.03   -76498.737   -71592.827 
Loop time of 26.8666 on 2 procs for 495 steps with 19652 atoms

Performance: 1.592 ns/day, 15.077 hours/ns, 18.424 timesteps/s
96.3% CPU use with 2 MPI tasks x no OpenMP threads

MPI task timing breakdown:
Section |  min time  |  avg time  |  max time  |%varavg| %total
---------------------------------------------------------------
Pair    | 13.586     | 13.587     | 13.589     |   0.0 | 50.57
Neigh   | 11.129     | 11.326     | 11.523     |   5.9 | 42.16
Comm    | 1.257      | 1.4533     | 1.6495     |  16.3 |  5.41
Output  | 6.1989e-05 | 7.7486e-05 | 9.2983e-05 |   0.0 |  0.00
Modify  | 0.40145    | 0.40492    | 0.40838    |   0.5 |  1.51
Other   |            | 0.09537    |            |       |  0.35

Nlocal:    9826 ave 9839 max 9813 min
Histogram: 1 0 0 0 0 0 0 0 0 1
Nghost:    9517 ave 9528 max 9506 min
Histogram: 1 0 0 0 0 0 0 0 0 1
Neighs:    345402 ave 345991 max 344813 min
Histogram: 1 0 0 0 0 0 0 0 0 1

Total # of neighbors = 690804
Ave neighs/atom = 35.1518
Neighbor list builds = 495
Dangerous builds not checked
Setting up Verlet run ...
  Unit style    : metal
  Current step  : 110495
  Time step     : 0.001
Per MPI rank memory allocation (min/avg/max) = 11.26 | 11.26 | 11.26 Mbytes
Step Temp Press TotEng PotEng Enthalpy 
  110495    2050.9922   -699.62265    -71289.03   -76498.737   -71592.827 
  120000    2032.0095    -831.0515   -71399.234   -76560.724   -71759.973 
Loop time of 529.187 on 2 procs for 9505 steps with 19652 atoms

Performance: 1.552 ns/day, 15.465 hours/ns, 17.962 timesteps/s
98.5% CPU use with 2 MPI tasks x no OpenMP threads

MPI task timing breakdown:
Section |  min time  |  avg time  |  max time  |%varavg| %total
---------------------------------------------------------------
Pair    | 270.13     | 270.55     | 270.97     |   2.6 | 51.13
Neigh   | 219.86     | 221.53     | 223.21     |  11.3 | 41.86
Comm    | 25.195     | 27.345     | 29.494     |  41.1 |  5.17
Output  | 0.053126   | 0.053149   | 0.053173   |   0.0 |  0.01
Modify  | 7.6309     | 7.6907     | 7.7506     |   2.2 |  1.45
Other   |            | 2.015      |            |       |  0.38

Nlocal:    9826 ave 9840 max 9812 min
Histogram: 1 0 0 0 0 0 0 0 0 1
Nghost:    9460 ave 9470 max 9450 min
Histogram: 1 0 0 0 0 0 0 0 0 1
Neighs:    345546 ave 346108 max 344983 min
Histogram: 1 0 0 0 0 0 0 0 0 1

Total # of neighbors = 691091
Ave neighs/atom = 35.1664
Neighbor list builds = 9505
Dangerous builds not checked
Setting up Verlet run ...
  Unit style    : metal
  Current step  : 120000
  Time step     : 0.001
Per MPI rank memory allocation (min/avg/max) = 11.26 | 11.26 | 11.26 Mbytes
Step Temp Press TotEng PotEng Enthalpy 
  120000    2032.0095    -831.0515   -71399.234   -76560.724   -71759.973 
  120495    2008.8376   -639.05012   -71560.841   -76663.471    -71837.75 
Loop time of 23.5943 on 2 procs for 495 steps with 19652 atoms

Performance: 1.813 ns/day, 13.240 hours/ns, 20.980 timesteps/s
99.6% CPU use with 2 MPI tasks x no OpenMP threads

MPI task timing breakdown:
Section |  min time  |  avg time  |  max time  |%varavg| %total
---------------------------------------------------------------
Pair    | 11.712     | 11.847     | 11.983     |   3.9 | 50.21
Neigh   | 9.8238     | 10.12      | 10.416     |   9.3 | 42.89
Comm    | 1.0253     | 1.192      | 1.3587     |  15.3 |  5.05
Output  | 9.9897e-05 | 0.00011742 | 0.00013494 |   0.0 |  0.00
Modify  | 0.33476    | 0.33968    | 0.3446     |   0.8 |  1.44
Other   |            | 0.09542    |            |       |  0.40

Nlocal:    9826 ave 9833 max 9819 min
Histogram: 1 0 0 0 0 0 0 0 0 1
Nghost:    9515.5 ave 9517 max 9514 min
Histogram: 1 0 0 0 0 0 0 0 0 1
Neighs:    346036 ave 346044 max 346029 min
Histogram: 1 0 0 0 0 0 0 0 0 1

Total # of neighbors = 692073
Ave neighs/atom = 35.2164
Neighbor list builds = 495
Dangerous builds not checked
Setting up Verlet run ...
  Unit style    : metal
  Current step  : 120495
  Time step     : 0.001
Per MPI rank memory allocation (min/avg/max) = 11.26 | 11.26 | 11.26 Mbytes
Step Temp Press TotEng PotEng Enthalpy 
  120495    2008.8376   -639.05012   -71560.841   -76663.471    -71837.75 
  130000    1992.6609    223.31496   -71695.548   -76757.088   -71599.189 
Loop time of 548.782 on 2 procs for 9505 steps with 19652 atoms

Performance: 1.496 ns/day, 16.038 hours/ns, 17.320 timesteps/s
96.5% CPU use with 2 MPI tasks x no OpenMP threads

MPI task timing breakdown:
Section |  min time  |  avg time  |  max time  |%varavg| %total
---------------------------------------------------------------
Pair    | 266.69     | 269.18     | 271.66     |  15.1 | 49.05
Neigh   | 216.83     | 220.9      | 224.98     |  27.4 | 40.25
Comm    | 42.806     | 45.856     | 48.906     |  45.0 |  8.36
Output  | 1.1752     | 1.1752     | 1.1753     |   0.0 |  0.21
Modify  | 8.2517     | 9.6971     | 11.142     |  46.4 |  1.77
Other   |            | 1.975      |            |       |  0.36

Nlocal:    9826 ave 9840 max 9812 min
Histogram: 1 0 0 0 0 0 0 0 0 1
Nghost:    9526.5 ave 9528 max 9525 min
Histogram: 1 0 0 0 0 0 0 0 0 1
Neighs:    347377 ave 348357 max 346397 min
Histogram: 1 0 0 0 0 0 0 0 0 1

Total # of neighbors = 694754
Ave neighs/atom = 35.3528
Neighbor list builds = 9505
Dangerous builds not checked
Setting up Verlet run ...
  Unit style    : metal
  Current step  : 130000
  Time step     : 0.001
Per MPI rank memory allocation (min/avg/max) = 11.26 | 11.26 | 11.26 Mbytes
Step Temp Press TotEng PotEng Enthalpy 
  130000    1992.6609    223.31496   -71695.548   -76757.088   -71599.189 
  130495    1964.8448    -79.49195   -71898.064   -76888.949   -71932.361 
Loop time of 29.0881 on 2 procs for 495 steps with 19652 atoms

Performance: 1.470 ns/day, 16.323 hours/ns, 17.017 timesteps/s
97.9% CPU use with 2 MPI tasks x no OpenMP threads

MPI task timing breakdown:
Section |  min time  |  avg time  |  max time  |%varavg| %total
---------------------------------------------------------------
Pair    | 15.093     | 15.159     | 15.225     |   1.7 | 52.11
Neigh   | 11.65      | 11.683     | 11.716     |   1.0 | 40.16
Comm    | 1.6121     | 1.7118     | 1.8114     |   7.6 |  5.88
Output  | 8.2016e-05 | 0.00011802 | 0.00015402 |   0.0 |  0.00
Modify  | 0.41964    | 0.42358    | 0.42752    |   0.6 |  1.46
Other   |            | 0.1113     |            |       |  0.38

Nlocal:    9826 ave 9849 max 9803 min
Histogram: 1 0 0 0 0 0 0 0 0 1
Nghost:    9505.5 ave 9518 max 9493 min
Histogram: 1 0 0 0 0 0 0 0 0 1
Neighs:    347158 ave 348787 max 345530 min
Histogram: 1 0 0 0 0 0 0 0 0 1

Total # of neighbors = 694317
Ave neighs/atom = 35.3306
Neighbor list builds = 495
Dangerous builds not checked
Setting up Verlet run ...
  Unit style    : metal
  Current step  : 130495
  Time step     : 0.001
Per MPI rank memory allocation (min/avg/max) = 11.26 | 11.26 | 11.26 Mbytes
Step Temp Press TotEng PotEng Enthalpy 
  130495    1964.8448    -79.49195   -71898.064   -76888.949   -71932.361 
  140000     1955.418   -449.41619   -71988.595   -76955.535   -72182.613 
Loop time of 531.879 on 2 procs for 9505 steps with 19652 atoms

Performance: 1.544 ns/day, 15.544 hours/ns, 17.871 timesteps/s
98.6% CPU use with 2 MPI tasks x no OpenMP threads

MPI task timing breakdown:
Section |  min time  |  avg time  |  max time  |%varavg| %total
---------------------------------------------------------------
Pair    | 270.13     | 270.96     | 271.8      |   5.1 | 50.94
Neigh   | 221.47     | 222.29     | 223.12     |   5.5 | 41.79
Comm    | 26.755     | 28.423     | 30.091     |  31.3 |  5.34
Output  | 0.057112   | 0.057123   | 0.057134   |   0.0 |  0.01
Modify  | 8.106      | 8.1266     | 8.1473     |   0.7 |  1.53
Other   |            | 2.012      |            |       |  0.38

Nlocal:    9826 ave 9826 max 9826 min
Histogram: 2 0 0 0 0 0 0 0 0 0
Nghost:    9494.5 ave 9495 max 9494 min
Histogram: 1 0 0 0 0 0 0 0 0 1
Neighs:    346796 ave 347022 max 346569 min
Histogram: 1 0 0 0 0 0 0 0 0 1

Total # of neighbors = 693591
Ave neighs/atom = 35.2937
Neighbor list builds = 9505
Dangerous builds not checked
Setting up Verlet run ...
  Unit style    : metal
  Current step  : 140000
  Time step     : 0.001
Per MPI rank memory allocation (min/avg/max) = 11.27 | 11.27 | 11.27 Mbytes
Step Temp Press TotEng PotEng Enthalpy 
  140000     1955.418   -449.41619   -71988.595   -76955.535   -72182.613 
  140495    1906.3235   -224.00155   -72194.982   -77037.217   -72291.509 
Loop time of 26.723 on 2 procs for 495 steps with 19652 atoms

Performance: 1.600 ns/day, 14.996 hours/ns, 18.523 timesteps/s
99.2% CPU use with 2 MPI tasks x no OpenMP threads

MPI task timing breakdown:
Section |  min time  |  avg time  |  max time  |%varavg| %total
---------------------------------------------------------------
Pair    | 13.089     | 13.347     | 13.606     |   7.1 | 49.95
Neigh   | 11.744     | 11.798     | 11.853     |   1.6 | 44.15
Comm    | 0.72966    | 1.0471     | 1.3646     |  31.0 |  3.92
Output  | 6.8903e-05 | 0.00010097 | 0.00013304 |   0.0 |  0.00
Modify  | 0.41384    | 0.4159     | 0.41796    |   0.3 |  1.56
Other   |            | 0.114      |            |       |  0.43

Nlocal:    9826 ave 9850 max 9802 min
Histogram: 1 0 0 0 0 0 0 0 0 1
Nghost:    9515 ave 9533 max 9497 min
Histogram: 1 0 0 0 0 0 0 0 0 1
Neighs:    347690 ave 348779 max 346600 min
Histogram: 1 0 0 0 0 0 0 0 0 1

Total # of neighbors = 695379
Ave neighs/atom = 35.3846
Neighbor list builds = 495
Dangerous builds not checked
Setting up Verlet run ...
  Unit style    : metal
  Current step  : 140495
  Time step     : 0.001
Per MPI rank memory allocation (min/avg/max) = 11.27 | 11.27 | 11.27 Mbytes
Step Temp Press TotEng PotEng Enthalpy 
  140495    1906.3235   -224.00155   -72194.982   -77037.217   -72291.509 
  150000    1909.9742    582.99078    -72277.04   -77128.549   -72026.636 
Loop time of 535.34 on 2 procs for 9505 steps with 19652 atoms

Performance: 1.534 ns/day, 15.645 hours/ns, 17.755 timesteps/s
98.4% CPU use with 2 MPI tasks x no OpenMP threads

MPI task timing breakdown:
Section |  min time  |  avg time  |  max time  |%varavg| %total
---------------------------------------------------------------
Pair    | 270.28     | 272.68     | 275.08     |  14.5 | 50.94
Neigh   | 221        | 224.38     | 227.75     |  22.5 | 41.91
Comm    | 22.224     | 28.124     | 34.025     | 111.3 |  5.25
Output  | 0.074488   | 0.07451    | 0.074531   |   0.0 |  0.01
Modify  | 7.9198     | 7.9787     | 8.0376     |   2.1 |  1.49
Other   |            | 2.106      |            |       |  0.39

Nlocal:    9826 ave 9845 max 9807 min
Histogram: 1 0 0 0 0 0 0 0 0 1
Nghost:    9504 ave 9526 max 9482 min
Histogram: 1 0 0 0 0 0 0 0 0 1
Neighs:    348348 ave 349007 max 347689 min
Histogram: 1 0 0 0 0 0 0 0 0 1

Total # of neighbors = 696696
Ave neighs/atom = 35.4517
Neighbor list builds = 9505
Dangerous builds not checked
Setting up Verlet run ...
  Unit style    : metal
  Current step  : 150000
  Time step     : 0.001
Per MPI rank memory allocation (min/avg/max) = 11.27 | 11.27 | 11.27 Mbytes
Step Temp Press TotEng PotEng Enthalpy 
  150000    1909.9742    582.99078    -72277.04   -77128.549   -72026.636 
  150495     1878.321    830.83332   -72508.028   -77279.134   -72151.983 
Loop time of 26.7847 on 2 procs for 495 steps with 19652 atoms

Performance: 1.597 ns/day, 15.031 hours/ns, 18.481 timesteps/s
99.6% CPU use with 2 MPI tasks x no OpenMP threads

MPI task timing breakdown:
Section |  min time  |  avg time  |  max time  |%varavg| %total
---------------------------------------------------------------
Pair    | 13         | 13.469     | 13.939     |  12.8 | 50.29
Neigh   | 10.768     | 11.114     | 11.461     |  10.4 | 41.50
Comm    | 0.85672    | 1.6916     | 2.5265     |  64.2 |  6.32
Output  | 7.4148e-05 | 0.00010014 | 0.00012612 |   0.0 |  0.00
Modify  | 0.39284    | 0.40026    | 0.40769    |   1.2 |  1.49
Other   |            | 0.1088     |            |       |  0.41

Nlocal:    9826 ave 9836 max 9816 min
Histogram: 1 0 0 0 0 0 0 0 0 1
Nghost:    9530 ave 9541 max 9519 min
Histogram: 1 0 0 0 0 0 0 0 0 1
Neighs:    349194 ave 350102 max 348285 min
Histogram: 1 0 0 0 0 0 0 0 0 1

Total # of neighbors = 698387
Ave neighs/atom = 35.5377
Neighbor list builds = 495
Dangerous builds not checked
Setting up Verlet run ...
  Unit style    : metal
  Current step  : 150495
  Time step     : 0.001
Per MPI rank memory allocation (min/avg/max) = 11.27 | 11.27 | 11.27 Mbytes
Step Temp Press TotEng PotEng Enthalpy 
  150495     1878.321    830.83332   -72508.028   -77279.134   -72151.983 
  160000    1848.6696   -432.74589   -72644.203   -77339.993   -72830.094 
Loop time of 548.821 on 2 procs for 9505 steps with 19652 atoms

Performance: 1.496 ns/day, 16.039 hours/ns, 17.319 timesteps/s
96.9% CPU use with 2 MPI tasks x no OpenMP threads

MPI task timing breakdown:
Section |  min time  |  avg time  |  max time  |%varavg| %total
---------------------------------------------------------------
Pair    | 283.68     | 284.06     | 284.44     |   2.3 | 51.76
Neigh   | 221.99     | 224.94     | 227.89     |  19.7 | 40.99
Comm    | 27.054     | 29.706     | 32.358     |  48.7 |  5.41
Output  | 0.16775    | 0.16777    | 0.16779    |   0.0 |  0.03
Modify  | 7.8548     | 7.8804     | 7.9061     |   0.9 |  1.44
Other   |            | 2.072      |            |       |  0.38

Nlocal:    9826 ave 9843 max 9809 min
Histogram: 1 0 0 0 0 0 0 0 0 1
Nghost:    9507 ave 9535 max 9479 min
Histogram: 1 0 0 0 0 0 0 0 0 1
Neighs:    347906 ave 348266 max 347546 min
Histogram: 1 0 0 0 0 0 0 0 0 1

Total # of neighbors = 695812
Ave neighs/atom = 35.4067
Neighbor list builds = 9505
Dangerous builds not checked
Setting up Verlet run ...
  Unit style    : metal
  Current step  : 160000
  Time step     : 0.001
Per MPI rank memory allocation (min/avg/max) = 11.27 | 11.27 | 11.27 Mbytes
Step Temp Press TotEng PotEng Enthalpy 
  160000    1848.6696   -432.74589   -72644.203   -77339.993   -72830.094 
  160495     1804.553   -442.40155    -72876.34   -77460.069   -73066.073 
Loop time of 26.0453 on 2 procs for 495 steps with 19652 atoms

Performance: 1.642 ns/day, 14.616 hours/ns, 19.005 timesteps/s
99.5% CPU use with 2 MPI tasks x no OpenMP threads

MPI task timing breakdown:
Section |  min time  |  avg time  |  max time  |%varavg| %total
---------------------------------------------------------------
Pair    | 12.953     | 13.087     | 13.221     |   3.7 | 50.25
Neigh   | 11.072     | 11.388     | 11.705     |   9.4 | 43.73
Comm    | 0.84212    | 1.0359     | 1.2297     |  19.0 |  3.98
Output  | 9.9897e-05 | 0.00013149 | 0.00016308 |   0.0 |  0.00
Modify  | 0.41715    | 0.42386    | 0.43056    |   1.0 |  1.63
Other   |            | 0.1096     |            |       |  0.42

Nlocal:    9826 ave 9836 max 9816 min
Histogram: 1 0 0 0 0 0 0 0 0 1
Nghost:    9590 ave 9590 max 9590 min
Histogram: 2 0 0 0 0 0 0 0 0 0
Neighs:    348484 ave 348603 max 348364 min
Histogram: 1 0 0 0 0 0 0 0 0 1

Total # of neighbors = 696967
Ave neighs/atom = 35.4654
Neighbor list builds = 495
Dangerous builds not checked
Setting up Verlet run ...
  Unit style    : metal
  Current step  : 160495
  Time step     : 0.001
Per MPI rank memory allocation (min/avg/max) = 11.27 | 11.27 | 11.27 Mbytes
Step Temp Press TotEng PotEng Enthalpy 
  160495     1804.553   -442.40155    -72876.34   -77460.069   -73066.073 
  170000     1799.689    168.24851   -72942.891   -77514.265   -72870.937 
Loop time of 523.834 on 2 procs for 9505 steps with 19652 atoms

Performance: 1.568 ns/day, 15.309 hours/ns, 18.145 timesteps/s
98.8% CPU use with 2 MPI tasks x no OpenMP threads

MPI task timing breakdown:
Section |  min time  |  avg time  |  max time  |%varavg| %total
---------------------------------------------------------------
Pair    | 264.88     | 265.36     | 265.83     |   2.9 | 50.66
Neigh   | 220.25     | 220.29     | 220.33     |   0.3 | 42.05
Comm    | 27.636     | 28.166     | 28.697     |  10.0 |  5.38
Output  | 0.2134     | 0.21342    | 0.21343    |   0.0 |  0.04
Modify  | 7.7702     | 7.7871     | 7.8039     |   0.6 |  1.49
Other   |            | 2.017      |            |       |  0.39

Nlocal:    9826 ave 9840 max 9812 min
Histogram: 1 0 0 0 0 0 0 0 0 1
Nghost:    9541 ave 9562 max 9520 min
Histogram: 1 0 0 0 0 0 0 0 0 1
Neighs:    349210 ave 349783 max 348637 min
Histogram: 1 0 0 0 0 0 0 0 0 1

Total # of neighbors = 698420
Ave neighs/atom = 35.5394
Neighbor list builds = 9505
Dangerous builds not checked
Setting up Verlet run ...
  Unit style    : metal
  Current step  : 170000
  Time step     : 0.001
Per MPI rank memory allocation (min/avg/max) = 11.27 | 11.27 | 11.27 Mbytes
Step Temp Press TotEng PotEng Enthalpy 
  170000     1799.689    168.24851   -72942.891   -77514.265   -72870.937 
  170495    1757.3407    596.19072   -73163.066   -77626.871   -72908.716 
Loop time of 28.6916 on 2 procs for 495 steps with 19652 atoms

Performance: 1.491 ns/day, 16.101 hours/ns, 17.252 timesteps/s
95.2% CPU use with 2 MPI tasks x no OpenMP threads

MPI task timing breakdown:
Section |  min time  |  avg time  |  max time  |%varavg| %total
---------------------------------------------------------------
Pair    | 14.458     | 14.485     | 14.512     |   0.7 | 50.49
Neigh   | 11.838     | 12.092     | 12.346     |   7.3 | 42.14
Comm    | 1.3166     | 1.5611     | 1.8057     |  19.6 |  5.44
Output  | 8.0109e-05 | 9.3579e-05 | 0.00010705 |   0.0 |  0.00
Modify  | 0.43295    | 0.44114    | 0.44933    |   1.2 |  1.54
Other   |            | 0.1126     |            |       |  0.39

Nlocal:    9826 ave 9833 max 9819 min
Histogram: 1 0 0 0 0 0 0 0 0 1
Nghost:    9551 ave 9584 max 9518 min
Histogram: 1 0 0 0 0 0 0 0 0 1
Neighs:    350066 ave 350182 max 349950 min
Histogram: 1 0 0 0 0 0 0 0 0 1

Total # of neighbors = 700132
Ave neighs/atom = 35.6265
Neighbor list builds = 495
Dangerous builds not checked
Setting up Verlet run ...
  Unit style    : metal
  Current step  : 170495
  Time step     : 0.001
Per MPI rank memory allocation (min/avg/max) = 11.27 | 11.27 | 11.27 Mbytes
Step Temp Press TotEng PotEng Enthalpy 
  170495    1757.3407    596.19072   -73163.066   -77626.871   -72908.716 
  180000    1753.6946    128.63732   -73239.089   -77693.634   -73184.175 
Loop time of 516.953 on 2 procs for 9505 steps with 19652 atoms

Performance: 1.589 ns/day, 15.108 hours/ns, 18.387 timesteps/s
98.3% CPU use with 2 MPI tasks x no OpenMP threads

MPI task timing breakdown:
Section |  min time  |  avg time  |  max time  |%varavg| %total
---------------------------------------------------------------
Pair    | 258.46     | 259.26     | 260.05     |   4.9 | 50.15
Neigh   | 222.32     | 223.05     | 223.78     |   4.9 | 43.15
Comm    | 22.965     | 24.503     | 26.042     |  31.1 |  4.74
Output  | 0.16921    | 0.17419    | 0.17917    |   1.2 |  0.03
Modify  | 7.8696     | 7.8863     | 7.903      |   0.6 |  1.53
Other   |            | 2.081      |            |       |  0.40

Nlocal:    9826 ave 9836 max 9816 min
Histogram: 1 0 0 0 0 0 0 0 0 1
Nghost:    9583.5 ave 9592 max 9575 min
Histogram: 1 0 0 0 0 0 0 0 0 1
Neighs:    349614 ave 350246 max 348981 min
Histogram: 1 0 0 0 0 0 0 0 0 1

Total # of neighbors = 699227
Ave neighs/atom = 35.5804
Neighbor list builds = 9505
Dangerous builds not checked
Setting up Verlet run ...
  Unit style    : metal
  Current step  : 180000
  Time step     : 0.001
Per MPI rank memory allocation (min/avg/max) = 11.28 | 11.28 | 11.28 Mbytes
Step Temp Press TotEng PotEng Enthalpy 
  180000    1753.6946    128.63732   -73239.089   -77693.634   -73184.175 
  180495    1731.4988    27.227292   -73465.875    -77864.04   -73454.261 
Loop time of 28.9813 on 2 procs for 495 steps with 19652 atoms

Performance: 1.476 ns/day, 16.263 hours/ns, 17.080 timesteps/s
96.9% CPU use with 2 MPI tasks x no OpenMP threads

MPI task timing breakdown:
Section |  min time  |  avg time  |  max time  |%varavg| %total
---------------------------------------------------------------
Pair    | 13.975     | 14.424     | 14.873     |  11.8 | 49.77
Neigh   | 11.616     | 12.01      | 12.403     |  11.4 | 41.44
Comm    | 1.1174     | 1.9795     | 2.8417     |  61.3 |  6.83
Output  | 9.1076e-05 | 0.00011349 | 0.0001359  |   0.0 |  0.00
Modify  | 0.44555    | 0.45728    | 0.469      |   1.7 |  1.58
Other   |            | 0.1109     |            |       |  0.38

Nlocal:    9826 ave 9842 max 9810 min
Histogram: 1 0 0 0 0 0 0 0 0 1
Nghost:    9572 ave 9573 max 9571 min
Histogram: 1 0 0 0 0 0 0 0 0 1
Neighs:    349732 ave 350752 max 348712 min
Histogram: 1 0 0 0 0 0 0 0 0 1

Total # of neighbors = 699464
Ave neighs/atom = 35.5925
Neighbor list builds = 495
Dangerous builds not checked
Setting up Verlet run ...
  Unit style    : metal
  Current step  : 180495
  Time step     : 0.001
Per MPI rank memory allocation (min/avg/max) = 11.28 | 11.28 | 11.28 Mbytes
Step Temp Press TotEng PotEng Enthalpy 
  180495    1731.4988    27.227292   -73465.875    -77864.04   -73454.261 
  190000    1695.7435   -454.54317    -73637.16   -77944.503   -73831.021 
Loop time of 508.527 on 2 procs for 9505 steps with 19652 atoms

Performance: 1.615 ns/day, 14.861 hours/ns, 18.691 timesteps/s
98.6% CPU use with 2 MPI tasks x no OpenMP threads

MPI task timing breakdown:
Section |  min time  |  avg time  |  max time  |%varavg| %total
---------------------------------------------------------------
Pair    | 255.36     | 255.83     | 256.3      |   2.9 | 50.31
Neigh   | 217.55     | 219.6      | 221.65     |  13.8 | 43.18
Comm    | 20.83      | 23.375     | 25.921     |  52.6 |  4.60
Output  | 0.051578   | 0.051596   | 0.051615   |   0.0 |  0.01
Modify  | 7.6464     | 7.6631     | 7.6797     |   0.6 |  1.51
Other   |            | 2.004      |            |       |  0.39

Nlocal:    9826 ave 9831 max 9821 min
Histogram: 1 0 0 0 0 0 0 0 0 1
Nghost:    9540.5 ave 9560 max 9521 min
Histogram: 1 0 0 0 0 0 0 0 0 1
Neighs:    349526 ave 349595 max 349457 min
Histogram: 1 0 0 0 0 0 0 0 0 1

Total # of neighbors = 699052
Ave neighs/atom = 35.5715
Neighbor list builds = 9505
Dangerous builds not checked
Setting up Verlet run ...
  Unit style    : metal
  Current step  : 190000
  Time step     : 0.001
Per MPI rank memory allocation (min/avg/max) = 11.28 | 11.28 | 11.28 Mbytes
Step Temp Press TotEng PotEng Enthalpy 
  190000    1695.7435   -454.54317    -73637.16   -77944.503   -73831.021 
  190495    1664.1321    -637.6818   -73786.236   -78013.283   -74058.069 
Loop time of 27.2603 on 2 procs for 495 steps with 19652 atoms

Performance: 1.569 ns/day, 15.298 hours/ns, 18.158 timesteps/s
99.0% CPU use with 2 MPI tasks x no OpenMP threads

MPI task timing breakdown:
Section |  min time  |  avg time  |  max time  |%varavg| %total
---------------------------------------------------------------
Pair    | 13.791     | 13.819     | 13.846     |   0.7 | 50.69
Neigh   | 11.542     | 11.645     | 11.747     |   3.0 | 42.72
Comm    | 1.139      | 1.27       | 1.4009     |  11.6 |  4.66
Output  | 7.8201e-05 | 0.00011456 | 0.00015092 |   0.0 |  0.00
Modify  | 0.41894    | 0.42081    | 0.42268    |   0.3 |  1.54
Other   |            | 0.1061     |            |       |  0.39

Nlocal:    9826 ave 9844 max 9808 min
Histogram: 1 0 0 0 0 0 0 0 0 1
Nghost:    9560.5 ave 9568 max 9553 min
Histogram: 1 0 0 0 0 0 0 0 0 1
Neighs:    349590 ave 350567 max 348613 min
Histogram: 1 0 0 0 0 0 0 0 0 1

Total # of neighbors = 699180
Ave neighs/atom = 35.5781
Neighbor list builds = 495
Dangerous builds not checked
Setting up Verlet run ...
  Unit style    : metal
  Current step  : 190495
  Time step     : 0.001
Per MPI rank memory allocation (min/avg/max) = 11.28 | 11.28 | 11.28 Mbytes
Step Temp Press TotEng PotEng Enthalpy 
  190495    1664.1321    -637.6818   -73786.236   -78013.283   -74058.069 
  200000    1665.7721    251.31871   -73868.366   -78099.579   -73761.591 
Loop time of 511.304 on 2 procs for 9505 steps with 19652 atoms

Performance: 1.606 ns/day, 14.943 hours/ns, 18.590 timesteps/s
98.9% CPU use with 2 MPI tasks x no OpenMP threads

MPI task timing breakdown:
Section |  min time  |  avg time  |  max time  |%varavg| %total
---------------------------------------------------------------
Pair    | 258.6      | 258.74     | 258.89     |   0.9 | 50.60
Neigh   | 217.9      | 218.96     | 220.02     |   7.1 | 42.82
Comm    | 22.805     | 23.772     | 24.739     |  19.8 |  4.65
Output  | 0.059498   | 0.059516   | 0.059534   |   0.0 |  0.01
Modify  | 7.639      | 7.712      | 7.785      |   2.6 |  1.51
Other   |            | 2.055      |            |       |  0.40

Nlocal:    9826 ave 9841 max 9811 min
Histogram: 1 0 0 0 0 0 0 0 0 1
Nghost:    9608 ave 9609 max 9607 min
Histogram: 1 0 0 0 0 0 0 0 0 1
Neighs:    350370 ave 351548 max 349193 min
Histogram: 1 0 0 0 0 0 0 0 0 1

Total # of neighbors = 700741
Ave neighs/atom = 35.6575
Neighbor list builds = 9505
Dangerous builds not checked
Setting up Verlet run ...
  Unit style    : metal
  Current step  : 200000
  Time step     : 0.001
Per MPI rank memory allocation (min/avg/max) = 11.28 | 11.28 | 11.28 Mbytes
Step Temp Press TotEng PotEng Enthalpy 
  200000    1665.7721    251.31871   -73868.366   -78099.579   -73761.591 
  200495    1603.8467    140.65493   -74136.724    -78210.64   -74077.008 
Loop time of 26.8573 on 2 procs for 495 steps with 19652 atoms

Performance: 1.592 ns/day, 15.071 hours/ns, 18.431 timesteps/s
97.8% CPU use with 2 MPI tasks x no OpenMP threads

MPI task timing breakdown:
Section |  min time  |  avg time  |  max time  |%varavg| %total
---------------------------------------------------------------
Pair    | 13.208     | 13.462     | 13.717     |   6.9 | 50.13
Neigh   | 11.35      | 11.44      | 11.53      |   2.7 | 42.60
Comm    | 1.0582     | 1.4144     | 1.7707     |  30.0 |  5.27
Output  | 8.297e-05  | 0.00011241 | 0.00014186 |   0.0 |  0.00
Modify  | 0.42257    | 0.42975    | 0.43694    |   1.1 |  1.60
Other   |            | 0.1106     |            |       |  0.41

Nlocal:    9826 ave 9842 max 9810 min
Histogram: 1 0 0 0 0 0 0 0 0 1
Nghost:    9588.5 ave 9602 max 9575 min
Histogram: 1 0 0 0 0 0 0 0 0 1
Neighs:    350518 ave 351150 max 349886 min
Histogram: 1 0 0 0 0 0 0 0 0 1

Total # of neighbors = 701036
Ave neighs/atom = 35.6725
Neighbor list builds = 495
Dangerous builds not checked
Setting up Verlet run ...
  Unit style    : metal
  Current step  : 200495
  Time step     : 0.001
Per MPI rank memory allocation (min/avg/max) = 11.28 | 11.28 | 11.28 Mbytes
Step Temp Press TotEng PotEng Enthalpy 
  200495    1603.8467    140.65493   -74136.724    -78210.64   -74077.008 
  210000     1587.951   -770.29138   -74222.288   -78255.829   -74549.914 
Loop time of 505.894 on 2 procs for 9505 steps with 19652 atoms

Performance: 1.623 ns/day, 14.784 hours/ns, 18.789 timesteps/s
99.0% CPU use with 2 MPI tasks x no OpenMP threads

MPI task timing breakdown:
Section |  min time  |  avg time  |  max time  |%varavg| %total
---------------------------------------------------------------
Pair    | 253.9      | 254.41     | 254.92     |   3.2 | 50.29
Neigh   | 216.25     | 216.73     | 217.21     |   3.3 | 42.84
Comm    | 24.896     | 24.974     | 25.052     |   1.6 |  4.94
Output  | 0.075577   | 0.075603   | 0.075629   |   0.0 |  0.01
Modify  | 7.6425     | 7.6722     | 7.7019     |   1.1 |  1.52
Other   |            | 2.033      |            |       |  0.40

Nlocal:    9826 ave 9839 max 9813 min
Histogram: 1 0 0 0 0 0 0 0 0 1
Nghost:    9625 ave 9631 max 9619 min
Histogram: 1 0 0 0 0 0 0 0 0 1
Neighs:    349911 ave 350200 max 349622 min
Histogram: 1 0 0 0 0 0 0 0 0 1

Total # of neighbors = 699822
Ave neighs/atom = 35.6107
Neighbor list builds = 9505
Dangerous builds not checked
Setting up Verlet run ...
  Unit style    : metal
  Current step  : 210000
  Time step     : 0.001
Per MPI rank memory allocation (min/avg/max) = 11.28 | 11.28 | 11.28 Mbytes
Step Temp Press TotEng PotEng Enthalpy 
  210000     1587.951   -770.29138   -74222.288   -78255.829   -74549.914 
  210495    1553.9982   -277.05348   -74476.463    -78423.76   -74593.938 
Loop time of 26.0902 on 2 procs for 495 steps with 19652 atoms

Performance: 1.639 ns/day, 14.641 hours/ns, 18.973 timesteps/s
99.3% CPU use with 2 MPI tasks x no OpenMP threads

MPI task timing breakdown:
Section |  min time  |  avg time  |  max time  |%varavg| %total
---------------------------------------------------------------
Pair    | 12.968     | 13.18      | 13.391     |   5.8 | 50.52
Neigh   | 10.891     | 11.03      | 11.17      |   4.2 | 42.28
Comm    | 1.3113     | 1.3768     | 1.4423     |   5.6 |  5.28
Output  | 8.6069e-05 | 0.00010645 | 0.00012684 |   0.0 |  0.00
Modify  | 0.39555    | 0.3985     | 0.40146    |   0.5 |  1.53
Other   |            | 0.1046     |            |       |  0.40

Nlocal:    9826 ave 9834 max 9818 min
Histogram: 1 0 0 0 0 0 0 0 0 1
Nghost:    9587 ave 9595 max 9579 min
Histogram: 1 0 0 0 0 0 0 0 0 1
Neighs:    350838 ave 351415 max 350260 min
Histogram: 1 0 0 0 0 0 0 0 0 1

Total # of neighbors = 701675
Ave neighs/atom = 35.705
Neighbor list builds = 495
Dangerous builds not checked
Setting up Verlet run ...
  Unit style    : metal
  Current step  : 210495
  Time step     : 0.001
Per MPI rank memory allocation (min/avg/max) = 11.28 | 11.28 | 11.28 Mbytes
Step Temp Press TotEng PotEng Enthalpy 
  210495    1553.9982   -277.05348   -74476.463    -78423.76   -74593.938 
  220000    1540.3219   -18.616043   -74573.922    -78486.48   -74581.801 
Loop time of 498.641 on 2 procs for 9505 steps with 19652 atoms

Performance: 1.647 ns/day, 14.572 hours/ns, 19.062 timesteps/s
99.2% CPU use with 2 MPI tasks x no OpenMP threads

MPI task timing breakdown:
Section |  min time  |  avg time  |  max time  |%varavg| %total
---------------------------------------------------------------
Pair    | 249.54     | 250.63     | 251.73     |   6.9 | 50.26
Neigh   | 214.03     | 215.95     | 217.87     |  13.1 | 43.31
Comm    | 21.482     | 22.397     | 23.313     |  19.3 |  4.49
Output  | 0.054778   | 0.054805   | 0.054831   |   0.0 |  0.01
Modify  | 7.5894     | 7.6147     | 7.64       |   0.9 |  1.53
Other   |            | 1.987      |            |       |  0.40

Nlocal:    9826 ave 9838 max 9814 min
Histogram: 1 0 0 0 0 0 0 0 0 1
Nghost:    9542.5 ave 9559 max 9526 min
Histogram: 1 0 0 0 0 0 0 0 0 1
Neighs:    351120 ave 351596 max 350643 min
Histogram: 1 0 0 0 0 0 0 0 0 1

Total # of neighbors = 702239
Ave neighs/atom = 35.7337
Neighbor list builds = 9505
Dangerous builds not checked
Setting up Verlet run ...
  Unit style    : metal
  Current step  : 220000
  Time step     : 0.001
Per MPI rank memory allocation (min/avg/max) = 11.28 | 11.28 | 11.28 Mbytes
Step Temp Press TotEng PotEng Enthalpy 
  220000    1540.3219   -18.616043   -74573.922    -78486.48   -74581.801 
  220495    1510.8526     191.5103   -74793.736   -78631.439   -74712.841 
Loop time of 25.2879 on 2 procs for 495 steps with 19652 atoms

Performance: 1.691 ns/day, 14.191 hours/ns, 19.575 timesteps/s
99.8% CPU use with 2 MPI tasks x no OpenMP threads

MPI task timing breakdown:
Section |  min time  |  avg time  |  max time  |%varavg| %total
---------------------------------------------------------------
Pair    | 12.637     | 12.641     | 12.646     |   0.1 | 49.99
Neigh   | 10.296     | 10.846     | 11.396     |  16.7 | 42.89
Comm    | 0.74123    | 1.3153     | 1.8893     |  50.1 |  5.20
Output  | 7.5817e-05 | 9.6917e-05 | 0.00011802 |   0.0 |  0.00
Modify  | 0.36391    | 0.38267    | 0.40143    |   3.0 |  1.51
Other   |            | 0.1026     |            |       |  0.41

Nlocal:    9826 ave 9840 max 9812 min
Histogram: 1 0 0 0 0 0 0 0 0 1
Nghost:    9573.5 ave 9599 max 9548 min
Histogram: 1 0 0 0 0 0 0 0 0 1
Neighs:    351503 ave 352181 max 350825 min
Histogram: 1 0 0 0 0 0 0 0 0 1

Total # of neighbors = 703006
Ave neighs/atom = 35.7727
Neighbor list builds = 495
Dangerous builds not checked
Setting up Verlet run ...
  Unit style    : metal
  Current step  : 220495
  Time step     : 0.001
Per MPI rank memory allocation (min/avg/max) = 11.28 | 11.28 | 11.28 Mbytes
Step Temp Press TotEng PotEng Enthalpy 
  220495    1510.8526     191.5103   -74793.736   -78631.439   -74712.841 
  230000    1501.3356    -520.6868   -74940.148   -78753.677   -75160.356 
Loop time of 545.605 on 2 procs for 9505 steps with 19652 atoms

Performance: 1.505 ns/day, 15.945 hours/ns, 17.421 timesteps/s
94.9% CPU use with 2 MPI tasks x no OpenMP threads

MPI task timing breakdown:
Section |  min time  |  avg time  |  max time  |%varavg| %total
---------------------------------------------------------------
Pair    | 277.93     | 278.94     | 279.94     |   6.0 | 51.12
Neigh   | 216.05     | 216.39     | 216.73     |   2.3 | 39.66
Comm    | 35.546     | 36.219     | 36.893     |  11.2 |  6.64
Output  | 0.091043   | 0.091057   | 0.091071   |   0.0 |  0.02
Modify  | 11.902     | 11.919     | 11.936     |   0.5 |  2.18
Other   |            | 2.044      |            |       |  0.37

Nlocal:    9826 ave 9831 max 9821 min
Histogram: 1 0 0 0 0 0 0 0 0 1
Nghost:    9595 ave 9608 max 9582 min
Histogram: 1 0 0 0 0 0 0 0 0 1
Neighs:    350705 ave 350991 max 350419 min
Histogram: 1 0 0 0 0 0 0 0 0 1

Total # of neighbors = 701410
Ave neighs/atom = 35.6915
Neighbor list builds = 9505
Dangerous builds not checked
Setting up Verlet run ...
  Unit style    : metal
  Current step  : 230000
  Time step     : 0.001
Per MPI rank memory allocation (min/avg/max) = 11.28 | 11.28 | 11.28 Mbytes
Step Temp Press TotEng PotEng Enthalpy 
  230000    1501.3356    -520.6868   -74940.148   -78753.677   -75160.356 
  230495    1463.1115   -442.84529   -75132.583    -78849.02     -75319.6 
Loop time of 28.2824 on 2 procs for 495 steps with 19652 atoms

Performance: 1.512 ns/day, 15.871 hours/ns, 17.502 timesteps/s
97.3% CPU use with 2 MPI tasks x no OpenMP threads

MPI task timing breakdown:
Section |  min time  |  avg time  |  max time  |%varavg| %total
---------------------------------------------------------------
Pair    | 13.669     | 13.926     | 14.182     |   6.9 | 49.24
Neigh   | 10.364     | 11.131     | 11.898     |  23.0 | 39.36
Comm    | 2.1749     | 2.7122     | 3.2495     |  32.6 |  9.59
Output  | 7.7009e-05 | 0.000103   | 0.00012898 |   0.0 |  0.00
Modify  | 0.38942    | 0.40589    | 0.42237    |   2.6 |  1.44
Other   |            | 0.1077     |            |       |  0.38

Nlocal:    9826 ave 9847 max 9805 min
Histogram: 1 0 0 0 0 0 0 0 0 1
Nghost:    9569 ave 9605 max 9533 min
Histogram: 1 0 0 0 0 0 0 0 0 1
Neighs:    351216 ave 351852 max 350579 min
Histogram: 1 0 0 0 0 0 0 0 0 1

Total # of neighbors = 702431
Ave neighs/atom = 35.7435
Neighbor list builds = 495
Dangerous builds not checked
Setting up Verlet run ...
  Unit style    : metal
  Current step  : 230495
  Time step     : 0.001
Per MPI rank memory allocation (min/avg/max) = 11.28 | 11.28 | 11.28 Mbytes
Step Temp Press TotEng PotEng Enthalpy 
  230495    1463.1115   -442.84529   -75132.583    -78849.02     -75319.6 
  240000    1452.6772    -469.9798    -75265.66   -78955.593   -75463.942 
Loop time of 541.941 on 2 procs for 9505 steps with 19652 atoms

Performance: 1.515 ns/day, 15.838 hours/ns, 17.539 timesteps/s
97.0% CPU use with 2 MPI tasks x no OpenMP threads

MPI task timing breakdown:
Section |  min time  |  avg time  |  max time  |%varavg| %total
---------------------------------------------------------------
Pair    | 269.91     | 272.75     | 275.59     |  17.2 | 50.33
Neigh   | 220.73     | 220.82     | 220.91     |   0.6 | 40.75
Comm    | 35.309     | 38.284     | 41.26      |  48.1 |  7.06
Output  | 0.046956   | 0.046964   | 0.046972   |   0.0 |  0.01
Modify  | 7.8605     | 7.9141     | 7.9677     |   1.9 |  1.46
Other   |            | 2.133      |            |       |  0.39

Nlocal:    9826 ave 9845 max 9807 min
Histogram: 1 0 0 0 0 0 0 0 0 1
Nghost:    9588.5 ave 9598 max 9579 min
Histogram: 1 0 0 0 0 0 0 0 0 1
Neighs:    351250 ave 352009 max 350490 min
Histogram: 1 0 0 0 0 0 0 0 0 1

Total # of neighbors = 702499
Ave neighs/atom = 35.7469
Neighbor list builds = 9505
Dangerous builds not checked
Setting up Verlet run ...
  Unit style    : metal
  Current step  : 240000
  Time step     : 0.001
Per MPI rank memory allocation (min/avg/max) = 11.28 | 11.28 | 11.28 Mbytes
Step Temp Press TotEng PotEng Enthalpy 
  240000    1452.6772    -469.9798    -75265.66   -78955.593   -75463.942 
  240495    1404.0143   -135.58196   -75478.655    -79044.98   -75535.705 
Loop time of 26.2008 on 2 procs for 495 steps with 19652 atoms

Performance: 1.632 ns/day, 14.703 hours/ns, 18.893 timesteps/s
99.6% CPU use with 2 MPI tasks x no OpenMP threads

MPI task timing breakdown:
Section |  min time  |  avg time  |  max time  |%varavg| %total
---------------------------------------------------------------
Pair    | 13.19      | 13.248     | 13.306     |   1.6 | 50.56
Neigh   | 10.999     | 11.321     | 11.643     |   9.6 | 43.21
Comm    | 0.84782    | 1.1167     | 1.3857     |  25.4 |  4.26
Output  | 7.391e-05  | 9.6917e-05 | 0.00011992 |   0.0 |  0.00
Modify  | 0.39657    | 0.40132    | 0.40607    |   0.8 |  1.53
Other   |            | 0.1133     |            |       |  0.43

Nlocal:    9826 ave 9835 max 9817 min
Histogram: 1 0 0 0 0 0 0 0 0 1
Nghost:    9601.5 ave 9630 max 9573 min
Histogram: 1 0 0 0 0 0 0 0 0 1
Neighs:    351808 ave 352174 max 351441 min
Histogram: 1 0 0 0 0 0 0 0 0 1

Total # of neighbors = 703615
Ave neighs/atom = 35.8037
Neighbor list builds = 495
Dangerous builds not checked
Setting up Verlet run ...
  Unit style    : metal
  Current step  : 240495
  Time step     : 0.001
Per MPI rank memory allocation (min/avg/max) = 11.28 | 11.28 | 11.28 Mbytes
Step Temp Press TotEng PotEng Enthalpy 
  240495    1404.0143   -135.58196   -75478.655    -79044.98   -75535.705 
  250000    1400.6469    316.63865   -75593.099   -79150.869   -75460.118 
Loop time of 525.291 on 2 procs for 9505 steps with 19652 atoms

Performance: 1.563 ns/day, 15.351 hours/ns, 18.095 timesteps/s
97.3% CPU use with 2 MPI tasks x no OpenMP threads

MPI task timing breakdown:
Section |  min time  |  avg time  |  max time  |%varavg| %total
---------------------------------------------------------------
Pair    | 266.17     | 266.42     | 266.68     |   1.6 | 50.72
Neigh   | 214.26     | 216.27     | 218.28     |  13.7 | 41.17
Comm    | 30.794     | 32.651     | 34.507     |  32.5 |  6.22
Output  | 0.25546    | 0.25546    | 0.25547    |   0.0 |  0.05
Modify  | 7.5974     | 7.652      | 7.7067     |   2.0 |  1.46
Other   |            | 2.043      |            |       |  0.39

Nlocal:    9826 ave 9837 max 9815 min
Histogram: 1 0 0 0 0 0 0 0 0 1
Nghost:    9608 ave 9627 max 9589 min
Histogram: 1 0 0 0 0 0 0 0 0 1
Neighs:    352371 ave 353245 max 351497 min
Histogram: 1 0 0 0 0 0 0 0 0 1

Total # of neighbors = 704742
Ave neighs/atom = 35.8611
Neighbor list builds = 9505
Dangerous builds not checked
Setting up Verlet run ...
  Unit style    : metal
  Current step  : 250000
  Time step     : 0.001
Per MPI rank memory allocation (min/avg/max) = 11.28 | 11.29 | 11.29 Mbytes
Step Temp Press TotEng PotEng Enthalpy 
  250000    1400.6469    316.63865   -75593.099   -79150.869   -75460.118 
  250495    1359.7845    78.253423   -75817.335   -79271.311   -75784.511 
Loop time of 30.842 on 2 procs for 495 steps with 19652 atoms

Performance: 1.387 ns/day, 17.308 hours/ns, 16.050 timesteps/s
92.0% CPU use with 2 MPI tasks x no OpenMP threads

MPI task timing breakdown:
Section |  min time  |  avg time  |  max time  |%varavg| %total
---------------------------------------------------------------
Pair    | 17.341     | 17.416     | 17.491     |   1.8 | 56.47
Neigh   | 10.925     | 11.326     | 11.727     |  11.9 | 36.72
Comm    | 1.0522     | 1.5493     | 2.0463     |  39.9 |  5.02
Output  | 8.6069e-05 | 0.00010753 | 0.00012898 |   0.0 |  0.00
Modify  | 0.42119    | 0.43671    | 0.45223    |   2.3 |  1.42
Other   |            | 0.1141     |            |       |  0.37

Nlocal:    9826 ave 9835 max 9817 min
Histogram: 1 0 0 0 0 0 0 0 0 1
Nghost:    9641.5 ave 9657 max 9626 min
Histogram: 1 0 0 0 0 0 0 0 0 1
Neighs:    352707 ave 352810 max 352604 min
Histogram: 1 0 0 0 0 0 0 0 0 1

Total # of neighbors = 705414
Ave neighs/atom = 35.8953
Neighbor list builds = 495
Dangerous builds not checked
Setting up Verlet run ...
  Unit style    : metal
  Current step  : 250495
  Time step     : 0.001
Per MPI rank memory allocation (min/avg/max) = 11.28 | 11.29 | 11.29 Mbytes
Step Temp Press TotEng PotEng Enthalpy 
  250495    1359.7845    78.253423   -75817.335   -79271.311   -75784.511 
  260000    1350.1291   -634.23644   -75899.664   -79329.115   -76166.123 
Loop time of 534.509 on 2 procs for 9505 steps with 19652 atoms

Performance: 1.536 ns/day, 15.621 hours/ns, 17.783 timesteps/s
97.5% CPU use with 2 MPI tasks x no OpenMP threads

MPI task timing breakdown:
Section |  min time  |  avg time  |  max time  |%varavg| %total
---------------------------------------------------------------
Pair    | 270.74     | 271.5      | 272.26     |   4.6 | 50.79
Neigh   | 218.93     | 219.89     | 220.84     |   6.4 | 41.14
Comm    | 31.249     | 33.005     | 34.76      |  30.6 |  6.17
Output  | 0.18667    | 0.18669    | 0.1867     |   0.0 |  0.03
Modify  | 7.8169     | 7.8241     | 7.8313     |   0.3 |  1.46
Other   |            | 2.103      |            |       |  0.39

Nlocal:    9826 ave 9844 max 9808 min
Histogram: 1 0 0 0 0 0 0 0 0 1
Nghost:    9611.5 ave 9626 max 9597 min
Histogram: 1 0 0 0 0 0 0 0 0 1
Neighs:    352020 ave 353168 max 350873 min
Histogram: 1 0 0 0 0 0 0 0 0 1

Total # of neighbors = 704041
Ave neighs/atom = 35.8254
Neighbor list builds = 9505
Dangerous builds not checked
Setting up Verlet run ...
  Unit style    : metal
  Current step  : 260000
  Time step     : 0.001
Per MPI rank memory allocation (min/avg/max) = 11.29 | 11.29 | 11.29 Mbytes
Step Temp Press TotEng PotEng Enthalpy 
  260000    1350.1291   -634.23644   -75899.664   -79329.115   -76166.123 
  260495    1313.3333   -437.61155   -76140.171   -79476.157   -76323.646 
Loop time of 26.2538 on 2 procs for 495 steps with 19652 atoms

Performance: 1.629 ns/day, 14.733 hours/ns, 18.854 timesteps/s
99.2% CPU use with 2 MPI tasks x no OpenMP threads

MPI task timing breakdown:
Section |  min time  |  avg time  |  max time  |%varavg| %total
---------------------------------------------------------------
Pair    | 13.047     | 13.175     | 13.303     |   3.5 | 50.18
Neigh   | 11.175     | 11.344     | 11.514     |   5.0 | 43.21
Comm    | 0.90569    | 1.2078     | 1.5099     |  27.5 |  4.60
Output  | 8.1062e-05 | 0.00010407 | 0.00012708 |   0.0 |  0.00
Modify  | 0.41771    | 0.4222     | 0.4267     |   0.7 |  1.61
Other   |            | 0.1043     |            |       |  0.40

Nlocal:    9826 ave 9836 max 9816 min
Histogram: 1 0 0 0 0 0 0 0 0 1
Nghost:    9607.5 ave 9614 max 9601 min
Histogram: 1 0 0 0 0 0 0 0 0 1
Neighs:    352378 ave 353259 max 351497 min
Histogram: 1 0 0 0 0 0 0 0 0 1

Total # of neighbors = 704756
Ave neighs/atom = 35.8618
Neighbor list builds = 495
Dangerous builds not checked
Setting up Verlet run ...
  Unit style    : metal
  Current step  : 260495
  Time step     : 0.001
Per MPI rank memory allocation (min/avg/max) = 11.29 | 11.29 | 11.29 Mbytes
Step Temp Press TotEng PotEng Enthalpy 
  260495    1313.3333   -437.61155   -76140.171   -79476.157   -76323.646 
  270000    1305.3074    734.52514   -76303.226   -79618.826   -75996.836 
Loop time of 515.76 on 2 procs for 9505 steps with 19652 atoms

Performance: 1.592 ns/day, 15.073 hours/ns, 18.429 timesteps/s
97.0% CPU use with 2 MPI tasks x no OpenMP threads

MPI task timing breakdown:
Section |  min time  |  avg time  |  max time  |%varavg| %total
---------------------------------------------------------------
Pair    | 265.38     | 267.29     | 269.19     |  11.7 | 51.82
Neigh   | 207.81     | 208.4      | 209        |   4.1 | 40.41
Comm    | 28.158     | 30.702     | 33.245     |  45.9 |  5.95
Output  | 0.051582   | 0.051607   | 0.051632   |   0.0 |  0.01
Modify  | 7.3484     | 7.3496     | 7.3509     |   0.0 |  1.43
Other   |            | 1.965      |            |       |  0.38

Nlocal:    9826 ave 9845 max 9807 min
Histogram: 1 0 0 0 0 0 0 0 0 1
Nghost:    9659.5 ave 9668 max 9651 min
Histogram: 1 0 0 0 0 0 0 0 0 1
Neighs:    353926 ave 354815 max 353037 min
Histogram: 1 0 0 0 0 0 0 0 0 1

Total # of neighbors = 707852
Ave neighs/atom = 36.0193
Neighbor list builds = 9505
Dangerous builds not checked
Setting up Verlet run ...
  Unit style    : metal
  Current step  : 270000
  Time step     : 0.001
Per MPI rank memory allocation (min/avg/max) = 11.29 | 11.29 | 11.29 Mbytes
Step Temp Press TotEng PotEng Enthalpy 
  270000    1305.3074    734.52514   -76303.226   -79618.826   -75996.836 
  270495    1269.9552    657.64901   -76496.177   -79721.979       -76222 
Loop time of 25.8391 on 2 procs for 495 steps with 19652 atoms

Performance: 1.655 ns/day, 14.500 hours/ns, 19.157 timesteps/s
98.6% CPU use with 2 MPI tasks x no OpenMP threads

MPI task timing breakdown:
Section |  min time  |  avg time  |  max time  |%varavg| %total
---------------------------------------------------------------
Pair    | 12.8       | 13.041     | 13.283     |   6.7 | 50.47
Neigh   | 10.772     | 11.111     | 11.449     |  10.2 | 43.00
Comm    | 1.0668     | 1.1752     | 1.2836     |  10.0 |  4.55
Output  | 8.9169e-05 | 0.00010717 | 0.00012517 |   0.0 |  0.00
Modify  | 0.39369    | 0.39947    | 0.40526    |   0.9 |  1.55
Other   |            | 0.1124     |            |       |  0.43

Nlocal:    9826 ave 9833 max 9819 min
Histogram: 1 0 0 0 0 0 0 0 0 1
Nghost:    9609.5 ave 9613 max 9606 min
Histogram: 1 0 0 0 0 0 0 0 0 1
Neighs:    353848 ave 354428 max 353267 min
Histogram: 1 0 0 0 0 0 0 0 0 1

Total # of neighbors = 707695
Ave neighs/atom = 36.0113
Neighbor list builds = 495
Dangerous builds not checked
Setting up Verlet run ...
  Unit style    : metal
  Current step  : 270495
  Time step     : 0.001
Per MPI rank memory allocation (min/avg/max) = 11.29 | 11.29 | 11.29 Mbytes
Step Temp Press TotEng PotEng Enthalpy 
  270495    1269.9552    657.64901   -76496.177   -79721.979       -76222 
  280000    1238.5067     145.5059   -76659.335   -79805.255   -76598.621 
Loop time of 494.589 on 2 procs for 9505 steps with 19652 atoms

Performance: 1.660 ns/day, 14.454 hours/ns, 19.218 timesteps/s
99.3% CPU use with 2 MPI tasks x no OpenMP threads

MPI task timing breakdown:
Section |  min time  |  avg time  |  max time  |%varavg| %total
---------------------------------------------------------------
Pair    | 248.22     | 249.28     | 250.35     |   6.8 | 50.40
Neigh   | 204.65     | 210.62     | 216.58     |  41.1 | 42.58
Comm    | 17.909     | 25.165     | 32.421     | 144.6 |  5.09
Output  | 0.050761   | 0.050785   | 0.050809   |   0.0 |  0.01
Modify  | 7.4093     | 7.5494     | 7.6895     |   5.1 |  1.53
Other   |            | 1.924      |            |       |  0.39

Nlocal:    9826 ave 9833 max 9819 min
Histogram: 1 0 0 0 0 0 0 0 0 1
Nghost:    9641 ave 9649 max 9633 min
Histogram: 1 0 0 0 0 0 0 0 0 1
Neighs:    352895 ave 353170 max 352620 min
Histogram: 1 0 0 0 0 0 0 0 0 1

Total # of neighbors = 705790
Ave neighs/atom = 35.9144
Neighbor list builds = 9505
Dangerous builds not checked
Setting up Verlet run ...
  Unit style    : metal
  Current step  : 280000
  Time step     : 0.001
Per MPI rank memory allocation (min/avg/max) = 11.29 | 11.29 | 11.29 Mbytes
Step Temp Press TotEng PotEng Enthalpy 
  280000    1238.5067     145.5059   -76659.335   -79805.255   -76598.621 
  280495     1213.144     221.0729   -76819.815   -79901.311   -76727.685 
Loop time of 26.3354 on 2 procs for 495 steps with 19652 atoms

Performance: 1.624 ns/day, 14.779 hours/ns, 18.796 timesteps/s
99.2% CPU use with 2 MPI tasks x no OpenMP threads

MPI task timing breakdown:
Section |  min time  |  avg time  |  max time  |%varavg| %total
---------------------------------------------------------------
Pair    | 13.307     | 13.417     | 13.526     |   3.0 | 50.95
Neigh   | 10.078     | 10.77      | 11.463     |  21.1 | 40.90
Comm    | 0.82436    | 1.6568     | 2.4893     |  64.7 |  6.29
Output  | 7.6056e-05 | 0.000126   | 0.00017595 |   0.0 |  0.00
Modify  | 0.36227    | 0.3886     | 0.41492    |   4.2 |  1.48
Other   |            | 0.1029     |            |       |  0.39

Nlocal:    9826 ave 9826 max 9826 min
Histogram: 2 0 0 0 0 0 0 0 0 0
Nghost:    9677 ave 9684 max 9670 min
Histogram: 1 0 0 0 0 0 0 0 0 1
Neighs:    353398 ave 353634 max 353163 min
Histogram: 1 0 0 0 0 0 0 0 0 1

Total # of neighbors = 706797
Ave neighs/atom = 35.9657
Neighbor list builds = 495
Dangerous builds not checked
Setting up Verlet run ...
  Unit style    : metal
  Current step  : 280495
  Time step     : 0.001
Per MPI rank memory allocation (min/avg/max) = 11.29 | 11.29 | 11.29 Mbytes
Step Temp Press TotEng PotEng Enthalpy 
  280495     1213.144     221.0729   -76819.815   -79901.311   -76727.685 
  290000    1197.7031    790.25109   -76958.478   -80000.753   -76630.103 
Loop time of 535.04 on 2 procs for 9505 steps with 19652 atoms

Performance: 1.535 ns/day, 15.636 hours/ns, 17.765 timesteps/s
96.3% CPU use with 2 MPI tasks x no OpenMP threads

MPI task timing breakdown:
Section |  min time  |  avg time  |  max time  |%varavg| %total
---------------------------------------------------------------
Pair    | 282.05     | 282.39     | 282.74     |   2.1 | 52.78
Neigh   | 215.51     | 216.32     | 217.14     |   5.5 | 40.43
Comm    | 25.348     | 26.554     | 27.76      |  23.4 |  4.96
Output  | 0.055235   | 0.055254   | 0.055273   |   0.0 |  0.01
Modify  | 7.6241     | 7.7091     | 7.7942     |   3.1 |  1.44
Other   |            | 2.006      |            |       |  0.37

Nlocal:    9826 ave 9833 max 9819 min
Histogram: 1 0 0 0 0 0 0 0 0 1
Nghost:    9687 ave 9690 max 9684 min
Histogram: 1 0 0 0 0 0 0 0 0 1
Neighs:    353981 ave 354426 max 353536 min
Histogram: 1 0 0 0 0 0 0 0 0 1

Total # of neighbors = 707962
Ave neighs/atom = 36.0249
Neighbor list builds = 9505
Dangerous builds not checked
Setting up Verlet run ...
  Unit style    : metal
  Current step  : 290000
  Time step     : 0.001
Per MPI rank memory allocation (min/avg/max) = 11.29 | 11.29 | 11.29 Mbytes
Step Temp Press TotEng PotEng Enthalpy 
  290000    1197.7031    790.25109   -76958.478   -80000.753   -76630.103 
  290495    1152.4315    311.05794   -77152.044   -80079.325   -77022.785 
Loop time of 26.9506 on 2 procs for 495 steps with 19652 atoms

Performance: 1.587 ns/day, 15.124 hours/ns, 18.367 timesteps/s
94.8% CPU use with 2 MPI tasks x no OpenMP threads

MPI task timing breakdown:
Section |  min time  |  avg time  |  max time  |%varavg| %total
---------------------------------------------------------------
Pair    | 13.461     | 13.551     | 13.642     |   2.5 | 50.28
Neigh   | 11.364     | 11.645     | 11.925     |   8.2 | 43.21
Comm    | 0.99709    | 1.1991     | 1.4011     |  18.4 |  4.45
Output  | 7.4863e-05 | 0.00011289 | 0.00015092 |   0.0 |  0.00
Modify  | 0.44167    | 0.4482     | 0.45473    |   1.0 |  1.66
Other   |            | 0.107      |            |       |  0.40

Nlocal:    9826 ave 9833 max 9819 min
Histogram: 1 0 0 0 0 0 0 0 0 1
Nghost:    9676.5 ave 9693 max 9660 min
Histogram: 1 0 0 0 0 0 0 0 0 1
Neighs:    353836 ave 354092 max 353581 min
Histogram: 1 0 0 0 0 0 0 0 0 1

Total # of neighbors = 707673
Ave neighs/atom = 36.0102
Neighbor list builds = 495
Dangerous builds not checked
Setting up Verlet run ...
  Unit style    : metal
  Current step  : 290495
  Time step     : 0.001
Per MPI rank memory allocation (min/avg/max) = 11.29 | 11.29 | 11.29 Mbytes
Step Temp Press TotEng PotEng Enthalpy 
  290495    1152.4315    311.05794   -77152.044   -80079.325   -77022.785 
  300000    1153.8488    155.60559   -77327.128   -80258.009   -77262.533 
Loop time of 512.965 on 2 procs for 9505 steps with 19652 atoms

Performance: 1.601 ns/day, 14.991 hours/ns, 18.530 timesteps/s
98.8% CPU use with 2 MPI tasks x no OpenMP threads

MPI task timing breakdown:
Section |  min time  |  avg time  |  max time  |%varavg| %total
---------------------------------------------------------------
Pair    | 260.41     | 260.97     | 261.54     |   3.5 | 50.88
Neigh   | 214.34     | 217.8      | 221.25     |  23.4 | 42.46
Comm    | 21.182     | 24.194     | 27.206     |  61.2 |  4.72
Output  | 0.051107   | 0.051131   | 0.051155   |   0.0 |  0.01
Modify  | 7.7846     | 7.8646     | 7.9447     |   2.9 |  1.53
Other   |            | 2.084      |            |       |  0.41

Nlocal:    9826 ave 9827 max 9825 min
Histogram: 1 0 0 0 0 0 0 0 0 1
Nghost:    9622.5 ave 9646 max 9599 min
Histogram: 1 0 0 0 0 0 0 0 0 1
Neighs:    353711 ave 353723 max 353699 min
Histogram: 1 0 0 0 0 0 0 0 0 1

Total # of neighbors = 707422
Ave neighs/atom = 35.9975
Neighbor list builds = 9505
Dangerous builds not checked
Setting up Verlet run ...
  Unit style    : metal
  Current step  : 300000
  Time step     : 0.001
Per MPI rank memory allocation (min/avg/max) = 11.29 | 11.29 | 11.29 Mbytes
Step Temp Press TotEng PotEng Enthalpy 
  300000    1153.8488    155.60559   -77327.128   -80258.009   -77262.533 
  300495    1113.8857    197.58439   -77518.627   -80347.998   -77436.673 
Loop time of 25.8596 on 2 procs for 495 steps with 19652 atoms

[...]
Histogram: 1 0 0 0 0 0 0 0 0 1
Nghost:    9872.5 ave 9886 max 9859 min
Histogram: 1 0 0 0 0 0 0 0 0 1
Neighs:    349800 ave 350128 max 349473 min
Histogram: 1 0 0 0 0 0 0 0 0 1

Total # of neighbors = 699601
Ave neighs/atom = 35.5995
Neighbor list builds = 9505
Dangerous builds not checked
Setting up Verlet run ...
  Unit style    : metal
  Current step  : 440000
  Time step     : 0.001
Per MPI rank memory allocation (min/avg/max) = 11.29 | 11.29 | 11.29 Mbytes
Step Temp Press TotEng PotEng Enthalpy 
  440000    448.97567    202.66366   -82460.552   -83600.991   -82379.928 
  440495    417.93792    358.40577   -82606.341   -83667.941   -82463.994 
Loop time of 24.1986 on 2 procs for 495 steps with 19652 atoms

Performance: 1.767 ns/day, 13.579 hours/ns, 20.456 timesteps/s
99.8% CPU use with 2 MPI tasks x no OpenMP threads

MPI task timing breakdown:
Section |  min time  |  avg time  |  max time  |%varavg| %total
---------------------------------------------------------------
Pair    | 12.194     | 12.248     | 12.303     |   1.6 | 50.62
Neigh   | 8.9483     | 9.9645     | 10.981     |  32.2 | 41.18
Comm    | 0.52291    | 1.5266     | 2.5304     |  81.2 |  6.31
Output  | 8.6069e-05 | 0.00013101 | 0.00017595 |   0.0 |  0.00
Modify  | 0.33664    | 0.36378    | 0.39093    |   4.5 |  1.50
Other   |            | 0.09517    |            |       |  0.39

Nlocal:    9826 ave 9867 max 9785 min
Histogram: 1 0 0 0 0 0 0 0 0 1
Nghost:    9878.5 ave 9890 max 9867 min
Histogram: 1 0 0 0 0 0 0 0 0 1
Neighs:    349836 ave 350263 max 349409 min
Histogram: 1 0 0 0 0 0 0 0 0 1

Total # of neighbors = 699672
Ave neighs/atom = 35.6031
Neighbor list builds = 495
Dangerous builds not checked
Setting up Verlet run ...
  Unit style    : metal
  Current step  : 440495
  Time step     : 0.001
Per MPI rank memory allocation (min/avg/max) = 11.29 | 11.29 | 11.29 Mbytes
Step Temp Press TotEng PotEng Enthalpy 
  440495    417.93792    358.40577   -82606.341   -83667.941   -82463.994 
  450000    401.37175    439.45739   -82805.826   -83825.346   -82631.801 
Loop time of 472.581 on 2 procs for 9505 steps with 19652 atoms

Performance: 1.738 ns/day, 13.811 hours/ns, 20.113 timesteps/s
98.9% CPU use with 2 MPI tasks x no OpenMP threads

MPI task timing breakdown:
Section |  min time  |  avg time  |  max time  |%varavg| %total
---------------------------------------------------------------
Pair    | 235.8      | 237.99     | 240.19     |  14.2 | 50.36
Neigh   | 198.94     | 199.91     | 200.87     |   6.9 | 42.30
Comm    | 23.75      | 24.979     | 26.209     |  24.6 |  5.29
Output  | 0.38488    | 0.38489    | 0.3849     |   0.0 |  0.08
Modify  | 7.3194     | 7.3396     | 7.3598     |   0.7 |  1.55
Other   |            | 1.979      |            |       |  0.42

Nlocal:    9826 ave 9860 max 9792 min
Histogram: 1 0 0 0 0 0 0 0 0 1
Nghost:    9893.5 ave 9900 max 9887 min
Histogram: 1 0 0 0 0 0 0 0 0 1
Neighs:    349182 ave 349835 max 348529 min
Histogram: 1 0 0 0 0 0 0 0 0 1

Total # of neighbors = 698364
Ave neighs/atom = 35.5365
Neighbor list builds = 9505
Dangerous builds not checked
Setting up Verlet run ...
  Unit style    : metal
  Current step  : 450000
  Time step     : 0.001
Per MPI rank memory allocation (min/avg/max) = 11.29 | 11.29 | 11.29 Mbytes
Step Temp Press TotEng PotEng Enthalpy 
  450000    401.37175    439.45739   -82805.826   -83825.346   -82631.801 
  450495    373.21273    304.48833    -82949.58   -83897.574   -82829.116 
Loop time of 22.0484 on 2 procs for 495 steps with 19652 atoms

Performance: 1.940 ns/day, 12.373 hours/ns, 22.451 timesteps/s
99.4% CPU use with 2 MPI tasks x no OpenMP threads

MPI task timing breakdown:
Section |  min time  |  avg time  |  max time  |%varavg| %total
---------------------------------------------------------------
Pair    | 10.933     | 10.967     | 11.001     |   1.0 | 49.74
Neigh   | 8.5646     | 9.3347     | 10.105     |  25.2 | 42.34
Comm    | 0.46117    | 1.3062     | 2.1512     |  73.9 |  5.92
Output  | 5.9843e-05 | 7.1406e-05 | 8.297e-05  |   0.0 |  0.00
Modify  | 0.32309    | 0.3439     | 0.3647     |   3.5 |  1.56
Other   |            | 0.09659    |            |       |  0.44

Nlocal:    9826 ave 9858 max 9794 min
Histogram: 1 0 0 0 0 0 0 0 0 1
Nghost:    9906 ave 9926 max 9886 min
Histogram: 1 0 0 0 0 0 0 0 0 1
Neighs:    348872 ave 349102 max 348642 min
Histogram: 1 0 0 0 0 0 0 0 0 1

Total # of neighbors = 697744
Ave neighs/atom = 35.505
Neighbor list builds = 495
Dangerous builds not checked
Setting up Verlet run ...
  Unit style    : metal
  Current step  : 450495
  Time step     : 0.001
Per MPI rank memory allocation (min/avg/max) = 11.29 | 11.29 | 11.29 Mbytes
Step Temp Press TotEng PotEng Enthalpy 
  450495    373.21273    304.48833    -82949.58   -83897.574   -82829.116 
  460000    346.30381   -138.01192   -83182.076   -84061.719   -83236.555 
Loop time of 465.657 on 2 procs for 9505 steps with 19652 atoms

Performance: 1.764 ns/day, 13.609 hours/ns, 20.412 timesteps/s
98.6% CPU use with 2 MPI tasks x no OpenMP threads

MPI task timing breakdown:
Section |  min time  |  avg time  |  max time  |%varavg| %total
---------------------------------------------------------------
Pair    | 230.97     | 231.42     | 231.87     |   3.0 | 49.70
Neigh   | 188.92     | 195.12     | 201.32     |  44.4 | 41.90
Comm    | 23.004     | 29.932     | 36.86      | 126.6 |  6.43
Output  | 0.15612    | 0.15614    | 0.15616    |   0.0 |  0.03
Modify  | 6.9668     | 7.1212     | 7.2755     |   5.8 |  1.53
Other   |            | 1.909      |            |       |  0.41

Nlocal:    9826 ave 9856 max 9796 min
Histogram: 1 0 0 0 0 0 0 0 0 1
Nghost:    9902 ave 9921 max 9883 min
Histogram: 1 0 0 0 0 0 0 0 0 1
Neighs:    347166 ave 347220 max 347111 min
Histogram: 1 0 0 0 0 0 0 0 0 1

Total # of neighbors = 694331
Ave neighs/atom = 35.3313
Neighbor list builds = 9505
Dangerous builds not checked
Setting up Verlet run ...
  Unit style    : metal
  Current step  : 460000
  Time step     : 0.001
Per MPI rank memory allocation (min/avg/max) = 11.29 | 11.29 | 11.29 Mbytes
Step Temp Press TotEng PotEng Enthalpy 
  460000    346.30381   -138.01192   -83182.076   -84061.719   -83236.555 
  460495    324.79785   -87.875175   -83322.595   -84147.611   -83357.231 
Loop time of 24.5945 on 2 procs for 495 steps with 19652 atoms

Performance: 1.739 ns/day, 13.802 hours/ns, 20.126 timesteps/s
98.7% CPU use with 2 MPI tasks x no OpenMP threads

MPI task timing breakdown:
Section |  min time  |  avg time  |  max time  |%varavg| %total
---------------------------------------------------------------
Pair    | 12.338     | 12.373     | 12.407     |   1.0 | 50.31
Neigh   | 10.296     | 10.668     | 11.04      |  11.4 | 43.38
Comm    | 0.70383    | 1.0527     | 1.4015     |  34.0 |  4.28
Output  | 6.9857e-05 | 9.191e-05  | 0.00011396 |   0.0 |  0.00
Modify  | 0.38936    | 0.39501    | 0.40065    |   0.9 |  1.61
Other   |            | 0.1056     |            |       |  0.43

Nlocal:    9826 ave 9855 max 9797 min
Histogram: 1 0 0 0 0 0 0 0 0 1
Nghost:    9921 ave 9933 max 9909 min
Histogram: 1 0 0 0 0 0 0 0 0 1
Neighs:    347096 ave 347173 max 347019 min
Histogram: 1 0 0 0 0 0 0 0 0 1

Total # of neighbors = 694192
Ave neighs/atom = 35.3242
Neighbor list builds = 495
Dangerous builds not checked
Setting up Verlet run ...
  Unit style    : metal
  Current step  : 460495
  Time step     : 0.001
Per MPI rank memory allocation (min/avg/max) = 11.29 | 11.29 | 11.29 Mbytes
Step Temp Press TotEng PotEng Enthalpy 
  460495    324.79785   -87.875175   -83322.595   -84147.611   -83357.231 
  470000    301.62497      8.66706   -83540.268   -84306.423   -83536.864 
Loop time of 470.227 on 2 procs for 9505 steps with 19652 atoms

Performance: 1.746 ns/day, 13.742 hours/ns, 20.214 timesteps/s
97.3% CPU use with 2 MPI tasks x no OpenMP threads

MPI task timing breakdown:
Section |  min time  |  avg time  |  max time  |%varavg| %total
---------------------------------------------------------------
Pair    | 238.41     | 239.31     | 240.22     |   5.8 | 50.89
Neigh   | 190.51     | 194.42     | 198.33     |  28.0 | 41.35
Comm    | 24.034     | 26.905     | 29.777     |  55.4 |  5.72
Output  | 0.21101    | 0.21103    | 0.21104    |   0.0 |  0.04
Modify  | 7.3784     | 7.4719     | 7.5654     |   3.4 |  1.59
Other   |            | 1.903      |            |       |  0.40

Nlocal:    9826 ave 9839 max 9813 min
Histogram: 1 0 0 0 0 0 0 0 0 1
Nghost:    9928.5 ave 9952 max 9905 min
Histogram: 1 0 0 0 0 0 0 0 0 1
Neighs:    345420 ave 346238 max 344601 min
Histogram: 1 0 0 0 0 0 0 0 0 1

Total # of neighbors = 690839
Ave neighs/atom = 35.1536
Neighbor list builds = 9505
Dangerous builds not checked
Setting up Verlet run ...
  Unit style    : metal
  Current step  : 470000
  Time step     : 0.001
Per MPI rank memory allocation (min/avg/max) = 11.29 | 11.29 | 11.29 Mbytes
Step Temp Press TotEng PotEng Enthalpy 
  470000    301.62497      8.66706   -83540.268   -84306.423   -83536.864 
  470495    275.19454   -21.355219   -83683.639   -84382.659   -83692.016 
Loop time of 22.5396 on 2 procs for 495 steps with 19652 atoms

Performance: 1.897 ns/day, 12.648 hours/ns, 21.961 timesteps/s
100.0% CPU use with 2 MPI tasks x no OpenMP threads

MPI task timing breakdown:
Section |  min time  |  avg time  |  max time  |%varavg| %total
---------------------------------------------------------------
Pair    | 11.126     | 11.193     | 11.26      |   2.0 | 49.66
Neigh   | 9.5502     | 9.9774     | 10.405     |  13.5 | 44.27
Comm    | 0.54622    | 0.924      | 1.3018     |  39.3 |  4.10
Output  | 6.7949e-05 | 9.9063e-05 | 0.00013018 |   0.0 |  0.00
Modify  | 0.34274    | 0.35559    | 0.36844    |   2.2 |  1.58
Other   |            | 0.0894     |            |       |  0.40

Nlocal:    9826 ave 9851 max 9801 min
Histogram: 1 0 0 0 0 0 0 0 0 1
Nghost:    9945 ave 9947 max 9943 min
Histogram: 1 0 0 0 0 0 0 0 0 1
Neighs:    345418 ave 345793 max 345042 min
Histogram: 1 0 0 0 0 0 0 0 0 1

Total # of neighbors = 690835
Ave neighs/atom = 35.1534
Neighbor list builds = 495
Dangerous builds not checked
Setting up Verlet run ...
  Unit style    : metal
  Current step  : 470495
  Time step     : 0.001
Per MPI rank memory allocation (min/avg/max) = 11.29 | 11.29 | 11.29 Mbytes
Step Temp Press TotEng PotEng Enthalpy 
  470495    275.19454   -21.355219   -83683.639   -84382.659   -83692.016 
  480000     251.0982    43.723594   -83876.943   -84514.755   -83859.845 
Loop time of 434.783 on 2 procs for 9505 steps with 19652 atoms

Performance: 1.889 ns/day, 12.706 hours/ns, 21.861 timesteps/s
99.1% CPU use with 2 MPI tasks x no OpenMP threads

MPI task timing breakdown:
Section |  min time  |  avg time  |  max time  |%varavg| %total
---------------------------------------------------------------
Pair    | 215.8      | 217.49     | 219.18     |  11.5 | 50.02
Neigh   | 181.99     | 186.11     | 190.22     |  30.2 | 42.80
Comm    | 16.734     | 22.761     | 28.789     | 126.3 |  5.24
Output  | 0.046926   | 0.046951   | 0.046976   |   0.0 |  0.01
Modify  | 6.5342     | 6.6643     | 6.7944     |   5.0 |  1.53
Other   |            | 1.714      |            |       |  0.39

Nlocal:    9826 ave 9867 max 9785 min
Histogram: 1 0 0 0 0 0 0 0 0 1
Nghost:    9955 ave 9962 max 9948 min
Histogram: 1 0 0 0 0 0 0 0 0 1
Neighs:    343956 ave 344843 max 343069 min
Histogram: 1 0 0 0 0 0 0 0 0 1

Total # of neighbors = 687912
Ave neighs/atom = 35.0047
Neighbor list builds = 9505
Dangerous builds not checked
Setting up Verlet run ...
  Unit style    : metal
  Current step  : 480000
  Time step     : 0.001
Per MPI rank memory allocation (min/avg/max) = 11.29 | 11.29 | 11.29 Mbytes
Step Temp Press TotEng PotEng Enthalpy 
  480000     251.0982    43.723594   -83876.943   -84514.755   -83859.845 
  480495    224.59229   -41.695896   -84019.255    -84589.74   -84035.541 
Loop time of 21.6981 on 2 procs for 495 steps with 19652 atoms

Performance: 1.971 ns/day, 12.176 hours/ns, 22.813 timesteps/s
99.9% CPU use with 2 MPI tasks x no OpenMP threads

MPI task timing breakdown:
Section |  min time  |  avg time  |  max time  |%varavg| %total
---------------------------------------------------------------
Pair    | 10.643     | 10.757     | 10.87      |   3.5 | 49.57
Neigh   | 9.4085     | 9.4376     | 9.4667     |   0.9 | 43.50
Comm    | 0.97876    | 1.069      | 1.1593     |   8.7 |  4.93
Output  | 5.5075e-05 | 8.7023e-05 | 0.00011897 |   0.0 |  0.00
Modify  | 0.3417     | 0.34178    | 0.34186    |   0.0 |  1.58
Other   |            | 0.09297    |            |       |  0.43

Nlocal:    9826 ave 9857 max 9795 min
Histogram: 1 0 0 0 0 0 0 0 0 1
Nghost:    9956 ave 9966 max 9946 min
Histogram: 1 0 0 0 0 0 0 0 0 1
Neighs:    343583 ave 344081 max 343085 min
Histogram: 1 0 0 0 0 0 0 0 0 1

Total # of neighbors = 687166
Ave neighs/atom = 34.9667
Neighbor list builds = 495
Dangerous builds not checked
Setting up Verlet run ...
  Unit style    : metal
  Current step  : 480495
  Time step     : 0.001
Per MPI rank memory allocation (min/avg/max) = 11.29 | 11.29 | 11.29 Mbytes
Step Temp Press TotEng PotEng Enthalpy 
  480495    224.59229   -41.695896   -84019.255    -84589.74   -84035.541 
  490000    199.08327   -148.01458   -84239.856   -84745.546   -84297.481 
Loop time of 461.849 on 2 procs for 9505 steps with 19652 atoms

Performance: 1.778 ns/day, 13.497 hours/ns, 20.580 timesteps/s
97.8% CPU use with 2 MPI tasks x no OpenMP threads

MPI task timing breakdown:
Section |  min time  |  avg time  |  max time  |%varavg| %total
---------------------------------------------------------------
Pair    | 232.46     | 232.96     | 233.46     |   3.3 | 50.44
Neigh   | 189.02     | 193.04     | 197.06     |  29.0 | 41.80
Comm    | 23.041     | 26.74      | 30.439     |  71.5 |  5.79
Output  | 0.05201    | 0.05202    | 0.052031   |   0.0 |  0.01
Modify  | 7.0585     | 7.155      | 7.2516     |   3.6 |  1.55
Other   |            | 1.903      |            |       |  0.41

Nlocal:    9826 ave 9855 max 9797 min
Histogram: 1 0 0 0 0 0 0 0 0 1
Nghost:    9985 ave 9988 max 9982 min
Histogram: 1 0 0 0 0 0 0 0 0 1
Neighs:    341840 ave 343201 max 340480 min
Histogram: 1 0 0 0 0 0 0 0 0 1

Total # of neighbors = 683681
Ave neighs/atom = 34.7894
Neighbor list builds = 9505
Dangerous builds not checked
Setting up Verlet run ...
  Unit style    : metal
  Current step  : 490000
  Time step     : 0.001
Per MPI rank memory allocation (min/avg/max) = 11.29 | 11.29 | 11.29 Mbytes
Step Temp Press TotEng PotEng Enthalpy 
  490000    199.08327   -148.01458   -84239.856   -84745.546   -84297.481 
  490495    174.66936   -226.52546   -84367.129   -84810.805    -84455.22 
Loop time of 24.5818 on 2 procs for 495 steps with 19652 atoms

Performance: 1.740 ns/day, 13.795 hours/ns, 20.137 timesteps/s
99.3% CPU use with 2 MPI tasks x no OpenMP threads

MPI task timing breakdown:
Section |  min time  |  avg time  |  max time  |%varavg| %total
---------------------------------------------------------------
Pair    | 12.443     | 12.47      | 12.497     |   0.8 | 50.73
Neigh   | 10.057     | 10.358     | 10.66      |   9.4 | 42.14
Comm    | 0.97022    | 1.2519     | 1.5335     |  25.2 |  5.09
Output  | 8.1062e-05 | 9.954e-05  | 0.00011802 |   0.0 |  0.00
Modify  | 0.38908    | 0.39562    | 0.40215    |   1.0 |  1.61
Other   |            | 0.1063     |            |       |  0.43

Nlocal:    9826 ave 9853 max 9799 min
Histogram: 1 0 0 0 0 0 0 0 0 1
Nghost:    9959.5 ave 9962 max 9957 min
Histogram: 1 0 0 0 0 0 0 0 0 1
Neighs:    341328 ave 342650 max 340007 min
Histogram: 1 0 0 0 0 0 0 0 0 1

Total # of neighbors = 682657
Ave neighs/atom = 34.7373
Neighbor list builds = 495
Dangerous builds not checked
Setting up Verlet run ...
  Unit style    : metal
  Current step  : 490495
  Time step     : 0.001
Per MPI rank memory allocation (min/avg/max) = 11.29 | 11.29 | 11.29 Mbytes
Step Temp Press TotEng PotEng Enthalpy 
  490495    174.66936   -226.52546   -84367.129   -84810.805    -84455.22 
  500000    150.87053    44.700682   -84584.491   -84967.716    -84567.18 
Loop time of 466.332 on 2 procs for 9505 steps with 19652 atoms

Performance: 1.761 ns/day, 13.628 hours/ns, 20.382 timesteps/s
96.4% CPU use with 2 MPI tasks x no OpenMP threads

MPI task timing breakdown:
Section |  min time  |  avg time  |  max time  |%varavg| %total
---------------------------------------------------------------
Pair    | 226.63     | 226.73     | 226.84     |   0.7 | 48.62
Neigh   | 190.72     | 190.99     | 191.26     |   1.9 | 40.96
Comm    | 38.231     | 38.621     | 39.01      |   6.3 |  8.28
Output  | 0.1784     | 0.17841    | 0.17843    |   0.0 |  0.04
Modify  | 7.8346     | 7.8378     | 7.8411     |   0.1 |  1.68
Other   |            | 1.971      |            |       |  0.42

Nlocal:    9826 ave 9841 max 9811 min
Histogram: 1 0 0 0 0 0 0 0 0 1
Nghost:    9991 ave 10005 max 9977 min
Histogram: 1 0 0 0 0 0 0 0 0 1
Neighs:    339854 ave 341656 max 338053 min
Histogram: 1 0 0 0 0 0 0 0 0 1

Total # of neighbors = 679709
Ave neighs/atom = 34.5873
Neighbor list builds = 9505
Dangerous builds not checked
Setting up Verlet run ...
  Unit style    : metal
  Current step  : 500000
  Time step     : 0.001
Per MPI rank memory allocation (min/avg/max) = 11.29 | 11.29 | 11.29 Mbytes
Step Temp Press TotEng PotEng Enthalpy 
  500000    150.87053    44.700682   -84584.491   -84967.716    -84567.18 
  500495    126.42936   -56.586791   -84705.056   -85026.198   -84726.948 
Loop time of 25.3531 on 2 procs for 495 steps with 19652 atoms

Performance: 1.687 ns/day, 14.227 hours/ns, 19.524 timesteps/s
93.9% CPU use with 2 MPI tasks x no OpenMP threads

MPI task timing breakdown:
Section |  min time  |  avg time  |  max time  |%varavg| %total
---------------------------------------------------------------
Pair    | 12.313     | 12.507     | 12.7       |   5.5 | 49.33
Neigh   | 10.251     | 10.286     | 10.321     |   1.1 | 40.57
Comm    | 1.8939     | 2.0524     | 2.211      |  11.1 |  8.10
Output  | 7.2002e-05 | 9.0957e-05 | 0.00010991 |   0.0 |  0.00
Modify  | 0.39709    | 0.40029    | 0.40349    |   0.5 |  1.58
Other   |            | 0.108      |            |       |  0.43

Nlocal:    9826 ave 9855 max 9797 min
Histogram: 1 0 0 0 0 0 0 0 0 1
Nghost:    9985 ave 9995 max 9975 min
Histogram: 1 0 0 0 0 0 0 0 0 1
Neighs:    339228 ave 342077 max 336379 min
Histogram: 1 0 0 0 0 0 0 0 0 1

Total # of neighbors = 678456
Ave neighs/atom = 34.5235
Neighbor list builds = 495
Dangerous builds not checked
Setting up Verlet run ...
  Unit style    : metal
  Current step  : 500495
  Time step     : 0.001
Per MPI rank memory allocation (min/avg/max) = 11.29 | 11.29 | 11.29 Mbytes
Step Temp Press TotEng PotEng Enthalpy 
  500495    126.42936   -56.586791   -84705.056   -85026.198   -84726.948 
  510000    99.608661    -136.0823   -84924.394   -85177.409   -84976.854 
Loop time of 516.939 on 2 procs for 9505 steps with 19652 atoms

Performance: 1.589 ns/day, 15.107 hours/ns, 18.387 timesteps/s
87.8% CPU use with 2 MPI tasks x no OpenMP threads

MPI task timing breakdown:
Section |  min time  |  avg time  |  max time  |%varavg| %total
---------------------------------------------------------------
Pair    | 229.76     | 229.94     | 230.11     |   1.2 | 44.48
Neigh   | 179.75     | 180.31     | 180.88     |   4.2 | 34.88
Comm    | 90.695     | 90.737     | 90.779     |   0.4 | 17.55
Output  | 0.21258    | 0.2126     | 0.21262    |   0.0 |  0.04
Modify  | 13.183     | 13.95      | 14.717     |  20.5 |  2.70
Other   |            | 1.79       |            |       |  0.35

Nlocal:    9826 ave 9853 max 9799 min
Histogram: 1 0 0 0 0 0 0 0 0 1
Nghost:    9993 ave 10006 max 9980 min
Histogram: 1 0 0 0 0 0 0 0 0 1
Neighs:    337034 ave 340683 max 333385 min
Histogram: 1 0 0 0 0 0 0 0 0 1

Total # of neighbors = 674068
Ave neighs/atom = 34.3002
Neighbor list builds = 9505
Dangerous builds not checked
Total wall time: 7:42:24
