LAMMPS (12 Dec 2018)
Lattice spacing in x,y,z = 4 4 4
Created orthogonal box = (0 0 0) to (68 68 68)
  1 by 1 by 1 MPI processor grid
Created 19652 atoms
  Time spent = 0.00363183 secs
Setting atom values ...
  19480 settings made for type/fraction
Neighbor list info ...
  update every 1 steps, delay 0 steps, check no
  max neighbors/atom: 2000, page size: 100000
  master list distance cutoff = 8.5
  ghost atom cutoff = 8.5
  binsize = 4.25, bins = 16 16 16
  1 neighbor lists, perpetual/occasional/extra = 1 0 0
  (1) pair eam/alloy, perpetual
      attributes: half, newton on
      pair build: half/bin/atomonly/newton
      stencil: half/bin/3d/newton
      bin: standard
Setting up Verlet run ...
  Unit style    : metal
  Current step  : 0
  Time step     : 0.001
Per MPI rank memory allocation (min/avg/max) = 18.19 | 18.19 | 18.19 Mbytes
Step Temp Press TotEng PotEng Enthalpy 
       0          300    644501.64   -38570.515   -39332.543    87914.888 
    1000    886.04289     635176.3   -38570.719   -40821.349    86084.557 
Loop time of 190.096 on 1 procs for 1000 steps with 19652 atoms

Performance: 0.455 ns/day, 52.804 hours/ns, 5.261 timesteps/s
99.9% CPU use with 1 MPI tasks x no OpenMP threads

MPI task timing breakdown:
Section |  min time  |  avg time  |  max time  |%varavg| %total
---------------------------------------------------------------
Pair    | 111.05     | 111.05     | 111.05     |   0.0 | 58.42
Neigh   | 76.368     | 76.368     | 76.368     |   0.0 | 40.17
Comm    | 1.6037     | 1.6037     | 1.6037     |   0.0 |  0.84
Output  | 0.00062013 | 0.00062013 | 0.00062013 |   0.0 |  0.00
Modify  | 0.59492    | 0.59492    | 0.59492    |   0.0 |  0.31
Other   |            | 0.4781     |            |       |  0.25

Nlocal:    19652 ave 19652 max 19652 min
Histogram: 1 0 0 0 0 0 0 0 0 0
Nghost:    18858 ave 18858 max 18858 min
Histogram: 1 0 0 0 0 0 0 0 0 0
Neighs:    1.5827e+06 ave 1.5827e+06 max 1.5827e+06 min
Histogram: 1 0 0 0 0 0 0 0 0 0

Total # of neighbors = 1582703
Ave neighs/atom = 80.5365
Neighbor list builds = 1000
Dangerous builds not checked
Setting up Verlet run ...
  Unit style    : metal
  Current step  : 1000
  Time step     : 0.001
Per MPI rank memory allocation (min/avg/max) = 18.19 | 18.19 | 18.19 Mbytes
Step Temp Press TotEng PotEng Enthalpy 
    1000    886.04289     635176.3   -38570.719   -40821.349    86084.557 
    2000    353.10616    -169.9569   -81215.822   -82112.744   -81284.715 
Loop time of 138.03 on 1 procs for 1000 steps with 19652 atoms

Performance: 0.626 ns/day, 38.342 hours/ns, 7.245 timesteps/s
99.8% CPU use with 1 MPI tasks x no OpenMP threads

MPI task timing breakdown:
Section |  min time  |  avg time  |  max time  |%varavg| %total
---------------------------------------------------------------
Pair    | 76.657     | 76.657     | 76.657     |   0.0 | 55.54
Neigh   | 57.628     | 57.628     | 57.628     |   0.0 | 41.75
Comm    | 1.3875     | 1.3875     | 1.3875     |   0.0 |  1.01
Output  | 0.05177    | 0.05177    | 0.05177    |   0.0 |  0.04
Modify  | 1.8503     | 1.8503     | 1.8503     |   0.0 |  1.34
Other   |            | 0.4561     |            |       |  0.33

Nlocal:    19652 ave 19652 max 19652 min
Histogram: 1 0 0 0 0 0 0 0 0 0
Nghost:    14016 ave 14016 max 14016 min
Histogram: 1 0 0 0 0 0 0 0 0 0
Neighs:    721897 ave 721897 max 721897 min
Histogram: 1 0 0 0 0 0 0 0 0 0

Total # of neighbors = 721897
Ave neighs/atom = 36.734
Neighbor list builds = 1000
Dangerous builds not checked
Setting up Verlet run ...
  Unit style    : metal
  Current step  : 2000
  Time step     : 0.001
Per MPI rank memory allocation (min/avg/max) = 18.21 | 18.21 | 18.21 Mbytes
Step Temp Press TotEng PotEng Enthalpy 
    2000    353.10616    -169.9569   -81215.822   -82112.744   -81284.715 
    4000    800.52311   -103.79336   -79358.729   -81392.131   -79401.319 
    6000    1363.0048    419.17558   -76141.943   -79604.099   -75966.722 
    8000    1903.0044      754.111   -72473.558   -77307.362   -72150.388 
   10000    2426.4807    -964.1036   -69091.629   -75255.111   -69517.043 
Loop time of 912.818 on 1 procs for 8000 steps with 19652 atoms

Performance: 0.757 ns/day, 31.695 hours/ns, 8.764 timesteps/s
97.5% CPU use with 1 MPI tasks x no OpenMP threads

MPI task timing breakdown:
Section |  min time  |  avg time  |  max time  |%varavg| %total
---------------------------------------------------------------
Pair    | 483.77     | 483.77     | 483.77     |   0.0 | 53.00
Neigh   | 399.72     | 399.72     | 399.72     |   0.0 | 43.79
Comm    | 10.255     | 10.255     | 10.255     |   0.0 |  1.12
Output  | 0.76067    | 0.76067    | 0.76067    |   0.0 |  0.08
Modify  | 14.678     | 14.678     | 14.678     |   0.0 |  1.61
Other   |            | 3.633      |            |       |  0.40

Nlocal:    19652 ave 19652 max 19652 min
Histogram: 1 0 0 0 0 0 0 0 0 0
Nghost:    13505 ave 13505 max 13505 min
Histogram: 1 0 0 0 0 0 0 0 0 0
Neighs:    682701 ave 682701 max 682701 min
Histogram: 1 0 0 0 0 0 0 0 0 0

Total # of neighbors = 682701
Ave neighs/atom = 34.7395
Neighbor list builds = 8000
Dangerous builds not checked
Setting up Verlet run ...
  Unit style    : metal
  Current step  : 10000
  Time step     : 0.001
Per MPI rank memory allocation (min/avg/max) = 18.21 | 18.21 | 18.21 Mbytes
Step Temp Press TotEng PotEng Enthalpy 
   10000    2426.4807    -964.1036   -69091.629   -75255.111   -69517.043 
   12000    2444.4771   -666.71269   -69073.724   -75282.919    -69367.73 
   14000    2462.2463   -539.54035   -68930.446   -75184.776     -69168.6 
   16000    2474.9493    374.85246   -68951.012   -75237.609   -68786.061 
   18000    2432.9001    690.33588    -68998.92   -75178.708   -68695.584 
   20000    2452.6867   -6.8851316   -68989.181   -75219.229   -68992.212 
   22000    2449.9525    359.59634   -69022.934   -75246.037   -68864.774 
   24000    2445.0928   -35.786129   -68976.052    -75186.81    -68991.82 
   26000    2443.9281   -323.36449   -69014.942   -75222.742   -69157.474 
   28000    2446.8011    338.81627   -69056.193   -75271.291   -68907.248 
   30000    2453.1862   -473.66285   -68877.161   -75108.478   -69086.174 
   32000    2433.9832    291.77702   -68993.605   -75176.144   -68865.223 
   34000    2435.1622   -216.44625   -68984.267   -75169.801    -69079.63 
   36000    2472.0856   -169.33199   -68852.111   -75131.434     -68926.8 
   38000    2460.5145     -347.358   -68871.414   -75121.344   -69024.534 
   40000    2460.1048   -317.63775   -68961.151   -75210.041   -69101.202 
Loop time of 3674.92 on 1 procs for 30000 steps with 19652 atoms

Performance: 0.705 ns/day, 34.027 hours/ns, 8.163 timesteps/s
93.3% CPU use with 1 MPI tasks x no OpenMP threads

MPI task timing breakdown:
Section |  min time  |  avg time  |  max time  |%varavg| %total
---------------------------------------------------------------
Pair    | 1936.7     | 1936.7     | 1936.7     |   0.0 | 52.70
Neigh   | 1625.9     | 1625.9     | 1625.9     |   0.0 | 44.24
Comm    | 39.982     | 39.982     | 39.982     |   0.0 |  1.09
Output  | 1.1174     | 1.1174     | 1.1174     |   0.0 |  0.03
Modify  | 57.009     | 57.009     | 57.009     |   0.0 |  1.55
Other   |            | 14.2       |            |       |  0.39

Nlocal:    19652 ave 19652 max 19652 min
Histogram: 1 0 0 0 0 0 0 0 0 0
Nghost:    13564 ave 13564 max 13564 min
Histogram: 1 0 0 0 0 0 0 0 0 0
Neighs:    683491 ave 683491 max 683491 min
Histogram: 1 0 0 0 0 0 0 0 0 0

Total # of neighbors = 683491
Ave neighs/atom = 34.7797
Neighbor list builds = 30000
Dangerous builds not checked
Setting up Verlet run ...
  Unit style    : metal
  Current step  : 40000
  Time step     : 0.001
Per MPI rank memory allocation (min/avg/max) = 18.21 | 18.21 | 18.21 Mbytes
Step Temp Press TotEng PotEng Enthalpy 
   40000    2460.1048   -317.63775   -68961.151   -75210.041   -69101.202 
   40495    2388.5594     112.7509   -69240.759   -75307.918   -69191.216 
Loop time of 54.8842 on 1 procs for 495 steps with 19652 atoms

Performance: 0.779 ns/day, 30.799 hours/ns, 9.019 timesteps/s
99.8% CPU use with 1 MPI tasks x no OpenMP threads

MPI task timing breakdown:
Section |  min time  |  avg time  |  max time  |%varavg| %total
---------------------------------------------------------------
Pair    | 28.533     | 28.533     | 28.533     |   0.0 | 51.99
Neigh   | 24.711     | 24.711     | 24.711     |   0.0 | 45.02
Comm    | 0.5796     | 0.5796     | 0.5796     |   0.0 |  1.06
Output  | 0.00025582 | 0.00025582 | 0.00025582 |   0.0 |  0.00
Modify  | 0.83993    | 0.83993    | 0.83993    |   0.0 |  1.53
Other   |            | 0.2205     |            |       |  0.40

Nlocal:    19652 ave 19652 max 19652 min
Histogram: 1 0 0 0 0 0 0 0 0 0
Nghost:    13597 ave 13597 max 13597 min
Histogram: 1 0 0 0 0 0 0 0 0 0
Neighs:    685707 ave 685707 max 685707 min
Histogram: 1 0 0 0 0 0 0 0 0 0

Total # of neighbors = 685707
Ave neighs/atom = 34.8925
Neighbor list builds = 495
Dangerous builds not checked
Setting up Verlet run ...
  Unit style    : metal
  Current step  : 40495
  Time step     : 0.001
Per MPI rank memory allocation (min/avg/max) = 18.21 | 18.21 | 18.21 Mbytes
Step Temp Press TotEng PotEng Enthalpy 
   40495    2388.5594     112.7509   -69240.759   -75307.918   -69191.216 
   42000    2371.8666   -447.07329   -69320.877   -75345.634   -69517.479 
Loop time of 174.602 on 1 procs for 1505 steps with 19652 atoms

Performance: 0.745 ns/day, 32.226 hours/ns, 8.620 timesteps/s
99.1% CPU use with 1 MPI tasks x no OpenMP threads

MPI task timing breakdown:
Section |  min time  |  avg time  |  max time  |%varavg| %total
---------------------------------------------------------------
Pair    | 91.941     | 91.941     | 91.941     |   0.0 | 52.66
Neigh   | 77.151     | 77.151     | 77.151     |   0.0 | 44.19
Comm    | 1.9627     | 1.9627     | 1.9627     |   0.0 |  1.12
Output  | 0.069289   | 0.069289   | 0.069289   |   0.0 |  0.04
Modify  | 2.794      | 2.794      | 2.794      |   0.0 |  1.60
Other   |            | 0.6846     |            |       |  0.39

Nlocal:    19652 ave 19652 max 19652 min
Histogram: 1 0 0 0 0 0 0 0 0 0
Nghost:    13551 ave 13551 max 13551 min
Histogram: 1 0 0 0 0 0 0 0 0 0
Neighs:    684919 ave 684919 max 684919 min
Histogram: 1 0 0 0 0 0 0 0 0 0

Total # of neighbors = 684919
Ave neighs/atom = 34.8524
Neighbor list builds = 1505
Dangerous builds not checked
Setting up Verlet run ...
  Unit style    : metal
  Current step  : 42000
  Time step     : 0.001
Per MPI rank memory allocation (min/avg/max) = 18.21 | 18.21 | 18.21 Mbytes
Step Temp Press TotEng PotEng Enthalpy 
   42000    2371.8666   -447.07329   -69320.877   -75345.634   -69517.479 
   42495    2367.1862   -456.00807   -69386.247   -75399.115   -69587.017 
Loop time of 51.0635 on 1 procs for 495 steps with 19652 atoms

Performance: 0.838 ns/day, 28.655 hours/ns, 9.694 timesteps/s
98.8% CPU use with 1 MPI tasks x no OpenMP threads

MPI task timing breakdown:
Section |  min time  |  avg time  |  max time  |%varavg| %total
---------------------------------------------------------------
Pair    | 25.483     | 25.483     | 25.483     |   0.0 | 49.91
Neigh   | 23.96      | 23.96      | 23.96      |   0.0 | 46.92
Comm    | 0.55546    | 0.55546    | 0.55546    |   0.0 |  1.09
Output  | 0.00031495 | 0.00031495 | 0.00031495 |   0.0 |  0.00
Modify  | 0.84475    | 0.84475    | 0.84475    |   0.0 |  1.65
Other   |            | 0.2197     |            |       |  0.43

Nlocal:    19652 ave 19652 max 19652 min
Histogram: 1 0 0 0 0 0 0 0 0 0
Nghost:    13498 ave 13498 max 13498 min
Histogram: 1 0 0 0 0 0 0 0 0 0
Neighs:    683696 ave 683696 max 683696 min
Histogram: 1 0 0 0 0 0 0 0 0 0

Total # of neighbors = 683696
Ave neighs/atom = 34.7901
Neighbor list builds = 495
Dangerous builds not checked
Setting up Verlet run ...
  Unit style    : metal
  Current step  : 42495
  Time step     : 0.001
Per MPI rank memory allocation (min/avg/max) = 18.21 | 18.21 | 18.21 Mbytes
Step Temp Press TotEng PotEng Enthalpy 
   42495    2367.1862   -456.00807   -69386.247   -75399.115   -69587.017 
   44000    2363.5223    768.10798   -69519.567   -75523.129   -69183.356 
Loop time of 168.033 on 1 procs for 1505 steps with 19652 atoms

Performance: 0.774 ns/day, 31.014 hours/ns, 8.957 timesteps/s
97.9% CPU use with 1 MPI tasks x no OpenMP threads

MPI task timing breakdown:
Section |  min time  |  avg time  |  max time  |%varavg| %total
---------------------------------------------------------------
Pair    | 86.926     | 86.926     | 86.926     |   0.0 | 51.73
Neigh   | 76.045     | 76.045     | 76.045     |   0.0 | 45.26
Comm    | 1.7769     | 1.7769     | 1.7769     |   0.0 |  1.06
Output  | 0.065885   | 0.065885   | 0.065885   |   0.0 |  0.04
Modify  | 2.5498     | 2.5498     | 2.5498     |   0.0 |  1.52
Other   |            | 0.6692     |            |       |  0.40

Nlocal:    19652 ave 19652 max 19652 min
Histogram: 1 0 0 0 0 0 0 0 0 0
Nghost:    13546 ave 13546 max 13546 min
Histogram: 1 0 0 0 0 0 0 0 0 0
Neighs:    687442 ave 687442 max 687442 min
Histogram: 1 0 0 0 0 0 0 0 0 0

Total # of neighbors = 687442
Ave neighs/atom = 34.9808
Neighbor list builds = 1505
Dangerous builds not checked
Setting up Verlet run ...
  Unit style    : metal
  Current step  : 44000
  Time step     : 0.001
Per MPI rank memory allocation (min/avg/max) = 18.21 | 18.21 | 18.21 Mbytes
Step Temp Press TotEng PotEng Enthalpy 
   44000    2363.5223    768.10798   -69519.567   -75523.129   -69183.356 
   44495    2302.7622      305.998   -69717.102   -75566.328   -69583.015 
Loop time of 55.6729 on 1 procs for 495 steps with 19652 atoms

Performance: 0.768 ns/day, 31.242 hours/ns, 8.891 timesteps/s
99.8% CPU use with 1 MPI tasks x no OpenMP threads

MPI task timing breakdown:
Section |  min time  |  avg time  |  max time  |%varavg| %total
---------------------------------------------------------------
Pair    | 29.414     | 29.414     | 29.414     |   0.0 | 52.83
Neigh   | 24.47      | 24.47      | 24.47      |   0.0 | 43.95
Comm    | 0.64972    | 0.64972    | 0.64972    |   0.0 |  1.17
Output  | 0.00028491 | 0.00028491 | 0.00028491 |   0.0 |  0.00
Modify  | 0.91795    | 0.91795    | 0.91795    |   0.0 |  1.65
Other   |            | 0.2207     |            |       |  0.40

Nlocal:    19652 ave 19652 max 19652 min
Histogram: 1 0 0 0 0 0 0 0 0 0
Nghost:    13562 ave 13562 max 13562 min
Histogram: 1 0 0 0 0 0 0 0 0 0
Neighs:    687022 ave 687022 max 687022 min
Histogram: 1 0 0 0 0 0 0 0 0 0

Total # of neighbors = 687022
Ave neighs/atom = 34.9594
Neighbor list builds = 495
Dangerous builds not checked
Setting up Verlet run ...
  Unit style    : metal
  Current step  : 44495
  Time step     : 0.001
Per MPI rank memory allocation (min/avg/max) = 18.21 | 18.21 | 18.21 Mbytes
Step Temp Press TotEng PotEng Enthalpy 
   44495    2302.7622      305.998   -69717.102   -75566.328   -69583.015 
   46000     2288.653    510.93347   -69925.112   -75738.499   -69701.905 
Loop time of 173.663 on 1 procs for 1505 steps with 19652 atoms

Performance: 0.749 ns/day, 32.053 hours/ns, 8.666 timesteps/s
99.4% CPU use with 1 MPI tasks x no OpenMP threads

MPI task timing breakdown:
Section |  min time  |  avg time  |  max time  |%varavg| %total
---------------------------------------------------------------
Pair    | 91.887     | 91.887     | 91.887     |   0.0 | 52.91
Neigh   | 76.189     | 76.189     | 76.189     |   0.0 | 43.87
Comm    | 1.9983     | 1.9983     | 1.9983     |   0.0 |  1.15
Output  | 0.068625   | 0.068625   | 0.068625   |   0.0 |  0.04
Modify  | 2.8375     | 2.8375     | 2.8375     |   0.0 |  1.63
Other   |            | 0.6821     |            |       |  0.39

Nlocal:    19652 ave 19652 max 19652 min
Histogram: 1 0 0 0 0 0 0 0 0 0
Nghost:    13587 ave 13587 max 13587 min
Histogram: 1 0 0 0 0 0 0 0 0 0
Neighs:    688655 ave 688655 max 688655 min
Histogram: 1 0 0 0 0 0 0 0 0 0

Total # of neighbors = 688655
Ave neighs/atom = 35.0425
Neighbor list builds = 1505
Dangerous builds not checked
Setting up Verlet run ...
  Unit style    : metal
  Current step  : 46000
  Time step     : 0.001
Per MPI rank memory allocation (min/avg/max) = 18.21 | 18.21 | 18.21 Mbytes
Step Temp Press TotEng PotEng Enthalpy 
   46000     2288.653    510.93347   -69925.112   -75738.499   -69701.905 
   46495    2248.6548    224.14998   -70091.961   -75803.749   -69994.101 
Loop time of 54.8466 on 1 procs for 495 steps with 19652 atoms

Performance: 0.780 ns/day, 30.778 hours/ns, 9.025 timesteps/s
96.9% CPU use with 1 MPI tasks x no OpenMP threads

MPI task timing breakdown:
Section |  min time  |  avg time  |  max time  |%varavg| %total
---------------------------------------------------------------
Pair    | 28.216     | 28.216     | 28.216     |   0.0 | 51.44
Neigh   | 24.992     | 24.992     | 24.992     |   0.0 | 45.57
Comm    | 0.5739     | 0.5739     | 0.5739     |   0.0 |  1.05
Output  | 0.000283   | 0.000283   | 0.000283   |   0.0 |  0.00
Modify  | 0.84598    | 0.84598    | 0.84598    |   0.0 |  1.54
Other   |            | 0.2189     |            |       |  0.40

Nlocal:    19652 ave 19652 max 19652 min
Histogram: 1 0 0 0 0 0 0 0 0 0
Nghost:    13600 ave 13600 max 13600 min
Histogram: 1 0 0 0 0 0 0 0 0 0
Neighs:    689385 ave 689385 max 689385 min
Histogram: 1 0 0 0 0 0 0 0 0 0

Total # of neighbors = 689385
Ave neighs/atom = 35.0796
Neighbor list builds = 495
Dangerous builds not checked
Setting up Verlet run ...
  Unit style    : metal
  Current step  : 46495
  Time step     : 0.001
Per MPI rank memory allocation (min/avg/max) = 18.21 | 18.21 | 18.21 Mbytes
Step Temp Press TotEng PotEng Enthalpy 
   46495    2248.6548    224.14998   -70091.961   -75803.749   -69994.101 
   48000    2257.9004   -217.10844   -70133.986   -75869.259   -70228.856 
Loop time of 164.341 on 1 procs for 1505 steps with 19652 atoms

Performance: 0.791 ns/day, 30.332 hours/ns, 9.158 timesteps/s
99.3% CPU use with 1 MPI tasks x no OpenMP threads

MPI task timing breakdown:
Section |  min time  |  avg time  |  max time  |%varavg| %total
---------------------------------------------------------------
Pair    | 84.64      | 84.64      | 84.64      |   0.0 | 51.50
Neigh   | 74.571     | 74.571     | 74.571     |   0.0 | 45.38
Comm    | 1.7429     | 1.7429     | 1.7429     |   0.0 |  1.06
Output  | 0.070339   | 0.070339   | 0.070339   |   0.0 |  0.04
Modify  | 2.6236     | 2.6236     | 2.6236     |   0.0 |  1.60
Other   |            | 0.6933     |            |       |  0.42

Nlocal:    19652 ave 19652 max 19652 min
Histogram: 1 0 0 0 0 0 0 0 0 0
Nghost:    13622 ave 13622 max 13622 min
Histogram: 1 0 0 0 0 0 0 0 0 0
Neighs:    687948 ave 687948 max 687948 min
Histogram: 1 0 0 0 0 0 0 0 0 0

Total # of neighbors = 687948
Ave neighs/atom = 35.0065
Neighbor list builds = 1505
Dangerous builds not checked
Setting up Verlet run ...
  Unit style    : metal
  Current step  : 48000
  Time step     : 0.001
Per MPI rank memory allocation (min/avg/max) = 18.21 | 18.21 | 18.21 Mbytes
Step Temp Press TotEng PotEng Enthalpy 
   48000    2257.9004   -217.10844   -70133.986   -75869.259   -70228.856 
   48495     2209.446    128.69769   -70393.365   -76005.559   -70337.278 
Loop time of 53.2333 on 1 procs for 495 steps with 19652 atoms

Performance: 0.803 ns/day, 29.873 hours/ns, 9.299 timesteps/s
99.8% CPU use with 1 MPI tasks x no OpenMP threads

MPI task timing breakdown:
Section |  min time  |  avg time  |  max time  |%varavg| %total
---------------------------------------------------------------
Pair    | 27.119     | 27.119     | 27.119     |   0.0 | 50.94
Neigh   | 24.393     | 24.393     | 24.393     |   0.0 | 45.82
Comm    | 0.59664    | 0.59664    | 0.59664    |   0.0 |  1.12
Output  | 0.00030208 | 0.00030208 | 0.00030208 |   0.0 |  0.00
Modify  | 0.89802    | 0.89802    | 0.89802    |   0.0 |  1.69
Other   |            | 0.2273     |            |       |  0.43

Nlocal:    19652 ave 19652 max 19652 min
Histogram: 1 0 0 0 0 0 0 0 0 0
Nghost:    13632 ave 13632 max 13632 min
Histogram: 1 0 0 0 0 0 0 0 0 0
Neighs:    689949 ave 689949 max 689949 min
Histogram: 1 0 0 0 0 0 0 0 0 0

Total # of neighbors = 689949
Ave neighs/atom = 35.1083
Neighbor list builds = 495
Dangerous builds not checked
Setting up Verlet run ...
  Unit style    : metal
  Current step  : 48495
  Time step     : 0.001
Per MPI rank memory allocation (min/avg/max) = 18.21 | 18.21 | 18.21 Mbytes
Step Temp Press TotEng PotEng Enthalpy 
   48495     2209.446    128.69769   -70393.365   -76005.559   -70337.278 
   50000    2199.0145   -363.81067   -70440.787   -76026.484   -70599.615 
Loop time of 169.373 on 1 procs for 1505 steps with 19652 atoms

Performance: 0.768 ns/day, 31.261 hours/ns, 8.886 timesteps/s
98.4% CPU use with 1 MPI tasks x no OpenMP threads

MPI task timing breakdown:
Section |  min time  |  avg time  |  max time  |%varavg| %total
---------------------------------------------------------------
Pair    | 87.899     | 87.899     | 87.899     |   0.0 | 51.90
Neigh   | 76.071     | 76.071     | 76.071     |   0.0 | 44.91
Comm    | 1.8916     | 1.8916     | 1.8916     |   0.0 |  1.12
Output  | 0.070234   | 0.070234   | 0.070234   |   0.0 |  0.04
Modify  | 2.7567     | 2.7567     | 2.7567     |   0.0 |  1.63
Other   |            | 0.6855     |            |       |  0.40

Nlocal:    19652 ave 19652 max 19652 min
Histogram: 1 0 0 0 0 0 0 0 0 0
Nghost:    13576 ave 13576 max 13576 min
Histogram: 1 0 0 0 0 0 0 0 0 0
Neighs:    688742 ave 688742 max 688742 min
Histogram: 1 0 0 0 0 0 0 0 0 0

Total # of neighbors = 688742
Ave neighs/atom = 35.0469
Neighbor list builds = 1505
Dangerous builds not checked
Setting up Verlet run ...
  Unit style    : metal
  Current step  : 50000
  Time step     : 0.001
Per MPI rank memory allocation (min/avg/max) = 18.21 | 18.21 | 18.21 Mbytes
Step Temp Press TotEng PotEng Enthalpy 
   50000    2199.0145   -363.81067   -70440.787   -76026.484   -70599.615 
   50495    2161.3774   -118.81231   -70660.657   -76150.752   -70712.358 
Loop time of 59.1362 on 1 procs for 495 steps with 19652 atoms

Performance: 0.723 ns/day, 33.185 hours/ns, 8.371 timesteps/s
94.1% CPU use with 1 MPI tasks x no OpenMP threads

MPI task timing breakdown:
Section |  min time  |  avg time  |  max time  |%varavg| %total
---------------------------------------------------------------
Pair    | 30.994     | 30.994     | 30.994     |   0.0 | 52.41
Neigh   | 26.242     | 26.242     | 26.242     |   0.0 | 44.37
Comm    | 0.6657     | 0.6657     | 0.6657     |   0.0 |  1.13
Output  | 0.00029397 | 0.00029397 | 0.00029397 |   0.0 |  0.00
Modify  | 0.99262    | 0.99262    | 0.99262    |   0.0 |  1.68
Other   |            | 0.242      |            |       |  0.41

Nlocal:    19652 ave 19652 max 19652 min
Histogram: 1 0 0 0 0 0 0 0 0 0
Nghost:    13591 ave 13591 max 13591 min
Histogram: 1 0 0 0 0 0 0 0 0 0
Neighs:    690823 ave 690823 max 690823 min
Histogram: 1 0 0 0 0 0 0 0 0 0

Total # of neighbors = 690823
Ave neighs/atom = 35.1528
Neighbor list builds = 495
Dangerous builds not checked
Setting up Verlet run ...
  Unit style    : metal
  Current step  : 50495
  Time step     : 0.001
Per MPI rank memory allocation (min/avg/max) = 18.21 | 18.21 | 18.21 Mbytes
Step Temp Press TotEng PotEng Enthalpy 
   50495    2161.3774   -118.81231   -70660.657   -76150.752   -70712.358 
   52000    2147.4606    465.78419   -70764.697   -76219.442   -70562.534 
Loop time of 172.21 on 1 procs for 1505 steps with 19652 atoms

Performance: 0.755 ns/day, 31.785 hours/ns, 8.739 timesteps/s
97.4% CPU use with 1 MPI tasks x no OpenMP threads

MPI task timing breakdown:
Section |  min time  |  avg time  |  max time  |%varavg| %total
---------------------------------------------------------------
Pair    | 89.188     | 89.188     | 89.188     |   0.0 | 51.79
Neigh   | 77.78      | 77.78      | 77.78      |   0.0 | 45.17
Comm    | 1.8374     | 1.8374     | 1.8374     |   0.0 |  1.07
Output  | 0.061094   | 0.061094   | 0.061094   |   0.0 |  0.04
Modify  | 2.6748     | 2.6748     | 2.6748     |   0.0 |  1.55
Other   |            | 0.669      |            |       |  0.39

Nlocal:    19652 ave 19652 max 19652 min
Histogram: 1 0 0 0 0 0 0 0 0 0
Nghost:    13580 ave 13580 max 13580 min
Histogram: 1 0 0 0 0 0 0 0 0 0
Neighs:    692141 ave 692141 max 692141 min
Histogram: 1 0 0 0 0 0 0 0 0 0

Total # of neighbors = 692141
Ave neighs/atom = 35.2199
Neighbor list builds = 1505
Dangerous builds not checked
Setting up Verlet run ...
  Unit style    : metal
  Current step  : 52000
  Time step     : 0.001
Per MPI rank memory allocation (min/avg/max) = 18.21 | 18.21 | 18.21 Mbytes
Step Temp Press TotEng PotEng Enthalpy 
   52000    2147.4606    465.78419   -70764.697   -76219.442   -70562.534 
   52495    2110.4452    305.26462   -70990.624   -76351.347   -70858.246 
Loop time of 57.6824 on 1 procs for 495 steps with 19652 atoms

Performance: 0.741 ns/day, 32.369 hours/ns, 8.581 timesteps/s
94.5% CPU use with 1 MPI tasks x no OpenMP threads

MPI task timing breakdown:
Section |  min time  |  avg time  |  max time  |%varavg| %total
---------------------------------------------------------------
Pair    | 29.909     | 29.909     | 29.909     |   0.0 | 51.85
Neigh   | 25.935     | 25.935     | 25.935     |   0.0 | 44.96
Comm    | 0.67166    | 0.67166    | 0.67166    |   0.0 |  1.16
Output  | 0.000283   | 0.000283   | 0.000283   |   0.0 |  0.00
Modify  | 0.93606    | 0.93606    | 0.93606    |   0.0 |  1.62
Other   |            | 0.2301     |            |       |  0.40

Nlocal:    19652 ave 19652 max 19652 min
Histogram: 1 0 0 0 0 0 0 0 0 0
Nghost:    13606 ave 13606 max 13606 min
Histogram: 1 0 0 0 0 0 0 0 0 0
Neighs:    692602 ave 692602 max 692602 min
Histogram: 1 0 0 0 0 0 0 0 0 0

Total # of neighbors = 692602
Ave neighs/atom = 35.2433
Neighbor list builds = 495
Dangerous builds not checked
Setting up Verlet run ...
  Unit style    : metal
  Current step  : 52495
  Time step     : 0.001
Per MPI rank memory allocation (min/avg/max) = 18.21 | 18.21 | 18.21 Mbytes
Step Temp Press TotEng PotEng Enthalpy 
   52495    2110.4452    305.26462   -70990.624   -76351.347   -70858.246 
   54000    2090.7363   -577.62158   -71071.971   -76382.631    -71323.07 
Loop time of 176.733 on 1 procs for 1505 steps with 19652 atoms

Performance: 0.736 ns/day, 32.620 hours/ns, 8.516 timesteps/s
98.7% CPU use with 1 MPI tasks x no OpenMP threads

MPI task timing breakdown:
Section |  min time  |  avg time  |  max time  |%varavg| %total
---------------------------------------------------------------
Pair    | 93.239     | 93.239     | 93.239     |   0.0 | 52.76
Neigh   | 77.903     | 77.903     | 77.903     |   0.0 | 44.08
Comm    | 1.9726     | 1.9726     | 1.9726     |   0.0 |  1.12
Output  | 0.072742   | 0.072742   | 0.072742   |   0.0 |  0.04
Modify  | 2.8363     | 2.8363     | 2.8363     |   0.0 |  1.60
Other   |            | 0.7094     |            |       |  0.40

Nlocal:    19652 ave 19652 max 19652 min
Histogram: 1 0 0 0 0 0 0 0 0 0
Nghost:    13589 ave 13589 max 13589 min
Histogram: 1 0 0 0 0 0 0 0 0 0
Neighs:    690466 ave 690466 max 690466 min
Histogram: 1 0 0 0 0 0 0 0 0 0

Total # of neighbors = 690466
Ave neighs/atom = 35.1346
Neighbor list builds = 1505
Dangerous builds not checked
Setting up Verlet run ...
  Unit style    : metal
  Current step  : 54000
  Time step     : 0.001
Per MPI rank memory allocation (min/avg/max) = 18.21 | 18.21 | 18.21 Mbytes
Step Temp Press TotEng PotEng Enthalpy 
   54000    2090.7363   -577.62158   -71071.971   -76382.631    -71323.07 
   54495    2055.4899    -432.3101   -71274.403   -76495.535   -71462.017 
Loop time of 57.1765 on 1 procs for 495 steps with 19652 atoms

Performance: 0.748 ns/day, 32.086 hours/ns, 8.657 timesteps/s
98.4% CPU use with 1 MPI tasks x no OpenMP threads

MPI task timing breakdown:
Section |  min time  |  avg time  |  max time  |%varavg| %total
---------------------------------------------------------------
Pair    | 30.44      | 30.44      | 30.44      |   0.0 | 53.24
Neigh   | 24.855     | 24.855     | 24.855     |   0.0 | 43.47
Comm    | 0.69632    | 0.69632    | 0.69632    |   0.0 |  1.22
Output  | 0.00029683 | 0.00029683 | 0.00029683 |   0.0 |  0.00
Modify  | 0.9565     | 0.9565     | 0.9565     |   0.0 |  1.67
Other   |            | 0.2281     |            |       |  0.40

Nlocal:    19652 ave 19652 max 19652 min
Histogram: 1 0 0 0 0 0 0 0 0 0
Nghost:    13614 ave 13614 max 13614 min
Histogram: 1 0 0 0 0 0 0 0 0 0
Neighs:    691373 ave 691373 max 691373 min
Histogram: 1 0 0 0 0 0 0 0 0 0

Total # of neighbors = 691373
Ave neighs/atom = 35.1808
Neighbor list builds = 495
Dangerous builds not checked
Setting up Verlet run ...
  Unit style    : metal
  Current step  : 54495
  Time step     : 0.001
Per MPI rank memory allocation (min/avg/max) = 18.21 | 18.21 | 18.21 Mbytes
Step Temp Press TotEng PotEng Enthalpy 
   54495    2055.4899    -432.3101   -71274.403   -76495.535   -71462.017 
   56000    2062.6824    216.07981   -71426.998   -76666.399   -71333.581 
Loop time of 166.037 on 1 procs for 1505 steps with 19652 atoms

Performance: 0.783 ns/day, 30.645 hours/ns, 9.064 timesteps/s
98.3% CPU use with 1 MPI tasks x no OpenMP threads

MPI task timing breakdown:
Section |  min time  |  avg time  |  max time  |%varavg| %total
---------------------------------------------------------------
Pair    | 86.329     | 86.329     | 86.329     |   0.0 | 51.99
Neigh   | 74.374     | 74.374     | 74.374     |   0.0 | 44.79
Comm    | 1.8352     | 1.8352     | 1.8352     |   0.0 |  1.11
Output  | 0.11844    | 0.11844    | 0.11844    |   0.0 |  0.07
Modify  | 2.7033     | 2.7033     | 2.7033     |   0.0 |  1.63
Other   |            | 0.6765     |            |       |  0.41

Nlocal:    19652 ave 19652 max 19652 min
Histogram: 1 0 0 0 0 0 0 0 0 0
Nghost:    13604 ave 13604 max 13604 min
Histogram: 1 0 0 0 0 0 0 0 0 0
Neighs:    694224 ave 694224 max 694224 min
Histogram: 1 0 0 0 0 0 0 0 0 0

Total # of neighbors = 694224
Ave neighs/atom = 35.3259
Neighbor list builds = 1505
Dangerous builds not checked
Setting up Verlet run ...
  Unit style    : metal
  Current step  : 56000
  Time step     : 0.001
Per MPI rank memory allocation (min/avg/max) = 18.21 | 18.21 | 18.21 Mbytes
Step Temp Press TotEng PotEng Enthalpy 
   56000    2062.6824    216.07981   -71426.998   -76666.399   -71333.581 
   56495    2020.2165    13.565034   -71570.177   -76701.711   -71564.308 
Loop time of 51.4278 on 1 procs for 495 steps with 19652 atoms

Performance: 0.832 ns/day, 28.860 hours/ns, 9.625 timesteps/s
100.0% CPU use with 1 MPI tasks x no OpenMP threads

MPI task timing breakdown:
Section |  min time  |  avg time  |  max time  |%varavg| %total
---------------------------------------------------------------
Pair    | 26.571     | 26.571     | 26.571     |   0.0 | 51.67
Neigh   | 23.251     | 23.251     | 23.251     |   0.0 | 45.21
Comm    | 0.56352    | 0.56352    | 0.56352    |   0.0 |  1.10
Output  | 0.00026393 | 0.00026393 | 0.00026393 |   0.0 |  0.00
Modify  | 0.83079    | 0.83079    | 0.83079    |   0.0 |  1.62
Other   |            | 0.2112     |            |       |  0.41

Nlocal:    19652 ave 19652 max 19652 min
Histogram: 1 0 0 0 0 0 0 0 0 0
Nghost:    13624 ave 13624 max 13624 min
Histogram: 1 0 0 0 0 0 0 0 0 0
Neighs:    693314 ave 693314 max 693314 min
Histogram: 1 0 0 0 0 0 0 0 0 0

Total # of neighbors = 693314
Ave neighs/atom = 35.2796
Neighbor list builds = 495
Dangerous builds not checked
Setting up Verlet run ...
  Unit style    : metal
  Current step  : 56495
  Time step     : 0.001
Per MPI rank memory allocation (min/avg/max) = 18.21 | 18.21 | 18.21 Mbytes
Step Temp Press TotEng PotEng Enthalpy 
   56495    2020.2165    13.565034   -71570.177   -76701.711   -71564.308 
   58000    2026.1016    382.07702   -71654.627    -76801.11   -71489.876 
Loop time of 161.114 on 1 procs for 1505 steps with 19652 atoms

Performance: 0.807 ns/day, 29.737 hours/ns, 9.341 timesteps/s
99.6% CPU use with 1 MPI tasks x no OpenMP threads

MPI task timing breakdown:
Section |  min time  |  avg time  |  max time  |%varavg| %total
---------------------------------------------------------------
Pair    | 83.198     | 83.198     | 83.198     |   0.0 | 51.64
Neigh   | 72.934     | 72.934     | 72.934     |   0.0 | 45.27
Comm    | 1.7546     | 1.7546     | 1.7546     |   0.0 |  1.09
Output  | 0.058171   | 0.058171   | 0.058171   |   0.0 |  0.04
Modify  | 2.5328     | 2.5328     | 2.5328     |   0.0 |  1.57
Other   |            | 0.6367     |            |       |  0.40

Nlocal:    19652 ave 19652 max 19652 min
Histogram: 1 0 0 0 0 0 0 0 0 0
Nghost:    13646 ave 13646 max 13646 min
Histogram: 1 0 0 0 0 0 0 0 0 0
Neighs:    694908 ave 694908 max 694908 min
Histogram: 1 0 0 0 0 0 0 0 0 0

Total # of neighbors = 694908
Ave neighs/atom = 35.3607
Neighbor list builds = 1505
Dangerous builds not checked
Setting up Verlet run ...
  Unit style    : metal
  Current step  : 58000
  Time step     : 0.001
Per MPI rank memory allocation (min/avg/max) = 18.21 | 18.21 | 18.21 Mbytes
Step Temp Press TotEng PotEng Enthalpy 
   58000    2026.1016    382.07702   -71654.627    -76801.11   -71489.876 
   58495     1986.538    344.03824   -71865.118   -76911.106    -71716.81 
Loop time of 47.022 on 1 procs for 495 steps with 19652 atoms

Performance: 0.910 ns/day, 26.387 hours/ns, 10.527 timesteps/s
99.9% CPU use with 1 MPI tasks x no OpenMP threads

MPI task timing breakdown:
Section |  min time  |  avg time  |  max time  |%varavg| %total
---------------------------------------------------------------
Pair    | 23.717     | 23.717     | 23.717     |   0.0 | 50.44
Neigh   | 21.854     | 21.854     | 21.854     |   0.0 | 46.48
Comm    | 0.51457    | 0.51457    | 0.51457    |   0.0 |  1.09
Output  | 0.00020695 | 0.00020695 | 0.00020695 |   0.0 |  0.00
Modify  | 0.74561    | 0.74561    | 0.74561    |   0.0 |  1.59
Other   |            | 0.1907     |            |       |  0.41

Nlocal:    19652 ave 19652 max 19652 min
Histogram: 1 0 0 0 0 0 0 0 0 0
Nghost:    13672 ave 13672 max 13672 min
Histogram: 1 0 0 0 0 0 0 0 0 0
Neighs:    694937 ave 694937 max 694937 min
Histogram: 1 0 0 0 0 0 0 0 0 0

Total # of neighbors = 694937
Ave neighs/atom = 35.3622
Neighbor list builds = 495
Dangerous builds not checked
Setting up Verlet run ...
  Unit style    : metal
  Current step  : 58495
  Time step     : 0.001
Per MPI rank memory allocation (min/avg/max) = 18.21 | 18.21 | 18.21 Mbytes
Step Temp Press TotEng PotEng Enthalpy 
   58495     1986.538    344.03824   -71865.118   -76911.106    -71716.81 
   60000    1951.0889    594.62796   -71993.318   -76949.261   -71737.566 
Loop time of 146.955 on 1 procs for 1505 steps with 19652 atoms

Performance: 0.885 ns/day, 27.123 hours/ns, 10.241 timesteps/s
99.9% CPU use with 1 MPI tasks x no OpenMP threads

MPI task timing breakdown:
Section |  min time  |  avg time  |  max time  |%varavg| %total
---------------------------------------------------------------
Pair    | 74.59      | 74.59      | 74.59      |   0.0 | 50.76
Neigh   | 67.817     | 67.817     | 67.817     |   0.0 | 46.15
Comm    | 1.5917     | 1.5917     | 1.5917     |   0.0 |  1.08
Output  | 0.086541   | 0.086541   | 0.086541   |   0.0 |  0.06
Modify  | 2.2865     | 2.2865     | 2.2865     |   0.0 |  1.56
Other   |            | 0.583      |            |       |  0.40

Nlocal:    19652 ave 19652 max 19652 min
Histogram: 1 0 0 0 0 0 0 0 0 0
Nghost:    13665 ave 13665 max 13665 min
Histogram: 1 0 0 0 0 0 0 0 0 0
Neighs:    696006 ave 696006 max 696006 min
Histogram: 1 0 0 0 0 0 0 0 0 0

Total # of neighbors = 696006
Ave neighs/atom = 35.4165
Neighbor list builds = 1505
Dangerous builds not checked
Setting up Verlet run ...
  Unit style    : metal
  Current step  : 60000
  Time step     : 0.001
Per MPI rank memory allocation (min/avg/max) = 18.21 | 18.21 | 18.21 Mbytes
Step Temp Press TotEng PotEng Enthalpy 
   60000    1951.0889    594.62796   -71993.318   -76949.261   -71737.566 
   60495      1897.93    495.07074   -72219.695    -77040.61   -72007.008 
Loop time of 47.792 on 1 procs for 495 steps with 19652 atoms

Performance: 0.895 ns/day, 26.819 hours/ns, 10.357 timesteps/s
100.0% CPU use with 1 MPI tasks x no OpenMP threads

MPI task timing breakdown:
Section |  min time  |  avg time  |  max time  |%varavg| %total
---------------------------------------------------------------
Pair    | 24.023     | 24.023     | 24.023     |   0.0 | 50.27
Neigh   | 22.286     | 22.286     | 22.286     |   0.0 | 46.63
Comm    | 0.51949    | 0.51949    | 0.51949    |   0.0 |  1.09
Output  | 0.00024605 | 0.00024605 | 0.00024605 |   0.0 |  0.00
Modify  | 0.76657    | 0.76657    | 0.76657    |   0.0 |  1.60
Other   |            | 0.1966     |            |       |  0.41

Nlocal:    19652 ave 19652 max 19652 min
Histogram: 1 0 0 0 0 0 0 0 0 0
Nghost:    13640 ave 13640 max 13640 min
Histogram: 1 0 0 0 0 0 0 0 0 0
Neighs:    696922 ave 696922 max 696922 min
Histogram: 1 0 0 0 0 0 0 0 0 0

Total # of neighbors = 696922
Ave neighs/atom = 35.4632
Neighbor list builds = 495
Dangerous builds not checked
Setting up Verlet run ...
  Unit style    : metal
  Current step  : 60495
  Time step     : 0.001
Per MPI rank memory allocation (min/avg/max) = 18.21 | 18.21 | 18.21 Mbytes
Step Temp Press TotEng PotEng Enthalpy 
   60495      1897.93    495.07074   -72219.695    -77040.61   -72007.008 
   62000    1904.2609   -138.56581   -72323.011   -77160.007   -72382.634 
Loop time of 140.493 on 1 procs for 1505 steps with 19652 atoms

Performance: 0.926 ns/day, 25.931 hours/ns, 10.712 timesteps/s
99.9% CPU use with 1 MPI tasks x no OpenMP threads

MPI task timing breakdown:
Section |  min time  |  avg time  |  max time  |%varavg| %total
---------------------------------------------------------------
Pair    | 70.203     | 70.203     | 70.203     |   0.0 | 49.97
Neigh   | 65.941     | 65.941     | 65.941     |   0.0 | 46.94
Comm    | 1.5226     | 1.5226     | 1.5226     |   0.0 |  1.08
Output  | 0.04988    | 0.04988    | 0.04988    |   0.0 |  0.04
Modify  | 2.2055     | 2.2055     | 2.2055     |   0.0 |  1.57
Other   |            | 0.5703     |            |       |  0.41

Nlocal:    19652 ave 19652 max 19652 min
Histogram: 1 0 0 0 0 0 0 0 0 0
Nghost:    13730 ave 13730 max 13730 min
Histogram: 1 0 0 0 0 0 0 0 0 0
Neighs:    694980 ave 694980 max 694980 min
Histogram: 1 0 0 0 0 0 0 0 0 0

Total # of neighbors = 694980
Ave neighs/atom = 35.3643
Neighbor list builds = 1505
Dangerous builds not checked
Setting up Verlet run ...
  Unit style    : metal
  Current step  : 62000
  Time step     : 0.001
Per MPI rank memory allocation (min/avg/max) = 18.21 | 18.21 | 18.21 Mbytes
Step Temp Press TotEng PotEng Enthalpy 
   62000    1904.2609   -138.56581   -72323.011   -77160.007   -72382.634 
   62495    1866.7227     396.2313   -72539.922   -77281.568   -72369.913 
Loop time of 42.8191 on 1 procs for 495 steps with 19652 atoms

Performance: 0.999 ns/day, 24.029 hours/ns, 11.560 timesteps/s
100.0% CPU use with 1 MPI tasks x no OpenMP threads

MPI task timing breakdown:
Section |  min time  |  avg time  |  max time  |%varavg| %total
---------------------------------------------------------------
Pair    | 20.941     | 20.941     | 20.941     |   0.0 | 48.91
Neigh   | 20.55      | 20.55      | 20.55      |   0.0 | 47.99
Comm    | 0.46954    | 0.46954    | 0.46954    |   0.0 |  1.10
Output  | 0.00022912 | 0.00022912 | 0.00022912 |   0.0 |  0.00
Modify  | 0.67962    | 0.67962    | 0.67962    |   0.0 |  1.59
Other   |            | 0.179      |            |       |  0.42

Nlocal:    19652 ave 19652 max 19652 min
Histogram: 1 0 0 0 0 0 0 0 0 0
Nghost:    13672 ave 13672 max 13672 min
Histogram: 1 0 0 0 0 0 0 0 0 0
Neighs:    697068 ave 697068 max 697068 min
Histogram: 1 0 0 0 0 0 0 0 0 0

Total # of neighbors = 697068
Ave neighs/atom = 35.4706
Neighbor list builds = 495
Dangerous builds not checked
Setting up Verlet run ...
  Unit style    : metal
  Current step  : 62495
  Time step     : 0.001
Per MPI rank memory allocation (min/avg/max) = 18.21 | 18.21 | 18.21 Mbytes
Step Temp Press TotEng PotEng Enthalpy 
   62495    1866.7227     396.2313   -72539.922   -77281.568   -72369.913 
   64000    1842.2532   -369.23628   -72616.997   -77296.488   -72775.658 
Loop time of 143.368 on 1 procs for 1505 steps with 19652 atoms

Performance: 0.907 ns/day, 26.461 hours/ns, 10.497 timesteps/s
99.9% CPU use with 1 MPI tasks x no OpenMP threads

MPI task timing breakdown:
Section |  min time  |  avg time  |  max time  |%varavg| %total
---------------------------------------------------------------
Pair    | 72.232     | 72.232     | 72.232     |   0.0 | 50.38
Neigh   | 66.681     | 66.681     | 66.681     |   0.0 | 46.51
Comm    | 1.5734     | 1.5734     | 1.5734     |   0.0 |  1.10
Output  | 0.054196   | 0.054196   | 0.054196   |   0.0 |  0.04
Modify  | 2.2475     | 2.2475     | 2.2475     |   0.0 |  1.57
Other   |            | 0.5789     |            |       |  0.40

Nlocal:    19652 ave 19652 max 19652 min
Histogram: 1 0 0 0 0 0 0 0 0 0
Nghost:    13629 ave 13629 max 13629 min
Histogram: 1 0 0 0 0 0 0 0 0 0
Neighs:    696302 ave 696302 max 696302 min
Histogram: 1 0 0 0 0 0 0 0 0 0

Total # of neighbors = 696302
Ave neighs/atom = 35.4316
Neighbor list builds = 1505
Dangerous builds not checked
Setting up Verlet run ...
  Unit style    : metal
  Current step  : 64000
  Time step     : 0.001
Per MPI rank memory allocation (min/avg/max) = 18.21 | 18.21 | 18.21 Mbytes
Step Temp Press TotEng PotEng Enthalpy 
   64000    1842.2532   -369.23628   -72616.997   -77296.488   -72775.658 
   64495      1802.79   -159.80682   -72851.865   -77431.116   -72920.367 
Loop time of 44.4801 on 1 procs for 495 steps with 19652 atoms

Performance: 0.962 ns/day, 24.961 hours/ns, 11.129 timesteps/s
99.8% CPU use with 1 MPI tasks x no OpenMP threads

MPI task timing breakdown:
Section |  min time  |  avg time  |  max time  |%varavg| %total
---------------------------------------------------------------
Pair    | 22.072     | 22.072     | 22.072     |   0.0 | 49.62
Neigh   | 21.046     | 21.046     | 21.046     |   0.0 | 47.32
Comm    | 0.4795     | 0.4795     | 0.4795     |   0.0 |  1.08
Output  | 0.00031996 | 0.00031996 | 0.00031996 |   0.0 |  0.00
Modify  | 0.699      | 0.699      | 0.699      |   0.0 |  1.57
Other   |            | 0.1836     |            |       |  0.41

Nlocal:    19652 ave 19652 max 19652 min
Histogram: 1 0 0 0 0 0 0 0 0 0
Nghost:    13646 ave 13646 max 13646 min
Histogram: 1 0 0 0 0 0 0 0 0 0
Neighs:    697345 ave 697345 max 697345 min
Histogram: 1 0 0 0 0 0 0 0 0 0

Total # of neighbors = 697345
Ave neighs/atom = 35.4847
Neighbor list builds = 495
Dangerous builds not checked
Setting up Verlet run ...
  Unit style    : metal
  Current step  : 64495
  Time step     : 0.001
Per MPI rank memory allocation (min/avg/max) = 18.21 | 18.21 | 18.21 Mbytes
Step Temp Press TotEng PotEng Enthalpy 
   64495      1802.79   -159.80682   -72851.865   -77431.116   -72920.367 
   66000     1831.087    220.09972   -72850.093   -77501.221   -72755.917 
Loop time of 152.395 on 1 procs for 1505 steps with 19652 atoms

Performance: 0.853 ns/day, 28.128 hours/ns, 9.876 timesteps/s
99.8% CPU use with 1 MPI tasks x no OpenMP threads

MPI task timing breakdown:
Section |  min time  |  avg time  |  max time  |%varavg| %total
---------------------------------------------------------------
Pair    | 77.706     | 77.706     | 77.706     |   0.0 | 50.99
Neigh   | 69.993     | 69.993     | 69.993     |   0.0 | 45.93
Comm    | 1.6408     | 1.6408     | 1.6408     |   0.0 |  1.08
Output  | 0.067537   | 0.067537   | 0.067537   |   0.0 |  0.04
Modify  | 2.3767     | 2.3767     | 2.3767     |   0.0 |  1.56
Other   |            | 0.6116     |            |       |  0.40

Nlocal:    19652 ave 19652 max 19652 min
Histogram: 1 0 0 0 0 0 0 0 0 0
Nghost:    13628 ave 13628 max 13628 min
Histogram: 1 0 0 0 0 0 0 0 0 0
Neighs:    698471 ave 698471 max 698471 min
Histogram: 1 0 0 0 0 0 0 0 0 0

Total # of neighbors = 698471
Ave neighs/atom = 35.542
Neighbor list builds = 1505
Dangerous builds not checked
Setting up Verlet run ...
  Unit style    : metal
  Current step  : 66000
  Time step     : 0.001
Per MPI rank memory allocation (min/avg/max) = 18.21 | 18.21 | 18.21 Mbytes
Step Temp Press TotEng PotEng Enthalpy 
   66000     1831.087    220.09972   -72850.093   -77501.221   -72755.917 
   66495    1764.9794    383.60808   -73151.416   -77634.624   -72987.607 
Loop time of 53.1701 on 1 procs for 495 steps with 19652 atoms

Performance: 0.804 ns/day, 29.837 hours/ns, 9.310 timesteps/s
99.9% CPU use with 1 MPI tasks x no OpenMP threads

MPI task timing breakdown:
Section |  min time  |  avg time  |  max time  |%varavg| %total
---------------------------------------------------------------
Pair    | 27.461     | 27.461     | 27.461     |   0.0 | 51.65
Neigh   | 24.038     | 24.038     | 24.038     |   0.0 | 45.21
Comm    | 0.58727    | 0.58727    | 0.58727    |   0.0 |  1.10
Output  | 0.00027895 | 0.00027895 | 0.00027895 |   0.0 |  0.00
Modify  | 0.86631    | 0.86631    | 0.86631    |   0.0 |  1.63
Other   |            | 0.2171     |            |       |  0.41

Nlocal:    19652 ave 19652 max 19652 min
Histogram: 1 0 0 0 0 0 0 0 0 0
Nghost:    13634 ave 13634 max 13634 min
Histogram: 1 0 0 0 0 0 0 0 0 0
Neighs:    699659 ave 699659 max 699659 min
Histogram: 1 0 0 0 0 0 0 0 0 0

Total # of neighbors = 699659
Ave neighs/atom = 35.6024
Neighbor list builds = 495
Dangerous builds not checked
Setting up Verlet run ...
  Unit style    : metal
  Current step  : 66495
  Time step     : 0.001
Per MPI rank memory allocation (min/avg/max) = 18.21 | 18.21 | 18.21 Mbytes
Step Temp Press TotEng PotEng Enthalpy 
   66495    1764.9794    383.60808   -73151.416   -77634.624   -72987.607 
   68000    1747.6733    564.42927   -73265.347   -77704.597   -73024.567 
Loop time of 163.993 on 1 procs for 1505 steps with 19652 atoms

Performance: 0.793 ns/day, 30.268 hours/ns, 9.177 timesteps/s
99.9% CPU use with 1 MPI tasks x no OpenMP threads

MPI task timing breakdown:
Section |  min time  |  avg time  |  max time  |%varavg| %total
---------------------------------------------------------------
Pair    | 84.899     | 84.899     | 84.899     |   0.0 | 51.77
Neigh   | 73.966     | 73.966     | 73.966     |   0.0 | 45.10
Comm    | 1.8054     | 1.8054     | 1.8054     |   0.0 |  1.10
Output  | 0.056278   | 0.056278   | 0.056278   |   0.0 |  0.03
Modify  | 2.6111     | 2.6111     | 2.6111     |   0.0 |  1.59
Other   |            | 0.6557     |            |       |  0.40

Nlocal:    19652 ave 19652 max 19652 min
Histogram: 1 0 0 0 0 0 0 0 0 0
Nghost:    13735 ave 13735 max 13735 min
Histogram: 1 0 0 0 0 0 0 0 0 0
Neighs:    699861 ave 699861 max 699861 min
Histogram: 1 0 0 0 0 0 0 0 0 0

Total # of neighbors = 699861
Ave neighs/atom = 35.6127
Neighbor list builds = 1505
Dangerous builds not checked
Setting up Verlet run ...
  Unit style    : metal
  Current step  : 68000
  Time step     : 0.001
Per MPI rank memory allocation (min/avg/max) = 18.21 | 18.21 | 18.21 Mbytes
Step Temp Press TotEng PotEng Enthalpy 
   68000    1747.6733    564.42927   -73265.347   -77704.597   -73024.567 
   68495    1703.6572    209.40076   -73452.479   -77779.924   -73363.228 
Loop time of 49.6398 on 1 procs for 495 steps with 19652 atoms

Performance: 0.862 ns/day, 27.856 hours/ns, 9.972 timesteps/s
99.4% CPU use with 1 MPI tasks x no OpenMP threads

MPI task timing breakdown:
Section |  min time  |  avg time  |  max time  |%varavg| %total
---------------------------------------------------------------
Pair    | 25.288     | 25.288     | 25.288     |   0.0 | 50.94
Neigh   | 22.784     | 22.784     | 22.784     |   0.0 | 45.90
Comm    | 0.55727    | 0.55727    | 0.55727    |   0.0 |  1.12
Output  | 0.00025415 | 0.00025415 | 0.00025415 |   0.0 |  0.00
Modify  | 0.80734    | 0.80734    | 0.80734    |   0.0 |  1.63
Other   |            | 0.2029     |            |       |  0.41

Nlocal:    19652 ave 19652 max 19652 min
Histogram: 1 0 0 0 0 0 0 0 0 0
Nghost:    13731 ave 13731 max 13731 min
Histogram: 1 0 0 0 0 0 0 0 0 0
Neighs:    700537 ave 700537 max 700537 min
Histogram: 1 0 0 0 0 0 0 0 0 0

Total # of neighbors = 700537
Ave neighs/atom = 35.6471
Neighbor list builds = 495
Dangerous builds not checked
Setting up Verlet run ...
  Unit style    : metal
  Current step  : 68495
  Time step     : 0.001
Per MPI rank memory allocation (min/avg/max) = 18.21 | 18.21 | 18.21 Mbytes
Step Temp Press TotEng PotEng Enthalpy 
   68495    1703.6572    209.40076   -73452.479   -77779.924   -73363.228 
   70000    1709.2265    656.48705   -73610.362   -77951.953   -73331.274 
Loop time of 138.774 on 1 procs for 1505 steps with 19652 atoms

Performance: 0.937 ns/day, 25.614 hours/ns, 10.845 timesteps/s
100.0% CPU use with 1 MPI tasks x no OpenMP threads

MPI task timing breakdown:
Section |  min time  |  avg time  |  max time  |%varavg| %total
---------------------------------------------------------------
Pair    | 69.291     | 69.291     | 69.291     |   0.0 | 49.93
Neigh   | 65.213     | 65.213     | 65.213     |   0.0 | 46.99
Comm    | 1.4858     | 1.4858     | 1.4858     |   0.0 |  1.07
Output  | 0.055935   | 0.055935   | 0.055935   |   0.0 |  0.04
Modify  | 2.162      | 2.162      | 2.162      |   0.0 |  1.56
Other   |            | 0.5665     |            |       |  0.41

Nlocal:    19652 ave 19652 max 19652 min
Histogram: 1 0 0 0 0 0 0 0 0 0
Nghost:    13763 ave 13763 max 13763 min
Histogram: 1 0 0 0 0 0 0 0 0 0
Neighs:    701297 ave 701297 max 701297 min
Histogram: 1 0 0 0 0 0 0 0 0 0

Total # of neighbors = 701297
Ave neighs/atom = 35.6858
Neighbor list builds = 1505
Dangerous builds not checked
Setting up Verlet run ...
  Unit style    : metal
  Current step  : 70000
  Time step     : 0.001
Per MPI rank memory allocation (min/avg/max) = 18.21 | 18.21 | 18.21 Mbytes
Step Temp Press TotEng PotEng Enthalpy 
   70000    1709.2265    656.48705   -73610.362   -77951.953   -73331.274 
   70495    1672.0145    574.61224   -73814.313   -78061.382   -73570.166 
Loop time of 44.0255 on 1 procs for 495 steps with 19652 atoms

Performance: 0.971 ns/day, 24.706 hours/ns, 11.243 timesteps/s
100.0% CPU use with 1 MPI tasks x no OpenMP threads

MPI task timing breakdown:
Section |  min time  |  avg time  |  max time  |%varavg| %total
---------------------------------------------------------------
Pair    | 21.714     | 21.714     | 21.714     |   0.0 | 49.32
Neigh   | 20.964     | 20.964     | 20.964     |   0.0 | 47.62
Comm    | 0.46794    | 0.46794    | 0.46794    |   0.0 |  1.06
Output  | 0.00023317 | 0.00023317 | 0.00023317 |   0.0 |  0.00
Modify  | 0.69356    | 0.69356    | 0.69356    |   0.0 |  1.58
Other   |            | 0.186      |            |       |  0.42

Nlocal:    19652 ave 19652 max 19652 min
Histogram: 1 0 0 0 0 0 0 0 0 0
Nghost:    13716 ave 13716 max 13716 min
Histogram: 1 0 0 0 0 0 0 0 0 0
Neighs:    701137 ave 701137 max 701137 min
Histogram: 1 0 0 0 0 0 0 0 0 0

Total # of neighbors = 701137
Ave neighs/atom = 35.6776
Neighbor list builds = 495
Dangerous builds not checked
Setting up Verlet run ...
  Unit style    : metal
  Current step  : 70495
  Time step     : 0.001
Per MPI rank memory allocation (min/avg/max) = 18.21 | 18.21 | 18.21 Mbytes
Step Temp Press TotEng PotEng Enthalpy 
   70495    1672.0145    574.61224   -73814.313   -78061.382   -73570.166 
   72000    1661.1064    551.08048   -73894.064   -78113.425   -73660.169 
Loop time of 147.558 on 1 procs for 1505 steps with 19652 atoms

Performance: 0.881 ns/day, 27.235 hours/ns, 10.199 timesteps/s
99.8% CPU use with 1 MPI tasks x no OpenMP threads

MPI task timing breakdown:
Section |  min time  |  avg time  |  max time  |%varavg| %total
---------------------------------------------------------------
Pair    | 74.704     | 74.704     | 74.704     |   0.0 | 50.63
Neigh   | 68.272     | 68.272     | 68.272     |   0.0 | 46.27
Comm    | 1.599      | 1.599      | 1.599      |   0.0 |  1.08
Output  | 0.055251   | 0.055251   | 0.055251   |   0.0 |  0.04
Modify  | 2.3322     | 2.3322     | 2.3322     |   0.0 |  1.58
Other   |            | 0.5961     |            |       |  0.40

Nlocal:    19652 ave 19652 max 19652 min
Histogram: 1 0 0 0 0 0 0 0 0 0
Nghost:    13744 ave 13744 max 13744 min
Histogram: 1 0 0 0 0 0 0 0 0 0
Neighs:    701681 ave 701681 max 701681 min
Histogram: 1 0 0 0 0 0 0 0 0 0

Total # of neighbors = 701681
Ave neighs/atom = 35.7053
Neighbor list builds = 1505
Dangerous builds not checked
Setting up Verlet run ...
  Unit style    : metal
  Current step  : 72000
  Time step     : 0.001
Per MPI rank memory allocation (min/avg/max) = 18.21 | 18.21 | 18.21 Mbytes
Step Temp Press TotEng PotEng Enthalpy 
   72000    1661.1064    551.08048   -73894.064   -78113.425   -73660.169 
   72495    1618.8639    591.53748    -74131.15   -78243.212   -73880.469 
Loop time of 42.881 on 1 procs for 495 steps with 19652 atoms

Performance: 0.997 ns/day, 24.063 hours/ns, 11.544 timesteps/s
99.7% CPU use with 1 MPI tasks x no OpenMP threads

MPI task timing breakdown:
Section |  min time  |  avg time  |  max time  |%varavg| %total
---------------------------------------------------------------
Pair    | 21.088     | 21.088     | 21.088     |   0.0 | 49.18
Neigh   | 20.481     | 20.481     | 20.481     |   0.0 | 47.76
Comm    | 0.45857    | 0.45857    | 0.45857    |   0.0 |  1.07
Output  | 0.00016689 | 0.00016689 | 0.00016689 |   0.0 |  0.00
Modify  | 0.6763     | 0.6763     | 0.6763     |   0.0 |  1.58
Other   |            | 0.1768     |            |       |  0.41

Nlocal:    19652 ave 19652 max 19652 min
Histogram: 1 0 0 0 0 0 0 0 0 0
Nghost:    13702 ave 13702 max 13702 min
Histogram: 1 0 0 0 0 0 0 0 0 0
Neighs:    702427 ave 702427 max 702427 min
Histogram: 1 0 0 0 0 0 0 0 0 0

Total # of neighbors = 702427
Ave neighs/atom = 35.7433
Neighbor list builds = 495
Dangerous builds not checked
Setting up Verlet run ...
  Unit style    : metal
  Current step  : 72495
  Time step     : 0.001
Per MPI rank memory allocation (min/avg/max) = 18.21 | 18.21 | 18.21 Mbytes
Step Temp Press TotEng PotEng Enthalpy 
   72495    1618.8639    591.53748    -74131.15   -78243.212   -73880.469 
   74000    1607.5558    1131.9089   -74317.561   -78400.899   -73839.288 
Loop time of 145.382 on 1 procs for 1505 steps with 19652 atoms

Performance: 0.894 ns/day, 26.833 hours/ns, 10.352 timesteps/s
99.9% CPU use with 1 MPI tasks x no OpenMP threads

MPI task timing breakdown:
Section |  min time  |  avg time  |  max time  |%varavg| %total
---------------------------------------------------------------
Pair    | 73.384     | 73.384     | 73.384     |   0.0 | 50.48
Neigh   | 67.426     | 67.426     | 67.426     |   0.0 | 46.38
Comm    | 1.6125     | 1.6125     | 1.6125     |   0.0 |  1.11
Output  | 0.051016   | 0.051016   | 0.051016   |   0.0 |  0.04
Modify  | 2.3179     | 2.3179     | 2.3179     |   0.0 |  1.59
Other   |            | 0.5909     |            |       |  0.41

Nlocal:    19652 ave 19652 max 19652 min
Histogram: 1 0 0 0 0 0 0 0 0 0
Nghost:    13756 ave 13756 max 13756 min
Histogram: 1 0 0 0 0 0 0 0 0 0
Neighs:    703826 ave 703826 max 703826 min
Histogram: 1 0 0 0 0 0 0 0 0 0

Total # of neighbors = 703826
Ave neighs/atom = 35.8145
Neighbor list builds = 1505
Dangerous builds not checked
Setting up Verlet run ...
  Unit style    : metal
  Current step  : 74000
  Time step     : 0.001
Per MPI rank memory allocation (min/avg/max) = 18.21 | 18.21 | 18.21 Mbytes
Step Temp Press TotEng PotEng Enthalpy 
   74000    1607.5558    1131.9089   -74317.561   -78400.899   -73839.288 
   74495    1557.5182    909.15906   -74500.282    -78456.52   -74116.436 
Loop time of 43.7933 on 1 procs for 495 steps with 19652 atoms

Performance: 0.977 ns/day, 24.575 hours/ns, 11.303 timesteps/s
100.0% CPU use with 1 MPI tasks x no OpenMP threads

MPI task timing breakdown:
Section |  min time  |  avg time  |  max time  |%varavg| %total
---------------------------------------------------------------
Pair    | 21.67      | 21.67      | 21.67      |   0.0 | 49.48
Neigh   | 20.776     | 20.776     | 20.776     |   0.0 | 47.44
Comm    | 0.47481    | 0.47481    | 0.47481    |   0.0 |  1.08
Output  | 0.00022101 | 0.00022101 | 0.00022101 |   0.0 |  0.00
Modify  | 0.69228    | 0.69228    | 0.69228    |   0.0 |  1.58
Other   |            | 0.1794     |            |       |  0.41

Nlocal:    19652 ave 19652 max 19652 min
Histogram: 1 0 0 0 0 0 0 0 0 0
Nghost:    13775 ave 13775 max 13775 min
Histogram: 1 0 0 0 0 0 0 0 0 0
Neighs:    704066 ave 704066 max 704066 min
Histogram: 1 0 0 0 0 0 0 0 0 0

Total # of neighbors = 704066
Ave neighs/atom = 35.8267
Neighbor list builds = 495
Dangerous builds not checked
Setting up Verlet run ...
  Unit style    : metal
  Current step  : 74495
  Time step     : 0.001
Per MPI rank memory allocation (min/avg/max) = 18.21 | 18.21 | 18.21 Mbytes
Step Temp Press TotEng PotEng Enthalpy 
   74495    1557.5182    909.15906   -74500.282    -78456.52   -74116.436 
   76000    1545.8038    1334.8083   -74582.126   -78508.609   -74019.176 
Loop time of 138.891 on 1 procs for 1505 steps with 19652 atoms

Performance: 0.936 ns/day, 25.635 hours/ns, 10.836 timesteps/s
99.7% CPU use with 1 MPI tasks x no OpenMP threads

MPI task timing breakdown:
Section |  min time  |  avg time  |  max time  |%varavg| %total
---------------------------------------------------------------
Pair    | 69.493     | 69.493     | 69.493     |   0.0 | 50.03
Neigh   | 65.121     | 65.121     | 65.121     |   0.0 | 46.89
Comm    | 1.4951     | 1.4951     | 1.4951     |   0.0 |  1.08
Output  | 0.069231   | 0.069231   | 0.069231   |   0.0 |  0.05
Modify  | 2.1547     | 2.1547     | 2.1547     |   0.0 |  1.55
Other   |            | 0.557      |            |       |  0.40

Nlocal:    19652 ave 19652 max 19652 min
Histogram: 1 0 0 0 0 0 0 0 0 0
Nghost:    13814 ave 13814 max 13814 min
Histogram: 1 0 0 0 0 0 0 0 0 0
Neighs:    704809 ave 704809 max 704809 min
Histogram: 1 0 0 0 0 0 0 0 0 0

Total # of neighbors = 704809
Ave neighs/atom = 35.8645
Neighbor list builds = 1505
Dangerous builds not checked
Setting up Verlet run ...
  Unit style    : metal
  Current step  : 76000
  Time step     : 0.001
Per MPI rank memory allocation (min/avg/max) = 18.21 | 18.21 | 18.21 Mbytes
Step Temp Press TotEng PotEng Enthalpy 
   76000    1545.8038    1334.8083   -74582.126   -78508.609   -74019.176 
   76495    1512.3356    924.31673   -74784.709   -78626.179    -74395.19 
Loop time of 42.7179 on 1 procs for 495 steps with 19652 atoms

Performance: 1.001 ns/day, 23.972 hours/ns, 11.588 timesteps/s
100.0% CPU use with 1 MPI tasks x no OpenMP threads

MPI task timing breakdown:
Section |  min time  |  avg time  |  max time  |%varavg| %total
---------------------------------------------------------------
Pair    | 20.976     | 20.976     | 20.976     |   0.0 | 49.10
Neigh   | 20.452     | 20.452     | 20.452     |   0.0 | 47.88
Comm    | 0.4519     | 0.4519     | 0.4519     |   0.0 |  1.06
Output  | 0.0001688  | 0.0001688  | 0.0001688  |   0.0 |  0.00
Modify  | 0.66344    | 0.66344    | 0.66344    |   0.0 |  1.55
Other   |            | 0.1751     |            |       |  0.41

Nlocal:    19652 ave 19652 max 19652 min
Histogram: 1 0 0 0 0 0 0 0 0 0
Nghost:    13818 ave 13818 max 13818 min
Histogram: 1 0 0 0 0 0 0 0 0 0
Neighs:    705025 ave 705025 max 705025 min
Histogram: 1 0 0 0 0 0 0 0 0 0

Total # of neighbors = 705025
Ave neighs/atom = 35.8755
Neighbor list builds = 495
Dangerous builds not checked
Setting up Verlet run ...
  Unit style    : metal
  Current step  : 76495
  Time step     : 0.001
Per MPI rank memory allocation (min/avg/max) = 18.21 | 18.21 | 18.21 Mbytes
Step Temp Press TotEng PotEng Enthalpy 
   76495    1512.3356    924.31673   -74784.709   -78626.179    -74395.19 
   78000    1502.9166    329.64407   -74949.698   -78767.243   -74810.728 
Loop time of 142.382 on 1 procs for 1505 steps with 19652 atoms

Performance: 0.913 ns/day, 26.279 hours/ns, 10.570 timesteps/s
99.7% CPU use with 1 MPI tasks x no OpenMP threads

MPI task timing breakdown:
Section |  min time  |  avg time  |  max time  |%varavg| %total
---------------------------------------------------------------
Pair    | 71.971     | 71.971     | 71.971     |   0.0 | 50.55
Neigh   | 65.993     | 65.993     | 65.993     |   0.0 | 46.35
Comm    | 1.5486     | 1.5486     | 1.5486     |   0.0 |  1.09
Output  | 0.061533   | 0.061533   | 0.061533   |   0.0 |  0.04
Modify  | 2.2329     | 2.2329     | 2.2329     |   0.0 |  1.57
Other   |            | 0.5745     |            |       |  0.40

Nlocal:    19652 ave 19652 max 19652 min
Histogram: 1 0 0 0 0 0 0 0 0 0
Nghost:    13801 ave 13801 max 13801 min
Histogram: 1 0 0 0 0 0 0 0 0 0
Neighs:    703982 ave 703982 max 703982 min
Histogram: 1 0 0 0 0 0 0 0 0 0

Total # of neighbors = 703982
Ave neighs/atom = 35.8224
Neighbor list builds = 1505
Dangerous builds not checked
Setting up Verlet run ...
  Unit style    : metal
  Current step  : 78000
  Time step     : 0.001
Per MPI rank memory allocation (min/avg/max) = 18.21 | 18.21 | 18.21 Mbytes
Step Temp Press TotEng PotEng Enthalpy 
   78000    1502.9166    329.64407   -74949.698   -78767.243   -74810.728 
   78495    1464.9693    492.58651   -75141.528   -78862.683    -74934.25 
Loop time of 52.6318 on 1 procs for 495 steps with 19652 atoms

Performance: 0.813 ns/day, 29.535 hours/ns, 9.405 timesteps/s
99.9% CPU use with 1 MPI tasks x no OpenMP threads

MPI task timing breakdown:
Section |  min time  |  avg time  |  max time  |%varavg| %total
---------------------------------------------------------------
Pair    | 27.134     | 27.134     | 27.134     |   0.0 | 51.55
Neigh   | 23.85      | 23.85      | 23.85      |   0.0 | 45.31
Comm    | 0.57804    | 0.57804    | 0.57804    |   0.0 |  1.10
Output  | 0.00022578 | 0.00022578 | 0.00022578 |   0.0 |  0.00
Modify  | 0.85336    | 0.85336    | 0.85336    |   0.0 |  1.62
Other   |            | 0.2161     |            |       |  0.41

Nlocal:    19652 ave 19652 max 19652 min
Histogram: 1 0 0 0 0 0 0 0 0 0
Nghost:    13793 ave 13793 max 13793 min
Histogram: 1 0 0 0 0 0 0 0 0 0
Neighs:    705235 ave 705235 max 705235 min
Histogram: 1 0 0 0 0 0 0 0 0 0

Total # of neighbors = 705235
Ave neighs/atom = 35.8862
Neighbor list builds = 495
Dangerous builds not checked
Setting up Verlet run ...
  Unit style    : metal
  Current step  : 78495
  Time step     : 0.001
Per MPI rank memory allocation (min/avg/max) = 18.21 | 18.21 | 18.21 Mbytes
Step Temp Press TotEng PotEng Enthalpy 
   78495    1464.9693    492.58651   -75141.528   -78862.683    -74934.25 
   80000    1449.8549    656.88089   -75252.656   -78935.419    -74976.55 
Loop time of 140.392 on 1 procs for 1505 steps with 19652 atoms

Performance: 0.926 ns/day, 25.912 hours/ns, 10.720 timesteps/s
99.8% CPU use with 1 MPI tasks x no OpenMP threads

MPI task timing breakdown:
Section |  min time  |  avg time  |  max time  |%varavg| %total
---------------------------------------------------------------
Pair    | 70.367     | 70.367     | 70.367     |   0.0 | 50.12
Neigh   | 65.652     | 65.652     | 65.652     |   0.0 | 46.76
Comm    | 1.5225     | 1.5225     | 1.5225     |   0.0 |  1.08
Output  | 0.055699   | 0.055699   | 0.055699   |   0.0 |  0.04
Modify  | 2.2211     | 2.2211     | 2.2211     |   0.0 |  1.58
Other   |            | 0.5742     |            |       |  0.41

Nlocal:    19652 ave 19652 max 19652 min
Histogram: 1 0 0 0 0 0 0 0 0 0
Nghost:    13814 ave 13814 max 13814 min
Histogram: 1 0 0 0 0 0 0 0 0 0
Neighs:    705711 ave 705711 max 705711 min
Histogram: 1 0 0 0 0 0 0 0 0 0

Total # of neighbors = 705711
Ave neighs/atom = 35.9104
Neighbor list builds = 1505
Dangerous builds not checked
Setting up Verlet run ...
  Unit style    : metal
  Current step  : 80000
  Time step     : 0.001
Per MPI rank memory allocation (min/avg/max) = 18.21 | 18.21 | 18.21 Mbytes
Step Temp Press TotEng PotEng Enthalpy 
   80000    1449.8549    656.88089   -75252.656   -78935.419    -74976.55 
   80495    1414.6675    461.55026   -75468.453   -79061.837   -75274.606 
Loop time of 44.0733 on 1 procs for 495 steps with 19652 atoms

Performance: 0.970 ns/day, 24.732 hours/ns, 11.231 timesteps/s
100.0% CPU use with 1 MPI tasks x no OpenMP threads

MPI task timing breakdown:
Section |  min time  |  avg time  |  max time  |%varavg| %total
---------------------------------------------------------------
Pair    | 21.828     | 21.828     | 21.828     |   0.0 | 49.53
Neigh   | 20.895     | 20.895     | 20.895     |   0.0 | 47.41
Comm    | 0.47386    | 0.47386    | 0.47386    |   0.0 |  1.08
Output  | 0.00018501 | 0.00018501 | 0.00018501 |   0.0 |  0.00
Modify  | 0.69524    | 0.69524    | 0.69524    |   0.0 |  1.58
Other   |            | 0.1813     |            |       |  0.41

Nlocal:    19652 ave 19652 max 19652 min
Histogram: 1 0 0 0 0 0 0 0 0 0
Nghost:    13773 ave 13773 max 13773 min
Histogram: 1 0 0 0 0 0 0 0 0 0
Neighs:    705532 ave 705532 max 705532 min
Histogram: 1 0 0 0 0 0 0 0 0 0

Total # of neighbors = 705532
Ave neighs/atom = 35.9013
Neighbor list builds = 495
Dangerous builds not checked
Setting up Verlet run ...
  Unit style    : metal
  Current step  : 80495
  Time step     : 0.001
Per MPI rank memory allocation (min/avg/max) = 18.21 | 18.21 | 18.21 Mbytes
Step Temp Press TotEng PotEng Enthalpy 
   80495    1414.6675    461.55026   -75468.453   -79061.837   -75274.606 
   82000     1415.044   -23.498047   -75539.073   -79133.413   -75548.949 
Loop time of 140.108 on 1 procs for 1505 steps with 19652 atoms

Performance: 0.928 ns/day, 25.860 hours/ns, 10.742 timesteps/s
100.0% CPU use with 1 MPI tasks x no OpenMP threads

MPI task timing breakdown:
Section |  min time  |  avg time  |  max time  |%varavg| %total
---------------------------------------------------------------
Pair    | 70.296     | 70.296     | 70.296     |   0.0 | 50.17
Neigh   | 65.464     | 65.464     | 65.464     |   0.0 | 46.72
Comm    | 1.5172     | 1.5172     | 1.5172     |   0.0 |  1.08
Output  | 0.067242   | 0.067242   | 0.067242   |   0.0 |  0.05
Modify  | 2.1983     | 2.1983     | 2.1983     |   0.0 |  1.57
Other   |            | 0.5658     |            |       |  0.40

Nlocal:    19652 ave 19652 max 19652 min
Histogram: 1 0 0 0 0 0 0 0 0 0
Nghost:    13806 ave 13806 max 13806 min
Histogram: 1 0 0 0 0 0 0 0 0 0
Neighs:    704547 ave 704547 max 704547 min
Histogram: 1 0 0 0 0 0 0 0 0 0

Total # of neighbors = 704547
Ave neighs/atom = 35.8512
Neighbor list builds = 1505
Dangerous builds not checked
Setting up Verlet run ...
  Unit style    : metal
  Current step  : 82000
  Time step     : 0.001
Per MPI rank memory allocation (min/avg/max) = 18.21 | 18.21 | 18.21 Mbytes
Step Temp Press TotEng PotEng Enthalpy 
   82000     1415.044   -23.498047   -75539.073   -79133.413   -75548.949 
   82495    1366.3723    76.745164   -75800.533   -79271.243   -75768.327 
Loop time of 48.674 on 1 procs for 495 steps with 19652 atoms

Performance: 0.879 ns/day, 27.314 hours/ns, 10.170 timesteps/s
99.9% CPU use with 1 MPI tasks x no OpenMP threads

MPI task timing breakdown:
Section |  min time  |  avg time  |  max time  |%varavg| %total
---------------------------------------------------------------
Pair    | 24.836     | 24.836     | 24.836     |   0.0 | 51.02
Neigh   | 22.314     | 22.314     | 22.314     |   0.0 | 45.84
Comm    | 0.5398     | 0.5398     | 0.5398     |   0.0 |  1.11
Output  | 0.000278   | 0.000278   | 0.000278   |   0.0 |  0.00
Modify  | 0.78472    | 0.78472    | 0.78472    |   0.0 |  1.61
Other   |            | 0.1996     |            |       |  0.41

Nlocal:    19652 ave 19652 max 19652 min
Histogram: 1 0 0 0 0 0 0 0 0 0
Nghost:    13785 ave 13785 max 13785 min
Histogram: 1 0 0 0 0 0 0 0 0 0
Neighs:    705153 ave 705153 max 705153 min
Histogram: 1 0 0 0 0 0 0 0 0 0

Total # of neighbors = 705153
Ave neighs/atom = 35.882
Neighbor list builds = 495
Dangerous builds not checked
Setting up Verlet run ...
  Unit style    : metal
  Current step  : 82495
  Time step     : 0.001
Per MPI rank memory allocation (min/avg/max) = 18.21 | 18.21 | 18.21 Mbytes
Step Temp Press TotEng PotEng Enthalpy 
   82495    1366.3723    76.745164   -75800.533   -79271.243   -75768.327 
   84000    1352.0504    423.32005   -75903.962   -79338.293   -75726.641 
Loop time of 146.083 on 1 procs for 1505 steps with 19652 atoms

Performance: 0.890 ns/day, 26.963 hours/ns, 10.302 timesteps/s
99.8% CPU use with 1 MPI tasks x no OpenMP threads

MPI task timing breakdown:
Section |  min time  |  avg time  |  max time  |%varavg| %total
---------------------------------------------------------------
Pair    | 74.181     | 74.181     | 74.181     |   0.0 | 50.78
Neigh   | 67.298     | 67.298     | 67.298     |   0.0 | 46.07
Comm    | 1.6025     | 1.6025     | 1.6025     |   0.0 |  1.10
Output  | 0.072182   | 0.072182   | 0.072182   |   0.0 |  0.05
Modify  | 2.3318     | 2.3318     | 2.3318     |   0.0 |  1.60
Other   |            | 0.5977     |            |       |  0.41

Nlocal:    19652 ave 19652 max 19652 min
Histogram: 1 0 0 0 0 0 0 0 0 0
Nghost:    13787 ave 13787 max 13787 min
Histogram: 1 0 0 0 0 0 0 0 0 0
Neighs:    705896 ave 705896 max 705896 min
Histogram: 1 0 0 0 0 0 0 0 0 0

Total # of neighbors = 705896
Ave neighs/atom = 35.9198
Neighbor list builds = 1505
Dangerous builds not checked
Setting up Verlet run ...
  Unit style    : metal
  Current step  : 84000
  Time step     : 0.001
Per MPI rank memory allocation (min/avg/max) = 18.21 | 18.21 | 18.21 Mbytes
Step Temp Press TotEng PotEng Enthalpy 
   84000    1352.0504    423.32005   -75903.962   -79338.293   -75726.641 
   84495    1319.3083    107.45679   -76133.954   -79485.117   -76088.973 
Loop time of 53.4196 on 1 procs for 495 steps with 19652 atoms

Performance: 0.801 ns/day, 29.977 hours/ns, 9.266 timesteps/s
99.9% CPU use with 1 MPI tasks x no OpenMP threads

MPI task timing breakdown:
Section |  min time  |  avg time  |  max time  |%varavg| %total
---------------------------------------------------------------
Pair    | 27.828     | 27.828     | 27.828     |   0.0 | 52.09
Neigh   | 23.905     | 23.905     | 23.905     |   0.0 | 44.75
Comm    | 0.59715    | 0.59715    | 0.59715    |   0.0 |  1.12
Output  | 0.00027394 | 0.00027394 | 0.00027394 |   0.0 |  0.00
Modify  | 0.87091    | 0.87091    | 0.87091    |   0.0 |  1.63
Other   |            | 0.2181     |            |       |  0.41

Nlocal:    19652 ave 19652 max 19652 min
Histogram: 1 0 0 0 0 0 0 0 0 0
Nghost:    13848 ave 13848 max 13848 min
Histogram: 1 0 0 0 0 0 0 0 0 0
Neighs:    705999 ave 705999 max 705999 min
Histogram: 1 0 0 0 0 0 0 0 0 0

Total # of neighbors = 705999
Ave neighs/atom = 35.925
Neighbor list builds = 495
Dangerous builds not checked
Setting up Verlet run ...
  Unit style    : metal
  Current step  : 84495
  Time step     : 0.001
Per MPI rank memory allocation (min/avg/max) = 18.21 | 18.21 | 18.21 Mbytes
Step Temp Press TotEng PotEng Enthalpy 
   84495    1319.3083    107.45679   -76133.954   -79485.117   -76088.973 
   86000    1303.8486   -47.727544   -76288.241   -79600.136   -76308.206 
Loop time of 137.096 on 1 procs for 1505 steps with 19652 atoms

Performance: 0.948 ns/day, 25.304 hours/ns, 10.978 timesteps/s
99.9% CPU use with 1 MPI tasks x no OpenMP threads

MPI task timing breakdown:
Section |  min time  |  avg time  |  max time  |%varavg| %total
---------------------------------------------------------------
Pair    | 68.696     | 68.696     | 68.696     |   0.0 | 50.11
Neigh   | 64.162     | 64.162     | 64.162     |   0.0 | 46.80
Comm    | 1.4837     | 1.4837     | 1.4837     |   0.0 |  1.08
Output  | 0.05157    | 0.05157    | 0.05157    |   0.0 |  0.04
Modify  | 2.1451     | 2.1451     | 2.1451     |   0.0 |  1.56
Other   |            | 0.558      |            |       |  0.41

Nlocal:    19652 ave 19652 max 19652 min
Histogram: 1 0 0 0 0 0 0 0 0 0
Nghost:    13861 ave 13861 max 13861 min
Histogram: 1 0 0 0 0 0 0 0 0 0
Neighs:    705891 ave 705891 max 705891 min
Histogram: 1 0 0 0 0 0 0 0 0 0

Total # of neighbors = 705891
Ave neighs/atom = 35.9196
Neighbor list builds = 1505
Dangerous builds not checked
Setting up Verlet run ...
  Unit style    : metal
  Current step  : 86000
  Time step     : 0.001
Per MPI rank memory allocation (min/avg/max) = 18.21 | 18.21 | 18.21 Mbytes
Step Temp Press TotEng PotEng Enthalpy 
   86000    1303.8486   -47.727544   -76288.241   -79600.136   -76308.206 
   86495    1267.4186    178.77925    -76449.25   -79668.608     -76374.6 
Loop time of 42.5633 on 1 procs for 495 steps with 19652 atoms

Performance: 1.005 ns/day, 23.885 hours/ns, 11.630 timesteps/s
99.7% CPU use with 1 MPI tasks x no OpenMP threads

MPI task timing breakdown:
Section |  min time  |  avg time  |  max time  |%varavg| %total
---------------------------------------------------------------
Pair    | 20.828     | 20.828     | 20.828     |   0.0 | 48.93
Neigh   | 20.421     | 20.421     | 20.421     |   0.0 | 47.98
Comm    | 0.45954    | 0.45954    | 0.45954    |   0.0 |  1.08
Output  | 0.00016308 | 0.00016308 | 0.00016308 |   0.0 |  0.00
Modify  | 0.67613    | 0.67613    | 0.67613    |   0.0 |  1.59
Other   |            | 0.1785     |            |       |  0.42

Nlocal:    19652 ave 19652 max 19652 min
Histogram: 1 0 0 0 0 0 0 0 0 0
Nghost:    13849 ave 13849 max 13849 min
Histogram: 1 0 0 0 0 0 0 0 0 0
Neighs:    706369 ave 706369 max 706369 min
Histogram: 1 0 0 0 0 0 0 0 0 0

Total # of neighbors = 706369
Ave neighs/atom = 35.9439
Neighbor list builds = 495
Dangerous builds not checked
Setting up Verlet run ...
  Unit style    : metal
  Current step  : 86495
  Time step     : 0.001
Per MPI rank memory allocation (min/avg/max) = 18.21 | 18.21 | 18.21 Mbytes
Step Temp Press TotEng PotEng Enthalpy 
   86495    1267.4186    178.77925    -76449.25   -79668.608     -76374.6 
   88000    1255.1954   -430.73101   -76550.125   -79738.436   -76730.194 
Loop time of 139.4 on 1 procs for 1505 steps with 19652 atoms

Performance: 0.933 ns/day, 25.729 hours/ns, 10.796 timesteps/s
99.9% CPU use with 1 MPI tasks x no OpenMP threads

MPI task timing breakdown:
Section |  min time  |  avg time  |  max time  |%varavg| %total
---------------------------------------------------------------
Pair    | 70.077     | 70.077     | 70.077     |   0.0 | 50.27
Neigh   | 64.928     | 64.928     | 64.928     |   0.0 | 46.58
Comm    | 1.5298     | 1.5298     | 1.5298     |   0.0 |  1.10
Output  | 0.068635   | 0.068635   | 0.068635   |   0.0 |  0.05
Modify  | 2.2259     | 2.2259     | 2.2259     |   0.0 |  1.60
Other   |            | 0.5701     |            |       |  0.41

Nlocal:    19652 ave 19652 max 19652 min
Histogram: 1 0 0 0 0 0 0 0 0 0
Nghost:    13785 ave 13785 max 13785 min
Histogram: 1 0 0 0 0 0 0 0 0 0
Neighs:    705310 ave 705310 max 705310 min
Histogram: 1 0 0 0 0 0 0 0 0 0

Total # of neighbors = 705310
Ave neighs/atom = 35.89
Neighbor list builds = 1505
Dangerous builds not checked
Setting up Verlet run ...
  Unit style    : metal
  Current step  : 88000
  Time step     : 0.001
Per MPI rank memory allocation (min/avg/max) = 18.21 | 18.21 | 18.21 Mbytes
Step Temp Press TotEng PotEng Enthalpy 
   88000    1255.1954   -430.73101   -76550.125   -79738.436   -76730.194 
   88495    1222.1854   -348.77997   -76785.607   -79890.069   -76931.173 
Loop time of 48.0407 on 1 procs for 495 steps with 19652 atoms

Performance: 0.890 ns/day, 26.959 hours/ns, 10.304 timesteps/s
99.9% CPU use with 1 MPI tasks x no OpenMP threads

MPI task timing breakdown:
Section |  min time  |  avg time  |  max time  |%varavg| %total
---------------------------------------------------------------
Pair    | 24.47      | 24.47      | 24.47      |   0.0 | 50.94
Neigh   | 22.078     | 22.078     | 22.078     |   0.0 | 45.96
Comm    | 0.52629    | 0.52629    | 0.52629    |   0.0 |  1.10
Output  | 0.00025702 | 0.00025702 | 0.00025702 |   0.0 |  0.00
Modify  | 0.76968    | 0.76968    | 0.76968    |   0.0 |  1.60
Other   |            | 0.1966     |            |       |  0.41

Nlocal:    19652 ave 19652 max 19652 min
Histogram: 1 0 0 0 0 0 0 0 0 0
Nghost:    13828 ave 13828 max 13828 min
Histogram: 1 0 0 0 0 0 0 0 0 0
Neighs:    705990 ave 705990 max 705990 min
Histogram: 1 0 0 0 0 0 0 0 0 0

Total # of neighbors = 705990
Ave neighs/atom = 35.9246
Neighbor list builds = 495
Dangerous builds not checked
Setting up Verlet run ...
  Unit style    : metal
  Current step  : 88495
  Time step     : 0.001
Per MPI rank memory allocation (min/avg/max) = 18.21 | 18.21 | 18.21 Mbytes
Step Temp Press TotEng PotEng Enthalpy 
   88495    1222.1854   -348.77997   -76785.607   -79890.069   -76931.173 
   90000    1203.7224    651.54874   -76915.518   -79973.083   -76644.568 
Loop time of 139.373 on 1 procs for 1505 steps with 19652 atoms

Performance: 0.933 ns/day, 25.724 hours/ns, 10.798 timesteps/s
99.9% CPU use with 1 MPI tasks x no OpenMP threads

MPI task timing breakdown:
Section |  min time  |  avg time  |  max time  |%varavg| %total
---------------------------------------------------------------
Pair    | 70.192     | 70.192     | 70.192     |   0.0 | 50.36
Neigh   | 64.843     | 64.843     | 64.843     |   0.0 | 46.53
Comm    | 1.5134     | 1.5134     | 1.5134     |   0.0 |  1.09
Output  | 0.054682   | 0.054682   | 0.054682   |   0.0 |  0.04
Modify  | 2.201      | 2.201      | 2.201      |   0.0 |  1.58
Other   |            | 0.5684     |            |       |  0.41

Nlocal:    19652 ave 19652 max 19652 min
Histogram: 1 0 0 0 0 0 0 0 0 0
Nghost:    13856 ave 13856 max 13856 min
Histogram: 1 0 0 0 0 0 0 0 0 0
Neighs:    708031 ave 708031 max 708031 min
Histogram: 1 0 0 0 0 0 0 0 0 0

Total # of neighbors = 708031
Ave neighs/atom = 36.0284
Neighbor list builds = 1505
Dangerous builds not checked
Setting up Verlet run ...
  Unit style    : metal
  Current step  : 90000
  Time step     : 0.001
Per MPI rank memory allocation (min/avg/max) = 18.21 | 18.21 | 18.21 Mbytes
Step Temp Press TotEng PotEng Enthalpy 
   90000    1203.7224    651.54874   -76915.518   -79973.083   -76644.568 
   90495    1164.8658    221.62106   -77140.177   -80099.042   -77048.055 
Loop time of 48.2758 on 1 procs for 495 steps with 19652 atoms

Performance: 0.886 ns/day, 27.091 hours/ns, 10.254 timesteps/s
99.4% CPU use with 1 MPI tasks x no OpenMP threads

MPI task timing breakdown:
Section |  min time  |  avg time  |  max time  |%varavg| %total
---------------------------------------------------------------
Pair    | 24.557     | 24.557     | 24.557     |   0.0 | 50.87
Neigh   | 22.25      | 22.25      | 22.25      |   0.0 | 46.09
Comm    | 0.51906    | 0.51906    | 0.51906    |   0.0 |  1.08
Output  | 0.00023222 | 0.00023222 | 0.00023222 |   0.0 |  0.00
Modify  | 0.75283    | 0.75283    | 0.75283    |   0.0 |  1.56
Other   |            | 0.1971     |            |       |  0.41

Nlocal:    19652 ave 19652 max 19652 min
Histogram: 1 0 0 0 0 0 0 0 0 0
Nghost:    13843 ave 13843 max 13843 min
Histogram: 1 0 0 0 0 0 0 0 0 0
Neighs:    707866 ave 707866 max 707866 min
Histogram: 1 0 0 0 0 0 0 0 0 0

Total # of neighbors = 707866
Ave neighs/atom = 36.02
Neighbor list builds = 495
Dangerous builds not checked
Setting up Verlet run ...
  Unit style    : metal
  Current step  : 90495
  Time step     : 0.001
Per MPI rank memory allocation (min/avg/max) = 18.21 | 18.21 | 18.21 Mbytes
Step Temp Press TotEng PotEng Enthalpy 
   90495    1164.8658    221.62106   -77140.177   -80099.042   -77048.055 
   92000    1146.1239   -726.40578   -77275.913   -80187.173   -77578.379 
Loop time of 142.555 on 1 procs for 1505 steps with 19652 atoms

Performance: 0.912 ns/day, 26.311 hours/ns, 10.557 timesteps/s
[...]
Neighs:    711310 ave 711310 max 711310 min
Histogram: 1 0 0 0 0 0 0 0 0 0

Total # of neighbors = 711310
Ave neighs/atom = 36.1953
Neighbor list builds = 1505
Dangerous builds not checked
Setting up Verlet run ...
  Unit style    : metal
  Current step  : 120000
  Time step     : 0.001
Per MPI rank memory allocation (min/avg/max) = 18.21 | 18.21 | 18.21 Mbytes
Step Temp Press TotEng PotEng Enthalpy 
  120000    449.01935    125.23771   -81623.887   -82764.437   -81573.249 
  120495    422.70817    185.91072   -81766.775   -82840.493   -81691.681 
Loop time of 42.9231 on 1 procs for 495 steps with 19652 atoms

Performance: 0.996 ns/day, 24.087 hours/ns, 11.532 timesteps/s
99.7% CPU use with 1 MPI tasks x no OpenMP threads

MPI task timing breakdown:
Section |  min time  |  avg time  |  max time  |%varavg| %total
---------------------------------------------------------------
Pair    | 21.147     | 21.147     | 21.147     |   0.0 | 49.27
Neigh   | 20.458     | 20.458     | 20.458     |   0.0 | 47.66
Comm    | 0.45567    | 0.45567    | 0.45567    |   0.0 |  1.06
Output  | 0.000247   | 0.000247   | 0.000247   |   0.0 |  0.00
Modify  | 0.68389    | 0.68389    | 0.68389    |   0.0 |  1.59
Other   |            | 0.1782     |            |       |  0.42

Nlocal:    19652 ave 19652 max 19652 min
Histogram: 1 0 0 0 0 0 0 0 0 0
Nghost:    14032 ave 14032 max 14032 min
Histogram: 1 0 0 0 0 0 0 0 0 0
Neighs:    711493 ave 711493 max 711493 min
Histogram: 1 0 0 0 0 0 0 0 0 0

Total # of neighbors = 711493
Ave neighs/atom = 36.2046
Neighbor list builds = 495
Dangerous builds not checked
Setting up Verlet run ...
  Unit style    : metal
  Current step  : 120495
  Time step     : 0.001
Per MPI rank memory allocation (min/avg/max) = 18.21 | 18.21 | 18.21 Mbytes
Step Temp Press TotEng PotEng Enthalpy 
  120495    422.70817    185.91072   -81766.775   -82840.493   -81691.681 
  122000    401.68068   -229.89871   -81883.732   -82904.038   -81976.634 
Loop time of 135.138 on 1 procs for 1505 steps with 19652 atoms

Performance: 0.962 ns/day, 24.942 hours/ns, 11.137 timesteps/s
99.8% CPU use with 1 MPI tasks x no OpenMP threads

MPI task timing breakdown:
Section |  min time  |  avg time  |  max time  |%varavg| %total
---------------------------------------------------------------
Pair    | 67.415     | 67.415     | 67.415     |   0.0 | 49.89
Neigh   | 63.552     | 63.552     | 63.552     |   0.0 | 47.03
Comm    | 1.4183     | 1.4183     | 1.4183     |   0.0 |  1.05
Output  | 0.062414   | 0.062414   | 0.062414   |   0.0 |  0.05
Modify  | 2.1359     | 2.1359     | 2.1359     |   0.0 |  1.58
Other   |            | 0.5542     |            |       |  0.41

Nlocal:    19652 ave 19652 max 19652 min
Histogram: 1 0 0 0 0 0 0 0 0 0
Nghost:    14047 ave 14047 max 14047 min
Histogram: 1 0 0 0 0 0 0 0 0 0
Neighs:    710870 ave 710870 max 710870 min
Histogram: 1 0 0 0 0 0 0 0 0 0

Total # of neighbors = 710870
Ave neighs/atom = 36.1729
Neighbor list builds = 1505
Dangerous builds not checked
Setting up Verlet run ...
  Unit style    : metal
  Current step  : 122000
  Time step     : 0.001
Per MPI rank memory allocation (min/avg/max) = 18.21 | 18.21 | 18.21 Mbytes
Step Temp Press TotEng PotEng Enthalpy 
  122000    401.68068   -229.89871   -81883.732   -82904.038   -81976.634 
  122495    370.60164   -209.55747   -82037.324   -82978.686   -82121.942 
Loop time of 44.3438 on 1 procs for 495 steps with 19652 atoms

Performance: 0.964 ns/day, 24.884 hours/ns, 11.163 timesteps/s
99.9% CPU use with 1 MPI tasks x no OpenMP threads

MPI task timing breakdown:
Section |  min time  |  avg time  |  max time  |%varavg| %total
---------------------------------------------------------------
Pair    | 22.264     | 22.264     | 22.264     |   0.0 | 50.21
Neigh   | 20.727     | 20.727     | 20.727     |   0.0 | 46.74
Comm    | 0.46387    | 0.46387    | 0.46387    |   0.0 |  1.05
Output  | 0.00024891 | 0.00024891 | 0.00024891 |   0.0 |  0.00
Modify  | 0.70307    | 0.70307    | 0.70307    |   0.0 |  1.59
Other   |            | 0.1849     |            |       |  0.42

Nlocal:    19652 ave 19652 max 19652 min
Histogram: 1 0 0 0 0 0 0 0 0 0
Nghost:    14030 ave 14030 max 14030 min
Histogram: 1 0 0 0 0 0 0 0 0 0
Neighs:    710769 ave 710769 max 710769 min
Histogram: 1 0 0 0 0 0 0 0 0 0

Total # of neighbors = 710769
Ave neighs/atom = 36.1678
Neighbor list builds = 495
Dangerous builds not checked
Setting up Verlet run ...
  Unit style    : metal
  Current step  : 122495
  Time step     : 0.001
Per MPI rank memory allocation (min/avg/max) = 18.21 | 18.21 | 18.21 Mbytes
Step Temp Press TotEng PotEng Enthalpy 
  122495    370.60164   -209.55747   -82037.324   -82978.686   -82121.942 
  124000    350.13667    -317.3383   -82159.624   -83049.003   -82287.669 
Loop time of 139.122 on 1 procs for 1505 steps with 19652 atoms

Performance: 0.935 ns/day, 25.678 hours/ns, 10.818 timesteps/s
100.0% CPU use with 1 MPI tasks x no OpenMP threads

MPI task timing breakdown:
Section |  min time  |  avg time  |  max time  |%varavg| %total
---------------------------------------------------------------
Pair    | 70.182     | 70.182     | 70.182     |   0.0 | 50.45
Neigh   | 64.556     | 64.556     | 64.556     |   0.0 | 46.40
Comm    | 1.499      | 1.499      | 1.499      |   0.0 |  1.08
Output  | 0.061801   | 0.061801   | 0.061801   |   0.0 |  0.04
Modify  | 2.2462     | 2.2462     | 2.2462     |   0.0 |  1.61
Other   |            | 0.5775     |            |       |  0.42

Nlocal:    19652 ave 19652 max 19652 min
Histogram: 1 0 0 0 0 0 0 0 0 0
Nghost:    14044 ave 14044 max 14044 min
Histogram: 1 0 0 0 0 0 0 0 0 0
Neighs:    710730 ave 710730 max 710730 min
Histogram: 1 0 0 0 0 0 0 0 0 0

Total # of neighbors = 710730
Ave neighs/atom = 36.1658
Neighbor list builds = 1505
Dangerous builds not checked
Setting up Verlet run ...
  Unit style    : metal
  Current step  : 124000
  Time step     : 0.001
Per MPI rank memory allocation (min/avg/max) = 18.21 | 18.21 | 18.21 Mbytes
Step Temp Press TotEng PotEng Enthalpy 
  124000    350.13667    -317.3383   -82159.624   -83049.003   -82287.669 
  124495    322.17213    54.696527   -82306.403   -83124.749    -82284.37 
Loop time of 47.5113 on 1 procs for 495 steps with 19652 atoms

Performance: 0.900 ns/day, 26.662 hours/ns, 10.419 timesteps/s
99.9% CPU use with 1 MPI tasks x no OpenMP threads

MPI task timing breakdown:
Section |  min time  |  avg time  |  max time  |%varavg| %total
---------------------------------------------------------------
Pair    | 24.28      | 24.28      | 24.28      |   0.0 | 51.10
Neigh   | 21.758     | 21.758     | 21.758     |   0.0 | 45.80
Comm    | 0.51206    | 0.51206    | 0.51206    |   0.0 |  1.08
Output  | 0.00026608 | 0.00026608 | 0.00026608 |   0.0 |  0.00
Modify  | 0.76409    | 0.76409    | 0.76409    |   0.0 |  1.61
Other   |            | 0.1969     |            |       |  0.41

Nlocal:    19652 ave 19652 max 19652 min
Histogram: 1 0 0 0 0 0 0 0 0 0
Nghost:    14068 ave 14068 max 14068 min
Histogram: 1 0 0 0 0 0 0 0 0 0
Neighs:    711895 ave 711895 max 711895 min
Histogram: 1 0 0 0 0 0 0 0 0 0

Total # of neighbors = 711895
Ave neighs/atom = 36.2251
Neighbor list builds = 495
Dangerous builds not checked
Setting up Verlet run ...
  Unit style    : metal
  Current step  : 124495
  Time step     : 0.001
Per MPI rank memory allocation (min/avg/max) = 18.21 | 18.21 | 18.21 Mbytes
Step Temp Press TotEng PotEng Enthalpy 
  124495    322.17213    54.696527   -82306.403   -83124.749    -82284.37 
  126000    297.26127    -19.84127   -82431.186   -83186.257   -82439.173 
Loop time of 137.828 on 1 procs for 1505 steps with 19652 atoms

Performance: 0.943 ns/day, 25.439 hours/ns, 10.919 timesteps/s
99.9% CPU use with 1 MPI tasks x no OpenMP threads

MPI task timing breakdown:
Section |  min time  |  avg time  |  max time  |%varavg| %total
---------------------------------------------------------------
Pair    | 69.692     | 69.692     | 69.692     |   0.0 | 50.56
Neigh   | 63.788     | 63.788     | 63.788     |   0.0 | 46.28
Comm    | 1.5045     | 1.5045     | 1.5045     |   0.0 |  1.09
Output  | 0.049274   | 0.049274   | 0.049274   |   0.0 |  0.04
Modify  | 2.2271     | 2.2271     | 2.2271     |   0.0 |  1.62
Other   |            | 0.5676     |            |       |  0.41

Nlocal:    19652 ave 19652 max 19652 min
Histogram: 1 0 0 0 0 0 0 0 0 0
Nghost:    14068 ave 14068 max 14068 min
Histogram: 1 0 0 0 0 0 0 0 0 0
Neighs:    711868 ave 711868 max 711868 min
Histogram: 1 0 0 0 0 0 0 0 0 0

Total # of neighbors = 711868
Ave neighs/atom = 36.2237
Neighbor list builds = 1505
Dangerous builds not checked
Setting up Verlet run ...
  Unit style    : metal
  Current step  : 126000
  Time step     : 0.001
Per MPI rank memory allocation (min/avg/max) = 18.21 | 18.21 | 18.21 Mbytes
Step Temp Press TotEng PotEng Enthalpy 
  126000    297.26127    -19.84127   -82431.186   -83186.257   -82439.173 
  126495    272.11598    21.110888   -82568.364   -83259.563   -82559.872 
Loop time of 42.8412 on 1 procs for 495 steps with 19652 atoms

Performance: 0.998 ns/day, 24.041 hours/ns, 11.554 timesteps/s
100.0% CPU use with 1 MPI tasks x no OpenMP threads

MPI task timing breakdown:
Section |  min time  |  avg time  |  max time  |%varavg| %total
---------------------------------------------------------------
Pair    | 21.481     | 21.481     | 21.481     |   0.0 | 50.14
Neigh   | 20.029     | 20.029     | 20.029     |   0.0 | 46.75
Comm    | 0.47188    | 0.47188    | 0.47188    |   0.0 |  1.10
Output  | 0.00027585 | 0.00027585 | 0.00027585 |   0.0 |  0.00
Modify  | 0.68324    | 0.68324    | 0.68324    |   0.0 |  1.59
Other   |            | 0.1759     |            |       |  0.41

Nlocal:    19652 ave 19652 max 19652 min
Histogram: 1 0 0 0 0 0 0 0 0 0
Nghost:    14034 ave 14034 max 14034 min
Histogram: 1 0 0 0 0 0 0 0 0 0
Neighs:    712254 ave 712254 max 712254 min
Histogram: 1 0 0 0 0 0 0 0 0 0

Total # of neighbors = 712254
Ave neighs/atom = 36.2433
Neighbor list builds = 495
Dangerous builds not checked
Setting up Verlet run ...
  Unit style    : metal
  Current step  : 126495
  Time step     : 0.001
Per MPI rank memory allocation (min/avg/max) = 18.21 | 18.21 | 18.21 Mbytes
Step Temp Press TotEng PotEng Enthalpy 
  126495    272.11598    21.110888   -82568.364   -83259.563   -82559.872 
  128000    247.33067   -59.676626   -82693.784   -83322.026   -82717.773 
Loop time of 124.156 on 1 procs for 1505 steps with 19652 atoms

Performance: 1.047 ns/day, 22.915 hours/ns, 12.122 timesteps/s
100.0% CPU use with 1 MPI tasks x no OpenMP threads

MPI task timing breakdown:
Section |  min time  |  avg time  |  max time  |%varavg| %total
---------------------------------------------------------------
Pair    | 61.339     | 61.339     | 61.339     |   0.0 | 49.40
Neigh   | 58.966     | 58.966     | 58.966     |   0.0 | 47.49
Comm    | 1.328      | 1.328      | 1.328      |   0.0 |  1.07
Output  | 0.048675   | 0.048675   | 0.048675   |   0.0 |  0.04
Modify  | 1.9622     | 1.9622     | 1.9622     |   0.0 |  1.58
Other   |            | 0.512      |            |       |  0.41

Nlocal:    19652 ave 19652 max 19652 min
Histogram: 1 0 0 0 0 0 0 0 0 0
Nghost:    14081 ave 14081 max 14081 min
Histogram: 1 0 0 0 0 0 0 0 0 0
Neighs:    712210 ave 712210 max 712210 min
Histogram: 1 0 0 0 0 0 0 0 0 0

Total # of neighbors = 712210
Ave neighs/atom = 36.2411
Neighbor list builds = 1505
Dangerous builds not checked
Setting up Verlet run ...
  Unit style    : metal
  Current step  : 128000
  Time step     : 0.001
Per MPI rank memory allocation (min/avg/max) = 18.21 | 18.21 | 18.21 Mbytes
Step Temp Press TotEng PotEng Enthalpy 
  128000    247.33067   -59.676626   -82693.784   -83322.026   -82717.773 
  128495    223.94578   -42.977633   -82825.085   -83393.928   -82842.349 
Loop time of 38.0655 on 1 procs for 495 steps with 19652 atoms

Performance: 1.124 ns/day, 21.361 hours/ns, 13.004 timesteps/s
100.0% CPU use with 1 MPI tasks x no OpenMP threads

MPI task timing breakdown:
Section |  min time  |  avg time  |  max time  |%varavg| %total
---------------------------------------------------------------
Pair    | 18.618     | 18.618     | 18.618     |   0.0 | 48.91
Neigh   | 18.332     | 18.332     | 18.332     |   0.0 | 48.16
Comm    | 0.38973    | 0.38973    | 0.38973    |   0.0 |  1.02
Output  | 0.0002172  | 0.0002172  | 0.0002172  |   0.0 |  0.00
Modify  | 0.57453    | 0.57453    | 0.57453    |   0.0 |  1.51
Other   |            | 0.1512     |            |       |  0.40

Nlocal:    19652 ave 19652 max 19652 min
Histogram: 1 0 0 0 0 0 0 0 0 0
Nghost:    14074 ave 14074 max 14074 min
Histogram: 1 0 0 0 0 0 0 0 0 0
Neighs:    712189 ave 712189 max 712189 min
Histogram: 1 0 0 0 0 0 0 0 0 0

Total # of neighbors = 712189
Ave neighs/atom = 36.24
Neighbor list builds = 495
Dangerous builds not checked
Setting up Verlet run ...
  Unit style    : metal
  Current step  : 128495
  Time step     : 0.001
Per MPI rank memory allocation (min/avg/max) = 18.21 | 18.21 | 18.21 Mbytes
Step Temp Press TotEng PotEng Enthalpy 
  128495    223.94578   -42.977633   -82825.085   -83393.928   -82842.349 
  130000    200.99982    267.07359   -82955.995   -83466.553   -82848.879 
Loop time of 117.46 on 1 procs for 1505 steps with 19652 atoms

Performance: 1.107 ns/day, 21.680 hours/ns, 12.813 timesteps/s
100.0% CPU use with 1 MPI tasks x no OpenMP threads

MPI task timing breakdown:
Section |  min time  |  avg time  |  max time  |%varavg| %total
---------------------------------------------------------------
Pair    | 57.447     | 57.447     | 57.447     |   0.0 | 48.91
Neigh   | 56.482     | 56.482     | 56.482     |   0.0 | 48.09
Comm    | 1.2211     | 1.2211     | 1.2211     |   0.0 |  1.04
Output  | 0.043483   | 0.043483   | 0.043483   |   0.0 |  0.04
Modify  | 1.7918     | 1.7918     | 1.7918     |   0.0 |  1.53
Other   |            | 0.4742     |            |       |  0.40

Nlocal:    19652 ave 19652 max 19652 min
Histogram: 1 0 0 0 0 0 0 0 0 0
Nghost:    14045 ave 14045 max 14045 min
Histogram: 1 0 0 0 0 0 0 0 0 0
Neighs:    713073 ave 713073 max 713073 min
Histogram: 1 0 0 0 0 0 0 0 0 0

Total # of neighbors = 713073
Ave neighs/atom = 36.285
Neighbor list builds = 1505
Dangerous builds not checked
Setting up Verlet run ...
  Unit style    : metal
  Current step  : 130000
  Time step     : 0.001
Per MPI rank memory allocation (min/avg/max) = 18.21 | 18.21 | 18.21 Mbytes
Step Temp Press TotEng PotEng Enthalpy 
  130000    200.99982    267.07359   -82955.995   -83466.553   -82848.879 
  130495    175.91912    187.91108    -83081.73   -83528.581   -83006.399 
Loop time of 46.5088 on 1 procs for 495 steps with 19652 atoms

Performance: 0.920 ns/day, 26.099 hours/ns, 10.643 timesteps/s
99.9% CPU use with 1 MPI tasks x no OpenMP threads

MPI task timing breakdown:
Section |  min time  |  avg time  |  max time  |%varavg| %total
---------------------------------------------------------------
Pair    | 23.584     | 23.584     | 23.584     |   0.0 | 50.71
Neigh   | 21.453     | 21.453     | 21.453     |   0.0 | 46.13
Comm    | 0.51051    | 0.51051    | 0.51051    |   0.0 |  1.10
Output  | 0.0002532  | 0.0002532  | 0.0002532  |   0.0 |  0.00
Modify  | 0.76279    | 0.76279    | 0.76279    |   0.0 |  1.64
Other   |            | 0.1985     |            |       |  0.43

Nlocal:    19652 ave 19652 max 19652 min
Histogram: 1 0 0 0 0 0 0 0 0 0
Nghost:    14076 ave 14076 max 14076 min
Histogram: 1 0 0 0 0 0 0 0 0 0
Neighs:    712882 ave 712882 max 712882 min
Histogram: 1 0 0 0 0 0 0 0 0 0

Total # of neighbors = 712882
Ave neighs/atom = 36.2753
Neighbor list builds = 495
Dangerous builds not checked
Setting up Verlet run ...
  Unit style    : metal
  Current step  : 130495
  Time step     : 0.001
Per MPI rank memory allocation (min/avg/max) = 18.21 | 18.21 | 18.21 Mbytes
Step Temp Press TotEng PotEng Enthalpy 
  130495    175.91912    187.91108    -83081.73   -83528.581   -83006.399 
  132000    148.84368   -354.63145   -83218.757   -83596.833    -83360.97 
Loop time of 139.255 on 1 procs for 1505 steps with 19652 atoms

Performance: 0.934 ns/day, 25.702 hours/ns, 10.808 timesteps/s
99.9% CPU use with 1 MPI tasks x no OpenMP threads

MPI task timing breakdown:
Section |  min time  |  avg time  |  max time  |%varavg| %total
---------------------------------------------------------------
Pair    | 70.784     | 70.784     | 70.784     |   0.0 | 50.83
Neigh   | 64.039     | 64.039     | 64.039     |   0.0 | 45.99
Comm    | 1.5225     | 1.5225     | 1.5225     |   0.0 |  1.09
Output  | 0.04868    | 0.04868    | 0.04868    |   0.0 |  0.03
Modify  | 2.2689     | 2.2689     | 2.2689     |   0.0 |  1.63
Other   |            | 0.5915     |            |       |  0.42

Nlocal:    19652 ave 19652 max 19652 min
Histogram: 1 0 0 0 0 0 0 0 0 0
Nghost:    14032 ave 14032 max 14032 min
Histogram: 1 0 0 0 0 0 0 0 0 0
Neighs:    712175 ave 712175 max 712175 min
Histogram: 1 0 0 0 0 0 0 0 0 0

Total # of neighbors = 712175
Ave neighs/atom = 36.2393
Neighbor list builds = 1505
Dangerous builds not checked
Setting up Verlet run ...
  Unit style    : metal
  Current step  : 132000
  Time step     : 0.001
Per MPI rank memory allocation (min/avg/max) = 18.21 | 18.21 | 18.21 Mbytes
Step Temp Press TotEng PotEng Enthalpy 
  132000    148.84368   -354.63145   -83218.757   -83596.833    -83360.97 
  132495    126.19506     310.3111   -83333.254     -83653.8   -83209.087 
Loop time of 38.3273 on 1 procs for 495 steps with 19652 atoms

Performance: 1.116 ns/day, 21.508 hours/ns, 12.915 timesteps/s
100.0% CPU use with 1 MPI tasks x no OpenMP threads

MPI task timing breakdown:
Section |  min time  |  avg time  |  max time  |%varavg| %total
---------------------------------------------------------------
Pair    | 18.788     | 18.788     | 18.788     |   0.0 | 49.02
Neigh   | 18.378     | 18.378     | 18.378     |   0.0 | 47.95
Comm    | 0.40193    | 0.40193    | 0.40193    |   0.0 |  1.05
Output  | 0.00015903 | 0.00015903 | 0.00015903 |   0.0 |  0.00
Modify  | 0.59925    | 0.59925    | 0.59925    |   0.0 |  1.56
Other   |            | 0.1608     |            |       |  0.42

Nlocal:    19652 ave 19652 max 19652 min
Histogram: 1 0 0 0 0 0 0 0 0 0
Nghost:    14077 ave 14077 max 14077 min
Histogram: 1 0 0 0 0 0 0 0 0 0
Neighs:    713710 ave 713710 max 713710 min
Histogram: 1 0 0 0 0 0 0 0 0 0

Total # of neighbors = 713710
Ave neighs/atom = 36.3174
Neighbor list builds = 495
Dangerous builds not checked
Setting up Verlet run ...
  Unit style    : metal
  Current step  : 132495
  Time step     : 0.001
Per MPI rank memory allocation (min/avg/max) = 18.21 | 18.21 | 18.21 Mbytes
Step Temp Press TotEng PotEng Enthalpy 
  132495    126.19506     310.3111   -83333.254     -83653.8   -83209.087 
  134000    98.862462    133.83116   -83479.239   -83730.359   -83425.719 
Loop time of 135.315 on 1 procs for 1505 steps with 19652 atoms

Performance: 0.961 ns/day, 24.975 hours/ns, 11.122 timesteps/s
99.9% CPU use with 1 MPI tasks x no OpenMP threads

MPI task timing breakdown:
Section |  min time  |  avg time  |  max time  |%varavg| %total
---------------------------------------------------------------
Pair    | 68.432     | 68.432     | 68.432     |   0.0 | 50.57
Neigh   | 62.529     | 62.529     | 62.529     |   0.0 | 46.21
Comm    | 1.496      | 1.496      | 1.496      |   0.0 |  1.11
Output  | 0.068188   | 0.068188   | 0.068188   |   0.0 |  0.05
Modify  | 2.2088     | 2.2088     | 2.2088     |   0.0 |  1.63
Other   |            | 0.5806     |            |       |  0.43

Nlocal:    19652 ave 19652 max 19652 min
Histogram: 1 0 0 0 0 0 0 0 0 0
Nghost:    14052 ave 14052 max 14052 min
Histogram: 1 0 0 0 0 0 0 0 0 0
Neighs:    713637 ave 713637 max 713637 min
Histogram: 1 0 0 0 0 0 0 0 0 0

Total # of neighbors = 713637
Ave neighs/atom = 36.3137
Neighbor list builds = 1505
Dangerous builds not checked
Total wall time: 3:52:19
