LAMMPS (12 Dec 2018)
Lattice spacing in x,y,z = 4 4 4
Created orthogonal box = (0 0 0) to (68 68 68)
  1 by 1 by 1 MPI processor grid
Created 19652 atoms
  Time spent = 0.00393891 secs
Setting atom values ...
  417 settings made for type/fraction
Neighbor list info ...
  update every 1 steps, delay 0 steps, check no
  max neighbors/atom: 2000, page size: 100000
  master list distance cutoff = 8.5
  ghost atom cutoff = 8.5
  binsize = 4.25, bins = 16 16 16
  1 neighbor lists, perpetual/occasional/extra = 1 0 0
  (1) pair eam/alloy, perpetual
      attributes: half, newton on
      pair build: half/bin/atomonly/newton
      stencil: half/bin/3d/newton
      bin: standard
Setting up Verlet run ...
  Unit style    : metal
  Current step  : 0
  Time step     : 0.001
Per MPI rank memory allocation (min/avg/max) = 18.19 | 18.19 | 18.19 Mbytes
Step Temp Press TotEng PotEng Enthalpy Volume 
       0          300    625888.74   -102533.85   -103295.88     20298.71       314432 
    1000    216.76948    566087.85    -102533.8   -103084.42    8562.6568       314432 
Loop time of 156.236 on 1 procs for 1000 steps with 19652 atoms

Performance: 0.553 ns/day, 43.399 hours/ns, 6.401 timesteps/s
97.5% CPU use with 1 MPI tasks x no OpenMP threads

MPI task timing breakdown:
Section |  min time  |  avg time  |  max time  |%varavg| %total
---------------------------------------------------------------
Pair    | 88.2       | 88.2       | 88.2       |   0.0 | 56.45
Neigh   | 65.998     | 65.998     | 65.998     |   0.0 | 42.24
Comm    | 1.1552     | 1.1552     | 1.1552     |   0.0 |  0.74
Output  | 0.10628    | 0.10628    | 0.10628    |   0.0 |  0.07
Modify  | 0.3947     | 0.3947     | 0.3947     |   0.0 |  0.25
Other   |            | 0.3821     |            |       |  0.24

Nlocal:    19652 ave 19652 max 19652 min
Histogram: 1 0 0 0 0 0 0 0 0 0
Nghost:    19950 ave 19950 max 19950 min
Histogram: 1 0 0 0 0 0 0 0 0 0
Neighs:    1.56573e+06 ave 1.56573e+06 max 1.56573e+06 min
Histogram: 1 0 0 0 0 0 0 0 0 0

Total # of neighbors = 1565734
Ave neighs/atom = 79.673
Neighbor list builds = 1000
Dangerous builds not checked
Setting up Verlet run ...
  Unit style    : metal
  Current step  : 1000
  Time step     : 0.001
Per MPI rank memory allocation (min/avg/max) = 18.19 | 18.19 | 18.19 Mbytes
Step Temp Press TotEng PotEng Enthalpy Volume 
    1000    216.76948    566087.85    -102533.8   -103084.42    8562.6568       314432 
    2000    297.60793   -12.419143   -121214.41   -121970.36   -121217.93    454469.11 
Loop time of 143.005 on 1 procs for 1000 steps with 19652 atoms

Performance: 0.604 ns/day, 39.724 hours/ns, 6.993 timesteps/s
94.6% CPU use with 1 MPI tasks x no OpenMP threads

MPI task timing breakdown:
Section |  min time  |  avg time  |  max time  |%varavg| %total
---------------------------------------------------------------
Pair    | 77.917     | 77.917     | 77.917     |   0.0 | 54.49
Neigh   | 61.94      | 61.94      | 61.94      |   0.0 | 43.31
Comm    | 1.1286     | 1.1286     | 1.1286     |   0.0 |  0.79
Output  | 0.072093   | 0.072093   | 0.072093   |   0.0 |  0.05
Modify  | 1.5407     | 1.5407     | 1.5407     |   0.0 |  1.08
Other   |            | 0.4069     |            |       |  0.28

Nlocal:    19652 ave 19652 max 19652 min
Histogram: 1 0 0 0 0 0 0 0 0 0
Nghost:    14816 ave 14816 max 14816 min
Histogram: 1 0 0 0 0 0 0 0 0 0
Neighs:    1.11004e+06 ave 1.11004e+06 max 1.11004e+06 min
Histogram: 1 0 0 0 0 0 0 0 0 0

Total # of neighbors = 1110043
Ave neighs/atom = 56.485
Neighbor list builds = 1000
Dangerous builds not checked
Setting up Verlet run ...
  Unit style    : metal
  Current step  : 2000
  Time step     : 0.001
Per MPI rank memory allocation (min/avg/max) = 18.19 | 18.19 | 18.19 Mbytes
Step Temp Press TotEng PotEng Enthalpy Volume 
    2000    297.60793   -12.419143   -121214.41   -121970.36   -121217.93    454469.11 
    3000    463.43001   -18.777245   -120282.89   -121460.04   -120288.23    455231.24 
    4000    805.01312   -200.59291   -118448.31   -120493.12   -118505.66    458026.04 
    5000    1094.4692     603.1885    -116691.1   -119471.15   -116517.75     460434.9 
    6000    1363.1678    1024.3144   -115043.71   -118506.28   -114747.48    463341.41 
    7000    1646.5142   -983.53752   -113223.63   -117405.92   -113510.96    468054.98 
    8000    1887.6801   -860.95232   -111208.87   -116003.75   -111462.73    472419.14 
    9000    2156.4385     2239.652   -108447.37   -113924.92   -107780.58    477002.02 
   10000    2424.5157    335.68072   -106047.67   -112206.16   -105946.05    485004.79 
Loop time of 1007.53 on 1 procs for 8000 steps with 19652 atoms

Performance: 0.686 ns/day, 34.984 hours/ns, 7.940 timesteps/s
95.2% CPU use with 1 MPI tasks x no OpenMP threads

MPI task timing breakdown:
Section |  min time  |  avg time  |  max time  |%varavg| %total
---------------------------------------------------------------
Pair    | 537.77     | 537.77     | 537.77     |   0.0 | 53.38
Neigh   | 445.5      | 445.5      | 445.5      |   0.0 | 44.22
Comm    | 8.4357     | 8.4357     | 8.4357     |   0.0 |  0.84
Output  | 0.69356    | 0.69356    | 0.69356    |   0.0 |  0.07
Modify  | 11.949     | 11.949     | 11.949     |   0.0 |  1.19
Other   |            | 3.179      |            |       |  0.32

Nlocal:    19652 ave 19652 max 19652 min
Histogram: 1 0 0 0 0 0 0 0 0 0
Nghost:    15691 ave 15691 max 15691 min
Histogram: 1 0 0 0 0 0 0 0 0 0
Neighs:    1.01317e+06 ave 1.01317e+06 max 1.01317e+06 min
Histogram: 1 0 0 0 0 0 0 0 0 0

Total # of neighbors = 1013168
Ave neighs/atom = 51.5555
Neighbor list builds = 8000
Dangerous builds not checked
Setting up Verlet run ...
  Unit style    : metal
  Current step  : 10000
  Time step     : 0.001
Per MPI rank memory allocation (min/avg/max) = 18.19 | 18.19 | 18.19 Mbytes
Step Temp Press TotEng PotEng Enthalpy Volume 
   10000    2424.5157    335.68072   -106047.67   -112206.16   -105946.05    485004.79 
   11000    2459.9738    624.85041   -105849.63   -112098.19   -105660.37    485295.19 
   12000    2487.1196    -290.6458   -105814.91   -112132.42   -105903.06    485945.65 
   13000    2448.8854   -158.15943   -105876.85   -112097.24   -105924.83    486002.69 
   14000    2445.5041   -938.25947   -105866.96   -112078.76    -106152.1    486919.63 
   15000    2442.3518    13.403078   -105913.08   -112116.88   -105909.02    485952.76 
   16000    2447.8455    12.077322   -105876.47   -112094.22    -105872.8    485932.34 
   17000    2448.5002   -134.77772   -105868.59   -112088.01   -105909.46    485804.72 
   18000     2469.477   -604.61367    -105789.2   -112061.89   -105972.69    486254.42 
   19000    2456.0808     1060.138   -105875.42   -112114.09   -105554.41    485139.01 
   20000    2479.8657      1094.91   -105802.91      -112102    -105471.4    485106.56 
   21000    2456.6912    1267.5018   -105838.76   -112078.98   -105454.94    485160.21 
   22000    2435.0749   -643.98208    -105889.2   -112074.51   -106084.64    486236.97 
   23000    2425.9924   -1399.0393   -105983.71   -112145.95   -106408.72    486716.92 
   24000    2435.5399   -1999.0758   -105835.33   -112021.82   -106444.06    487876.86 
   25000    2457.6002   -765.78989   -105871.91   -112114.44   -106104.42    486445.03 
   26000     2454.606    543.90108   -105823.62   -112058.54   -105658.72    485757.03 
   27000    2458.8497    1086.0608    -105835.3      -112081   -105506.48    485079.42 
   28000    2459.9739    950.51937   -105881.72   -112130.28   -105593.97    485033.41 
   29000    2469.4437    54.604088   -105806.31   -112078.92   -105789.75    485920.37 
   30000    2428.1711   -753.65075      -105897   -112064.78   -106125.89    486588.24 
   31000    2434.0167   -1240.5941   -105888.35   -112070.98   -106265.32    486834.03 
   32000    2420.7006     275.4325   -105925.02   -112073.82   -105841.55    485541.91 
   33000    2467.2359    593.34084   -105830.78   -112097.78   -105651.01    485425.43 
   34000    2446.7388    622.29402   -105841.46    -112056.4   -105652.88     485525.7 
   35000    2444.4291    1155.0464   -105961.16   -112170.24   -105611.85    484529.88 
   36000    2448.5285   -463.12629   -105827.04   -112046.53   -105967.59    486219.41 
   37000    2444.0615   -905.67492   -105898.13   -112106.27   -106173.01    486284.16 
   38000    2443.9755   -1255.6661   -105846.22   -112054.14   -106227.85    486943.77 
   39000    2432.8358   -755.82566   -105949.11   -112128.74   -106178.41    486062.08 
   40000    2443.5837   -257.27978   -105852.44   -112059.36   -105930.46    485907.21 
Loop time of 3475.56 on 1 procs for 30000 steps with 19652 atoms

Performance: 0.746 ns/day, 32.181 hours/ns, 8.632 timesteps/s
96.9% CPU use with 1 MPI tasks x no OpenMP threads

MPI task timing breakdown:
Section |  min time  |  avg time  |  max time  |%varavg| %total
---------------------------------------------------------------
Pair    | 1783.5     | 1783.5     | 1783.5     |   0.0 | 51.31
Neigh   | 1589.5     | 1589.5     | 1589.5     |   0.0 | 45.73
Comm    | 28.65      | 28.65      | 28.65      |   0.0 |  0.82
Output  | 23.841     | 23.841     | 23.841     |   0.0 |  0.69
Modify  | 39.518     | 39.518     | 39.518     |   0.0 |  1.14
Other   |            | 10.56      |            |       |  0.30

Nlocal:    19652 ave 19652 max 19652 min
Histogram: 1 0 0 0 0 0 0 0 0 0
Nghost:    15693 ave 15693 max 15693 min
Histogram: 1 0 0 0 0 0 0 0 0 0
Neighs:    1.01153e+06 ave 1.01153e+06 max 1.01153e+06 min
Histogram: 1 0 0 0 0 0 0 0 0 0

Total # of neighbors = 1011528
Ave neighs/atom = 51.472
Neighbor list builds = 30000
Dangerous builds not checked
Setting up Verlet run ...
  Unit style    : metal
  Current step  : 40000
  Time step     : 0.001
Per MPI rank memory allocation (min/avg/max) = 18.19 | 18.19 | 18.19 Mbytes
Step Temp Press TotEng PotEng Enthalpy Volume 
   40000    2443.5837   -257.27978   -105852.44   -112059.36   -105930.46    485907.21 
   40495    2431.0539   -412.50736   -106116.78   -112291.88   -106241.69    485156.71 
Loop time of 43.8479 on 1 procs for 495 steps with 19652 atoms

Performance: 0.975 ns/day, 24.606 hours/ns, 11.289 timesteps/s
100.0% CPU use with 1 MPI tasks x no OpenMP threads

MPI task timing breakdown:
Section |  min time  |  avg time  |  max time  |%varavg| %total
---------------------------------------------------------------
Pair    | 21.932     | 21.932     | 21.932     |   0.0 | 50.02
Neigh   | 20.94      | 20.94      | 20.94      |   0.0 | 47.76
Comm    | 0.35247    | 0.35247    | 0.35247    |   0.0 |  0.80
Output  | 0.00011706 | 0.00011706 | 0.00011706 |   0.0 |  0.00
Modify  | 0.49282    | 0.49282    | 0.49282    |   0.0 |  1.12
Other   |            | 0.1302     |            |       |  0.30

Nlocal:    19652 ave 19652 max 19652 min
Histogram: 1 0 0 0 0 0 0 0 0 0
Nghost:    15690 ave 15690 max 15690 min
Histogram: 1 0 0 0 0 0 0 0 0 0
Neighs:    1.01326e+06 ave 1.01326e+06 max 1.01326e+06 min
Histogram: 1 0 0 0 0 0 0 0 0 0

Total # of neighbors = 1013260
Ave neighs/atom = 51.5601
Neighbor list builds = 495
Dangerous builds not checked
Setting up Verlet run ...
  Unit style    : metal
  Current step  : 40495
  Time step     : 0.001
Per MPI rank memory allocation (min/avg/max) = 18.19 | 18.19 | 18.19 Mbytes
Step Temp Press TotEng PotEng Enthalpy Volume 
   40495    2431.0539   -412.50736   -106116.78   -112291.88   -106241.69    485156.71 
   41000    2402.3686   -643.81506   -106190.07   -112292.31   -106385.11    485348.77 
Loop time of 43.2103 on 1 procs for 505 steps with 19652 atoms

Performance: 1.010 ns/day, 23.768 hours/ns, 11.687 timesteps/s
99.4% CPU use with 1 MPI tasks x no OpenMP threads

MPI task timing breakdown:
Section |  min time  |  avg time  |  max time  |%varavg| %total
---------------------------------------------------------------
Pair    | 21.368     | 21.368     | 21.368     |   0.0 | 49.45
Neigh   | 20.666     | 20.666     | 20.666     |   0.0 | 47.83
Comm    | 0.34336    | 0.34336    | 0.34336    |   0.0 |  0.79
Output  | 0.22847    | 0.22847    | 0.22847    |   0.0 |  0.53
Modify  | 0.4801     | 0.4801     | 0.4801     |   0.0 |  1.11
Other   |            | 0.1241     |            |       |  0.29

Nlocal:    19652 ave 19652 max 19652 min
Histogram: 1 0 0 0 0 0 0 0 0 0
Nghost:    15769 ave 15769 max 15769 min
Histogram: 1 0 0 0 0 0 0 0 0 0
Neighs:    1.01251e+06 ave 1.01251e+06 max 1.01251e+06 min
Histogram: 1 0 0 0 0 0 0 0 0 0

Total # of neighbors = 1012511
Ave neighs/atom = 51.522
Neighbor list builds = 505
Dangerous builds not checked
Setting up Verlet run ...
  Unit style    : metal
  Current step  : 41000
  Time step     : 0.001
Per MPI rank memory allocation (min/avg/max) = 18.19 | 18.19 | 18.19 Mbytes
Step Temp Press TotEng PotEng Enthalpy Volume 
   41000    2402.3686   -643.81506   -106190.07   -112292.31   -106385.11    485348.77 
   41495    2349.3618   -98.094307   -106440.82   -112408.41   -106470.46    484099.12 
Loop time of 43.9031 on 1 procs for 495 steps with 19652 atoms

Performance: 0.974 ns/day, 24.637 hours/ns, 11.275 timesteps/s
98.6% CPU use with 1 MPI tasks x no OpenMP threads

MPI task timing breakdown:
Section |  min time  |  avg time  |  max time  |%varavg| %total
---------------------------------------------------------------
Pair    | 21.699     | 21.699     | 21.699     |   0.0 | 49.42
Neigh   | 20.618     | 20.618     | 20.618     |   0.0 | 46.96
Comm    | 0.34777    | 0.34777    | 0.34777    |   0.0 |  0.79
Output  | 0.62743    | 0.62743    | 0.62743    |   0.0 |  1.43
Modify  | 0.48247    | 0.48247    | 0.48247    |   0.0 |  1.10
Other   |            | 0.1286     |            |       |  0.29

Nlocal:    19652 ave 19652 max 19652 min
Histogram: 1 0 0 0 0 0 0 0 0 0
Nghost:    15712 ave 15712 max 15712 min
Histogram: 1 0 0 0 0 0 0 0 0 0
Neighs:    1.01496e+06 ave 1.01496e+06 max 1.01496e+06 min
Histogram: 1 0 0 0 0 0 0 0 0 0

Total # of neighbors = 1014961
Ave neighs/atom = 51.6467
Neighbor list builds = 495
Dangerous builds not checked
Setting up Verlet run ...
  Unit style    : metal
  Current step  : 41495
  Time step     : 0.001
Per MPI rank memory allocation (min/avg/max) = 18.19 | 18.19 | 18.19 Mbytes
Step Temp Press TotEng PotEng Enthalpy Volume 
   41495    2349.3618   -98.094307   -106440.82   -112408.41   -106470.46    484099.12 
   42000    2339.1025    541.45782   -106516.21   -112457.74   -106352.88     483298.4 
Loop time of 44.816 on 1 procs for 505 steps with 19652 atoms

Performance: 0.974 ns/day, 24.651 hours/ns, 11.268 timesteps/s
99.4% CPU use with 1 MPI tasks x no OpenMP threads

MPI task timing breakdown:
Section |  min time  |  avg time  |  max time  |%varavg| %total
---------------------------------------------------------------
Pair    | 22.342     | 22.342     | 22.342     |   0.0 | 49.85
Neigh   | 21.229     | 21.229     | 21.229     |   0.0 | 47.37
Comm    | 0.36343    | 0.36343    | 0.36343    |   0.0 |  0.81
Output  | 0.25051    | 0.25051    | 0.25051    |   0.0 |  0.56
Modify  | 0.49662    | 0.49662    | 0.49662    |   0.0 |  1.11
Other   |            | 0.1337     |            |       |  0.30

Nlocal:    19652 ave 19652 max 19652 min
Histogram: 1 0 0 0 0 0 0 0 0 0
Nghost:    15788 ave 15788 max 15788 min
Histogram: 1 0 0 0 0 0 0 0 0 0
Neighs:    1.01668e+06 ave 1.01668e+06 max 1.01668e+06 min
Histogram: 1 0 0 0 0 0 0 0 0 0

Total # of neighbors = 1016685
Ave neighs/atom = 51.7344
Neighbor list builds = 505
Dangerous builds not checked
Setting up Verlet run ...
  Unit style    : metal
  Current step  : 42000
  Time step     : 0.001
Per MPI rank memory allocation (min/avg/max) = 18.19 | 18.19 | 18.19 Mbytes
Step Temp Press TotEng PotEng Enthalpy Volume 
   42000    2339.1025    541.45782   -106516.21   -112457.74   -106352.88     483298.4 
   42495    2336.1704    798.16888   -106674.75   -112608.83   -106434.08    483090.43 
Loop time of 47.6389 on 1 procs for 495 steps with 19652 atoms

Performance: 0.898 ns/day, 26.733 hours/ns, 10.391 timesteps/s
99.9% CPU use with 1 MPI tasks x no OpenMP threads

MPI task timing breakdown:
Section |  min time  |  avg time  |  max time  |%varavg| %total
---------------------------------------------------------------
Pair    | 24.28      | 24.28      | 24.28      |   0.0 | 50.97
Neigh   | 22.283     | 22.283     | 22.283     |   0.0 | 46.78
Comm    | 0.39697    | 0.39697    | 0.39697    |   0.0 |  0.83
Output  | 0.00013304 | 0.00013304 | 0.00013304 |   0.0 |  0.00
Modify  | 0.52735    | 0.52735    | 0.52735    |   0.0 |  1.11
Other   |            | 0.1512     |            |       |  0.32

Nlocal:    19652 ave 19652 max 19652 min
Histogram: 1 0 0 0 0 0 0 0 0 0
Nghost:    15670 ave 15670 max 15670 min
Histogram: 1 0 0 0 0 0 0 0 0 0
Neighs:    1.01802e+06 ave 1.01802e+06 max 1.01802e+06 min
Histogram: 1 0 0 0 0 0 0 0 0 0

Total # of neighbors = 1018020
Ave neighs/atom = 51.8024
Neighbor list builds = 495
Dangerous builds not checked
Setting up Verlet run ...
  Unit style    : metal
  Current step  : 42495
  Time step     : 0.001
Per MPI rank memory allocation (min/avg/max) = 18.19 | 18.19 | 18.19 Mbytes
Step Temp Press TotEng PotEng Enthalpy Volume 
   42495    2336.1704    798.16888   -106674.75   -112608.83   -106434.08    483090.43 
   43000    2299.3252   -42.167169   -106801.36   -112641.86   -106814.07    483022.73 
Loop time of 45.3773 on 1 procs for 505 steps with 19652 atoms

Performance: 0.962 ns/day, 24.960 hours/ns, 11.129 timesteps/s
97.0% CPU use with 1 MPI tasks x no OpenMP threads

MPI task timing breakdown:
Section |  min time  |  avg time  |  max time  |%varavg| %total
---------------------------------------------------------------
Pair    | 22.117     | 22.117     | 22.117     |   0.0 | 48.74
Neigh   | 20.866     | 20.866     | 20.866     |   0.0 | 45.98
Comm    | 0.35767    | 0.35767    | 0.35767    |   0.0 |  0.79
Output  | 1.4079     | 1.4079     | 1.4079     |   0.0 |  3.10
Modify  | 0.48701    | 0.48701    | 0.48701    |   0.0 |  1.07
Other   |            | 0.1412     |            |       |  0.31

Nlocal:    19652 ave 19652 max 19652 min
Histogram: 1 0 0 0 0 0 0 0 0 0
Nghost:    15672 ave 15672 max 15672 min
Histogram: 1 0 0 0 0 0 0 0 0 0
Neighs:    1.01759e+06 ave 1.01759e+06 max 1.01759e+06 min
Histogram: 1 0 0 0 0 0 0 0 0 0

Total # of neighbors = 1017588
Ave neighs/atom = 51.7804
Neighbor list builds = 505
Dangerous builds not checked
Setting up Verlet run ...
  Unit style    : metal
  Current step  : 43000
  Time step     : 0.001
Per MPI rank memory allocation (min/avg/max) = 18.19 | 18.19 | 18.19 Mbytes
Step Temp Press TotEng PotEng Enthalpy Volume 
   43000    2299.3252   -42.167169   -106801.36   -112641.86   -106814.07    483022.73 
   43495     2262.433    692.10424   -107030.55   -112777.34   -106822.32    482044.37 
Loop time of 44.4003 on 1 procs for 495 steps with 19652 atoms

Performance: 0.963 ns/day, 24.916 hours/ns, 11.149 timesteps/s
99.7% CPU use with 1 MPI tasks x no OpenMP threads

MPI task timing breakdown:
Section |  min time  |  avg time  |  max time  |%varavg| %total
---------------------------------------------------------------
Pair    | 22.511     | 22.511     | 22.511     |   0.0 | 50.70
Neigh   | 20.878     | 20.878     | 20.878     |   0.0 | 47.02
Comm    | 0.36506    | 0.36506    | 0.36506    |   0.0 |  0.82
Output  | 0.00013494 | 0.00013494 | 0.00013494 |   0.0 |  0.00
Modify  | 0.507      | 0.507      | 0.507      |   0.0 |  1.14
Other   |            | 0.139      |            |       |  0.31

Nlocal:    19652 ave 19652 max 19652 min
Histogram: 1 0 0 0 0 0 0 0 0 0
Nghost:    15704 ave 15704 max 15704 min
Histogram: 1 0 0 0 0 0 0 0 0 0
Neighs:    1.02083e+06 ave 1.02083e+06 max 1.02083e+06 min
Histogram: 1 0 0 0 0 0 0 0 0 0

Total # of neighbors = 1020827
Ave neighs/atom = 51.9452
Neighbor list builds = 495
Dangerous builds not checked
Setting up Verlet run ...
  Unit style    : metal
  Current step  : 43495
  Time step     : 0.001
Per MPI rank memory allocation (min/avg/max) = 18.19 | 18.19 | 18.19 Mbytes
Step Temp Press TotEng PotEng Enthalpy Volume 
   43495     2262.433    692.10424   -107030.55   -112777.34   -106822.32    482044.37 
   44000    2265.5776    228.44717   -107067.75   -112822.52   -106999.02    482003.75 
Loop time of 44.2086 on 1 procs for 505 steps with 19652 atoms

Performance: 0.987 ns/day, 24.317 hours/ns, 11.423 timesteps/s
99.8% CPU use with 1 MPI tasks x no OpenMP threads

MPI task timing breakdown:
Section |  min time  |  avg time  |  max time  |%varavg| %total
---------------------------------------------------------------
Pair    | 22.149     | 22.149     | 22.149     |   0.0 | 50.10
Neigh   | 20.923     | 20.923     | 20.923     |   0.0 | 47.33
Comm    | 0.35734    | 0.35734    | 0.35734    |   0.0 |  0.81
Output  | 0.15187    | 0.15187    | 0.15187    |   0.0 |  0.34
Modify  | 0.48775    | 0.48775    | 0.48775    |   0.0 |  1.10
Other   |            | 0.1392     |            |       |  0.31

Nlocal:    19652 ave 19652 max 19652 min
Histogram: 1 0 0 0 0 0 0 0 0 0
Nghost:    15804 ave 15804 max 15804 min
Histogram: 1 0 0 0 0 0 0 0 0 0
Neighs:    1.02e+06 ave 1.02e+06 max 1.02e+06 min
Histogram: 1 0 0 0 0 0 0 0 0 0

Total # of neighbors = 1020000
Ave neighs/atom = 51.9031
Neighbor list builds = 505
Dangerous builds not checked
Setting up Verlet run ...
  Unit style    : metal
  Current step  : 44000
  Time step     : 0.001
Per MPI rank memory allocation (min/avg/max) = 18.19 | 18.19 | 18.19 Mbytes
Step Temp Press TotEng PotEng Enthalpy Volume 
   44000    2265.5776    228.44717   -107067.75   -112822.52   -106999.02    482003.75 
   44495    2205.5145    372.85257   -107378.09    -112980.3   -107266.11    481168.55 
Loop time of 43.964 on 1 procs for 495 steps with 19652 atoms

Performance: 0.973 ns/day, 24.671 hours/ns, 11.259 timesteps/s
100.0% CPU use with 1 MPI tasks x no OpenMP threads

MPI task timing breakdown:
Section |  min time  |  avg time  |  max time  |%varavg| %total
---------------------------------------------------------------
Pair    | 22.118     | 22.118     | 22.118     |   0.0 | 50.31
Neigh   | 20.865     | 20.865     | 20.865     |   0.0 | 47.46
Comm    | 0.35695    | 0.35695    | 0.35695    |   0.0 |  0.81
Output  | 0.00011086 | 0.00011086 | 0.00011086 |   0.0 |  0.00
Modify  | 0.48977    | 0.48977    | 0.48977    |   0.0 |  1.11
Other   |            | 0.1346     |            |       |  0.31

Nlocal:    19652 ave 19652 max 19652 min
Histogram: 1 0 0 0 0 0 0 0 0 0
Nghost:    15749 ave 15749 max 15749 min
Histogram: 1 0 0 0 0 0 0 0 0 0
Neighs:    1.02279e+06 ave 1.02279e+06 max 1.02279e+06 min
Histogram: 1 0 0 0 0 0 0 0 0 0

Total # of neighbors = 1022792
Ave neighs/atom = 52.0452
Neighbor list builds = 495
Dangerous builds not checked
Setting up Verlet run ...
  Unit style    : metal
  Current step  : 44495
  Time step     : 0.001
Per MPI rank memory allocation (min/avg/max) = 18.19 | 18.19 | 18.19 Mbytes
Step Temp Press TotEng PotEng Enthalpy Volume 
   44495    2205.5145    372.85257   -107378.09    -112980.3   -107266.11    481168.55 
   45000     2213.169    70.057522   -107333.21   -112954.86   -107312.15    481767.12 
Loop time of 46.7604 on 1 procs for 505 steps with 19652 atoms

Performance: 0.933 ns/day, 25.721 hours/ns, 10.800 timesteps/s
93.2% CPU use with 1 MPI tasks x no OpenMP threads

MPI task timing breakdown:
Section |  min time  |  avg time  |  max time  |%varavg| %total
---------------------------------------------------------------
Pair    | 21.77      | 21.77      | 21.77      |   0.0 | 46.56
Neigh   | 20.838     | 20.838     | 20.838     |   0.0 | 44.56
Comm    | 0.34778    | 0.34778    | 0.34778    |   0.0 |  0.74
Output  | 3.194      | 3.194      | 3.194      |   0.0 |  6.83
Modify  | 0.48469    | 0.48469    | 0.48469    |   0.0 |  1.04
Other   |            | 0.1264     |            |       |  0.27

Nlocal:    19652 ave 19652 max 19652 min
Histogram: 1 0 0 0 0 0 0 0 0 0
Nghost:    15793 ave 15793 max 15793 min
Histogram: 1 0 0 0 0 0 0 0 0 0
Neighs:    1.02111e+06 ave 1.02111e+06 max 1.02111e+06 min
Histogram: 1 0 0 0 0 0 0 0 0 0

Total # of neighbors = 1021114
Ave neighs/atom = 51.9598
Neighbor list builds = 505
Dangerous builds not checked
Setting up Verlet run ...
  Unit style    : metal
  Current step  : 45000
  Time step     : 0.001
Per MPI rank memory allocation (min/avg/max) = 18.19 | 18.19 | 18.19 Mbytes
Step Temp Press TotEng PotEng Enthalpy Volume 
   45000     2213.169    70.057522   -107333.21   -112954.86   -107312.15    481767.12 
   45495    2158.7013   -33.325757   -107600.13   -113083.43   -107610.13    480728.45 
Loop time of 41.7989 on 1 procs for 495 steps with 19652 atoms

Performance: 1.023 ns/day, 23.456 hours/ns, 11.842 timesteps/s
99.9% CPU use with 1 MPI tasks x no OpenMP threads

MPI task timing breakdown:
Section |  min time  |  avg time  |  max time  |%varavg| %total
---------------------------------------------------------------
Pair    | 20.839     | 20.839     | 20.839     |   0.0 | 49.86
Neigh   | 20.049     | 20.049     | 20.049     |   0.0 | 47.97
Comm    | 0.33084    | 0.33084    | 0.33084    |   0.0 |  0.79
Output  | 0.00012398 | 0.00012398 | 0.00012398 |   0.0 |  0.00
Modify  | 0.46532    | 0.46532    | 0.46532    |   0.0 |  1.11
Other   |            | 0.1139     |            |       |  0.27

Nlocal:    19652 ave 19652 max 19652 min
Histogram: 1 0 0 0 0 0 0 0 0 0
Nghost:    15803 ave 15803 max 15803 min
Histogram: 1 0 0 0 0 0 0 0 0 0
Neighs:    1.02335e+06 ave 1.02335e+06 max 1.02335e+06 min
Histogram: 1 0 0 0 0 0 0 0 0 0

Total # of neighbors = 1023349
Ave neighs/atom = 52.0735
Neighbor list builds = 495
Dangerous builds not checked
Setting up Verlet run ...
  Unit style    : metal
  Current step  : 45495
  Time step     : 0.001
Per MPI rank memory allocation (min/avg/max) = 18.19 | 18.19 | 18.19 Mbytes
Step Temp Press TotEng PotEng Enthalpy Volume 
   45495    2158.7013   -33.325757   -107600.13   -113083.43   -107610.13    480728.45 
   46000     2143.656    124.97563   -107797.27   -113242.35   -107759.82    480134.63 
Loop time of 43.8524 on 1 procs for 505 steps with 19652 atoms

Performance: 0.995 ns/day, 24.121 hours/ns, 11.516 timesteps/s
98.7% CPU use with 1 MPI tasks x no OpenMP threads

MPI task timing breakdown:
Section |  min time  |  avg time  |  max time  |%varavg| %total
---------------------------------------------------------------
Pair    | 21.567     | 21.567     | 21.567     |   0.0 | 49.18
Neigh   | 20.735     | 20.735     | 20.735     |   0.0 | 47.28
Comm    | 0.34278    | 0.34278    | 0.34278    |   0.0 |  0.78
Output  | 0.60264    | 0.60264    | 0.60264    |   0.0 |  1.37
Modify  | 0.48029    | 0.48029    | 0.48029    |   0.0 |  1.10
Other   |            | 0.125      |            |       |  0.28

Nlocal:    19652 ave 19652 max 19652 min
Histogram: 1 0 0 0 0 0 0 0 0 0
Nghost:    15761 ave 15761 max 15761 min
Histogram: 1 0 0 0 0 0 0 0 0 0
Neighs:    1.0245e+06 ave 1.0245e+06 max 1.0245e+06 min
Histogram: 1 0 0 0 0 0 0 0 0 0

Total # of neighbors = 1024503
Ave neighs/atom = 52.1323
Neighbor list builds = 505
Dangerous builds not checked
Setting up Verlet run ...
  Unit style    : metal
  Current step  : 46000
  Time step     : 0.001
Per MPI rank memory allocation (min/avg/max) = 18.19 | 18.19 | 18.19 Mbytes
Step Temp Press TotEng PotEng Enthalpy Volume 
   46000     2143.656    124.97563   -107797.27   -113242.35   -107759.82    480134.63 
   46495     2132.666     -176.987   -107912.45   -113329.61   -107965.45    479780.33 
Loop time of 42.7731 on 1 procs for 495 steps with 19652 atoms

Performance: 1.000 ns/day, 24.003 hours/ns, 11.573 timesteps/s
99.8% CPU use with 1 MPI tasks x no OpenMP threads

MPI task timing breakdown:
Section |  min time  |  avg time  |  max time  |%varavg| %total
---------------------------------------------------------------
Pair    | 21.418     | 21.418     | 21.418     |   0.0 | 50.07
Neigh   | 20.416     | 20.416     | 20.416     |   0.0 | 47.73
Comm    | 0.33899    | 0.33899    | 0.33899    |   0.0 |  0.79
Output  | 0.00015116 | 0.00015116 | 0.00015116 |   0.0 |  0.00
Modify  | 0.47394    | 0.47394    | 0.47394    |   0.0 |  1.11
Other   |            | 0.1259     |            |       |  0.29

Nlocal:    19652 ave 19652 max 19652 min
Histogram: 1 0 0 0 0 0 0 0 0 0
Nghost:    15738 ave 15738 max 15738 min
Histogram: 1 0 0 0 0 0 0 0 0 0
Neighs:    1.02569e+06 ave 1.02569e+06 max 1.02569e+06 min
Histogram: 1 0 0 0 0 0 0 0 0 0

Total # of neighbors = 1025693
Ave neighs/atom = 52.1928
Neighbor list builds = 495
Dangerous builds not checked
Setting up Verlet run ...
  Unit style    : metal
  Current step  : 46495
  Time step     : 0.001
Per MPI rank memory allocation (min/avg/max) = 18.19 | 18.19 | 18.19 Mbytes
Step Temp Press TotEng PotEng Enthalpy Volume 
   46495     2132.666     -176.987   -107912.45   -113329.61   -107965.45    479780.33 
   47000    2092.7833    760.83001   -108104.87   -113420.73   -107877.49    478825.32 
Loop time of 43.8052 on 1 procs for 505 steps with 19652 atoms

Performance: 0.996 ns/day, 24.095 hours/ns, 11.528 timesteps/s
99.6% CPU use with 1 MPI tasks x no OpenMP threads

MPI task timing breakdown:
Section |  min time  |  avg time  |  max time  |%varavg| %total
---------------------------------------------------------------
Pair    | 21.852     | 21.852     | 21.852     |   0.0 | 49.88
Neigh   | 20.779     | 20.779     | 20.779     |   0.0 | 47.44
Comm    | 0.35011    | 0.35011    | 0.35011    |   0.0 |  0.80
Output  | 0.21382    | 0.21382    | 0.21382    |   0.0 |  0.49
Modify  | 0.48173    | 0.48173    | 0.48173    |   0.0 |  1.10
Other   |            | 0.1288     |            |       |  0.29

Nlocal:    19652 ave 19652 max 19652 min
Histogram: 1 0 0 0 0 0 0 0 0 0
Nghost:    15753 ave 15753 max 15753 min
Histogram: 1 0 0 0 0 0 0 0 0 0
Neighs:    1.02801e+06 ave 1.02801e+06 max 1.02801e+06 min
Histogram: 1 0 0 0 0 0 0 0 0 0

Total # of neighbors = 1028010
Ave neighs/atom = 52.3107
Neighbor list builds = 505
Dangerous builds not checked
Setting up Verlet run ...
  Unit style    : metal
  Current step  : 47000
  Time step     : 0.001
Per MPI rank memory allocation (min/avg/max) = 18.19 | 18.19 | 18.19 Mbytes
Step Temp Press TotEng PotEng Enthalpy Volume 
   47000    2092.7833    760.83001   -108104.87   -113420.73   -107877.49    478825.32 
   47495    2075.3446    816.85768    -108220.6   -113492.17   -107976.74    478308.25 
Loop time of 43.4259 on 1 procs for 495 steps with 19652 atoms

Performance: 0.985 ns/day, 24.369 hours/ns, 11.399 timesteps/s
100.0% CPU use with 1 MPI tasks x no OpenMP threads

MPI task timing breakdown:
Section |  min time  |  avg time  |  max time  |%varavg| %total
---------------------------------------------------------------
Pair    | 21.923     | 21.923     | 21.923     |   0.0 | 50.48
Neigh   | 20.53      | 20.53      | 20.53      |   0.0 | 47.28
Comm    | 0.35667    | 0.35667    | 0.35667    |   0.0 |  0.82
Output  | 0.00013518 | 0.00013518 | 0.00013518 |   0.0 |  0.00
Modify  | 0.47951    | 0.47951    | 0.47951    |   0.0 |  1.10
Other   |            | 0.137      |            |       |  0.32

Nlocal:    19652 ave 19652 max 19652 min
Histogram: 1 0 0 0 0 0 0 0 0 0
Nghost:    15834 ave 15834 max 15834 min
Histogram: 1 0 0 0 0 0 0 0 0 0
Neighs:    1.0291e+06 ave 1.0291e+06 max 1.0291e+06 min
Histogram: 1 0 0 0 0 0 0 0 0 0

Total # of neighbors = 1029098
Ave neighs/atom = 52.3661
Neighbor list builds = 495
Dangerous builds not checked
Setting up Verlet run ...
  Unit style    : metal
  Current step  : 47495
  Time step     : 0.001
Per MPI rank memory allocation (min/avg/max) = 18.19 | 18.19 | 18.19 Mbytes
Step Temp Press TotEng PotEng Enthalpy Volume 
   47495    2075.3446    816.85768    -108220.6   -113492.17   -107976.74    478308.25 
   48000    2049.6734    1086.7289   -108449.45   -113655.81   -108125.57     477505.1 
Loop time of 45.2813 on 1 procs for 505 steps with 19652 atoms

Performance: 0.964 ns/day, 24.907 hours/ns, 11.153 timesteps/s
99.5% CPU use with 1 MPI tasks x no OpenMP threads

MPI task timing breakdown:
Section |  min time  |  avg time  |  max time  |%varavg| %total
---------------------------------------------------------------
Pair    | 22.812     | 22.812     | 22.812     |   0.0 | 50.38
Neigh   | 21.23      | 21.23      | 21.23      |   0.0 | 46.88
Comm    | 0.3672     | 0.3672     | 0.3672     |   0.0 |  0.81
Output  | 0.23658    | 0.23658    | 0.23658    |   0.0 |  0.52
Modify  | 0.49595    | 0.49595    | 0.49595    |   0.0 |  1.10
Other   |            | 0.1398     |            |       |  0.31

Nlocal:    19652 ave 19652 max 19652 min
Histogram: 1 0 0 0 0 0 0 0 0 0
Nghost:    15807 ave 15807 max 15807 min
Histogram: 1 0 0 0 0 0 0 0 0 0
Neighs:    1.03067e+06 ave 1.03067e+06 max 1.03067e+06 min
Histogram: 1 0 0 0 0 0 0 0 0 0

Total # of neighbors = 1030669
Ave neighs/atom = 52.446
Neighbor list builds = 505
Dangerous builds not checked
Setting up Verlet run ...
  Unit style    : metal
  Current step  : 48000
  Time step     : 0.001
Per MPI rank memory allocation (min/avg/max) = 18.19 | 18.19 | 18.19 Mbytes
Step Temp Press TotEng PotEng Enthalpy Volume 
   48000    2049.6734    1086.7289   -108449.45   -113655.81   -108125.57     477505.1 
   48495    2012.7127    887.16682   -108520.87   -113633.35    -108256.4     477615.7 
Loop time of 43.272 on 1 procs for 495 steps with 19652 atoms

Performance: 0.988 ns/day, 24.283 hours/ns, 11.439 timesteps/s
100.0% CPU use with 1 MPI tasks x no OpenMP threads

MPI task timing breakdown:
Section |  min time  |  avg time  |  max time  |%varavg| %total
---------------------------------------------------------------
Pair    | 21.815     | 21.815     | 21.815     |   0.0 | 50.41
Neigh   | 20.493     | 20.493     | 20.493     |   0.0 | 47.36
Comm    | 0.35005    | 0.35005    | 0.35005    |   0.0 |  0.81
Output  | 0.00013995 | 0.00013995 | 0.00013995 |   0.0 |  0.00
Modify  | 0.47927    | 0.47927    | 0.47927    |   0.0 |  1.11
Other   |            | 0.1347     |            |       |  0.31

Nlocal:    19652 ave 19652 max 19652 min
Histogram: 1 0 0 0 0 0 0 0 0 0
Nghost:    15770 ave 15770 max 15770 min
Histogram: 1 0 0 0 0 0 0 0 0 0
Neighs:    1.03073e+06 ave 1.03073e+06 max 1.03073e+06 min
Histogram: 1 0 0 0 0 0 0 0 0 0

Total # of neighbors = 1030733
Ave neighs/atom = 52.4493
Neighbor list builds = 495
Dangerous builds not checked
Setting up Verlet run ...
  Unit style    : metal
  Current step  : 48495
  Time step     : 0.001
Per MPI rank memory allocation (min/avg/max) = 18.19 | 18.19 | 18.19 Mbytes
Step Temp Press TotEng PotEng Enthalpy Volume 
   48495    2012.7127    887.16682   -108520.87   -113633.35    -108256.4     477615.7 
   49000    1995.4399     1001.751   -108725.28   -113793.88   -108427.05    476977.41 
Loop time of 46.1812 on 1 procs for 505 steps with 19652 atoms

Performance: 0.945 ns/day, 25.402 hours/ns, 10.935 timesteps/s
95.3% CPU use with 1 MPI tasks x no OpenMP threads

MPI task timing breakdown:
Section |  min time  |  avg time  |  max time  |%varavg| %total
---------------------------------------------------------------
Pair    | 22.119     | 22.119     | 22.119     |   0.0 | 47.90
Neigh   | 20.974     | 20.974     | 20.974     |   0.0 | 45.42
Comm    | 0.35171    | 0.35171    | 0.35171    |   0.0 |  0.76
Output  | 2.1164     | 2.1164     | 2.1164     |   0.0 |  4.58
Modify  | 0.48715    | 0.48715    | 0.48715    |   0.0 |  1.05
Other   |            | 0.1325     |            |       |  0.29

Nlocal:    19652 ave 19652 max 19652 min
Histogram: 1 0 0 0 0 0 0 0 0 0
Nghost:    15855 ave 15855 max 15855 min
Histogram: 1 0 0 0 0 0 0 0 0 0
Neighs:    1.03225e+06 ave 1.03225e+06 max 1.03225e+06 min
Histogram: 1 0 0 0 0 0 0 0 0 0

Total # of neighbors = 1032248
Ave neighs/atom = 52.5264
Neighbor list builds = 505
Dangerous builds not checked
Setting up Verlet run ...
  Unit style    : metal
  Current step  : 49000
  Time step     : 0.001
Per MPI rank memory allocation (min/avg/max) = 18.19 | 18.19 | 18.19 Mbytes
Step Temp Press TotEng PotEng Enthalpy Volume 
   49000    1995.4399     1001.751   -108725.28   -113793.88   -108427.05    476977.41 
   49495     1966.692    427.15197   -108908.95   -113904.53   -108781.84    476764.96 
Loop time of 43.0789 on 1 procs for 495 steps with 19652 atoms

Performance: 0.993 ns/day, 24.174 hours/ns, 11.491 timesteps/s
99.9% CPU use with 1 MPI tasks x no OpenMP threads

MPI task timing breakdown:
Section |  min time  |  avg time  |  max time  |%varavg| %total
---------------------------------------------------------------
Pair    | 21.662     | 21.662     | 21.662     |   0.0 | 50.29
Neigh   | 20.473     | 20.473     | 20.473     |   0.0 | 47.52
Comm    | 0.34072    | 0.34072    | 0.34072    |   0.0 |  0.79
Output  | 0.00012493 | 0.00012493 | 0.00012493 |   0.0 |  0.00
Modify  | 0.47772    | 0.47772    | 0.47772    |   0.0 |  1.11
Other   |            | 0.1248     |            |       |  0.29

Nlocal:    19652 ave 19652 max 19652 min
Histogram: 1 0 0 0 0 0 0 0 0 0
Nghost:    15815 ave 15815 max 15815 min
Histogram: 1 0 0 0 0 0 0 0 0 0
Neighs:    1.03282e+06 ave 1.03282e+06 max 1.03282e+06 min
Histogram: 1 0 0 0 0 0 0 0 0 0

Total # of neighbors = 1032823
Ave neighs/atom = 52.5556
Neighbor list builds = 495
Dangerous builds not checked
Setting up Verlet run ...
  Unit style    : metal
  Current step  : 49495
  Time step     : 0.001
Per MPI rank memory allocation (min/avg/max) = 18.19 | 18.19 | 18.19 Mbytes
Step Temp Press TotEng PotEng Enthalpy Volume 
   49495     1966.692    427.15197   -108908.95   -113904.53   -108781.84    476764.96 
   50000    1946.7339    307.24072    -109045.5   -113990.38   -108954.17    476241.07 
Loop time of 45.9239 on 1 procs for 505 steps with 19652 atoms

Performance: 0.950 ns/day, 25.261 hours/ns, 10.996 timesteps/s
98.3% CPU use with 1 MPI tasks x no OpenMP threads

MPI task timing breakdown:
Section |  min time  |  avg time  |  max time  |%varavg| %total
---------------------------------------------------------------
Pair    | 23.012     | 23.012     | 23.012     |   0.0 | 50.11
Neigh   | 21.255     | 21.255     | 21.255     |   0.0 | 46.28
Comm    | 0.37449    | 0.37449    | 0.37449    |   0.0 |  0.82
Output  | 0.6379     | 0.6379     | 0.6379     |   0.0 |  1.39
Modify  | 0.50129    | 0.50129    | 0.50129    |   0.0 |  1.09
Other   |            | 0.1434     |            |       |  0.31

Nlocal:    19652 ave 19652 max 19652 min
Histogram: 1 0 0 0 0 0 0 0 0 0
Nghost:    15820 ave 15820 max 15820 min
Histogram: 1 0 0 0 0 0 0 0 0 0
Neighs:    1.03395e+06 ave 1.03395e+06 max 1.03395e+06 min
Histogram: 1 0 0 0 0 0 0 0 0 0

Total # of neighbors = 1033954
Ave neighs/atom = 52.6132
Neighbor list builds = 505
Dangerous builds not checked
Setting up Verlet run ...
  Unit style    : metal
  Current step  : 50000
  Time step     : 0.001
Per MPI rank memory allocation (min/avg/max) = 18.19 | 18.19 | 18.19 Mbytes
Step Temp Press TotEng PotEng Enthalpy Volume 
   50000    1946.7339    307.24072    -109045.5   -113990.38   -108954.17    476241.07 
   50495      1905.72    975.50958   -109237.13   -114077.83   -108947.57    475570.24 
Loop time of 45.2716 on 1 procs for 495 steps with 19652 atoms

Performance: 0.945 ns/day, 25.405 hours/ns, 10.934 timesteps/s
99.9% CPU use with 1 MPI tasks x no OpenMP threads

MPI task timing breakdown:
Section |  min time  |  avg time  |  max time  |%varavg| %total
---------------------------------------------------------------
Pair    | 22.976     | 22.976     | 22.976     |   0.0 | 50.75
Neigh   | 21.293     | 21.293     | 21.293     |   0.0 | 47.03
Comm    | 0.36463    | 0.36463    | 0.36463    |   0.0 |  0.81
Output  | 0.00011802 | 0.00011802 | 0.00011802 |   0.0 |  0.00
Modify  | 0.50352    | 0.50352    | 0.50352    |   0.0 |  1.11
Other   |            | 0.1348     |            |       |  0.30

Nlocal:    19652 ave 19652 max 19652 min
Histogram: 1 0 0 0 0 0 0 0 0 0
Nghost:    15845 ave 15845 max 15845 min
Histogram: 1 0 0 0 0 0 0 0 0 0
Neighs:    1.03548e+06 ave 1.03548e+06 max 1.03548e+06 min
Histogram: 1 0 0 0 0 0 0 0 0 0

Total # of neighbors = 1035485
Ave neighs/atom = 52.6911
Neighbor list builds = 495
Dangerous builds not checked
Setting up Verlet run ...
  Unit style    : metal
  Current step  : 50495
  Time step     : 0.001
Per MPI rank memory allocation (min/avg/max) = 18.19 | 18.19 | 18.19 Mbytes
Step Temp Press TotEng PotEng Enthalpy Volume 
   50495      1905.72    975.50958   -109237.13   -114077.83   -108947.57    475570.24 
   51000    1895.9722    1160.1903   -109335.47   -114151.41   -108991.52    474976.13 
Loop time of 44.3999 on 1 procs for 505 steps with 19652 atoms

Performance: 0.983 ns/day, 24.422 hours/ns, 11.374 timesteps/s
99.8% CPU use with 1 MPI tasks x no OpenMP threads

MPI task timing breakdown:
Section |  min time  |  avg time  |  max time  |%varavg| %total
---------------------------------------------------------------
Pair    | 22.304     | 22.304     | 22.304     |   0.0 | 50.23
Neigh   | 20.979     | 20.979     | 20.979     |   0.0 | 47.25
Comm    | 0.35279    | 0.35279    | 0.35279    |   0.0 |  0.79
Output  | 0.1431     | 0.1431     | 0.1431     |   0.0 |  0.32
Modify  | 0.4903     | 0.4903     | 0.4903     |   0.0 |  1.10
Other   |            | 0.1311     |            |       |  0.30

Nlocal:    19652 ave 19652 max 19652 min
Histogram: 1 0 0 0 0 0 0 0 0 0
Nghost:    15910 ave 15910 max 15910 min
Histogram: 1 0 0 0 0 0 0 0 0 0
Neighs:    1.03668e+06 ave 1.03668e+06 max 1.03668e+06 min
Histogram: 1 0 0 0 0 0 0 0 0 0

Total # of neighbors = 1036682
Ave neighs/atom = 52.752
Neighbor list builds = 505
Dangerous builds not checked
Setting up Verlet run ...
  Unit style    : metal
  Current step  : 51000
  Time step     : 0.001
Per MPI rank memory allocation (min/avg/max) = 18.19 | 18.19 | 18.19 Mbytes
Step Temp Press TotEng PotEng Enthalpy Volume 
   51000    1895.9722    1160.1903   -109335.47   -114151.41   -108991.52    474976.13 
   51495    1868.5369     830.8589   -109567.49   -114313.74   -109321.16    475001.52 
Loop time of 51.5533 on 1 procs for 495 steps with 19652 atoms

Performance: 0.830 ns/day, 28.930 hours/ns, 9.602 timesteps/s
99.9% CPU use with 1 MPI tasks x no OpenMP threads

MPI task timing breakdown:
Section |  min time  |  avg time  |  max time  |%varavg| %total
---------------------------------------------------------------
Pair    | 26.75      | 26.75      | 26.75      |   0.0 | 51.89
Neigh   | 23.634     | 23.634     | 23.634     |   0.0 | 45.84
Comm    | 0.43904    | 0.43904    | 0.43904    |   0.0 |  0.85
Output  | 0.00016189 | 0.00016189 | 0.00016189 |   0.0 |  0.00
Modify  | 0.57112    | 0.57112    | 0.57112    |   0.0 |  1.11
Other   |            | 0.1588     |            |       |  0.31

Nlocal:    19652 ave 19652 max 19652 min
Histogram: 1 0 0 0 0 0 0 0 0 0
Nghost:    15866 ave 15866 max 15866 min
Histogram: 1 0 0 0 0 0 0 0 0 0
Neighs:    1.03717e+06 ave 1.03717e+06 max 1.03717e+06 min
Histogram: 1 0 0 0 0 0 0 0 0 0

Total # of neighbors = 1037173
Ave neighs/atom = 52.777
Neighbor list builds = 495
Dangerous builds not checked
Setting up Verlet run ...
  Unit style    : metal
  Current step  : 51495
  Time step     : 0.001
Per MPI rank memory allocation (min/avg/max) = 18.19 | 18.19 | 18.19 Mbytes
Step Temp Press TotEng PotEng Enthalpy Volume 
   51495    1868.5369     830.8589   -109567.49   -114313.74   -109321.16    475001.52 
   52000    1865.6782   0.99425998   -109663.34   -114402.33   -109663.04    475078.91 
Loop time of 61.8686 on 1 procs for 505 steps with 19652 atoms

Performance: 0.705 ns/day, 34.031 hours/ns, 8.162 timesteps/s
93.6% CPU use with 1 MPI tasks x no OpenMP threads

MPI task timing breakdown:
Section |  min time  |  avg time  |  max time  |%varavg| %total
---------------------------------------------------------------
Pair    | 30.757     | 30.757     | 30.757     |   0.0 | 49.71
Neigh   | 26.256     | 26.256     | 26.256     |   0.0 | 42.44
Comm    | 0.48678    | 0.48678    | 0.48678    |   0.0 |  0.79
Output  | 3.5533     | 3.5533     | 3.5533     |   0.0 |  5.74
Modify  | 0.63803    | 0.63803    | 0.63803    |   0.0 |  1.03
Other   |            | 0.1779     |            |       |  0.29

Nlocal:    19652 ave 19652 max 19652 min
Histogram: 1 0 0 0 0 0 0 0 0 0
Nghost:    15870 ave 15870 max 15870 min
Histogram: 1 0 0 0 0 0 0 0 0 0
Neighs:    1.03726e+06 ave 1.03726e+06 max 1.03726e+06 min
Histogram: 1 0 0 0 0 0 0 0 0 0

Total # of neighbors = 1037256
Ave neighs/atom = 52.7812
Neighbor list builds = 505
Dangerous builds not checked
Setting up Verlet run ...
  Unit style    : metal
  Current step  : 52000
  Time step     : 0.001
Per MPI rank memory allocation (min/avg/max) = 18.19 | 18.19 | 18.19 Mbytes
Step Temp Press TotEng PotEng Enthalpy Volume 
   52000    1865.6782   0.99425998   -109663.34   -114402.33   -109663.04    475078.91 
   52495    1807.6648    409.34758    -109865.4   -114457.04   -109744.07    474903.93 
Loop time of 56.3687 on 1 procs for 495 steps with 19652 atoms

Performance: 0.759 ns/day, 31.632 hours/ns, 8.781 timesteps/s
98.2% CPU use with 1 MPI tasks x no OpenMP threads

MPI task timing breakdown:
Section |  min time  |  avg time  |  max time  |%varavg| %total
---------------------------------------------------------------
Pair    | 29.67      | 29.67      | 29.67      |   0.0 | 52.64
Neigh   | 25.441     | 25.441     | 25.441     |   0.0 | 45.13
Comm    | 0.46693    | 0.46693    | 0.46693    |   0.0 |  0.83
Output  | 0.00012803 | 0.00012803 | 0.00012803 |   0.0 |  0.00
Modify  | 0.61425    | 0.61425    | 0.61425    |   0.0 |  1.09
Other   |            | 0.1761     |            |       |  0.31

Nlocal:    19652 ave 19652 max 19652 min
Histogram: 1 0 0 0 0 0 0 0 0 0
Nghost:    15838 ave 15838 max 15838 min
Histogram: 1 0 0 0 0 0 0 0 0 0
Neighs:    1.03812e+06 ave 1.03812e+06 max 1.03812e+06 min
Histogram: 1 0 0 0 0 0 0 0 0 0

Total # of neighbors = 1038122
Ave neighs/atom = 52.8253
Neighbor list builds = 495
Dangerous builds not checked
Setting up Verlet run ...
  Unit style    : metal
  Current step  : 52495
  Time step     : 0.001
Per MPI rank memory allocation (min/avg/max) = 18.19 | 18.19 | 18.19 Mbytes
Step Temp Press TotEng PotEng Enthalpy Volume 
   52495    1807.6648    409.34758    -109865.4   -114457.04   -109744.07    474903.93 
   53000    1785.7916    64.883139   -110005.68   -114541.75   -109986.47    474245.48 
Loop time of 49.1595 on 1 procs for 505 steps with 19652 atoms

Performance: 0.888 ns/day, 27.040 hours/ns, 10.273 timesteps/s
99.1% CPU use with 1 MPI tasks x no OpenMP threads

MPI task timing breakdown:
Section |  min time  |  avg time  |  max time  |%varavg| %total
---------------------------------------------------------------
Pair    | 25.181     | 25.181     | 25.181     |   0.0 | 51.22
Neigh   | 22.702     | 22.702     | 22.702     |   0.0 | 46.18
Comm    | 0.40582    | 0.40582    | 0.40582    |   0.0 |  0.83
Output  | 0.1882     | 0.1882     | 0.1882     |   0.0 |  0.38
Modify  | 0.53498    | 0.53498    | 0.53498    |   0.0 |  1.09
Other   |            | 0.1476     |            |       |  0.30

Nlocal:    19652 ave 19652 max 19652 min
Histogram: 1 0 0 0 0 0 0 0 0 0
Nghost:    15865 ave 15865 max 15865 min
Histogram: 1 0 0 0 0 0 0 0 0 0
Neighs:    1.03931e+06 ave 1.03931e+06 max 1.03931e+06 min
Histogram: 1 0 0 0 0 0 0 0 0 0

Total # of neighbors = 1039312
Ave neighs/atom = 52.8858
Neighbor list builds = 505
Dangerous builds not checked
Setting up Verlet run ...
  Unit style    : metal
  Current step  : 53000
  Time step     : 0.001
Per MPI rank memory allocation (min/avg/max) = 18.19 | 18.19 | 18.19 Mbytes
Step Temp Press TotEng PotEng Enthalpy Volume 
   53000    1785.7916    64.883139   -110005.68   -114541.75   -109986.47    474245.48 
   53495    1753.2526    610.69049   -110186.22   -114639.64   -110005.72    473558.08 
Loop time of 50.6099 on 1 procs for 495 steps with 19652 atoms

Performance: 0.845 ns/day, 28.401 hours/ns, 9.781 timesteps/s
85.9% CPU use with 1 MPI tasks x no OpenMP threads

MPI task timing breakdown:
Section |  min time  |  avg time  |  max time  |%varavg| %total
---------------------------------------------------------------
Pair    | 22.014     | 22.014     | 22.014     |   0.0 | 43.50
Neigh   | 20.546     | 20.546     | 20.546     |   0.0 | 40.60
Comm    | 0.3439     | 0.3439     | 0.3439     |   0.0 |  0.68
Output  | 7.096      | 7.096      | 7.096      |   0.0 | 14.02
Modify  | 0.47971    | 0.47971    | 0.47971    |   0.0 |  0.95
Other   |            | 0.13       |            |       |  0.26

Nlocal:    19652 ave 19652 max 19652 min
Histogram: 1 0 0 0 0 0 0 0 0 0
Nghost:    15825 ave 15825 max 15825 min
Histogram: 1 0 0 0 0 0 0 0 0 0
Neighs:    1.04141e+06 ave 1.04141e+06 max 1.04141e+06 min
Histogram: 1 0 0 0 0 0 0 0 0 0

Total # of neighbors = 1041410
Ave neighs/atom = 52.9926
Neighbor list builds = 495
Dangerous builds not checked
Setting up Verlet run ...
  Unit style    : metal
  Current step  : 53495
  Time step     : 0.001
Per MPI rank memory allocation (min/avg/max) = 18.19 | 18.19 | 18.19 Mbytes
Step Temp Press TotEng PotEng Enthalpy Volume 
   53495    1753.2526    610.69049   -110186.22   -114639.64   -110005.72    473558.08 
   54000    1750.5292   -29.582507   -110341.91   -114788.41   -110350.65    473352.42 
Loop time of 50.9809 on 1 procs for 505 steps with 19652 atoms

Performance: 0.856 ns/day, 28.042 hours/ns, 9.906 timesteps/s
99.6% CPU use with 1 MPI tasks x no OpenMP threads

MPI task timing breakdown:
Section |  min time  |  avg time  |  max time  |%varavg| %total
---------------------------------------------------------------
Pair    | 26.254     | 26.254     | 26.254     |   0.0 | 51.50
Neigh   | 23.402     | 23.402     | 23.402     |   0.0 | 45.90
Comm    | 0.41572    | 0.41572    | 0.41572    |   0.0 |  0.82
Output  | 0.18803    | 0.18803    | 0.18803    |   0.0 |  0.37
Modify  | 0.56118    | 0.56118    | 0.56118    |   0.0 |  1.10
Other   |            | 0.1599     |            |       |  0.31

Nlocal:    19652 ave 19652 max 19652 min
Histogram: 1 0 0 0 0 0 0 0 0 0
Nghost:    15841 ave 15841 max 15841 min
Histogram: 1 0 0 0 0 0 0 0 0 0
Neighs:    1.04126e+06 ave 1.04126e+06 max 1.04126e+06 min
Histogram: 1 0 0 0 0 0 0 0 0 0

Total # of neighbors = 1041261
Ave neighs/atom = 52.985
Neighbor list builds = 505
Dangerous builds not checked
Setting up Verlet run ...
  Unit style    : metal
  Current step  : 54000
  Time step     : 0.001
Per MPI rank memory allocation (min/avg/max) = 18.19 | 18.19 | 18.19 Mbytes
Step Temp Press TotEng PotEng Enthalpy Volume 
   54000    1750.5292   -29.582507   -110341.91   -114788.41   -110350.65    473352.42 
   54495    1714.8046    545.85268   -110502.41   -114858.17   -110341.36    472729.57 
Loop time of 52.0699 on 1 procs for 495 steps with 19652 atoms

Performance: 0.821 ns/day, 29.220 hours/ns, 9.506 timesteps/s
99.9% CPU use with 1 MPI tasks x no OpenMP threads

MPI task timing breakdown:
Section |  min time  |  avg time  |  max time  |%varavg| %total
---------------------------------------------------------------
Pair    | 26.987     | 26.987     | 26.987     |   0.0 | 51.83
Neigh   | 23.904     | 23.904     | 23.904     |   0.0 | 45.91
Comm    | 0.42376    | 0.42376    | 0.42376    |   0.0 |  0.81
Output  | 0.0001471  | 0.0001471  | 0.0001471  |   0.0 |  0.00
Modify  | 0.589      | 0.589      | 0.589      |   0.0 |  1.13
Other   |            | 0.1661     |            |       |  0.32

Nlocal:    19652 ave 19652 max 19652 min
Histogram: 1 0 0 0 0 0 0 0 0 0
Nghost:    15897 ave 15897 max 15897 min
Histogram: 1 0 0 0 0 0 0 0 0 0
Neighs:    1.04344e+06 ave 1.04344e+06 max 1.04344e+06 min
Histogram: 1 0 0 0 0 0 0 0 0 0

Total # of neighbors = 1043439
Ave neighs/atom = 53.0958
Neighbor list builds = 495
Dangerous builds not checked
Setting up Verlet run ...
  Unit style    : metal
  Current step  : 54495
  Time step     : 0.001
Per MPI rank memory allocation (min/avg/max) = 18.19 | 18.19 | 18.19 Mbytes
Step Temp Press TotEng PotEng Enthalpy Volume 
   54495    1714.8046    545.85268   -110502.41   -114858.17   -110341.36    472729.57 
   55000    1716.9254    207.17244   -110584.47   -114945.62   -110523.36    472659.19 
Loop time of 48.7249 on 1 procs for 505 steps with 19652 atoms

Performance: 0.895 ns/day, 26.801 hours/ns, 10.364 timesteps/s
99.7% CPU use with 1 MPI tasks x no OpenMP threads

MPI task timing breakdown:
Section |  min time  |  avg time  |  max time  |%varavg| %total
---------------------------------------------------------------
Pair    | 24.97      | 24.97      | 24.97      |   0.0 | 51.25
Neigh   | 22.596     | 22.596     | 22.596     |   0.0 | 46.38
Comm    | 0.391      | 0.391      | 0.391      |   0.0 |  0.80
Output  | 0.076782   | 0.076782   | 0.076782   |   0.0 |  0.16
Modify  | 0.53651    | 0.53651    | 0.53651    |   0.0 |  1.10
Other   |            | 0.1544     |            |       |  0.32

Nlocal:    19652 ave 19652 max 19652 min
Histogram: 1 0 0 0 0 0 0 0 0 0
Nghost:    15861 ave 15861 max 15861 min
Histogram: 1 0 0 0 0 0 0 0 0 0
Neighs:    1.04339e+06 ave 1.04339e+06 max 1.04339e+06 min
Histogram: 1 0 0 0 0 0 0 0 0 0

Total # of neighbors = 1043390
Ave neighs/atom = 53.0933
Neighbor list builds = 505
Dangerous builds not checked
Setting up Verlet run ...
  Unit style    : metal
  Current step  : 55000
  Time step     : 0.001
Per MPI rank memory allocation (min/avg/max) = 18.19 | 18.19 | 18.19 Mbytes
Step Temp Press TotEng PotEng Enthalpy Volume 
   55000    1716.9254    207.17244   -110584.47   -114945.62   -110523.36    472659.19 
   55495    1671.9846    1020.5969      -110830   -115076.99   -110529.64    471520.56 
Loop time of 47.1721 on 1 procs for 495 steps with 19652 atoms

Performance: 0.907 ns/day, 26.471 hours/ns, 10.493 timesteps/s
99.9% CPU use with 1 MPI tasks x no OpenMP threads

MPI task timing breakdown:
Section |  min time  |  avg time  |  max time  |%varavg| %total
---------------------------------------------------------------
Pair    | 24.265     | 24.265     | 24.265     |   0.0 | 51.44
Neigh   | 21.849     | 21.849     | 21.849     |   0.0 | 46.32
Comm    | 0.3834     | 0.3834     | 0.3834     |   0.0 |  0.81
Output  | 0.00011587 | 0.00011587 | 0.00011587 |   0.0 |  0.00
Modify  | 0.52575    | 0.52575    | 0.52575    |   0.0 |  1.11
Other   |            | 0.1485     |            |       |  0.31

Nlocal:    19652 ave 19652 max 19652 min
Histogram: 1 0 0 0 0 0 0 0 0 0
Nghost:    15889 ave 15889 max 15889 min
Histogram: 1 0 0 0 0 0 0 0 0 0
Neighs:    1.04653e+06 ave 1.04653e+06 max 1.04653e+06 min
Histogram: 1 0 0 0 0 0 0 0 0 0

Total # of neighbors = 1046530
Ave neighs/atom = 53.2531
Neighbor list builds = 495
Dangerous builds not checked
Setting up Verlet run ...
  Unit style    : metal
  Current step  : 55495
  Time step     : 0.001
Per MPI rank memory allocation (min/avg/max) = 18.19 | 18.19 | 18.19 Mbytes
Step Temp Press TotEng PotEng Enthalpy Volume 
   55495    1671.9846    1020.5969      -110830   -115076.99   -110529.64    471520.56 
   56000    1646.4901   -189.88481   -110991.22   -115173.45   -111047.15    471993.28 
Loop time of 47.1251 on 1 procs for 505 steps with 19652 atoms

Performance: 0.926 ns/day, 25.921 hours/ns, 10.716 timesteps/s
99.6% CPU use with 1 MPI tasks x no OpenMP threads

MPI task timing breakdown:
Section |  min time  |  avg time  |  max time  |%varavg| %total
---------------------------------------------------------------
Pair    | 23.845     | 23.845     | 23.845     |   0.0 | 50.60
Neigh   | 21.983     | 21.983     | 21.983     |   0.0 | 46.65
Comm    | 0.37714    | 0.37714    | 0.37714    |   0.0 |  0.80
Output  | 0.25237    | 0.25237    | 0.25237    |   0.0 |  0.54
Modify  | 0.52424    | 0.52424    | 0.52424    |   0.0 |  1.11
Other   |            | 0.1429     |            |       |  0.30

Nlocal:    19652 ave 19652 max 19652 min
Histogram: 1 0 0 0 0 0 0 0 0 0
Nghost:    15919 ave 15919 max 15919 min
Histogram: 1 0 0 0 0 0 0 0 0 0
Neighs:    1.04545e+06 ave 1.04545e+06 max 1.04545e+06 min
Histogram: 1 0 0 0 0 0 0 0 0 0

Total # of neighbors = 1045448
Ave neighs/atom = 53.198
Neighbor list builds = 505
Dangerous builds not checked
Setting up Verlet run ...
  Unit style    : metal
  Current step  : 56000
  Time step     : 0.001
Per MPI rank memory allocation (min/avg/max) = 18.19 | 18.19 | 18.19 Mbytes
Step Temp Press TotEng PotEng Enthalpy Volume 
   56000    1646.4901   -189.88481   -110991.22   -115173.45   -111047.15    471993.28 
   56495     1622.753    187.95498   -111183.33   -115305.27   -111128.04    471270.56 
Loop time of 42.1341 on 1 procs for 495 steps with 19652 atoms

Performance: 1.015 ns/day, 23.644 hours/ns, 11.748 timesteps/s
100.0% CPU use with 1 MPI tasks x no OpenMP threads

MPI task timing breakdown:
Section |  min time  |  avg time  |  max time  |%varavg| %total
---------------------------------------------------------------
Pair    | 21.197     | 21.197     | 21.197     |   0.0 | 50.31
Neigh   | 20.026     | 20.026     | 20.026     |   0.0 | 47.53
Comm    | 0.32715    | 0.32715    | 0.32715    |   0.0 |  0.78
Output  | 0.00012422 | 0.00012422 | 0.00012422 |   0.0 |  0.00
Modify  | 0.46594    | 0.46594    | 0.46594    |   0.0 |  1.11
Other   |            | 0.1175     |            |       |  0.28

Nlocal:    19652 ave 19652 max 19652 min
Histogram: 1 0 0 0 0 0 0 0 0 0
Nghost:    15904 ave 15904 max 15904 min
Histogram: 1 0 0 0 0 0 0 0 0 0
Neighs:    1.04687e+06 ave 1.04687e+06 max 1.04687e+06 min
Histogram: 1 0 0 0 0 0 0 0 0 0

Total # of neighbors = 1046868
Ave neighs/atom = 53.2703
Neighbor list builds = 495
Dangerous builds not checked
Setting up Verlet run ...
  Unit style    : metal
  Current step  : 56495
  Time step     : 0.001
Per MPI rank memory allocation (min/avg/max) = 18.19 | 18.19 | 18.19 Mbytes
Step Temp Press TotEng PotEng Enthalpy Volume 
   56495     1622.753    187.95498   -111183.33   -115305.27   -111128.04    471270.56 
   57000     1599.643   -195.32431   -111334.46    -115397.7   -111391.89    471076.64 
Loop time of 46.2628 on 1 procs for 505 steps with 19652 atoms

Performance: 0.943 ns/day, 25.447 hours/ns, 10.916 timesteps/s
99.2% CPU use with 1 MPI tasks x no OpenMP threads

MPI task timing breakdown:
Section |  min time  |  avg time  |  max time  |%varavg| %total
---------------------------------------------------------------
Pair    | 23.404     | 23.404     | 23.404     |   0.0 | 50.59
Neigh   | 21.503     | 21.503     | 21.503     |   0.0 | 46.48
Comm    | 0.36412    | 0.36412    | 0.36412    |   0.0 |  0.79
Output  | 0.34319    | 0.34319    | 0.34319    |   0.0 |  0.74
Modify  | 0.51651    | 0.51651    | 0.51651    |   0.0 |  1.12
Other   |            | 0.1318     |            |       |  0.28

Nlocal:    19652 ave 19652 max 19652 min
Histogram: 1 0 0 0 0 0 0 0 0 0
Nghost:    15878 ave 15878 max 15878 min
Histogram: 1 0 0 0 0 0 0 0 0 0
Neighs:    1.04788e+06 ave 1.04788e+06 max 1.04788e+06 min
Histogram: 1 0 0 0 0 0 0 0 0 0

Total # of neighbors = 1047877
Ave neighs/atom = 53.3216
Neighbor list builds = 505
Dangerous builds not checked
Setting up Verlet run ...
  Unit style    : metal
  Current step  : 57000
  Time step     : 0.001
Per MPI rank memory allocation (min/avg/max) = 18.19 | 18.19 | 18.19 Mbytes
Step Temp Press TotEng PotEng Enthalpy Volume 
   57000     1599.643   -195.32431   -111334.46    -115397.7   -111391.89    471076.64 
   57495    1557.9993     -19.7761   -111531.93   -115489.39   -111537.74    470759.01 
Loop time of 47.1868 on 1 procs for 495 steps with 19652 atoms

Performance: 0.906 ns/day, 26.480 hours/ns, 10.490 timesteps/s
100.0% CPU use with 1 MPI tasks x no OpenMP threads

MPI task timing breakdown:
Section |  min time  |  avg time  |  max time  |%varavg| %total
---------------------------------------------------------------
Pair    | 24.233     | 24.233     | 24.233     |   0.0 | 51.36
Neigh   | 21.906     | 21.906     | 21.906     |   0.0 | 46.42
Comm    | 0.37746    | 0.37746    | 0.37746    |   0.0 |  0.80
Output  | 0.00013685 | 0.00013685 | 0.00013685 |   0.0 |  0.00
Modify  | 0.52235    | 0.52235    | 0.52235    |   0.0 |  1.11
Other   |            | 0.148      |            |       |  0.31

Nlocal:    19652 ave 19652 max 19652 min
Histogram: 1 0 0 0 0 0 0 0 0 0
Nghost:    15914 ave 15914 max 15914 min
Histogram: 1 0 0 0 0 0 0 0 0 0
Neighs:    1.0494e+06 ave 1.0494e+06 max 1.0494e+06 min
Histogram: 1 0 0 0 0 0 0 0 0 0

Total # of neighbors = 1049398
Ave neighs/atom = 53.399
Neighbor list builds = 495
Dangerous builds not checked
Setting up Verlet run ...
  Unit style    : metal
  Current step  : 57495
  Time step     : 0.001
Per MPI rank memory allocation (min/avg/max) = 18.19 | 18.19 | 18.19 Mbytes
Step Temp Press TotEng PotEng Enthalpy Volume 
   57495    1557.9993     -19.7761   -111531.93   -115489.39   -111537.74    470759.01 
   58000    1549.5107   -338.71088   -111632.58   -115568.48   -111732.07    470608.61 
Loop time of 44.6558 on 1 procs for 505 steps with 19652 atoms

Performance: 0.977 ns/day, 24.563 hours/ns, 11.309 timesteps/s
98.9% CPU use with 1 MPI tasks x no OpenMP threads

MPI task timing breakdown:
Section |  min time  |  avg time  |  max time  |%varavg| %total
---------------------------------------------------------------
Pair    | 22.31      | 22.31      | 22.31      |   0.0 | 49.96
Neigh   | 20.843     | 20.843     | 20.843     |   0.0 | 46.68
Comm    | 0.34486    | 0.34486    | 0.34486    |   0.0 |  0.77
Output  | 0.54314    | 0.54314    | 0.54314    |   0.0 |  1.22
Modify  | 0.48416    | 0.48416    | 0.48416    |   0.0 |  1.08
Other   |            | 0.1307     |            |       |  0.29

Nlocal:    19652 ave 19652 max 19652 min
Histogram: 1 0 0 0 0 0 0 0 0 0
Nghost:    15905 ave 15905 max 15905 min
Histogram: 1 0 0 0 0 0 0 0 0 0
Neighs:    1.04957e+06 ave 1.04957e+06 max 1.04957e+06 min
Histogram: 1 0 0 0 0 0 0 0 0 0

Total # of neighbors = 1049572
Ave neighs/atom = 53.4079
Neighbor list builds = 505
Dangerous builds not checked
Setting up Verlet run ...
  Unit style    : metal
  Current step  : 58000
  Time step     : 0.001
Per MPI rank memory allocation (min/avg/max) = 18.19 | 18.19 | 18.19 Mbytes
Step Temp Press TotEng PotEng Enthalpy Volume 
   58000    1549.5107   -338.71088   -111632.58   -115568.48   -111732.07    470608.61 
   58495    1512.3807   -160.56604   -111864.52    -115706.1   -111911.61    469944.92 
Loop time of 42.5542 on 1 procs for 495 steps with 19652 atoms

Performance: 1.005 ns/day, 23.880 hours/ns, 11.632 timesteps/s
99.9% CPU use with 1 MPI tasks x no OpenMP threads

MPI task timing breakdown:
Section |  min time  |  avg time  |  max time  |%varavg| %total
---------------------------------------------------------------
Pair    | 21.424     | 21.424     | 21.424     |   0.0 | 50.35
Neigh   | 20.226     | 20.226     | 20.226     |   0.0 | 47.53
Comm    | 0.32477    | 0.32477    | 0.32477    |   0.0 |  0.76
Output  | 0.0001061  | 0.0001061  | 0.0001061  |   0.0 |  0.00
Modify  | 0.46796    | 0.46796    | 0.46796    |   0.0 |  1.10
Other   |            | 0.1118     |            |       |  0.26

Nlocal:    19652 ave 19652 max 19652 min
Histogram: 1 0 0 0 0 0 0 0 0 0
Nghost:    15945 ave 15945 max 15945 min
Histogram: 1 0 0 0 0 0 0 0 0 0
Neighs:    1.05183e+06 ave 1.05183e+06 max 1.05183e+06 min
Histogram: 1 0 0 0 0 0 0 0 0 0

Total # of neighbors = 1051830
Ave neighs/atom = 53.5228
Neighbor list builds = 495
Dangerous builds not checked
Setting up Verlet run ...
  Unit style    : metal
  Current step  : 58495
  Time step     : 0.001
Per MPI rank memory allocation (min/avg/max) = 18.19 | 18.19 | 18.19 Mbytes
Step Temp Press TotEng PotEng Enthalpy Volume 
   58495    1512.3807   -160.56604   -111864.52    -115706.1   -111911.61    469944.92 
   59000    1500.4251   -90.933135   -111979.48    -115790.7   -112006.14    469680.57 
Loop time of 43.6278 on 1 procs for 505 steps with 19652 atoms

Performance: 1.000 ns/day, 23.998 hours/ns, 11.575 timesteps/s
99.3% CPU use with 1 MPI tasks x no OpenMP threads

MPI task timing breakdown:
Section |  min time  |  avg time  |  max time  |%varavg| %total
---------------------------------------------------------------
Pair    | 21.785     | 21.785     | 21.785     |   0.0 | 49.93
Neigh   | 20.561     | 20.561     | 20.561     |   0.0 | 47.13
Comm    | 0.33284    | 0.33284    | 0.33284    |   0.0 |  0.76
Output  | 0.35592    | 0.35592    | 0.35592    |   0.0 |  0.82
Modify  | 0.47496    | 0.47496    | 0.47496    |   0.0 |  1.09
Other   |            | 0.118      |            |       |  0.27

Nlocal:    19652 ave 19652 max 19652 min
Histogram: 1 0 0 0 0 0 0 0 0 0
Nghost:    15915 ave 15915 max 15915 min
Histogram: 1 0 0 0 0 0 0 0 0 0
Neighs:    1.05244e+06 ave 1.05244e+06 max 1.05244e+06 min
Histogram: 1 0 0 0 0 0 0 0 0 0

Total # of neighbors = 1052435
Ave neighs/atom = 53.5536
Neighbor list builds = 505
Dangerous builds not checked
Setting up Verlet run ...
  Unit style    : metal
  Current step  : 59000
  Time step     : 0.001
Per MPI rank memory allocation (min/avg/max) = 18.19 | 18.19 | 18.19 Mbytes
Step Temp Press TotEng PotEng Enthalpy Volume 
   59000    1500.4251   -90.933135   -111979.48    -115790.7   -112006.14    469680.57 
   59495    1466.1907   -174.25397   -112177.05   -115901.31   -112228.06     469009.5 
Loop time of 44.7138 on 1 procs for 495 steps with 19652 atoms

Performance: 0.956 ns/day, 25.092 hours/ns, 11.070 timesteps/s
100.0% CPU use with 1 MPI tasks x no OpenMP threads

MPI task timing breakdown:
Section |  min time  |  avg time  |  max time  |%varavg| %total
---------------------------------------------------------------
Pair    | 22.864     | 22.864     | 22.864     |   0.0 | 51.13
Neigh   | 20.861     | 20.861     | 20.861     |   0.0 | 46.65
Comm    | 0.36121    | 0.36121    | 0.36121    |   0.0 |  0.81
Output  | 0.00012302 | 0.00012302 | 0.00012302 |   0.0 |  0.00
Modify  | 0.49336    | 0.49336    | 0.49336    |   0.0 |  1.10
Other   |            | 0.1346     |            |       |  0.30

Nlocal:    19652 ave 19652 max 19652 min
Histogram: 1 0 0 0 0 0 0 0 0 0
Nghost:    15932 ave 15932 max 15932 min
Histogram: 1 0 0 0 0 0 0 0 0 0
Neighs:    1.05405e+06 ave 1.05405e+06 max 1.05405e+06 min
Histogram: 1 0 0 0 0 0 0 0 0 0

Total # of neighbors = 1054051
Ave neighs/atom = 53.6358
Neighbor list builds = 495
Dangerous builds not checked
Setting up Verlet run ...
  Unit style    : metal
  Current step  : 59495
  Time step     : 0.001
Per MPI rank memory allocation (min/avg/max) = 18.19 | 18.19 | 18.19 Mbytes
Step Temp Press TotEng PotEng Enthalpy Volume 
   59495    1466.1907   -174.25397   -112177.05   -115901.31   -112228.06     469009.5 
   60000    1451.7259   -17.057884   -112350.12   -116037.64   -112355.11    468651.11 
Loop time of 46.3191 on 1 procs for 505 steps with 19652 atoms

Performance: 0.942 ns/day, 25.478 hours/ns, 10.903 timesteps/s
95.5% CPU use with 1 MPI tasks x no OpenMP threads

MPI task timing breakdown:
Section |  min time  |  avg time  |  max time  |%varavg| %total
---------------------------------------------------------------
Pair    | 22.452     | 22.452     | 22.452     |   0.0 | 48.47
Neigh   | 20.781     | 20.781     | 20.781     |   0.0 | 44.86
Comm    | 0.34735    | 0.34735    | 0.34735    |   0.0 |  0.75
Output  | 2.1174     | 2.1174     | 2.1174     |   0.0 |  4.57
Modify  | 0.48528    | 0.48528    | 0.48528    |   0.0 |  1.05
Other   |            | 0.1367     |            |       |  0.30

Nlocal:    19652 ave 19652 max 19652 min
Histogram: 1 0 0 0 0 0 0 0 0 0
Nghost:    15923 ave 15923 max 15923 min
Histogram: 1 0 0 0 0 0 0 0 0 0
Neighs:    1.05573e+06 ave 1.05573e+06 max 1.05573e+06 min
Histogram: 1 0 0 0 0 0 0 0 0 0

Total # of neighbors = 1055730
Ave neighs/atom = 53.7212
Neighbor list builds = 505
Dangerous builds not checked
Setting up Verlet run ...
  Unit style    : metal
  Current step  : 60000
  Time step     : 0.001
Per MPI rank memory allocation (min/avg/max) = 18.19 | 18.19 | 18.19 Mbytes
Step Temp Press TotEng PotEng Enthalpy Volume 
   60000    1451.7259   -17.057884   -112350.12   -116037.64   -112355.11    468651.11 
   60495     1416.303    488.81762   -112513.32   -116110.86   -112370.52    468062.73 
Loop time of 43.0622 on 1 procs for 495 steps with 19652 atoms

Performance: 0.993 ns/day, 24.165 hours/ns, 11.495 timesteps/s
99.9% CPU use with 1 MPI tasks x no OpenMP threads

MPI task timing breakdown:
Section |  min time  |  avg time  |  max time  |%varavg| %total
---------------------------------------------------------------
Pair    | 21.816     | 21.816     | 21.816     |   0.0 | 50.66
Neigh   | 20.318     | 20.318     | 20.318     |   0.0 | 47.18
Comm    | 0.33287    | 0.33287    | 0.33287    |   0.0 |  0.77
Output  | 0.000108   | 0.000108   | 0.000108   |   0.0 |  0.00
Modify  | 0.47167    | 0.47167    | 0.47167    |   0.0 |  1.10
Other   |            | 0.1235     |            |       |  0.29

Nlocal:    19652 ave 19652 max 19652 min
Histogram: 1 0 0 0 0 0 0 0 0 0
Nghost:    15964 ave 15964 max 15964 min
Histogram: 1 0 0 0 0 0 0 0 0 0
Neighs:    1.05701e+06 ave 1.05701e+06 max 1.05701e+06 min
Histogram: 1 0 0 0 0 0 0 0 0 0

Total # of neighbors = 1057008
Ave neighs/atom = 53.7863
Neighbor list builds = 495
Dangerous builds not checked
Setting up Verlet run ...
  Unit style    : metal
  Current step  : 60495
  Time step     : 0.001
Per MPI rank memory allocation (min/avg/max) = 18.19 | 18.19 | 18.19 Mbytes
Step Temp Press TotEng PotEng Enthalpy Volume 
   60495     1416.303    488.81762   -112513.32   -116110.86   -112370.52    468062.73 
   61000       1404.3   -403.14653   -112615.13   -116182.18   -112732.98    468369.47 
Loop time of 44.8243 on 1 procs for 505 steps with 19652 atoms

Performance: 0.973 ns/day, 24.656 hours/ns, 11.266 timesteps/s
97.5% CPU use with 1 MPI tasks x no OpenMP threads

MPI task timing breakdown:
Section |  min time  |  avg time  |  max time  |%varavg| %total
---------------------------------------------------------------
Pair    | 22.138     | 22.138     | 22.138     |   0.0 | 49.39
Neigh   | 20.579     | 20.579     | 20.579     |   0.0 | 45.91
Comm    | 0.33945    | 0.33945    | 0.33945    |   0.0 |  0.76
Output  | 1.1581     | 1.1581     | 1.1581     |   0.0 |  2.58
Modify  | 0.4788     | 0.4788     | 0.4788     |   0.0 |  1.07
Other   |            | 0.131      |            |       |  0.29

Nlocal:    19652 ave 19652 max 19652 min
Histogram: 1 0 0 0 0 0 0 0 0 0
Nghost:    15914 ave 15914 max 15914 min
Histogram: 1 0 0 0 0 0 0 0 0 0
Neighs:    1.05603e+06 ave 1.05603e+06 max 1.05603e+06 min
Histogram: 1 0 0 0 0 0 0 0 0 0

Total # of neighbors = 1056028
Ave neighs/atom = 53.7364
Neighbor list builds = 505
Dangerous builds not checked
Setting up Verlet run ...
  Unit style    : metal
  Current step  : 61000
  Time step     : 0.001
Per MPI rank memory allocation (min/avg/max) = 18.19 | 18.19 | 18.19 Mbytes
Step Temp Press TotEng PotEng Enthalpy Volume 
   61000       1404.3   -403.14653   -112615.13   -116182.18   -112732.98    468369.47 
   61495    1365.3714   -512.82219   -112835.09   -116303.25   -112984.87    467966.15 
Loop time of 45.5646 on 1 procs for 495 steps with 19652 atoms

Performance: 0.939 ns/day, 25.569 hours/ns, 10.864 timesteps/s
100.0% CPU use with 1 MPI tasks x no OpenMP threads

MPI task timing breakdown:
Section |  min time  |  avg time  |  max time  |%varavg| %total
---------------------------------------------------------------
Pair    | 23.361     | 23.361     | 23.361     |   0.0 | 51.27
Neigh   | 21.202     | 21.202     | 21.202     |   0.0 | 46.53
Comm    | 0.35803    | 0.35803    | 0.35803    |   0.0 |  0.79
Output  | 0.00020289 | 0.00020289 | 0.00020289 |   0.0 |  0.00
Modify  | 0.5006     | 0.5006     | 0.5006     |   0.0 |  1.10
Other   |            | 0.1427     |            |       |  0.31

Nlocal:    19652 ave 19652 max 19652 min
Histogram: 1 0 0 0 0 0 0 0 0 0
Nghost:    15943 ave 15943 max 15943 min
Histogram: 1 0 0 0 0 0 0 0 0 0
Neighs:    1.05764e+06 ave 1.05764e+06 max 1.05764e+06 min
Histogram: 1 0 0 0 0 0 0 0 0 0

Total # of neighbors = 1057638
Ave neighs/atom = 53.8183
Neighbor list builds = 495
Dangerous builds not checked
Setting up Verlet run ...
  Unit style    : metal
  Current step  : 61495
  Time step     : 0.001
Per MPI rank memory allocation (min/avg/max) = 18.19 | 18.19 | 18.19 Mbytes
Step Temp Press TotEng PotEng Enthalpy Volume 
   61495    1365.3714   -512.82219   -112835.09   -116303.25   -112984.87    467966.15 
   62000     1350.388    336.55943   -113004.62   -116434.73   -112906.55    466867.88 
Loop time of 45.4116 on 1 procs for 505 steps with 19652 atoms

Performance: 0.961 ns/day, 24.979 hours/ns, 11.120 timesteps/s
99.6% CPU use with 1 MPI tasks x no OpenMP threads

MPI task timing breakdown:
Section |  min time  |  avg time  |  max time  |%varavg| %total
---------------------------------------------------------------
Pair    | 23.035     | 23.035     | 23.035     |   0.0 | 50.73
Neigh   | 21.241     | 21.241     | 21.241     |   0.0 | 46.77
Comm    | 0.35446    | 0.35446    | 0.35446    |   0.0 |  0.78
Output  | 0.14977    | 0.14977    | 0.14977    |   0.0 |  0.33
Modify  | 0.49815    | 0.49815    | 0.49815    |   0.0 |  1.10
Other   |            | 0.1329     |            |       |  0.29

Nlocal:    19652 ave 19652 max 19652 min
Histogram: 1 0 0 0 0 0 0 0 0 0
Nghost:    15952 ave 15952 max 15952 min
Histogram: 1 0 0 0 0 0 0 0 0 0
Neighs:    1.06021e+06 ave 1.06021e+06 max 1.06021e+06 min
Histogram: 1 0 0 0 0 0 0 0 0 0

Total # of neighbors = 1060209
Ave neighs/atom = 53.9492
Neighbor list builds = 505
Dangerous builds not checked
Setting up Verlet run ...
  Unit style    : metal
  Current step  : 62000
  Time step     : 0.001
Per MPI rank memory allocation (min/avg/max) = 18.19 | 18.19 | 18.19 Mbytes
Step Temp Press TotEng PotEng Enthalpy Volume 
   62000     1350.388    336.55943   -113004.62   -116434.73   -112906.55    466867.88 
   62495    1319.6011   -408.89789   -113190.15   -116542.06   -113309.36    467082.72 
Loop time of 43.5622 on 1 procs for 495 steps with 19652 atoms

Performance: 0.982 ns/day, 24.446 hours/ns, 11.363 timesteps/s
100.0% CPU use with 1 MPI tasks x no OpenMP threads

MPI task timing breakdown:
Section |  min time  |  avg time  |  max time  |%varavg| %total
---------------------------------------------------------------
Pair    | 22.083     | 22.083     | 22.083     |   0.0 | 50.69
Neigh   | 20.539     | 20.539     | 20.539     |   0.0 | 47.15
Comm    | 0.33694    | 0.33694    | 0.33694    |   0.0 |  0.77
Output  | 0.00012803 | 0.00012803 | 0.00012803 |   0.0 |  0.00
Modify  | 0.47818    | 0.47818    | 0.47818    |   0.0 |  1.10
Other   |            | 0.1251     |            |       |  0.29

Nlocal:    19652 ave 19652 max 19652 min
Histogram: 1 0 0 0 0 0 0 0 0 0
Nghost:    15959 ave 15959 max 15959 min
Histogram: 1 0 0 0 0 0 0 0 0 0
Neighs:    1.06018e+06 ave 1.06018e+06 max 1.06018e+06 min
Histogram: 1 0 0 0 0 0 0 0 0 0

Total # of neighbors = 1060177
Ave neighs/atom = 53.9475
Neighbor list builds = 495
Dangerous builds not checked
Setting up Verlet run ...
  Unit style    : metal
  Current step  : 62495
  Time step     : 0.001
Per MPI rank memory allocation (min/avg/max) = 18.19 | 18.19 | 18.19 Mbytes
Step Temp Press TotEng PotEng Enthalpy Volume 
   62495    1319.6011   -408.89789   -113190.15   -116542.06   -113309.36    467082.72 
   63000    1307.7411    505.97465   -113331.06   -116652.84   -113183.82    466231.89 
Loop time of 44.3325 on 1 procs for 505 steps with 19652 atoms

Performance: 0.984 ns/day, 24.385 hours/ns, 11.391 timesteps/s
100.0% CPU use with 1 MPI tasks x no OpenMP threads

MPI task timing breakdown:
Section |  min time  |  avg time  |  max time  |%varavg| %total
---------------------------------------------------------------
Pair    | 22.513     | 22.513     | 22.513     |   0.0 | 50.78
Neigh   | 20.802     | 20.802     | 20.802     |   0.0 | 46.92
Comm    | 0.34561    | 0.34561    | 0.34561    |   0.0 |  0.78
Output  | 0.055875   | 0.055875   | 0.055875   |   0.0 |  0.13
Modify  | 0.48474    | 0.48474    | 0.48474    |   0.0 |  1.09
Other   |            | 0.1314     |            |       |  0.30

Nlocal:    19652 ave 19652 max 19652 min
Histogram: 1 0 0 0 0 0 0 0 0 0
Nghost:    15984 ave 15984 max 15984 min
Histogram: 1 0 0 0 0 0 0 0 0 0
Neighs:    1.0627e+06 ave 1.0627e+06 max 1.0627e+06 min
Histogram: 1 0 0 0 0 0 0 0 0 0

Total # of neighbors = 1062697
Ave neighs/atom = 54.0758
Neighbor list builds = 505
Dangerous builds not checked
Setting up Verlet run ...
  Unit style    : metal
  Current step  : 63000
  Time step     : 0.001
Per MPI rank memory allocation (min/avg/max) = 18.19 | 18.19 | 18.19 Mbytes
Step Temp Press TotEng PotEng Enthalpy Volume 
   63000    1307.7411    505.97465   -113331.06   -116652.84   -113183.82    466231.89 
   63495    1256.0185    -287.6298   -113531.11   -116721.52   -113614.83    466301.36 
Loop time of 43.3928 on 1 procs for 495 steps with 19652 atoms

Performance: 0.986 ns/day, 24.351 hours/ns, 11.407 timesteps/s
100.0% CPU use with 1 MPI tasks x no OpenMP threads

MPI task timing breakdown:
Section |  min time  |  avg time  |  max time  |%varavg| %total
---------------------------------------------------------------
Pair    | 22.06      | 22.06      | 22.06      |   0.0 | 50.84
Neigh   | 20.392     | 20.392     | 20.392     |   0.0 | 46.99
Comm    | 0.3389     | 0.3389     | 0.3389     |   0.0 |  0.78
Output  | 0.00014186 | 0.00014186 | 0.00014186 |   0.0 |  0.00
Modify  | 0.4738     | 0.4738     | 0.4738     |   0.0 |  1.09
Other   |            | 0.1281     |            |       |  0.30

Nlocal:    19652 ave 19652 max 19652 min
Histogram: 1 0 0 0 0 0 0 0 0 0
Nghost:    15945 ave 15945 max 15945 min
Histogram: 1 0 0 0 0 0 0 0 0 0
Neighs:    1.06254e+06 ave 1.06254e+06 max 1.06254e+06 min
Histogram: 1 0 0 0 0 0 0 0 0 0

Total # of neighbors = 1062540
Ave neighs/atom = 54.0678
Neighbor list builds = 495
Dangerous builds not checked
Setting up Verlet run ...
  Unit style    : metal
  Current step  : 63495
  Time step     : 0.001
Per MPI rank memory allocation (min/avg/max) = 18.19 | 18.19 | 18.19 Mbytes
Step Temp Press TotEng PotEng Enthalpy Volume 
   63495    1256.0185    -287.6298   -113531.11   -116721.52   -113614.83    466301.36 
   64000    1245.6677    308.39273   -113647.67   -116811.78   -113558.06    465560.87 
Loop time of 44.2459 on 1 procs for 505 steps with 19652 atoms

Performance: 0.986 ns/day, 24.338 hours/ns, 11.413 timesteps/s
100.0% CPU use with 1 MPI tasks x no OpenMP threads

MPI task timing breakdown:
Section |  min time  |  avg time  |  max time  |%varavg| %total
---------------------------------------------------------------
Pair    | 22.438     | 22.438     | 22.438     |   0.0 | 50.71
Neigh   | 20.788     | 20.788     | 20.788     |   0.0 | 46.98
Comm    | 0.34503    | 0.34503    | 0.34503    |   0.0 |  0.78
Output  | 0.055081   | 0.055081   | 0.055081   |   0.0 |  0.12
Modify  | 0.48655    | 0.48655    | 0.48655    |   0.0 |  1.10
Other   |            | 0.1328     |            |       |  0.30

Nlocal:    19652 ave 19652 max 19652 min
Histogram: 1 0 0 0 0 0 0 0 0 0
Nghost:    16020 ave 16020 max 16020 min
Histogram: 1 0 0 0 0 0 0 0 0 0
Neighs:    1.06484e+06 ave 1.06484e+06 max 1.06484e+06 min
Histogram: 1 0 0 0 0 0 0 0 0 0

Total # of neighbors = 1064835
Ave neighs/atom = 54.1846
Neighbor list builds = 505
Dangerous builds not checked
Setting up Verlet run ...
  Unit style    : metal
  Current step  : 64000
  Time step     : 0.001
Per MPI rank memory allocation (min/avg/max) = 18.19 | 18.19 | 18.19 Mbytes
Step Temp Press TotEng PotEng Enthalpy Volume 
   64000    1245.6677    308.39273   -113647.67   -116811.78   -113558.06    465560.87 
[...]

Performance: 0.961 ns/day, 24.979 hours/ns, 11.121 timesteps/s
100.0% CPU use with 1 MPI tasks x no OpenMP threads

MPI task timing breakdown:
Section |  min time  |  avg time  |  max time  |%varavg| %total
---------------------------------------------------------------
Pair    | 22.988     | 22.988     | 22.988     |   0.0 | 51.65
Neigh   | 20.563     | 20.563     | 20.563     |   0.0 | 46.20
Comm    | 0.34209    | 0.34209    | 0.34209    |   0.0 |  0.77
Output  | 0.0001092  | 0.0001092  | 0.0001092  |   0.0 |  0.00
Modify  | 0.48319    | 0.48319    | 0.48319    |   0.0 |  1.09
Other   |            | 0.1351     |            |       |  0.30

Nlocal:    19652 ave 19652 max 19652 min
Histogram: 1 0 0 0 0 0 0 0 0 0
Nghost:    16073 ave 16073 max 16073 min
Histogram: 1 0 0 0 0 0 0 0 0 0
Neighs:    1.1015e+06 ave 1.1015e+06 max 1.1015e+06 min
Histogram: 1 0 0 0 0 0 0 0 0 0

Total # of neighbors = 1101499
Ave neighs/atom = 56.0502
Neighbor list builds = 495
Dangerous builds not checked
Setting up Verlet run ...
  Unit style    : metal
  Current step  : 80495
  Time step     : 0.001
Per MPI rank memory allocation (min/avg/max) = 18.19 | 18.19 | 18.19 Mbytes
Step Temp Press TotEng PotEng Enthalpy Volume 
   80495    417.28606   -565.52711   -118966.83   -120026.78   -119127.58     455413.3 
   81000    398.55303    227.03571   -119099.41   -120111.77   -119034.98    454713.14 
Loop time of 44.6959 on 1 procs for 505 steps with 19652 atoms

Performance: 0.976 ns/day, 24.585 hours/ns, 11.299 timesteps/s
100.0% CPU use with 1 MPI tasks x no OpenMP threads

MPI task timing breakdown:
Section |  min time  |  avg time  |  max time  |%varavg| %total
---------------------------------------------------------------
Pair    | 22.948     | 22.948     | 22.948     |   0.0 | 51.34
Neigh   | 20.742     | 20.742     | 20.742     |   0.0 | 46.41
Comm    | 0.33686    | 0.33686    | 0.33686    |   0.0 |  0.75
Output  | 0.059807   | 0.059807   | 0.059807   |   0.0 |  0.13
Modify  | 0.48233    | 0.48233    | 0.48233    |   0.0 |  1.08
Other   |            | 0.1267     |            |       |  0.28

Nlocal:    19652 ave 19652 max 19652 min
Histogram: 1 0 0 0 0 0 0 0 0 0
Nghost:    16073 ave 16073 max 16073 min
Histogram: 1 0 0 0 0 0 0 0 0 0
Neighs:    1.10394e+06 ave 1.10394e+06 max 1.10394e+06 min
Histogram: 1 0 0 0 0 0 0 0 0 0

Total # of neighbors = 1103945
Ave neighs/atom = 56.1747
Neighbor list builds = 505
Dangerous builds not checked
Setting up Verlet run ...
  Unit style    : metal
  Current step  : 81000
  Time step     : 0.001
Per MPI rank memory allocation (min/avg/max) = 18.19 | 18.19 | 18.19 Mbytes
Step Temp Press TotEng PotEng Enthalpy Volume 
   81000    398.55303    227.03571   -119099.41   -120111.77   -119034.98    454713.14 
   81495    374.40876   -71.783445   -119242.33   -120193.37    -119262.7    454579.46 
Loop time of 44.4483 on 1 procs for 495 steps with 19652 atoms

Performance: 0.962 ns/day, 24.943 hours/ns, 11.137 timesteps/s
100.0% CPU use with 1 MPI tasks x no OpenMP threads

MPI task timing breakdown:
Section |  min time  |  avg time  |  max time  |%varavg| %total
---------------------------------------------------------------
Pair    | 22.928     | 22.928     | 22.928     |   0.0 | 51.58
Neigh   | 20.568     | 20.568     | 20.568     |   0.0 | 46.27
Comm    | 0.33838    | 0.33838    | 0.33838    |   0.0 |  0.76
Output  | 0.00015593 | 0.00015593 | 0.00015593 |   0.0 |  0.00
Modify  | 0.48339    | 0.48339    | 0.48339    |   0.0 |  1.09
Other   |            | 0.1298     |            |       |  0.29

Nlocal:    19652 ave 19652 max 19652 min
Histogram: 1 0 0 0 0 0 0 0 0 0
Nghost:    16100 ave 16100 max 16100 min
Histogram: 1 0 0 0 0 0 0 0 0 0
Neighs:    1.10461e+06 ave 1.10461e+06 max 1.10461e+06 min
Histogram: 1 0 0 0 0 0 0 0 0 0

Total # of neighbors = 1104613
Ave neighs/atom = 56.2087
Neighbor list builds = 495
Dangerous builds not checked
Setting up Verlet run ...
  Unit style    : metal
  Current step  : 81495
  Time step     : 0.001
Per MPI rank memory allocation (min/avg/max) = 18.19 | 18.19 | 18.19 Mbytes
Step Temp Press TotEng PotEng Enthalpy Volume 
   81495    374.40876   -71.783445   -119242.33   -120193.37    -119262.7    454579.46 
   82000    348.92583    33.436201   -119377.83   -120264.13   -119368.35    454280.04 
Loop time of 46.42 on 1 procs for 505 steps with 19652 atoms

Performance: 0.940 ns/day, 25.534 hours/ns, 10.879 timesteps/s
99.5% CPU use with 1 MPI tasks x no OpenMP threads

MPI task timing breakdown:
Section |  min time  |  avg time  |  max time  |%varavg| %total
---------------------------------------------------------------
Pair    | 23.949     | 23.949     | 23.949     |   0.0 | 51.59
Neigh   | 21.217     | 21.217     | 21.217     |   0.0 | 45.71
Comm    | 0.359      | 0.359      | 0.359      |   0.0 |  0.77
Output  | 0.25002    | 0.25002    | 0.25002    |   0.0 |  0.54
Modify  | 0.50216    | 0.50216    | 0.50216    |   0.0 |  1.08
Other   |            | 0.142      |            |       |  0.31

Nlocal:    19652 ave 19652 max 19652 min
Histogram: 1 0 0 0 0 0 0 0 0 0
Nghost:    16082 ave 16082 max 16082 min
Histogram: 1 0 0 0 0 0 0 0 0 0
Neighs:    1.10538e+06 ave 1.10538e+06 max 1.10538e+06 min
Histogram: 1 0 0 0 0 0 0 0 0 0

Total # of neighbors = 1105376
Ave neighs/atom = 56.2475
Neighbor list builds = 505
Dangerous builds not checked
Setting up Verlet run ...
  Unit style    : metal
  Current step  : 82000
  Time step     : 0.001
Per MPI rank memory allocation (min/avg/max) = 18.19 | 18.19 | 18.19 Mbytes
Step Temp Press TotEng PotEng Enthalpy Volume 
   82000    348.92583    33.436201   -119377.83   -120264.13   -119368.35    454280.04 
   82495    324.73236    -195.3252   -119516.07   -120340.92   -119571.44    454139.19 
Loop time of 46.4449 on 1 procs for 495 steps with 19652 atoms

Performance: 0.921 ns/day, 26.063 hours/ns, 10.658 timesteps/s
99.7% CPU use with 1 MPI tasks x no OpenMP threads

MPI task timing breakdown:
Section |  min time  |  avg time  |  max time  |%varavg| %total
---------------------------------------------------------------
Pair    | 24.182     | 24.182     | 24.182     |   0.0 | 52.07
Neigh   | 21.249     | 21.249     | 21.249     |   0.0 | 45.75
Comm    | 0.3679     | 0.3679     | 0.3679     |   0.0 |  0.79
Output  | 0.00014305 | 0.00014305 | 0.00014305 |   0.0 |  0.00
Modify  | 0.50306    | 0.50306    | 0.50306    |   0.0 |  1.08
Other   |            | 0.1422     |            |       |  0.31

Nlocal:    19652 ave 19652 max 19652 min
Histogram: 1 0 0 0 0 0 0 0 0 0
Nghost:    16139 ave 16139 max 16139 min
Histogram: 1 0 0 0 0 0 0 0 0 0
Neighs:    1.10607e+06 ave 1.10607e+06 max 1.10607e+06 min
Histogram: 1 0 0 0 0 0 0 0 0 0

Total # of neighbors = 1106074
Ave neighs/atom = 56.283
Neighbor list builds = 495
Dangerous builds not checked
Setting up Verlet run ...
  Unit style    : metal
  Current step  : 82495
  Time step     : 0.001
Per MPI rank memory allocation (min/avg/max) = 18.19 | 18.19 | 18.19 Mbytes
Step Temp Press TotEng PotEng Enthalpy Volume 
   82495    324.73236    -195.3252   -119516.07   -120340.92   -119571.44    454139.19 
   83000    297.56977   -54.560772   -119652.56   -120408.41   -119668.01    453862.21 
Loop time of 45.339 on 1 procs for 505 steps with 19652 atoms

Performance: 0.962 ns/day, 24.939 hours/ns, 11.138 timesteps/s
99.1% CPU use with 1 MPI tasks x no OpenMP threads

MPI task timing breakdown:
Section |  min time  |  avg time  |  max time  |%varavg| %total
---------------------------------------------------------------
Pair    | 23.198     | 23.198     | 23.198     |   0.0 | 51.17
Neigh   | 20.911     | 20.911     | 20.911     |   0.0 | 46.12
Comm    | 0.34066    | 0.34066    | 0.34066    |   0.0 |  0.75
Output  | 0.27488    | 0.27488    | 0.27488    |   0.0 |  0.61
Modify  | 0.48744    | 0.48744    | 0.48744    |   0.0 |  1.08
Other   |            | 0.1272     |            |       |  0.28

Nlocal:    19652 ave 19652 max 19652 min
Histogram: 1 0 0 0 0 0 0 0 0 0
Nghost:    16132 ave 16132 max 16132 min
Histogram: 1 0 0 0 0 0 0 0 0 0
Neighs:    1.10718e+06 ave 1.10718e+06 max 1.10718e+06 min
Histogram: 1 0 0 0 0 0 0 0 0 0

Total # of neighbors = 1107181
Ave neighs/atom = 56.3394
Neighbor list builds = 505
Dangerous builds not checked
Setting up Verlet run ...
  Unit style    : metal
  Current step  : 83000
  Time step     : 0.001
Per MPI rank memory allocation (min/avg/max) = 18.19 | 18.19 | 18.19 Mbytes
Step Temp Press TotEng PotEng Enthalpy Volume 
   83000    297.56977   -54.560772   -119652.56   -120408.41   -119668.01    453862.21 
   83495    272.73579   -109.70255   -119784.61   -120477.39   -119815.68    453629.89 
Loop time of 43.9945 on 1 procs for 495 steps with 19652 atoms

Performance: 0.972 ns/day, 24.688 hours/ns, 11.251 timesteps/s
99.9% CPU use with 1 MPI tasks x no OpenMP threads

MPI task timing breakdown:
Section |  min time  |  avg time  |  max time  |%varavg| %total
---------------------------------------------------------------
Pair    | 22.675     | 22.675     | 22.675     |   0.0 | 51.54
Neigh   | 20.387     | 20.387     | 20.387     |   0.0 | 46.34
Comm    | 0.33182    | 0.33182    | 0.33182    |   0.0 |  0.75
Output  | 0.000139   | 0.000139   | 0.000139   |   0.0 |  0.00
Modify  | 0.47446    | 0.47446    | 0.47446    |   0.0 |  1.08
Other   |            | 0.1255     |            |       |  0.29

Nlocal:    19652 ave 19652 max 19652 min
Histogram: 1 0 0 0 0 0 0 0 0 0
Nghost:    16124 ave 16124 max 16124 min
Histogram: 1 0 0 0 0 0 0 0 0 0
Neighs:    1.10809e+06 ave 1.10809e+06 max 1.10809e+06 min
Histogram: 1 0 0 0 0 0 0 0 0 0

Total # of neighbors = 1108090
Ave neighs/atom = 56.3856
Neighbor list builds = 495
Dangerous builds not checked
Setting up Verlet run ...
  Unit style    : metal
  Current step  : 83495
  Time step     : 0.001
Per MPI rank memory allocation (min/avg/max) = 18.19 | 18.19 | 18.19 Mbytes
Step Temp Press TotEng PotEng Enthalpy Volume 
   83495    272.73579   -109.70255   -119784.61   -120477.39   -119815.68    453629.89 
   84000    250.22029   -20.909088   -119921.66   -120557.24   -119927.58    453340.95 
Loop time of 47.1291 on 1 procs for 505 steps with 19652 atoms

Performance: 0.926 ns/day, 25.924 hours/ns, 10.715 timesteps/s
99.7% CPU use with 1 MPI tasks x no OpenMP threads

MPI task timing breakdown:
Section |  min time  |  avg time  |  max time  |%varavg| %total
---------------------------------------------------------------
Pair    | 24.483     | 24.483     | 24.483     |   0.0 | 51.95
Neigh   | 21.452     | 21.452     | 21.452     |   0.0 | 45.52
Comm    | 0.37502    | 0.37502    | 0.37502    |   0.0 |  0.80
Output  | 0.16399    | 0.16399    | 0.16399    |   0.0 |  0.35
Modify  | 0.51099    | 0.51099    | 0.51099    |   0.0 |  1.08
Other   |            | 0.1445     |            |       |  0.31

Nlocal:    19652 ave 19652 max 19652 min
Histogram: 1 0 0 0 0 0 0 0 0 0
Nghost:    16118 ave 16118 max 16118 min
Histogram: 1 0 0 0 0 0 0 0 0 0
Neighs:    1.10925e+06 ave 1.10925e+06 max 1.10925e+06 min
Histogram: 1 0 0 0 0 0 0 0 0 0

Total # of neighbors = 1109248
Ave neighs/atom = 56.4445
Neighbor list builds = 505
Dangerous builds not checked
Setting up Verlet run ...
  Unit style    : metal
  Current step  : 84000
  Time step     : 0.001
Per MPI rank memory allocation (min/avg/max) = 18.19 | 18.19 | 18.19 Mbytes
Step Temp Press TotEng PotEng Enthalpy Volume 
   84000    250.22029   -20.909088   -119921.66   -120557.24   -119927.58    453340.95 
   84495    223.71117    135.94349   -120052.69   -120620.93   -120014.25    453023.71 
Loop time of 43.1532 on 1 procs for 495 steps with 19652 atoms

Performance: 0.991 ns/day, 24.216 hours/ns, 11.471 timesteps/s
99.9% CPU use with 1 MPI tasks x no OpenMP threads

MPI task timing breakdown:
Section |  min time  |  avg time  |  max time  |%varavg| %total
---------------------------------------------------------------
Pair    | 22.236     | 22.236     | 22.236     |   0.0 | 51.53
Neigh   | 20.012     | 20.012     | 20.012     |   0.0 | 46.37
Comm    | 0.32093    | 0.32093    | 0.32093    |   0.0 |  0.74
Output  | 0.00010204 | 0.00010204 | 0.00010204 |   0.0 |  0.00
Modify  | 0.46452    | 0.46452    | 0.46452    |   0.0 |  1.08
Other   |            | 0.1201     |            |       |  0.28

Nlocal:    19652 ave 19652 max 19652 min
Histogram: 1 0 0 0 0 0 0 0 0 0
Nghost:    16146 ave 16146 max 16146 min
Histogram: 1 0 0 0 0 0 0 0 0 0
Neighs:    1.10984e+06 ave 1.10984e+06 max 1.10984e+06 min
Histogram: 1 0 0 0 0 0 0 0 0 0

Total # of neighbors = 1109840
Ave neighs/atom = 56.4747
Neighbor list builds = 495
Dangerous builds not checked
Setting up Verlet run ...
  Unit style    : metal
  Current step  : 84495
  Time step     : 0.001
Per MPI rank memory allocation (min/avg/max) = 18.19 | 18.19 | 18.19 Mbytes
Step Temp Press TotEng PotEng Enthalpy Volume 
   84495    223.71117    135.94349   -120052.69   -120620.93   -120014.25    453023.71 
   85000    200.59208   -47.515736   -120185.32   -120694.84   -120198.75    452871.82 
Loop time of 44.754 on 1 procs for 505 steps with 19652 atoms

Performance: 0.975 ns/day, 24.617 hours/ns, 11.284 timesteps/s
99.5% CPU use with 1 MPI tasks x no OpenMP threads

MPI task timing breakdown:
Section |  min time  |  avg time  |  max time  |%varavg| %total
---------------------------------------------------------------
Pair    | 22.917     | 22.917     | 22.917     |   0.0 | 51.21
Neigh   | 20.616     | 20.616     | 20.616     |   0.0 | 46.06
Comm    | 0.33227    | 0.33227    | 0.33227    |   0.0 |  0.74
Output  | 0.28779    | 0.28779    | 0.28779    |   0.0 |  0.64
Modify  | 0.47961    | 0.47961    | 0.47961    |   0.0 |  1.07
Other   |            | 0.1211     |            |       |  0.27

Nlocal:    19652 ave 19652 max 19652 min
Histogram: 1 0 0 0 0 0 0 0 0 0
Nghost:    16126 ave 16126 max 16126 min
Histogram: 1 0 0 0 0 0 0 0 0 0
Neighs:    1.11021e+06 ave 1.11021e+06 max 1.11021e+06 min
Histogram: 1 0 0 0 0 0 0 0 0 0

Total # of neighbors = 1110211
Ave neighs/atom = 56.4935
Neighbor list builds = 505
Dangerous builds not checked
Setting up Verlet run ...
  Unit style    : metal
  Current step  : 85000
  Time step     : 0.001
Per MPI rank memory allocation (min/avg/max) = 18.19 | 18.19 | 18.19 Mbytes
Step Temp Press TotEng PotEng Enthalpy Volume 
   85000    200.59208   -47.515736   -120185.32   -120694.84   -120198.75    452871.82 
   85495    175.15212   -19.516784   -120313.99    -120758.9   -120319.51    452650.64 
Loop time of 44.1662 on 1 procs for 495 steps with 19652 atoms

Performance: 0.968 ns/day, 24.785 hours/ns, 11.208 timesteps/s
100.0% CPU use with 1 MPI tasks x no OpenMP threads

MPI task timing breakdown:
Section |  min time  |  avg time  |  max time  |%varavg| %total
---------------------------------------------------------------
Pair    | 22.812     | 22.812     | 22.812     |   0.0 | 51.65
Neigh   | 20.414     | 20.414     | 20.414     |   0.0 | 46.22
Comm    | 0.33466    | 0.33466    | 0.33466    |   0.0 |  0.76
Output  | 0.00013804 | 0.00013804 | 0.00013804 |   0.0 |  0.00
Modify  | 0.47823    | 0.47823    | 0.47823    |   0.0 |  1.08
Other   |            | 0.1277     |            |       |  0.29

Nlocal:    19652 ave 19652 max 19652 min
Histogram: 1 0 0 0 0 0 0 0 0 0
Nghost:    16120 ave 16120 max 16120 min
Histogram: 1 0 0 0 0 0 0 0 0 0
Neighs:    1.11109e+06 ave 1.11109e+06 max 1.11109e+06 min
Histogram: 1 0 0 0 0 0 0 0 0 0

Total # of neighbors = 1111087
Ave neighs/atom = 56.5381
Neighbor list builds = 495
Dangerous builds not checked
Setting up Verlet run ...
  Unit style    : metal
  Current step  : 85495
  Time step     : 0.001
Per MPI rank memory allocation (min/avg/max) = 18.19 | 18.19 | 18.19 Mbytes
Step Temp Press TotEng PotEng Enthalpy Volume 
   85495    175.15212   -19.516784   -120313.99    -120758.9   -120319.51    452650.64 
   86000     151.3908    68.718962   -120445.21   -120829.75    -120425.8    452381.79 
Loop time of 46.5089 on 1 procs for 505 steps with 19652 atoms

Performance: 0.938 ns/day, 25.582 hours/ns, 10.858 timesteps/s
97.1% CPU use with 1 MPI tasks x no OpenMP threads

MPI task timing breakdown:
Section |  min time  |  avg time  |  max time  |%varavg| %total
---------------------------------------------------------------
Pair    | 23.378     | 23.378     | 23.378     |   0.0 | 50.26
Neigh   | 20.815     | 20.815     | 20.815     |   0.0 | 44.76
Comm    | 0.34479    | 0.34479    | 0.34479    |   0.0 |  0.74
Output  | 1.3454     | 1.3454     | 1.3454     |   0.0 |  2.89
Modify  | 0.48855    | 0.48855    | 0.48855    |   0.0 |  1.05
Other   |            | 0.1374     |            |       |  0.30

Nlocal:    19652 ave 19652 max 19652 min
Histogram: 1 0 0 0 0 0 0 0 0 0
Nghost:    16131 ave 16131 max 16131 min
Histogram: 1 0 0 0 0 0 0 0 0 0
Neighs:    1.11224e+06 ave 1.11224e+06 max 1.11224e+06 min
Histogram: 1 0 0 0 0 0 0 0 0 0

Total # of neighbors = 1112240
Ave neighs/atom = 56.5968
Neighbor list builds = 505
Dangerous builds not checked
Setting up Verlet run ...
  Unit style    : metal
  Current step  : 86000
  Time step     : 0.001
Per MPI rank memory allocation (min/avg/max) = 18.19 | 18.19 | 18.19 Mbytes
Step Temp Press TotEng PotEng Enthalpy Volume 
   86000     151.3908    68.718962   -120445.21   -120829.75    -120425.8    452381.79 
   86495    126.30576     57.73464   -120568.41   -120889.24   -120552.12    452170.31 
Loop time of 44.7066 on 1 procs for 495 steps with 19652 atoms

Performance: 0.957 ns/day, 25.088 hours/ns, 11.072 timesteps/s
100.0% CPU use with 1 MPI tasks x no OpenMP threads

MPI task timing breakdown:
Section |  min time  |  avg time  |  max time  |%varavg| %total
---------------------------------------------------------------
Pair    | 23.191     | 23.191     | 23.191     |   0.0 | 51.87
Neigh   | 20.546     | 20.546     | 20.546     |   0.0 | 45.96
Comm    | 0.34725    | 0.34725    | 0.34725    |   0.0 |  0.78
Output  | 0.00012708 | 0.00012708 | 0.00012708 |   0.0 |  0.00
Modify  | 0.48395    | 0.48395    | 0.48395    |   0.0 |  1.08
Other   |            | 0.1376     |            |       |  0.31

Nlocal:    19652 ave 19652 max 19652 min
Histogram: 1 0 0 0 0 0 0 0 0 0
Nghost:    16120 ave 16120 max 16120 min
Histogram: 1 0 0 0 0 0 0 0 0 0
Neighs:    1.11312e+06 ave 1.11312e+06 max 1.11312e+06 min
Histogram: 1 0 0 0 0 0 0 0 0 0

Total # of neighbors = 1113119
Ave neighs/atom = 56.6415
Neighbor list builds = 495
Dangerous builds not checked
Setting up Verlet run ...
  Unit style    : metal
  Current step  : 86495
  Time step     : 0.001
Per MPI rank memory allocation (min/avg/max) = 18.19 | 18.19 | 18.19 Mbytes
Step Temp Press TotEng PotEng Enthalpy Volume 
   86495    126.30576     57.73464   -120568.41   -120889.24   -120552.12    452170.31 
   87000    102.93033    -31.77548   -120697.99   -120959.44   -120706.95    451998.52 
Loop time of 45.9291 on 1 procs for 505 steps with 19652 atoms

Performance: 0.950 ns/day, 25.264 hours/ns, 10.995 timesteps/s
99.5% CPU use with 1 MPI tasks x no OpenMP threads

MPI task timing breakdown:
Section |  min time  |  avg time  |  max time  |%varavg| %total
---------------------------------------------------------------
Pair    | 23.664     | 23.664     | 23.664     |   0.0 | 51.52
Neigh   | 21.008     | 21.008     | 21.008     |   0.0 | 45.74
Comm    | 0.35058    | 0.35058    | 0.35058    |   0.0 |  0.76
Output  | 0.27161    | 0.27161    | 0.27161    |   0.0 |  0.59
Modify  | 0.49521    | 0.49521    | 0.49521    |   0.0 |  1.08
Other   |            | 0.1398     |            |       |  0.30

Nlocal:    19652 ave 19652 max 19652 min
Histogram: 1 0 0 0 0 0 0 0 0 0
Nghost:    16180 ave 16180 max 16180 min
Histogram: 1 0 0 0 0 0 0 0 0 0
Neighs:    1.11347e+06 ave 1.11347e+06 max 1.11347e+06 min
Histogram: 1 0 0 0 0 0 0 0 0 0

Total # of neighbors = 1113468
Ave neighs/atom = 56.6593
Neighbor list builds = 505
Dangerous builds not checked
Total wall time: 2:31:08
