LAMMPS (12 Dec 2018)
Lattice spacing in x,y,z = 4 4 4
Created orthogonal box = (0 0 0) to (68 68 68)
  1 by 1 by 1 MPI processor grid
Created 19652 atoms
  Time spent = 0.00409698 secs
Setting atom values ...
  19480 settings made for type/fraction
Neighbor list info ...
  update every 1 steps, delay 0 steps, check no
  max neighbors/atom: 2000, page size: 100000
  master list distance cutoff = 8.5
  ghost atom cutoff = 8.5
  binsize = 4.25, bins = 16 16 16
  1 neighbor lists, perpetual/occasional/extra = 1 0 0
  (1) pair eam/alloy, perpetual
      attributes: half, newton on
      pair build: half/bin/atomonly/newton
      stencil: half/bin/3d/newton
      bin: standard
Setting up Verlet run ...
  Unit style    : metal
  Current step  : 0
  Time step     : 0.001
Per MPI rank memory allocation (min/avg/max) = 18.19 | 18.19 | 18.19 Mbytes
Step Temp Press TotEng PotEng Enthalpy Volume 
       0          300   -64736.735   -76552.874   -77314.901   -89257.654       314432 
     667    2073.1745    115470.27   -76554.014   -81820.067   -53892.624       314432 
    1000    2067.6061     114665.2   -76554.041   -81805.948   -54050.647       314432 
Loop time of 168.904 on 1 procs for 1000 steps with 19652 atoms

Performance: 0.512 ns/day, 46.918 hours/ns, 5.921 timesteps/s
100.0% CPU use with 1 MPI tasks x no OpenMP threads

MPI task timing breakdown:
Section |  min time  |  avg time  |  max time  |%varavg| %total
---------------------------------------------------------------
Pair    | 95.108     | 95.108     | 95.108     |   0.0 | 56.31
Neigh   | 71.322     | 71.322     | 71.322     |   0.0 | 42.23
Comm    | 1.4549     | 1.4549     | 1.4549     |   0.0 |  0.86
Output  | 0.041954   | 0.041954   | 0.041954   |   0.0 |  0.02
Modify  | 0.55132    | 0.55132    | 0.55132    |   0.0 |  0.33
Other   |            | 0.4258     |            |       |  0.25

Nlocal:    19652 ave 19652 max 19652 min
Histogram: 1 0 0 0 0 0 0 0 0 0
Nghost:    18697 ave 18697 max 18697 min
Histogram: 1 0 0 0 0 0 0 0 0 0
Neighs:    1.56918e+06 ave 1.56918e+06 max 1.56918e+06 min
Histogram: 1 0 0 0 0 0 0 0 0 0

Total # of neighbors = 1569180
Ave neighs/atom = 79.8484
Neighbor list builds = 1000
Dangerous builds not checked
Setting up Verlet run ...
  Unit style    : metal
  Current step  : 1000
  Time step     : 0.001
Per MPI rank memory allocation (min/avg/max) = 18.19 | 18.19 | 18.19 Mbytes
Step Temp Press TotEng PotEng Enthalpy Volume 
    1000    2067.6061     114665.2   -76554.041   -81805.948   -54050.647       314432 
    1334    769.85174    592.44503   -83373.084   -85328.577   -83238.173    364846.71 
    2000    337.13386    33.584235   -86682.332   -87538.682   -86674.708    363703.72 
Loop time of 150.389 on 1 procs for 1000 steps with 19652 atoms

Performance: 0.575 ns/day, 41.775 hours/ns, 6.649 timesteps/s
100.0% CPU use with 1 MPI tasks x no OpenMP threads

MPI task timing breakdown:
Section |  min time  |  avg time  |  max time  |%varavg| %total
---------------------------------------------------------------
Pair    | 80.55      | 80.55      | 80.55      |   0.0 | 53.56
Neigh   | 66.356     | 66.356     | 66.356     |   0.0 | 44.12
Comm    | 1.2844     | 1.2844     | 1.2844     |   0.0 |  0.85
Output  | 0.039974   | 0.039974   | 0.039974   |   0.0 |  0.03
Modify  | 1.7274     | 1.7274     | 1.7274     |   0.0 |  1.15
Other   |            | 0.4315     |            |       |  0.29

Nlocal:    19652 ave 19652 max 19652 min
Histogram: 1 0 0 0 0 0 0 0 0 0
Nghost:    17616 ave 17616 max 17616 min
Histogram: 1 0 0 0 0 0 0 0 0 0
Neighs:    1.35786e+06 ave 1.35786e+06 max 1.35786e+06 min
Histogram: 1 0 0 0 0 0 0 0 0 0

Total # of neighbors = 1357860
Ave neighs/atom = 69.0953
Neighbor list builds = 1000
Dangerous builds not checked
Setting up Verlet run ...
  Unit style    : metal
  Current step  : 2000
  Time step     : 0.001
Per MPI rank memory allocation (min/avg/max) = 18.19 | 18.19 | 18.19 Mbytes
Step Temp Press TotEng PotEng Enthalpy Volume 
    2000    337.13386    33.584235   -86682.332   -87538.682   -86674.708    363703.72 
    2001    337.49149    33.980713   -86682.343   -87539.602   -86674.629    363703.73 
    2668    416.31241   -627.77943   -86491.793   -87549.264   -86635.129    365813.58 
    3335    577.49418   -104.96177   -85630.818   -87097.706   -85654.923    367951.94 
    4002    763.33807    595.05024   -84381.327   -86320.275    -84243.96    369860.68 
    4669    961.44661     447.8775   -82906.484   -85348.646   -82802.656    371418.35 
    5336    1182.8361    522.76976   -81492.957   -84497.469   -81371.256    372989.18 
    6003    1379.6863     492.2668   -80419.022   -83923.551   -80303.804    374999.75 
    6670    1553.7256   -280.87805   -79503.452   -83450.057   -79569.667     377702.4 
    7337    1724.1757   -1438.5519   -78628.103   -83007.666   -78970.497    381339.24 
    8004    1914.2509    386.68431    -77742.28   -82604.652   -77649.837    383027.66 
    8671     2091.342   -503.17804    -76944.68    -82256.88   -77065.954    386150.22 
    9338    2280.8538    1983.9349   -76162.421   -81955.998   -75682.572    387514.84 
   10000    2441.6288   -1202.2573   -75355.952   -81557.912   -75650.748    392856.02 
Loop time of 1082.46 on 1 procs for 8000 steps with 19652 atoms

Performance: 0.639 ns/day, 37.585 hours/ns, 7.391 timesteps/s
100.0% CPU use with 1 MPI tasks x no OpenMP threads

MPI task timing breakdown:
Section |  min time  |  avg time  |  max time  |%varavg| %total
---------------------------------------------------------------
Pair    | 575.01     | 575.01     | 575.01     |   0.0 | 53.12
Neigh   | 483.43     | 483.43     | 483.43     |   0.0 | 44.66
Comm    | 8.2269     | 8.2269     | 8.2269     |   0.0 |  0.76
Output  | 0.58414    | 0.58414    | 0.58414    |   0.0 |  0.05
Modify  | 12.312     | 12.312     | 12.312     |   0.0 |  1.14
Other   |            | 2.899      |            |       |  0.27

Nlocal:    19652 ave 19652 max 19652 min
Histogram: 1 0 0 0 0 0 0 0 0 0
Nghost:    17074 ave 17074 max 17074 min
Histogram: 1 0 0 0 0 0 0 0 0 0
Neighs:    1.25624e+06 ave 1.25624e+06 max 1.25624e+06 min
Histogram: 1 0 0 0 0 0 0 0 0 0

Total # of neighbors = 1256236
Ave neighs/atom = 63.9241
Neighbor list builds = 8000
Dangerous builds not checked
Setting up Verlet run ...
  Unit style    : metal
  Current step  : 10000
  Time step     : 0.001
Per MPI rank memory allocation (min/avg/max) = 18.2 | 18.2 | 18.2 Mbytes
Step Temp Press TotEng PotEng Enthalpy Volume 
   10000    2441.6288   -1202.2573   -75355.952   -81557.912   -75650.748    392856.02 
   10005    2438.2774    -1167.796   -75355.842   -81549.289   -75642.187    392854.98 
   10672    2464.8639   -780.67765   -75313.452   -81574.431   -75504.434    391948.74 
   11339    2446.3294   -612.79336   -75294.085   -81507.985   -75444.184     392441.1 
   12006    2465.6997   -14.356108   -75343.529   -81606.631   -75347.033    391102.82 
   12673    2446.2603    755.96928   -75415.131   -81628.855   -75230.835    390591.28 
   13340    2465.3161    1866.2595   -75331.624   -81593.751   -74876.846    390425.12 
   14007    2450.7608    51.917001   -75310.741   -81535.897   -75298.061    391299.24 
   14674    2451.4515   -1198.1516   -75317.435   -81544.345   -75610.956    392498.94 
   15341    2454.1925     297.1504   -75294.956   -81528.828    -75222.21    392228.03 
   16008    2434.1573   -510.70026   -75334.933   -81517.915   -75459.758    391600.07 
   16675    2450.8463   -189.91765   -75375.912   -81601.285   -75422.279    391157.93 
   17342    2450.7594    42.866588   -75390.155   -81615.307   -75379.702    390708.56 
   18009    2461.7103    1086.4139   -75319.135   -81572.103   -75054.046    390936.44 
   18676     2449.995    828.48577   -75385.301   -81608.512   -75183.343    390558.51 
   19343    2439.4748    1422.5149   -75376.995   -81573.483   -75030.113    390692.29 
   20010    2471.5274   -979.17666   -75265.942   -81543.847   -75506.084    392932.74 
   20677     2472.752   -1302.7212   -75269.237   -81550.252    -75588.62    392799.84 
   21344    2458.2053     132.0972   -75345.817   -81589.882   -75313.536    391525.19 
   22011    2443.9539   -455.88222   -75382.081   -81589.946   -75493.318    390936.26 
   22678     2471.061    547.67178   -75362.358   -81639.078   -75228.862    390532.56 
   23345    2441.5977    11.100506    -75326.57   -81528.451   -75323.855    391859.97 
   24012    2442.9423   -1270.6759   -75370.082   -81575.378   -75681.239     392333.5 
   24679    2455.1292     521.2784   -75323.454   -81559.706   -75196.061    391550.37 
   25346    2456.4696   -214.59542   -75291.016   -81530.673    -75343.49    391768.87 
   26013    2450.5313    306.32735   -75356.591   -81581.163   -75281.797    391190.84 
   26680    2464.4418   -852.49372   -75322.592   -81582.499   -75531.028     391734.2 
   27347    2463.9891   -1030.8805   -75326.574    -81585.33   -75578.921    392193.94 
   28014    2456.6486   -785.82297   -75321.834   -81561.945   -75514.092    391987.51 
   28681    2451.2017    1286.6001   -75349.747   -81576.023    -75035.94     390777.4 
   29348    2433.1258    1162.1933   -75405.696   -81586.057   -75122.652    390199.07 
   30015    2452.7174    905.32494   -75365.292   -81595.418   -75144.523    390700.26 
   30682    2459.2533    611.01074   -75283.517   -81530.244   -75134.207       391515 
   31349     2446.613   -1468.0569   -75317.322   -81531.942   -75677.234    392793.65 
   32016    2444.8795   -1617.6652   -75332.977   -81543.193   -75729.388    392615.63 
   32683    2474.1704    110.65949   -75311.684   -81596.302   -75284.663    391219.44 
   33350    2418.3689    1147.4769   -75427.168   -81570.046    -75147.42    390601.78 
   34017    2442.9476    720.12885   -75337.422   -81542.732   -75161.889    390534.67 
   34684    2447.0793    6.4736494   -75344.884   -81560.688   -75343.303     391404.3 
   35351    2447.9907   -458.61843   -75358.883   -81577.002   -75471.098    392020.32 
   36018    2454.5869    -801.7757   -75287.223   -81522.098   -75483.704    392624.02 
   36685     2453.453   -237.39865    -75325.05   -81557.044   -75383.039    391360.97 
   37352    2431.0658    1316.7962   -75420.244   -81595.373   -75099.534     390215.3 
   38019    2448.8686    1370.8528   -75441.813   -81662.162   -75108.397    389677.95 
   38686    2446.2055    1197.0405   -75294.146   -81507.731    -75001.92    391129.27 
   39353    2461.5079   -961.26449   -75338.232   -81590.687   -75573.377    391924.28 
   40000      2426.95   -986.10403   -75405.792   -81570.466   -75647.364       392494 
Loop time of 4342.83 on 1 procs for 30000 steps with 19652 atoms

Performance: 0.597 ns/day, 40.211 hours/ns, 6.908 timesteps/s
100.0% CPU use with 1 MPI tasks x no OpenMP threads

MPI task timing breakdown:
Section |  min time  |  avg time  |  max time  |%varavg| %total
---------------------------------------------------------------
Pair    | 2341.7     | 2341.7     | 2341.7     |   0.0 | 53.92
Neigh   | 1900.3     | 1900.3     | 1900.3     |   0.0 | 43.76
Comm    | 35.905     | 35.905     | 35.905     |   0.0 |  0.83
Output  | 2.2119     | 2.2119     | 2.2119     |   0.0 |  0.05
Modify  | 50.389     | 50.389     | 50.389     |   0.0 |  1.16
Other   |            | 12.29      |            |       |  0.28

Nlocal:    19652 ave 19652 max 19652 min
Histogram: 1 0 0 0 0 0 0 0 0 0
Nghost:    17118 ave 17118 max 17118 min
Histogram: 1 0 0 0 0 0 0 0 0 0
Neighs:    1.25751e+06 ave 1.25751e+06 max 1.25751e+06 min
Histogram: 1 0 0 0 0 0 0 0 0 0

Total # of neighbors = 1257510
Ave neighs/atom = 63.9889
Neighbor list builds = 30000
Dangerous builds not checked
Setting up Verlet run ...
  Unit style    : metal
  Current step  : 40000
  Time step     : 0.001
Per MPI rank memory allocation (min/avg/max) = 18.2 | 18.2 | 18.2 Mbytes
Step Temp Press TotEng PotEng Enthalpy Volume 
   40000      2426.95   -986.10403   -75405.792   -81570.466   -75647.364       392494 
   40020    2431.7734   -1191.5571   -75403.156   -81580.082   -75695.049    392481.75 
   40495    2409.5316    306.98618   -75546.704   -81667.134   -75471.919    390305.77 
Loop time of 68.5512 on 1 procs for 495 steps with 19652 atoms

Performance: 0.624 ns/day, 38.469 hours/ns, 7.221 timesteps/s
100.1% CPU use with 1 MPI tasks x no OpenMP threads

MPI task timing breakdown:
Section |  min time  |  avg time  |  max time  |%varavg| %total
---------------------------------------------------------------
Pair    | 36.667     | 36.667     | 36.667     |   0.0 | 53.49
Neigh   | 30.277     | 30.277     | 30.277     |   0.0 | 44.17
Comm    | 0.53873    | 0.53873    | 0.53873    |   0.0 |  0.79
Output  | 0.064558   | 0.064558   | 0.064558   |   0.0 |  0.09
Modify  | 0.81292    | 0.81292    | 0.81292    |   0.0 |  1.19
Other   |            | 0.1911     |            |       |  0.28

Nlocal:    19652 ave 19652 max 19652 min
Histogram: 1 0 0 0 0 0 0 0 0 0
Nghost:    17082 ave 17082 max 17082 min
Histogram: 1 0 0 0 0 0 0 0 0 0
Neighs:    1.26457e+06 ave 1.26457e+06 max 1.26457e+06 min
Histogram: 1 0 0 0 0 0 0 0 0 0

Total # of neighbors = 1264571
Ave neighs/atom = 64.3482
Neighbor list builds = 495
Dangerous builds not checked
Setting up Verlet run ...
  Unit style    : metal
  Current step  : 40495
  Time step     : 0.001
Per MPI rank memory allocation (min/avg/max) = 18.2 | 18.2 | 18.2 Mbytes
Step Temp Press TotEng PotEng Enthalpy Volume 
   40495    2409.5316    306.98618   -75546.704   -81667.134   -75471.919    390305.77 
   40667    2403.6438   -172.19636   -75581.534   -81687.008    -75623.53    390743.06 
Loop time of 20.4574 on 1 procs for 172 steps with 19652 atoms

Performance: 0.726 ns/day, 33.038 hours/ns, 8.408 timesteps/s
100.1% CPU use with 1 MPI tasks x no OpenMP threads

MPI task timing breakdown:
Section |  min time  |  avg time  |  max time  |%varavg| %total
---------------------------------------------------------------
Pair    | 11.068     | 11.068     | 11.068     |   0.0 | 54.10
Neigh   | 8.926      | 8.926      | 8.926      |   0.0 | 43.63
Comm    | 0.15846    | 0.15846    | 0.15846    |   0.0 |  0.77
Output  | 0.00013494 | 0.00013494 | 0.00013494 |   0.0 |  0.00
Modify  | 0.24697    | 0.24697    | 0.24697    |   0.0 |  1.21
Other   |            | 0.05803    |            |       |  0.28

Nlocal:    19652 ave 19652 max 19652 min
Histogram: 1 0 0 0 0 0 0 0 0 0
Nghost:    17102 ave 17102 max 17102 min
Histogram: 1 0 0 0 0 0 0 0 0 0
Neighs:    1.26318e+06 ave 1.26318e+06 max 1.26318e+06 min
Histogram: 1 0 0 0 0 0 0 0 0 0

Total # of neighbors = 1263180
Ave neighs/atom = 64.2774
Neighbor list builds = 172
Dangerous builds not checked
Setting up Verlet run ...
  Unit style    : metal
  Current step  : 40667
  Time step     : 0.001
Per MPI rank memory allocation (min/avg/max) = 18.2 | 18.2 | 18.2 Mbytes
Step Temp Press TotEng PotEng Enthalpy Volume 
   40667    2403.6438   -172.19636   -75581.534   -81687.008    -75623.53    390743.06 
   40687    2393.9305    214.14011   -75581.477   -81662.278   -75529.252    390742.37 
   41162    2344.9872    -290.9934   -75766.621   -81723.102   -75837.421    389817.94 
Loop time of 61.2309 on 1 procs for 495 steps with 19652 atoms

Performance: 0.698 ns/day, 34.361 hours/ns, 8.084 timesteps/s
100.0% CPU use with 1 MPI tasks x no OpenMP threads

MPI task timing breakdown:
Section |  min time  |  avg time  |  max time  |%varavg| %total
---------------------------------------------------------------
Pair    | 32.996     | 32.996     | 32.996     |   0.0 | 53.89
Neigh   | 26.785     | 26.785     | 26.785     |   0.0 | 43.74
Comm    | 0.4776     | 0.4776     | 0.4776     |   0.0 |  0.78
Output  | 0.064398   | 0.064398   | 0.064398   |   0.0 |  0.11
Modify  | 0.73428    | 0.73428    | 0.73428    |   0.0 |  1.20
Other   |            | 0.1737     |            |       |  0.28

Nlocal:    19652 ave 19652 max 19652 min
Histogram: 1 0 0 0 0 0 0 0 0 0
Nghost:    17210 ave 17210 max 17210 min
Histogram: 1 0 0 0 0 0 0 0 0 0
Neighs:    1.26663e+06 ave 1.26663e+06 max 1.26663e+06 min
Histogram: 1 0 0 0 0 0 0 0 0 0

Total # of neighbors = 1266631
Ave neighs/atom = 64.453
Neighbor list builds = 495
Dangerous builds not checked
Setting up Verlet run ...
  Unit style    : metal
  Current step  : 41162
  Time step     : 0.001
Per MPI rank memory allocation (min/avg/max) = 18.2 | 18.2 | 18.2 Mbytes
Step Temp Press TotEng PotEng Enthalpy Volume 
   41162    2344.9872    -290.9934   -75766.621   -81723.102   -75837.421    389817.94 
   41334    2338.2976   -1018.2012   -75833.797   -81773.285   -76081.581       389898 
Loop time of 24.9356 on 1 procs for 172 steps with 19652 atoms

Performance: 0.596 ns/day, 40.271 hours/ns, 6.898 timesteps/s
100.1% CPU use with 1 MPI tasks x no OpenMP threads

MPI task timing breakdown:
Section |  min time  |  avg time  |  max time  |%varavg| %total
---------------------------------------------------------------
Pair    | 13.34      | 13.34      | 13.34      |   0.0 | 53.50
Neigh   | 11.026     | 11.026     | 11.026     |   0.0 | 44.22
Comm    | 0.19503    | 0.19503    | 0.19503    |   0.0 |  0.78
Output  | 0.00019193 | 0.00019193 | 0.00019193 |   0.0 |  0.00
Modify  | 0.30175    | 0.30175    | 0.30175    |   0.0 |  1.21
Other   |            | 0.0721     |            |       |  0.29

Nlocal:    19652 ave 19652 max 19652 min
Histogram: 1 0 0 0 0 0 0 0 0 0
Nghost:    17158 ave 17158 max 17158 min
Histogram: 1 0 0 0 0 0 0 0 0 0
Neighs:    1.26635e+06 ave 1.26635e+06 max 1.26635e+06 min
Histogram: 1 0 0 0 0 0 0 0 0 0

Total # of neighbors = 1266352
Ave neighs/atom = 64.4388
Neighbor list builds = 172
Dangerous builds not checked
Setting up Verlet run ...
  Unit style    : metal
  Current step  : 41334
  Time step     : 0.001
Per MPI rank memory allocation (min/avg/max) = 18.2 | 18.2 | 18.2 Mbytes
Step Temp Press TotEng PotEng Enthalpy Volume 
   41334    2338.2976   -1018.2012   -75833.797   -81773.285   -76081.581       389898 
   41354    2330.6051   -673.13625   -75832.203   -81752.153   -75996.009    389884.95 
   41829    2299.0595    487.94025   -75980.125   -81819.945   -75861.669    388956.21 
Loop time of 69.8183 on 1 procs for 495 steps with 19652 atoms

Performance: 0.613 ns/day, 39.180 hours/ns, 7.090 timesteps/s
100.1% CPU use with 1 MPI tasks x no OpenMP threads

MPI task timing breakdown:
Section |  min time  |  avg time  |  max time  |%varavg| %total
---------------------------------------------------------------
Pair    | 37.435     | 37.435     | 37.435     |   0.0 | 53.62
Neigh   | 30.743     | 30.743     | 30.743     |   0.0 | 44.03
Comm    | 0.55183    | 0.55183    | 0.55183    |   0.0 |  0.79
Output  | 0.065058   | 0.065058   | 0.065058   |   0.0 |  0.09
Modify  | 0.82939    | 0.82939    | 0.82939    |   0.0 |  1.19
Other   |            | 0.1942     |            |       |  0.28

Nlocal:    19652 ave 19652 max 19652 min
Histogram: 1 0 0 0 0 0 0 0 0 0
Nghost:    17124 ave 17124 max 17124 min
Histogram: 1 0 0 0 0 0 0 0 0 0
Neighs:    1.26948e+06 ave 1.26948e+06 max 1.26948e+06 min
Histogram: 1 0 0 0 0 0 0 0 0 0

Total # of neighbors = 1269478
Ave neighs/atom = 64.5979
Neighbor list builds = 495
Dangerous builds not checked
Setting up Verlet run ...
  Unit style    : metal
  Current step  : 41829
  Time step     : 0.001
Per MPI rank memory allocation (min/avg/max) = 18.2 | 18.2 | 18.2 Mbytes
Step Temp Press TotEng PotEng Enthalpy Volume 
   41829    2299.0595    487.94025   -75980.125   -81819.945   -75861.669    388956.21 
   42001     2287.865   -273.34944   -76043.955   -81855.341   -76110.328    389031.52 
Loop time of 22.9802 on 1 procs for 172 steps with 19652 atoms

Performance: 0.647 ns/day, 37.113 hours/ns, 7.485 timesteps/s
100.1% CPU use with 1 MPI tasks x no OpenMP threads

MPI task timing breakdown:
Section |  min time  |  avg time  |  max time  |%varavg| %total
---------------------------------------------------------------
Pair    | 12.462     | 12.462     | 12.462     |   0.0 | 54.23
Neigh   | 9.9905     | 9.9905     | 9.9905     |   0.0 | 43.47
Comm    | 0.18235    | 0.18235    | 0.18235    |   0.0 |  0.79
Output  | 0.00012994 | 0.00012994 | 0.00012994 |   0.0 |  0.00
Modify  | 0.2797     | 0.2797     | 0.2797     |   0.0 |  1.22
Other   |            | 0.06569    |            |       |  0.29

Nlocal:    19652 ave 19652 max 19652 min
Histogram: 1 0 0 0 0 0 0 0 0 0
Nghost:    17198 ave 17198 max 17198 min
Histogram: 1 0 0 0 0 0 0 0 0 0
Neighs:    1.26882e+06 ave 1.26882e+06 max 1.26882e+06 min
Histogram: 1 0 0 0 0 0 0 0 0 0

Total # of neighbors = 1268817
Ave neighs/atom = 64.5643
Neighbor list builds = 172
Dangerous builds not checked
Setting up Verlet run ...
  Unit style    : metal
  Current step  : 42001
  Time step     : 0.001
Per MPI rank memory allocation (min/avg/max) = 18.2 | 18.2 | 18.2 Mbytes
Step Temp Press TotEng PotEng Enthalpy Volume 
   42001     2287.865   -273.34944   -76043.955   -81855.341   -76110.328    389031.52 
   42021    2288.2688   -39.628992   -76042.891   -81855.302   -76052.513    389028.04 
   42496    2255.0991   -92.543378   -76204.023    -81932.18   -76226.463    388500.43 
Loop time of 67.2247 on 1 procs for 495 steps with 19652 atoms

Performance: 0.636 ns/day, 37.724 hours/ns, 7.363 timesteps/s
100.0% CPU use with 1 MPI tasks x no OpenMP threads

MPI task timing breakdown:
Section |  min time  |  avg time  |  max time  |%varavg| %total
---------------------------------------------------------------
Pair    | 36.364     | 36.364     | 36.364     |   0.0 | 54.09
Neigh   | 29.28      | 29.28      | 29.28      |   0.0 | 43.56
Comm    | 0.55156    | 0.55156    | 0.55156    |   0.0 |  0.82
Output  | 0.040462   | 0.040462   | 0.040462   |   0.0 |  0.06
Modify  | 0.79453    | 0.79453    | 0.79453    |   0.0 |  1.18
Other   |            | 0.1936     |            |       |  0.29

Nlocal:    19652 ave 19652 max 19652 min
Histogram: 1 0 0 0 0 0 0 0 0 0
Nghost:    17229 ave 17229 max 17229 min
Histogram: 1 0 0 0 0 0 0 0 0 0
Neighs:    1.27036e+06 ave 1.27036e+06 max 1.27036e+06 min
Histogram: 1 0 0 0 0 0 0 0 0 0

Total # of neighbors = 1270357
Ave neighs/atom = 64.6426
Neighbor list builds = 495
Dangerous builds not checked
Setting up Verlet run ...
  Unit style    : metal
  Current step  : 42496
  Time step     : 0.001
Per MPI rank memory allocation (min/avg/max) = 18.2 | 18.2 | 18.2 Mbytes
Step Temp Press TotEng PotEng Enthalpy Volume 
   42496    2255.0991   -92.543378   -76204.023    -81932.18   -76226.463    388500.43 
   42668    2240.0601   -692.66407   -76263.009   -81952.966     -76430.9    388341.14 
Loop time of 24.1717 on 1 procs for 172 steps with 19652 atoms

Performance: 0.615 ns/day, 39.037 hours/ns, 7.116 timesteps/s
100.1% CPU use with 1 MPI tasks x no OpenMP threads

MPI task timing breakdown:
Section |  min time  |  avg time  |  max time  |%varavg| %total
---------------------------------------------------------------
Pair    | 13.259     | 13.259     | 13.259     |   0.0 | 54.85
Neigh   | 10.32      | 10.32      | 10.32      |   0.0 | 42.69
Comm    | 0.21405    | 0.21405    | 0.21405    |   0.0 |  0.89
Output  | 0.00013399 | 0.00013399 | 0.00013399 |   0.0 |  0.00
Modify  | 0.30126    | 0.30126    | 0.30126    |   0.0 |  1.25
Other   |            | 0.0773     |            |       |  0.32

Nlocal:    19652 ave 19652 max 19652 min
Histogram: 1 0 0 0 0 0 0 0 0 0
Nghost:    17208 ave 17208 max 17208 min
Histogram: 1 0 0 0 0 0 0 0 0 0
Neighs:    1.27082e+06 ave 1.27082e+06 max 1.27082e+06 min
Histogram: 1 0 0 0 0 0 0 0 0 0

Total # of neighbors = 1270818
Ave neighs/atom = 64.6661
Neighbor list builds = 172
Dangerous builds not checked
Setting up Verlet run ...
  Unit style    : metal
  Current step  : 42668
  Time step     : 0.001
Per MPI rank memory allocation (min/avg/max) = 18.2 | 18.2 | 18.2 Mbytes
Step Temp Press TotEng PotEng Enthalpy Volume 
   42668    2240.0601   -692.66407   -76263.009   -81952.966     -76430.9    388341.14 
   42688    2245.5741    -1072.119   -76262.541   -81966.504   -76522.396    388327.09 
   43163    2216.2589   -322.01451   -76426.365   -82055.865   -76504.225    387392.32 
Loop time of 71.3473 on 1 procs for 495 steps with 19652 atoms

Performance: 0.599 ns/day, 40.038 hours/ns, 6.938 timesteps/s
100.1% CPU use with 1 MPI tasks x no OpenMP threads

MPI task timing breakdown:
Section |  min time  |  avg time  |  max time  |%varavg| %total
---------------------------------------------------------------
Pair    | 38.991     | 38.991     | 38.991     |   0.0 | 54.65
Neigh   | 30.563     | 30.563     | 30.563     |   0.0 | 42.84
Comm    | 0.63349    | 0.63349    | 0.63349    |   0.0 |  0.89
Output  | 0.055849   | 0.055849   | 0.055849   |   0.0 |  0.08
Modify  | 0.87834    | 0.87834    | 0.87834    |   0.0 |  1.23
Other   |            | 0.2253     |            |       |  0.32

Nlocal:    19652 ave 19652 max 19652 min
Histogram: 1 0 0 0 0 0 0 0 0 0
Nghost:    17184 ave 17184 max 17184 min
Histogram: 1 0 0 0 0 0 0 0 0 0
Neighs:    1.27422e+06 ave 1.27422e+06 max 1.27422e+06 min
Histogram: 1 0 0 0 0 0 0 0 0 0

Total # of neighbors = 1274223
Ave neighs/atom = 64.8394
Neighbor list builds = 495
Dangerous builds not checked
Setting up Verlet run ...
  Unit style    : metal
  Current step  : 43163
  Time step     : 0.001
Per MPI rank memory allocation (min/avg/max) = 18.2 | 18.2 | 18.2 Mbytes
Step Temp Press TotEng PotEng Enthalpy Volume 
   43163    2216.2589   -322.01451   -76426.365   -82055.865   -76504.225    387392.32 
   43335    2200.6568    495.57455     -76475.8   -82065.668   -76356.005    387292.92 
Loop time of 24.1809 on 1 procs for 172 steps with 19652 atoms

Performance: 0.615 ns/day, 39.052 hours/ns, 7.113 timesteps/s
100.0% CPU use with 1 MPI tasks x no OpenMP threads

MPI task timing breakdown:
Section |  min time  |  avg time  |  max time  |%varavg| %total
---------------------------------------------------------------
Pair    | 13.228     | 13.228     | 13.228     |   0.0 | 54.71
Neigh   | 10.366     | 10.366     | 10.366     |   0.0 | 42.87
Comm    | 0.21168    | 0.21168    | 0.21168    |   0.0 |  0.88
Output  | 0.00018501 | 0.00018501 | 0.00018501 |   0.0 |  0.00
Modify  | 0.29816    | 0.29816    | 0.29816    |   0.0 |  1.23
Other   |            | 0.07691    |            |       |  0.32

Nlocal:    19652 ave 19652 max 19652 min
Histogram: 1 0 0 0 0 0 0 0 0 0
Nghost:    17160 ave 17160 max 17160 min
Histogram: 1 0 0 0 0 0 0 0 0 0
Neighs:    1.27498e+06 ave 1.27498e+06 max 1.27498e+06 min
Histogram: 1 0 0 0 0 0 0 0 0 0

Total # of neighbors = 1274978
Ave neighs/atom = 64.8778
Neighbor list builds = 172
Dangerous builds not checked
Setting up Verlet run ...
  Unit style    : metal
  Current step  : 43335
  Time step     : 0.001
Per MPI rank memory allocation (min/avg/max) = 18.2 | 18.2 | 18.2 Mbytes
Step Temp Press TotEng PotEng Enthalpy Volume 
   43335    2200.6568    495.57455     -76475.8   -82065.668   -76356.005    387292.92 
   43355    2187.9367    555.71719    -76475.75   -82033.308   -76341.415    387298.28 
   43830    2155.7719    388.88332   -76624.028   -82099.885   -76530.233    386432.23 
Loop time of 73.7668 on 1 procs for 495 steps with 19652 atoms

Performance: 0.580 ns/day, 41.396 hours/ns, 6.710 timesteps/s
100.0% CPU use with 1 MPI tasks x no OpenMP threads

MPI task timing breakdown:
Section |  min time  |  avg time  |  max time  |%varavg| %total
---------------------------------------------------------------
Pair    | 40.545     | 40.545     | 40.545     |   0.0 | 54.96
Neigh   | 31.376     | 31.376     | 31.376     |   0.0 | 42.53
Comm    | 0.65247    | 0.65247    | 0.65247    |   0.0 |  0.88
Output  | 0.068289   | 0.068289   | 0.068289   |   0.0 |  0.09
Modify  | 0.89482    | 0.89482    | 0.89482    |   0.0 |  1.21
Other   |            | 0.2295     |            |       |  0.31

Nlocal:    19652 ave 19652 max 19652 min
Histogram: 1 0 0 0 0 0 0 0 0 0
Nghost:    17204 ave 17204 max 17204 min
Histogram: 1 0 0 0 0 0 0 0 0 0
Neighs:    1.27716e+06 ave 1.27716e+06 max 1.27716e+06 min
Histogram: 1 0 0 0 0 0 0 0 0 0

Total # of neighbors = 1277158
Ave neighs/atom = 64.9887
Neighbor list builds = 495
Dangerous builds not checked
Setting up Verlet run ...
  Unit style    : metal
  Current step  : 43830
  Time step     : 0.001
Per MPI rank memory allocation (min/avg/max) = 18.2 | 18.2 | 18.2 Mbytes
Step Temp Press TotEng PotEng Enthalpy Volume 
   43830    2155.7719    388.88332   -76624.028   -82099.885   -76530.233    386432.23 
   44002    2132.7576    75.702037   -76703.134   -82120.533   -76684.849    386978.86 
Loop time of 26.9965 on 1 procs for 172 steps with 19652 atoms

Performance: 0.550 ns/day, 43.599 hours/ns, 6.371 timesteps/s
100.1% CPU use with 1 MPI tasks x no OpenMP threads

MPI task timing breakdown:
Section |  min time  |  avg time  |  max time  |%varavg| %total
---------------------------------------------------------------
Pair    | 14.746     | 14.746     | 14.746     |   0.0 | 54.62
Neigh   | 11.59      | 11.59      | 11.59      |   0.0 | 42.93
Comm    | 0.23904    | 0.23904    | 0.23904    |   0.0 |  0.89
Output  | 0.00021482 | 0.00021482 | 0.00021482 |   0.0 |  0.00
Modify  | 0.33542    | 0.33542    | 0.33542    |   0.0 |  1.24
Other   |            | 0.08618    |            |       |  0.32

Nlocal:    19652 ave 19652 max 19652 min
Histogram: 1 0 0 0 0 0 0 0 0 0
Nghost:    17180 ave 17180 max 17180 min
Histogram: 1 0 0 0 0 0 0 0 0 0
Neighs:    1.27592e+06 ave 1.27592e+06 max 1.27592e+06 min
Histogram: 1 0 0 0 0 0 0 0 0 0

Total # of neighbors = 1275915
Ave neighs/atom = 64.9255
Neighbor list builds = 172
Dangerous builds not checked
Setting up Verlet run ...
  Unit style    : metal
  Current step  : 44002
  Time step     : 0.001
Per MPI rank memory allocation (min/avg/max) = 18.2 | 18.2 | 18.2 Mbytes
Step Temp Press TotEng PotEng Enthalpy Volume 
   44002    2132.7576    75.702037   -76703.134   -82120.533   -76684.849    386978.86 
   44022    2148.7455    93.388151   -76702.013   -82160.022   -76679.456     386979.5 
   44497    2107.9107    1374.2135   -76828.769   -82183.054   -76498.471    385089.18 
Loop time of 76.1055 on 1 procs for 495 steps with 19652 atoms

Performance: 0.562 ns/day, 42.708 hours/ns, 6.504 timesteps/s
100.0% CPU use with 1 MPI tasks x no OpenMP threads

MPI task timing breakdown:
Section |  min time  |  avg time  |  max time  |%varavg| %total
---------------------------------------------------------------
Pair    | 41.536     | 41.536     | 41.536     |   0.0 | 54.58
Neigh   | 32.676     | 32.676     | 32.676     |   0.0 | 42.93
Comm    | 0.67153    | 0.67153    | 0.67153    |   0.0 |  0.88
Output  | 0.06771    | 0.06771    | 0.06771    |   0.0 |  0.09
Modify  | 0.91913    | 0.91913    | 0.91913    |   0.0 |  1.21
Other   |            | 0.2349     |            |       |  0.31

Nlocal:    19652 ave 19652 max 19652 min
Histogram: 1 0 0 0 0 0 0 0 0 0
Nghost:    17277 ave 17277 max 17277 min
Histogram: 1 0 0 0 0 0 0 0 0 0
Neighs:    1.28177e+06 ave 1.28177e+06 max 1.28177e+06 min
Histogram: 1 0 0 0 0 0 0 0 0 0

Total # of neighbors = 1281773
Ave neighs/atom = 65.2235
Neighbor list builds = 495
Dangerous builds not checked
Setting up Verlet run ...
  Unit style    : metal
  Current step  : 44497
  Time step     : 0.001
Per MPI rank memory allocation (min/avg/max) = 18.2 | 18.2 | 18.2 Mbytes
Step Temp Press TotEng PotEng Enthalpy Volume 
   44497    2107.9107    1374.2135   -76828.769   -82183.054   -76498.471    385089.18 
   44669    2095.1013    355.00977   -76895.889   -82217.637   -76810.379    385910.22 
Loop time of 25.3822 on 1 procs for 172 steps with 19652 atoms

Performance: 0.585 ns/day, 40.992 hours/ns, 6.776 timesteps/s
100.0% CPU use with 1 MPI tasks x no OpenMP threads

MPI task timing breakdown:
Section |  min time  |  avg time  |  max time  |%varavg| %total
---------------------------------------------------------------
Pair    | 13.888     | 13.888     | 13.888     |   0.0 | 54.71
Neigh   | 10.876     | 10.876     | 10.876     |   0.0 | 42.85
Comm    | 0.22362    | 0.22362    | 0.22362    |   0.0 |  0.88
Output  | 0.00018191 | 0.00018191 | 0.00018191 |   0.0 |  0.00
Modify  | 0.31323    | 0.31323    | 0.31323    |   0.0 |  1.23
Other   |            | 0.08162    |            |       |  0.32

Nlocal:    19652 ave 19652 max 19652 min
Histogram: 1 0 0 0 0 0 0 0 0 0
Nghost:    17245 ave 17245 max 17245 min
Histogram: 1 0 0 0 0 0 0 0 0 0
Neighs:    1.27944e+06 ave 1.27944e+06 max 1.27944e+06 min
Histogram: 1 0 0 0 0 0 0 0 0 0

Total # of neighbors = 1279439
Ave neighs/atom = 65.1048
Neighbor list builds = 172
Dangerous builds not checked
Setting up Verlet run ...
  Unit style    : metal
  Current step  : 44669
  Time step     : 0.001
Per MPI rank memory allocation (min/avg/max) = 18.2 | 18.2 | 18.2 Mbytes
Step Temp Press TotEng PotEng Enthalpy Volume 
   44669    2095.1013    355.00977   -76895.889   -82217.637   -76810.379    385910.22 
   44689    2092.1098    401.69121   -76895.187   -82209.337   -76798.432    385916.85 
   45164    2060.1356    840.15208   -77049.139   -82282.071   -76847.427    384667.45 
Loop time of 64.6536 on 1 procs for 495 steps with 19652 atoms

Performance: 0.661 ns/day, 36.282 hours/ns, 7.656 timesteps/s
100.0% CPU use with 1 MPI tasks x no OpenMP threads

MPI task timing breakdown:
Section |  min time  |  avg time  |  max time  |%varavg| %total
---------------------------------------------------------------
Pair    | 34.938     | 34.938     | 34.938     |   0.0 | 54.04
Neigh   | 28.211     | 28.211     | 28.211     |   0.0 | 43.63
Comm    | 0.50598    | 0.50598    | 0.50598    |   0.0 |  0.78
Output  | 0.039789   | 0.039789   | 0.039789   |   0.0 |  0.06
Modify  | 0.77575    | 0.77575    | 0.77575    |   0.0 |  1.20
Other   |            | 0.1837     |            |       |  0.28

Nlocal:    19652 ave 19652 max 19652 min
Histogram: 1 0 0 0 0 0 0 0 0 0
Nghost:    17202 ave 17202 max 17202 min
Histogram: 1 0 0 0 0 0 0 0 0 0
Neighs:    1.28334e+06 ave 1.28334e+06 max 1.28334e+06 min
Histogram: 1 0 0 0 0 0 0 0 0 0

Total # of neighbors = 1283335
Ave neighs/atom = 65.303
Neighbor list builds = 495
Dangerous builds not checked
Setting up Verlet run ...
  Unit style    : metal
  Current step  : 45164
  Time step     : 0.001
Per MPI rank memory allocation (min/avg/max) = 18.2 | 18.2 | 18.2 Mbytes
Step Temp Press TotEng PotEng Enthalpy Volume 
   45164    2060.1356    840.15208   -77049.139   -82282.071   -76847.427    384667.45 
   45336    2042.7218    17.258125   -77133.339   -82322.038   -77129.192    384951.13 
Loop time of 23.8215 on 1 procs for 172 steps with 19652 atoms

Performance: 0.624 ns/day, 38.471 hours/ns, 7.220 timesteps/s
100.1% CPU use with 1 MPI tasks x no OpenMP threads

MPI task timing breakdown:
Section |  min time  |  avg time  |  max time  |%varavg| %total
---------------------------------------------------------------
Pair    | 12.897     | 12.897     | 12.897     |   0.0 | 54.14
Neigh   | 10.382     | 10.382     | 10.382     |   0.0 | 43.58
Comm    | 0.18564    | 0.18564    | 0.18564    |   0.0 |  0.78
Output  | 0.00019193 | 0.00019193 | 0.00019193 |   0.0 |  0.00
Modify  | 0.28839    | 0.28839    | 0.28839    |   0.0 |  1.21
Other   |            | 0.06836    |            |       |  0.29

Nlocal:    19652 ave 19652 max 19652 min
Histogram: 1 0 0 0 0 0 0 0 0 0
Nghost:    17271 ave 17271 max 17271 min
Histogram: 1 0 0 0 0 0 0 0 0 0
Neighs:    1.28218e+06 ave 1.28218e+06 max 1.28218e+06 min
Histogram: 1 0 0 0 0 0 0 0 0 0

Total # of neighbors = 1282182
Ave neighs/atom = 65.2444
Neighbor list builds = 172
Dangerous builds not checked
Setting up Verlet run ...
  Unit style    : metal
  Current step  : 45336
  Time step     : 0.001
Per MPI rank memory allocation (min/avg/max) = 18.2 | 18.2 | 18.2 Mbytes
Step Temp Press TotEng PotEng Enthalpy Volume 
   45336    2042.7218    17.258125   -77133.339   -82322.038   -77129.192    384951.13 
   45356    2045.7794    402.74329   -77132.474    -82328.94   -77035.707    384954.07 
   45831    2002.7895    108.04748   -77325.818   -82413.085   -77299.905    384240.78 
Loop time of 65.9963 on 1 procs for 495 steps with 19652 atoms

Performance: 0.648 ns/day, 37.035 hours/ns, 7.500 timesteps/s
100.1% CPU use with 1 MPI tasks x no OpenMP threads

MPI task timing breakdown:
Section |  min time  |  avg time  |  max time  |%varavg| %total
---------------------------------------------------------------
Pair    | 35.563     | 35.563     | 35.563     |   0.0 | 53.89
Neigh   | 28.9       | 28.9       | 28.9       |   0.0 | 43.79
Comm    | 0.52323    | 0.52323    | 0.52323    |   0.0 |  0.79
Output  | 0.040731   | 0.040731   | 0.040731   |   0.0 |  0.06
Modify  | 0.78357    | 0.78357    | 0.78357    |   0.0 |  1.19
Other   |            | 0.1851     |            |       |  0.28

Nlocal:    19652 ave 19652 max 19652 min
Histogram: 1 0 0 0 0 0 0 0 0 0
Nghost:    17337 ave 17337 max 17337 min
Histogram: 1 0 0 0 0 0 0 0 0 0
Neighs:    1.28555e+06 ave 1.28555e+06 max 1.28555e+06 min
Histogram: 1 0 0 0 0 0 0 0 0 0

Total # of neighbors = 1285546
Ave neighs/atom = 65.4155
Neighbor list builds = 495
Dangerous builds not checked
Setting up Verlet run ...
  Unit style    : metal
  Current step  : 45831
  Time step     : 0.001
Per MPI rank memory allocation (min/avg/max) = 18.2 | 18.2 | 18.2 Mbytes
Step Temp Press TotEng PotEng Enthalpy Volume 
   45831    2002.7895    108.04748   -77325.818   -82413.085   -77299.905    384240.78 
   46003    1990.6632   -1033.6087   -77377.808   -82434.274    -77626.04    384778.98 
Loop time of 25.4623 on 1 procs for 172 steps with 19652 atoms

Performance: 0.584 ns/day, 41.121 hours/ns, 6.755 timesteps/s
99.2% CPU use with 1 MPI tasks x no OpenMP threads

MPI task timing breakdown:
Section |  min time  |  avg time  |  max time  |%varavg| %total
---------------------------------------------------------------
Pair    | 13.7       | 13.7       | 13.7       |   0.0 | 53.81
Neigh   | 11.174     | 11.174     | 11.174     |   0.0 | 43.88
Comm    | 0.20257    | 0.20257    | 0.20257    |   0.0 |  0.80
Output  | 0.00012898 | 0.00012898 | 0.00012898 |   0.0 |  0.00
Modify  | 0.31211    | 0.31211    | 0.31211    |   0.0 |  1.23
Other   |            | 0.07303    |            |       |  0.29

Nlocal:    19652 ave 19652 max 19652 min
Histogram: 1 0 0 0 0 0 0 0 0 0
Nghost:    17299 ave 17299 max 17299 min
Histogram: 1 0 0 0 0 0 0 0 0 0
Neighs:    1.28348e+06 ave 1.28348e+06 max 1.28348e+06 min
Histogram: 1 0 0 0 0 0 0 0 0 0

Total # of neighbors = 1283476
Ave neighs/atom = 65.3102
Neighbor list builds = 172
Dangerous builds not checked
Setting up Verlet run ...
  Unit style    : metal
  Current step  : 46003
  Time step     : 0.001
Per MPI rank memory allocation (min/avg/max) = 18.2 | 18.2 | 18.2 Mbytes
Step Temp Press TotEng PotEng Enthalpy Volume 
   46003    1990.6632   -1033.6087   -77377.808   -82434.274    -77626.04    384778.98 
   46023    2004.7792   -1172.2429   -77377.721   -82470.043   -77659.233    384759.34 
   46498    1942.5796   -453.81529   -77552.669   -82486.998   -77661.405    383886.51 
Loop time of 71.006 on 1 procs for 495 steps with 19652 atoms

Performance: 0.602 ns/day, 39.846 hours/ns, 6.971 timesteps/s
100.0% CPU use with 1 MPI tasks x no OpenMP threads

MPI task timing breakdown:
Section |  min time  |  avg time  |  max time  |%varavg| %total
---------------------------------------------------------------
Pair    | 38.388     | 38.388     | 38.388     |   0.0 | 54.06
Neigh   | 30.962     | 30.962     | 30.962     |   0.0 | 43.61
Comm    | 0.56832    | 0.56832    | 0.56832    |   0.0 |  0.80
Output  | 0.043013   | 0.043013   | 0.043013   |   0.0 |  0.06
Modify  | 0.84409    | 0.84409    | 0.84409    |   0.0 |  1.19
Other   |            | 0.1999     |            |       |  0.28

Nlocal:    19652 ave 19652 max 19652 min
Histogram: 1 0 0 0 0 0 0 0 0 0
Nghost:    17251 ave 17251 max 17251 min
Histogram: 1 0 0 0 0 0 0 0 0 0
Neighs:    1.28642e+06 ave 1.28642e+06 max 1.28642e+06 min
Histogram: 1 0 0 0 0 0 0 0 0 0

Total # of neighbors = 1286423
Ave neighs/atom = 65.4602
Neighbor list builds = 495
Dangerous builds not checked
Setting up Verlet run ...
  Unit style    : metal
  Current step  : 46498
  Time step     : 0.001
Per MPI rank memory allocation (min/avg/max) = 18.2 | 18.2 | 18.2 Mbytes
Step Temp Press TotEng PotEng Enthalpy Volume 
   46498    1942.5796   -453.81529   -77552.669   -82486.998   -77661.405    383886.51 
   46670     1942.189   -369.79076   -77542.554   -82475.891   -77631.175     383965.2 
Loop time of 20.7296 on 1 procs for 172 steps with 19652 atoms

Performance: 0.717 ns/day, 33.478 hours/ns, 8.297 timesteps/s
100.1% CPU use with 1 MPI tasks x no OpenMP threads

MPI task timing breakdown:
Section |  min time  |  avg time  |  max time  |%varavg| %total
---------------------------------------------------------------
Pair    | 11.348     | 11.348     | 11.348     |   0.0 | 54.74
Neigh   | 8.9032     | 8.9032     | 8.9032     |   0.0 | 42.95
Comm    | 0.16564    | 0.16564    | 0.16564    |   0.0 |  0.80
Output  | 0.00018501 | 0.00018501 | 0.00018501 |   0.0 |  0.00
Modify  | 0.25247    | 0.25247    | 0.25247    |   0.0 |  1.22
Other   |            | 0.06004    |            |       |  0.29

Nlocal:    19652 ave 19652 max 19652 min
Histogram: 1 0 0 0 0 0 0 0 0 0
Nghost:    17235 ave 17235 max 17235 min
Histogram: 1 0 0 0 0 0 0 0 0 0
Neighs:    1.28556e+06 ave 1.28556e+06 max 1.28556e+06 min
Histogram: 1 0 0 0 0 0 0 0 0 0

Total # of neighbors = 1285559
Ave neighs/atom = 65.4162
Neighbor list builds = 172
Dangerous builds not checked
Setting up Verlet run ...
  Unit style    : metal
  Current step  : 46670
  Time step     : 0.001
Per MPI rank memory allocation (min/avg/max) = 18.2 | 18.2 | 18.2 Mbytes
Step Temp Press TotEng PotEng Enthalpy Volume 
   46670     1942.189   -369.79076   -77542.554   -82475.891   -77631.175     383965.2 
   46690    1948.3542   -891.34849   -77542.098   -82491.096   -77755.707    383955.45 
   47165    1904.2481   -263.09257   -77786.939   -82623.903   -77849.853    383130.83 
Loop time of 61.0604 on 1 procs for 495 steps with 19652 atoms

Performance: 0.700 ns/day, 34.265 hours/ns, 8.107 timesteps/s
100.1% CPU use with 1 MPI tasks x no OpenMP threads

MPI task timing breakdown:
Section |  min time  |  avg time  |  max time  |%varavg| %total
---------------------------------------------------------------
Pair    | 33.304     | 33.304     | 33.304     |   0.0 | 54.54
Neigh   | 26.327     | 26.327     | 26.327     |   0.0 | 43.12
Comm    | 0.48357    | 0.48357    | 0.48357    |   0.0 |  0.79
Output  | 0.039862   | 0.039862   | 0.039862   |   0.0 |  0.07
Modify  | 0.73178    | 0.73178    | 0.73178    |   0.0 |  1.20
Other   |            | 0.1733     |            |       |  0.28

Nlocal:    19652 ave 19652 max 19652 min
Histogram: 1 0 0 0 0 0 0 0 0 0
Nghost:    17259 ave 17259 max 17259 min
Histogram: 1 0 0 0 0 0 0 0 0 0
Neighs:    1.28867e+06 ave 1.28867e+06 max 1.28867e+06 min
Histogram: 1 0 0 0 0 0 0 0 0 0

Total # of neighbors = 1288671
Ave neighs/atom = 65.5745
Neighbor list builds = 495
Dangerous builds not checked
Setting up Verlet run ...
  Unit style    : metal
  Current step  : 47165
  Time step     : 0.001
Per MPI rank memory allocation (min/avg/max) = 18.2 | 18.2 | 18.2 Mbytes
Step Temp Press TotEng PotEng Enthalpy Volume 
   47165    1904.2481   -263.09257   -77786.939   -82623.903   -77849.853    383130.83 
   47337    1889.8193    -674.0775    -77845.01   -82645.323   -78006.106    382901.52 
Loop time of 19.8192 on 1 procs for 172 steps with 19652 atoms

Performance: 0.750 ns/day, 32.008 hours/ns, 8.678 timesteps/s
100.1% CPU use with 1 MPI tasks x no OpenMP threads

MPI task timing breakdown:
Section |  min time  |  avg time  |  max time  |%varavg| %total
---------------------------------------------------------------
Pair    | 10.844     | 10.844     | 10.844     |   0.0 | 54.71
Neigh   | 8.5238     | 8.5238     | 8.5238     |   0.0 | 43.01
Comm    | 0.15516    | 0.15516    | 0.15516    |   0.0 |  0.78
Output  | 0.00013494 | 0.00013494 | 0.00013494 |   0.0 |  0.00
Modify  | 0.23992    | 0.23992    | 0.23992    |   0.0 |  1.21
Other   |            | 0.05663    |            |       |  0.29

Nlocal:    19652 ave 19652 max 19652 min
Histogram: 1 0 0 0 0 0 0 0 0 0
Nghost:    17291 ave 17291 max 17291 min
Histogram: 1 0 0 0 0 0 0 0 0 0
Neighs:    1.28958e+06 ave 1.28958e+06 max 1.28958e+06 min
Histogram: 1 0 0 0 0 0 0 0 0 0

Total # of neighbors = 1289585
Ave neighs/atom = 65.6211
Neighbor list builds = 172
Dangerous builds not checked
Setting up Verlet run ...
  Unit style    : metal
  Current step  : 47337
  Time step     : 0.001
Per MPI rank memory allocation (min/avg/max) = 18.2 | 18.2 | 18.2 Mbytes
Step Temp Press TotEng PotEng Enthalpy Volume 
   47337    1889.8193    -674.0775    -77845.01   -82645.323   -78006.106    382901.52 
   47357    1903.9315   -892.44693   -77843.985   -82680.145   -78057.264    382891.18 
   47832    1859.0466   -551.55589   -77958.509   -82680.657   -78090.288    382795.62 
Loop time of 68.1621 on 1 procs for 495 steps with 19652 atoms

Performance: 0.627 ns/day, 38.250 hours/ns, 7.262 timesteps/s
100.1% CPU use with 1 MPI tasks x no OpenMP threads

MPI task timing breakdown:
Section |  min time  |  avg time  |  max time  |%varavg| %total
---------------------------------------------------------------
Pair    | 36.974     | 36.974     | 36.974     |   0.0 | 54.24
Neigh   | 29.604     | 29.604     | 29.604     |   0.0 | 43.43
Comm    | 0.54448    | 0.54448    | 0.54448    |   0.0 |  0.80
Output  | 0.039651   | 0.039651   | 0.039651   |   0.0 |  0.06
Modify  | 0.80761    | 0.80761    | 0.80761    |   0.0 |  1.18
Other   |            | 0.1918     |            |       |  0.28

Nlocal:    19652 ave 19652 max 19652 min
Histogram: 1 0 0 0 0 0 0 0 0 0
Nghost:    17299 ave 17299 max 17299 min
Histogram: 1 0 0 0 0 0 0 0 0 0
Neighs:    1.29008e+06 ave 1.29008e+06 max 1.29008e+06 min
Histogram: 1 0 0 0 0 0 0 0 0 0

Total # of neighbors = 1290079
Ave neighs/atom = 65.6462
Neighbor list builds = 495
Dangerous builds not checked
Setting up Verlet run ...
  Unit style    : metal
  Current step  : 47832
  Time step     : 0.001
Per MPI rank memory allocation (min/avg/max) = 18.2 | 18.2 | 18.2 Mbytes
Step Temp Press TotEng PotEng Enthalpy Volume 
   47832    1859.0466   -551.55589   -77958.509   -82680.657   -78090.288    382795.62 
   48004    1853.4276   -347.34626   -78028.107   -82735.982   -78110.992    382316.62 
Loop time of 23.0909 on 1 procs for 172 steps with 19652 atoms

Performance: 0.644 ns/day, 37.292 hours/ns, 7.449 timesteps/s
100.1% CPU use with 1 MPI tasks x no OpenMP threads

MPI task timing breakdown:
Section |  min time  |  avg time  |  max time  |%varavg| %total
---------------------------------------------------------------
Pair    | 12.59      | 12.59      | 12.59      |   0.0 | 54.53
Neigh   | 9.9724     | 9.9724     | 9.9724     |   0.0 | 43.19
Comm    | 0.18434    | 0.18434    | 0.18434    |   0.0 |  0.80
Output  | 0.00012493 | 0.00012493 | 0.00012493 |   0.0 |  0.00
Modify  | 0.27771    | 0.27771    | 0.27771    |   0.0 |  1.20
Other   |            | 0.06599    |            |       |  0.29

Nlocal:    19652 ave 19652 max 19652 min
Histogram: 1 0 0 0 0 0 0 0 0 0
Nghost:    17303 ave 17303 max 17303 min
Histogram: 1 0 0 0 0 0 0 0 0 0
Neighs:    1.29147e+06 ave 1.29147e+06 max 1.29147e+06 min
Histogram: 1 0 0 0 0 0 0 0 0 0

Total # of neighbors = 1291468
Ave neighs/atom = 65.7169
Neighbor list builds = 172
Dangerous builds not checked
Setting up Verlet run ...
  Unit style    : metal
  Current step  : 48004
  Time step     : 0.001
Per MPI rank memory allocation (min/avg/max) = 18.2 | 18.2 | 18.2 Mbytes
Step Temp Press TotEng PotEng Enthalpy Volume 
   48004    1853.4276   -347.34626   -78028.107   -82735.982   -78110.992    382316.62 
   48024     1845.303   -130.20986   -78028.233   -82715.471   -78059.304    382311.72 
   48499    1815.7935     905.2611   -78227.899    -82840.18   -78012.652    380956.32 
Loop time of 73.2653 on 1 procs for 495 steps with 19652 atoms

Performance: 0.584 ns/day, 41.114 hours/ns, 6.756 timesteps/s
100.1% CPU use with 1 MPI tasks x no OpenMP threads

MPI task timing breakdown:
Section |  min time  |  avg time  |  max time  |%varavg| %total
---------------------------------------------------------------
Pair    | 39.585     | 39.585     | 39.585     |   0.0 | 54.03
Neigh   | 31.949     | 31.949     | 31.949     |   0.0 | 43.61
Comm    | 0.5895     | 0.5895     | 0.5895     |   0.0 |  0.80
Output  | 0.065837   | 0.065837   | 0.065837   |   0.0 |  0.09
Modify  | 0.86949    | 0.86949    | 0.86949    |   0.0 |  1.19
Other   |            | 0.2061     |            |       |  0.28

Nlocal:    19652 ave 19652 max 19652 min
Histogram: 1 0 0 0 0 0 0 0 0 0
Nghost:    17420 ave 17420 max 17420 min
Histogram: 1 0 0 0 0 0 0 0 0 0
Neighs:    1.29644e+06 ave 1.29644e+06 max 1.29644e+06 min
Histogram: 1 0 0 0 0 0 0 0 0 0

Total # of neighbors = 1296442
Ave neighs/atom = 65.97
Neighbor list builds = 495
Dangerous builds not checked
Setting up Verlet run ...
  Unit style    : metal
  Current step  : 48499
  Time step     : 0.001
Per MPI rank memory allocation (min/avg/max) = 18.2 | 18.2 | 18.2 Mbytes
Step Temp Press TotEng PotEng Enthalpy Volume 
   48499    1815.7935     905.2611   -78227.899    -82840.18   -78012.652    380956.32 
   48671    1787.3129    1.5949361    -78294.71   -82834.648    -78294.33    381405.45 
Loop time of 22.8578 on 1 procs for 172 steps with 19652 atoms

Performance: 0.650 ns/day, 36.915 hours/ns, 7.525 timesteps/s
100.1% CPU use with 1 MPI tasks x no OpenMP threads

MPI task timing breakdown:
Section |  min time  |  avg time  |  max time  |%varavg| %total
---------------------------------------------------------------
Pair    | 12.517     | 12.517     | 12.517     |   0.0 | 54.76
Neigh   | 9.8187     | 9.8187     | 9.8187     |   0.0 | 42.96
Comm    | 0.18154    | 0.18154    | 0.18154    |   0.0 |  0.79
Output  | 0.00012398 | 0.00012398 | 0.00012398 |   0.0 |  0.00
Modify  | 0.27588    | 0.27588    | 0.27588    |   0.0 |  1.21
Other   |            | 0.06499    |            |       |  0.28

Nlocal:    19652 ave 19652 max 19652 min
Histogram: 1 0 0 0 0 0 0 0 0 0
Nghost:    17379 ave 17379 max 17379 min
Histogram: 1 0 0 0 0 0 0 0 0 0
Neighs:    1.29439e+06 ave 1.29439e+06 max 1.29439e+06 min
Histogram: 1 0 0 0 0 0 0 0 0 0

Total # of neighbors = 1294391
Ave neighs/atom = 65.8656
Neighbor list builds = 172
Dangerous builds not checked
Setting up Verlet run ...
  Unit style    : metal
  Current step  : 48671
  Time step     : 0.001
Per MPI rank memory allocation (min/avg/max) = 18.2 | 18.2 | 18.2 Mbytes
Step Temp Press TotEng PotEng Enthalpy Volume 
   48671    1787.3129    1.5949361    -78294.71   -82834.648    -78294.33    381405.45 
   48691    1788.6013    78.301796   -78293.259    -82836.47   -78274.619    381407.83 
   49166    1751.6773    399.69521   -78446.072   -82895.492   -78351.107    380665.93 
Loop time of 64.6555 on 1 procs for 495 steps with 19652 atoms

Performance: 0.661 ns/day, 36.283 hours/ns, 7.656 timesteps/s
100.0% CPU use with 1 MPI tasks x no OpenMP threads

MPI task timing breakdown:
Section |  min time  |  avg time  |  max time  |%varavg| %total
---------------------------------------------------------------
Pair    | 35.16      | 35.16      | 35.16      |   0.0 | 54.38
Neigh   | 27.972     | 27.972     | 27.972     |   0.0 | 43.26
Comm    | 0.51856    | 0.51856    | 0.51856    |   0.0 |  0.80
Output  | 0.040509   | 0.040509   | 0.040509   |   0.0 |  0.06
Modify  | 0.78019    | 0.78019    | 0.78019    |   0.0 |  1.21
Other   |            | 0.1843     |            |       |  0.28

Nlocal:    19652 ave 19652 max 19652 min
Histogram: 1 0 0 0 0 0 0 0 0 0
Nghost:    17323 ave 17323 max 17323 min
Histogram: 1 0 0 0 0 0 0 0 0 0
Neighs:    1.29679e+06 ave 1.29679e+06 max 1.29679e+06 min
Histogram: 1 0 0 0 0 0 0 0 0 0

Total # of neighbors = 1296794
Ave neighs/atom = 65.9879
Neighbor list builds = 495
Dangerous builds not checked
Setting up Verlet run ...
  Unit style    : metal
  Current step  : 49166
  Time step     : 0.001
Per MPI rank memory allocation (min/avg/max) = 18.2 | 18.2 | 18.2 Mbytes
Step Temp Press TotEng PotEng Enthalpy Volume 
   49166    1751.6773    399.69521   -78446.072   -82895.492   -78351.107    380665.93 
   49338    1746.8962    578.31675   -78505.717   -82942.993   -78368.365    380523.27 
Loop time of 24.4967 on 1 procs for 172 steps with 19652 atoms

Performance: 0.607 ns/day, 39.562 hours/ns, 7.021 timesteps/s
100.1% CPU use with 1 MPI tasks x no OpenMP threads

MPI task timing breakdown:
Section |  min time  |  avg time  |  max time  |%varavg| %total
---------------------------------------------------------------
Pair    | 13.334     | 13.334     | 13.334     |   0.0 | 54.43
Neigh   | 10.597     | 10.597     | 10.597     |   0.0 | 43.26
Comm    | 0.19535    | 0.19535    | 0.19535    |   0.0 |  0.80
Output  | 0.00018287 | 0.00018287 | 0.00018287 |   0.0 |  0.00
Modify  | 0.29838    | 0.29838    | 0.29838    |   0.0 |  1.22
Other   |            | 0.07104    |            |       |  0.29

Nlocal:    19652 ave 19652 max 19652 min
Histogram: 1 0 0 0 0 0 0 0 0 0
Nghost:    17328 ave 17328 max 17328 min
Histogram: 1 0 0 0 0 0 0 0 0 0
Neighs:    1.29769e+06 ave 1.29769e+06 max 1.29769e+06 min
Histogram: 1 0 0 0 0 0 0 0 0 0

Total # of neighbors = 1297691
Ave neighs/atom = 66.0335
Neighbor list builds = 172
Dangerous builds not checked
Setting up Verlet run ...
  Unit style    : metal
  Current step  : 49338
  Time step     : 0.001
Per MPI rank memory allocation (min/avg/max) = 18.2 | 18.2 | 18.2 Mbytes
Step Temp Press TotEng PotEng Enthalpy Volume 
   49338    1746.8962    578.31675   -78505.717   -82942.993   -78368.365    380523.27 
   49358    1759.5961   -537.74356   -78505.741   -82975.275   -78633.459    380528.58 
   49833    1716.0794   -535.34999   -78697.901   -83056.899   -78824.925    380152.31 
Loop time of 69.7492 on 1 procs for 495 steps with 19652 atoms

Performance: 0.613 ns/day, 39.141 hours/ns, 7.097 timesteps/s
100.1% CPU use with 1 MPI tasks x no OpenMP threads

MPI task timing breakdown:
Section |  min time  |  avg time  |  max time  |%varavg| %total
---------------------------------------------------------------
Pair    | 37.894     | 37.894     | 37.894     |   0.0 | 54.33
Neigh   | 30.209     | 30.209     | 30.209     |   0.0 | 43.31
Comm    | 0.55896    | 0.55896    | 0.55896    |   0.0 |  0.80
Output  | 0.06389    | 0.06389    | 0.06389    |   0.0 |  0.09
Modify  | 0.82704    | 0.82704    | 0.82704    |   0.0 |  1.19
Other   |            | 0.1963     |            |       |  0.28

Nlocal:    19652 ave 19652 max 19652 min
Histogram: 1 0 0 0 0 0 0 0 0 0
Nghost:    17359 ave 17359 max 17359 min
Histogram: 1 0 0 0 0 0 0 0 0 0
Neighs:    1.29858e+06 ave 1.29858e+06 max 1.29858e+06 min
Histogram: 1 0 0 0 0 0 0 0 0 0

Total # of neighbors = 1298584
Ave neighs/atom = 66.079
Neighbor list builds = 495
Dangerous builds not checked
Setting up Verlet run ...
  Unit style    : metal
  Current step  : 49833
  Time step     : 0.001
Per MPI rank memory allocation (min/avg/max) = 18.2 | 18.2 | 18.2 Mbytes
Step Temp Press TotEng PotEng Enthalpy Volume 
   49833    1716.0794   -535.34999   -78697.901   -83056.899   -78824.925    380152.31 
   50005    1704.3831   -114.56614    -78762.14   -83091.428   -78789.282    379574.88 
Loop time of 23.2007 on 1 procs for 172 steps with 19652 atoms

Performance: 0.641 ns/day, 37.469 hours/ns, 7.414 timesteps/s
100.0% CPU use with 1 MPI tasks x no OpenMP threads

MPI task timing breakdown:
Section |  min time  |  avg time  |  max time  |%varavg| %total
---------------------------------------------------------------
Pair    | 12.72      | 12.72      | 12.72      |   0.0 | 54.82
Neigh   | 9.9478     | 9.9478     | 9.9478     |   0.0 | 42.88
Comm    | 0.18777    | 0.18777    | 0.18777    |   0.0 |  0.81
Output  | 0.00016093 | 0.00016093 | 0.00016093 |   0.0 |  0.00
Modify  | 0.27909    | 0.27909    | 0.27909    |   0.0 |  1.20
Other   |            | 0.06642    |            |       |  0.29

Nlocal:    19652 ave 19652 max 19652 min
Histogram: 1 0 0 0 0 0 0 0 0 0
Nghost:    17357 ave 17357 max 17357 min
Histogram: 1 0 0 0 0 0 0 0 0 0
Neighs:    1.30076e+06 ave 1.30076e+06 max 1.30076e+06 min
Histogram: 1 0 0 0 0 0 0 0 0 0

Total # of neighbors = 1300762
Ave neighs/atom = 66.1898
Neighbor list builds = 172
Dangerous builds not checked
Setting up Verlet run ...
  Unit style    : metal
  Current step  : 50005
  Time step     : 0.001
Per MPI rank memory allocation (min/avg/max) = 18.2 | 18.2 | 18.2 Mbytes
Step Temp Press TotEng PotEng Enthalpy Volume 
   50005    1704.3831   -114.56614    -78762.14   -83091.428   -78789.282    379574.88 
   50025    1703.8821    439.86061   -78762.831   -83090.847   -78658.622    379576.56 
   50500    1652.4829    -109.5104    -78926.18   -83123.637   -78952.118    379482.13 
Loop time of 66.6378 on 1 procs for 495 steps with 19652 atoms

Performance: 0.642 ns/day, 37.395 hours/ns, 7.428 timesteps/s
100.0% CPU use with 1 MPI tasks x no OpenMP threads

MPI task timing breakdown:
Section |  min time  |  avg time  |  max time  |%varavg| %total
---------------------------------------------------------------
Pair    | 36.265     | 36.265     | 36.265     |   0.0 | 54.42
Neigh   | 28.828     | 28.828     | 28.828     |   0.0 | 43.26
Comm    | 0.52902    | 0.52902    | 0.52902    |   0.0 |  0.79
Output  | 0.042131   | 0.042131   | 0.042131   |   0.0 |  0.06
Modify  | 0.78618    | 0.78618    | 0.78618    |   0.0 |  1.18
Other   |            | 0.1878     |            |       |  0.28

Nlocal:    19652 ave 19652 max 19652 min
Histogram: 1 0 0 0 0 0 0 0 0 0
Nghost:    17322 ave 17322 max 17322 min
Histogram: 1 0 0 0 0 0 0 0 0 0
Neighs:    1.30093e+06 ave 1.30093e+06 max 1.30093e+06 min
Histogram: 1 0 0 0 0 0 0 0 0 0

Total # of neighbors = 1300930
Ave neighs/atom = 66.1984
Neighbor list builds = 495
Dangerous builds not checked
Setting up Verlet run ...
  Unit style    : metal
  Current step  : 50500
  Time step     : 0.001
Per MPI rank memory allocation (min/avg/max) = 18.2 | 18.2 | 18.2 Mbytes
Step Temp Press TotEng PotEng Enthalpy Volume 
   50500    1652.4829    -109.5104    -78926.18   -83123.637   -78952.118    379482.13 
   50672    1650.7912    -1013.304    -78991.29    -83184.45   -79231.261    379427.69 
Loop time of 25.0357 on 1 procs for 172 steps with 19652 atoms

Performance: 0.594 ns/day, 40.432 hours/ns, 6.870 timesteps/s
100.1% CPU use with 1 MPI tasks x no OpenMP threads

MPI task timing breakdown:
Section |  min time  |  avg time  |  max time  |%varavg| %total
---------------------------------------------------------------
Pair    | 13.587     | 13.587     | 13.587     |   0.0 | 54.27
Neigh   | 10.871     | 10.871     | 10.871     |   0.0 | 43.42
Comm    | 0.2001     | 0.2001     | 0.2001     |   0.0 |  0.80
Output  | 0.00020003 | 0.00020003 | 0.00020003 |   0.0 |  0.00
Modify  | 0.3051     | 0.3051     | 0.3051     |   0.0 |  1.22
Other   |            | 0.07264    |            |       |  0.29

Nlocal:    19652 ave 19652 max 19652 min
Histogram: 1 0 0 0 0 0 0 0 0 0
Nghost:    17320 ave 17320 max 17320 min
Histogram: 1 0 0 0 0 0 0 0 0 0
Neighs:    1.30128e+06 ave 1.30128e+06 max 1.30128e+06 min
Histogram: 1 0 0 0 0 0 0 0 0 0

Total # of neighbors = 1301285
Ave neighs/atom = 66.2164
Neighbor list builds = 172
Dangerous builds not checked
Setting up Verlet run ...
  Unit style    : metal
  Current step  : 50672
  Time step     : 0.001
Per MPI rank memory allocation (min/avg/max) = 18.2 | 18.2 | 18.2 Mbytes
Step Temp Press TotEng PotEng Enthalpy Volume 
   50672    1650.7912    -1013.304    -78991.29    -83184.45   -79231.261    379427.69 
   50692    1644.3395    77.943776   -78991.254   -83168.026   -78972.796    379414.43 
   51167    1597.4559   -598.24179   -79171.169   -83228.852   -79312.811    379337.22 
Loop time of 72.9262 on 1 procs for 495 steps with 19652 atoms

Performance: 0.586 ns/day, 40.924 hours/ns, 6.788 timesteps/s
100.0% CPU use with 1 MPI tasks x no OpenMP threads

MPI task timing breakdown:
Section |  min time  |  avg time  |  max time  |%varavg| %total
---------------------------------------------------------------
Pair    | 39.73      | 39.73      | 39.73      |   0.0 | 54.48
Neigh   | 31.408     | 31.408     | 31.408     |   0.0 | 43.07
Comm    | 0.60458    | 0.60458    | 0.60458    |   0.0 |  0.83
Output  | 0.082868   | 0.082868   | 0.082868   |   0.0 |  0.11
Modify  | 0.88704    | 0.88704    | 0.88704    |   0.0 |  1.22
Other   |            | 0.2145     |            |       |  0.29

Nlocal:    19652 ave 19652 max 19652 min
Histogram: 1 0 0 0 0 0 0 0 0 0
Nghost:    17395 ave 17395 max 17395 min
Histogram: 1 0 0 0 0 0 0 0 0 0
Neighs:    1.3014e+06 ave 1.3014e+06 max 1.3014e+06 min
Histogram: 1 0 0 0 0 0 0 0 0 0

Total # of neighbors = 1301404
Ave neighs/atom = 66.2225
Neighbor list builds = 495
Dangerous builds not checked
Setting up Verlet run ...
  Unit style    : metal
  Current step  : 51167
  Time step     : 0.001
Per MPI rank memory allocation (min/avg/max) = 18.2 | 18.2 | 18.2 Mbytes
Step Temp Press TotEng PotEng Enthalpy Volume 
   51167    1597.4559   -598.24179   -79171.169   -83228.852   -79312.811    379337.22 
   51339     1593.095    267.39284   -79216.207   -83262.813   -79153.068    378317.38 
Loop time of 24.7317 on 1 procs for 172 steps with 19652 atoms

Performance: 0.601 ns/day, 39.941 hours/ns, 6.955 timesteps/s
100.0% CPU use with 1 MPI tasks x no OpenMP threads

MPI task timing breakdown:
Section |  min time  |  avg time  |  max time  |%varavg| %total
---------------------------------------------------------------
Pair    | 13.48      | 13.48      | 13.48      |   0.0 | 54.50
Neigh   | 10.674     | 10.674     | 10.674     |   0.0 | 43.16
Comm    | 0.19664    | 0.19664    | 0.19664    |   0.0 |  0.80
Output  | 0.00014091 | 0.00014091 | 0.00014091 |   0.0 |  0.00
Modify  | 0.30093    | 0.30093    | 0.30093    |   0.0 |  1.22
Other   |            | 0.07977    |            |       |  0.32

Nlocal:    19652 ave 19652 max 19652 min
Histogram: 1 0 0 0 0 0 0 0 0 0
Nghost:    17347 ave 17347 max 17347 min
Histogram: 1 0 0 0 0 0 0 0 0 0
Neighs:    1.3058e+06 ave 1.3058e+06 max 1.3058e+06 min
Histogram: 1 0 0 0 0 0 0 0 0 0

Total # of neighbors = 1305798
Ave neighs/atom = 66.4461
Neighbor list builds = 172
Dangerous builds not checked
Setting up Verlet run ...
  Unit style    : metal
  Current step  : 51339
  Time step     : 0.001
Per MPI rank memory allocation (min/avg/max) = 18.2 | 18.2 | 18.2 Mbytes
Step Temp Press TotEng PotEng Enthalpy Volume 
   51339     1593.095    267.39284   -79216.207   -83262.813   -79153.068    378317.38 
   51359    1604.5626   -60.893084   -79215.907   -83291.642   -79230.286    378320.73 
   51834    1555.2786    46.817555   -79413.235   -83363.784   -79402.189    378022.47 
Loop time of 65.3306 on 1 procs for 495 steps with 19652 atoms

Performance: 0.655 ns/day, 36.661 hours/ns, 7.577 timesteps/s
100.1% CPU use with 1 MPI tasks x no OpenMP threads

MPI task timing breakdown:
Section |  min time  |  avg time  |  max time  |%varavg| %total
---------------------------------------------------------------
Pair    | 35.79      | 35.79      | 35.79      |   0.0 | 54.78
Neigh   | 27.975     | 27.975     | 27.975     |   0.0 | 42.82
Comm    | 0.51932    | 0.51932    | 0.51932    |   0.0 |  0.79
Output  | 0.066603   | 0.066603   | 0.066603   |   0.0 |  0.10
Modify  | 0.77339    | 0.77339    | 0.77339    |   0.0 |  1.18
Other   |            | 0.2063     |            |       |  0.32

Nlocal:    19652 ave 19652 max 19652 min
Histogram: 1 0 0 0 0 0 0 0 0 0
Nghost:    17414 ave 17414 max 17414 min
Histogram: 1 0 0 0 0 0 0 0 0 0
Neighs:    1.30587e+06 ave 1.30587e+06 max 1.30587e+06 min
Histogram: 1 0 0 0 0 0 0 0 0 0

Total # of neighbors = 1305871
Ave neighs/atom = 66.4498
Neighbor list builds = 495
Dangerous builds not checked
Setting up Verlet run ...
  Unit style    : metal
  Current step  : 51834
  Time step     : 0.001
Per MPI rank memory allocation (min/avg/max) = 18.2 | 18.2 | 18.2 Mbytes
Step Temp Press TotEng PotEng Enthalpy Volume 
   51834    1555.2786    46.817555   -79413.235   -83363.784   -79402.189    378022.47 
   52006    1550.5629   -783.34471    -79480.01   -83418.581   -79664.821    377994.69 
Loop time of 22.302 on 1 procs for 172 steps with 19652 atoms

Performance: 0.666 ns/day, 36.017 hours/ns, 7.712 timesteps/s
100.1% CPU use with 1 MPI tasks x no OpenMP threads

MPI task timing breakdown:
Section |  min time  |  avg time  |  max time  |%varavg| %total
---------------------------------------------------------------
Pair    | 12.215     | 12.215     | 12.215     |   0.0 | 54.77
Neigh   | 9.5693     | 9.5693     | 9.5693     |   0.0 | 42.91
Comm    | 0.17612    | 0.17612    | 0.17612    |   0.0 |  0.79
Output  | 0.00013709 | 0.00013709 | 0.00013709 |   0.0 |  0.00
Modify  | 0.26958    | 0.26958    | 0.26958    |   0.0 |  1.21
Other   |            | 0.07211    |            |       |  0.32

Nlocal:    19652 ave 19652 max 19652 min
Histogram: 1 0 0 0 0 0 0 0 0 0
Nghost:    17351 ave 17351 max 17351 min
Histogram: 1 0 0 0 0 0 0 0 0 0
Neighs:    1.30658e+06 ave 1.30658e+06 max 1.30658e+06 min
Histogram: 1 0 0 0 0 0 0 0 0 0

Total # of neighbors = 1306579
Ave neighs/atom = 66.4858
Neighbor list builds = 172
Dangerous builds not checked
Setting up Verlet run ...
  Unit style    : metal
  Current step  : 52006
  Time step     : 0.001
Per MPI rank memory allocation (min/avg/max) = 18.2 | 18.2 | 18.2 Mbytes
Step Temp Press TotEng PotEng Enthalpy Volume 
   52006    1550.5629   -783.34471    -79480.01   -83418.581   -79664.821    377994.69 
   52026    1546.1688   -296.95411   -79480.256   -83407.666   -79550.312       377979 
   52501    1502.0484   -677.05648   -79643.716   -83459.056   -79803.353    377761.45 
Loop time of 66.2678 on 1 procs for 495 steps with 19652 atoms

Performance: 0.645 ns/day, 37.187 hours/ns, 7.470 timesteps/s
100.0% CPU use with 1 MPI tasks x no OpenMP threads

MPI task timing breakdown:
Section |  min time  |  avg time  |  max time  |%varavg| %total
---------------------------------------------------------------
Pair    | 36.055     | 36.055     | 36.055     |   0.0 | 54.41
Neigh   | 28.666     | 28.666     | 28.666     |   0.0 | 43.26
Comm    | 0.52397    | 0.52397    | 0.52397    |   0.0 |  0.79
Output  | 0.040752   | 0.040752   | 0.040752   |   0.0 |  0.06
Modify  | 0.78031    | 0.78031    | 0.78031    |   0.0 |  1.18
Other   |            | 0.2018     |            |       |  0.30

Nlocal:    19652 ave 19652 max 19652 min
Histogram: 1 0 0 0 0 0 0 0 0 0
Nghost:    17431 ave 17431 max 17431 min
Histogram: 1 0 0 0 0 0 0 0 0 0
Neighs:    1.30752e+06 ave 1.30752e+06 max 1.30752e+06 min
Histogram: 1 0 0 0 0 0 0 0 0 0

Total # of neighbors = 1307517
Ave neighs/atom = 66.5335
Neighbor list builds = 495
Dangerous builds not checked
Setting up Verlet run ...
  Unit style    : metal
  Current step  : 52501
  Time step     : 0.001
Per MPI rank memory allocation (min/avg/max) = 18.2 | 18.2 | 18.2 Mbytes
Step Temp Press TotEng PotEng Enthalpy Volume 
   52501    1502.0484   -677.05648   -79643.716   -83459.056   -79803.353    377761.45 
   52673    1491.4102    422.55757   -79712.441   -83500.759   -79612.922    377338.16 
Loop time of 25.7129 on 1 procs for 172 steps with 19652 atoms

Performance: 0.578 ns/day, 41.526 hours/ns, 6.689 timesteps/s
97.5% CPU use with 1 MPI tasks x no OpenMP threads

MPI task timing breakdown:
Section |  min time  |  avg time  |  max time  |%varavg| %total
---------------------------------------------------------------
Pair    | 14.047     | 14.047     | 14.047     |   0.0 | 54.63
Neigh   | 11.057     | 11.057     | 11.057     |   0.0 | 43.00
Comm    | 0.21876    | 0.21876    | 0.21876    |   0.0 |  0.85
Output  | 0.0001359  | 0.0001359  | 0.0001359  |   0.0 |  0.00
Modify  | 0.31558    | 0.31558    | 0.31558    |   0.0 |  1.23
Other   |            | 0.0739     |            |       |  0.29

Nlocal:    19652 ave 19652 max 19652 min
Histogram: 1 0 0 0 0 0 0 0 0 0
Nghost:    17352 ave 17352 max 17352 min
Histogram: 1 0 0 0 0 0 0 0 0 0
Neighs:    1.30899e+06 ave 1.30899e+06 max 1.30899e+06 min
Histogram: 1 0 0 0 0 0 0 0 0 0

Total # of neighbors = 1308987
Ave neighs/atom = 66.6083
Neighbor list builds = 172
Dangerous builds not checked
Setting up Verlet run ...
  Unit style    : metal
  Current step  : 52673
  Time step     : 0.001
Per MPI rank memory allocation (min/avg/max) = 18.2 | 18.2 | 18.2 Mbytes
Step Temp Press TotEng PotEng Enthalpy Volume 
   52673    1491.4102    422.55757   -79712.441   -83500.759   -79612.922    377338.16 
   52693    1496.6075    -166.2583   -79711.725   -83513.244   -79750.882    377344.72 
   53168    1460.1684    85.507856   -79919.961   -83628.921   -79899.866    376509.95 
Loop time of 70.5652 on 1 procs for 495 steps with 19652 atoms

Performance: 0.606 ns/day, 39.599 hours/ns, 7.015 timesteps/s
99.9% CPU use with 1 MPI tasks x no OpenMP threads

MPI task timing breakdown:
Section |  min time  |  avg time  |  max time  |%varavg| %total
---------------------------------------------------------------
Pair    | 37.465     | 37.465     | 37.465     |   0.0 | 53.09
Neigh   | 31.475     | 31.475     | 31.475     |   0.0 | 44.60
Comm    | 0.56142    | 0.56142    | 0.56142    |   0.0 |  0.80
Output  | 0.040657   | 0.040657   | 0.040657   |   0.0 |  0.06
Modify  | 0.82342    | 0.82342    | 0.82342    |   0.0 |  1.17
Other   |            | 0.1993     |            |       |  0.28

Nlocal:    19652 ave 19652 max 19652 min
Histogram: 1 0 0 0 0 0 0 0 0 0
Nghost:    17393 ave 17393 max 17393 min
Histogram: 1 0 0 0 0 0 0 0 0 0
Neighs:    1.31079e+06 ave 1.31079e+06 max 1.31079e+06 min
Histogram: 1 0 0 0 0 0 0 0 0 0

Total # of neighbors = 1310789
Ave neighs/atom = 66.7
Neighbor list builds = 495
Dangerous builds not checked
Setting up Verlet run ...
  Unit style    : metal
  Current step  : 53168
  Time step     : 0.001
Per MPI rank memory allocation (min/avg/max) = 18.2 | 18.2 | 18.2 Mbytes
Step Temp Press TotEng PotEng Enthalpy Volume 
   53168    1460.1684    85.507856   -79919.961   -83628.921   -79899.866    376509.95 
   53340    1444.9356   -1242.0394   -79966.489   -83636.758   -80258.466    376636.74 
Loop time of 21.2418 on 1 procs for 172 steps with 19652 atoms

Performance: 0.700 ns/day, 34.305 hours/ns, 8.097 timesteps/s
100.1% CPU use with 1 MPI tasks x no OpenMP threads

MPI task timing breakdown:
Section |  min time  |  avg time  |  max time  |%varavg| %total
---------------------------------------------------------------
Pair    | 11.172     | 11.172     | 11.172     |   0.0 | 52.60
Neigh   | 9.5947     | 9.5947     | 9.5947     |   0.0 | 45.17
Comm    | 0.16619    | 0.16619    | 0.16619    |   0.0 |  0.78
Output  | 0.00012493 | 0.00012493 | 0.00012493 |   0.0 |  0.00
Modify  | 0.24895    | 0.24895    | 0.24895    |   0.0 |  1.17
Other   |            | 0.0597     |            |       |  0.28

Nlocal:    19652 ave 19652 max 19652 min
Histogram: 1 0 0 0 0 0 0 0 0 0
Nghost:    17341 ave 17341 max 17341 min
Histogram: 1 0 0 0 0 0 0 0 0 0
Neighs:    1.31149e+06 ave 1.31149e+06 max 1.31149e+06 min
Histogram: 1 0 0 0 0 0 0 0 0 0

Total # of neighbors = 1311491
Ave neighs/atom = 66.7358
Neighbor list builds = 172
Dangerous builds not checked
Setting up Verlet run ...
  Unit style    : metal
  Current step  : 53340
  Time step     : 0.001
Per MPI rank memory allocation (min/avg/max) = 18.2 | 18.2 | 18.2 Mbytes
Step Temp Press TotEng PotEng Enthalpy Volume 
   53340    1444.9356   -1242.0394   -79966.489   -83636.758   -80258.466    376636.74 
   53360    1440.4843   -971.05689   -79965.752   -83624.714    -80194.01    376609.91 
   53835    1409.6617   -516.41128   -80168.565   -83749.235   -80289.967    376651.47 
Loop time of 62.3387 on 1 procs for 495 steps with 19652 atoms

Performance: 0.686 ns/day, 34.982 hours/ns, 7.940 timesteps/s
100.1% CPU use with 1 MPI tasks x no OpenMP threads

MPI task timing breakdown:
Section |  min time  |  avg time  |  max time  |%varavg| %total
---------------------------------------------------------------
Pair    | 32.808     | 32.808     | 32.808     |   0.0 | 52.63
Neigh   | 28.121     | 28.121     | 28.121     |   0.0 | 45.11
Comm    | 0.48277    | 0.48277    | 0.48277    |   0.0 |  0.77
Output  | 0.040976   | 0.040976   | 0.040976   |   0.0 |  0.07
Modify  | 0.7138     | 0.7138     | 0.7138     |   0.0 |  1.15
Other   |            | 0.1717     |            |       |  0.28

Nlocal:    19652 ave 19652 max 19652 min
Histogram: 1 0 0 0 0 0 0 0 0 0
Nghost:    17423 ave 17423 max 17423 min
Histogram: 1 0 0 0 0 0 0 0 0 0
Neighs:    1.31105e+06 ave 1.31105e+06 max 1.31105e+06 min
Histogram: 1 0 0 0 0 0 0 0 0 0

Total # of neighbors = 1311047
Ave neighs/atom = 66.7132
Neighbor list builds = 495
Dangerous builds not checked
Setting up Verlet run ...
  Unit style    : metal
  Current step  : 53835
  Time step     : 0.001
Per MPI rank memory allocation (min/avg/max) = 18.2 | 18.2 | 18.2 Mbytes
Step Temp Press TotEng PotEng Enthalpy Volume 
   53835    1409.6617   -516.41128   -80168.565   -83749.235   -80289.967    376651.47 
   54007    1399.9125    753.73459   -80233.131   -83789.036   -80056.452    375557.52 
Loop time of 24.3297 on 1 procs for 172 steps with 19652 atoms

Performance: 0.611 ns/day, 39.292 hours/ns, 7.070 timesteps/s
100.1% CPU use with 1 MPI tasks x no OpenMP threads

MPI task timing breakdown:
Section |  min time  |  avg time  |  max time  |%varavg| %total
---------------------------------------------------------------
Pair    | 12.689     | 12.689     | 12.689     |   0.0 | 52.16
Neigh   | 11.1       | 11.1       | 11.1       |   0.0 | 45.62
Comm    | 0.1883     | 0.1883     | 0.1883     |   0.0 |  0.77
Output  | 0.00012684 | 0.00012684 | 0.00012684 |   0.0 |  0.00
Modify  | 0.28414    | 0.28414    | 0.28414    |   0.0 |  1.17
Other   |            | 0.06829    |            |       |  0.28

Nlocal:    19652 ave 19652 max 19652 min
Histogram: 1 0 0 0 0 0 0 0 0 0
Nghost:    17458 ave 17458 max 17458 min
Histogram: 1 0 0 0 0 0 0 0 0 0
Neighs:    1.3151e+06 ave 1.3151e+06 max 1.3151e+06 min
Histogram: 1 0 0 0 0 0 0 0 0 0

Total # of neighbors = 1315095
Ave neighs/atom = 66.9191
Neighbor list builds = 172
Dangerous builds not checked
Setting up Verlet run ...
  Unit style    : metal
  Current step  : 54007
  Time step     : 0.001
Per MPI rank memory allocation (min/avg/max) = 18.2 | 18.2 | 18.2 Mbytes
Step Temp Press TotEng PotEng Enthalpy Volume 
   54007    1399.9125    753.73459   -80233.131   -83789.036   -80056.452    375557.52 
   54027    1407.7126    732.70461   -80233.394   -83809.113   -80061.637    375576.05 
   54502    1368.4368    805.93229   -80423.125   -83899.079    -80234.69    374604.64 
Loop time of 60.4888 on 1 procs for 495 steps with 19652 atoms

Performance: 0.707 ns/day, 33.944 hours/ns, 8.183 timesteps/s
100.1% CPU use with 1 MPI tasks x no OpenMP threads

MPI task timing breakdown:
Section |  min time  |  avg time  |  max time  |%varavg| %total
---------------------------------------------------------------
Pair    | 31.947     | 31.947     | 31.947     |   0.0 | 52.81
Neigh   | 27.184     | 27.184     | 27.184     |   0.0 | 44.94
Comm    | 0.46416    | 0.46416    | 0.46416    |   0.0 |  0.77
Output  | 0.03959    | 0.03959    | 0.03959    |   0.0 |  0.07
Modify  | 0.68801    | 0.68801    | 0.68801    |   0.0 |  1.14
Other   |            | 0.1664     |            |       |  0.28

Nlocal:    19652 ave 19652 max 19652 min
Histogram: 1 0 0 0 0 0 0 0 0 0
Nghost:    17465 ave 17465 max 17465 min
Histogram: 1 0 0 0 0 0 0 0 0 0
Neighs:    1.31865e+06 ave 1.31865e+06 max 1.31865e+06 min
Histogram: 1 0 0 0 0 0 0 0 0 0

Total # of neighbors = 1318654
Ave neighs/atom = 67.1002
Neighbor list builds = 495
Dangerous builds not checked
Setting up Verlet run ...
  Unit style    : metal
  Current step  : 54502
  Time step     : 0.001
Per MPI rank memory allocation (min/avg/max) = 18.2 | 18.2 | 18.2 Mbytes
Step Temp Press TotEng PotEng Enthalpy Volume 
   54502    1368.4368    805.93229   -80423.125   -83899.079    -80234.69    374604.64 
   54674    1350.8533   -173.77049   -80476.249   -83907.539   -80516.953    375295.46 
Loop time of 20.9234 on 1 procs for 172 steps with 19652 atoms

Performance: 0.710 ns/day, 33.791 hours/ns, 8.220 timesteps/s
100.1% CPU use with 1 MPI tasks x no OpenMP threads

MPI task timing breakdown:
Section |  min time  |  avg time  |  max time  |%varavg| %total
---------------------------------------------------------------
Pair    | 11.124     | 11.124     | 11.124     |   0.0 | 53.16
Neigh   | 9.3368     | 9.3368     | 9.3368     |   0.0 | 44.62
Comm    | 0.16005    | 0.16005    | 0.16005    |   0.0 |  0.76
Output  | 0.00013399 | 0.00013399 | 0.00013399 |   0.0 |  0.00
Modify  | 0.24181    | 0.24181    | 0.24181    |   0.0 |  1.16
Other   |            | 0.06097    |            |       |  0.29

Nlocal:    19652 ave 19652 max 19652 min
Histogram: 1 0 0 0 0 0 0 0 0 0
Nghost:    17438 ave 17438 max 17438 min
Histogram: 1 0 0 0 0 0 0 0 0 0
Neighs:    1.31646e+06 ave 1.31646e+06 max 1.31646e+06 min
Histogram: 1 0 0 0 0 0 0 0 0 0

Total # of neighbors = 1316458
Ave neighs/atom = 66.9885
Neighbor list builds = 172
Dangerous builds not checked
Setting up Verlet run ...
  Unit style    : metal
  Current step  : 54674
  Time step     : 0.001
Per MPI rank memory allocation (min/avg/max) = 18.2 | 18.2 | 18.2 Mbytes
Step Temp Press TotEng PotEng Enthalpy Volume 
   54674    1350.8533   -173.77049   -80476.249   -83907.539   -80516.953    375295.46 
   54694    1360.2768   -337.67137   -80476.884   -83932.111    -80555.98    375289.61 
   55169    1318.4051   -719.73366   -80668.381    -84017.25   -80836.789    374887.94 
Loop time of 65.0879 on 1 procs for 495 steps with 19652 atoms

Performance: 0.657 ns/day, 36.525 hours/ns, 7.605 timesteps/s
100.1% CPU use with 1 MPI tasks x no OpenMP threads

MPI task timing breakdown:
Section |  min time  |  avg time  |  max time  |%varavg| %total
---------------------------------------------------------------
Pair    | 34.444     | 34.444     | 34.444     |   0.0 | 52.92
Neigh   | 29.166     | 29.166     | 29.166     |   0.0 | 44.81
Comm    | 0.49256    | 0.49256    | 0.49256    |   0.0 |  0.76
Output  | 0.040636   | 0.040636   | 0.040636   |   0.0 |  0.06
Modify  | 0.74695    | 0.74695    | 0.74695    |   0.0 |  1.15
Other   |            | 0.1976     |            |       |  0.30

Nlocal:    19652 ave 19652 max 19652 min
Histogram: 1 0 0 0 0 0 0 0 0 0
Nghost:    17520 ave 17520 max 17520 min
Histogram: 1 0 0 0 0 0 0 0 0 0
Neighs:    1.31792e+06 ave 1.31792e+06 max 1.31792e+06 min
Histogram: 1 0 0 0 0 0 0 0 0 0

Total # of neighbors = 1317922
Ave neighs/atom = 67.063
Neighbor list builds = 495
Dangerous builds not checked
Setting up Verlet run ...
  Unit style    : metal
  Current step  : 55169
  Time step     : 0.001
Per MPI rank memory allocation (min/avg/max) = 18.2 | 18.2 | 18.2 Mbytes
Step Temp Press TotEng PotEng Enthalpy Volume 
   55169    1318.4051   -719.73366   -80668.381    -84017.25   -80836.789    374887.94 
   55341    1302.5777    -12.10094   -80730.787   -84039.453   -80733.614    374404.61 
Loop time of 21.3224 on 1 procs for 172 steps with 19652 atoms

Performance: 0.697 ns/day, 34.435 hours/ns, 8.067 timesteps/s
100.1% CPU use with 1 MPI tasks x no OpenMP threads

MPI task timing breakdown:
Section |  min time  |  avg time  |  max time  |%varavg| %total
---------------------------------------------------------------
Pair    | 11.375     | 11.375     | 11.375     |   0.0 | 53.35
[...]
Output  | 0.040205   | 0.040205   | 0.040205   |   0.0 |  0.07
Modify  | 0.65979    | 0.65979    | 0.65979    |   0.0 |  1.16
Other   |            | 0.17       |            |       |  0.30

Nlocal:    19652 ave 19652 max 19652 min
Histogram: 1 0 0 0 0 0 0 0 0 0
Nghost:    17646 ave 17646 max 17646 min
Histogram: 1 0 0 0 0 0 0 0 0 0
Neighs:    1.34788e+06 ave 1.34788e+06 max 1.34788e+06 min
Histogram: 1 0 0 0 0 0 0 0 0 0

Total # of neighbors = 1347884
Ave neighs/atom = 68.5876
Neighbor list builds = 495
Dangerous builds not checked
Setting up Verlet run ...
  Unit style    : metal
  Current step  : 67175
  Time step     : 0.001
Per MPI rank memory allocation (min/avg/max) = 18.2 | 18.2 | 18.2 Mbytes
Step Temp Press TotEng PotEng Enthalpy Volume 
   67175    430.15263   -119.29425   -86613.221   -87705.848    -86640.52    366640.84 
   67347    421.04384   -144.44739   -86684.778   -87754.268   -86717.816    366449.07 
Loop time of 19.8278 on 1 procs for 172 steps with 19652 atoms

Performance: 0.749 ns/day, 32.022 hours/ns, 8.675 timesteps/s
99.9% CPU use with 1 MPI tasks x no OpenMP threads

MPI task timing breakdown:
Section |  min time  |  avg time  |  max time  |%varavg| %total
---------------------------------------------------------------
Pair    | 10.667     | 10.667     | 10.667     |   0.0 | 53.80
Neigh   | 8.7146     | 8.7146     | 8.7146     |   0.0 | 43.95
Comm    | 0.15498    | 0.15498    | 0.15498    |   0.0 |  0.78
Output  | 0.00012803 | 0.00012803 | 0.00012803 |   0.0 |  0.00
Modify  | 0.23187    | 0.23187    | 0.23187    |   0.0 |  1.17
Other   |            | 0.0595     |            |       |  0.30

Nlocal:    19652 ave 19652 max 19652 min
Histogram: 1 0 0 0 0 0 0 0 0 0
Nghost:    17636 ave 17636 max 17636 min
Histogram: 1 0 0 0 0 0 0 0 0 0
Neighs:    1.34889e+06 ave 1.34889e+06 max 1.34889e+06 min
Histogram: 1 0 0 0 0 0 0 0 0 0

Total # of neighbors = 1348894
Ave neighs/atom = 68.639
Neighbor list builds = 172
Dangerous builds not checked
Setting up Verlet run ...
  Unit style    : metal
  Current step  : 67347
  Time step     : 0.001
Per MPI rank memory allocation (min/avg/max) = 18.2 | 18.2 | 18.2 Mbytes
Step Temp Press TotEng PotEng Enthalpy Volume 
   67347    421.04384   -144.44739   -86684.778   -87754.268   -86717.816    366449.07 
   67367    422.40986     -191.003   -86687.147   -87760.106   -86730.832    366438.67 
   67842    378.21779   -31.754904   -86965.662    -87926.37   -86972.922    366309.54 
Loop time of 57.3149 on 1 procs for 495 steps with 19652 atoms

Performance: 0.746 ns/day, 32.163 hours/ns, 8.636 timesteps/s
100.1% CPU use with 1 MPI tasks x no OpenMP threads

MPI task timing breakdown:
Section |  min time  |  avg time  |  max time  |%varavg| %total
---------------------------------------------------------------
Pair    | 30.799     | 30.799     | 30.799     |   0.0 | 53.74
Neigh   | 25.186     | 25.186     | 25.186     |   0.0 | 43.94
Comm    | 0.4495     | 0.4495     | 0.4495     |   0.0 |  0.78
Output  | 0.040038   | 0.040038   | 0.040038   |   0.0 |  0.07
Modify  | 0.66929    | 0.66929    | 0.66929    |   0.0 |  1.17
Other   |            | 0.171      |            |       |  0.30

Nlocal:    19652 ave 19652 max 19652 min
Histogram: 1 0 0 0 0 0 0 0 0 0
Nghost:    17595 ave 17595 max 17595 min
Histogram: 1 0 0 0 0 0 0 0 0 0
Neighs:    1.34936e+06 ave 1.34936e+06 max 1.34936e+06 min
Histogram: 1 0 0 0 0 0 0 0 0 0

Total # of neighbors = 1349363
Ave neighs/atom = 68.6629
Neighbor list builds = 495
Dangerous builds not checked
Setting up Verlet run ...
  Unit style    : metal
  Current step  : 67842
  Time step     : 0.001
Per MPI rank memory allocation (min/avg/max) = 18.2 | 18.2 | 18.2 Mbytes
Step Temp Press TotEng PotEng Enthalpy Volume 
   67842    378.21779   -31.754904   -86965.662    -87926.37   -86972.922    366309.54 
   68014    373.12693    184.85107   -87035.629   -87983.405   -86993.414    365894.97 
Loop time of 19.809 on 1 procs for 172 steps with 19652 atoms

Performance: 0.750 ns/day, 31.991 hours/ns, 8.683 timesteps/s
100.1% CPU use with 1 MPI tasks x no OpenMP threads

MPI task timing breakdown:
Section |  min time  |  avg time  |  max time  |%varavg| %total
---------------------------------------------------------------
Pair    | 10.647     | 10.647     | 10.647     |   0.0 | 53.75
Neigh   | 8.7171     | 8.7171     | 8.7171     |   0.0 | 44.01
Comm    | 0.15441    | 0.15441    | 0.15441    |   0.0 |  0.78
Output  | 0.00013113 | 0.00013113 | 0.00013113 |   0.0 |  0.00
Modify  | 0.23077    | 0.23077    | 0.23077    |   0.0 |  1.16
Other   |            | 0.05936    |            |       |  0.30

Nlocal:    19652 ave 19652 max 19652 min
Histogram: 1 0 0 0 0 0 0 0 0 0
Nghost:    17605 ave 17605 max 17605 min
Histogram: 1 0 0 0 0 0 0 0 0 0
Neighs:    1.35041e+06 ave 1.35041e+06 max 1.35041e+06 min
Histogram: 1 0 0 0 0 0 0 0 0 0

Total # of neighbors = 1350414
Ave neighs/atom = 68.7164
Neighbor list builds = 172
Dangerous builds not checked
Setting up Verlet run ...
  Unit style    : metal
  Current step  : 68014
  Time step     : 0.001
Per MPI rank memory allocation (min/avg/max) = 18.2 | 18.2 | 18.2 Mbytes
Step Temp Press TotEng PotEng Enthalpy Volume 
   68014    373.12693    184.85107   -87035.629   -87983.405   -86993.414    365894.97 
   68034    373.31864    69.327101    -87038.29   -87986.553   -87022.457    365906.34 
   68509    329.41527   -582.82193   -87300.659   -88137.404   -87433.822    366065.49 
Loop time of 56.1032 on 1 procs for 495 steps with 19652 atoms

Performance: 0.762 ns/day, 31.483 hours/ns, 8.823 timesteps/s
100.1% CPU use with 1 MPI tasks x no OpenMP threads

MPI task timing breakdown:
Section |  min time  |  avg time  |  max time  |%varavg| %total
---------------------------------------------------------------
Pair    | 29.988     | 29.988     | 29.988     |   0.0 | 53.45
Neigh   | 24.864     | 24.864     | 24.864     |   0.0 | 44.32
Comm    | 0.40593    | 0.40593    | 0.40593    |   0.0 |  0.72
Output  | 0.040497   | 0.040497   | 0.040497   |   0.0 |  0.07
Modify  | 0.64435    | 0.64435    | 0.64435    |   0.0 |  1.15
Other   |            | 0.1611     |            |       |  0.29

Nlocal:    19652 ave 19652 max 19652 min
Histogram: 1 0 0 0 0 0 0 0 0 0
Nghost:    17543 ave 17543 max 17543 min
Histogram: 1 0 0 0 0 0 0 0 0 0
Neighs:    1.34961e+06 ave 1.34961e+06 max 1.34961e+06 min
Histogram: 1 0 0 0 0 0 0 0 0 0

Total # of neighbors = 1349610
Ave neighs/atom = 68.6755
Neighbor list builds = 495
Dangerous builds not checked
Setting up Verlet run ...
  Unit style    : metal
  Current step  : 68509
  Time step     : 0.001
Per MPI rank memory allocation (min/avg/max) = 18.2 | 18.2 | 18.2 Mbytes
Step Temp Press TotEng PotEng Enthalpy Volume 
   68509    329.41527   -582.82193   -87300.659   -88137.404   -87433.822    366065.49 
   68681    320.59376   -349.03122   -87366.613   -88180.951   -87446.304    365810.22 
Loop time of 18.911 on 1 procs for 172 steps with 19652 atoms

Performance: 0.786 ns/day, 30.541 hours/ns, 9.095 timesteps/s
100.1% CPU use with 1 MPI tasks x no OpenMP threads

MPI task timing breakdown:
Section |  min time  |  avg time  |  max time  |%varavg| %total
---------------------------------------------------------------
Pair    | 10.079     | 10.079     | 10.079     |   0.0 | 53.30
Neigh   | 8.4298     | 8.4298     | 8.4298     |   0.0 | 44.58
Comm    | 0.13354    | 0.13354    | 0.13354    |   0.0 |  0.71
Output  | 0.00012302 | 0.00012302 | 0.00012302 |   0.0 |  0.00
Modify  | 0.21773    | 0.21773    | 0.21773    |   0.0 |  1.15
Other   |            | 0.05058    |            |       |  0.27

Nlocal:    19652 ave 19652 max 19652 min
Histogram: 1 0 0 0 0 0 0 0 0 0
Nghost:    17556 ave 17556 max 17556 min
Histogram: 1 0 0 0 0 0 0 0 0 0
Neighs:    1.35106e+06 ave 1.35106e+06 max 1.35106e+06 min
Histogram: 1 0 0 0 0 0 0 0 0 0

Total # of neighbors = 1351058
Ave neighs/atom = 68.7491
Neighbor list builds = 172
Dangerous builds not checked
Setting up Verlet run ...
  Unit style    : metal
  Current step  : 68681
  Time step     : 0.001
Per MPI rank memory allocation (min/avg/max) = 18.2 | 18.2 | 18.2 Mbytes
Step Temp Press TotEng PotEng Enthalpy Volume 
   68681    320.59376   -349.03122   -87366.613   -88180.951   -87446.304    365810.22 
   68701     321.4289   -177.12702   -87368.976   -88185.435   -87409.415    365779.96 
   69176    280.68682    -499.1035   -87618.986   -88331.956    -87732.85    365517.18 
Loop time of 56.8882 on 1 procs for 495 steps with 19652 atoms

Performance: 0.752 ns/day, 31.924 hours/ns, 8.701 timesteps/s
97.6% CPU use with 1 MPI tasks x no OpenMP threads

MPI task timing breakdown:
Section |  min time  |  avg time  |  max time  |%varavg| %total
---------------------------------------------------------------
Pair    | 29.556     | 29.556     | 29.556     |   0.0 | 51.95
Neigh   | 24.685     | 24.685     | 24.685     |   0.0 | 43.39
Comm    | 0.40047    | 0.40047    | 0.40047    |   0.0 |  0.70
Output  | 1.4574     | 1.4574     | 1.4574     |   0.0 |  2.56
Modify  | 0.63927    | 0.63927    | 0.63927    |   0.0 |  1.12
Other   |            | 0.1496     |            |       |  0.26

Nlocal:    19652 ave 19652 max 19652 min
Histogram: 1 0 0 0 0 0 0 0 0 0
Nghost:    17581 ave 17581 max 17581 min
Histogram: 1 0 0 0 0 0 0 0 0 0
Neighs:    1.35193e+06 ave 1.35193e+06 max 1.35193e+06 min
Histogram: 1 0 0 0 0 0 0 0 0 0

Total # of neighbors = 1351926
Ave neighs/atom = 68.7933
Neighbor list builds = 495
Dangerous builds not checked
Setting up Verlet run ...
  Unit style    : metal
  Current step  : 69176
  Time step     : 0.001
Per MPI rank memory allocation (min/avg/max) = 18.2 | 18.2 | 18.2 Mbytes
Step Temp Press TotEng PotEng Enthalpy Volume 
   69176    280.68682    -499.1035   -87618.986   -88331.956    -87732.85    365517.18 
   69348    270.66342    259.72282   -87681.916   -88369.426   -87622.733    365084.28 
Loop time of 19.4461 on 1 procs for 172 steps with 19652 atoms

Performance: 0.764 ns/day, 31.405 hours/ns, 8.845 timesteps/s
100.1% CPU use with 1 MPI tasks x no OpenMP threads

MPI task timing breakdown:
Section |  min time  |  avg time  |  max time  |%varavg| %total
---------------------------------------------------------------
Pair    | 10.377     | 10.377     | 10.377     |   0.0 | 53.36
Neigh   | 8.6492     | 8.6492     | 8.6492     |   0.0 | 44.48
Comm    | 0.14196    | 0.14196    | 0.14196    |   0.0 |  0.73
Output  | 0.000144   | 0.000144   | 0.000144   |   0.0 |  0.00
Modify  | 0.22499    | 0.22499    | 0.22499    |   0.0 |  1.16
Other   |            | 0.05327    |            |       |  0.27

Nlocal:    19652 ave 19652 max 19652 min
Histogram: 1 0 0 0 0 0 0 0 0 0
Nghost:    17599 ave 17599 max 17599 min
Histogram: 1 0 0 0 0 0 0 0 0 0
Neighs:    1.35327e+06 ave 1.35327e+06 max 1.35327e+06 min
Histogram: 1 0 0 0 0 0 0 0 0 0

Total # of neighbors = 1353266
Ave neighs/atom = 68.8615
Neighbor list builds = 172
Dangerous builds not checked
Setting up Verlet run ...
  Unit style    : metal
  Current step  : 69348
  Time step     : 0.001
Per MPI rank memory allocation (min/avg/max) = 18.2 | 18.2 | 18.2 Mbytes
Step Temp Press TotEng PotEng Enthalpy Volume 
   69348    270.66342    259.72282   -87681.916   -88369.426   -87622.733    365084.28 
   69368    273.46403       300.83   -87684.402   -88379.025   -87615.846    365118.84 
   69843    233.49066   -499.48888   -87919.697   -88512.785   -88033.493    365015.94 
Loop time of 56.9755 on 1 procs for 495 steps with 19652 atoms

Performance: 0.751 ns/day, 31.973 hours/ns, 8.688 timesteps/s
100.1% CPU use with 1 MPI tasks x no OpenMP threads

MPI task timing breakdown:
Section |  min time  |  avg time  |  max time  |%varavg| %total
---------------------------------------------------------------
Pair    | 30.569     | 30.569     | 30.569     |   0.0 | 53.65
Neigh   | 25.093     | 25.093     | 25.093     |   0.0 | 44.04
Comm    | 0.4416     | 0.4416     | 0.4416     |   0.0 |  0.78
Output  | 0.039269   | 0.039269   | 0.039269   |   0.0 |  0.07
Modify  | 0.66685    | 0.66685    | 0.66685    |   0.0 |  1.17
Other   |            | 0.1653     |            |       |  0.29

Nlocal:    19652 ave 19652 max 19652 min
Histogram: 1 0 0 0 0 0 0 0 0 0
Nghost:    17661 ave 17661 max 17661 min
Histogram: 1 0 0 0 0 0 0 0 0 0
Neighs:    1.35303e+06 ave 1.35303e+06 max 1.35303e+06 min
Histogram: 1 0 0 0 0 0 0 0 0 0

Total # of neighbors = 1353031
Ave neighs/atom = 68.8495
Neighbor list builds = 495
Dangerous builds not checked
Setting up Verlet run ...
  Unit style    : metal
  Current step  : 69843
  Time step     : 0.001
Per MPI rank memory allocation (min/avg/max) = 18.2 | 18.2 | 18.2 Mbytes
Step Temp Press TotEng PotEng Enthalpy Volume 
   69843    233.49066   -499.48888   -87919.697   -88512.785   -88033.493    365015.94 
   70015    219.87465   -123.32238   -87980.641   -88539.143   -88008.715    364732.31 
Loop time of 19.2962 on 1 procs for 172 steps with 19652 atoms

Performance: 0.770 ns/day, 31.163 hours/ns, 8.914 timesteps/s
100.1% CPU use with 1 MPI tasks x no OpenMP threads

MPI task timing breakdown:
Section |  min time  |  avg time  |  max time  |%varavg| %total
---------------------------------------------------------------
Pair    | 10.285     | 10.285     | 10.285     |   0.0 | 53.30
Neigh   | 8.6019     | 8.6019     | 8.6019     |   0.0 | 44.58
Comm    | 0.13688    | 0.13688    | 0.13688    |   0.0 |  0.71
Output  | 0.00011802 | 0.00011802 | 0.00011802 |   0.0 |  0.00
Modify  | 0.22127    | 0.22127    | 0.22127    |   0.0 |  1.15
Other   |            | 0.05102    |            |       |  0.26

Nlocal:    19652 ave 19652 max 19652 min
Histogram: 1 0 0 0 0 0 0 0 0 0
Nghost:    17634 ave 17634 max 17634 min
Histogram: 1 0 0 0 0 0 0 0 0 0
Neighs:    1.35463e+06 ave 1.35463e+06 max 1.35463e+06 min
Histogram: 1 0 0 0 0 0 0 0 0 0

Total # of neighbors = 1354629
Ave neighs/atom = 68.9308
Neighbor list builds = 172
Dangerous builds not checked
Setting up Verlet run ...
  Unit style    : metal
  Current step  : 70015
  Time step     : 0.001
Per MPI rank memory allocation (min/avg/max) = 18.2 | 18.2 | 18.2 Mbytes
Step Temp Press TotEng PotEng Enthalpy Volume 
   70015    219.87465   -123.32238   -87980.641   -88539.143   -88008.715    364732.31 
   70035    223.10301   -95.799735   -87982.999   -88549.701   -88004.807    364713.79 
   70510    182.33653   -152.78405   -88206.372   -88669.523   -88241.124    364433.61 
Loop time of 56.461 on 1 procs for 495 steps with 19652 atoms

Performance: 0.757 ns/day, 31.684 hours/ns, 8.767 timesteps/s
100.0% CPU use with 1 MPI tasks x no OpenMP threads

MPI task timing breakdown:
Section |  min time  |  avg time  |  max time  |%varavg| %total
---------------------------------------------------------------
Pair    | 30.224     | 30.224     | 30.224     |   0.0 | 53.53
Neigh   | 24.965     | 24.965     | 24.965     |   0.0 | 44.22
Comm    | 0.41967    | 0.41967    | 0.41967    |   0.0 |  0.74
Output  | 0.039337   | 0.039337   | 0.039337   |   0.0 |  0.07
Modify  | 0.65327    | 0.65327    | 0.65327    |   0.0 |  1.16
Other   |            | 0.1596     |            |       |  0.28

Nlocal:    19652 ave 19652 max 19652 min
Histogram: 1 0 0 0 0 0 0 0 0 0
Nghost:    17634 ave 17634 max 17634 min
Histogram: 1 0 0 0 0 0 0 0 0 0
Neighs:    1.35557e+06 ave 1.35557e+06 max 1.35557e+06 min
Histogram: 1 0 0 0 0 0 0 0 0 0

Total # of neighbors = 1355569
Ave neighs/atom = 68.9787
Neighbor list builds = 495
Dangerous builds not checked
Setting up Verlet run ...
  Unit style    : metal
  Current step  : 70510
  Time step     : 0.001
Per MPI rank memory allocation (min/avg/max) = 18.2 | 18.2 | 18.2 Mbytes
Step Temp Press TotEng PotEng Enthalpy Volume 
   70510    182.33653   -152.78405   -88206.372   -88669.523   -88241.124    364433.61 
   70682     172.7662   -142.42671   -88264.997   -88703.839   -88297.391    364403.17 
Loop time of 19.789 on 1 procs for 172 steps with 19652 atoms

Performance: 0.751 ns/day, 31.959 hours/ns, 8.692 timesteps/s
100.1% CPU use with 1 MPI tasks x no OpenMP threads

MPI task timing breakdown:
Section |  min time  |  avg time  |  max time  |%varavg| %total
---------------------------------------------------------------
Pair    | 10.601     | 10.601     | 10.601     |   0.0 | 53.57
Neigh   | 8.7576     | 8.7576     | 8.7576     |   0.0 | 44.26
Comm    | 0.14638    | 0.14638    | 0.14638    |   0.0 |  0.74
Output  | 0.00012898 | 0.00012898 | 0.00012898 |   0.0 |  0.00
Modify  | 0.22889    | 0.22889    | 0.22889    |   0.0 |  1.16
Other   |            | 0.05491    |            |       |  0.28

Nlocal:    19652 ave 19652 max 19652 min
Histogram: 1 0 0 0 0 0 0 0 0 0
Nghost:    17624 ave 17624 max 17624 min
Histogram: 1 0 0 0 0 0 0 0 0 0
Neighs:    1.35595e+06 ave 1.35595e+06 max 1.35595e+06 min
Histogram: 1 0 0 0 0 0 0 0 0 0

Total # of neighbors = 1355951
Ave neighs/atom = 68.9981
Neighbor list builds = 172
Dangerous builds not checked
Setting up Verlet run ...
  Unit style    : metal
  Current step  : 70682
  Time step     : 0.001
Per MPI rank memory allocation (min/avg/max) = 18.2 | 18.2 | 18.2 Mbytes
Step Temp Press TotEng PotEng Enthalpy Volume 
   70682     172.7662   -142.42671   -88264.997   -88703.839   -88297.391    364403.17 
   70702    172.02455   -58.586256   -88267.634   -88704.592   -88280.958    364376.86 
   71177    135.08047    95.091332   -88478.768   -88821.885    -88457.17    363903.89 
Loop time of 56.4417 on 1 procs for 495 steps with 19652 atoms

Performance: 0.758 ns/day, 31.673 hours/ns, 8.770 timesteps/s
100.0% CPU use with 1 MPI tasks x no OpenMP threads

MPI task timing breakdown:
Section |  min time  |  avg time  |  max time  |%varavg| %total
---------------------------------------------------------------
Pair    | 30.244     | 30.244     | 30.244     |   0.0 | 53.58
Neigh   | 24.907     | 24.907     | 24.907     |   0.0 | 44.13
Comm    | 0.4301     | 0.4301     | 0.4301     |   0.0 |  0.76
Output  | 0.039025   | 0.039025   | 0.039025   |   0.0 |  0.07
Modify  | 0.65832    | 0.65832    | 0.65832    |   0.0 |  1.17
Other   |            | 0.163      |            |       |  0.29

Nlocal:    19652 ave 19652 max 19652 min
Histogram: 1 0 0 0 0 0 0 0 0 0
Nghost:    17639 ave 17639 max 17639 min
Histogram: 1 0 0 0 0 0 0 0 0 0
Neighs:    1.35778e+06 ave 1.35778e+06 max 1.35778e+06 min
Histogram: 1 0 0 0 0 0 0 0 0 0

Total # of neighbors = 1357777
Ave neighs/atom = 69.091
Neighbor list builds = 495
Dangerous builds not checked
Setting up Verlet run ...
  Unit style    : metal
  Current step  : 71177
  Time step     : 0.001
Per MPI rank memory allocation (min/avg/max) = 18.2 | 18.2 | 18.2 Mbytes
Step Temp Press TotEng PotEng Enthalpy Volume 
   71177    135.08047    95.091332   -88478.768   -88821.885    -88457.17    363903.89 
   71349    123.40922   -154.74855   -88535.071   -88848.541   -88570.215    363862.63 
Loop time of 19.7323 on 1 procs for 172 steps with 19652 atoms

Performance: 0.753 ns/day, 31.867 hours/ns, 8.717 timesteps/s
100.0% CPU use with 1 MPI tasks x no OpenMP threads

MPI task timing breakdown:
Section |  min time  |  avg time  |  max time  |%varavg| %total
---------------------------------------------------------------
Pair    | 10.619     | 10.619     | 10.619     |   0.0 | 53.82
Neigh   | 8.6681     | 8.6681     | 8.6681     |   0.0 | 43.93
Comm    | 0.15366    | 0.15366    | 0.15366    |   0.0 |  0.78
Output  | 0.00013685 | 0.00013685 | 0.00013685 |   0.0 |  0.00
Modify  | 0.23177    | 0.23177    | 0.23177    |   0.0 |  1.17
Other   |            | 0.05964    |            |       |  0.30

Nlocal:    19652 ave 19652 max 19652 min
Histogram: 1 0 0 0 0 0 0 0 0 0
Nghost:    17628 ave 17628 max 17628 min
Histogram: 1 0 0 0 0 0 0 0 0 0
Neighs:    1.35753e+06 ave 1.35753e+06 max 1.35753e+06 min
Histogram: 1 0 0 0 0 0 0 0 0 0

Total # of neighbors = 1357527
Ave neighs/atom = 69.0783
Neighbor list builds = 172
Dangerous builds not checked
Total wall time: 2:42:28
