LAMMPS (12 Dec 2018)
Lattice spacing in x,y,z = 4 4 4
Created orthogonal box = (0 0 0) to (68 68 68)
  1 by 2 by 3 MPI processor grid
Created 19652 atoms
  Time spent = 0.000812054 secs
Setting atom values ...
  0 settings made for type/fraction
Neighbor list info ...
  update every 1 steps, delay 0 steps, check no
  max neighbors/atom: 2000, page size: 100000
  master list distance cutoff = 8.5
  ghost atom cutoff = 8.5
  binsize = 4.25, bins = 16 16 16
  1 neighbor lists, perpetual/occasional/extra = 1 0 0
  (1) pair eam/alloy, perpetual
      attributes: half, newton on
      pair build: half/bin/atomonly/newton
      stencil: half/bin/3d/newton
      bin: standard
Setting up Verlet run ...
  Unit style    : metal
  Current step  : 0
  Time step     : 0.001
Per MPI rank memory allocation (min/avg/max) = 5.546 | 5.705 | 5.983 Mbytes
Step Temp Press TotEng PotEng Enthalpy 
       0          300    269835.24   -20946.227   -21708.254    32009.758 
    1000    151.04973    268460.43   -20945.987   -21329.667    31740.187 
Loop time of 33.5811 on 6 procs for 1000 steps with 19652 atoms

Performance: 2.573 ns/day, 9.328 hours/ns, 29.779 timesteps/s
99.8% CPU use with 6 MPI tasks x no OpenMP threads

MPI task timing breakdown:
Section |  min time  |  avg time  |  max time  |%varavg| %total
---------------------------------------------------------------
Pair    | 19.199     | 19.351     | 19.641     |   3.2 | 57.62
Neigh   | 9.8685     | 10.775     | 12.314     |  24.8 | 32.09
Comm    | 1.733      | 3.3063     | 4.2894     |  46.8 |  9.85
Output  | 0.00011897 | 0.00013435 | 0.00017095 |   0.0 |  0.00
Modify  | 0.063907   | 0.071508   | 0.084915   |   2.6 |  0.21
Other   |            | 0.07753    |            |       |  0.23

Nlocal:    3275.33 ave 3356 max 3159 min
Histogram: 1 0 1 0 0 0 0 3 0 1
Nghost:    7718.5 ave 7872 max 7423 min
Histogram: 2 0 0 0 0 0 0 0 1 3
Neighs:    262540 ave 270077 max 252571 min
Histogram: 1 0 1 0 0 1 1 0 0 2

Total # of neighbors = 1575242
Ave neighs/atom = 80.1568
Neighbor list builds = 1000
Dangerous builds not checked
Setting up Verlet run ...
  Unit style    : metal
  Current step  : 1000
  Time step     : 0.001
Per MPI rank memory allocation (min/avg/max) = 5.548 | 5.835 | 5.983 Mbytes
Step Temp Press TotEng PotEng Enthalpy 
    1000    151.04973    268460.43   -20945.987   -21329.667    31740.187 
    2000    254.31185    332.40393   -28379.403   -29025.379   -28284.965 
Loop time of 27.5054 on 6 procs for 1000 steps with 19652 atoms

Performance: 3.141 ns/day, 7.640 hours/ns, 36.357 timesteps/s
99.6% CPU use with 6 MPI tasks x no OpenMP threads

MPI task timing breakdown:
Section |  min time  |  avg time  |  max time  |%varavg| %total
---------------------------------------------------------------
Pair    | 14.407     | 14.55      | 14.698     |   2.7 | 52.90
Neigh   | 10.15      | 10.747     | 11.464     |  13.1 | 39.07
Comm    | 0.86265    | 1.7473     | 2.4427     |  37.3 |  6.35
Output  | 9.6083e-05 | 0.00011671 | 0.0001781  |   0.0 |  0.00
Modify  | 0.36382    | 0.37303    | 0.3861     |   1.2 |  1.36
Other   |            | 0.08745    |            |       |  0.32

Nlocal:    3275.33 ave 3336 max 3178 min
Histogram: 2 0 0 0 0 0 0 0 2 2
Nghost:    6058.67 ave 6170 max 5996 min
Histogram: 4 0 0 0 0 0 0 0 0 2
Neighs:    186332 ave 189524 max 180889 min
Histogram: 1 1 0 0 0 0 0 0 2 2

Total # of neighbors = 1117989
Ave neighs/atom = 56.8893
Neighbor list builds = 1000
Dangerous builds not checked
Setting up Verlet run ...
  Unit style    : metal
  Current step  : 2000
  Time step     : 0.001
Per MPI rank memory allocation (min/avg/max) = 5.548 | 5.835 | 5.983 Mbytes
Step Temp Press TotEng PotEng Enthalpy 
    2000    254.31185    332.40393   -28379.403   -29025.379   -28284.965 
   10000    2427.7893   -35.848229   -14165.743   -20332.549   -14180.384 
Loop time of 186.05 on 6 procs for 8000 steps with 19652 atoms

Performance: 3.715 ns/day, 6.460 hours/ns, 42.999 timesteps/s
99.5% CPU use with 6 MPI tasks x no OpenMP threads

MPI task timing breakdown:
Section |  min time  |  avg time  |  max time  |%varavg| %total
---------------------------------------------------------------
Pair    | 97.03      | 97.737     | 98.455     |   5.5 | 52.53
Neigh   | 73.247     | 74.168     | 75.686     |   9.6 | 39.86
Comm    | 9.6497     | 10.812     | 11.425     |  17.2 |  5.81
Output  | 0.00010395 | 0.00014317 | 0.00031805 |   0.0 |  0.00
Modify  | 2.6426     | 2.6677     | 2.6822     |   0.8 |  1.43
Other   |            | 0.6644     |            |       |  0.36

Nlocal:    3275.33 ave 3303 max 3237 min
Histogram: 1 0 0 1 0 0 2 0 1 1
Nghost:    5380.33 ave 5412 max 5358 min
Histogram: 2 1 0 0 1 0 0 1 0 1
Neighs:    125007 ave 127769 max 122461 min
Histogram: 1 1 1 0 0 0 1 0 1 1

Total # of neighbors = 750040
Ave neighs/atom = 38.1661
Neighbor list builds = 8000
Dangerous builds not checked
Setting up Verlet run ...
  Unit style    : metal
  Current step  : 10000
  Time step     : 0.001
Per MPI rank memory allocation (min/avg/max) = 5.554 | 5.841 | 5.989 Mbytes
Step Temp Press TotEng PotEng Enthalpy 
   10000    2427.7893   -35.848229   -14165.743   -20332.549   -14180.384 
   40000    2467.9021   -31.821709   -13960.227   -20228.923   -13973.334 
Loop time of 629.493 on 6 procs for 30000 steps with 19652 atoms

Performance: 4.118 ns/day, 5.829 hours/ns, 47.657 timesteps/s
99.6% CPU use with 6 MPI tasks x no OpenMP threads

MPI task timing breakdown:
Section |  min time  |  avg time  |  max time  |%varavg| %total
---------------------------------------------------------------
Pair    | 317.31     | 319.7      | 321.66     |   9.7 | 50.79
Neigh   | 259.52     | 261.39     | 263.63     |   8.8 | 41.52
Comm    | 31.844     | 35.169     | 39.227     |  46.3 |  5.59
Output  | 7.2956e-05 | 8.7619e-05 | 0.00014997 |   0.0 |  0.00
Modify  | 10.338     | 10.788     | 11.02      |   9.1 |  1.71
Other   |            | 2.439      |            |       |  0.39

Nlocal:    3275.33 ave 3317 max 3227 min
Histogram: 1 0 0 0 2 0 2 0 0 1
Nghost:    5337.83 ave 5402 max 5283 min
Histogram: 1 1 0 1 1 0 0 0 1 1
Neighs:    123942 ave 128467 max 121936 min
Histogram: 2 0 2 1 0 0 0 0 0 1

Total # of neighbors = 743655
Ave neighs/atom = 37.8412
Neighbor list builds = 30000
Dangerous builds not checked
Setting up Verlet run ...
  Unit style    : metal
  Current step  : 40000
  Time step     : 0.001
Per MPI rank memory allocation (min/avg/max) = 5.554 | 5.841 | 5.989 Mbytes
Step Temp Press TotEng PotEng Enthalpy 
   40000    2467.9021   -31.821709   -13960.227   -20228.923   -13973.334 
   40495    2409.9223    -77.07188   -14204.061   -20325.483   -14235.595 
Loop time of 9.79694 on 6 procs for 495 steps with 19652 atoms

Performance: 4.365 ns/day, 5.498 hours/ns, 50.526 timesteps/s
99.9% CPU use with 6 MPI tasks x no OpenMP threads

MPI task timing breakdown:
Section |  min time  |  avg time  |  max time  |%varavg| %total
---------------------------------------------------------------
Pair    | 4.8816     | 4.9389     | 5.0251     |   2.3 | 50.41
Neigh   | 4.1916     | 4.2577     | 4.3202     |   2.2 | 43.46
Comm    | 0.35536    | 0.39735    | 0.50779    |   8.1 |  4.06
Output  | 5.4836e-05 | 6.5287e-05 | 0.00011396 |   0.0 |  0.00
Modify  | 0.15928    | 0.16135    | 0.16414    |   0.4 |  1.65
Other   |            | 0.04158    |            |       |  0.42

Nlocal:    3275.33 ave 3323 max 3229 min
Histogram: 2 0 0 1 0 0 1 1 0 1
Nghost:    5376.33 ave 5431 max 5346 min
Histogram: 3 0 0 1 0 0 1 0 0 1
Neighs:    124762 ave 129072 max 121063 min
Histogram: 1 0 0 1 1 2 0 0 0 1

Total # of neighbors = 748569
Ave neighs/atom = 38.0912
Neighbor list builds = 495
Dangerous builds not checked
Setting up Verlet run ...
  Unit style    : metal
  Current step  : 40495
  Time step     : 0.001
Per MPI rank memory allocation (min/avg/max) = 5.554 | 5.841 | 5.989 Mbytes
Step Temp Press TotEng PotEng Enthalpy 
   40495    2409.9223    -77.07188   -14204.061   -20325.483   -14235.595 
   66667    2394.3514    527.57952   -14456.786   -20538.656   -14243.721 
  106667    2393.0351    248.98415   -14386.499   -20465.026   -14285.637 
Loop time of 1355.16 on 6 procs for 66172 steps with 19652 atoms

Performance: 4.219 ns/day, 5.689 hours/ns, 48.830 timesteps/s
99.7% CPU use with 6 MPI tasks x no OpenMP threads

MPI task timing breakdown:
Section |  min time  |  avg time  |  max time  |%varavg| %total
---------------------------------------------------------------
Pair    | 685.77     | 690.18     | 694.45     |  12.6 | 50.93
Neigh   | 541.28     | 545.92     | 550.28     |  13.6 | 40.28
Comm    | 86.11      | 92.575     | 100.22     |  50.3 |  6.83
Output  | 0.016717   | 0.016744   | 0.016839   |   0.0 |  0.00
Modify  | 21.108     | 21.244     | 21.365     |   1.7 |  1.57
Other   |            | 5.228      |            |       |  0.39

Nlocal:    3275.33 ave 3331 max 3226 min
Histogram: 2 1 0 0 0 0 0 1 1 1
Nghost:    5367.5 ave 5404 max 5321 min
Histogram: 2 0 0 0 0 0 2 0 0 2
Neighs:    126160 ave 130284 max 122116 min
Histogram: 2 0 1 0 0 0 0 0 2 1

Total # of neighbors = 756963
Ave neighs/atom = 38.5184
Neighbor list builds = 66172
Dangerous builds not checked
Setting up Verlet run ...
  Unit style    : metal
  Current step  : 106667
  Time step     : 0.001
Per MPI rank memory allocation (min/avg/max) = 5.572 | 5.86 | 6.006 Mbytes
Step Temp Press TotEng PotEng Enthalpy 
  106667    2393.0351    248.98415   -14386.499   -20465.026   -14285.637 
  107162    2368.6373   -72.538902   -14557.849   -20574.404   -14587.147 
Loop time of 9.50265 on 6 procs for 495 steps with 19652 atoms

Performance: 4.501 ns/day, 5.333 hours/ns, 52.091 timesteps/s
99.6% CPU use with 6 MPI tasks x no OpenMP threads

MPI task timing breakdown:
Section |  min time  |  avg time  |  max time  |%varavg| %total
---------------------------------------------------------------
Pair    | 4.7405     | 4.8085     | 4.8834     |   2.4 | 50.60
Neigh   | 3.664      | 3.8463     | 4.0786     |   8.6 | 40.48
Comm    | 0.47867    | 0.65078    | 0.81753    |  16.7 |  6.85
Output  | 5.0068e-05 | 6.2386e-05 | 0.00011301 |   0.0 |  0.00
Modify  | 0.15157    | 0.15761    | 0.16363    |   1.3 |  1.66
Other   |            | 0.0394     |            |       |  0.41

Nlocal:    3275.33 ave 3309 max 3239 min
Histogram: 1 0 0 2 0 1 0 0 0 2
Nghost:    5408.33 ave 5469 max 5380 min
Histogram: 2 1 1 0 1 0 0 0 0 1
Neighs:    126322 ave 129290 max 124026 min
Histogram: 1 1 1 0 0 1 1 0 0 1

Total # of neighbors = 757931
Ave neighs/atom = 38.5676
Neighbor list builds = 495
Dangerous builds not checked
Setting up Verlet run ...
  Unit style    : metal
  Current step  : 107162
  Time step     : 0.001
Per MPI rank memory allocation (min/avg/max) = 5.572 | 5.86 | 6.006 Mbytes
Step Temp Press TotEng PotEng Enthalpy 
  107162    2368.6373   -72.538902   -14557.849   -20574.404   -14587.147 
  133334    2335.9236    142.40241   -14717.251    -20650.71   -14660.286 
  173334    2362.3728   -77.124105    -14611.28   -20611.922    -14642.38 
Loop time of 1339.84 on 6 procs for 66172 steps with 19652 atoms

Performance: 4.267 ns/day, 5.624 hours/ns, 49.388 timesteps/s
99.9% CPU use with 6 MPI tasks x no OpenMP threads

MPI task timing breakdown:
Section |  min time  |  avg time  |  max time  |%varavg| %total
---------------------------------------------------------------
Pair    | 680.89     | 683.53     | 688.65     |  10.4 | 51.02
Neigh   | 522.72     | 532.98     | 550.56     |  38.8 | 39.78
Comm    | 82.19      | 97.571     | 105.13     |  82.4 |  7.28
Output  | 0.01426    | 0.014283   | 0.014365   |   0.0 |  0.00
Modify  | 20.351     | 20.611     | 20.935     |   3.8 |  1.54
Other   |            | 5.138      |            |       |  0.38

Nlocal:    3275.33 ave 3312 max 3247 min
Histogram: 1 0 1 2 0 0 1 0 0 1
Nghost:    5385.33 ave 5438 max 5327 min
Histogram: 1 1 0 0 0 1 1 0 1 1
Neighs:    126706 ave 130350 max 124669 min
Histogram: 1 1 2 0 0 1 0 0 0 1

Total # of neighbors = 760233
Ave neighs/atom = 38.6848
Neighbor list builds = 66172
Dangerous builds not checked
Setting up Verlet run ...
  Unit style    : metal
  Current step  : 173334
  Time step     : 0.001
Per MPI rank memory allocation (min/avg/max) = 5.572 | 5.86 | 6.006 Mbytes
Step Temp Press TotEng PotEng Enthalpy 
  173334    2362.3728   -77.124105    -14611.28   -20611.922    -14642.38 
  173829    2304.8586    118.06146   -14827.647   -20682.198    -14780.39 
Loop time of 9.43347 on 6 procs for 495 steps with 19652 atoms

Performance: 4.534 ns/day, 5.294 hours/ns, 52.473 timesteps/s
99.9% CPU use with 6 MPI tasks x no OpenMP threads

MPI task timing breakdown:
Section |  min time  |  avg time  |  max time  |%varavg| %total
---------------------------------------------------------------
Pair    | 4.6874     | 4.7644     | 4.8864     |   3.3 | 50.51
Neigh   | 3.5861     | 3.8552     | 4.1623     |  12.7 | 40.87
Comm    | 0.39061    | 0.62877    | 0.86661    |  24.7 |  6.67
Output  | 5.1022e-05 | 6.187e-05  | 0.0001061  |   0.0 |  0.00
Modify  | 0.14269    | 0.14763    | 0.15353    |   1.2 |  1.56
Other   |            | 0.03748    |            |       |  0.40

Nlocal:    3275.33 ave 3300 max 3257 min
Histogram: 1 1 0 2 0 0 1 0 0 1
Nghost:    5414.83 ave 5471 max 5329 min
Histogram: 1 0 0 1 0 1 0 0 2 1
Neighs:    127524 ave 130101 max 125013 min
Histogram: 1 0 0 2 1 0 0 1 0 1

Total # of neighbors = 765143
Ave neighs/atom = 38.9346
Neighbor list builds = 495
Dangerous builds not checked
Setting up Verlet run ...
  Unit style    : metal
  Current step  : 173829
  Time step     : 0.001
Per MPI rank memory allocation (min/avg/max) = 5.572 | 5.86 | 6.006 Mbytes
Step Temp Press TotEng PotEng Enthalpy 
  173829    2304.8586    118.06146   -14827.647   -20682.198    -14780.39 
  200001    2302.1866    322.52446   -14988.566    -20836.33   -14860.676 
  240001    2299.4114   -388.72301   -14897.033   -20737.747   -15052.373 
Loop time of 1330.32 on 6 procs for 66172 steps with 19652 atoms

Performance: 4.298 ns/day, 5.584 hours/ns, 49.741 timesteps/s
99.9% CPU use with 6 MPI tasks x no OpenMP threads

MPI task timing breakdown:
Section |  min time  |  avg time  |  max time  |%varavg| %total
---------------------------------------------------------------
Pair    | 676.59     | 680.39     | 685.96     |  12.1 | 51.15
Neigh   | 517.08     | 527.97     | 539.44     |  36.6 | 39.69
Comm    | 85.596     | 96.468     | 104.69     |  80.3 |  7.25
Output  | 0.015732   | 0.015753   | 0.015841   |   0.0 |  0.00
Modify  | 20.148     | 20.465     | 20.684     |   3.9 |  1.54
Other   |            | 5.006      |            |       |  0.38

Nlocal:    3275.33 ave 3297 max 3229 min
Histogram: 1 1 0 0 0 0 0 0 0 4
Nghost:    5449.17 ave 5485 max 5409 min
Histogram: 1 0 1 1 0 0 1 0 0 2
Neighs:    127658 ave 130982 max 122263 min
Histogram: 1 0 0 1 0 0 1 1 0 2

Total # of neighbors = 765945
Ave neighs/atom = 38.9754
Neighbor list builds = 66172
Dangerous builds not checked
Setting up Verlet run ...
  Unit style    : metal
  Current step  : 240001
  Time step     : 0.001
Per MPI rank memory allocation (min/avg/max) = 5.573 | 5.861 | 6.006 Mbytes
Step Temp Press TotEng PotEng Enthalpy 
  240001    2299.4114   -388.72301   -14897.033   -20737.747   -15052.373 
  240496    2268.0071     69.37037   -15169.558   -20930.503   -15142.115 
Loop time of 9.94608 on 6 procs for 495 steps with 19652 atoms

Performance: 4.300 ns/day, 5.581 hours/ns, 49.768 timesteps/s
99.1% CPU use with 6 MPI tasks x no OpenMP threads

MPI task timing breakdown:
Section |  min time  |  avg time  |  max time  |%varavg| %total
---------------------------------------------------------------
Pair    | 5.2184     | 5.2787     | 5.3327     |   1.7 | 53.07
Neigh   | 3.6089     | 3.858      | 4.1202     |  10.0 | 38.79
Comm    | 0.37688    | 0.62326    | 0.83817    |  21.2 |  6.27
Output  | 6.1989e-05 | 9.2427e-05 | 0.0002389  |   0.0 |  0.00
Modify  | 0.14155    | 0.14805    | 0.155      |   1.3 |  1.49
Other   |            | 0.03803    |            |       |  0.38

Nlocal:    3275.33 ave 3312 max 3235 min
Histogram: 1 0 0 2 0 0 1 1 0 1
Nghost:    5474.83 ave 5514 max 5461 min
Histogram: 3 1 1 0 0 0 0 0 0 1
Neighs:    129128 ave 133245 max 126512 min
Histogram: 2 0 1 0 1 1 0 0 0 1

Total # of neighbors = 774771
Ave neighs/atom = 39.4245
Neighbor list builds = 495
Dangerous builds not checked
Setting up Verlet run ...
  Unit style    : metal
  Current step  : 240496
  Time step     : 0.001
Per MPI rank memory allocation (min/avg/max) = 5.573 | 5.861 | 6.006 Mbytes
Step Temp Press TotEng PotEng Enthalpy 
  240496    2268.0071     69.37037   -15169.558   -20930.503   -15142.115 
  266668    2245.5525    -271.5864   -15305.743   -21009.651   -15412.773 
  306668    2258.4335   -289.74529   -15249.054   -20985.681   -15363.307 
Loop time of 1352.4 on 6 procs for 66172 steps with 19652 atoms

Performance: 4.227 ns/day, 5.677 hours/ns, 48.929 timesteps/s
99.7% CPU use with 6 MPI tasks x no OpenMP threads

MPI task timing breakdown:
Section |  min time  |  avg time  |  max time  |%varavg| %total
---------------------------------------------------------------
Pair    | 683.45     | 690.35     | 695.73     |  18.4 | 51.05
Neigh   | 523.68     | 531.25     | 538.68     |  22.2 | 39.28
Comm    | 91.087     | 102.1      | 108.52     |  61.4 |  7.55
Output  | 0.76299    | 0.76303    | 0.76322    |   0.0 |  0.06
Modify  | 22.022     | 22.831     | 23.525     |  10.6 |  1.69
Other   |            | 5.102      |            |       |  0.38

Nlocal:    3275.33 ave 3290 max 3259 min
Histogram: 1 1 0 0 0 1 1 0 1 1
Nghost:    5487.67 ave 5529 max 5457 min
Histogram: 2 0 1 0 1 0 0 0 1 1
Neighs:    129395 ave 130702 max 126770 min
Histogram: 1 0 0 0 0 0 2 1 0 2

Total # of neighbors = 776369
Ave neighs/atom = 39.5059
Neighbor list builds = 66172
Dangerous builds not checked
Setting up Verlet run ...
  Unit style    : metal
  Current step  : 306668
  Time step     : 0.001
Per MPI rank memory allocation (min/avg/max) = 5.573 | 5.861 | 6.006 Mbytes
Step Temp Press TotEng PotEng Enthalpy 
  306668    2258.4335   -289.74529   -15249.054   -20985.681   -15363.307 
  307163    2215.3239    99.709001   -15480.634   -21107.759   -15441.623 
Loop time of 9.26118 on 6 procs for 495 steps with 19652 atoms

Performance: 4.618 ns/day, 5.197 hours/ns, 53.449 timesteps/s
99.9% CPU use with 6 MPI tasks x no OpenMP threads

MPI task timing breakdown:
Section |  min time  |  avg time  |  max time  |%varavg| %total
---------------------------------------------------------------
Pair    | 4.5944     | 4.7038     | 4.7917     |   3.0 | 50.79
Neigh   | 3.5524     | 3.7288     | 4.0061     |  10.1 | 40.26
Comm    | 0.41305    | 0.64474    | 0.83553    |  19.0 |  6.96
Output  | 7.7963e-05 | 9.3857e-05 | 0.00016189 |   0.0 |  0.00
Modify  | 0.14038    | 0.1459     | 0.15414    |   1.5 |  1.58
Other   |            | 0.03786    |            |       |  0.41

Nlocal:    3275.33 ave 3295 max 3253 min
Histogram: 1 1 0 0 1 0 0 1 1 1
Nghost:    5462.17 ave 5478 max 5419 min
Histogram: 1 0 0 0 0 0 0 1 2 2
Neighs:    130547 ave 132337 max 127997 min
Histogram: 1 0 1 0 1 0 0 0 1 2

Total # of neighbors = 783282
Ave neighs/atom = 39.8576
Neighbor list builds = 495
Dangerous builds not checked
Setting up Verlet run ...
  Unit style    : metal
  Current step  : 307163
  Time step     : 0.001
Per MPI rank memory allocation (min/avg/max) = 5.573 | 5.861 | 6.006 Mbytes
Step Temp Press TotEng PotEng Enthalpy 
  307163    2215.3239    99.709001   -15480.634   -21107.759   -15441.623 
  333335    2199.7409   -14.331095   -15618.868    -21206.41   -15624.441 
  373335     2188.336   -470.12604   -15657.907    -21216.48   -15841.195 
Loop time of 1342.65 on 6 procs for 66172 steps with 19652 atoms

Performance: 4.258 ns/day, 5.636 hours/ns, 49.285 timesteps/s
99.8% CPU use with 6 MPI tasks x no OpenMP threads

MPI task timing breakdown:
Section |  min time  |  avg time  |  max time  |%varavg| %total
---------------------------------------------------------------
Pair    | 687.37     | 690.64     | 695.46     |  12.3 | 51.44
Neigh   | 512.54     | 524.92     | 537.93     |  34.1 | 39.10
Comm    | 90.587     | 101.6      | 109.57     |  64.2 |  7.57
Output  | 0.015323   | 0.015353   | 0.015425   |   0.0 |  0.00
Modify  | 20.15      | 20.421     | 20.71      |   3.8 |  1.52
Other   |            | 5.056      |            |       |  0.38

Nlocal:    3275.33 ave 3315 max 3252 min
Histogram: 2 0 0 2 1 0 0 0 0 1
Nghost:    5486.67 ave 5508 max 5429 min
Histogram: 1 0 0 0 0 0 1 0 1 3
Neighs:    130838 ave 135123 max 128553 min
Histogram: 3 0 0 0 1 1 0 0 0 1

Total # of neighbors = 785026
Ave neighs/atom = 39.9464
Neighbor list builds = 66172
Dangerous builds not checked
Setting up Verlet run ...
  Unit style    : metal
  Current step  : 373335
  Time step     : 0.001
Per MPI rank memory allocation (min/avg/max) = 5.573 | 5.861 | 6.006 Mbytes
Step Temp Press TotEng PotEng Enthalpy 
  373335     2188.336   -470.12604   -15657.907    -21216.48   -15841.195 
  373830    2160.3525    286.10585   -15858.193   -21345.685   -15747.598 
Loop time of 10.166 on 6 procs for 495 steps with 19652 atoms

Performance: 4.207 ns/day, 5.705 hours/ns, 48.692 timesteps/s
99.9% CPU use with 6 MPI tasks x no OpenMP threads

MPI task timing breakdown:
Section |  min time  |  avg time  |  max time  |%varavg| %total
---------------------------------------------------------------
Pair    | 5.1902     | 5.2408     | 5.3038     |   1.5 | 51.55
Neigh   | 3.4927     | 3.847      | 4.236      |  15.1 | 37.84
Comm    | 0.53381    | 0.88131    | 1.221      |  29.3 |  8.67
Output  | 0.00014615 | 0.00016638 | 0.00024009 |   0.0 |  0.00
Modify  | 0.14974    | 0.15769    | 0.16484    |   1.2 |  1.55
Other   |            | 0.03901    |            |       |  0.38

Nlocal:    3275.33 ave 3286 max 3267 min
Histogram: 1 1 1 0 0 1 1 0 0 1
Nghost:    5487.67 ave 5523 max 5458 min
Histogram: 1 0 2 1 0 0 0 0 0 2
Neighs:    132076 ave 133506 max 130033 min
Histogram: 1 1 0 0 0 0 1 1 0 2

Total # of neighbors = 792458
Ave neighs/atom = 40.3245
Neighbor list builds = 495
Dangerous builds not checked
Setting up Verlet run ...
  Unit style    : metal
  Current step  : 373830
  Time step     : 0.001
Per MPI rank memory allocation (min/avg/max) = 5.573 | 5.861 | 6.006 Mbytes
Step Temp Press TotEng PotEng Enthalpy 
  373830    2160.3525    286.10585   -15858.193   -21345.685   -15747.598 
  400002    2169.0302    -79.60505   -15821.681   -21331.215    -15852.49 
  440002    2135.4221    321.43383   -16066.976   -21491.143   -15943.981 
Loop time of 1338.44 on 6 procs for 66172 steps with 19652 atoms

Performance: 4.272 ns/day, 5.619 hours/ns, 49.440 timesteps/s
99.8% CPU use with 6 MPI tasks x no OpenMP threads

MPI task timing breakdown:
Section |  min time  |  avg time  |  max time  |%varavg| %total
---------------------------------------------------------------
Pair    | 683.95     | 689.2      | 693.25     |  12.5 | 51.49
Neigh   | 511.05     | 517.11     | 529.15     |  25.8 | 38.64
Comm    | 96.173     | 107.58     | 114.59     |  58.0 |  8.04
Output  | 0.014862   | 0.014887   | 0.014988   |   0.0 |  0.00
Modify  | 19.489     | 19.651     | 19.823     |   2.8 |  1.47
Other   |            | 4.88       |            |       |  0.36

Nlocal:    3275.33 ave 3299 max 3254 min
Histogram: 1 0 0 2 1 0 0 1 0 1
Nghost:    5498 ave 5547 max 5458 min
Histogram: 2 0 0 1 1 0 0 1 0 1
Neighs:    133435 ave 135590 max 131062 min
Histogram: 1 0 1 0 0 1 1 1 0 1

Total # of neighbors = 800610
Ave neighs/atom = 40.7394
Neighbor list builds = 66172
Dangerous builds not checked
Setting up Verlet run ...
  Unit style    : metal
  Current step  : 440002
  Time step     : 0.001
Per MPI rank memory allocation (min/avg/max) = 5.577 | 5.864 | 6.008 Mbytes
Step Temp Press TotEng PotEng Enthalpy 
  440002    2135.4221    321.43383   -16066.976   -21491.143   -15943.981 
  440497    2096.4049   -463.93428   -16140.905   -21465.964    -16319.36 
Loop time of 9.71999 on 6 procs for 495 steps with 19652 atoms

Performance: 4.400 ns/day, 5.455 hours/ns, 50.926 timesteps/s
99.9% CPU use with 6 MPI tasks x no OpenMP threads

MPI task timing breakdown:
Section |  min time  |  avg time  |  max time  |%varavg| %total
---------------------------------------------------------------
Pair    | 4.8471     | 4.9555     | 5.0238     |   2.6 | 50.98
Neigh   | 3.5453     | 3.8722     | 4.1892     |  11.8 | 39.84
Comm    | 0.49172    | 0.7119     | 0.99761    |  22.1 |  7.32
Output  | 5.3883e-05 | 6.4333e-05 | 0.000108   |   0.0 |  0.00
Modify  | 0.13596    | 0.14407    | 0.15291    |   1.6 |  1.48
Other   |            | 0.03632    |            |       |  0.37

Nlocal:    3275.33 ave 3311 max 3247 min
Histogram: 1 0 1 2 0 0 0 1 0 1
Nghost:    5507.67 ave 5541 max 5472 min
Histogram: 2 0 1 0 0 0 0 0 1 2
Neighs:    132643 ave 135069 max 130909 min
Histogram: 2 0 0 0 2 1 0 0 0 1

Total # of neighbors = 795860
Ave neighs/atom = 40.4977
Neighbor list builds = 495
Dangerous builds not checked
Setting up Verlet run ...
  Unit style    : metal
  Current step  : 440497
  Time step     : 0.001
Per MPI rank memory allocation (min/avg/max) = 5.577 | 5.864 | 6.008 Mbytes
Step Temp Press TotEng PotEng Enthalpy 
  440497    2096.4049   -463.93428   -16140.905   -21465.964    -16319.36 
  466669    2100.5273   -208.79548   -16242.139   -21577.669   -16321.901 
  506669    2065.0841    146.35877   -16327.064   -21572.566   -16271.273 
Loop time of 1364.6 on 6 procs for 66172 steps with 19652 atoms

Performance: 4.190 ns/day, 5.728 hours/ns, 48.492 timesteps/s
99.9% CPU use with 6 MPI tasks x no OpenMP threads

MPI task timing breakdown:
Section |  min time  |  avg time  |  max time  |%varavg| %total
---------------------------------------------------------------
Pair    | 693.73     | 696.15     | 699.51     |   8.9 | 51.01
Neigh   | 502.82     | 531.09     | 542.76     |  56.9 | 38.92
Comm    | 99.994     | 113.51     | 139.05     | 114.8 |  8.32
Output  | 0.015615   | 0.015636   | 0.015709   |   0.0 |  0.00
Modify  | 18.638     | 19.115     | 19.331     |   5.1 |  1.40
Other   |            | 4.728      |            |       |  0.35

Nlocal:    3275.33 ave 3289 max 3255 min
Histogram: 1 0 0 0 0 2 1 0 1 1
Nghost:    5561.83 ave 5601 max 5526 min
Histogram: 1 1 0 0 0 2 1 0 0 1
Neighs:    133886 ave 135409 max 130541 min
Histogram: 1 0 0 0 0 1 1 0 0 3

Total # of neighbors = 803316
Ave neighs/atom = 40.8771
Neighbor list builds = 66172
Dangerous builds not checked
Setting up Verlet run ...
  Unit style    : metal
  Current step  : 506669
  Time step     : 0.001
Per MPI rank memory allocation (min/avg/max) = 5.577 | 5.864 | 6.008 Mbytes
Step Temp Press TotEng PotEng Enthalpy 
  506669    2065.0841    146.35877   -16327.064   -21572.566   -16271.273 
  507164    2062.6843   -184.90261   -16457.617   -21697.024    -16527.83 
Loop time of 9.43304 on 6 procs for 495 steps with 19652 atoms

Performance: 4.534 ns/day, 5.294 hours/ns, 52.475 timesteps/s
99.8% CPU use with 6 MPI tasks x no OpenMP threads

MPI task timing breakdown:
Section |  min time  |  avg time  |  max time  |%varavg| %total
---------------------------------------------------------------
Pair    | 4.6756     | 4.7929     | 4.8481     |   2.9 | 50.81
Neigh   | 3.4805     | 3.6425     | 4.1983     |  13.3 | 38.61
Comm    | 0.37083    | 0.82968    | 0.98908    |  22.9 |  8.80
Output  | 4.8161e-05 | 6.1075e-05 | 0.000108   |   0.0 |  0.00
Modify  | 0.12877    | 0.1339     | 0.149      |   1.9 |  1.42
Other   |            | 0.03393    |            |       |  0.36

Nlocal:    3275.33 ave 3323 max 3259 min
Histogram: 3 1 1 0 0 0 0 0 0 1
Nghost:    5551.17 ave 5568 max 5540 min
Histogram: 1 1 1 0 1 1 0 0 0 1
Neighs:    134352 ave 138784 max 131134 min
Histogram: 1 1 0 1 1 0 1 0 0 1

Total # of neighbors = 806109
Ave neighs/atom = 41.0192
Neighbor list builds = 495
Dangerous builds not checked
Setting up Verlet run ...
  Unit style    : metal
  Current step  : 507164
  Time step     : 0.001
Per MPI rank memory allocation (min/avg/max) = 5.577 | 5.864 | 6.008 Mbytes
Step Temp Press TotEng PotEng Enthalpy 
  507164    2062.6843   -184.90261   -16457.617   -21697.024    -16527.83 
  533336    2034.1765    340.53583   -16599.665   -21766.659   -16471.166 
  573336      2069.81   -913.46252   -16508.795   -21766.301   -16855.772 
Loop time of 1388.22 on 6 procs for 66172 steps with 19652 atoms

Performance: 4.118 ns/day, 5.827 hours/ns, 47.667 timesteps/s
99.7% CPU use with 6 MPI tasks x no OpenMP threads

MPI task timing breakdown:
Section |  min time  |  avg time  |  max time  |%varavg| %total
---------------------------------------------------------------
Pair    | 704.05     | 708.5      | 712.46     |  10.2 | 51.04
Neigh   | 517.48     | 533.27     | 546.45     |  43.0 | 38.41
Comm    | 107.35     | 122.01     | 136.34     |  87.4 |  8.79
Output  | 0.01584    | 0.015865   | 0.015971   |   0.0 |  0.00
Modify  | 19.373     | 19.69      | 20.073     |   6.0 |  1.42
Other   |            | 4.733      |            |       |  0.34

Nlocal:    3275.33 ave 3307 max 3254 min
Histogram: 1 2 0 0 0 1 1 0 0 1
Nghost:    5530 ave 5553 max 5483 min
Histogram: 1 0 0 0 0 0 1 1 2 1
Neighs:    134376 ave 137040 max 132143 min
Histogram: 1 0 2 0 1 0 0 0 1 1

Total # of neighbors = 806256
Ave neighs/atom = 41.0267
Neighbor list builds = 66172
Dangerous builds not checked
Setting up Verlet run ...
  Unit style    : metal
  Current step  : 573336
  Time step     : 0.001
Per MPI rank memory allocation (min/avg/max) = 5.577 | 5.864 | 6.008 Mbytes
Step Temp Press TotEng PotEng Enthalpy 
  573336      2069.81   -913.46252   -16508.795   -21766.301   -16855.772 
  573831    2024.6454   -74.516731   -16757.641   -21900.425   -16785.616 
Loop time of 10.1213 on 6 procs for 495 steps with 19652 atoms

Performance: 4.226 ns/day, 5.680 hours/ns, 48.907 timesteps/s
99.3% CPU use with 6 MPI tasks x no OpenMP threads

MPI task timing breakdown:
Section |  min time  |  avg time  |  max time  |%varavg| %total
---------------------------------------------------------------
Pair    | 5.0215     | 5.2014     | 5.3072     |   5.5 | 51.39
Neigh   | 3.5405     | 3.8128     | 4.4735     |  19.1 | 37.67
Comm    | 0.42818    | 0.93006    | 1.1479     |  27.5 |  9.19
Output  | 5.5075e-05 | 6.7234e-05 | 0.0001111  |   0.0 |  0.00
Modify  | 0.13569    | 0.14244    | 0.15833    |   2.4 |  1.41
Other   |            | 0.03456    |            |       |  0.34

Nlocal:    3275.33 ave 3298 max 3264 min
Histogram: 2 2 0 0 0 0 1 0 0 1
Nghost:    5579.17 ave 5623 max 5545 min
Histogram: 1 1 1 0 1 0 0 1 0 1
Neighs:    135930 ave 137465 max 133404 min
Histogram: 1 0 0 0 0 2 0 0 2 1

Total # of neighbors = 815583
Ave neighs/atom = 41.5013
Neighbor list builds = 495
Dangerous builds not checked
Setting up Verlet run ...
  Unit style    : metal
  Current step  : 573831
  Time step     : 0.001
Per MPI rank memory allocation (min/avg/max) = 5.577 | 5.864 | 6.008 Mbytes
Step Temp Press TotEng PotEng Enthalpy 
  573831    2024.6454   -74.516731   -16757.641   -21900.425   -16785.616 
  600003    2019.6365    453.20063   -16867.125   -21997.186   -16698.076 
  640003    1998.4773   -58.723192   -16779.756   -21856.071   -16801.832 
Loop time of 1387.75 on 6 procs for 66172 steps with 19652 atoms

Performance: 4.120 ns/day, 5.826 hours/ns, 47.683 timesteps/s
99.5% CPU use with 6 MPI tasks x no OpenMP threads

MPI task timing breakdown:
Section |  min time  |  avg time  |  max time  |%varavg| %total
---------------------------------------------------------------
Pair    | 708.74     | 715.59     | 721.48     |  17.0 | 51.56
Neigh   | 518.87     | 525.09     | 530.5      |  22.5 | 37.84
Comm    | 116.94     | 122.87     | 133.29     |  47.8 |  8.85
Output  | 0.015108   | 0.015135   | 0.015232   |   0.0 |  0.00
Modify  | 19.428     | 19.567     | 19.836     |   3.4 |  1.41
Other   |            | 4.618      |            |       |  0.33

Nlocal:    3275.33 ave 3297 max 3235 min
Histogram: 1 0 0 0 1 0 0 2 0 2
Nghost:    5575.83 ave 5615 max 5545 min
Histogram: 1 1 1 0 1 0 0 0 1 1
Neighs:    135785 ave 139496 max 131040 min
Histogram: 1 0 0 1 0 0 1 2 0 1

Total # of neighbors = 814710
Ave neighs/atom = 41.4568
Neighbor list builds = 66172
Dangerous builds not checked
Setting up Verlet run ...
  Unit style    : metal
  Current step  : 640003
  Time step     : 0.001
Per MPI rank memory allocation (min/avg/max) = 5.577 | 5.864 | 6.008 Mbytes
Step Temp Press TotEng PotEng Enthalpy 
  640003    1998.4773   -58.723192   -16779.756   -21856.071   -16801.832 
  640498    1959.2697    111.71923   -17035.762   -22012.485   -16994.095 
Loop time of 9.97058 on 6 procs for 495 steps with 19652 atoms

Performance: 4.289 ns/day, 5.595 hours/ns, 49.646 timesteps/s
99.9% CPU use with 6 MPI tasks x no OpenMP threads

MPI task timing breakdown:
Section |  min time  |  avg time  |  max time  |%varavg| %total
---------------------------------------------------------------
Pair    | 4.914      | 5.125      | 5.2023     |   4.4 | 51.40
Neigh   | 3.6269     | 3.8426     | 4.5206     |  15.6 | 38.54
Comm    | 0.34247    | 0.83074    | 1.0235     |  24.7 |  8.33
Output  | 5.1975e-05 | 6.481e-05  | 0.00011897 |   0.0 |  0.00
Modify  | 0.13312    | 0.13775    | 0.15367    |   1.9 |  1.38
Other   |            | 0.03441    |            |       |  0.35

Nlocal:    3275.33 ave 3303 max 3238 min
Histogram: 1 0 0 1 1 0 0 1 0 2
Nghost:    5574.5 ave 5600 max 5555 min
Histogram: 1 1 2 0 0 0 0 0 0 2
Neighs:    136900 ave 140012 max 131758 min
Histogram: 1 0 0 1 1 0 0 0 0 3

Total # of neighbors = 821399
Ave neighs/atom = 41.7972
Neighbor list builds = 495
Dangerous builds not checked
Setting up Verlet run ...
  Unit style    : metal
  Current step  : 640498
  Time step     : 0.001
Per MPI rank memory allocation (min/avg/max) = 5.577 | 5.864 | 6.008 Mbytes
Step Temp Press TotEng PotEng Enthalpy 
  640498    1959.2697    111.71923   -17035.762   -22012.485   -16994.095 
  666670    1955.6644   -203.18195   -17159.922   -22127.487   -17235.442 
  706670    1954.7339   -43.019199    -17119.11   -22084.313    -17135.11 
Loop time of 1376.51 on 6 procs for 66172 steps with 19652 atoms

Performance: 4.153 ns/day, 5.778 hours/ns, 48.072 timesteps/s
99.9% CPU use with 6 MPI tasks x no OpenMP threads

MPI task timing breakdown:
Section |  min time  |  avg time  |  max time  |%varavg| %total
---------------------------------------------------------------
Pair    | 700.45     | 707.77     | 713.2      |  16.3 | 51.42
Neigh   | 509.7      | 522.83     | 533.17     |  38.0 | 37.98
Comm    | 113.08     | 122.36     | 132.78     |  66.6 |  8.89
Output  | 0.016113   | 0.016131   | 0.016205   |   0.0 |  0.00
Modify  | 18.694     | 18.941     | 19.206     |   4.3 |  1.38
Other   |            | 4.594      |            |       |  0.33

Nlocal:    3275.33 ave 3296 max 3253 min
Histogram: 1 0 1 1 0 0 1 0 1 1
Nghost:    5604.33 ave 5634 max 5580 min
Histogram: 2 0 0 0 0 3 0 0 0 1
Neighs:    137266 ave 140306 max 134260 min
Histogram: 1 0 0 2 1 0 0 1 0 1

Total # of neighbors = 823597
Ave neighs/atom = 41.9091
Neighbor list builds = 66172
Dangerous builds not checked
Setting up Verlet run ...
  Unit style    : metal
  Current step  : 706670
  Time step     : 0.001
Per MPI rank memory allocation (min/avg/max) = 5.577 | 5.864 | 6.008 Mbytes
Step Temp Press TotEng PotEng Enthalpy 
  706670    1954.7339   -43.019199    -17119.11   -22084.313    -17135.11 
  707165    1904.8108     347.2742   -17357.982   -22196.375   -17229.718 
Loop time of 10.3264 on 6 procs for 495 steps with 19652 atoms

Performance: 4.142 ns/day, 5.795 hours/ns, 47.935 timesteps/s
98.5% CPU use with 6 MPI tasks x no OpenMP threads

MPI task timing breakdown:
Section |  min time  |  avg time  |  max time  |%varavg| %total
---------------------------------------------------------------
Pair    | 5.2379     | 5.3611     | 5.5388     |   4.5 | 51.92
Neigh   | 3.4599     | 3.9373     | 4.4199     |  19.7 | 38.13
Comm    | 0.43199    | 0.84374    | 1.2457     |  33.8 |  8.17
Output  | 5.5075e-05 | 6.5446e-05 | 0.000103   |   0.0 |  0.00
Modify  | 0.13741    | 0.14786    | 0.16014    |   2.2 |  1.43
Other   |            | 0.03638    |            |       |  0.35

Nlocal:    3275.33 ave 3287 max 3241 min
Histogram: 1 0 0 0 0 0 1 0 1 3
Nghost:    5634.33 ave 5651 max 5609 min
Histogram: 2 0 0 0 0 0 1 0 0 3
Neighs:    138237 ave 141076 max 135519 min
Histogram: 1 0 1 1 1 0 0 1 0 1

Total # of neighbors = 829423
Ave neighs/atom = 42.2055
Neighbor list builds = 495
Dangerous builds not checked
Setting up Verlet run ...
  Unit style    : metal
  Current step  : 707165
  Time step     : 0.001
Per MPI rank memory allocation (min/avg/max) = 5.577 | 5.864 | 6.008 Mbytes
Step Temp Press TotEng PotEng Enthalpy 
  707165    1904.8108     347.2742   -17357.982   -22196.375   -17229.718 
  733337    1888.5223    549.72949   -17494.851    -22291.87   -17292.944 
  773337    1897.6174   -555.81229   -17395.883   -22216.004   -17601.568 
Loop time of 1424.43 on 6 procs for 66172 steps with 19652 atoms

Performance: 4.014 ns/day, 5.979 hours/ns, 46.455 timesteps/s
99.5% CPU use with 6 MPI tasks x no OpenMP threads

MPI task timing breakdown:
Section |  min time  |  avg time  |  max time  |%varavg| %total
---------------------------------------------------------------
Pair    | 728.43     | 732.43     | 737.99     |  14.8 | 51.42
Neigh   | 526.28     | 538.78     | 550.6      |  42.5 | 37.82
Comm    | 118.25     | 127.33     | 142.1      |  73.6 |  8.94
Output  | 0.015991   | 0.016012   | 0.016095   |   0.0 |  0.00
Modify  | 20.823     | 21.082     | 21.731     |   6.5 |  1.48
Other   |            | 4.794      |            |       |  0.34

Nlocal:    3275.33 ave 3304 max 3238 min
Histogram: 1 0 1 0 0 1 0 1 1 1
Nghost:    5624.5 ave 5657 max 5588 min
Histogram: 1 0 1 0 1 0 0 2 0 1
Neighs:    137909 ave 140043 max 134758 min
Histogram: 1 0 1 0 0 0 1 1 1 1

Total # of neighbors = 827452
Ave neighs/atom = 42.1052
Neighbor list builds = 66172
Dangerous builds not checked
Setting up Verlet run ...
  Unit style    : metal
  Current step  : 773337
  Time step     : 0.001
Per MPI rank memory allocation (min/avg/max) = 5.577 | 5.864 | 6.008 Mbytes
Step Temp Press TotEng PotEng Enthalpy 
  773337    1897.6174   -555.81229   -17395.883   -22216.004   -17601.568 
  773832    1870.4194    51.187625   -17632.652   -22383.688   -17613.888 
Loop time of 10.1779 on 6 procs for 495 steps with 19652 atoms

Performance: 4.202 ns/day, 5.712 hours/ns, 48.635 timesteps/s
99.9% CPU use with 6 MPI tasks x no OpenMP threads

MPI task timing breakdown:
Section |  min time  |  avg time  |  max time  |%varavg| %total
---------------------------------------------------------------
Pair    | 5.0745     | 5.1868     | 5.2893     |   3.8 | 50.96
Neigh   | 3.6739     | 4.0461     | 4.4673     |  17.0 | 39.75
Comm    | 0.41971    | 0.76135    | 1.093      |  30.9 |  7.48
Output  | 5.7936e-05 | 6.9896e-05 | 0.00011492 |   0.0 |  0.00
Modify  | 0.13828    | 0.14653    | 0.15631    |   2.1 |  1.44
Other   |            | 0.03713    |            |       |  0.36

Nlocal:    3275.33 ave 3303 max 3248 min
Histogram: 1 0 1 0 2 0 0 0 1 1
Nghost:    5657.83 ave 5682 max 5623 min
Histogram: 1 0 0 1 0 1 0 1 0 2
Neighs:    139202 ave 141019 max 136784 min
Histogram: 2 0 0 0 0 0 0 2 0 2

Total # of neighbors = 835215
Ave neighs/atom = 42.5003
Neighbor list builds = 495
Dangerous builds not checked
Setting up Verlet run ...
  Unit style    : metal
  Current step  : 773832
  Time step     : 0.001
Per MPI rank memory allocation (min/avg/max) = 5.577 | 5.864 | 6.008 Mbytes
Step Temp Press TotEng PotEng Enthalpy 
  773832    1870.4194    51.187625   -17632.652   -22383.688   -17613.888 
  800004    1841.4135    854.16942   -17782.039   -22459.397   -17471.501 
  840004    1850.8004    417.13708   -17683.716   -22384.918   -17531.104 
Loop time of 1413.11 on 6 procs for 66172 steps with 19652 atoms

Performance: 4.046 ns/day, 5.932 hours/ns, 46.827 timesteps/s
99.8% CPU use with 6 MPI tasks x no OpenMP threads

MPI task timing breakdown:
Section |  min time  |  avg time  |  max time  |%varavg| %total
---------------------------------------------------------------
Pair    | 723.04     | 727.6      | 735.21     |  14.5 | 51.49
Neigh   | 535.2      | 542.67     | 551.92     |  25.7 | 38.40
Comm    | 107.48     | 117.27     | 125.29     |  60.7 |  8.30
Output  | 0.015397   | 0.015423   | 0.015493   |   0.0 |  0.00
Modify  | 20.25      | 20.699     | 21.306     |   7.7 |  1.46
Other   |            | 4.862      |            |       |  0.34

Nlocal:    3275.33 ave 3294 max 3261 min
Histogram: 2 0 1 0 1 0 0 0 1 1
Nghost:    5625.33 ave 5660 max 5589 min
Histogram: 1 0 1 0 1 1 0 1 0 1
Neighs:    139646 ave 142095 max 137195 min
Histogram: 1 0 1 1 1 0 0 0 1 1

Total # of neighbors = 837874
Ave neighs/atom = 42.6356
Neighbor list builds = 66172
Dangerous builds not checked
Setting up Verlet run ...
  Unit style    : metal
  Current step  : 840004
  Time step     : 0.001
Per MPI rank memory allocation (min/avg/max) = 5.577 | 5.864 | 6.008 Mbytes
Step Temp Press TotEng PotEng Enthalpy 
  840004    1850.8004    417.13708   -17683.716   -22384.918   -17531.104 
  840499    1816.7836    155.14387   -17906.212   -22521.008    -17849.72 
Loop time of 10.1687 on 6 procs for 495 steps with 19652 atoms

Performance: 4.206 ns/day, 5.706 hours/ns, 48.679 timesteps/s
99.9% CPU use with 6 MPI tasks x no OpenMP threads

MPI task timing breakdown:
Section |  min time  |  avg time  |  max time  |%varavg| %total
---------------------------------------------------------------
Pair    | 5.0619     | 5.2246     | 5.3277     |   4.3 | 51.38
Neigh   | 3.6468     | 3.9456     | 4.5273     |  19.7 | 38.80
Comm    | 0.3817     | 0.81936    | 1.0866     |  34.3 |  8.06
Output  | 4.6015e-05 | 5.8015e-05 | 0.00010109 |   0.0 |  0.00
Modify  | 0.13598    | 0.14279    | 0.15625    |   2.5 |  1.40
Other   |            | 0.03622    |            |       |  0.36

Nlocal:    3275.33 ave 3324 max 3234 min
Histogram: 1 0 0 0 4 0 0 0 0 1
Nghost:    5646 ave 5676 max 5607 min
Histogram: 1 0 0 1 0 1 1 0 1 1
Neighs:    140252 ave 141697 max 136755 min
Histogram: 1 0 0 0 0 0 1 1 1 2

Total # of neighbors = 841510
Ave neighs/atom = 42.8206
Neighbor list builds = 495
Dangerous builds not checked
Setting up Verlet run ...
  Unit style    : metal
  Current step  : 840499
  Time step     : 0.001
Per MPI rank memory allocation (min/avg/max) = 5.577 | 5.864 | 6.008 Mbytes
Step Temp Press TotEng PotEng Enthalpy 
  840499    1816.7836    155.14387   -17906.212   -22521.008    -17849.72 
  866671    1795.2996   -365.46384   -18045.156   -22605.381   -18177.965 
  906671    1802.3439    494.82161   -18011.041   -22589.159     -17831.7 
Loop time of 1448.1 on 6 procs for 66172 steps with 19652 atoms

Performance: 3.948 ns/day, 6.079 hours/ns, 45.696 timesteps/s
99.7% CPU use with 6 MPI tasks x no OpenMP threads

MPI task timing breakdown:
Section |  min time  |  avg time  |  max time  |%varavg| %total
---------------------------------------------------------------
Pair    | 739.97     | 744.97     | 753.13     |  16.3 | 51.44
Neigh   | 575.94     | 585.96     | 592.96     |  27.5 | 40.46
Comm    | 82.166     | 90.907     | 102.84     |  75.4 |  6.28
Output  | 0.015447   | 0.01547    | 0.015555   |   0.0 |  0.00
Modify  | 20.74      | 21.084     | 21.255     |   4.1 |  1.46
Other   |            | 5.169      |            |       |  0.36

Nlocal:    3275.33 ave 3298 max 3249 min
Histogram: 1 1 0 0 0 1 0 1 1 1
Nghost:    5681.83 ave 5711 max 5642 min
Histogram: 1 0 1 0 0 0 1 1 1 1
Neighs:    140918 ave 144112 max 136802 min
Histogram: 1 0 1 0 0 0 2 0 0 2

Total # of neighbors = 845505
Ave neighs/atom = 43.0239
Neighbor list builds = 66172
Dangerous builds not checked
Setting up Verlet run ...
  Unit style    : metal
  Current step  : 906671
  Time step     : 0.001
Per MPI rank memory allocation (min/avg/max) = 5.577 | 5.864 | 6.008 Mbytes
Step Temp Press TotEng PotEng Enthalpy 
  906671    1802.3439    494.82161   -18011.041   -22589.159     -17831.7 
  907166    1762.8715   -185.85633   -18193.192   -22671.046   -18260.483 
Loop time of 10.341 on 6 procs for 495 steps with 19652 atoms

Performance: 4.136 ns/day, 5.803 hours/ns, 47.868 timesteps/s
100.0% CPU use with 6 MPI tasks x no OpenMP threads

MPI task timing breakdown:
Section |  min time  |  avg time  |  max time  |%varavg| %total
---------------------------------------------------------------
Pair    | 5.0853     | 5.2582     | 5.373      |   4.1 | 50.85
Neigh   | 4.3444     | 4.4408     | 4.5474     |   3.0 | 42.94
Comm    | 0.28342    | 0.44391    | 0.52965    |  13.1 |  4.29
Output  | 6.1989e-05 | 9.5328e-05 | 0.00025582 |   0.0 |  0.00
Modify  | 0.14809    | 0.15718    | 0.16316    |   1.2 |  1.52
Other   |            | 0.0407     |            |       |  0.39

Nlocal:    3275.33 ave 3323 max 3246 min
Histogram: 2 0 0 2 0 1 0 0 0 1
Nghost:    5663.67 ave 5706 max 5624 min
Histogram: 1 1 0 1 0 1 0 0 0 2
Neighs:    141041 ave 146221 max 137982 min
Histogram: 1 1 1 1 0 1 0 0 0 1

Total # of neighbors = 846246
Ave neighs/atom = 43.0616
Neighbor list builds = 495
Dangerous builds not checked
Setting up Verlet run ...
  Unit style    : metal
  Current step  : 907166
  Time step     : 0.001
Per MPI rank memory allocation (min/avg/max) = 5.577 | 5.864 | 6.008 Mbytes
Step Temp Press TotEng PotEng Enthalpy 
  907166    1762.8715   -185.85633   -18193.192   -22671.046   -18260.483 
  933338    1743.1522    52.756591   -18251.729   -22679.495   -18232.655 
  973338     1742.867   -392.00497   -18318.035   -22745.076    -18459.66 
Loop time of 1479.44 on 6 procs for 66172 steps with 19652 atoms

Performance: 3.864 ns/day, 6.210 hours/ns, 44.728 timesteps/s
99.9% CPU use with 6 MPI tasks x no OpenMP threads

MPI task timing breakdown:
Section |  min time  |  avg time  |  max time  |%varavg| %total
---------------------------------------------------------------
Pair    | 750.81     | 760.14     | 764.88     |  19.8 | 51.38
Neigh   | 618.95     | 623.19     | 630.72     |  15.7 | 42.12
Comm    | 64.117     | 69.088     | 82.195     |  72.8 |  4.67
Output  | 0.015826   | 0.01585    | 0.015961   |   0.0 |  0.00
Modify  | 21.483     | 21.588     | 21.646     |   1.1 |  1.46
Other   |            | 5.424      |            |       |  0.37

Nlocal:    3275.33 ave 3295 max 3250 min
Histogram: 1 0 1 0 0 1 1 0 0 2
Nghost:    5659.17 ave 5693 max 5628 min
Histogram: 2 0 1 0 0 0 1 0 1 1
Neighs:    141285 ave 142416 max 139810 min
Histogram: 1 0 0 1 0 1 0 2 0 1

Total # of neighbors = 847709
Ave neighs/atom = 43.136
Neighbor list builds = 66172
Dangerous builds not checked
Setting up Verlet run ...
  Unit style    : metal
  Current step  : 973338
  Time step     : 0.001
Per MPI rank memory allocation (min/avg/max) = 5.577 | 5.864 | 6.008 Mbytes
Step Temp Press TotEng PotEng Enthalpy 
  973338     1742.867   -392.00497   -18318.035   -22745.076    -18459.66 
  973833    1728.6798   -51.745509   -18485.437   -22876.442    -18504.01 
Loop time of 10.7587 on 6 procs for 495 steps with 19652 atoms

Performance: 3.975 ns/day, 6.037 hours/ns, 46.009 timesteps/s
99.8% CPU use with 6 MPI tasks x no OpenMP threads

MPI task timing breakdown:
Section |  min time  |  avg time  |  max time  |%varavg| %total
---------------------------------------------------------------
Pair    | 5.3011     | 5.5428     | 5.6632     |   5.0 | 51.52
Neigh   | 4.3684     | 4.5098     | 4.6667     |   4.6 | 41.92
Comm    | 0.33682    | 0.50572    | 0.66629    |  17.7 |  4.70
Output  | 6.5804e-05 | 8.1817e-05 | 0.0001471  |   0.0 |  0.00
Modify  | 0.15468    | 0.15915    | 0.1627     |   0.7 |  1.48
Other   |            | 0.0412     |            |       |  0.38

Nlocal:    3275.33 ave 3295 max 3261 min
Histogram: 1 1 0 1 1 1 0 0 0 1
Nghost:    5686.67 ave 5731 max 5665 min
Histogram: 3 0 0 1 0 1 0 0 0 1
Neighs:    142316 ave 145375 max 139124 min
Histogram: 1 0 1 0 2 0 0 0 1 1

Total # of neighbors = 853893
Ave neighs/atom = 43.4507
Neighbor list builds = 495
Dangerous builds not checked
Setting up Verlet run ...
  Unit style    : metal
  Current step  : 973833
  Time step     : 0.001
Per MPI rank memory allocation (min/avg/max) = 5.577 | 5.864 | 6.008 Mbytes
Step Temp Press TotEng PotEng Enthalpy 
  973833    1728.6798   -51.745509   -18485.437   -22876.442    -18504.01 
 1000005    1703.0353    345.64172   -18620.863   -22946.728   -18497.623 
 1040005    1693.9288   -81.238097   -18563.781   -22866.514   -18592.898 
Loop time of 1500.72 on 6 procs for 66172 steps with 19652 atoms

Performance: 3.810 ns/day, 6.300 hours/ns, 44.094 timesteps/s
99.7% CPU use with 6 MPI tasks x no OpenMP threads

MPI task timing breakdown:
Section |  min time  |  avg time  |  max time  |%varavg| %total
---------------------------------------------------------------
Pair    | 766.66     | 771.64     | 777.31     |  13.5 | 51.42
Neigh   | 615.23     | 620.03     | 623.87     |  14.1 | 41.32
Comm    | 71.482     | 81.197     | 89.592     |  62.4 |  5.41
Output  | 0.016286   | 0.016312   | 0.016425   |   0.0 |  0.00
Modify  | 21.778     | 22.416     | 23.054     |   9.6 |  1.49
Other   |            | 5.412      |            |       |  0.36

Nlocal:    3275.33 ave 3304 max 3253 min
Histogram: 2 0 0 1 0 1 0 1 0 1
Nghost:    5685.5 ave 5761 max 5630 min
Histogram: 1 0 1 1 1 1 0 0 0 1
Neighs:    142442 ave 145210 max 140192 min
Histogram: 2 0 0 1 0 1 0 1 0 1

Total # of neighbors = 854655
Ave neighs/atom = 43.4895
Neighbor list builds = 66172
Dangerous builds not checked
Setting up Verlet run ...
  Unit style    : metal
  Current step  : 1040005
  Time step     : 0.001
Per MPI rank memory allocation (min/avg/max) = 5.577 | 5.864 | 6.008 Mbytes
Step Temp Press TotEng PotEng Enthalpy 
 1040005    1693.9288   -81.238097   -18563.781   -22866.514   -18592.898 
 1040500    1664.5231    285.68644   -18767.062   -22995.102   -18665.329 
Loop time of 10.5413 on 6 procs for 495 steps with 19652 atoms

Performance: 4.057 ns/day, 5.915 hours/ns, 46.958 timesteps/s
100.0% CPU use with 6 MPI tasks x no OpenMP threads

MPI task timing breakdown:
Section |  min time  |  avg time  |  max time  |%varavg| %total
---------------------------------------------------------------
Pair    | 5.2832     | 5.4459     | 5.5364     |   3.8 | 51.66
Neigh   | 4.3566     | 4.4835     | 4.7353     |   5.8 | 42.53
Comm    | 0.3096     | 0.41618    | 0.6065     |  16.5 |  3.95
Output  | 5.8889e-05 | 7.3989e-05 | 0.00013399 |   0.0 |  0.00
Modify  | 0.1474     | 0.15511    | 0.16519    |   1.3 |  1.47
Other   |            | 0.04059    |            |       |  0.39

Nlocal:    3275.33 ave 3301 max 3226 min
Histogram: 1 0 0 0 0 0 2 1 1 1
Nghost:    5731.33 ave 5766 max 5713 min
Histogram: 2 1 0 1 1 0 0 0 0 1
Neighs:    143487 ave 147145 max 139585 min
Histogram: 1 0 1 0 0 1 2 0 0 1

Total # of neighbors = 860923
Ave neighs/atom = 43.8084
Neighbor list builds = 495
Dangerous builds not checked
Setting up Verlet run ...
  Unit style    : metal
  Current step  : 1040500
  Time step     : 0.001
Per MPI rank memory allocation (min/avg/max) = 5.577 | 5.864 | 6.008 Mbytes
Step Temp Press TotEng PotEng Enthalpy 
 1040500    1664.5231    285.68644   -18767.062   -22995.102   -18665.329 
 1066672    1669.1663   -269.70377   -18777.223   -23017.058   -18873.404 
 1106672    1661.1664   -542.60574   -18815.733   -23035.247   -19009.347 
Loop time of 1407.49 on 6 procs for 66172 steps with 19652 atoms

Performance: 4.062 ns/day, 5.908 hours/ns, 47.014 timesteps/s
99.9% CPU use with 6 MPI tasks x no OpenMP threads

MPI task timing breakdown:
Section |  min time  |  avg time  |  max time  |%varavg| %total
---------------------------------------------------------------
Pair    | 729.17     | 733.68     | 737.28     |  11.3 | 52.13
Neigh   | 513.97     | 522.12     | 526.37     |  17.8 | 37.10
Comm    | 121.91     | 127.9      | 140.69     |  54.1 |  9.09
Output  | 0.016063   | 0.016085   | 0.016172   |   0.0 |  0.00
Modify  | 18.954     | 19.044     | 19.173     |   1.6 |  1.35
Other   |            | 4.734      |            |       |  0.34

Nlocal:    3275.33 ave 3292 max 3262 min
Histogram: 2 0 0 0 1 0 2 0 0 1
Nghost:    5673.67 ave 5688 max 5650 min
Histogram: 1 0 0 1 0 1 0 0 0 3
Neighs:    143149 ave 146043 max 139735 min
Histogram: 1 0 0 1 2 0 0 0 0 2

Total # of neighbors = 858893
Ave neighs/atom = 43.7051
Neighbor list builds = 66172
Dangerous builds not checked
Setting up Verlet run ...
  Unit style    : metal
  Current step  : 1106672
  Time step     : 0.001
Per MPI rank memory allocation (min/avg/max) = 5.577 | 5.864 | 6.008 Mbytes
Step Temp Press TotEng PotEng Enthalpy 
 1106672    1661.1664   -542.60574   -18815.733   -23035.247   -19009.347 
 1107167     1615.207    106.73655   -19056.566   -23159.339   -19018.818 
Loop time of 9.93243 on 6 procs for 495 steps with 19652 atoms

Performance: 4.306 ns/day, 5.574 hours/ns, 49.837 timesteps/s
99.9% CPU use with 6 MPI tasks x no OpenMP threads

MPI task timing breakdown:
Section |  min time  |  avg time  |  max time  |%varavg| %total
---------------------------------------------------------------
Pair    | 5.0672     | 5.1356     | 5.1935     |   2.2 | 51.71
Neigh   | 3.7132     | 3.8231     | 3.9912     |   5.2 | 38.49
Comm    | 0.69463    | 0.80035    | 0.88951    |   6.9 |  8.06
Output  | 5.8889e-05 | 7.2916e-05 | 0.00012684 |   0.0 |  0.00
Modify  | 0.13473    | 0.13833    | 0.143      |   0.9 |  1.39
Other   |            | 0.03503    |            |       |  0.35

Nlocal:    3275.33 ave 3297 max 3253 min
Histogram: 2 0 0 0 1 1 0 0 0 2
Nghost:    5717.5 ave 5743 max 5671 min
Histogram: 1 0 0 0 0 0 2 2 0 1
Neighs:    144424 ave 148928 max 140511 min
Histogram: 1 0 1 0 1 2 0 0 0 1

Total # of neighbors = 866545
Ave neighs/atom = 44.0945
Neighbor list builds = 495
Dangerous builds not checked
Setting up Verlet run ...
  Unit style    : metal
  Current step  : 1107167
  Time step     : 0.001
Per MPI rank memory allocation (min/avg/max) = 5.577 | 5.864 | 6.008 Mbytes
Step Temp Press TotEng PotEng Enthalpy 
 1107167     1615.207    106.73655   -19056.566   -23159.339   -19018.818 
 1133339    1590.1714    655.56816    -19166.54   -23205.721   -18935.773 
 1173339    1593.0057   -350.83234   -19134.624   -23181.003   -19258.695 
Loop time of 1431.17 on 6 procs for 66172 steps with 19652 atoms

Performance: 3.995 ns/day, 6.008 hours/ns, 46.236 timesteps/s
99.7% CPU use with 6 MPI tasks x no OpenMP threads

MPI task timing breakdown:
Section |  min time  |  avg time  |  max time  |%varavg| %total
---------------------------------------------------------------
Pair    | 738.78     | 744.11     | 748.75     |  12.6 | 51.99
Neigh   | 528.89     | 533.19     | 543.82     |  23.9 | 37.26
Comm    | 118.31     | 128.79     | 137.41     |  53.1 |  9.00
Output  | 0.015512   | 0.015544   | 0.015667   |   0.0 |  0.00
Modify  | 19.884     | 20.223     | 20.586     |   6.1 |  1.41
Other   |            | 4.843      |            |       |  0.34

Nlocal:    3275.33 ave 3290 max 3245 min
Histogram: 1 0 0 0 0 0 0 3 1 1
Nghost:    5725.83 ave 5745 max 5698 min
Histogram: 2 0 0 0 0 0 0 2 0 2
Neighs:    144454 ave 147606 max 142075 min
Histogram: 2 0 1 0 0 1 0 1 0 1

Total # of neighbors = 866725
Ave neighs/atom = 44.1037
Neighbor list builds = 66172
Dangerous builds not checked
Setting up Verlet run ...
  Unit style    : metal
  Current step  : 1173339
  Time step     : 0.001
Per MPI rank memory allocation (min/avg/max) = 5.577 | 5.864 | 6.008 Mbytes
Step Temp Press TotEng PotEng Enthalpy 
 1173339    1593.0057   -350.83234   -19134.624   -23181.003   -19258.695 
 1173834    1566.5244    241.51167   -19359.227   -23338.342   -19274.482 
Loop time of 10.2412 on 6 procs for 495 steps with 19652 atoms

Performance: 4.176 ns/day, 5.747 hours/ns, 48.334 timesteps/s
99.9% CPU use with 6 MPI tasks x no OpenMP threads

MPI task timing breakdown:
Section |  min time  |  avg time  |  max time  |%varavg| %total
---------------------------------------------------------------
Pair    | 5.1347     | 5.3093     | 5.4003     |   3.6 | 51.84
Neigh   | 3.6788     | 3.8679     | 4.4797     |  14.1 | 37.77
Comm    | 0.42784    | 0.88441    | 1.0778     |  22.3 |  8.64
Output  | 5.1975e-05 | 6.0995e-05 | 9.7036e-05 |   0.0 |  0.00
Modify  | 0.13877    | 0.14309    | 0.1581     |   1.8 |  1.40
Other   |            | 0.03641    |            |       |  0.36

Nlocal:    3275.33 ave 3295 max 3252 min
Histogram: 1 0 1 1 0 0 0 1 0 2
Nghost:    5762.33 ave 5794 max 5734 min
Histogram: 1 0 0 3 0 0 0 0 1 1
Neighs:    145629 ave 148799 max 143422 min
Histogram: 2 1 1 0 0 0 0 0 0 2

Total # of neighbors = 873773
Ave neighs/atom = 44.4623
Neighbor list builds = 495
Dangerous builds not checked
Setting up Verlet run ...
  Unit style    : metal
  Current step  : 1173834
  Time step     : 0.001
Per MPI rank memory allocation (min/avg/max) = 5.577 | 5.864 | 6.008 Mbytes
Step Temp Press TotEng PotEng Enthalpy 
 1173834    1566.5244    241.51167   -19359.227   -23338.342   -19274.482 
 1200006    1557.7128    14.343322   -19372.373   -23329.106   -19367.337 
 1240006    1558.1141   -392.42741   -19381.886   -23339.638   -19519.872 
Loop time of 1449.91 on 6 procs for 66172 steps with 19652 atoms

Performance: 3.943 ns/day, 6.086 hours/ns, 45.639 timesteps/s
99.8% CPU use with 6 MPI tasks x no OpenMP threads

MPI task timing breakdown:
Section |  min time  |  avg time  |  max time  |%varavg| %total
---------------------------------------------------------------
Pair    | 747.53     | 753.93     | 760.67     |  16.8 | 52.00
Neigh   | 548.84     | 555.85     | 572.98     |  33.8 | 38.34
Comm    | 99.383     | 114.02     | 124.96     |  76.5 |  7.86
Output  | 0.016309   | 0.016334   | 0.016441   |   0.0 |  0.00
Modify  | 20.765     | 21.007     | 21.246     |   3.2 |  1.45
Other   |            | 5.087      |            |       |  0.35

Nlocal:    3275.33 ave 3308 max 3245 min
Histogram: 1 0 1 0 2 0 0 0 1 1
Nghost:    5752 ave 5797 max 5719 min
Histogram: 1 1 0 1 0 2 0 0 0 1
Neighs:    145361 ave 147220 max 144518 min
Histogram: 2 1 0 2 0 0 0 0 0 1

Total # of neighbors = 872167
Ave neighs/atom = 44.3806
Neighbor list builds = 66172
Dangerous builds not checked
Setting up Verlet run ...
  Unit style    : metal
  Current step  : 1240006
  Time step     : 0.001
Per MPI rank memory allocation (min/avg/max) = 5.577 | 5.864 | 6.008 Mbytes
Step Temp Press TotEng PotEng Enthalpy 
 1240006    1558.1141   -392.42741   -19381.886   -23339.638   -19519.872 
 1240501     1508.619    314.84779   -19645.715   -23477.744   -19536.054 
Loop time of 10.6447 on 6 procs for 495 steps with 19652 atoms

Performance: 4.018 ns/day, 5.973 hours/ns, 46.502 timesteps/s
99.9% CPU use with 6 MPI tasks x no OpenMP threads

MPI task timing breakdown:
Section |  min time  |  avg time  |  max time  |%varavg| %total
---------------------------------------------------------------
Pair    | 5.3844     | 5.5014     | 5.6365     |   4.0 | 51.68
Neigh   | 3.8484     | 4.1633     | 4.5539     |  15.2 | 39.11
Comm    | 0.48148    | 0.78711    | 1.0596     |  26.4 |  7.39
Output  | 5.4121e-05 | 6.4691e-05 | 0.00011086 |   0.0 |  0.00
Modify  | 0.14631    | 0.15388    | 0.16207    |   1.9 |  1.45
Other   |            | 0.03883    |            |       |  0.36

Nlocal:    3275.33 ave 3289 max 3248 min
Histogram: 1 0 0 0 0 0 2 0 1 2
Nghost:    5774.17 ave 5811 max 5746 min
Histogram: 1 0 1 1 2 0 0 0 0 1
Neighs:    146738 ave 148867 max 143343 min
Histogram: 1 0 0 1 0 0 1 1 0 2

Total # of neighbors = 880425
Ave neighs/atom = 44.8008
Neighbor list builds = 495
Dangerous builds not checked
Setting up Verlet run ...
  Unit style    : metal
  Current step  : 1240501
  Time step     : 0.001
Per MPI rank memory allocation (min/avg/max) = 5.577 | 5.864 | 6.008 Mbytes
Step Temp Press TotEng PotEng Enthalpy 
 1240501     1508.619    314.84779   -19645.715   -23477.744   -19536.054 
 1266673    1511.4825   -348.71859     -19711.4   -23550.703   -19832.843 
 1306673    1499.4924    42.654476   -19716.793    -23525.64   -19701.949 
Loop time of 1451.26 on 6 procs for 66172 steps with 19652 atoms

Performance: 3.940 ns/day, 6.092 hours/ns, 45.596 timesteps/s
99.7% CPU use with 6 MPI tasks x no OpenMP threads

MPI task timing breakdown:
Section |  min time  |  avg time  |  max time  |%varavg| %total
---------------------------------------------------------------
Pair    | 748.19     | 752.9      | 759.9      |  15.1 | 51.88
Neigh   | 546.85     | 555.05     | 565.58     |  31.1 | 38.25
Comm    | 103.87     | 116.82     | 128.57     |  80.1 |  8.05
Output  | 0.015873   | 0.015894   | 0.015983   |   0.0 |  0.00
Modify  | 21.226     | 21.375     | 21.607     |   2.8 |  1.47
Other   |            | 5.095      |            |       |  0.35

Nlocal:    3275.33 ave 3297 max 3255 min
Histogram: 1 0 1 0 1 0 2 0 0 1
Nghost:    5754.67 ave 5770 max 5735 min
Histogram: 1 0 1 0 0 1 0 1 1 1
Neighs:    146825 ave 150427 max 144617 min
Histogram: 3 0 0 0 0 1 1 0 0 1

Total # of neighbors = 880948
Ave neighs/atom = 44.8274
Neighbor list builds = 66172
Dangerous builds not checked
Setting up Verlet run ...
  Unit style    : metal
  Current step  : 1306673
  Time step     : 0.001
Per MPI rank memory allocation (min/avg/max) = 5.577 | 5.864 | 6.008 Mbytes
Step Temp Press TotEng PotEng Enthalpy 
 1306673    1499.4924    42.654476   -19716.793    -23525.64   -19701.949 
 1307168    1469.3874    46.687101   -19904.709   -23637.087   -19888.529 
Loop time of 10.7636 on 6 procs for 495 steps with 19652 atoms

Performance: 3.973 ns/day, 6.040 hours/ns, 45.988 timesteps/s
99.7% CPU use with 6 MPI tasks x no OpenMP threads

MPI task timing breakdown:
Section |  min time  |  avg time  |  max time  |%varavg| %total
---------------------------------------------------------------
Pair    | 5.5026     | 5.5889     | 5.6525     |   2.2 | 51.92
Neigh   | 3.7348     | 4.0029     | 4.4434     |  12.1 | 37.19
Comm    | 0.59856    | 0.96798    | 1.2075     |  21.6 |  8.99
Output  | 5.6982e-05 | 7.3036e-05 | 0.00013399 |   0.0 |  0.00
Modify  | 0.15815    | 0.16431    | 0.17553    |   1.5 |  1.53
Other   |            | 0.03948    |            |       |  0.37

Nlocal:    3275.33 ave 3308 max 3252 min
Histogram: 1 2 0 0 0 1 1 0 0 1
Nghost:    5798.5 ave 5825 max 5787 min
Histogram: 3 0 1 0 1 0 0 0 0 1
Neighs:    147503 ave 152502 max 143804 min
Histogram: 1 0 2 1 0 0 1 0 0 1

Total # of neighbors = 885019
Ave neighs/atom = 45.0346
Neighbor list builds = 495
Dangerous builds not checked
Setting up Verlet run ...
  Unit style    : metal
  Current step  : 1307168
  Time step     : 0.001
Per MPI rank memory allocation (min/avg/max) = 5.577 | 5.864 | 6.008 Mbytes
Step Temp Press TotEng PotEng Enthalpy 
 1307168    1469.3874    46.687101   -19904.709   -23637.087   -19888.529 
 1333340    1458.3162   -562.61673    -19986.59   -23690.846   -20181.649 
 1373340    1454.5043    137.61561   -19971.745   -23666.318   -19924.172 
Loop time of 1450.68 on 6 procs for 66172 steps with 19652 atoms

Performance: 3.941 ns/day, 6.090 hours/ns, 45.614 timesteps/s
99.8% CPU use with 6 MPI tasks x no OpenMP threads

MPI task timing breakdown:
Section |  min time  |  avg time  |  max time  |%varavg| %total
---------------------------------------------------------------
Pair    | 746.88     | 756.13     | 762.9      |  21.0 | 52.12
Neigh   | 543.75     | 551.15     | 556.94     |  21.7 | 37.99
Comm    | 113.94     | 117.91     | 121.05     |  23.8 |  8.13
Output  | 0.026245   | 0.026274   | 0.026385   |   0.0 |  0.00
Modify  | 20.178     | 20.379     | 20.63      |   3.8 |  1.40
Other   |            | 5.079      |            |       |  0.35

Nlocal:    3275.33 ave 3286 max 3254 min
Histogram: 1 0 0 1 0 0 0 0 2 2
Nghost:    5791.67 ave 5818 max 5771 min
Histogram: 2 0 1 1 0 0 0 0 0 2
Neighs:    147784 ave 149542 max 146175 min
Histogram: 2 1 0 0 0 0 1 0 0 2

Total # of neighbors = 886705
Ave neighs/atom = 45.1203
Neighbor list builds = 66172
Dangerous builds not checked
Setting up Verlet run ...
  Unit style    : metal
  Current step  : 1373340
  Time step     : 0.001
Per MPI rank memory allocation (min/avg/max) = 5.577 | 5.864 | 6.008 Mbytes
Step Temp Press TotEng PotEng Enthalpy 
 1373340    1454.5043    137.61561   -19971.745   -23666.318   -19924.172 
 1373835    1419.8963    148.90575   -20202.514    -23809.18   -20151.307 
Loop time of 10.5236 on 6 procs for 495 steps with 19652 atoms

Performance: 4.064 ns/day, 5.905 hours/ns, 47.037 timesteps/s
99.9% CPU use with 6 MPI tasks x no OpenMP threads

MPI task timing breakdown:
Section |  min time  |  avg time  |  max time  |%varavg| %total
---------------------------------------------------------------
Pair    | 5.37       | 5.4759     | 5.5604     |   2.5 | 52.04
Neigh   | 3.8259     | 4.0229     | 4.3283     |   9.0 | 38.23
Comm    | 0.62545    | 0.83552    | 0.99209    |  15.7 |  7.94
Output  | 6.8903e-05 | 9.4533e-05 | 0.00021005 |   0.0 |  0.00
Modify  | 0.14537    | 0.15092    | 0.15887    |   1.2 |  1.43
Other   |            | 0.03816    |            |       |  0.36

Nlocal:    3275.33 ave 3303 max 3261 min
Histogram: 3 0 0 1 0 1 0 0 0 1
Nghost:    5805.67 ave 5818 max 5789 min
Histogram: 1 0 0 2 0 0 0 1 0 2
Neighs:    148683 ave 151228 max 145621 min
Histogram: 1 0 0 0 1 2 0 1 0 1

Total # of neighbors = 892098
Ave neighs/atom = 45.3948
Neighbor list builds = 495
Dangerous builds not checked
Setting up Verlet run ...
  Unit style    : metal
  Current step  : 1373835
  Time step     : 0.001
Per MPI rank memory allocation (min/avg/max) = 5.577 | 5.864 | 6.008 Mbytes
Step Temp Press TotEng PotEng Enthalpy 
 1373835    1419.8963    148.90575   -20202.514    -23809.18   -20151.307 
 1400007    1396.4285   -159.62614   -20272.279   -23819.335   -20327.185 
 1440007    1401.5072    86.376918   -20297.388   -23857.344   -20267.757 
Loop time of 1449.85 on 6 procs for 66172 steps with 19652 atoms

Performance: 3.943 ns/day, 6.086 hours/ns, 45.640 timesteps/s
99.9% CPU use with 6 MPI tasks x no OpenMP threads

MPI task timing breakdown:
Section |  min time  |  avg time  |  max time  |%varavg| %total
---------------------------------------------------------------
Pair    | 755.33     | 760.19     | 766.61     |  13.7 | 52.43
Neigh   | 531.33     | 542.79     | 560.27     |  47.6 | 37.44
Comm    | 101.72     | 121.83     | 138.34     | 112.6 |  8.40
Output  | 0.015369   | 0.015391   | 0.015479   |   0.0 |  0.00
Modify  | 19.88      | 20.027     | 20.381     |   3.9 |  1.38
Other   |            | 4.997      |            |       |  0.34

Nlocal:    3275.33 ave 3290 max 3263 min
Histogram: 1 2 0 1 0 0 0 0 0 2
Nghost:    5798.83 ave 5818 max 5782 min
Histogram: 1 1 1 0 0 1 0 0 0 2
Neighs:    149076 ave 150836 max 147602 min
Histogram: 2 1 0 0 0 1 0 0 1 1

Total # of neighbors = 894455
Ave neighs/atom = 45.5147
Neighbor list builds = 66172
Dangerous builds not checked
Setting up Verlet run ...
  Unit style    : metal
  Current step  : 1440007
  Time step     : 0.001
Per MPI rank memory allocation (min/avg/max) = 5.577 | 5.864 | 6.008 Mbytes
Step Temp Press TotEng PotEng Enthalpy 
 1440007    1401.5072    86.376918   -20297.388   -23857.344   -20267.757 
 1440502    1364.0603   -70.939529   -20470.958   -23935.795   -20495.227 
Loop time of 10.5394 on 6 procs for 495 steps with 19652 atoms

Performance: 4.058 ns/day, 5.914 hours/ns, 46.967 timesteps/s
99.9% CPU use with 6 MPI tasks x no OpenMP threads

MPI task timing breakdown:
Section |  min time  |  avg time  |  max time  |%varavg| %total
---------------------------------------------------------------
Pair    | 5.336      | 5.5002     | 5.6034     |   3.8 | 52.19
Neigh   | 3.6856     | 3.9877     | 4.5498     |  19.0 | 37.84
Comm    | 0.41043    | 0.86906    | 1.1242     |  33.2 |  8.25
Output  | 6.1989e-05 | 7.6731e-05 | 0.00014305 |   0.0 |  0.00
Modify  | 0.13831    | 0.14514    | 0.15717    |   2.2 |  1.38
Other   |            | 0.03718    |            |       |  0.35

Nlocal:    3275.33 ave 3287 max 3261 min
Histogram: 1 0 1 0 0 1 1 0 1 1
Nghost:    5828.5 ave 5836 max 5817 min
Histogram: 1 0 0 0 1 0 1 2 0 1
Neighs:    149479 ave 152225 max 147252 min
Histogram: 1 0 1 2 0 0 0 1 0 1

Total # of neighbors = 896874
Ave neighs/atom = 45.6378
Neighbor list builds = 495
Dangerous builds not checked
Setting up Verlet run ...
  Unit style    : metal
  Current step  : 1440502
  Time step     : 0.001
Per MPI rank memory allocation (min/avg/max) = 5.577 | 5.864 | 6.008 Mbytes
Step Temp Press TotEng PotEng Enthalpy 
 1440502    1364.0603   -70.939529   -20470.958   -23935.795   -20495.227 
 1466674    1342.4952    150.22847   -20593.931   -24003.991   -20542.666 
 1506674    1353.4014    48.110887   -20569.779   -24007.542   -20553.375 
Loop time of 1435.4 on 6 procs for 66172 steps with 19652 atoms

Performance: 3.983 ns/day, 6.026 hours/ns, 46.100 timesteps/s
99.5% CPU use with 6 MPI tasks x no OpenMP threads

MPI task timing breakdown:
Section |  min time  |  avg time  |  max time  |%varavg| %total
---------------------------------------------------------------
Pair    | 741.67     | 747.05     | 751.94     |  12.9 | 52.04
Neigh   | 542.66     | 552.34     | 562.01     |  25.1 | 38.48
Comm    | 99.601     | 109.81     | 123.27     |  74.3 |  7.65
Output  | 0.015526   | 0.015546   | 0.015633   |   0.0 |  0.00
Modify  | 20.736     | 21.088     | 21.385     |   5.8 |  1.47
Other   |            | 5.108      |            |       |  0.36

Nlocal:    3275.33 ave 3305 max 3255 min
Histogram: 1 1 1 0 1 1 0 0 0 1
Nghost:    5795.33 ave 5819 max 5765 min
Histogram: 1 0 1 1 0 0 0 1 0 2
Neighs:    150037 ave 154632 max 146953 min
Histogram: 2 0 0 0 3 0 0 0 0 1

Total # of neighbors = 900224
Ave neighs/atom = 45.8083
Neighbor list builds = 66172
Dangerous builds not checked
Setting up Verlet run ...
  Unit style    : metal
  Current step  : 1506674
  Time step     : 0.001
Per MPI rank memory allocation (min/avg/max) = 5.577 | 5.864 | 6.008 Mbytes
Step Temp Press TotEng PotEng Enthalpy 
 1506674    1353.4014    48.110887   -20569.779   -24007.542   -20553.375 
 1507169    1315.3462    37.029678   -20744.828   -24085.927   -20732.239 
Loop time of 10.6497 on 6 procs for 495 steps with 19652 atoms

Performance: 4.016 ns/day, 5.976 hours/ns, 46.480 timesteps/s
98.5% CPU use with 6 MPI tasks x no OpenMP threads

MPI task timing breakdown:
Section |  min time  |  avg time  |  max time  |%varavg| %total
---------------------------------------------------------------
Pair    | 5.4152     | 5.4654     | 5.5179     |   1.5 | 51.32
Neigh   | 4.1693     | 4.2716     | 4.361      |   3.6 | 40.11
Comm    | 0.55303    | 0.64243    | 0.79062    |  10.8 |  6.03
Output  | 7.987e-05  | 9.8467e-05 | 0.00013614 |   0.0 |  0.00
Modify  | 0.22093    | 0.2306     | 0.23634    |   1.1 |  2.17
Other   |            | 0.03966    |            |       |  0.37

Nlocal:    3275.33 ave 3287 max 3258 min
Histogram: 1 0 1 0 0 0 1 0 2 1
Nghost:    5827 ave 5838 max 5816 min
Histogram: 1 0 0 1 1 1 1 0 0 1
Neighs:    150542 ave 153912 max 147127 min
Histogram: 1 0 0 1 2 0 0 1 0 1

Total # of neighbors = 903252
Ave neighs/atom = 45.9623
Neighbor list builds = 495
Dangerous builds not checked
Setting up Verlet run ...
  Unit style    : metal
  Current step  : 1507169
  Time step     : 0.001
Per MPI rank memory allocation (min/avg/max) = 5.577 | 5.864 | 6.008 Mbytes
Step Temp Press TotEng PotEng Enthalpy 
 1507169    1315.3462    37.029678   -20744.828   -24085.927   -20732.239 
 1533341    1299.2889    240.47177    -20869.99   -24170.302   -20788.601 
 1573341    1285.3839    652.98865   -20918.362   -24183.354   -20697.791 
Loop time of 1478.47 on 6 procs for 66172 steps with 19652 atoms

Performance: 3.867 ns/day, 6.206 hours/ns, 44.757 timesteps/s
99.4% CPU use with 6 MPI tasks x no OpenMP threads

MPI task timing breakdown:
Section |  min time  |  avg time  |  max time  |%varavg| %total
---------------------------------------------------------------
Pair    | 760.17     | 768.29     | 773.63     |  16.3 | 51.97
Neigh   | 585.98     | 590.56     | 600.14     |  20.2 | 39.94
Comm    | 83.159     | 92.504     | 105.17     |  80.1 |  6.26
Output  | 0.016692   | 0.016723   | 0.016851   |   0.0 |  0.00
Modify  | 21.7       | 21.729     | 21.784     |   0.6 |  1.47
Other   |            | 5.37       |            |       |  0.36

Nlocal:    3275.33 ave 3297 max 3267 min
Histogram: 2 1 2 0 0 0 0 0 0 1
Nghost:    5839 ave 5873 max 5815 min
Histogram: 2 1 0 0 1 0 0 0 1 1
Neighs:    151448 ave 152898 max 149192 min
Histogram: 1 0 0 1 0 0 1 1 0 2

Total # of neighbors = 908686
Ave neighs/atom = 46.2389
Neighbor list builds = 66172
Dangerous builds not checked
Setting up Verlet run ...
  Unit style    : metal
  Current step  : 1573341
  Time step     : 0.001
Per MPI rank memory allocation (min/avg/max) = 5.577 | 5.864 | 6.008 Mbytes
Step Temp Press TotEng PotEng Enthalpy 
 1573341    1285.3839    652.98865   -20918.362   -24183.354   -20697.791 
 1573836    1267.8594    143.68073   -21043.703   -24264.182   -20995.212 
Loop time of 10.847 on 6 procs for 495 steps with 19652 atoms

Performance: 3.943 ns/day, 6.087 hours/ns, 45.635 timesteps/s
99.2% CPU use with 6 MPI tasks x no OpenMP threads

MPI task timing breakdown:
Section |  min time  |  avg time  |  max time  |%varavg| %total
---------------------------------------------------------------
Pair    | 5.6902     | 5.7435     | 5.8332     |   2.2 | 52.95
Neigh   | 4.1585     | 4.2587     | 4.3643     |   3.8 | 39.26
Comm    | 0.58576    | 0.64473    | 0.782      |   8.2 |  5.94
Output  | 5.9843e-05 | 7.4983e-05 | 0.00013018 |   0.0 |  0.00
Modify  | 0.1562     | 0.15937    | 0.16202    |   0.6 |  1.47
Other   |            | 0.04063    |            |       |  0.37

Nlocal:    3275.33 ave 3295 max 3254 min
Histogram: 2 0 0 0 1 0 0 0 2 1
Nghost:    5849.5 ave 5875 max 5824 min
Histogram: 1 0 1 1 1 0 0 0 0 2
Neighs:    151689 ave 152808 max 149392 min
Histogram: 1 0 1 0 0 0 0 0 1 3

Total # of neighbors = 910136
Ave neighs/atom = 46.3126
Neighbor list builds = 495
Dangerous builds not checked
Setting up Verlet run ...
  Unit style    : metal
  Current step  : 1573836
  Time step     : 0.001
Per MPI rank memory allocation (min/avg/max) = 5.577 | 5.864 | 6.008 Mbytes
Step Temp Press TotEng PotEng Enthalpy 
 1573836    1267.8594    143.68073   -21043.703   -24264.182   -20995.212 
 1600008    1253.5101    538.70898   -21157.011   -24341.041   -20976.056 
 1640008    1255.5295   -192.19526   -21167.444   -24356.603   -21232.119 
Loop time of 1500.99 on 6 procs for 66172 steps with 19652 atoms

Performance: 3.809 ns/day, 6.301 hours/ns, 44.086 timesteps/s
99.5% CPU use with 6 MPI tasks x no OpenMP threads

MPI task timing breakdown:
Section |  min time  |  avg time  |  max time  |%varavg| %total
---------------------------------------------------------------
Pair    | 773.59     | 783.46     | 791.71     |  23.3 | 52.20
Neigh   | 574.02     | 582.89     | 589.27     |  21.8 | 38.83
Comm    | 94.935     | 106.36     | 125.25     |  95.0 |  7.09
Output  | 0.017212   | 0.017245   | 0.017337   |   0.0 |  0.00
Modify  | 22.618     | 22.732     | 22.822     |   1.9 |  1.51
Other   |            | 5.533      |            |       |  0.37

Nlocal:    3275.33 ave 3305 max 3250 min
Histogram: 2 1 0 0 0 0 0 1 1 1
Nghost:    5849.5 ave 5889 max 5792 min
Histogram: 1 0 0 0 1 0 1 2 0 1
Neighs:    152081 ave 154320 max 149807 min
Histogram: 2 0 0 0 0 1 1 0 1 1

Total # of neighbors = 912488
Ave neighs/atom = 46.4323
Neighbor list builds = 66172
Dangerous builds not checked
Setting up Verlet run ...
  Unit style    : metal
  Current step  : 1640008
  Time step     : 0.001
Per MPI rank memory allocation (min/avg/max) = 5.577 | 5.864 | 6.008 Mbytes
Step Temp Press TotEng PotEng Enthalpy 
 1640008    1255.5295   -192.19526   -21167.444   -24356.603   -21232.119 
 1640503    1213.9076    144.39158   -21340.711   -24424.146   -21292.272 
Loop time of 10.7625 on 6 procs for 495 steps with 19652 atoms

Performance: 3.974 ns/day, 6.040 hours/ns, 45.993 timesteps/s
99.7% CPU use with 6 MPI tasks x no OpenMP threads

MPI task timing breakdown:
Section |  min time  |  avg time  |  max time  |%varavg| %total
---------------------------------------------------------------
Pair    | 5.5666     | 5.6214     | 5.6726     |   1.7 | 52.23
Neigh   | 4.2293     | 4.3203     | 4.3845     |   3.0 | 40.14
Comm    | 0.52938    | 0.62581    | 0.6919     |   6.8 |  5.81
Output  | 6.3896e-05 | 7.5777e-05 | 0.00013494 |   0.0 |  0.00
Modify  | 0.15138    | 0.1545     | 0.15626    |   0.4 |  1.44
Other   |            | 0.04044    |            |       |  0.38

Nlocal:    3275.33 ave 3297 max 3253 min
Histogram: 1 1 0 0 0 2 0 1 0 1
Nghost:    5859.33 ave 5891 max 5826 min
Histogram: 2 0 0 0 1 0 1 0 0 2
Neighs:    152740 ave 153765 max 151637 min
Histogram: 1 0 0 1 2 0 0 0 1 1

Total # of neighbors = 916437
Ave neighs/atom = 46.6333
Neighbor list builds = 495
Dangerous builds not checked
Setting up Verlet run ...
  Unit style    : metal
  Current step  : 1640503
  Time step     : 0.001
Per MPI rank memory allocation (min/avg/max) = 5.577 | 5.864 | 6.008 Mbytes
Step Temp Press TotEng PotEng Enthalpy 
 1640503    1213.9076    144.39158   -21340.711   -24424.146   -21292.272 
 1666675    1194.9787    -68.67387   -21443.642   -24478.996   -21466.629 
 1706675    1201.5712   -462.80253   -21398.205   -24450.306   -21553.569 
Loop time of 1501.66 on 6 procs for 66172 steps with 19652 atoms

Performance: 3.807 ns/day, 6.304 hours/ns, 44.066 timesteps/s
99.5% CPU use with 6 MPI tasks x no OpenMP threads

MPI task timing breakdown:
Section |  min time  |  avg time  |  max time  |%varavg| %total
---------------------------------------------------------------
Pair    | 779.59     | 786.79     | 792.81     |  19.8 | 52.39
Neigh   | 587.76     | 593.32     | 602.64     |  19.1 | 39.51
Comm    | 87.498     | 93.901     | 106.78     |  79.9 |  6.25
Output  | 0.015891   | 0.015912   | 0.015994   |   0.0 |  0.00
Modify  | 22.059     | 22.135     | 22.242     |   1.4 |  1.47
Other   |            | 5.5        |            |       |  0.37

Nlocal:    3275.33 ave 3282 max 3267 min
Histogram: 1 0 1 1 0 0 0 0 1 2
Nghost:    5886.33 ave 5906 max 5862 min
Histogram: 1 0 1 1 0 0 0 1 0 2
Neighs:    152485 ave 154133 max 150162 min
Histogram: 1 0 0 2 0 0 0 1 0 2

Total # of neighbors = 914909
Ave neighs/atom = 46.5555
Neighbor list builds = 66172
Dangerous builds not checked
Setting up Verlet run ...
  Unit style    : metal
  Current step  : 1706675
  Time step     : 0.001
Per MPI rank memory allocation (min/avg/max) = 5.577 | 5.864 | 6.008 Mbytes
Step Temp Press TotEng PotEng Enthalpy 
 1706675    1201.5712   -462.80253   -21398.205   -24450.306   -21553.569 
 1707170    1161.7777    112.46204   -21629.719    -24580.74   -21592.238 
Loop time of 10.589 on 6 procs for 495 steps with 19652 atoms

Performance: 4.039 ns/day, 5.942 hours/ns, 46.746 timesteps/s
99.7% CPU use with 6 MPI tasks x no OpenMP threads

MPI task timing breakdown:
Section |  min time  |  avg time  |  max time  |%varavg| %total
---------------------------------------------------------------
Pair    | 5.4213     | 5.5103     | 5.6144     |   2.6 | 52.04
Neigh   | 4.0506     | 4.2041     | 4.3092     |   4.8 | 39.70
Comm    | 0.55834    | 0.67625    | 0.87288    |  12.7 |  6.39
Output  | 7.2002e-05 | 8.0824e-05 | 0.00012302 |   0.0 |  0.00
Modify  | 0.15469    | 0.15806    | 0.16276    |   0.7 |  1.49
Other   |            | 0.04024    |            |       |  0.38

Nlocal:    3275.33 ave 3306 max 3236 min
Histogram: 1 0 0 0 1 1 1 0 1 1
Nghost:    5893.83 ave 5939 max 5854 min
Histogram: 1 0 1 1 1 0 0 1 0 1
Neighs:    153670 ave 157896 max 151966 min
[...]
Loop time of 11.5955 on 6 procs for 495 steps with 19652 atoms

Performance: 3.688 ns/day, 6.507 hours/ns, 42.689 timesteps/s
99.9% CPU use with 6 MPI tasks x no OpenMP threads

MPI task timing breakdown:
Section |  min time  |  avg time  |  max time  |%varavg| %total
---------------------------------------------------------------
Pair    | 5.8856     | 6.0016     | 6.0689     |   2.4 | 51.76
Neigh   | 4.508      | 4.6424     | 4.8784     |   5.8 | 40.04
Comm    | 0.43005    | 0.74597    | 0.93787    |  19.7 |  6.43
Output  | 5.1022e-05 | 6.6996e-05 | 0.00013089 |   0.0 |  0.00
Modify  | 0.1574     | 0.16358    | 0.17371    |   1.5 |  1.41
Other   |            | 0.04191    |            |       |  0.36

Nlocal:    3275.33 ave 3293 max 3257 min
Histogram: 1 0 0 1 0 2 1 0 0 1
Nghost:    6166.17 ave 6192 max 6099 min
Histogram: 1 0 0 0 0 0 1 1 1 2
Neighs:    173585 ave 174390 max 171964 min
Histogram: 1 0 0 0 0 0 1 2 1 1

Total # of neighbors = 1041511
Ave neighs/atom = 52.9977
Neighbor list builds = 495
Dangerous builds not checked
Setting up Verlet run ...
  Unit style    : metal
  Current step  : 2707175
  Time step     : 0.001
Per MPI rank memory allocation (min/avg/max) = 5.577 | 5.864 | 6.008 Mbytes
Step Temp Press TotEng PotEng Enthalpy 
 2707175    424.10098    270.46697   -26253.411   -27330.666   -26172.043 
 2733347    398.60332    70.622385   -26444.556   -27457.045   -26423.406 
 2773347     400.8518    -501.5535   -26456.175   -27474.375    -26606.54 
Loop time of 1544.49 on 6 procs for 66172 steps with 19652 atoms

Performance: 3.702 ns/day, 6.483 hours/ns, 42.844 timesteps/s
99.8% CPU use with 6 MPI tasks x no OpenMP threads

MPI task timing breakdown:
Section |  min time  |  avg time  |  max time  |%varavg| %total
---------------------------------------------------------------
Pair    | 804.02     | 807.79     | 812.33     |   9.8 | 52.30
Neigh   | 630.43     | 631.05     | 632.18     |   2.2 | 40.86
Comm    | 75.361     | 79.396     | 81.898     |  27.0 |  5.14
Output  | 0.016102   | 0.016125   | 0.016228   |   0.0 |  0.00
Modify  | 20.577     | 20.79      | 20.926     |   2.5 |  1.35
Other   |            | 5.444      |            |       |  0.35

Nlocal:    3275.33 ave 3296 max 3255 min
Histogram: 1 1 0 0 1 0 1 1 0 1
Nghost:    6174.17 ave 6188 max 6157 min
Histogram: 1 0 1 1 0 0 0 1 0 2
Neighs:    174383 ave 175708 max 173124 min
Histogram: 1 1 0 1 0 0 1 1 0 1

Total # of neighbors = 1046296
Ave neighs/atom = 53.2412
Neighbor list builds = 66172
Dangerous builds not checked
Setting up Verlet run ...
  Unit style    : metal
  Current step  : 2773347
  Time step     : 0.001
Per MPI rank memory allocation (min/avg/max) = 5.577 | 5.864 | 6.008 Mbytes
Step Temp Press TotEng PotEng Enthalpy 
 2773347     400.8518    -501.5535   -26456.175   -27474.375    -26606.54 
 2773842    373.25679    126.67823   -26615.006   -27563.113   -26577.224 
Loop time of 10.9898 on 6 procs for 495 steps with 19652 atoms

Performance: 3.892 ns/day, 6.167 hours/ns, 45.042 timesteps/s
100.0% CPU use with 6 MPI tasks x no OpenMP threads

MPI task timing breakdown:
Section |  min time  |  avg time  |  max time  |%varavg| %total
---------------------------------------------------------------
Pair    | 5.5691     | 5.6966     | 5.7942     |   2.9 | 51.84
Neigh   | 4.5645     | 4.6341     | 4.6721     |   1.6 | 42.17
Comm    | 0.34045    | 0.47431    | 0.57384    |  11.3 |  4.32
Output  | 5.1975e-05 | 6.7671e-05 | 0.00013494 |   0.0 |  0.00
Modify  | 0.14221    | 0.14496    | 0.15184    |   0.9 |  1.32
Other   |            | 0.03973    |            |       |  0.36

Nlocal:    3275.33 ave 3312 max 3265 min
Histogram: 4 1 0 0 0 0 0 0 0 1
Nghost:    6183.5 ave 6204 max 6149 min
Histogram: 1 0 0 1 0 1 0 0 1 2
Neighs:    175544 ave 177995 max 174668 min
Histogram: 3 1 1 0 0 0 0 0 0 1

Total # of neighbors = 1053265
Ave neighs/atom = 53.5958
Neighbor list builds = 495
Dangerous builds not checked
Setting up Verlet run ...
  Unit style    : metal
  Current step  : 2773842
  Time step     : 0.001
Per MPI rank memory allocation (min/avg/max) = 5.577 | 5.864 | 6.008 Mbytes
Step Temp Press TotEng PotEng Enthalpy 
 2773842    373.25679    126.67823   -26615.006   -27563.113   -26577.224 
 2800014     350.3338   -172.30341   -26791.716   -27681.596   -26842.922 
 2840014    347.45722   -14.382497   -26852.637    -27735.21   -26856.901 
Loop time of 1508.28 on 6 procs for 66172 steps with 19652 atoms

Performance: 3.791 ns/day, 6.331 hours/ns, 43.872 timesteps/s
99.5% CPU use with 6 MPI tasks x no OpenMP threads

MPI task timing breakdown:
Section |  min time  |  avg time  |  max time  |%varavg| %total
---------------------------------------------------------------
Pair    | 789.4      | 791.62     | 795.2      |   6.5 | 52.48
Neigh   | 587.8      | 591.14     | 596.4      |  12.8 | 39.19
Comm    | 97.131     | 100.11     | 103.96     |  28.2 |  6.64
Output  | 0.016293   | 0.016358   | 0.016441   |   0.0 |  0.00
Modify  | 20.282     | 20.353     | 20.434     |   1.4 |  1.35
Other   |            | 5.04       |            |       |  0.33

Nlocal:    3275.33 ave 3288 max 3263 min
Histogram: 2 0 0 0 1 1 0 0 0 2
Nghost:    6202.67 ave 6240 max 6176 min
Histogram: 2 0 0 1 1 0 1 0 0 1
Neighs:    176695 ave 177835 max 175243 min
Histogram: 1 1 0 0 1 0 0 0 1 2

Total # of neighbors = 1060171
Ave neighs/atom = 53.9472
Neighbor list builds = 66172
Dangerous builds not checked
Setting up Verlet run ...
  Unit style    : metal
  Current step  : 2840014
  Time step     : 0.001
Per MPI rank memory allocation (min/avg/max) = 5.577 | 5.864 | 6.008 Mbytes
Step Temp Press TotEng PotEng Enthalpy 
 2840014    347.45722   -14.382497   -26852.637    -27735.21   -26856.901 
 2840509    320.70446    234.01591   -26990.005   -27804.624   -26920.884 
Loop time of 11.1827 on 6 procs for 495 steps with 19652 atoms

Performance: 3.824 ns/day, 6.275 hours/ns, 44.265 timesteps/s
99.9% CPU use with 6 MPI tasks x no OpenMP threads

MPI task timing breakdown:
Section |  min time  |  avg time  |  max time  |%varavg| %total
---------------------------------------------------------------
Pair    | 5.8327     | 5.8433     | 5.8608     |   0.4 | 52.25
Neigh   | 4.4605     | 4.5818     | 4.7399     |   4.6 | 40.97
Comm    | 0.41864    | 0.56807    | 0.70236    |  13.2 |  5.08
Output  | 6.1035e-05 | 7.3195e-05 | 0.00011802 |   0.0 |  0.00
Modify  | 0.14837    | 0.15017    | 0.15162    |   0.3 |  1.34
Other   |            | 0.03931    |            |       |  0.35

Nlocal:    3275.33 ave 3288 max 3263 min
Histogram: 1 0 0 1 1 1 1 0 0 1
Nghost:    6219.33 ave 6243 max 6187 min
Histogram: 1 0 0 1 0 0 2 0 1 1
Neighs:    177582 ave 178846 max 176382 min
Histogram: 1 0 1 0 1 0 2 0 0 1

Total # of neighbors = 1065490
Ave neighs/atom = 54.2179
Neighbor list builds = 495
Dangerous builds not checked
Setting up Verlet run ...
  Unit style    : metal
  Current step  : 2840509
  Time step     : 0.001
Per MPI rank memory allocation (min/avg/max) = 5.577 | 5.864 | 6.008 Mbytes
Step Temp Press TotEng PotEng Enthalpy 
 2840509    320.70446    234.01591   -26990.005   -27804.624   -26920.884 
 2866681     299.2492   -240.40359   -27157.333   -27917.453   -27228.201 
 2906681    297.14182   -270.04971    -27191.73   -27946.497   -27271.274 
Loop time of 1501.08 on 6 procs for 66172 steps with 19652 atoms

Performance: 3.809 ns/day, 6.301 hours/ns, 44.083 timesteps/s
99.9% CPU use with 6 MPI tasks x no OpenMP threads

MPI task timing breakdown:
Section |  min time  |  avg time  |  max time  |%varavg| %total
---------------------------------------------------------------
Pair    | 783.36     | 785.51     | 786.71     |   4.1 | 52.33
Neigh   | 608.44     | 613        | 615.98     |  10.5 | 40.84
Comm    | 73.565     | 77.033     | 81.336     |  34.8 |  5.13
Output  | 0.01627    | 0.016286   | 0.016347   |   0.0 |  0.00
Modify  | 20.179     | 20.282     | 20.409     |   1.8 |  1.35
Other   |            | 5.245      |            |       |  0.35

Nlocal:    3275.33 ave 3282 max 3266 min
Histogram: 1 0 0 1 1 0 0 0 2 1
Nghost:    6199.5 ave 6232 max 6180 min
Histogram: 1 0 2 1 1 0 0 0 0 1
Neighs:    178052 ave 178653 max 177303 min
Histogram: 1 0 0 0 2 0 1 1 0 1

Total # of neighbors = 1068310
Ave neighs/atom = 54.3614
Neighbor list builds = 66172
Dangerous builds not checked
Setting up Verlet run ...
  Unit style    : metal
  Current step  : 2906681
  Time step     : 0.001
Per MPI rank memory allocation (min/avg/max) = 5.577 | 5.864 | 6.008 Mbytes
Step Temp Press TotEng PotEng Enthalpy 
 2906681    297.14182   -270.04971    -27191.73   -27946.497   -27271.274 
 2907176     273.8386   -33.562151   -27335.011   -28030.586    -27344.86 
Loop time of 11.125 on 6 procs for 495 steps with 19652 atoms

Performance: 3.844 ns/day, 6.243 hours/ns, 44.494 timesteps/s
99.8% CPU use with 6 MPI tasks x no OpenMP threads

MPI task timing breakdown:
Section |  min time  |  avg time  |  max time  |%varavg| %total
---------------------------------------------------------------
Pair    | 5.7786     | 5.8095     | 5.8327     |   0.9 | 52.22
Neigh   | 4.5013     | 4.5426     | 4.5973     |   1.5 | 40.83
Comm    | 0.52084    | 0.57889    | 0.63189    |   4.8 |  5.20
Output  | 5.6028e-05 | 6.5327e-05 | 9.799e-05  |   0.0 |  0.00
Modify  | 0.15275    | 0.15441    | 0.15614    |   0.3 |  1.39
Other   |            | 0.03951    |            |       |  0.36

Nlocal:    3275.33 ave 3285 max 3259 min
Histogram: 1 0 0 0 1 0 1 0 2 1
Nghost:    6207.17 ave 6226 max 6189 min
Histogram: 1 0 0 1 1 1 1 0 0 1
Neighs:    178949 ave 180320 max 177590 min
Histogram: 1 0 1 0 0 2 1 0 0 1

Total # of neighbors = 1073692
Ave neighs/atom = 54.6353
Neighbor list builds = 495
Dangerous builds not checked
Setting up Verlet run ...
  Unit style    : metal
  Current step  : 2907176
  Time step     : 0.001
Per MPI rank memory allocation (min/avg/max) = 5.577 | 5.864 | 6.008 Mbytes
Step Temp Press TotEng PotEng Enthalpy 
 2907176     273.8386   -33.562151   -27335.011   -28030.586    -27344.86 
 2933348    251.74238   -297.29038   -27490.296   -28129.744   -27577.372 
 2973348    251.21706     215.5215   -27504.368   -28142.482   -27441.382 
Loop time of 1555.35 on 6 procs for 66172 steps with 19652 atoms

Performance: 3.676 ns/day, 6.529 hours/ns, 42.545 timesteps/s
99.3% CPU use with 6 MPI tasks x no OpenMP threads

MPI task timing breakdown:
Section |  min time  |  avg time  |  max time  |%varavg| %total
---------------------------------------------------------------
Pair    | 813.04     | 817.47     | 822.51     |  10.1 | 52.56
Neigh   | 618.15     | 621.1      | 625.23     |   8.6 | 39.93
Comm    | 82.71      | 87.371     | 92.449     |  38.9 |  5.62
Output  | 0.045298   | 0.045319   | 0.045391   |   0.0 |  0.00
Modify  | 23.701     | 23.951     | 24.172     |   3.6 |  1.54
Other   |            | 5.41       |            |       |  0.35

Nlocal:    3275.33 ave 3284 max 3269 min
Histogram: 2 0 1 0 0 0 2 0 0 1
Nghost:    6227.5 ave 6267 max 6200 min
Histogram: 2 0 0 0 2 1 0 0 0 1
Neighs:    179933 ave 181170 max 178914 min
Histogram: 1 1 0 1 1 0 0 1 0 1

Total # of neighbors = 1079597
Ave neighs/atom = 54.9357
Neighbor list builds = 66172
Dangerous builds not checked
Setting up Verlet run ...
  Unit style    : metal
  Current step  : 2973348
  Time step     : 0.001
Per MPI rank memory allocation (min/avg/max) = 5.577 | 5.864 | 6.008 Mbytes
Step Temp Press TotEng PotEng Enthalpy 
 2973348    251.21706     215.5215   -27504.368   -28142.482   -27441.382 
 2973843     225.4537    181.97566   -27640.379   -28213.052   -27587.312 
Loop time of 11.4076 on 6 procs for 495 steps with 19652 atoms

Performance: 3.749 ns/day, 6.402 hours/ns, 43.392 timesteps/s
99.9% CPU use with 6 MPI tasks x no OpenMP threads

MPI task timing breakdown:
Section |  min time  |  avg time  |  max time  |%varavg| %total
---------------------------------------------------------------
Pair    | 5.9314     | 6.0125     | 6.054      |   1.8 | 52.71
Neigh   | 3.9569     | 4.2731     | 4.5818     |  11.8 | 37.46
Comm    | 0.6573     | 0.93313    | 1.2185     |  22.3 |  8.18
Output  | 9.5844e-05 | 0.00011126 | 0.00017095 |   0.0 |  0.00
Modify  | 0.14416    | 0.15085    | 0.16083    |   1.5 |  1.32
Other   |            | 0.03787    |            |       |  0.33

Nlocal:    3275.33 ave 3289 max 3268 min
Histogram: 2 1 0 1 1 0 0 0 0 1
Nghost:    6220.67 ave 6252 max 6171 min
Histogram: 1 0 0 0 0 1 2 1 0 1
Neighs:    180405 ave 181617 max 179646 min
Histogram: 1 2 0 0 1 1 0 0 0 1

Total # of neighbors = 1082430
Ave neighs/atom = 55.0799
Neighbor list builds = 495
Dangerous builds not checked
Setting up Verlet run ...
  Unit style    : metal
  Current step  : 2973843
  Time step     : 0.001
Per MPI rank memory allocation (min/avg/max) = 5.577 | 5.864 | 6.008 Mbytes
Step Temp Press TotEng PotEng Enthalpy 
 2973843     225.4537    181.97566   -27640.379   -28213.052   -27587.312 
 3000015    199.51696   -276.46546   -27779.723   -28286.515   -27860.266 
 3040015    199.09727    451.91573   -27795.895    -28301.62   -27664.617 
Loop time of 1515.5 on 6 procs for 66172 steps with 19652 atoms

Performance: 3.773 ns/day, 6.362 hours/ns, 43.664 timesteps/s
99.8% CPU use with 6 MPI tasks x no OpenMP threads

MPI task timing breakdown:
Section |  min time  |  avg time  |  max time  |%varavg| %total
---------------------------------------------------------------
Pair    | 790.46     | 794.37     | 796.6      |   7.2 | 52.42
Neigh   | 609.8      | 616.2      | 622.11     |  15.2 | 40.66
Comm    | 76.53      | 78.97      | 84.955     |  34.4 |  5.21
Output  | 0.017152   | 0.017188   | 0.017329   |   0.0 |  0.00
Modify  | 20.252     | 20.562     | 20.882     |   5.0 |  1.36
Other   |            | 5.378      |            |       |  0.35

Nlocal:    3275.33 ave 3287 max 3266 min
Histogram: 1 1 2 0 0 0 0 0 0 2
Nghost:    6243 ave 6255 max 6222 min
Histogram: 2 0 0 0 0 0 0 1 0 3
Neighs:    181488 ave 182720 max 180747 min
Histogram: 2 0 1 0 2 0 0 0 0 1

Total # of neighbors = 1088928
Ave neighs/atom = 55.4105
Neighbor list builds = 66172
Dangerous builds not checked
Setting up Verlet run ...
  Unit style    : metal
  Current step  : 3040015
  Time step     : 0.001
Per MPI rank memory allocation (min/avg/max) = 5.577 | 5.864 | 6.008 Mbytes
Step Temp Press TotEng PotEng Enthalpy 
 3040015    199.09727    451.91573   -27795.895    -28301.62   -27664.617 
 3040510    175.23813   -67.312794   -27917.173   -28362.293   -27936.713 
Loop time of 11.3663 on 6 procs for 495 steps with 19652 atoms

Performance: 3.763 ns/day, 6.378 hours/ns, 43.550 timesteps/s
99.7% CPU use with 6 MPI tasks x no OpenMP threads

MPI task timing breakdown:
Section |  min time  |  avg time  |  max time  |%varavg| %total
---------------------------------------------------------------
Pair    | 5.9528     | 5.9947     | 6.0394     |   1.3 | 52.74
Neigh   | 4.2621     | 4.5102     | 4.605      |   5.7 | 39.68
Comm    | 0.54983    | 0.65751    | 0.83616    |  12.2 |  5.78
Output  | 6.2943e-05 | 7.1486e-05 | 0.00010896 |   0.0 |  0.00
Modify  | 0.14645    | 0.16351    | 0.19334    |   4.9 |  1.44
Other   |            | 0.0403     |            |       |  0.35

Nlocal:    3275.33 ave 3283 max 3269 min
Histogram: 1 0 2 0 0 1 0 1 0 1
Nghost:    6252.83 ave 6287 max 6222 min
Histogram: 1 0 2 0 0 0 1 1 0 1
Neighs:    181634 ave 182080 max 181225 min
Histogram: 1 1 0 1 1 0 0 0 1 1

Total # of neighbors = 1089802
Ave neighs/atom = 55.455
Neighbor list builds = 495
Dangerous builds not checked
Setting up Verlet run ...
  Unit style    : metal
  Current step  : 3040510
  Time step     : 0.001
Per MPI rank memory allocation (min/avg/max) = 5.577 | 5.864 | 6.008 Mbytes
Step Temp Press TotEng PotEng Enthalpy 
 3040510    175.23813   -67.312794   -27917.173   -28362.293   -27936.713 
 3066682    149.47391   -340.46948   -28058.141   -28437.818   -28156.855 
 3106682    149.20573    98.559481   -28062.999   -28441.995   -28034.463 
Loop time of 1514.82 on 6 procs for 66172 steps with 19652 atoms

Performance: 3.774 ns/day, 6.359 hours/ns, 43.683 timesteps/s
99.8% CPU use with 6 MPI tasks x no OpenMP threads

MPI task timing breakdown:
Section |  min time  |  avg time  |  max time  |%varavg| %total
---------------------------------------------------------------
Pair    | 793.19     | 797.62     | 802.53     |  12.8 | 52.65
Neigh   | 609.06     | 612.74     | 618.21     |  11.8 | 40.45
Comm    | 68.161     | 78.509     | 84.592     |  58.3 |  5.18
Output  | 0.017144   | 0.017167   | 0.01726    |   0.0 |  0.00
Modify  | 20.434     | 20.537     | 20.636     |   1.6 |  1.36
Other   |            | 5.394      |            |       |  0.36

Nlocal:    3275.33 ave 3281 max 3268 min
Histogram: 2 0 0 0 0 0 1 1 0 2
Nghost:    6249.17 ave 6276 max 6204 min
Histogram: 1 0 0 0 0 1 2 0 0 2
Neighs:    182452 ave 182724 max 182036 min
Histogram: 1 0 0 0 2 0 0 1 1 1

Total # of neighbors = 1094715
Ave neighs/atom = 55.705
Neighbor list builds = 66172
Dangerous builds not checked
Setting up Verlet run ...
  Unit style    : metal
  Current step  : 3106682
  Time step     : 0.001
Per MPI rank memory allocation (min/avg/max) = 5.577 | 5.864 | 6.008 Mbytes
Step Temp Press TotEng PotEng Enthalpy 
 3106682    149.20573    98.559481   -28062.999   -28441.995   -28034.463 
 3107177     126.9941   -43.888451   -28178.604    -28501.18    -28191.29 
Loop time of 11.0323 on 6 procs for 495 steps with 19652 atoms

Performance: 3.877 ns/day, 6.191 hours/ns, 44.868 timesteps/s
99.0% CPU use with 6 MPI tasks x no OpenMP threads

MPI task timing breakdown:
Section |  min time  |  avg time  |  max time  |%varavg| %total
---------------------------------------------------------------
Pair    | 5.8918     | 5.9184     | 5.9906     |   1.4 | 53.65
Neigh   | 3.8898     | 4.2165     | 4.4783     |   8.4 | 38.22
Comm    | 0.47016    | 0.71853    | 0.98476    |  17.8 |  6.51
Output  | 6.1989e-05 | 8.6864e-05 | 0.00014186 |   0.0 |  0.00
Modify  | 0.12879    | 0.13853    | 0.14359    |   1.2 |  1.26
Other   |            | 0.04022    |            |       |  0.36

Nlocal:    3275.33 ave 3288 max 3262 min
Histogram: 1 1 0 1 0 1 0 0 0 2
Nghost:    6248.83 ave 6287 max 6197 min
Histogram: 1 0 0 0 0 2 1 1 0 1
Neighs:    182929 ave 184564 max 181109 min
Histogram: 1 0 0 1 0 2 1 0 0 1

Total # of neighbors = 1097574
Ave neighs/atom = 55.8505
Neighbor list builds = 495
Dangerous builds not checked
Setting up Verlet run ...
  Unit style    : metal
  Current step  : 3107177
  Time step     : 0.001
Per MPI rank memory allocation (min/avg/max) = 5.577 | 5.864 | 6.008 Mbytes
Step Temp Press TotEng PotEng Enthalpy 
 3107177     126.9941   -43.888451   -28178.604    -28501.18    -28191.29 
 3133349    99.825633    252.41342   -28320.663   -28574.229   -28247.938 
 3173349    101.64446    33.992116    -28316.39   -28574.576   -28306.588 
Loop time of 1508.48 on 6 procs for 66172 steps with 19652 atoms

Performance: 3.790 ns/day, 6.332 hours/ns, 43.867 timesteps/s
99.8% CPU use with 6 MPI tasks x no OpenMP threads

MPI task timing breakdown:
Section |  min time  |  avg time  |  max time  |%varavg| %total
---------------------------------------------------------------
Pair    | 791.34     | 794.42     | 797.21     |   7.2 | 52.66
Neigh   | 606.44     | 609.58     | 616.27     |  12.9 | 40.41
Comm    | 71.699     | 78.385     | 82.834     |  40.7 |  5.20
Output  | 0.015788   | 0.015809   | 0.015906   |   0.0 |  0.00
Modify  | 20.515     | 20.68      | 20.762     |   2.1 |  1.37
Other   |            | 5.39       |            |       |  0.36

Nlocal:    3275.33 ave 3281 max 3268 min
Histogram: 1 0 0 1 1 0 1 0 0 2
Nghost:    6255.83 ave 6284 max 6214 min
Histogram: 1 0 0 0 1 1 0 1 1 1
Neighs:    183548 ave 184654 max 182676 min
Histogram: 1 0 2 0 1 0 1 0 0 1

Total # of neighbors = 1101287
Ave neighs/atom = 56.0394
Neighbor list builds = 66172
Dangerous builds not checked
Total wall time: 19:30:16
