LAMMPS (12 Dec 2018)
Lattice spacing in x,y,z = 4 4 4
Created orthogonal box = (0 0 0) to (68 68 68)
  1 by 1 by 2 MPI processor grid
Created 19652 atoms
  Time spent = 0.00152993 secs
Setting atom values ...
  19480 settings made for type/fraction
Neighbor list info ...
  update every 1 steps, delay 0 steps, check no
  max neighbors/atom: 2000, page size: 100000
  master list distance cutoff = 8.5
  ghost atom cutoff = 8.5
  binsize = 4.25, bins = 16 16 16
  1 neighbor lists, perpetual/occasional/extra = 1 0 0
  (1) pair eam/alloy, perpetual
      attributes: half, newton on
      pair build: half/bin/atomonly/newton
      stencil: half/bin/3d/newton
      bin: standard
Setting up Verlet run ...
  Unit style    : metal
  Current step  : 0
  Time step     : 0.001
Per MPI rank memory allocation (min/avg/max) = 11.15 | 11.15 | 11.15 Mbytes
Step Temp Press TotEng PotEng Enthalpy 
       0          300    701299.96   -100796.08   -101558.11    36836.167 
    1000    313.93669     594249.4   -100796.02   -101593.45    15827.225 
Loop time of 87.003 on 2 procs for 1000 steps with 19652 atoms

Performance: 0.993 ns/day, 24.167 hours/ns, 11.494 timesteps/s
98.4% CPU use with 2 MPI tasks x no OpenMP threads

MPI task timing breakdown:
Section |  min time  |  avg time  |  max time  |%varavg| %total
---------------------------------------------------------------
Pair    | 48.285     | 48.362     | 48.439     |   1.1 | 55.59
Neigh   | 34.211     | 34.662     | 35.112     |   7.6 | 39.84
Comm    | 3.0327     | 3.5665     | 4.1002     |  28.3 |  4.10
Output  | 0.000108   | 0.000157   | 0.00020599 |   0.0 |  0.00
Modify  | 0.20538    | 0.20868    | 0.21198    |   0.7 |  0.24
Other   |            | 0.2041     |            |       |  0.23

Nlocal:    9826 ave 9830 max 9822 min
Histogram: 1 0 0 0 0 0 0 0 0 1
Nghost:    13795 ave 13795 max 13795 min
Histogram: 2 0 0 0 0 0 0 0 0 0
Neighs:    791572 ave 791830 max 791315 min
Histogram: 1 0 0 0 0 0 0 0 0 1

Total # of neighbors = 1583145
Ave neighs/atom = 80.559
Neighbor list builds = 1000
Dangerous builds not checked
Setting up Verlet run ...
  Unit style    : metal
  Current step  : 1000
  Time step     : 0.001
Per MPI rank memory allocation (min/avg/max) = 11.15 | 11.15 | 11.15 Mbytes
Step Temp Press TotEng PotEng Enthalpy 
    1000    313.93669     594249.4   -100796.02   -101593.45    15827.225 
    2000    290.20956    26.916395   -122592.19   -123329.34   -122584.47 
Loop time of 67.2544 on 2 procs for 1000 steps with 19652 atoms

Performance: 1.285 ns/day, 18.682 hours/ns, 14.869 timesteps/s
98.6% CPU use with 2 MPI tasks x no OpenMP threads

MPI task timing breakdown:
Section |  min time  |  avg time  |  max time  |%varavg| %total
---------------------------------------------------------------
Pair    | 35.638     | 35.805     | 35.972     |   2.8 | 53.24
Neigh   | 27.389     | 27.391     | 27.393     |   0.0 | 40.73
Comm    | 2.9619     | 3.125      | 3.2881     |   9.2 |  4.65
Output  | 8.8215e-05 | 0.00012422 | 0.00016022 |   0.0 |  0.00
Modify  | 0.7471     | 0.74745    | 0.7478     |   0.0 |  1.11
Other   |            | 0.1859     |            |       |  0.28

Nlocal:    9826 ave 9838 max 9814 min
Histogram: 1 0 0 0 0 0 0 0 0 1
Nghost:    10352 ave 10363 max 10341 min
Histogram: 1 0 0 0 0 0 0 0 0 1
Neighs:    540144 ave 540973 max 539314 min
Histogram: 1 0 0 0 0 0 0 0 0 1

Total # of neighbors = 1080287
Ave neighs/atom = 54.9708
Neighbor list builds = 1000
Dangerous builds not checked
Setting up Verlet run ...
  Unit style    : metal
  Current step  : 2000
  Time step     : 0.001
Per MPI rank memory allocation (min/avg/max) = 11.15 | 11.15 | 11.15 Mbytes
Step Temp Press TotEng PotEng Enthalpy 
    2000    290.20956    26.916395   -122592.19   -123329.34   -122584.47 
   10000    2392.7338   -1553.0448   -107993.33   -114071.09   -108467.67 
Loop time of 540.828 on 2 procs for 8000 steps with 19652 atoms

Performance: 1.278 ns/day, 18.779 hours/ns, 14.792 timesteps/s
96.2% CPU use with 2 MPI tasks x no OpenMP threads

MPI task timing breakdown:
Section |  min time  |  avg time  |  max time  |%varavg| %total
---------------------------------------------------------------
Pair    | 287.27     | 289.41     | 291.55     |  12.6 | 53.51
Neigh   | 210        | 212.01     | 214.02     |  13.8 | 39.20
Comm    | 27.066     | 31.298     | 35.529     |  75.6 |  5.79
Output  | 0.027262   | 0.027278   | 0.027294   |   0.0 |  0.01
Modify  | 6.449      | 6.4495     | 6.4499     |   0.0 |  1.19
Other   |            | 1.632      |            |       |  0.30

Nlocal:    9826 ave 9853 max 9799 min
Histogram: 1 0 0 0 0 0 0 0 0 1
Nghost:    10807 ave 10810 max 10804 min
Histogram: 1 0 0 0 0 0 0 0 0 1
Neighs:    501688 ave 504046 max 499329 min
Histogram: 1 0 0 0 0 0 0 0 0 1

Total # of neighbors = 1003375
Ave neighs/atom = 51.0571
Neighbor list builds = 8000
Dangerous builds not checked
Setting up Verlet run ...
  Unit style    : metal
  Current step  : 10000
  Time step     : 0.001
Per MPI rank memory allocation (min/avg/max) = 11.17 | 11.17 | 11.17 Mbytes
Step Temp Press TotEng PotEng Enthalpy 
   10000    2392.7338   -1553.0448   -107993.33   -114071.09   -108467.67 
   20000    2445.3222    311.89209   -106849.33   -113060.67   -106753.65 
   30000    2450.8322   -1500.0812   -106889.22   -113114.55   -107350.77 
   40000    2458.3766    213.32655   -106756.83   -113001.33   -106691.34 
Loop time of 1974.32 on 2 procs for 30000 steps with 19652 atoms

Performance: 1.313 ns/day, 18.281 hours/ns, 15.195 timesteps/s
97.7% CPU use with 2 MPI tasks x no OpenMP threads

MPI task timing breakdown:
Section |  min time  |  avg time  |  max time  |%varavg| %total
---------------------------------------------------------------
Pair    | 1022.6     | 1024.5     | 1026.4     |   5.9 | 51.89
Neigh   | 808.86     | 810.31     | 811.77     |   5.1 | 41.04
Comm    | 109.9      | 110.71     | 111.52     |   7.7 |  5.61
Output  | 0.08713    | 0.087156   | 0.087181   |   0.0 |  0.00
Modify  | 22.631     | 22.993     | 23.355     |   7.5 |  1.16
Other   |            | 5.732      |            |       |  0.29

Nlocal:    9826 ave 9829 max 9823 min
Histogram: 1 0 0 0 0 0 0 0 0 1
Nghost:    10963 ave 10965 max 10961 min
Histogram: 1 0 0 0 0 0 0 0 0 1
Neighs:    499317 ave 499361 max 499273 min
Histogram: 1 0 0 0 0 0 0 0 0 1

Total # of neighbors = 998634
Ave neighs/atom = 50.8159
Neighbor list builds = 30000
Dangerous builds not checked
Setting up Verlet run ...
  Unit style    : metal
  Current step  : 40000
  Time step     : 0.001
Per MPI rank memory allocation (min/avg/max) = 11.21 | 11.21 | 11.21 Mbytes
Step Temp Press TotEng PotEng Enthalpy 
   40000    2458.3766    213.32655   -106756.83   -113001.33   -106691.34 
   40495    2418.0856    234.92683   -107033.85   -113176.01   -106961.86 
Loop time of 30.6419 on 2 procs for 495 steps with 19652 atoms

Performance: 1.396 ns/day, 17.195 hours/ns, 16.154 timesteps/s
99.8% CPU use with 2 MPI tasks x no OpenMP threads

MPI task timing breakdown:
Section |  min time  |  avg time  |  max time  |%varavg| %total
---------------------------------------------------------------
Pair    | 15.62      | 15.692     | 15.763     |   1.8 | 51.21
Neigh   | 13.366     | 13.37      | 13.374     |   0.1 | 43.63
Comm    | 1.0333     | 1.1118     | 1.1904     |   7.4 |  3.63
Output  | 5.6028e-05 | 9.203e-05  | 0.00012803 |   0.0 |  0.00
Modify  | 0.37385    | 0.37628    | 0.37872    |   0.4 |  1.23
Other   |            | 0.09183    |            |       |  0.30

Nlocal:    9826 ave 9839 max 9813 min
Histogram: 1 0 0 0 0 0 0 0 0 1
Nghost:    10936 ave 10946 max 10926 min
Histogram: 1 0 0 0 0 0 0 0 0 1
Neighs:    500517 ave 501454 max 499580 min
Histogram: 1 0 0 0 0 0 0 0 0 1

Total # of neighbors = 1001034
Ave neighs/atom = 50.938
Neighbor list builds = 495
Dangerous builds not checked
Setting up Verlet run ...
  Unit style    : metal
  Current step  : 40495
  Time step     : 0.001
Per MPI rank memory allocation (min/avg/max) = 11.21 | 11.21 | 11.21 Mbytes
Step Temp Press TotEng PotEng Enthalpy 
   40495    2418.0856    234.92683   -107033.85   -113176.01   -106961.86 
   50000    2415.2228   -206.71566   -107233.02   -113367.91   -107296.33 
Loop time of 611.557 on 2 procs for 9505 steps with 19652 atoms

Performance: 1.343 ns/day, 17.872 hours/ns, 15.542 timesteps/s
97.1% CPU use with 2 MPI tasks x no OpenMP threads

MPI task timing breakdown:
Section |  min time  |  avg time  |  max time  |%varavg| %total
---------------------------------------------------------------
Pair    | 318.55     | 318.56     | 318.57     |   0.0 | 52.09
Neigh   | 250.82     | 251.96     | 253.11     |   7.2 | 41.20
Comm    | 29.753     | 31.044     | 32.335     |  23.2 |  5.08
Output  | 0.03655    | 0.0366     | 0.036651   |   0.0 |  0.01
Modify  | 8.1146     | 8.2512     | 8.3878     |   4.8 |  1.35
Other   |            | 1.705      |            |       |  0.28

Nlocal:    9826 ave 9843 max 9809 min
Histogram: 1 0 0 0 0 0 0 0 0 1
Nghost:    10918 ave 10928 max 10908 min
Histogram: 1 0 0 0 0 0 0 0 0 1
Neighs:    500733 ave 502091 max 499375 min
Histogram: 1 0 0 0 0 0 0 0 0 1

Total # of neighbors = 1001466
Ave neighs/atom = 50.96
Neighbor list builds = 9505
Dangerous builds not checked
Setting up Verlet run ...
  Unit style    : metal
  Current step  : 50000
  Time step     : 0.001
Per MPI rank memory allocation (min/avg/max) = 11.22 | 11.22 | 11.22 Mbytes
Step Temp Press TotEng PotEng Enthalpy 
   50000    2415.2228   -206.71566   -107233.02   -113367.91   -107296.33 
   50495    2340.3347     15.16297   -107388.74    -113333.4    -107384.1 
Loop time of 30.2711 on 2 procs for 495 steps with 19652 atoms

Performance: 1.413 ns/day, 16.987 hours/ns, 16.352 timesteps/s
99.1% CPU use with 2 MPI tasks x no OpenMP threads

MPI task timing breakdown:
Section |  min time  |  avg time  |  max time  |%varavg| %total
---------------------------------------------------------------
Pair    | 15.585     | 15.622     | 15.658     |   0.9 | 51.61
Neigh   | 12.129     | 12.745     | 13.361     |  17.3 | 42.10
Comm    | 0.79434    | 1.4593     | 2.1243     |  55.0 |  4.82
Output  | 8.5115e-05 | 0.00012362 | 0.00016212 |   0.0 |  0.00
Modify  | 0.34821    | 0.35497    | 0.36174    |   1.1 |  1.17
Other   |            | 0.09035    |            |       |  0.30

Nlocal:    9826 ave 9830 max 9822 min
Histogram: 1 0 0 0 0 0 0 0 0 1
Nghost:    10983 ave 11000 max 10966 min
Histogram: 1 0 0 0 0 0 0 0 0 1
Neighs:    501208 ave 501651 max 500764 min
Histogram: 1 0 0 0 0 0 0 0 0 1

Total # of neighbors = 1002415
Ave neighs/atom = 51.0083
Neighbor list builds = 495
Dangerous builds not checked
Setting up Verlet run ...
  Unit style    : metal
  Current step  : 50495
  Time step     : 0.001
Per MPI rank memory allocation (min/avg/max) = 11.22 | 11.22 | 11.22 Mbytes
Step Temp Press TotEng PotEng Enthalpy 
   50495    2340.3347     15.16297   -107388.74    -113333.4    -107384.1 
   60000    2353.3186   -654.73829   -107567.21   -113544.86   -107767.48 
Loop time of 620.739 on 2 procs for 9505 steps with 19652 atoms

Performance: 1.323 ns/day, 18.141 hours/ns, 15.312 timesteps/s
97.6% CPU use with 2 MPI tasks x no OpenMP threads

MPI task timing breakdown:
Section |  min time  |  avg time  |  max time  |%varavg| %total
---------------------------------------------------------------
Pair    | 320.48     | 321.69     | 322.91     |   6.8 | 51.82
Neigh   | 247.96     | 252.84     | 257.71     |  30.7 | 40.73
Comm    | 30.979     | 37.201     | 43.424     | 102.0 |  5.99
Output  | 0.03367    | 0.033685   | 0.033699   |   0.0 |  0.01
Modify  | 7.1652     | 7.2061     | 7.247      |   1.5 |  1.16
Other   |            | 1.769      |            |       |  0.29

Nlocal:    9826 ave 9834 max 9818 min
Histogram: 1 0 0 0 0 0 0 0 0 1
Nghost:    10960 ave 10987 max 10933 min
Histogram: 1 0 0 0 0 0 0 0 0 1
Neighs:    501191 ave 501395 max 500987 min
Histogram: 1 0 0 0 0 0 0 0 0 1

Total # of neighbors = 1002382
Ave neighs/atom = 51.0066
Neighbor list builds = 9505
Dangerous builds not checked
Setting up Verlet run ...
  Unit style    : metal
  Current step  : 60000
  Time step     : 0.001
Per MPI rank memory allocation (min/avg/max) = 11.23 | 11.23 | 11.23 Mbytes
Step Temp Press TotEng PotEng Enthalpy 
   60000    2353.3186   -654.73829   -107567.21   -113544.86   -107767.48 
   60495    2294.4275   -287.35665   -107735.41   -113563.47   -107823.26 
Loop time of 31.8827 on 2 procs for 495 steps with 19652 atoms

Performance: 1.341 ns/day, 17.892 hours/ns, 15.526 timesteps/s
97.9% CPU use with 2 MPI tasks x no OpenMP threads

MPI task timing breakdown:
Section |  min time  |  avg time  |  max time  |%varavg| %total
---------------------------------------------------------------
Pair    | 16.599     | 16.688     | 16.777     |   2.2 | 52.34
Neigh   | 12.755     | 13.093     | 13.431     |   9.3 | 41.07
Comm    | 1.2948     | 1.549      | 1.8032     |  20.4 |  4.86
Output  | 7.391e-05  | 0.00011098 | 0.00014806 |   0.0 |  0.00
Modify  | 0.45981    | 0.46322    | 0.46664    |   0.5 |  1.45
Other   |            | 0.08972    |            |       |  0.28

Nlocal:    9826 ave 9835 max 9817 min
Histogram: 1 0 0 0 0 0 0 0 0 1
Nghost:    10880.5 ave 10917 max 10844 min
Histogram: 1 0 0 0 0 0 0 0 0 1
Neighs:    501778 ave 501831 max 501726 min
Histogram: 1 0 0 0 0 0 0 0 0 1

Total # of neighbors = 1003557
Ave neighs/atom = 51.0664
Neighbor list builds = 495
Dangerous builds not checked
Setting up Verlet run ...
  Unit style    : metal
  Current step  : 60495
  Time step     : 0.001
Per MPI rank memory allocation (min/avg/max) = 11.23 | 11.23 | 11.23 Mbytes
Step Temp Press TotEng PotEng Enthalpy 
   60495    2294.4275   -287.35665   -107735.41   -113563.47   -107823.26 
   70000    2291.7037    62.867522    -107861.9   -113683.04   -107842.73 
Loop time of 567.094 on 2 procs for 9505 steps with 19652 atoms

Performance: 1.448 ns/day, 16.573 hours/ns, 16.761 timesteps/s
99.2% CPU use with 2 MPI tasks x no OpenMP threads

MPI task timing breakdown:
Section |  min time  |  avg time  |  max time  |%varavg| %total
---------------------------------------------------------------
Pair    | 289.45     | 289.92     | 290.39     |   2.8 | 51.12
Neigh   | 241.04     | 241.97     | 242.9      |   6.0 | 42.67
Comm    | 25.392     | 26.815     | 28.239     |  27.5 |  4.73
Output  | 0.034504   | 0.034518   | 0.034532   |   0.0 |  0.01
Modify  | 6.7158     | 6.7272     | 6.7387     |   0.4 |  1.19
Other   |            | 1.631      |            |       |  0.29

Nlocal:    9826 ave 9829 max 9823 min
Histogram: 1 0 0 0 0 0 0 0 0 1
Nghost:    10989 ave 10990 max 10988 min
Histogram: 1 0 0 0 0 0 0 0 0 1
Neighs:    503038 ave 503169 max 502906 min
Histogram: 1 0 0 0 0 0 0 0 0 1

Total # of neighbors = 1006075
Ave neighs/atom = 51.1945
Neighbor list builds = 9505
Dangerous builds not checked
Setting up Verlet run ...
  Unit style    : metal
  Current step  : 70000
  Time step     : 0.001
Per MPI rank memory allocation (min/avg/max) = 11.24 | 11.24 | 11.24 Mbytes
Step Temp Press TotEng PotEng Enthalpy 
   70000    2291.7037    62.867522    -107861.9   -113683.04   -107842.73 
   70495     2268.388    1261.2717   -108034.58   -113796.49   -107650.72 
Loop time of 33.0313 on 2 procs for 495 steps with 19652 atoms

Performance: 1.295 ns/day, 18.536 hours/ns, 14.986 timesteps/s
97.9% CPU use with 2 MPI tasks x no OpenMP threads

MPI task timing breakdown:
Section |  min time  |  avg time  |  max time  |%varavg| %total
---------------------------------------------------------------
Pair    | 17.064     | 17.235     | 17.405     |   4.1 | 52.18
Neigh   | 13.155     | 13.627     | 14.099     |  12.8 | 41.26
Comm    | 1.0286     | 1.6849     | 2.3413     |  50.6 |  5.10
Output  | 7.5102e-05 | 0.00010097 | 0.00012684 |   0.0 |  0.00
Modify  | 0.38031    | 0.3862     | 0.39208    |   0.9 |  1.17
Other   |            | 0.09811    |            |       |  0.30

Nlocal:    9826 ave 9838 max 9814 min
Histogram: 1 0 0 0 0 0 0 0 0 1
Nghost:    10960.5 ave 10984 max 10937 min
Histogram: 1 0 0 0 0 0 0 0 0 1
Neighs:    504036 ave 504540 max 503532 min
Histogram: 1 0 0 0 0 0 0 0 0 1

Total # of neighbors = 1008072
Ave neighs/atom = 51.2962
Neighbor list builds = 495
Dangerous builds not checked
Setting up Verlet run ...
  Unit style    : metal
  Current step  : 70495
  Time step     : 0.001
Per MPI rank memory allocation (min/avg/max) = 11.24 | 11.24 | 11.24 Mbytes
Step Temp Press TotEng PotEng Enthalpy 
   70495     2268.388    1261.2717   -108034.58   -113796.49   -107650.72 
   80000    2269.4027    1348.7106   -108104.79   -113869.28   -107694.54 
Loop time of 566.2 on 2 procs for 9505 steps with 19652 atoms

Performance: 1.450 ns/day, 16.547 hours/ns, 16.787 timesteps/s
98.7% CPU use with 2 MPI tasks x no OpenMP threads

MPI task timing breakdown:
Section |  min time  |  avg time  |  max time  |%varavg| %total
---------------------------------------------------------------
Pair    | 290.37     | 292        | 293.63     |   9.5 | 51.57
Neigh   | 237.13     | 240.19     | 243.25     |  19.7 | 42.42
Comm    | 24.345     | 25.843     | 27.34      |  29.5 |  4.56
Output  | 0.024412   | 0.024437   | 0.024462   |   0.0 |  0.00
Modify  | 6.4839     | 6.5362     | 6.5886     |   2.0 |  1.15
Other   |            | 1.608      |            |       |  0.28

Nlocal:    9826 ave 9848 max 9804 min
Histogram: 1 0 0 0 0 0 0 0 0 1
Nghost:    10949 ave 10978 max 10920 min
Histogram: 1 0 0 0 0 0 0 0 0 1
Neighs:    504636 ave 505749 max 503523 min
Histogram: 1 0 0 0 0 0 0 0 0 1

Total # of neighbors = 1009272
Ave neighs/atom = 51.3572
Neighbor list builds = 9505
Dangerous builds not checked
Setting up Verlet run ...
  Unit style    : metal
  Current step  : 80000
  Time step     : 0.001
Per MPI rank memory allocation (min/avg/max) = 11.24 | 11.24 | 11.24 Mbytes
Step Temp Press TotEng PotEng Enthalpy 
   80000    2269.4027    1348.7106   -108104.79   -113869.28   -107694.54 
   80495     2227.694    983.47166   -108373.29   -114031.83   -108074.47 
Loop time of 29.8827 on 2 procs for 495 steps with 19652 atoms

Performance: 1.431 ns/day, 16.769 hours/ns, 16.565 timesteps/s
99.4% CPU use with 2 MPI tasks x no OpenMP threads

MPI task timing breakdown:
Section |  min time  |  avg time  |  max time  |%varavg| %total
---------------------------------------------------------------
Pair    | 15.468     | 15.505     | 15.542     |   0.9 | 51.89
Neigh   | 12.773     | 12.826     | 12.879     |   1.5 | 42.92
Comm    | 1.0931     | 1.1081     | 1.1231     |   1.4 |  3.71
Output  | 5.6028e-05 | 8.9526e-05 | 0.00012302 |   0.0 |  0.00
Modify  | 0.35609    | 0.35626    | 0.35643    |   0.0 |  1.19
Other   |            | 0.08737    |            |       |  0.29

Nlocal:    9826 ave 9848 max 9804 min
Histogram: 1 0 0 0 0 0 0 0 0 1
Nghost:    11001.5 ave 11020 max 10983 min
Histogram: 1 0 0 0 0 0 0 0 0 1
Neighs:    505158 ave 506822 max 503495 min
Histogram: 1 0 0 0 0 0 0 0 0 1

Total # of neighbors = 1010317
Ave neighs/atom = 51.4104
Neighbor list builds = 495
Dangerous builds not checked
Setting up Verlet run ...
  Unit style    : metal
  Current step  : 80495
  Time step     : 0.001
Per MPI rank memory allocation (min/avg/max) = 11.24 | 11.24 | 11.24 Mbytes
Step Temp Press TotEng PotEng Enthalpy 
   80495     2227.694    983.47166   -108373.29   -114031.83   -108074.47 
   90000    2195.2651   -1346.9148   -108464.26   -114040.43   -108874.65 
Loop time of 561.592 on 2 procs for 9505 steps with 19652 atoms

Performance: 1.462 ns/day, 16.412 hours/ns, 16.925 timesteps/s
99.4% CPU use with 2 MPI tasks x no OpenMP threads

MPI task timing breakdown:
Section |  min time  |  avg time  |  max time  |%varavg| %total
---------------------------------------------------------------
Pair    | 289.44     | 289.85     | 290.25     |   2.4 | 51.61
Neigh   | 237.97     | 238.71     | 239.45     |   4.8 | 42.51
Comm    | 23.282     | 24.674     | 26.065     |  28.0 |  4.39
Output  | 0.033293   | 0.033307   | 0.033322   |   0.0 |  0.01
Modify  | 6.4847     | 6.7273     | 6.9699     |   9.4 |  1.20
Other   |            | 1.6        |            |       |  0.28

Nlocal:    9826 ave 9846 max 9806 min
Histogram: 1 0 0 0 0 0 0 0 0 1
Nghost:    10904 ave 10906 max 10902 min
Histogram: 1 0 0 0 0 0 0 0 0 1
Neighs:    503420 ave 505566 max 501274 min
Histogram: 1 0 0 0 0 0 0 0 0 1

Total # of neighbors = 1006840
Ave neighs/atom = 51.2335
Neighbor list builds = 9505
Dangerous builds not checked
Setting up Verlet run ...
  Unit style    : metal
  Current step  : 90000
  Time step     : 0.001
Per MPI rank memory allocation (min/avg/max) = 11.25 | 11.25 | 11.25 Mbytes
Step Temp Press TotEng PotEng Enthalpy 
   90000    2195.2651   -1346.9148   -108464.26   -114040.43   -108874.65 
   90495    2153.7116   -767.88615   -108723.61   -114194.23   -108957.28 
Loop time of 27.5446 on 2 procs for 495 steps with 19652 atoms

Performance: 1.553 ns/day, 15.457 hours/ns, 17.971 timesteps/s
100.0% CPU use with 2 MPI tasks x no OpenMP threads

MPI task timing breakdown:
Section |  min time  |  avg time  |  max time  |%varavg| %total
---------------------------------------------------------------
Pair    | 13.974     | 13.987     | 14.001     |   0.4 | 50.78
Neigh   | 12.067     | 12.113     | 12.16      |   1.3 | 43.98
Comm    | 0.96873    | 1.0326     | 1.0965     |   6.3 |  3.75
Output  | 9.203e-05  | 0.00013101 | 0.00016999 |   0.0 |  0.00
Modify  | 0.32671    | 0.32929    | 0.33187    |   0.4 |  1.20
Other   |            | 0.08196    |            |       |  0.30

Nlocal:    9826 ave 9828 max 9824 min
Histogram: 1 0 0 0 0 0 0 0 0 1
Nghost:    10964 ave 10993 max 10935 min
Histogram: 1 0 0 0 0 0 0 0 0 1
Neighs:    504496 ave 504852 max 504139 min
Histogram: 1 0 0 0 0 0 0 0 0 1

Total # of neighbors = 1008991
Ave neighs/atom = 51.3429
Neighbor list builds = 495
Dangerous builds not checked
Setting up Verlet run ...
  Unit style    : metal
  Current step  : 90495
  Time step     : 0.001
Per MPI rank memory allocation (min/avg/max) = 11.25 | 11.25 | 11.25 Mbytes
Step Temp Press TotEng PotEng Enthalpy 
   90495    2153.7116   -767.88615   -108723.61   -114194.23   -108957.28 
  100000    2142.0941    769.33073   -108804.43   -114245.54   -108571.12 
Loop time of 572.959 on 2 procs for 9505 steps with 19652 atoms

Performance: 1.433 ns/day, 16.744 hours/ns, 16.589 timesteps/s
99.1% CPU use with 2 MPI tasks x no OpenMP threads

MPI task timing breakdown:
Section |  min time  |  avg time  |  max time  |%varavg| %total
---------------------------------------------------------------
Pair    | 296.35     | 297.68     | 299.01     |   7.7 | 51.95
Neigh   | 238.18     | 241.37     | 244.57     |  20.6 | 42.13
Comm    | 23.698     | 25.667     | 27.635     |  38.9 |  4.48
Output  | 0.021931   | 0.021943   | 0.021955   |   0.0 |  0.00
Modify  | 6.514      | 6.5955     | 6.6769     |   3.2 |  1.15
Other   |            | 1.623      |            |       |  0.28

Nlocal:    9826 ave 9835 max 9817 min
Histogram: 1 0 0 0 0 0 0 0 0 1
Nghost:    11020 ave 11046 max 10994 min
Histogram: 1 0 0 0 0 0 0 0 0 1
Neighs:    506320 ave 506990 max 505650 min
Histogram: 1 0 0 0 0 0 0 0 0 1

Total # of neighbors = 1012640
Ave neighs/atom = 51.5286
Neighbor list builds = 9505
Dangerous builds not checked
Setting up Verlet run ...
  Unit style    : metal
  Current step  : 100000
  Time step     : 0.001
Per MPI rank memory allocation (min/avg/max) = 11.25 | 11.25 | 11.25 Mbytes
Step Temp Press TotEng PotEng Enthalpy 
  100000    2142.0941    769.33073   -108804.43   -114245.54   -108571.12 
  100495    2104.4751    1165.1641   -109037.28   -114382.83   -108684.65 
Loop time of 28.7499 on 2 procs for 495 steps with 19652 atoms

Performance: 1.488 ns/day, 16.134 hours/ns, 17.217 timesteps/s
99.0% CPU use with 2 MPI tasks x no OpenMP threads

MPI task timing breakdown:
Section |  min time  |  avg time  |  max time  |%varavg| %total
---------------------------------------------------------------
Pair    | 14.585     | 14.614     | 14.642     |   0.8 | 50.83
Neigh   | 12.288     | 12.289     | 12.291     |   0.0 | 42.75
Comm    | 1.3989     | 1.4286     | 1.4582     |   2.5 |  4.97
Output  | 9.203e-05  | 0.000126   | 0.00015998 |   0.0 |  0.00
Modify  | 0.33328    | 0.33518    | 0.33708    |   0.3 |  1.17
Other   |            | 0.0832     |            |       |  0.29

Nlocal:    9826 ave 9836 max 9816 min
Histogram: 1 0 0 0 0 0 0 0 0 1
Nghost:    10997 ave 11006 max 10988 min
Histogram: 1 0 0 0 0 0 0 0 0 1
Neighs:    507308 ave 507516 max 507100 min
Histogram: 1 0 0 0 0 0 0 0 0 1

Total # of neighbors = 1014616
Ave neighs/atom = 51.6291
Neighbor list builds = 495
Dangerous builds not checked
Setting up Verlet run ...
  Unit style    : metal
  Current step  : 100495
  Time step     : 0.001
Per MPI rank memory allocation (min/avg/max) = 11.25 | 11.25 | 11.25 Mbytes
Step Temp Press TotEng PotEng Enthalpy 
  100495    2104.4751    1165.1641   -109037.28   -114382.83   -108684.65 
  110000    2102.6734   -1990.8799   -109198.27   -114539.25   -109803.18 
Loop time of 596.2 on 2 procs for 9505 steps with 19652 atoms

Performance: 1.377 ns/day, 17.424 hours/ns, 15.943 timesteps/s
98.8% CPU use with 2 MPI tasks x no OpenMP threads

MPI task timing breakdown:
Section |  min time  |  avg time  |  max time  |%varavg| %total
---------------------------------------------------------------
Pair    | 310.55     | 311.46     | 312.37     |   5.2 | 52.24
Neigh   | 248.27     | 250.63     | 252.98     |  14.9 | 42.04
Comm    | 23.271     | 25.14      | 27.01      |  37.3 |  4.22
Output  | 0.046697   | 0.046727   | 0.046757   |   0.0 |  0.01
Modify  | 6.818      | 7.2306     | 7.6433     |  15.3 |  1.21
Other   |            | 1.697      |            |       |  0.28

Nlocal:    9826 ave 9841 max 9811 min
Histogram: 1 0 0 0 0 0 0 0 0 1
Nghost:    10960 ave 10975 max 10945 min
Histogram: 1 0 0 0 0 0 0 0 0 1
Neighs:    505541 ave 506167 max 504915 min
Histogram: 1 0 0 0 0 0 0 0 0 1

Total # of neighbors = 1011082
Ave neighs/atom = 51.4493
Neighbor list builds = 9505
Dangerous builds not checked
Setting up Verlet run ...
  Unit style    : metal
  Current step  : 110000
  Time step     : 0.001
Per MPI rank memory allocation (min/avg/max) = 11.25 | 11.25 | 11.26 Mbytes
Step Temp Press TotEng PotEng Enthalpy 
  110000    2102.6734   -1990.8799   -109198.27   -114539.25   -109803.18 
  110495    2026.0872   -1584.4062   -109422.34   -114568.79   -109903.15 
Loop time of 34.4751 on 2 procs for 495 steps with 19652 atoms

Performance: 1.241 ns/day, 19.346 hours/ns, 14.358 timesteps/s
97.5% CPU use with 2 MPI tasks x no OpenMP threads

MPI task timing breakdown:
Section |  min time  |  avg time  |  max time  |%varavg| %total
---------------------------------------------------------------
Pair    | 17.899     | 17.973     | 18.048     |   1.8 | 52.13
Neigh   | 13.95      | 14.077     | 14.204     |   3.4 | 40.83
Comm    | 1.8591     | 1.9163     | 1.9735     |   4.1 |  5.56
Output  | 7.1049e-05 | 9.954e-05  | 0.00012803 |   0.0 |  0.00
Modify  | 0.40424    | 0.40814    | 0.41203    |   0.6 |  1.18
Other   |            | 0.1003     |            |       |  0.29

Nlocal:    9826 ave 9849 max 9803 min
Histogram: 1 0 0 0 0 0 0 0 0 1
Nghost:    10974.5 ave 11017 max 10932 min
Histogram: 1 0 0 0 0 0 0 0 0 1
Neighs:    505694 ave 507121 max 504268 min
Histogram: 1 0 0 0 0 0 0 0 0 1

Total # of neighbors = 1011389
Ave neighs/atom = 51.4649
Neighbor list builds = 495
Dangerous builds not checked
Setting up Verlet run ...
  Unit style    : metal
  Current step  : 110495
  Time step     : 0.001
Per MPI rank memory allocation (min/avg/max) = 11.25 | 11.25 | 11.26 Mbytes
Step Temp Press TotEng PotEng Enthalpy 
  110495    2026.0872   -1584.4062   -109422.34   -114568.79   -109903.15 
  120000    2037.3159    -524.7613    -109577.2   -114752.17      -109736 
Loop time of 662.498 on 2 procs for 9505 steps with 19652 atoms

Performance: 1.240 ns/day, 19.361 hours/ns, 14.347 timesteps/s
98.2% CPU use with 2 MPI tasks x no OpenMP threads

MPI task timing breakdown:
Section |  min time  |  avg time  |  max time  |%varavg| %total
---------------------------------------------------------------
Pair    | 344.16     | 344.23     | 344.31     |   0.4 | 51.96
Neigh   | 274.23     | 274.88     | 275.53     |   3.9 | 41.49
Comm    | 32.582     | 33.168     | 33.755     |  10.2 |  5.01
Output  | 0.043562   | 0.043586   | 0.04361    |   0.0 |  0.01
Modify  | 8.2357     | 8.2423     | 8.2489     |   0.2 |  1.24
Other   |            | 1.929      |            |       |  0.29

Nlocal:    9826 ave 9840 max 9812 min
Histogram: 1 0 0 0 0 0 0 0 0 1
Nghost:    11010.5 ave 11011 max 11010 min
Histogram: 1 0 0 0 0 0 0 0 0 1
Neighs:    507393 ave 509078 max 505708 min
Histogram: 1 0 0 0 0 0 0 0 0 1

Total # of neighbors = 1014786
Ave neighs/atom = 51.6378
Neighbor list builds = 9505
Dangerous builds not checked
Setting up Verlet run ...
  Unit style    : metal
  Current step  : 120000
  Time step     : 0.001
Per MPI rank memory allocation (min/avg/max) = 11.26 | 11.26 | 11.26 Mbytes
Step Temp Press TotEng PotEng Enthalpy 
  120000    2037.3159    -524.7613    -109577.2   -114752.17      -109736 
  120495    2023.4399   -39.468695   -109692.69   -114832.41   -109704.62 
Loop time of 34.9571 on 2 procs for 495 steps with 19652 atoms

Performance: 1.223 ns/day, 19.617 hours/ns, 14.160 timesteps/s
97.3% CPU use with 2 MPI tasks x no OpenMP threads

MPI task timing breakdown:
Section |  min time  |  avg time  |  max time  |%varavg| %total
---------------------------------------------------------------
Pair    | 17.49      | 17.531     | 17.572     |   1.0 | 50.15
Neigh   | 14.164     | 14.283     | 14.401     |   3.1 | 40.86
Comm    | 2.551      | 2.6333     | 2.7157     |   5.1 |  7.53
Output  | 7.8917e-05 | 0.0001229  | 0.00016689 |   0.0 |  0.00
Modify  | 0.40418    | 0.40824    | 0.41229    |   0.6 |  1.17
Other   |            | 0.1016     |            |       |  0.29

Nlocal:    9826 ave 9838 max 9814 min
Histogram: 1 0 0 0 0 0 0 0 0 1
Nghost:    10998 ave 11005 max 10991 min
Histogram: 1 0 0 0 0 0 0 0 0 1
Neighs:    508198 ave 509331 max 507066 min
Histogram: 1 0 0 0 0 0 0 0 0 1

Total # of neighbors = 1016397
Ave neighs/atom = 51.7198
Neighbor list builds = 495
Dangerous builds not checked
Setting up Verlet run ...
  Unit style    : metal
  Current step  : 120495
  Time step     : 0.001
Per MPI rank memory allocation (min/avg/max) = 11.26 | 11.26 | 11.26 Mbytes
Step Temp Press TotEng PotEng Enthalpy 
  120495    2023.4399   -39.468695   -109692.69   -114832.41   -109704.62 
  130000    1984.1107   -763.36403   -109867.96   -114907.79   -110098.82 
Loop time of 648.797 on 2 procs for 9505 steps with 19652 atoms

Performance: 1.266 ns/day, 18.961 hours/ns, 14.650 timesteps/s
98.9% CPU use with 2 MPI tasks x no OpenMP threads

MPI task timing breakdown:
Section |  min time  |  avg time  |  max time  |%varavg| %total
---------------------------------------------------------------
Pair    | 339.3      | 340.23     | 341.16     |   5.1 | 52.44
Neigh   | 273.85     | 274.05     | 274.24     |   1.2 | 42.24
Comm    | 22.846     | 23.978     | 25.109     |  23.1 |  3.70
Output  | 0.03296    | 0.032984   | 0.033008   |   0.0 |  0.01
Modify  | 8.6034     | 8.6051     | 8.6067     |   0.1 |  1.33
Other   |            | 1.905      |            |       |  0.29

Nlocal:    9826 ave 9849 max 9803 min
Histogram: 1 0 0 0 0 0 0 0 0 1
Nghost:    10987 ave 10997 max 10977 min
Histogram: 1 0 0 0 0 0 0 0 0 1
Neighs:    508154 ave 509312 max 506997 min
Histogram: 1 0 0 0 0 0 0 0 0 1

Total # of neighbors = 1016309
Ave neighs/atom = 51.7153
Neighbor list builds = 9505
Dangerous builds not checked
Setting up Verlet run ...
  Unit style    : metal
  Current step  : 130000
  Time step     : 0.001
Per MPI rank memory allocation (min/avg/max) = 11.26 | 11.26 | 11.26 Mbytes
Step Temp Press TotEng PotEng Enthalpy 
  130000    1984.1107   -763.36403   -109867.96   -114907.79   -110098.82 
  130495    1950.1815   -130.61377   -110090.43   -115044.07   -110129.84 
Loop time of 32.9372 on 2 procs for 495 steps with 19652 atoms

Performance: 1.298 ns/day, 18.483 hours/ns, 15.029 timesteps/s
99.6% CPU use with 2 MPI tasks x no OpenMP threads

MPI task timing breakdown:
Section |  min time  |  avg time  |  max time  |%varavg| %total
---------------------------------------------------------------
Pair    | 17.229     | 17.267     | 17.305     |   0.9 | 52.42
Neigh   | 13.813     | 13.924     | 14.034     |   3.0 | 42.27
Comm    | 1.1804     | 1.2551     | 1.3297     |   6.7 |  3.81
Output  | 6.5088e-05 | 9.0599e-05 | 0.00011611 |   0.0 |  0.00
Modify  | 0.39232    | 0.39395    | 0.39557    |   0.3 |  1.20
Other   |            | 0.09745    |            |       |  0.30

Nlocal:    9826 ave 9842 max 9810 min
Histogram: 1 0 0 0 0 0 0 0 0 1
Nghost:    11026 ave 11044 max 11008 min
Histogram: 1 0 0 0 0 0 0 0 0 1
Neighs:    509592 ave 510394 max 508791 min
Histogram: 1 0 0 0 0 0 0 0 0 1

Total # of neighbors = 1019185
Ave neighs/atom = 51.8616
Neighbor list builds = 495
Dangerous builds not checked
Setting up Verlet run ...
  Unit style    : metal
  Current step  : 130495
  Time step     : 0.001
Per MPI rank memory allocation (min/avg/max) = 11.26 | 11.26 | 11.26 Mbytes
Step Temp Press TotEng PotEng Enthalpy 
  130495    1950.1815   -130.61377   -110090.43   -115044.07   -110129.84 
  140000    1939.8118    1391.3713   -110119.16   -115046.46   -109700.29 
Loop time of 642.853 on 2 procs for 9505 steps with 19652 atoms

Performance: 1.277 ns/day, 18.787 hours/ns, 14.786 timesteps/s
98.9% CPU use with 2 MPI tasks x no OpenMP threads

MPI task timing breakdown:
Section |  min time  |  avg time  |  max time  |%varavg| %total
---------------------------------------------------------------
Pair    | 335.53     | 336.36     | 337.18     |   4.5 | 52.32
Neigh   | 267.59     | 269.28     | 270.96     |  10.3 | 41.89
Comm    | 26.238     | 27.118     | 27.998     |  16.9 |  4.22
Output  | 0.033148   | 0.033166   | 0.033183   |   0.0 |  0.01
Modify  | 8.1959     | 8.2085     | 8.221      |   0.4 |  1.28
Other   |            | 1.86       |            |       |  0.29

Nlocal:    9826 ave 9832 max 9820 min
Histogram: 1 0 0 0 0 0 0 0 0 1
Nghost:    10970.5 ave 10981 max 10960 min
Histogram: 1 0 0 0 0 0 0 0 0 1
Neighs:    510695 ave 511009 max 510381 min
Histogram: 1 0 0 0 0 0 0 0 0 1

Total # of neighbors = 1021390
Ave neighs/atom = 51.9738
Neighbor list builds = 9505
Dangerous builds not checked
Setting up Verlet run ...
  Unit style    : metal
  Current step  : 140000
  Time step     : 0.001
Per MPI rank memory allocation (min/avg/max) = 11.26 | 11.26 | 11.26 Mbytes
Step Temp Press TotEng PotEng Enthalpy 
  140000    1939.8118    1391.3713   -110119.16   -115046.46   -109700.29 
  140495    1918.6179    1485.9198   -110364.61   -115238.07   -109918.08 
Loop time of 31.6298 on 2 procs for 495 steps with 19652 atoms

Performance: 1.352 ns/day, 17.750 hours/ns, 15.650 timesteps/s
99.9% CPU use with 2 MPI tasks x no OpenMP threads

MPI task timing breakdown:
Section |  min time  |  avg time  |  max time  |%varavg| %total
---------------------------------------------------------------
Pair    | 16.369     | 16.495     | 16.62      |   3.1 | 52.15
Neigh   | 13.067     | 13.481     | 13.896     |  11.3 | 42.62
Comm    | 0.8855     | 1.1841     | 1.4826     |  27.4 |  3.74
Output  | 8.3923e-05 | 0.00011647 | 0.00014901 |   0.0 |  0.00
Modify  | 0.36868    | 0.37622    | 0.38377    |   1.2 |  1.19
Other   |            | 0.09368    |            |       |  0.30

Nlocal:    9826 ave 9833 max 9819 min
Histogram: 1 0 0 0 0 0 0 0 0 1
Nghost:    11043.5 ave 11065 max 11022 min
Histogram: 1 0 0 0 0 0 0 0 0 1
Neighs:    511856 ave 512666 max 511047 min
Histogram: 1 0 0 0 0 0 0 0 0 1

Total # of neighbors = 1023713
Ave neighs/atom = 52.0921
Neighbor list builds = 495
Dangerous builds not checked
Setting up Verlet run ...
  Unit style    : metal
  Current step  : 140495
  Time step     : 0.001
Per MPI rank memory allocation (min/avg/max) = 11.26 | 11.26 | 11.26 Mbytes
Step Temp Press TotEng PotEng Enthalpy 
  140495    1918.6179    1485.9198   -110364.61   -115238.07   -109918.08 
  150000    1909.9728    1769.7844   -110468.25   -115319.76   -109936.66 
Loop time of 643.988 on 2 procs for 9505 steps with 19652 atoms

Performance: 1.275 ns/day, 18.820 hours/ns, 14.760 timesteps/s
98.7% CPU use with 2 MPI tasks x no OpenMP threads

MPI task timing breakdown:
Section |  min time  |  avg time  |  max time  |%varavg| %total
---------------------------------------------------------------
Pair    | 336.84     | 337.77     | 338.71     |   5.1 | 52.45
Neigh   | 268.2      | 268.47     | 268.75     |   1.7 | 41.69
Comm    | 25.871     | 27.414     | 28.957     |  29.5 |  4.26
Output  | 0.035994   | 0.036009   | 0.036025   |   0.0 |  0.01
Modify  | 7.5581     | 8.4388     | 9.3196     |  30.3 |  1.31
Other   |            | 1.851      |            |       |  0.29

Nlocal:    9826 ave 9839 max 9813 min
Histogram: 1 0 0 0 0 0 0 0 0 1
Nghost:    11045 ave 11082 max 11008 min
Histogram: 1 0 0 0 0 0 0 0 0 1
Neighs:    512040 ave 512696 max 511383 min
Histogram: 1 0 0 0 0 0 0 0 0 1

Total # of neighbors = 1024079
Ave neighs/atom = 52.1107
Neighbor list builds = 9505
Dangerous builds not checked
Setting up Verlet run ...
  Unit style    : metal
  Current step  : 150000
  Time step     : 0.001
Per MPI rank memory allocation (min/avg/max) = 11.27 | 11.27 | 11.27 Mbytes
Step Temp Press TotEng PotEng Enthalpy 
  150000    1909.9728    1769.7844   -110468.25   -115319.76   -109936.66 
  150495     1876.421    1028.0931   -110730.42    -115496.7   -110421.84 
Loop time of 32.7403 on 2 procs for 495 steps with 19652 atoms

Performance: 1.306 ns/day, 18.373 hours/ns, 15.119 timesteps/s
98.7% CPU use with 2 MPI tasks x no OpenMP threads

MPI task timing breakdown:
Section |  min time  |  avg time  |  max time  |%varavg| %total
---------------------------------------------------------------
Pair    | 16.768     | 16.783     | 16.799     |   0.4 | 51.26
Neigh   | 13.521     | 13.605     | 13.688     |   2.3 | 41.55
Comm    | 1.2404     | 1.3117     | 1.383      |   6.2 |  4.01
Output  | 8.893e-05  | 0.00012505 | 0.00016117 |   0.0 |  0.00
Modify  | 0.94367    | 0.94549    | 0.9473     |   0.2 |  2.89
Other   |            | 0.09489    |            |       |  0.29

Nlocal:    9826 ave 9836 max 9816 min
Histogram: 1 0 0 0 0 0 0 0 0 1
Nghost:    11048 ave 11093 max 11003 min
Histogram: 1 0 0 0 0 0 0 0 0 1
Neighs:    512565 ave 512620 max 512510 min
Histogram: 1 0 0 0 0 0 0 0 0 1

Total # of neighbors = 1025130
Ave neighs/atom = 52.1642
Neighbor list builds = 495
Dangerous builds not checked
Setting up Verlet run ...
  Unit style    : metal
  Current step  : 150495
  Time step     : 0.001
Per MPI rank memory allocation (min/avg/max) = 11.27 | 11.27 | 11.27 Mbytes
Step Temp Press TotEng PotEng Enthalpy 
  150495     1876.421    1028.0931   -110730.42    -115496.7   -110421.84 
  160000    1839.0156   -741.39794    -110885.5   -115556.77    -111108.4 
Loop time of 649.155 on 2 procs for 9505 steps with 19652 atoms

Performance: 1.265 ns/day, 18.971 hours/ns, 14.642 timesteps/s
98.7% CPU use with 2 MPI tasks x no OpenMP threads

MPI task timing breakdown:
Section |  min time  |  avg time  |  max time  |%varavg| %total
---------------------------------------------------------------
Pair    | 340.11     | 341.17     | 342.23     |   5.7 | 52.56
Neigh   | 270.79     | 271.08     | 271.36     |   1.7 | 41.76
Comm    | 26.343     | 27.144     | 27.944     |  15.4 |  4.18
Output  | 0.033176   | 0.033192   | 0.033208   |   0.0 |  0.01
Modify  | 7.8318     | 7.8493     | 7.8668     |   0.6 |  1.21
Other   |            | 1.884      |            |       |  0.29

Nlocal:    9826 ave 9844 max 9808 min
Histogram: 1 0 0 0 0 0 0 0 0 1
Nghost:    11043.5 ave 11067 max 11020 min
Histogram: 1 0 0 0 0 0 0 0 0 1
Neighs:    511595 ave 513730 max 509460 min
Histogram: 1 0 0 0 0 0 0 0 0 1

Total # of neighbors = 1023190
Ave neighs/atom = 52.0654
Neighbor list builds = 9505
Dangerous builds not checked
Setting up Verlet run ...
  Unit style    : metal
  Current step  : 160000
  Time step     : 0.001
Per MPI rank memory allocation (min/avg/max) = 11.27 | 11.27 | 11.27 Mbytes
Step Temp Press TotEng PotEng Enthalpy 
  160000    1839.0156   -741.39794    -110885.5   -115556.77    -111108.4 
  160495       1810.7   -928.65653   -111094.74   -115694.08   -111373.75 
Loop time of 33.964 on 2 procs for 495 steps with 19652 atoms

Performance: 1.259 ns/day, 19.059 hours/ns, 14.574 timesteps/s
97.7% CPU use with 2 MPI tasks x no OpenMP threads

MPI task timing breakdown:
Section |  min time  |  avg time  |  max time  |%varavg| %total
---------------------------------------------------------------
Pair    | 17.181     | 17.21      | 17.239     |   0.7 | 50.67
Neigh   | 14.019     | 14.019     | 14.019     |   0.0 | 41.28
Comm    | 1.2248     | 1.2549     | 1.2849     |   2.7 |  3.69
Output  | 8.0109e-05 | 0.00010264 | 0.00012517 |   0.0 |  0.00
Modify  | 1.3806     | 1.3812     | 1.3819     |   0.1 |  4.07
Other   |            | 0.09833    |            |       |  0.29

Nlocal:    9826 ave 9855 max 9797 min
Histogram: 1 0 0 0 0 0 0 0 0 1
Nghost:    11063 ave 11087 max 11039 min
Histogram: 1 0 0 0 0 0 0 0 0 1
Neighs:    512114 ave 515141 max 509088 min
Histogram: 1 0 0 0 0 0 0 0 0 1

Total # of neighbors = 1024229
Ave neighs/atom = 52.1183
Neighbor list builds = 495
Dangerous builds not checked
Setting up Verlet run ...
  Unit style    : metal
  Current step  : 160495
  Time step     : 0.001
Per MPI rank memory allocation (min/avg/max) = 11.27 | 11.27 | 11.27 Mbytes
Step Temp Press TotEng PotEng Enthalpy 
  160495       1810.7   -928.65653   -111094.74   -115694.08   -111373.75 
  170000    1785.8632   -740.36078      -111211   -115747.26   -111433.31 
Loop time of 646.755 on 2 procs for 9505 steps with 19652 atoms

Performance: 1.270 ns/day, 18.901 hours/ns, 14.696 timesteps/s
98.9% CPU use with 2 MPI tasks x no OpenMP threads

MPI task timing breakdown:
Section |  min time  |  avg time  |  max time  |%varavg| %total
---------------------------------------------------------------
Pair    | 339.36     | 339.47     | 339.59     |   0.6 | 52.49
Neigh   | 270.78     | 271.45     | 272.13     |   4.1 | 41.97
Comm    | 25.705     | 26.047     | 26.39      |   6.7 |  4.03
Output  | 0.035334   | 0.03535    | 0.035365   |   0.0 |  0.01
Modify  | 7.6256     | 7.8568     | 8.0881     |   8.2 |  1.21
Other   |            | 1.89       |            |       |  0.29

Nlocal:    9826 ave 9838 max 9814 min
Histogram: 1 0 0 0 0 0 0 0 0 1
Nghost:    11068 ave 11084 max 11052 min
Histogram: 1 0 0 0 0 0 0 0 0 1
Neighs:    512354 ave 513001 max 511708 min
Histogram: 1 0 0 0 0 0 0 0 0 1

Total # of neighbors = 1024709
Ave neighs/atom = 52.1427
Neighbor list builds = 9505
Dangerous builds not checked
Setting up Verlet run ...
  Unit style    : metal
  Current step  : 170000
  Time step     : 0.001
Per MPI rank memory allocation (min/avg/max) = 11.27 | 11.27 | 11.27 Mbytes
Step Temp Press TotEng PotEng Enthalpy 
  170000    1785.8632   -740.36078      -111211   -115747.26   -111433.31 
  170495    1773.6864   -626.61936   -111438.18    -115943.5   -111626.05 
Loop time of 34.1245 on 2 procs for 495 steps with 19652 atoms

Performance: 1.253 ns/day, 19.150 hours/ns, 14.506 timesteps/s
98.3% CPU use with 2 MPI tasks x no OpenMP threads

MPI task timing breakdown:
Section |  min time  |  avg time  |  max time  |%varavg| %total
---------------------------------------------------------------
Pair    | 18.142     | 18.198     | 18.255     |   1.3 | 53.33
Neigh   | 14.019     | 14.1       | 14.182     |   2.2 | 41.32
Comm    | 1.0489     | 1.0754     | 1.102      |   2.6 |  3.15
Output  | 6.8903e-05 | 0.00010192 | 0.00013494 |   0.0 |  0.00
Modify  | 0.64913    | 0.64968    | 0.65024    |   0.1 |  1.90
Other   |            | 0.1005     |            |       |  0.29

Nlocal:    9826 ave 9827 max 9825 min
Histogram: 1 0 0 0 0 0 0 0 0 1
Nghost:    11053.5 ave 11058 max 11049 min
Histogram: 1 0 0 0 0 0 0 0 0 1
Neighs:    513618 ave 514410 max 512825 min
Histogram: 1 0 0 0 0 0 0 0 0 1

Total # of neighbors = 1027235
Ave neighs/atom = 52.2713
Neighbor list builds = 495
Dangerous builds not checked
Setting up Verlet run ...
  Unit style    : metal
  Current step  : 170495
  Time step     : 0.001
Per MPI rank memory allocation (min/avg/max) = 11.27 | 11.27 | 11.27 Mbytes
Step Temp Press TotEng PotEng Enthalpy 
  170495    1773.6864   -626.61936   -111438.18    -115943.5   -111626.05 
  180000    1766.5862    2161.6989   -111473.47   -115960.76   -110827.94 
Loop time of 653.897 on 2 procs for 9505 steps with 19652 atoms

Performance: 1.256 ns/day, 19.110 hours/ns, 14.536 timesteps/s
98.4% CPU use with 2 MPI tasks x no OpenMP threads

MPI task timing breakdown:
Section |  min time  |  avg time  |  max time  |%varavg| %total
---------------------------------------------------------------
Pair    | 342.66     | 343.4      | 344.14     |   4.0 | 52.52
Neigh   | 272.3      | 273.01     | 273.73     |   4.3 | 41.75
Comm    | 26.429     | 27.886     | 29.343     |  27.6 |  4.26
Output  | 0.034856   | 0.034888   | 0.034921   |   0.0 |  0.01
Modify  | 7.6575     | 7.6583     | 7.659      |   0.0 |  1.17
Other   |            | 1.906      |            |       |  0.29

Nlocal:    9826 ave 9834 max 9818 min
Histogram: 1 0 0 0 0 0 0 0 0 1
Nghost:    11053.5 ave 11083 max 11024 min
Histogram: 1 0 0 0 0 0 0 0 0 1
Neighs:    515800 ave 515963 max 515636 min
Histogram: 1 0 0 0 0 0 0 0 0 1

Total # of neighbors = 1031599
Ave neighs/atom = 52.4933
Neighbor list builds = 9505
Dangerous builds not checked
Setting up Verlet run ...
  Unit style    : metal
  Current step  : 180000
  Time step     : 0.001
Per MPI rank memory allocation (min/avg/max) = 11.27 | 11.27 | 11.27 Mbytes
Step Temp Press TotEng PotEng Enthalpy 
  180000    1766.5862    2161.6989   -111473.47   -115960.76   -110827.94 
  180495    1715.5024    913.76358   -111749.04   -116106.58   -111476.07 
Loop time of 32.8232 on 2 procs for 495 steps with 19652 atoms

Performance: 1.303 ns/day, 18.419 hours/ns, 15.081 timesteps/s
99.7% CPU use with 2 MPI tasks x no OpenMP threads

MPI task timing breakdown:
Section |  min time  |  avg time  |  max time  |%varavg| %total
---------------------------------------------------------------
Pair    | 17.091     | 17.191     | 17.29      |   2.4 | 52.37
Neigh   | 13.985     | 14.114     | 14.242     |   3.4 | 43.00
Comm    | 0.99475    | 1.0238     | 1.0529     |   2.9 |  3.12
Output  | 8.0109e-05 | 0.00013006 | 0.00018001 |   0.0 |  0.00
Modify  | 0.39432    | 0.39464    | 0.39495    |   0.1 |  1.20
Other   |            | 0.1002     |            |       |  0.31

Nlocal:    9826 ave 9826 max 9826 min
Histogram: 2 0 0 0 0 0 0 0 0 0
Nghost:    11057 ave 11064 max 11050 min
Histogram: 1 0 0 0 0 0 0 0 0 1
Neighs:    515438 ave 515591 max 515284 min
Histogram: 1 0 0 0 0 0 0 0 0 1

Total # of neighbors = 1030875
Ave neighs/atom = 52.4565
Neighbor list builds = 495
Dangerous builds not checked
Setting up Verlet run ...
  Unit style    : metal
  Current step  : 180495
  Time step     : 0.001
Per MPI rank memory allocation (min/avg/max) = 11.27 | 11.27 | 11.27 Mbytes
Step Temp Press TotEng PotEng Enthalpy 
  180495    1715.5024    913.76358   -111749.04   -116106.58   -111476.07 
  190000    1687.0799   -6.8637373   -111969.66   -116254.99   -111971.71 
Loop time of 651.327 on 2 procs for 9505 steps with 19652 atoms

Performance: 1.261 ns/day, 19.035 hours/ns, 14.593 timesteps/s
98.9% CPU use with 2 MPI tasks x no OpenMP threads

MPI task timing breakdown:
Section |  min time  |  avg time  |  max time  |%varavg| %total
---------------------------------------------------------------
Pair    | 339.28     | 339.65     | 340.03     |   2.0 | 52.15
Neigh   | 273.11     | 273.26     | 273.4      |   0.9 | 41.95
Comm    | 27.532     | 27.777     | 28.021     |   4.6 |  4.26
Output  | 0.034202   | 0.034213   | 0.034225   |   0.0 |  0.01
Modify  | 8.6821     | 8.6947     | 8.7073     |   0.4 |  1.33
Other   |            | 1.908      |            |       |  0.29

Nlocal:    9826 ave 9846 max 9806 min
Histogram: 1 0 0 0 0 0 0 0 0 1
Nghost:    11082.5 ave 11131 max 11034 min
Histogram: 1 0 0 0 0 0 0 0 0 1
Neighs:    515641 ave 516677 max 514605 min
Histogram: 1 0 0 0 0 0 0 0 0 1

Total # of neighbors = 1031282
Ave neighs/atom = 52.4772
Neighbor list builds = 9505
Dangerous builds not checked
Setting up Verlet run ...
  Unit style    : metal
  Current step  : 190000
  Time step     : 0.001
Per MPI rank memory allocation (min/avg/max) = 11.27 | 11.27 | 11.28 Mbytes
Step Temp Press TotEng PotEng Enthalpy 
  190000    1687.0799   -6.8637373   -111969.66   -116254.99   -111971.71 
  190495    1667.4948   -17.274229   -112147.62   -116383.21   -112152.78 
Loop time of 32.7097 on 2 procs for 495 steps with 19652 atoms

Performance: 1.308 ns/day, 18.356 hours/ns, 15.133 timesteps/s
99.9% CPU use with 2 MPI tasks x no OpenMP threads

MPI task timing breakdown:
Section |  min time  |  avg time  |  max time  |%varavg| %total
---------------------------------------------------------------
Pair    | 17.204     | 17.222     | 17.24      |   0.4 | 52.65
Neigh   | 13.791     | 13.939     | 14.086     |   4.0 | 42.61
Comm    | 0.88965    | 1.0576     | 1.2255     |  16.3 |  3.23
Output  | 9.799e-05  | 0.00014055 | 0.00018311 |   0.0 |  0.00
Modify  | 0.39134    | 0.39285    | 0.39435    |   0.2 |  1.20
Other   |            | 0.09868    |            |       |  0.30

Nlocal:    9826 ave 9832 max 9820 min
Histogram: 1 0 0 0 0 0 0 0 0 1
Nghost:    11065 ave 11086 max 11044 min
Histogram: 1 0 0 0 0 0 0 0 0 1
Neighs:    516527 ave 516649 max 516405 min
Histogram: 1 0 0 0 0 0 0 0 0 1

Total # of neighbors = 1033054
Ave neighs/atom = 52.5674
Neighbor list builds = 495
Dangerous builds not checked
Setting up Verlet run ...
  Unit style    : metal
  Current step  : 190495
  Time step     : 0.001
Per MPI rank memory allocation (min/avg/max) = 11.27 | 11.27 | 11.28 Mbytes
Step Temp Press TotEng PotEng Enthalpy 
  190495    1667.4948   -17.274229   -112147.62   -116383.21   -112152.78 
  200000    1656.7821   -1398.6718   -112305.35   -116513.72   -112723.41 
Loop time of 665.057 on 2 procs for 9505 steps with 19652 atoms

Performance: 1.235 ns/day, 19.436 hours/ns, 14.292 timesteps/s
98.5% CPU use with 2 MPI tasks x no OpenMP threads

MPI task timing breakdown:
Section |  min time  |  avg time  |  max time  |%varavg| %total
---------------------------------------------------------------
Pair    | 348.74     | 350.19     | 351.63     |   7.7 | 52.66
Neigh   | 273.56     | 274.9      | 276.25     |   8.1 | 41.34
Comm    | 30.189     | 30.212     | 30.235     |   0.4 |  4.54
Output  | 0.035275   | 0.035339   | 0.035402   |   0.0 |  0.01
Modify  | 7.714      | 7.7818     | 7.8495     |   2.4 |  1.17
Other   |            | 1.937      |            |       |  0.29

Nlocal:    9826 ave 9845 max 9807 min
Histogram: 1 0 0 0 0 0 0 0 0 1
Nghost:    11086.5 ave 11148 max 11025 min
Histogram: 1 0 0 0 0 0 0 0 0 1
Neighs:    515806 ave 517003 max 514608 min
Histogram: 1 0 0 0 0 0 0 0 0 1

Total # of neighbors = 1031611
Ave neighs/atom = 52.4939
Neighbor list builds = 9505
Dangerous builds not checked
Setting up Verlet run ...
  Unit style    : metal
  Current step  : 200000
  Time step     : 0.001
Per MPI rank memory allocation (min/avg/max) = 11.28 | 11.28 | 11.28 Mbytes
Step Temp Press TotEng PotEng Enthalpy 
  200000    1656.7821   -1398.6718   -112305.35   -116513.72   -112723.41 
  200495    1613.9128   -1065.6526   -112477.45   -116576.94   -112795.53 
Loop time of 35.3766 on 2 procs for 495 steps with 19652 atoms

Performance: 1.209 ns/day, 19.852 hours/ns, 13.992 timesteps/s
99.6% CPU use with 2 MPI tasks x no OpenMP threads

MPI task timing breakdown:
Section |  min time  |  avg time  |  max time  |%varavg| %total
---------------------------------------------------------------
Pair    | 18.769     | 18.916     | 19.062     |   3.4 | 53.47
Neigh   | 14.048     | 14.398     | 14.747     |   9.2 | 40.70
Comm    | 1.0437     | 1.5488     | 2.054      |  40.6 |  4.38
Output  | 6.9141e-05 | 9.9063e-05 | 0.00012898 |   0.0 |  0.00
Modify  | 0.404      | 0.40933    | 0.41466    |   0.8 |  1.16
Other   |            | 0.1051     |            |       |  0.30

Nlocal:    9826 ave 9832 max 9820 min
Histogram: 1 0 0 0 0 0 0 0 0 1
Nghost:    11078.5 ave 11086 max 11071 min
Histogram: 1 0 0 0 0 0 0 0 0 1
Neighs:    516694 ave 517184 max 516205 min
Histogram: 1 0 0 0 0 0 0 0 0 1

Total # of neighbors = 1033389
Ave neighs/atom = 52.5844
Neighbor list builds = 495
Dangerous builds not checked
Setting up Verlet run ...
  Unit style    : metal
  Current step  : 200495
  Time step     : 0.001
Per MPI rank memory allocation (min/avg/max) = 11.28 | 11.28 | 11.28 Mbytes
Step Temp Press TotEng PotEng Enthalpy 
  200495    1613.9128   -1065.6526   -112477.45   -116576.94   -112795.53 
  210000     1605.924   -1449.7574   -112613.35   -116692.55   -113045.96 
Loop time of 678.37 on 2 procs for 9505 steps with 19652 atoms

Performance: 1.211 ns/day, 19.825 hours/ns, 14.012 timesteps/s
98.3% CPU use with 2 MPI tasks x no OpenMP threads

MPI task timing breakdown:
Section |  min time  |  avg time  |  max time  |%varavg| %total
---------------------------------------------------------------
Pair    | 359.33     | 359.76     | 360.2      |   2.3 | 53.03
Neigh   | 275.42     | 276.05     | 276.68     |   3.8 | 40.69
Comm    | 32.332     | 32.521     | 32.71      |   3.3 |  4.79
Output  | 0.035255   | 0.035272   | 0.035288   |   0.0 |  0.01
Modify  | 8.0519     | 8.0557     | 8.0595     |   0.1 |  1.19
Other   |            | 1.951      |            |       |  0.29

Nlocal:    9826 ave 9829 max 9823 min
Histogram: 1 0 0 0 0 0 0 0 0 1
Nghost:    11035.5 ave 11064 max 11007 min
Histogram: 1 0 0 0 0 0 0 0 0 1
Neighs:    516816 ave 516928 max 516704 min
Histogram: 1 0 0 0 0 0 0 0 0 1

Total # of neighbors = 1033632
Ave neighs/atom = 52.5968
Neighbor list builds = 9505
Dangerous builds not checked
Setting up Verlet run ...
  Unit style    : metal
  Current step  : 210000
  Time step     : 0.001
Per MPI rank memory allocation (min/avg/max) = 11.28 | 11.28 | 11.28 Mbytes
Step Temp Press TotEng PotEng Enthalpy 
  210000     1605.924   -1449.7574   -112613.35   -116692.55   -113045.96 
  210495    1560.4422    326.52753   -112819.68   -116783.35   -112722.55 
Loop time of 34.8574 on 2 procs for 495 steps with 19652 atoms

Performance: 1.227 ns/day, 19.561 hours/ns, 14.201 timesteps/s
98.8% CPU use with 2 MPI tasks x no OpenMP threads

MPI task timing breakdown:
Section |  min time  |  avg time  |  max time  |%varavg| %total
---------------------------------------------------------------
Pair    | 18.251     | 18.268     | 18.284     |   0.4 | 52.41
Neigh   | 14.207     | 14.289     | 14.37      |   2.2 | 40.99
Comm    | 1.6336     | 1.7317     | 1.8297     |   7.4 |  4.97
Output  | 9.8944e-05 | 0.0001235  | 0.00014806 |   0.0 |  0.00
Modify  | 0.46559    | 0.46672    | 0.46785    |   0.2 |  1.34
Other   |            | 0.1028     |            |       |  0.30

Nlocal:    9826 ave 9838 max 9814 min
Histogram: 1 0 0 0 0 0 0 0 0 1
Nghost:    11082 ave 11089 max 11075 min
Histogram: 1 0 0 0 0 0 0 0 0 1
Neighs:    518620 ave 519352 max 517889 min
Histogram: 1 0 0 0 0 0 0 0 0 1

Total # of neighbors = 1037241
Ave neighs/atom = 52.7804
Neighbor list builds = 495
Dangerous builds not checked
Setting up Verlet run ...
  Unit style    : metal
  Current step  : 210495
  Time step     : 0.001
Per MPI rank memory allocation (min/avg/max) = 11.28 | 11.28 | 11.28 Mbytes
Step Temp Press TotEng PotEng Enthalpy 
  210495    1560.4422    326.52753   -112819.68   -116783.35   -112722.55 
  220000    1552.6976   -1321.6764   -112958.23   -116902.22      -113352 
Loop time of 671.826 on 2 procs for 9505 steps with 19652 atoms

Performance: 1.222 ns/day, 19.634 hours/ns, 14.148 timesteps/s
98.9% CPU use with 2 MPI tasks x no OpenMP threads

MPI task timing breakdown:
Section |  min time  |  avg time  |  max time  |%varavg| %total
---------------------------------------------------------------
Pair    | 355.52     | 357.64     | 359.77     |  11.2 | 53.23
Neigh   | 277.12     | 277.73     | 278.33     |   3.6 | 41.34
Comm    | 24.745     | 26.282     | 27.819     |  30.0 |  3.91
Output  | 0.034296   | 0.03432    | 0.034344   |   0.0 |  0.01
Modify  | 8.1528     | 8.1708     | 8.1889     |   0.6 |  1.22
Other   |            | 1.968      |            |       |  0.29

Nlocal:    9826 ave 9829 max 9823 min
Histogram: 1 0 0 0 0 0 0 0 0 1
Nghost:    11103.5 ave 11105 max 11102 min
Histogram: 1 0 0 0 0 0 0 0 0 1
Neighs:    518146 ave 518404 max 517888 min
Histogram: 1 0 0 0 0 0 0 0 0 1

Total # of neighbors = 1036292
Ave neighs/atom = 52.7321
Neighbor list builds = 9505
Dangerous builds not checked
Setting up Verlet run ...
  Unit style    : metal
  Current step  : 220000
  Time step     : 0.001
Per MPI rank memory allocation (min/avg/max) = 11.28 | 11.28 | 11.28 Mbytes
Step Temp Press TotEng PotEng Enthalpy 
  220000    1552.6976   -1321.6764   -112958.23   -116902.22      -113352 
  220495    1523.2904   -5.4553843   -113173.15   -117042.45   -113174.77 
Loop time of 34.8543 on 2 procs for 495 steps with 19652 atoms

Performance: 1.227 ns/day, 19.559 hours/ns, 14.202 timesteps/s
99.2% CPU use with 2 MPI tasks x no OpenMP threads

MPI task timing breakdown:
Section |  min time  |  avg time  |  max time  |%varavg| %total
---------------------------------------------------------------
Pair    | 18.318     | 18.376     | 18.434     |   1.4 | 52.72
Neigh   | 14.221     | 14.398     | 14.574     |   4.6 | 41.31
Comm    | 1.4468     | 1.5694     | 1.692      |   9.8 |  4.50
Output  | 9.9182e-05 | 0.00019515 | 0.00029111 |   0.0 |  0.00
Modify  | 0.40389    | 0.4072     | 0.41051    |   0.5 |  1.17
Other   |            | 0.1036     |            |       |  0.30

Nlocal:    9826 ave 9835 max 9817 min
Histogram: 1 0 0 0 0 0 0 0 0 1
Nghost:    11090.5 ave 11109 max 11072 min
Histogram: 1 0 0 0 0 0 0 0 0 1
Neighs:    519518 ave 520730 max 518305 min
Histogram: 1 0 0 0 0 0 0 0 0 1

Total # of neighbors = 1039035
Ave neighs/atom = 52.8717
Neighbor list builds = 495
Dangerous builds not checked
Setting up Verlet run ...
  Unit style    : metal
  Current step  : 220495
  Time step     : 0.001
Per MPI rank memory allocation (min/avg/max) = 11.28 | 11.28 | 11.28 Mbytes
Step Temp Press TotEng PotEng Enthalpy 
  220495    1523.2904   -5.4553843   -113173.15   -117042.45   -113174.77 
  230000     1491.162   -1980.0024   -113342.49   -117130.17   -113931.77 
Loop time of 673.386 on 2 procs for 9505 steps with 19652 atoms

Performance: 1.220 ns/day, 19.679 hours/ns, 14.115 timesteps/s
98.7% CPU use with 2 MPI tasks x no OpenMP threads

MPI task timing breakdown:
Section |  min time  |  avg time  |  max time  |%varavg| %total
---------------------------------------------------------------
Pair    | 358.87     | 359.03     | 359.18     |   0.8 | 53.32
Neigh   | 275.32     | 276.26     | 277.19     |   5.6 | 41.03
Comm    | 27.036     | 28.117     | 29.198     |  20.4 |  4.18
Output  | 0.035141   | 0.03522    | 0.035299   |   0.0 |  0.01
Modify  | 7.9795     | 7.9857     | 7.9918     |   0.2 |  1.19
Other   |            | 1.965      |            |       |  0.29

Nlocal:    9826 ave 9850 max 9802 min
Histogram: 1 0 0 0 0 0 0 0 0 1
Nghost:    11073 ave 11082 max 11064 min
Histogram: 1 0 0 0 0 0 0 0 0 1
Neighs:    519063 ave 520256 max 517870 min
Histogram: 1 0 0 0 0 0 0 0 0 1

Total # of neighbors = 1038126
Ave neighs/atom = 52.8255
Neighbor list builds = 9505
Dangerous builds not checked
Setting up Verlet run ...
  Unit style    : metal
  Current step  : 230000
  Time step     : 0.001
Per MPI rank memory allocation (min/avg/max) = 11.28 | 11.28 | 11.28 Mbytes
Step Temp Press TotEng PotEng Enthalpy 
  230000     1491.162   -1980.0024   -113342.49   -117130.17   -113931.77 
  230495    1461.3496    124.26902   -113546.44    -117258.4   -113509.58 
Loop time of 34.0651 on 2 procs for 495 steps with 19652 atoms

Performance: 1.255 ns/day, 19.116 hours/ns, 14.531 timesteps/s
99.9% CPU use with 2 MPI tasks x no OpenMP threads

MPI task timing breakdown:
Section |  min time  |  avg time  |  max time  |%varavg| %total
---------------------------------------------------------------
Pair    | 18.133     | 18.16      | 18.188     |   0.6 | 53.31
Neigh   | 14.147     | 14.214     | 14.282     |   1.8 | 41.73
Comm    | 1.0889     | 1.1849     | 1.2809     |   8.8 |  3.48
Output  | 0.00010109 | 0.0001241  | 0.0001471  |   0.0 |  0.00
Modify  | 0.40236    | 0.40327    | 0.40419    |   0.1 |  1.18
Other   |            | 0.102      |            |       |  0.30

Nlocal:    9826 ave 9827 max 9825 min
Histogram: 1 0 0 0 0 0 0 0 0 1
Nghost:    11094.5 ave 11103 max 11086 min
Histogram: 1 0 0 0 0 0 0 0 0 1
Neighs:    521182 ave 521488 max 520875 min
Histogram: 1 0 0 0 0 0 0 0 0 1

Total # of neighbors = 1042363
Ave neighs/atom = 53.0411
Neighbor list builds = 495
Dangerous builds not checked
Setting up Verlet run ...
  Unit style    : metal
  Current step  : 230495
  Time step     : 0.001
Per MPI rank memory allocation (min/avg/max) = 11.28 | 11.28 | 11.28 Mbytes
Step Temp Press TotEng PotEng Enthalpy 
  230495    1461.3496    124.26902   -113546.44    -117258.4   -113509.58 
  240000    1447.2323    495.25181   -113657.78   -117333.89   -113511.04 
Loop time of 673.62 on 2 procs for 9505 steps with 19652 atoms

Performance: 1.219 ns/day, 19.686 hours/ns, 14.110 timesteps/s
99.0% CPU use with 2 MPI tasks x no OpenMP threads

MPI task timing breakdown:
Section |  min time  |  avg time  |  max time  |%varavg| %total
---------------------------------------------------------------
Pair    | 360.11     | 360.46     | 360.81     |   1.8 | 53.51
Neigh   | 277.25     | 277.97     | 278.69     |   4.3 | 41.27
Comm    | 24.721     | 25.086     | 25.451     |   7.3 |  3.72
Output  | 0.03627    | 0.036352   | 0.036433   |   0.0 |  0.01
Modify  | 8.0807     | 8.0857     | 8.0906     |   0.2 |  1.20
Other   |            | 1.981      |            |       |  0.29

Nlocal:    9826 ave 9831 max 9821 min
Histogram: 1 0 0 0 0 0 0 0 0 1
Nghost:    11080 ave 11093 max 11067 min
Histogram: 1 0 0 0 0 0 0 0 0 1
Neighs:    521836 ave 522004 max 521669 min
Histogram: 1 0 0 0 0 0 0 0 0 1

Total # of neighbors = 1043673
Ave neighs/atom = 53.1077
Neighbor list builds = 9505
Dangerous builds not checked
Setting up Verlet run ...
  Unit style    : metal
  Current step  : 240000
  Time step     : 0.001
Per MPI rank memory allocation (min/avg/max) = 11.28 | 11.28 | 11.28 Mbytes
Step Temp Press TotEng PotEng Enthalpy 
  240000    1447.2323    495.25181   -113657.78   -117333.89   -113511.04 
  240495    1403.9451    87.629339   -113906.54   -117472.69    -113880.6 
Loop time of 33.9036 on 2 procs for 495 steps with 19652 atoms

Performance: 1.261 ns/day, 19.026 hours/ns, 14.600 timesteps/s
99.9% CPU use with 2 MPI tasks x no OpenMP threads

MPI task timing breakdown:
Section |  min time  |  avg time  |  max time  |%varavg| %total
---------------------------------------------------------------
Pair    | 18.102     | 18.122     | 18.142     |   0.5 | 53.45
Neigh   | 14.001     | 14.09      | 14.179     |   2.4 | 41.56
Comm    | 1.1169     | 1.1879     | 1.2588     |   6.5 |  3.50
Output  | 9.7036e-05 | 0.00012994 | 0.00016284 |   0.0 |  0.00
Modify  | 0.40023    | 0.40129    | 0.40234    |   0.2 |  1.18
Other   |            | 0.1026     |            |       |  0.30

Nlocal:    9826 ave 9829 max 9823 min
Histogram: 1 0 0 0 0 0 0 0 0 1
Nghost:    11103 ave 11110 max 11096 min
Histogram: 1 0 0 0 0 0 0 0 0 1
Neighs:    522184 ave 522226 max 522142 min
Histogram: 1 0 0 0 0 0 0 0 0 1

Total # of neighbors = 1044368
Ave neighs/atom = 53.1431
Neighbor list builds = 495
Dangerous builds not checked
Setting up Verlet run ...
  Unit style    : metal
  Current step  : 240495
  Time step     : 0.001
Per MPI rank memory allocation (min/avg/max) = 11.28 | 11.28 | 11.28 Mbytes
Step Temp Press TotEng PotEng Enthalpy 
  240495    1403.9451    87.629339   -113906.54   -117472.69    -113880.6 
  250000     1396.807    1298.5415   -114056.04   -117604.05   -113672.51 
Loop time of 706.716 on 2 procs for 9505 steps with 19652 atoms

Performance: 1.162 ns/day, 20.653 hours/ns, 13.450 timesteps/s
96.7% CPU use with 2 MPI tasks x no OpenMP threads

MPI task timing breakdown:
Section |  min time  |  avg time  |  max time  |%varavg| %total
---------------------------------------------------------------
Pair    | 374.19     | 374.48     | 374.77     |   1.5 | 52.99
Neigh   | 285.21     | 286.36     | 287.51     |   6.8 | 40.52
Comm    | 33.243     | 34.059     | 34.875     |  14.0 |  4.82
Output  | 0.034561   | 0.03458    | 0.0346     |   0.0 |  0.00
Modify  | 9.6635     | 9.7308     | 9.7981     |   2.2 |  1.38
Other   |            | 2.053      |            |       |  0.29

Nlocal:    9826 ave 9828 max 9824 min
Histogram: 1 0 0 0 0 0 0 0 0 1
Nghost:    11130 ave 11142 max 11118 min
Histogram: 1 0 0 0 0 0 0 0 0 1
Neighs:    523816 ave 523967 max 523665 min
Histogram: 1 0 0 0 0 0 0 0 0 1

Total # of neighbors = 1047632
Ave neighs/atom = 53.3092
Neighbor list builds = 9505
Dangerous builds not checked
Setting up Verlet run ...
  Unit style    : metal
  Current step  : 250000
  Time step     : 0.001
Per MPI rank memory allocation (min/avg/max) = 11.28 | 11.28 | 11.28 Mbytes
Step Temp Press TotEng PotEng Enthalpy 
  250000     1396.807    1298.5415   -114056.04   -117604.05   -113672.51 
  250495    1367.6178   -221.78293   -114243.47   -117717.35   -114309.06 
Loop time of 40.9035 on 2 procs for 495 steps with 19652 atoms

Performance: 1.046 ns/day, 22.954 hours/ns, 12.102 timesteps/s
90.9% CPU use with 2 MPI tasks x no OpenMP threads

MPI task timing breakdown:
Section |  min time  |  avg time  |  max time  |%varavg| %total
---------------------------------------------------------------
Pair    | 23.39      | 23.514     | 23.638     |   2.6 | 57.49
Neigh   | 14.354     | 14.363     | 14.372     |   0.2 | 35.11
Comm    | 2.3616     | 2.4995     | 2.6374     |   8.7 |  6.11
Output  | 9.4891e-05 | 0.00012803 | 0.00016117 |   0.0 |  0.00
Modify  | 0.41633    | 0.41841    | 0.42049    |   0.3 |  1.02
Other   |            | 0.1081     |            |       |  0.26

Nlocal:    9826 ave 9834 max 9818 min
Histogram: 1 0 0 0 0 0 0 0 0 1
Nghost:    11107.5 ave 11141 max 11074 min
Histogram: 1 0 0 0 0 0 0 0 0 1
Neighs:    523187 ave 523882 max 522492 min
Histogram: 1 0 0 0 0 0 0 0 0 1

Total # of neighbors = 1046374
Ave neighs/atom = 53.2452
Neighbor list builds = 495
Dangerous builds not checked
Setting up Verlet run ...
  Unit style    : metal
  Current step  : 250495
  Time step     : 0.001
Per MPI rank memory allocation (min/avg/max) = 11.28 | 11.28 | 11.28 Mbytes
Step Temp Press TotEng PotEng Enthalpy 
  250495    1367.6178   -221.78293   -114243.47   -117717.35   -114309.06 
  260000    1338.4465   -1309.8289   -114448.47   -117848.24   -114835.81 
Loop time of 701.887 on 2 procs for 9505 steps with 19652 atoms

Performance: 1.170 ns/day, 20.512 hours/ns, 13.542 timesteps/s
97.5% CPU use with 2 MPI tasks x no OpenMP threads

MPI task timing breakdown:
Section |  min time  |  avg time  |  max time  |%varavg| %total
---------------------------------------------------------------
Pair    | 380        | 380.34     | 380.68     |   1.7 | 54.19
Neigh   | 285.03     | 285.37     | 285.71     |   2.0 | 40.66
Comm    | 25.808     | 25.838     | 25.867     |   0.6 |  3.68
Output  | 0.034299   | 0.034363   | 0.034427   |   0.0 |  0.00
Modify  | 8.1752     | 8.1912     | 8.2072     |   0.6 |  1.17
Other   |            | 2.111      |            |       |  0.30

Nlocal:    9826 ave 9839 max 9813 min
Histogram: 1 0 0 0 0 0 0 0 0 1
Nghost:    11126 ave 11129 max 11123 min
Histogram: 1 0 0 0 0 0 0 0 0 1
Neighs:    523655 ave 524876 max 522434 min
Histogram: 1 0 0 0 0 0 0 0 0 1

Total # of neighbors = 1047310
Ave neighs/atom = 53.2928
Neighbor list builds = 9505
Dangerous builds not checked
Setting up Verlet run ...
  Unit style    : metal
  Current step  : 260000
  Time step     : 0.001
Per MPI rank memory allocation (min/avg/max) = 11.28 | 11.28 | 11.28 Mbytes
Step Temp Press TotEng PotEng Enthalpy 
  260000    1338.4465   -1309.8289   -114448.47   -117848.24   -114835.81 
  260495    1316.0959    636.61547    -114626.9    -117969.9   -114439.26 
Loop time of 34.9919 on 2 procs for 495 steps with 19652 atoms

Performance: 1.222 ns/day, 19.636 hours/ns, 14.146 timesteps/s
99.1% CPU use with 2 MPI tasks x no OpenMP threads

MPI task timing breakdown:
Section |  min time  |  avg time  |  max time  |%varavg| %total
---------------------------------------------------------------
Pair    | 18.625     | 18.637     | 18.648     |   0.3 | 53.26
Neigh   | 14.162     | 14.325     | 14.487     |   4.3 | 40.94
Comm    | 1.3554     | 1.5094     | 1.6635     |  12.5 |  4.31
Output  | 7.2002e-05 | 0.00012398 | 0.00017595 |   0.0 |  0.00
Modify  | 0.41199    | 0.41356    | 0.41512    |   0.2 |  1.18
Other   |            | 0.1073     |            |       |  0.31

Nlocal:    9826 ave 9836 max 9816 min
Histogram: 1 0 0 0 0 0 0 0 0 1
Nghost:    11142.5 ave 11172 max 11113 min
Histogram: 1 0 0 0 0 0 0 0 0 1
Neighs:    525738 ave 526200 max 525276 min
Histogram: 1 0 0 0 0 0 0 0 0 1

Total # of neighbors = 1051476
Ave neighs/atom = 53.5048
Neighbor list builds = 495
Dangerous builds not checked
Setting up Verlet run ...
  Unit style    : metal
  Current step  : 260495
  Time step     : 0.001
Per MPI rank memory allocation (min/avg/max) = 11.28 | 11.28 | 11.28 Mbytes
Step Temp Press TotEng PotEng Enthalpy 
  260495    1316.0959    636.61547    -114626.9    -117969.9   -114439.26 
  270000    1304.4715   -509.49099    -114712.5   -118025.98   -114862.87 
Loop time of 687.111 on 2 procs for 9505 steps with 19652 atoms

Performance: 1.195 ns/day, 20.080 hours/ns, 13.833 timesteps/s
98.8% CPU use with 2 MPI tasks x no OpenMP threads

MPI task timing breakdown:
Section |  min time  |  avg time  |  max time  |%varavg| %total
---------------------------------------------------------------
Pair    | 366.52     | 368.51     | 370.49     |  10.3 | 53.63
Neigh   | 280.74     | 281.12     | 281.49     |   2.2 | 40.91
Comm    | 25.329     | 26.979     | 28.63      |  31.8 |  3.93
Output  | 0.034257   | 0.03428    | 0.034303   |   0.0 |  0.00
Modify  | 8.367      | 8.4013     | 8.4355     |   1.2 |  1.22
Other   |            | 2.073      |            |       |  0.30

Nlocal:    9826 ave 9835 max 9817 min
Histogram: 1 0 0 0 0 0 0 0 0 1
Nghost:    11099.5 ave 11125 max 11074 min
Histogram: 1 0 0 0 0 0 0 0 0 1
Neighs:    524848 ave 525543 max 524153 min
Histogram: 1 0 0 0 0 0 0 0 0 1

Total # of neighbors = 1049696
Ave neighs/atom = 53.4142
Neighbor list builds = 9505
Dangerous builds not checked
Setting up Verlet run ...
  Unit style    : metal
  Current step  : 270000
  Time step     : 0.001
Per MPI rank memory allocation (min/avg/max) = 11.28 | 11.28 | 11.28 Mbytes
Step Temp Press TotEng PotEng Enthalpy 
  270000    1304.4715   -509.49099    -114712.5   -118025.98   -114862.87 
  270495    1270.1767    368.25877   -114942.45   -118168.81   -114833.99 
Loop time of 35.381 on 2 procs for 495 steps with 19652 atoms

Performance: 1.209 ns/day, 19.855 hours/ns, 13.991 timesteps/s
97.5% CPU use with 2 MPI tasks x no OpenMP threads

MPI task timing breakdown:
Section |  min time  |  avg time  |  max time  |%varavg| %total
---------------------------------------------------------------
Pair    | 18.47      | 18.476     | 18.482     |   0.1 | 52.22
Neigh   | 14.234     | 14.276     | 14.318     |   1.1 | 40.35
Comm    | 2.0754     | 2.1115     | 2.1475     |   2.5 |  5.97
Output  | 0.00010204 | 0.000126   | 0.00014997 |   0.0 |  0.00
Modify  | 0.40813    | 0.40869    | 0.40925    |   0.1 |  1.16
Other   |            | 0.1083     |            |       |  0.31

Nlocal:    9826 ave 9830 max 9822 min
Histogram: 1 0 0 0 0 0 0 0 0 1
Nghost:    11126.5 ave 11130 max 11123 min
Histogram: 1 0 0 0 0 0 0 0 0 1
Neighs:    526512 ave 527229 max 525794 min
Histogram: 1 0 0 0 0 0 0 0 0 1

Total # of neighbors = 1053023
Ave neighs/atom = 53.5835
Neighbor list builds = 495
Dangerous builds not checked
Setting up Verlet run ...
  Unit style    : metal
  Current step  : 270495
  Time step     : 0.001
Per MPI rank memory allocation (min/avg/max) = 11.28 | 11.28 | 11.28 Mbytes
Step Temp Press TotEng PotEng Enthalpy 
  270495    1270.1767    368.25877   -114942.45   -118168.81   -114833.99 
  280000    1239.8423    761.61089   -115190.36   -118339.67   -114966.47 
Loop time of 677.395 on 2 procs for 9505 steps with 19652 atoms

Performance: 1.212 ns/day, 19.796 hours/ns, 14.032 timesteps/s
99.3% CPU use with 2 MPI tasks x no OpenMP threads

MPI task timing breakdown:
Section |  min time  |  avg time  |  max time  |%varavg| %total
---------------------------------------------------------------
Pair    | 363.94     | 364.1      | 364.27     |   0.9 | 53.75
Neigh   | 278.29     | 279.05     | 279.81     |   4.5 | 41.19
Comm    | 23.45      | 24.041     | 24.631     |  12.0 |  3.55
Output  | 0.036202   | 0.036233   | 0.036264   |   0.0 |  0.01
Modify  | 8.082      | 8.082      | 8.082      |   0.0 |  1.19
Other   |            | 2.083      |            |       |  0.31

Nlocal:    9826 ave 9835 max 9817 min
Histogram: 1 0 0 0 0 0 0 0 0 1
Nghost:    11125 ave 11141 max 11109 min
Histogram: 1 0 0 0 0 0 0 0 0 1
Neighs:    527915 ave 528950 max 526880 min
Histogram: 1 0 0 0 0 0 0 0 0 1

Total # of neighbors = 1055830
Ave neighs/atom = 53.7263
Neighbor list builds = 9505
Dangerous builds not checked
Setting up Verlet run ...
  Unit style    : metal
  Current step  : 280000
  Time step     : 0.001
Per MPI rank memory allocation (min/avg/max) = 11.28 | 11.28 | 11.28 Mbytes
Step Temp Press TotEng PotEng Enthalpy 
  280000    1239.8423    761.61089   -115190.36   -118339.67   -114966.47 
  280495    1205.1369   -579.00912   -115338.02   -118399.18   -115508.44 
Loop time of 34.4701 on 2 procs for 495 steps with 19652 atoms

Performance: 1.241 ns/day, 19.343 hours/ns, 14.360 timesteps/s
99.8% CPU use with 2 MPI tasks x no OpenMP threads

MPI task timing breakdown:
Section |  min time  |  avg time  |  max time  |%varavg| %total
---------------------------------------------------------------
Pair    | 18.44      | 18.49      | 18.541     |   1.2 | 53.64
Neigh   | 14.261     | 14.275     | 14.29      |   0.4 | 41.41
Comm    | 1.1469     | 1.1851     | 1.2234     |   3.5 |  3.44
Output  | 0.00011396 | 0.000157   | 0.00020003 |   0.0 |  0.00
Modify  | 0.41014    | 0.41197    | 0.4138     |   0.3 |  1.20
Other   |            | 0.1072     |            |       |  0.31

Nlocal:    9826 ave 9839 max 9813 min
Histogram: 1 0 0 0 0 0 0 0 0 1
Nghost:    11122 ave 11134 max 11110 min
Histogram: 1 0 0 0 0 0 0 0 0 1
Neighs:    527482 ave 528441 max 526522 min
Histogram: 1 0 0 0 0 0 0 0 0 1

Total # of neighbors = 1054963
Ave neighs/atom = 53.6822
Neighbor list builds = 495
Dangerous builds not checked
Setting up Verlet run ...
  Unit style    : metal
  Current step  : 280495
  Time step     : 0.001
Per MPI rank memory allocation (min/avg/max) = 11.28 | 11.28 | 11.28 Mbytes
Step Temp Press TotEng PotEng Enthalpy 
  280495    1205.1369   -579.00912   -115338.02   -118399.18   -115508.44 
  290000    1205.6121   -100.23627   -115460.81   -118523.18   -115490.27 
Loop time of 670.642 on 2 procs for 9505 steps with 19652 atoms

Performance: 1.225 ns/day, 19.599 hours/ns, 14.173 timesteps/s
99.5% CPU use with 2 MPI tasks x no OpenMP threads

MPI task timing breakdown:
Section |  min time  |  avg time  |  max time  |%varavg| %total
---------------------------------------------------------------
Pair    | 359.98     | 360.25     | 360.51     |   1.4 | 53.72
Neigh   | 275.05     | 276.07     | 277.1      |   6.2 | 41.17
Comm    | 23.071     | 24.381     | 25.691     |  26.5 |  3.64
Output  | 0.035172   | 0.0352     | 0.035228   |   0.0 |  0.01
Modify  | 7.847      | 7.8587     | 7.8703     |   0.4 |  1.17
Other   |            | 2.048      |            |       |  0.31

Nlocal:    9826 ave 9847 max 9805 min
Histogram: 1 0 0 0 0 0 0 0 0 1
Nghost:    11121 ave 11135 max 11107 min
Histogram: 1 0 0 0 0 0 0 0 0 1
Neighs:    528224 ave 530334 max 526115 min
Histogram: 1 0 0 0 0 0 0 0 0 1

Total # of neighbors = 1056449
Ave neighs/atom = 53.7578
Neighbor list builds = 9505
Dangerous builds not checked
Setting up Verlet run ...
  Unit style    : metal
  Current step  : 290000
  Time step     : 0.001
Per MPI rank memory allocation (min/avg/max) = 11.28 | 11.28 | 11.28 Mbytes
Step Temp Press TotEng PotEng Enthalpy 
  290000    1205.6121   -100.23627   -115460.81   -118523.18   -115490.27 
  290495    1163.3467   -117.21606   -115664.39   -118619.39   -115698.81 
Loop time of 34.2593 on 2 procs for 495 steps with 19652 atoms

Performance: 1.248 ns/day, 19.225 hours/ns, 14.449 timesteps/s
99.9% CPU use with 2 MPI tasks x no OpenMP threads

MPI task timing breakdown:
Section |  min time  |  avg time  |  max time  |%varavg| %total
---------------------------------------------------------------
Pair    | 18.331     | 18.419     | 18.506     |   2.0 | 53.76
Neigh   | 14         | 14.073     | 14.145     |   1.9 | 41.08
Comm    | 1.0921     | 1.2562     | 1.4203     |  14.6 |  3.67
Output  | 8.9169e-05 | 0.00012362 | 0.00015807 |   0.0 |  0.00
Modify  | 0.40396    | 0.40603    | 0.4081     |   0.3 |  1.19
Other   |            | 0.1057     |            |       |  0.31

Nlocal:    9826 ave 9834 max 9818 min
Histogram: 1 0 0 0 0 0 0 0 0 1
Nghost:    11121 ave 11122 max 11120 min
Histogram: 1 0 0 0 0 0 0 0 0 1
Neighs:    528790 ave 528848 max 528732 min
Histogram: 1 0 0 0 0 0 0 0 0 1

Total # of neighbors = 1057580
Ave neighs/atom = 53.8154
Neighbor list builds = 495
Dangerous builds not checked
Setting up Verlet run ...
  Unit style    : metal
  Current step  : 290495
  Time step     : 0.001
Per MPI rank memory allocation (min/avg/max) = 11.28 | 11.28 | 11.28 Mbytes
Step Temp Press TotEng PotEng Enthalpy 
  290495    1163.3467   -117.21606   -115664.39   -118619.39   -115698.81 
  300000    1155.2342   -1178.4382   -115784.07   -118718.47   -116130.48 
Loop time of 681.995 on 2 procs for 9505 steps with 19652 atoms

Performance: 1.204 ns/day, 19.931 hours/ns, 13.937 timesteps/s
98.8% CPU use with 2 MPI tasks x no OpenMP threads

MPI task timing breakdown:
Section |  min time  |  avg time  |  max time  |%varavg| %total
---------------------------------------------------------------
Pair    | 366.41     | 366.7      | 367        |   1.5 | 53.77
Neigh   | 278.26     | 278.58     | 278.89     |   1.9 | 40.85
Comm    | 26.45      | 26.466     | 26.482     |   0.3 |  3.88
Output  | 0.037037   | 0.037073   | 0.037109   |   0.0 |  0.01
Modify  | 8.1461     | 8.1481     | 8.1501     |   0.1 |  1.19
Other   |            | 2.065      |            |       |  0.30

Nlocal:    9826 ave 9832 max 9820 min
Histogram: 1 0 0 0 0 0 0 0 0 1
Nghost:    11120 ave 11127 max 11113 min
Histogram: 1 0 0 0 0 0 0 0 0 1
Neighs:    528762 ave 529861 max 527662 min
Histogram: 1 0 0 0 0 0 0 0 0 1

Total # of neighbors = 1057523
Ave neighs/atom = 53.8125
Neighbor list builds = 9505
Dangerous builds not checked
Setting up Verlet run ...
  Unit style    : metal
  Current step  : 300000
  Time step     : 0.001
Per MPI rank memory allocation (min/avg/max) = 11.28 | 11.28 | 11.28 Mbytes
Step Temp Press TotEng PotEng Enthalpy 
[...]
Histogram: 1 0 0 0 0 0 0 0 0 1
Neighs:    544508 ave 545028 max 543987 min
Histogram: 1 0 0 0 0 0 0 0 0 1

Total # of neighbors = 1089015
Ave neighs/atom = 55.415
Neighbor list builds = 9505
Dangerous builds not checked
Setting up Verlet run ...
  Unit style    : metal
  Current step  : 440000
  Time step     : 0.001
Per MPI rank memory allocation (min/avg/max) = 11.28 | 11.28 | 11.28 Mbytes
Step Temp Press TotEng PotEng Enthalpy 
  440000    446.59478    41.554758   -120505.09   -121639.48   -120493.14 
  440495    420.59105   -58.191901   -120649.44   -121717.78   -120666.17 
Loop time of 36.7784 on 2 procs for 495 steps with 19652 atoms

Performance: 1.163 ns/day, 20.639 hours/ns, 13.459 timesteps/s
99.7% CPU use with 2 MPI tasks x no OpenMP threads

MPI task timing breakdown:
Section |  min time  |  avg time  |  max time  |%varavg| %total
---------------------------------------------------------------
Pair    | 20.266     | 20.313     | 20.359     |   1.0 | 55.23
Neigh   | 14.782     | 14.826     | 14.87      |   1.1 | 40.31
Comm    | 1.0746     | 1.0789     | 1.0832     |   0.4 |  2.93
Output  | 9.0122e-05 | 0.00019515 | 0.00030017 |   0.0 |  0.00
Modify  | 0.4393     | 0.44064    | 0.44197    |   0.2 |  1.20
Other   |            | 0.12       |            |       |  0.33

Nlocal:    9826 ave 9834 max 9818 min
Histogram: 1 0 0 0 0 0 0 0 0 1
Nghost:    11297.5 ave 11298 max 11297 min
Histogram: 1 0 0 0 0 0 0 0 0 1
Neighs:    544990 ave 545996 max 543985 min
Histogram: 1 0 0 0 0 0 0 0 0 1

Total # of neighbors = 1089981
Ave neighs/atom = 55.4641
Neighbor list builds = 495
Dangerous builds not checked
Setting up Verlet run ...
  Unit style    : metal
  Current step  : 440495
  Time step     : 0.001
Per MPI rank memory allocation (min/avg/max) = 11.28 | 11.28 | 11.28 Mbytes
Step Temp Press TotEng PotEng Enthalpy 
  440495    420.59105   -58.191901   -120649.44   -121717.78   -120666.17 
  450000    397.67779   -764.44411    -120779.3   -121789.43   -120999.25 
Loop time of 712.881 on 2 procs for 9505 steps with 19652 atoms

Performance: 1.152 ns/day, 20.834 hours/ns, 13.333 timesteps/s
99.0% CPU use with 2 MPI tasks x no OpenMP threads

MPI task timing breakdown:
Section |  min time  |  avg time  |  max time  |%varavg| %total
---------------------------------------------------------------
Pair    | 388.85     | 390.47     | 392.1      |   8.2 | 54.77
Neigh   | 284.54     | 285.57     | 286.59     |   6.1 | 40.06
Comm    | 25.29      | 25.847     | 26.403     |  10.9 |  3.63
Output  | 0.035259   | 0.035341   | 0.035423   |   0.0 |  0.00
Modify  | 8.6168     | 8.6603     | 8.7038     |   1.5 |  1.21
Other   |            | 2.301      |            |       |  0.32

Nlocal:    9826 ave 9832 max 9820 min
Histogram: 1 0 0 0 0 0 0 0 0 1
Nghost:    11270.5 ave 11287 max 11254 min
Histogram: 1 0 0 0 0 0 0 0 0 1
Neighs:    544552 ave 545175 max 543928 min
Histogram: 1 0 0 0 0 0 0 0 0 1

Total # of neighbors = 1089103
Ave neighs/atom = 55.4194
Neighbor list builds = 9505
Dangerous builds not checked
Setting up Verlet run ...
  Unit style    : metal
  Current step  : 450000
  Time step     : 0.001
Per MPI rank memory allocation (min/avg/max) = 11.28 | 11.28 | 11.28 Mbytes
Step Temp Press TotEng PotEng Enthalpy 
  450000    397.67779   -764.44411    -120779.3   -121789.43   -120999.25 
  450495    371.97311    486.90424   -120925.19   -121870.04   -120785.36 
Loop time of 37.1718 on 2 procs for 495 steps with 19652 atoms

Performance: 1.151 ns/day, 20.860 hours/ns, 13.317 timesteps/s
98.9% CPU use with 2 MPI tasks x no OpenMP threads

MPI task timing breakdown:
Section |  min time  |  avg time  |  max time  |%varavg| %total
---------------------------------------------------------------
Pair    | 20.337     | 20.61      | 20.883     |   6.0 | 55.45
Neigh   | 14.699     | 14.749     | 14.799     |   1.3 | 39.68
Comm    | 0.92281    | 1.244      | 1.5652     |  28.8 |  3.35
Output  | 0.000103   | 0.00023198 | 0.00036097 |   0.0 |  0.00
Modify  | 0.44483    | 0.44632    | 0.44781    |   0.2 |  1.20
Other   |            | 0.1223     |            |       |  0.33

Nlocal:    9826 ave 9832 max 9820 min
Histogram: 1 0 0 0 0 0 0 0 0 1
Nghost:    11298.5 ave 11311 max 11286 min
Histogram: 1 0 0 0 0 0 0 0 0 1
Neighs:    545955 ave 546296 max 545614 min
Histogram: 1 0 0 0 0 0 0 0 0 1

Total # of neighbors = 1091910
Ave neighs/atom = 55.5623
Neighbor list builds = 495
Dangerous builds not checked
Setting up Verlet run ...
  Unit style    : metal
  Current step  : 450495
  Time step     : 0.001
Per MPI rank memory allocation (min/avg/max) = 11.28 | 11.28 | 11.28 Mbytes
Step Temp Press TotEng PotEng Enthalpy 
  450495    371.97311    486.90424   -120925.19   -121870.04   -120785.36 
  460000    347.70186    224.45741   -121060.95   -121944.15    -120996.5 
Loop time of 697.466 on 2 procs for 9505 steps with 19652 atoms

Performance: 1.177 ns/day, 20.383 hours/ns, 13.628 timesteps/s
99.5% CPU use with 2 MPI tasks x no OpenMP threads

MPI task timing breakdown:
Section |  min time  |  avg time  |  max time  |%varavg| %total
---------------------------------------------------------------
Pair    | 380.7      | 381.34     | 381.99     |   3.3 | 54.68
Neigh   | 277.59     | 278.3      | 279.02     |   4.3 | 39.90
Comm    | 26.825     | 26.901     | 26.977     |   1.5 |  3.86
Output  | 0.036869   | 0.036898   | 0.036927   |   0.0 |  0.01
Modify  | 8.654      | 8.6558     | 8.6576     |   0.1 |  1.24
Other   |            | 2.222      |            |       |  0.32

Nlocal:    9826 ave 9830 max 9822 min
Histogram: 1 0 0 0 0 0 0 0 0 1
Nghost:    11261.5 ave 11293 max 11230 min
Histogram: 1 0 0 0 0 0 0 0 0 1
Neighs:    545945 ave 546200 max 545690 min
Histogram: 1 0 0 0 0 0 0 0 0 1

Total # of neighbors = 1091890
Ave neighs/atom = 55.5613
Neighbor list builds = 9505
Dangerous builds not checked
Setting up Verlet run ...
  Unit style    : metal
  Current step  : 460000
  Time step     : 0.001
Per MPI rank memory allocation (min/avg/max) = 11.28 | 11.28 | 11.28 Mbytes
Step Temp Press TotEng PotEng Enthalpy 
  460000    347.70186    224.45741   -121060.95   -121944.15    -120996.5 
  460495    323.35376     222.7012   -121198.31   -122019.66    -121134.4 
Loop time of 36.5287 on 2 procs for 495 steps with 19652 atoms

Performance: 1.171 ns/day, 20.499 hours/ns, 13.551 timesteps/s
99.2% CPU use with 2 MPI tasks x no OpenMP threads

MPI task timing breakdown:
Section |  min time  |  avg time  |  max time  |%varavg| %total
---------------------------------------------------------------
Pair    | 19.916     | 19.943     | 19.969     |   0.6 | 54.59
Neigh   | 14.366     | 14.39      | 14.414     |   0.6 | 39.39
Comm    | 1.5956     | 1.6472     | 1.6988     |   4.0 |  4.51
Output  | 8.4162e-05 | 0.00013208 | 0.00018001 |   0.0 |  0.00
Modify  | 0.43351    | 0.43403    | 0.43456    |   0.1 |  1.19
Other   |            | 0.1147     |            |       |  0.31

Nlocal:    9826 ave 9832 max 9820 min
Histogram: 1 0 0 0 0 0 0 0 0 1
Nghost:    11275 ave 11284 max 11266 min
Histogram: 1 0 0 0 0 0 0 0 0 1
Neighs:    546362 ave 546824 max 545899 min
Histogram: 1 0 0 0 0 0 0 0 0 1

Total # of neighbors = 1092723
Ave neighs/atom = 55.6037
Neighbor list builds = 495
Dangerous builds not checked
Setting up Verlet run ...
  Unit style    : metal
  Current step  : 460495
  Time step     : 0.001
Per MPI rank memory allocation (min/avg/max) = 11.28 | 11.28 | 11.28 Mbytes
Step Temp Press TotEng PotEng Enthalpy 
  460495    323.35376     222.7012   -121198.31   -122019.66    -121134.4 
  470000    299.63029    49.844433   -121319.16   -122080.25   -121304.86 
Loop time of 700.761 on 2 procs for 9505 steps with 19652 atoms

Performance: 1.172 ns/day, 20.479 hours/ns, 13.564 timesteps/s
98.7% CPU use with 2 MPI tasks x no OpenMP threads

MPI task timing breakdown:
Section |  min time  |  avg time  |  max time  |%varavg| %total
---------------------------------------------------------------
Pair    | 381.27     | 382.13     | 382.99     |   4.4 | 54.53
Neigh   | 276.88     | 277.12     | 277.36     |   1.4 | 39.55
Comm    | 29.624     | 30.734     | 31.845     |  20.0 |  4.39
Output  | 0.032633   | 0.032668   | 0.032704   |   0.0 |  0.00
Modify  | 8.5285     | 8.5399     | 8.5513     |   0.4 |  1.22
Other   |            | 2.203      |            |       |  0.31

Nlocal:    9826 ave 9837 max 9815 min
Histogram: 1 0 0 0 0 0 0 0 0 1
Nghost:    11254.5 ave 11271 max 11238 min
Histogram: 1 0 0 0 0 0 0 0 0 1
Neighs:    546546 ave 547127 max 545966 min
Histogram: 1 0 0 0 0 0 0 0 0 1

Total # of neighbors = 1093093
Ave neighs/atom = 55.6225
Neighbor list builds = 9505
Dangerous builds not checked
Setting up Verlet run ...
  Unit style    : metal
  Current step  : 470000
  Time step     : 0.001
Per MPI rank memory allocation (min/avg/max) = 11.28 | 11.28 | 11.28 Mbytes
Step Temp Press TotEng PotEng Enthalpy 
  470000    299.63029    49.844433   -121319.16   -122080.25   -121304.86 
  470495    273.35851    99.467937   -121461.03   -122155.39   -121432.51 
Loop time of 35.6104 on 2 procs for 495 steps with 19652 atoms

Performance: 1.201 ns/day, 19.983 hours/ns, 13.900 timesteps/s
99.9% CPU use with 2 MPI tasks x no OpenMP threads

MPI task timing breakdown:
Section |  min time  |  avg time  |  max time  |%varavg| %total
---------------------------------------------------------------
Pair    | 19.271     | 19.393     | 19.514     |   2.8 | 54.46
Neigh   | 14.04      | 14.093     | 14.146     |   1.4 | 39.58
Comm    | 1.4094     | 1.5868     | 1.7641     |  14.1 |  4.46
Output  | 9.6083e-05 | 0.00019002 | 0.00028396 |   0.0 |  0.00
Modify  | 0.42015    | 0.42374    | 0.42734    |   0.6 |  1.19
Other   |            | 0.1139     |            |       |  0.32

Nlocal:    9826 ave 9848 max 9804 min
Histogram: 1 0 0 0 0 0 0 0 0 1
Nghost:    11284.5 ave 11286 max 11283 min
Histogram: 1 0 0 0 0 0 0 0 0 1
Neighs:    546882 ave 548328 max 545437 min
Histogram: 1 0 0 0 0 0 0 0 0 1

Total # of neighbors = 1093765
Ave neighs/atom = 55.6567
Neighbor list builds = 495
Dangerous builds not checked
Setting up Verlet run ...
  Unit style    : metal
  Current step  : 470495
  Time step     : 0.001
Per MPI rank memory allocation (min/avg/max) = 11.28 | 11.28 | 11.28 Mbytes
Step Temp Press TotEng PotEng Enthalpy 
  470495    273.35851    99.467937   -121461.03   -122155.39   -121432.51 
  480000    250.19081    561.55888   -121583.91   -122219.42   -121423.02 
Loop time of 692.809 on 2 procs for 9505 steps with 19652 atoms

Performance: 1.185 ns/day, 20.247 hours/ns, 13.720 timesteps/s
99.3% CPU use with 2 MPI tasks x no OpenMP threads

MPI task timing breakdown:
Section |  min time  |  avg time  |  max time  |%varavg| %total
---------------------------------------------------------------
Pair    | 377.81     | 379.27     | 380.72     |   7.5 | 54.74
Neigh   | 273.96     | 274.84     | 275.71     |   5.3 | 39.67
Comm    | 25.76      | 28.116     | 30.471     |  44.4 |  4.06
Output  | 0.033763   | 0.033792   | 0.033822   |   0.0 |  0.00
Modify  | 8.3488     | 8.3688     | 8.3889     |   0.7 |  1.21
Other   |            | 2.187      |            |       |  0.32

Nlocal:    9826 ave 9834 max 9818 min
Histogram: 1 0 0 0 0 0 0 0 0 1
Nghost:    11276 ave 11282 max 11270 min
Histogram: 1 0 0 0 0 0 0 0 0 1
Neighs:    547198 ave 547852 max 546543 min
Histogram: 1 0 0 0 0 0 0 0 0 1

Total # of neighbors = 1094395
Ave neighs/atom = 55.6887
Neighbor list builds = 9505
Dangerous builds not checked
Setting up Verlet run ...
  Unit style    : metal
  Current step  : 480000
  Time step     : 0.001
Per MPI rank memory allocation (min/avg/max) = 11.28 | 11.28 | 11.28 Mbytes
Step Temp Press TotEng PotEng Enthalpy 
  480000    250.19081    561.55888   -121583.91   -122219.42   -121423.02 
  480495     224.3479   -397.77023    -121721.2   -122291.06   -121835.22 
Loop time of 35.4827 on 2 procs for 495 steps with 19652 atoms

Performance: 1.205 ns/day, 19.912 hours/ns, 13.950 timesteps/s
99.9% CPU use with 2 MPI tasks x no OpenMP threads

MPI task timing breakdown:
Section |  min time  |  avg time  |  max time  |%varavg| %total
---------------------------------------------------------------
Pair    | 19.467     | 19.471     | 19.475     |   0.1 | 54.87
Neigh   | 13.953     | 14.118     | 14.282     |   4.4 | 39.79
Comm    | 1.1823     | 1.3555     | 1.5286     |  14.9 |  3.82
Output  | 0.000108   | 0.00019002 | 0.00027204 |   0.0 |  0.00
Modify  | 0.42084    | 0.42482    | 0.42881    |   0.6 |  1.20
Other   |            | 0.1136     |            |       |  0.32

Nlocal:    9826 ave 9841 max 9811 min
Histogram: 1 0 0 0 0 0 0 0 0 1
Nghost:    11264 ave 11286 max 11242 min
Histogram: 1 0 0 0 0 0 0 0 0 1
Neighs:    547071 ave 548444 max 545698 min
Histogram: 1 0 0 0 0 0 0 0 0 1

Total # of neighbors = 1094142
Ave neighs/atom = 55.6759
Neighbor list builds = 495
Dangerous builds not checked
Setting up Verlet run ...
  Unit style    : metal
  Current step  : 480495
  Time step     : 0.001
Per MPI rank memory allocation (min/avg/max) = 11.28 | 11.28 | 11.28 Mbytes
Step Temp Press TotEng PotEng Enthalpy 
  480495     224.3479   -397.77023    -121721.2   -122291.06   -121835.22 
  490000    197.85436    521.59553   -121860.78   -122363.35   -121711.49 
Loop time of 687.446 on 2 procs for 9505 steps with 19652 atoms

Performance: 1.195 ns/day, 20.090 hours/ns, 13.827 timesteps/s
99.4% CPU use with 2 MPI tasks x no OpenMP threads

MPI task timing breakdown:
Section |  min time  |  avg time  |  max time  |%varavg| %total
---------------------------------------------------------------
Pair    | 375.01     | 375.61     | 376.2      |   3.1 | 54.64
Neigh   | 271.72     | 273.27     | 274.83     |   9.4 | 39.75
Comm    | 27.16      | 28.145     | 29.13      |  18.6 |  4.09
Output  | 0.03475    | 0.034844   | 0.034938   |   0.1 |  0.01
Modify  | 8.1905     | 8.2129     | 8.2352     |   0.8 |  1.19
Other   |            | 2.174      |            |       |  0.32

Nlocal:    9826 ave 9837 max 9815 min
Histogram: 1 0 0 0 0 0 0 0 0 1
Nghost:    11291.5 ave 11301 max 11282 min
Histogram: 1 0 0 0 0 0 0 0 0 1
Neighs:    547990 ave 548874 max 547107 min
Histogram: 1 0 0 0 0 0 0 0 0 1

Total # of neighbors = 1095981
Ave neighs/atom = 55.7694
Neighbor list builds = 9505
Dangerous builds not checked
Setting up Verlet run ...
  Unit style    : metal
  Current step  : 490000
  Time step     : 0.001
Per MPI rank memory allocation (min/avg/max) = 11.28 | 11.28 | 11.28 Mbytes
Step Temp Press TotEng PotEng Enthalpy 
  490000    197.85436    521.59553   -121860.78   -122363.35   -121711.49 
  490495    175.61128    158.48065   -121977.86   -122423.93    -121932.5 
Loop time of 35.6259 on 2 procs for 495 steps with 19652 atoms

Performance: 1.200 ns/day, 19.992 hours/ns, 13.894 timesteps/s
99.9% CPU use with 2 MPI tasks x no OpenMP threads

MPI task timing breakdown:
Section |  min time  |  avg time  |  max time  |%varavg| %total
---------------------------------------------------------------
Pair    | 19.365     | 19.466     | 19.567     |   2.3 | 54.64
Neigh   | 13.892     | 14.015     | 14.138     |   3.3 | 39.34
Comm    | 1.5837     | 1.6068     | 1.6299     |   1.8 |  4.51
Output  | 8.7023e-05 | 0.00013053 | 0.00017405 |   0.0 |  0.00
Modify  | 0.42433    | 0.42524    | 0.42614    |   0.1 |  1.19
Other   |            | 0.1126     |            |       |  0.32

Nlocal:    9826 ave 9827 max 9825 min
Histogram: 1 0 0 0 0 0 0 0 0 1
Nghost:    11290.5 ave 11296 max 11285 min
Histogram: 1 0 0 0 0 0 0 0 0 1
Neighs:    547905 ave 548101 max 547709 min
Histogram: 1 0 0 0 0 0 0 0 0 1

Total # of neighbors = 1095810
Ave neighs/atom = 55.7607
Neighbor list builds = 495
Dangerous builds not checked
Setting up Verlet run ...
  Unit style    : metal
  Current step  : 490495
  Time step     : 0.001
Per MPI rank memory allocation (min/avg/max) = 11.28 | 11.28 | 11.28 Mbytes
Step Temp Press TotEng PotEng Enthalpy 
  490495    175.61128    158.48065   -121977.86   -122423.93    -121932.5 
  500000    151.91975    402.90278   -122100.55   -122486.44   -121985.32 
Loop time of 684.485 on 2 procs for 9505 steps with 19652 atoms

Performance: 1.200 ns/day, 20.004 hours/ns, 13.886 timesteps/s
99.5% CPU use with 2 MPI tasks x no OpenMP threads

MPI task timing breakdown:
Section |  min time  |  avg time  |  max time  |%varavg| %total
---------------------------------------------------------------
Pair    | 373.94     | 374.04     | 374.14     |   0.5 | 54.65
Neigh   | 271.75     | 272.49     | 273.24     |   4.5 | 39.81
Comm    | 26.687     | 27.547     | 28.408     |  16.4 |  4.02
Output  | 0.035631   | 0.035698   | 0.035766   |   0.0 |  0.01
Modify  | 8.1802     | 8.19       | 8.1998     |   0.3 |  1.20
Other   |            | 2.18       |            |       |  0.32

Nlocal:    9826 ave 9838 max 9814 min
Histogram: 1 0 0 0 0 0 0 0 0 1
Nghost:    11292 ave 11292 max 11292 min
Histogram: 2 0 0 0 0 0 0 0 0 0
Neighs:    548328 ave 549203 max 547454 min
Histogram: 1 0 0 0 0 0 0 0 0 1

Total # of neighbors = 1096657
Ave neighs/atom = 55.8038
Neighbor list builds = 9505
Dangerous builds not checked
Setting up Verlet run ...
  Unit style    : metal
  Current step  : 500000
  Time step     : 0.001
Per MPI rank memory allocation (min/avg/max) = 11.28 | 11.28 | 11.28 Mbytes
Step Temp Press TotEng PotEng Enthalpy 
  500000    151.91975    402.90278   -122100.55   -122486.44   -121985.32 
  500495    126.73917    -229.5618   -122225.53   -122547.46   -122291.21 
Loop time of 35.3608 on 2 procs for 495 steps with 19652 atoms

Performance: 1.209 ns/day, 19.843 hours/ns, 13.999 timesteps/s
99.9% CPU use with 2 MPI tasks x no OpenMP threads

MPI task timing breakdown:
Section |  min time  |  avg time  |  max time  |%varavg| %total
---------------------------------------------------------------
Pair    | 19.273     | 19.291     | 19.308     |   0.4 | 54.55
Neigh   | 14.131     | 14.176     | 14.22      |   1.2 | 40.09
Comm    | 1.2851     | 1.3495     | 1.4139     |   5.5 |  3.82
Output  | 7.7963e-05 | 0.00011349 | 0.00014901 |   0.0 |  0.00
Modify  | 0.42883    | 0.43038    | 0.43193    |   0.2 |  1.22
Other   |            | 0.1147     |            |       |  0.32

Nlocal:    9826 ave 9840 max 9812 min
Histogram: 1 0 0 0 0 0 0 0 0 1
Nghost:    11286 ave 11301 max 11271 min
Histogram: 1 0 0 0 0 0 0 0 0 1
Neighs:    548092 ave 549199 max 546986 min
Histogram: 1 0 0 0 0 0 0 0 0 1

Total # of neighbors = 1096185
Ave neighs/atom = 55.7798
Neighbor list builds = 495
Dangerous builds not checked
Setting up Verlet run ...
  Unit style    : metal
  Current step  : 500495
  Time step     : 0.001
Per MPI rank memory allocation (min/avg/max) = 11.28 | 11.28 | 11.28 Mbytes
Step Temp Press TotEng PotEng Enthalpy 
  500495    126.73917    -229.5618   -122225.53   -122547.46   -122291.21 
  510000    100.45945   -112.45025   -122366.24   -122621.42    -122398.4 
Loop time of 685.866 on 2 procs for 9505 steps with 19652 atoms

Performance: 1.197 ns/day, 20.044 hours/ns, 13.858 timesteps/s
99.2% CPU use with 2 MPI tasks x no OpenMP threads

MPI task timing breakdown:
Section |  min time  |  avg time  |  max time  |%varavg| %total
---------------------------------------------------------------
Pair    | 373.78     | 374.82     | 375.86     |   5.4 | 54.65
Neigh   | 270.37     | 271.81     | 273.24     |   8.7 | 39.63
Comm    | 26.255     | 28.77      | 31.285     |  46.9 |  4.19
Output  | 0.035972   | 0.036038   | 0.036103   |   0.0 |  0.01
Modify  | 8.2123     | 8.2488     | 8.2853     |   1.3 |  1.20
Other   |            | 2.188      |            |       |  0.32

Nlocal:    9826 ave 9839 max 9813 min
Histogram: 1 0 0 0 0 0 0 0 0 1
Nghost:    11294 ave 11305 max 11283 min
Histogram: 1 0 0 0 0 0 0 0 0 1
Neighs:    548335 ave 549675 max 546995 min
Histogram: 1 0 0 0 0 0 0 0 0 1

Total # of neighbors = 1096670
Ave neighs/atom = 55.8045
Neighbor list builds = 9505
Dangerous builds not checked
Total wall time: 10:24:10
