LAMMPS (12 Dec 2018)
Lattice spacing in x,y,z = 4 4 4
Created orthogonal box = (0 0 0) to (68 68 68)
  1 by 1 by 1 MPI processor grid
Created 19652 atoms
  Time spent = 0.00401115 secs
Setting atom values ...
  19480 settings made for type/fraction
Neighbor list info ...
  update every 1 steps, delay 0 steps, check no
  max neighbors/atom: 2000, page size: 100000
  master list distance cutoff = 8.2
  ghost atom cutoff = 8.2
  binsize = 4.1, bins = 17 17 17
  1 neighbor lists, perpetual/occasional/extra = 1 0 0
  (1) pair eam/alloy, perpetual
      attributes: half, newton on
      pair build: half/bin/atomonly/newton
      stencil: half/bin/3d/newton
      bin: standard
Setting up Verlet run ...
  Unit style    : metal
  Current step  : 0
  Time step     : 0.001
Per MPI rank memory allocation (min/avg/max) = 17.03 | 17.03 | 17.03 Mbytes
Step Temp Press TotEng PotEng Enthalpy 
       0          300   -362526.57   -69435.747   -70197.774   -140582.69 
    1000    1424.6682   -78151.565   -69436.105   -73054.892   -84773.587 
Loop time of 156.184 on 1 procs for 1000 steps with 19652 atoms

Performance: 0.553 ns/day, 43.384 hours/ns, 6.403 timesteps/s
98.7% CPU use with 1 MPI tasks x no OpenMP threads

MPI task timing breakdown:
Section |  min time  |  avg time  |  max time  |%varavg| %total
---------------------------------------------------------------
Pair    | 84.426     | 84.426     | 84.426     |   0.0 | 54.06
Neigh   | 69.71      | 69.71      | 69.71      |   0.0 | 44.63
Comm    | 1.2436     | 1.2436     | 1.2436     |   0.0 |  0.80
Output  | 0.00017309 | 0.00017309 | 0.00017309 |   0.0 |  0.00
Modify  | 0.4151     | 0.4151     | 0.4151     |   0.0 |  0.27
Other   |            | 0.3884     |            |       |  0.25

Nlocal:    19652 ave 19652 max 19652 min
Histogram: 1 0 0 0 0 0 0 0 0 0
Nghost:    17657 ave 17657 max 17657 min
Histogram: 1 0 0 0 0 0 0 0 0 0
Neighs:    1.44593e+06 ave 1.44593e+06 max 1.44593e+06 min
Histogram: 1 0 0 0 0 0 0 0 0 0

Total # of neighbors = 1445930
Ave neighs/atom = 73.5767
Neighbor list builds = 1000
Dangerous builds not checked
Setting up Verlet run ...
  Unit style    : metal
  Current step  : 1000
  Time step     : 0.001
Per MPI rank memory allocation (min/avg/max) = 17.03 | 17.03 | 17.03 Mbytes
Step Temp Press TotEng PotEng Enthalpy 
    1000    1424.6682   -78151.565   -69436.105   -73054.892   -84773.587 
    2000    431.80952   -3581.3656   -80591.471   -81688.306   -81116.436 
Loop time of 193.652 on 1 procs for 1000 steps with 19652 atoms

Performance: 0.446 ns/day, 53.792 hours/ns, 5.164 timesteps/s
98.5% CPU use with 1 MPI tasks x no OpenMP threads

MPI task timing breakdown:
Section |  min time  |  avg time  |  max time  |%varavg| %total
---------------------------------------------------------------
Pair    | 109.03     | 109.03     | 109.03     |   0.0 | 56.30
Neigh   | 81.426     | 81.426     | 81.426     |   0.0 | 42.05
Comm    | 1.2154     | 1.2154     | 1.2154     |   0.0 |  0.63
Output  | 0.073669   | 0.073669   | 0.073669   |   0.0 |  0.04
Modify  | 1.4767     | 1.4767     | 1.4767     |   0.0 |  0.76
Other   |            | 0.4298     |            |       |  0.22

Nlocal:    19652 ave 19652 max 19652 min
Histogram: 1 0 0 0 0 0 0 0 0 0
Nghost:    20166 ave 20166 max 20166 min
Histogram: 1 0 0 0 0 0 0 0 0 0
Neighs:    1.88355e+06 ave 1.88355e+06 max 1.88355e+06 min
Histogram: 1 0 0 0 0 0 0 0 0 0

Total # of neighbors = 1883552
Ave neighs/atom = 95.8453
Neighbor list builds = 1000
Dangerous builds not checked
Setting up Verlet run ...
  Unit style    : metal
  Current step  : 2000
  Time step     : 0.001
Per MPI rank memory allocation (min/avg/max) = 18.94 | 18.94 | 18.94 Mbytes
Step Temp Press TotEng PotEng Enthalpy 
    2000    431.80952   -3581.3656   -80591.471   -81688.306   -81116.436 
    4000    814.44391    711.01858   -80154.448    -82223.21   -80053.764 
    6000     1363.316   -1481.7004   -76998.235   -80461.181   -77213.671 
    8000    1911.7739     3547.291   -73096.981    -77953.06   -72563.109 
   10000    2452.8295     2127.496   -69355.877   -75586.287   -69023.434 
Loop time of 1589.67 on 1 procs for 8000 steps with 19652 atoms

Performance: 0.435 ns/day, 55.197 hours/ns, 5.032 timesteps/s
98.6% CPU use with 1 MPI tasks x no OpenMP threads

MPI task timing breakdown:
Section |  min time  |  avg time  |  max time  |%varavg| %total
---------------------------------------------------------------
Pair    | 886.17     | 886.17     | 886.17     |   0.0 | 55.75
Neigh   | 677.84     | 677.84     | 677.84     |   0.0 | 42.64
Comm    | 9.9806     | 9.9806     | 9.9806     |   0.0 |  0.63
Output  | 0.59693    | 0.59693    | 0.59693    |   0.0 |  0.04
Modify  | 11.74      | 11.74      | 11.74      |   0.0 |  0.74
Other   |            | 3.343      |            |       |  0.21

Nlocal:    19652 ave 19652 max 19652 min
Histogram: 1 0 0 0 0 0 0 0 0 0
Nghost:    19625 ave 19625 max 19625 min
Histogram: 1 0 0 0 0 0 0 0 0 0
Neighs:    1.7621e+06 ave 1.7621e+06 max 1.7621e+06 min
Histogram: 1 0 0 0 0 0 0 0 0 0

Total # of neighbors = 1762096
Ave neighs/atom = 89.665
Neighbor list builds = 8000
Dangerous builds not checked
Setting up Verlet run ...
  Unit style    : metal
  Current step  : 10000
  Time step     : 0.001
Per MPI rank memory allocation (min/avg/max) = 18.95 | 18.95 | 18.95 Mbytes
Step Temp Press TotEng PotEng Enthalpy 
   10000    2452.8295     2127.496   -69355.877   -75586.287   -69023.434 
   12000    2461.5191    5036.4123   -69267.545   -75520.028   -68481.215 
   14000    2473.1521    2240.0679   -69258.632   -75540.664   -68908.372 
   16000    2434.1874   -3332.9582   -69206.907   -75389.965   -69730.664 
   18000    2458.3486    2718.2431   -69150.457   -75394.887   -68724.795 
   20000    2452.8466   -1651.5281   -69279.313   -75509.767   -69538.131 
   22000    2448.3919    2712.0905   -69223.903   -75443.041   -68799.608 
   24000    2455.4071   -1930.8691   -69196.743   -75433.701   -69499.819 
   26000    2468.1017   -319.29216   -69201.121   -75470.324   -69251.168 
   28000    2453.6417   -2187.5136   -69166.273   -75398.746   -69509.776 
   30000    2456.9567    2154.3698   -69192.453   -75433.347   -68855.093 
   32000    2440.7054   -1428.0398   -69271.816    -75471.43   -69495.804 
   34000    2454.1195    1772.7684   -69214.582   -75448.269   -68937.078 
   36000    2451.2149   -2128.2343   -69234.494   -75460.803   -69568.432 
   38000    2462.5552    42.367895   -69244.794   -75499.909   -69238.157 
   40000    2456.0337    1365.3358   -69259.022   -75497.572   -69045.348 
Loop time of 4846.25 on 1 procs for 30000 steps with 19652 atoms

Performance: 0.535 ns/day, 44.873 hours/ns, 6.190 timesteps/s
99.3% CPU use with 1 MPI tasks x no OpenMP threads

MPI task timing breakdown:
Section |  min time  |  avg time  |  max time  |%varavg| %total
---------------------------------------------------------------
Pair    | 2645.7     | 2645.7     | 2645.7     |   0.0 | 54.59
Neigh   | 2108.8     | 2108.8     | 2108.8     |   0.0 | 43.51
Comm    | 29.762     | 29.762     | 29.762     |   0.0 |  0.61
Output  | 15.922     | 15.922     | 15.922     |   0.0 |  0.33
Modify  | 35.937     | 35.937     | 35.937     |   0.0 |  0.74
Other   |            | 10.13      |            |       |  0.21

Nlocal:    19652 ave 19652 max 19652 min
Histogram: 1 0 0 0 0 0 0 0 0 0
Nghost:    19638 ave 19638 max 19638 min
Histogram: 1 0 0 0 0 0 0 0 0 0
Neighs:    1.75918e+06 ave 1.75918e+06 max 1.75918e+06 min
Histogram: 1 0 0 0 0 0 0 0 0 0

Total # of neighbors = 1759181
Ave neighs/atom = 89.5166
Neighbor list builds = 30000
Dangerous builds not checked
Setting up Verlet run ...
  Unit style    : metal
  Current step  : 40000
  Time step     : 0.001
Per MPI rank memory allocation (min/avg/max) = 18.95 | 18.95 | 18.95 Mbytes
Step Temp Press TotEng PotEng Enthalpy 
   40000    2456.0337    1365.3358   -69259.022   -75497.572   -69045.348 
   40495    2437.2189    2539.2058   -69526.569   -75717.327   -69130.709 
Loop time of 67.0014 on 1 procs for 495 steps with 19652 atoms

Performance: 0.638 ns/day, 37.599 hours/ns, 7.388 timesteps/s
99.9% CPU use with 1 MPI tasks x no OpenMP threads

MPI task timing breakdown:
Section |  min time  |  avg time  |  max time  |%varavg| %total
---------------------------------------------------------------
Pair    | 35.946     | 35.946     | 35.946     |   0.0 | 53.65
Neigh   | 30.022     | 30.022     | 30.022     |   0.0 | 44.81
Comm    | 0.39781    | 0.39781    | 0.39781    |   0.0 |  0.59
Output  | 0.00012517 | 0.00012517 | 0.00012517 |   0.0 |  0.00
Modify  | 0.49827    | 0.49827    | 0.49827    |   0.0 |  0.74
Other   |            | 0.1373     |            |       |  0.20

Nlocal:    19652 ave 19652 max 19652 min
Histogram: 1 0 0 0 0 0 0 0 0 0
Nghost:    19661 ave 19661 max 19661 min
Histogram: 1 0 0 0 0 0 0 0 0 0
Neighs:    1.76691e+06 ave 1.76691e+06 max 1.76691e+06 min
Histogram: 1 0 0 0 0 0 0 0 0 0

Total # of neighbors = 1766912
Ave neighs/atom = 89.91
Neighbor list builds = 495
Dangerous builds not checked
Setting up Verlet run ...
  Unit style    : metal
  Current step  : 40495
  Time step     : 0.001
Per MPI rank memory allocation (min/avg/max) = 18.95 | 18.95 | 18.95 Mbytes
Step Temp Press TotEng PotEng Enthalpy 
   40495    2437.2189    2539.2058   -69526.569   -75717.327   -69130.709 
   42000    2375.3867   -1215.8825   -69687.595   -75721.294   -69877.462 
Loop time of 216.716 on 1 procs for 1505 steps with 19652 atoms

Performance: 0.600 ns/day, 39.999 hours/ns, 6.945 timesteps/s
95.0% CPU use with 1 MPI tasks x no OpenMP threads

MPI task timing breakdown:
Section |  min time  |  avg time  |  max time  |%varavg| %total
---------------------------------------------------------------
Pair    | 110.49     | 110.49     | 110.49     |   0.0 | 50.98
Neigh   | 92.31      | 92.31      | 92.31      |   0.0 | 42.60
Comm    | 1.2374     | 1.2374     | 1.2374     |   0.0 |  0.57
Output  | 10.727     | 10.727     | 10.727     |   0.0 |  4.95
Modify  | 1.5313     | 1.5313     | 1.5313     |   0.0 |  0.71
Other   |            | 0.4222     |            |       |  0.19

Nlocal:    19652 ave 19652 max 19652 min
Histogram: 1 0 0 0 0 0 0 0 0 0
Nghost:    19714 ave 19714 max 19714 min
Histogram: 1 0 0 0 0 0 0 0 0 0
Neighs:    1.76304e+06 ave 1.76304e+06 max 1.76304e+06 min
Histogram: 1 0 0 0 0 0 0 0 0 0

Total # of neighbors = 1763041
Ave neighs/atom = 89.7131
Neighbor list builds = 1505
Dangerous builds not checked
Setting up Verlet run ...
  Unit style    : metal
  Current step  : 42000
  Time step     : 0.001
Per MPI rank memory allocation (min/avg/max) = 18.95 | 18.95 | 18.95 Mbytes
Step Temp Press TotEng PotEng Enthalpy 
   42000    2375.3867   -1215.8825   -69687.595   -75721.294   -69877.462 
   42495    2356.2162    141.46142   -69783.133   -75768.137   -69761.072 
Loop time of 68.4082 on 1 procs for 495 steps with 19652 atoms

Performance: 0.625 ns/day, 38.388 hours/ns, 7.236 timesteps/s
99.7% CPU use with 1 MPI tasks x no OpenMP threads

MPI task timing breakdown:
Section |  min time  |  avg time  |  max time  |%varavg| %total
---------------------------------------------------------------
Pair    | 36.739     | 36.739     | 36.739     |   0.0 | 53.71
Neigh   | 30.6       | 30.6       | 30.6       |   0.0 | 44.73
Comm    | 0.40932    | 0.40932    | 0.40932    |   0.0 |  0.60
Output  | 9.799e-05  | 9.799e-05  | 9.799e-05  |   0.0 |  0.00
Modify  | 0.51745    | 0.51745    | 0.51745    |   0.0 |  0.76
Other   |            | 0.1422     |            |       |  0.21

Nlocal:    19652 ave 19652 max 19652 min
Histogram: 1 0 0 0 0 0 0 0 0 0
Nghost:    19623 ave 19623 max 19623 min
Histogram: 1 0 0 0 0 0 0 0 0 0
Neighs:    1.76556e+06 ave 1.76556e+06 max 1.76556e+06 min
Histogram: 1 0 0 0 0 0 0 0 0 0

Total # of neighbors = 1765563
Ave neighs/atom = 89.8414
Neighbor list builds = 495
Dangerous builds not checked
Setting up Verlet run ...
  Unit style    : metal
  Current step  : 42495
  Time step     : 0.001
Per MPI rank memory allocation (min/avg/max) = 18.95 | 18.95 | 18.95 Mbytes
Step Temp Press TotEng PotEng Enthalpy 
   42495    2356.2162    141.46142   -69783.133   -75768.137   -69761.072 
   44000    2362.0472    353.34956   -69891.781   -75891.596   -69836.789 
Loop time of 215.438 on 1 procs for 1505 steps with 19652 atoms

Performance: 0.604 ns/day, 39.763 hours/ns, 6.986 timesteps/s
99.8% CPU use with 1 MPI tasks x no OpenMP threads

MPI task timing breakdown:
Section |  min time  |  avg time  |  max time  |%varavg| %total
---------------------------------------------------------------
Pair    | 115.7      | 115.7      | 115.7      |   0.0 | 53.70
Neigh   | 96.002     | 96.002     | 96.002     |   0.0 | 44.56
Comm    | 1.3852     | 1.3852     | 1.3852     |   0.0 |  0.64
Output  | 0.24271    | 0.24271    | 0.24271    |   0.0 |  0.11
Modify  | 1.6623     | 1.6623     | 1.6623     |   0.0 |  0.77
Other   |            | 0.4477     |            |       |  0.21

Nlocal:    19652 ave 19652 max 19652 min
Histogram: 1 0 0 0 0 0 0 0 0 0
Nghost:    19775 ave 19775 max 19775 min
Histogram: 1 0 0 0 0 0 0 0 0 0
Neighs:    1.7691e+06 ave 1.7691e+06 max 1.7691e+06 min
Histogram: 1 0 0 0 0 0 0 0 0 0

Total # of neighbors = 1769098
Ave neighs/atom = 90.0213
Neighbor list builds = 1505
Dangerous builds not checked
Setting up Verlet run ...
  Unit style    : metal
  Current step  : 44000
  Time step     : 0.001
Per MPI rank memory allocation (min/avg/max) = 18.95 | 18.95 | 18.95 Mbytes
Step Temp Press TotEng PotEng Enthalpy 
   44000    2362.0472    353.34956   -69891.781   -75891.596   -69836.789 
   44495    2304.4245   -1099.1554   -70155.123   -76008.572   -70326.024 
Loop time of 64.6622 on 1 procs for 495 steps with 19652 atoms

Performance: 0.661 ns/day, 36.286 hours/ns, 7.655 timesteps/s
100.0% CPU use with 1 MPI tasks x no OpenMP threads

MPI task timing breakdown:
Section |  min time  |  avg time  |  max time  |%varavg| %total
---------------------------------------------------------------
Pair    | 34.526     | 34.526     | 34.526     |   0.0 | 53.39
Neigh   | 29.086     | 29.086     | 29.086     |   0.0 | 44.98
Comm    | 0.41834    | 0.41834    | 0.41834    |   0.0 |  0.65
Output  | 0.0001111  | 0.0001111  | 0.0001111  |   0.0 |  0.00
Modify  | 0.49845    | 0.49845    | 0.49845    |   0.0 |  0.77
Other   |            | 0.1335     |            |       |  0.21

Nlocal:    19652 ave 19652 max 19652 min
Histogram: 1 0 0 0 0 0 0 0 0 0
Nghost:    19751 ave 19751 max 19751 min
Histogram: 1 0 0 0 0 0 0 0 0 0
Neighs:    1.77096e+06 ave 1.77096e+06 max 1.77096e+06 min
Histogram: 1 0 0 0 0 0 0 0 0 0

Total # of neighbors = 1770962
Ave neighs/atom = 90.1161
Neighbor list builds = 495
Dangerous builds not checked
Setting up Verlet run ...
  Unit style    : metal
  Current step  : 44495
  Time step     : 0.001
Per MPI rank memory allocation (min/avg/max) = 18.95 | 18.95 | 18.95 Mbytes
Step Temp Press TotEng PotEng Enthalpy 
   44495    2304.4245   -1099.1554   -70155.123   -76008.572   -70326.024 
   46000    2299.4102   -1205.9612   -70275.796   -76116.507   -70462.968 
Loop time of 207.69 on 1 procs for 1505 steps with 19652 atoms

Performance: 0.626 ns/day, 38.333 hours/ns, 7.246 timesteps/s
99.4% CPU use with 1 MPI tasks x no OpenMP threads

MPI task timing breakdown:
Section |  min time  |  avg time  |  max time  |%varavg| %total
---------------------------------------------------------------
Pair    | 111.26     | 111.26     | 111.26     |   0.0 | 53.57
Neigh   | 92.857     | 92.857     | 92.857     |   0.0 | 44.71
Comm    | 1.3345     | 1.3345     | 1.3345     |   0.0 |  0.64
Output  | 0.21145    | 0.21145    | 0.21145    |   0.0 |  0.10
Modify  | 1.5934     | 1.5934     | 1.5934     |   0.0 |  0.77
Other   |            | 0.4357     |            |       |  0.21

Nlocal:    19652 ave 19652 max 19652 min
Histogram: 1 0 0 0 0 0 0 0 0 0
Nghost:    19633 ave 19633 max 19633 min
Histogram: 1 0 0 0 0 0 0 0 0 0
Neighs:    1.77254e+06 ave 1.77254e+06 max 1.77254e+06 min
Histogram: 1 0 0 0 0 0 0 0 0 0

Total # of neighbors = 1772542
Ave neighs/atom = 90.1965
Neighbor list builds = 1505
Dangerous builds not checked
Setting up Verlet run ...
  Unit style    : metal
  Current step  : 46000
  Time step     : 0.001
Per MPI rank memory allocation (min/avg/max) = 18.95 | 18.95 | 18.95 Mbytes
Step Temp Press TotEng PotEng Enthalpy 
   46000    2299.4102   -1205.9612   -70275.796   -76116.507   -70462.968 
   46495    2253.8832    1377.5854   -70517.669   -76242.737   -70304.488 
Loop time of 65.2094 on 1 procs for 495 steps with 19652 atoms

Performance: 0.656 ns/day, 36.593 hours/ns, 7.591 timesteps/s
100.0% CPU use with 1 MPI tasks x no OpenMP threads

MPI task timing breakdown:
Section |  min time  |  avg time  |  max time  |%varavg| %total
---------------------------------------------------------------
Pair    | 34.936     | 34.936     | 34.936     |   0.0 | 53.58
Neigh   | 29.214     | 29.214     | 29.214     |   0.0 | 44.80
Comm    | 0.41594    | 0.41594    | 0.41594    |   0.0 |  0.64
Output  | 0.00015616 | 0.00015616 | 0.00015616 |   0.0 |  0.00
Modify  | 0.50349    | 0.50349    | 0.50349    |   0.0 |  0.77
Other   |            | 0.1393     |            |       |  0.21

Nlocal:    19652 ave 19652 max 19652 min
Histogram: 1 0 0 0 0 0 0 0 0 0
Nghost:    19759 ave 19759 max 19759 min
Histogram: 1 0 0 0 0 0 0 0 0 0
Neighs:    1.77844e+06 ave 1.77844e+06 max 1.77844e+06 min
Histogram: 1 0 0 0 0 0 0 0 0 0

Total # of neighbors = 1778445
Ave neighs/atom = 90.4969
Neighbor list builds = 495
Dangerous builds not checked
Setting up Verlet run ...
  Unit style    : metal
  Current step  : 46495
  Time step     : 0.001
Per MPI rank memory allocation (min/avg/max) = 18.95 | 18.95 | 18.95 Mbytes
Step Temp Press TotEng PotEng Enthalpy 
   46495    2253.8832    1377.5854   -70517.669   -76242.737   -70304.488 
   48000    2240.2272   -1250.6416   -70637.294   -76327.676    -70830.82 
Loop time of 210.716 on 1 procs for 1505 steps with 19652 atoms

Performance: 0.617 ns/day, 38.892 hours/ns, 7.142 timesteps/s
99.7% CPU use with 1 MPI tasks x no OpenMP threads

MPI task timing breakdown:
Section |  min time  |  avg time  |  max time  |%varavg| %total
---------------------------------------------------------------
Pair    | 113.97     | 113.97     | 113.97     |   0.0 | 54.09
Neigh   | 92.921     | 92.921     | 92.921     |   0.0 | 44.10
Comm    | 1.4079     | 1.4079     | 1.4079     |   0.0 |  0.67
Output  | 0.33743    | 0.33743    | 0.33743    |   0.0 |  0.16
Modify  | 1.6576     | 1.6576     | 1.6576     |   0.0 |  0.79
Other   |            | 0.4206     |            |       |  0.20

Nlocal:    19652 ave 19652 max 19652 min
Histogram: 1 0 0 0 0 0 0 0 0 0
Nghost:    19726 ave 19726 max 19726 min
Histogram: 1 0 0 0 0 0 0 0 0 0
Neighs:    1.77931e+06 ave 1.77931e+06 max 1.77931e+06 min
Histogram: 1 0 0 0 0 0 0 0 0 0

Total # of neighbors = 1779313
Ave neighs/atom = 90.5411
Neighbor list builds = 1505
Dangerous builds not checked
Setting up Verlet run ...
  Unit style    : metal
  Current step  : 48000
  Time step     : 0.001
Per MPI rank memory allocation (min/avg/max) = 18.95 | 18.95 | 18.95 Mbytes
Step Temp Press TotEng PotEng Enthalpy 
   48000    2240.2272   -1250.6416   -70637.294   -76327.676    -70830.82 
   48495    2210.5506    -727.7294   -70763.624   -76378.624   -70876.074 
Loop time of 72.2057 on 1 procs for 495 steps with 19652 atoms

Performance: 0.592 ns/day, 40.519 hours/ns, 6.855 timesteps/s
99.9% CPU use with 1 MPI tasks x no OpenMP threads

MPI task timing breakdown:
Section |  min time  |  avg time  |  max time  |%varavg| %total
---------------------------------------------------------------
Pair    | 39.346     | 39.346     | 39.346     |   0.0 | 54.49
Neigh   | 31.678     | 31.678     | 31.678     |   0.0 | 43.87
Comm    | 0.4601     | 0.4601     | 0.4601     |   0.0 |  0.64
Output  | 0.00014782 | 0.00014782 | 0.00014782 |   0.0 |  0.00
Modify  | 0.55704    | 0.55704    | 0.55704    |   0.0 |  0.77
Other   |            | 0.1639     |            |       |  0.23

Nlocal:    19652 ave 19652 max 19652 min
Histogram: 1 0 0 0 0 0 0 0 0 0
Nghost:    19777 ave 19777 max 19777 min
Histogram: 1 0 0 0 0 0 0 0 0 0
Neighs:    1.7813e+06 ave 1.7813e+06 max 1.7813e+06 min
Histogram: 1 0 0 0 0 0 0 0 0 0

Total # of neighbors = 1781297
Ave neighs/atom = 90.642
Neighbor list builds = 495
Dangerous builds not checked
Setting up Verlet run ...
  Unit style    : metal
  Current step  : 48495
  Time step     : 0.001
Per MPI rank memory allocation (min/avg/max) = 18.95 | 18.95 | 18.95 Mbytes
Step Temp Press TotEng PotEng Enthalpy 
   48495    2210.5506    -727.7294   -70763.624   -76378.624   -70876.074 
   50000    2196.6927   -1213.9388   -70910.965   -76490.765   -71098.302 
Loop time of 206.184 on 1 procs for 1505 steps with 19652 atoms

Performance: 0.631 ns/day, 38.055 hours/ns, 7.299 timesteps/s
99.9% CPU use with 1 MPI tasks x no OpenMP threads

MPI task timing breakdown:
Section |  min time  |  avg time  |  max time  |%varavg| %total
---------------------------------------------------------------
Pair    | 111.48     | 111.48     | 111.48     |   0.0 | 54.07
Neigh   | 91.174     | 91.174     | 91.174     |   0.0 | 44.22
Comm    | 1.2847     | 1.2847     | 1.2847     |   0.0 |  0.62
Output  | 0.23065    | 0.23065    | 0.23065    |   0.0 |  0.11
Modify  | 1.5373     | 1.5373     | 1.5373     |   0.0 |  0.75
Other   |            | 0.4748     |            |       |  0.23

Nlocal:    19652 ave 19652 max 19652 min
Histogram: 1 0 0 0 0 0 0 0 0 0
Nghost:    19780 ave 19780 max 19780 min
Histogram: 1 0 0 0 0 0 0 0 0 0
Neighs:    1.78313e+06 ave 1.78313e+06 max 1.78313e+06 min
Histogram: 1 0 0 0 0 0 0 0 0 0

Total # of neighbors = 1783132
Ave neighs/atom = 90.7354
Neighbor list builds = 1505
Dangerous builds not checked
Setting up Verlet run ...
  Unit style    : metal
  Current step  : 50000
  Time step     : 0.001
Per MPI rank memory allocation (min/avg/max) = 18.95 | 18.95 | 18.95 Mbytes
Step Temp Press TotEng PotEng Enthalpy 
   50000    2196.6927   -1213.9388   -70910.965   -76490.765   -71098.302 
   50495    2161.6182   -1136.2395   -71160.777   -76651.484   -71335.695 
Loop time of 67.281 on 1 procs for 495 steps with 19652 atoms

Performance: 0.636 ns/day, 37.756 hours/ns, 7.357 timesteps/s
99.9% CPU use with 1 MPI tasks x no OpenMP threads

MPI task timing breakdown:
Section |  min time  |  avg time  |  max time  |%varavg| %total
---------------------------------------------------------------
Pair    | 36.38      | 36.38      | 36.38      |   0.0 | 54.07
Neigh   | 29.817     | 29.817     | 29.817     |   0.0 | 44.32
Comm    | 0.41843    | 0.41843    | 0.41843    |   0.0 |  0.62
Output  | 0.00016499 | 0.00016499 | 0.00016499 |   0.0 |  0.00
Modify  | 0.50791    | 0.50791    | 0.50791    |   0.0 |  0.75
Other   |            | 0.1579     |            |       |  0.23

Nlocal:    19652 ave 19652 max 19652 min
Histogram: 1 0 0 0 0 0 0 0 0 0
Nghost:    19742 ave 19742 max 19742 min
Histogram: 1 0 0 0 0 0 0 0 0 0
Neighs:    1.7874e+06 ave 1.7874e+06 max 1.7874e+06 min
Histogram: 1 0 0 0 0 0 0 0 0 0

Total # of neighbors = 1787398
Ave neighs/atom = 90.9525
Neighbor list builds = 495
Dangerous builds not checked
Setting up Verlet run ...
  Unit style    : metal
  Current step  : 50495
  Time step     : 0.001
Per MPI rank memory allocation (min/avg/max) = 18.95 | 18.95 | 18.95 Mbytes
Step Temp Press TotEng PotEng Enthalpy 
   50495    2161.6182   -1136.2395   -71160.777   -76651.484   -71335.695 
   52000    2167.0663    1255.8051   -71161.133   -76665.678   -70968.095 
Loop time of 214.408 on 1 procs for 1505 steps with 19652 atoms

Performance: 0.606 ns/day, 39.573 hours/ns, 7.019 timesteps/s
99.4% CPU use with 1 MPI tasks x no OpenMP threads

MPI task timing breakdown:
Section |  min time  |  avg time  |  max time  |%varavg| %total
---------------------------------------------------------------
Pair    | 116.26     | 116.26     | 116.26     |   0.0 | 54.22
Neigh   | 93.59      | 93.59      | 93.59      |   0.0 | 43.65
Comm    | 1.3372     | 1.3372     | 1.3372     |   0.0 |  0.62
Output  | 1.1221     | 1.1221     | 1.1221     |   0.0 |  0.52
Modify  | 1.6058     | 1.6058     | 1.6058     |   0.0 |  0.75
Other   |            | 0.4913     |            |       |  0.23

Nlocal:    19652 ave 19652 max 19652 min
Histogram: 1 0 0 0 0 0 0 0 0 0
Nghost:    19879 ave 19879 max 19879 min
Histogram: 1 0 0 0 0 0 0 0 0 0
Neighs:    1.7895e+06 ave 1.7895e+06 max 1.7895e+06 min
Histogram: 1 0 0 0 0 0 0 0 0 0

Total # of neighbors = 1789504
Ave neighs/atom = 91.0596
Neighbor list builds = 1505
Dangerous builds not checked
Setting up Verlet run ...
  Unit style    : metal
  Current step  : 52000
  Time step     : 0.001
Per MPI rank memory allocation (min/avg/max) = 18.95 | 18.95 | 18.95 Mbytes
Step Temp Press TotEng PotEng Enthalpy 
   52000    2167.0663    1255.8051   -71161.133   -76665.678   -70968.095 
   52495     2107.643    169.95976   -71447.705    -76801.31   -71421.629 
Loop time of 67.0774 on 1 procs for 495 steps with 19652 atoms

Performance: 0.638 ns/day, 37.642 hours/ns, 7.380 timesteps/s
100.0% CPU use with 1 MPI tasks x no OpenMP threads

MPI task timing breakdown:
Section |  min time  |  avg time  |  max time  |%varavg| %total
---------------------------------------------------------------
Pair    | 36.241     | 36.241     | 36.241     |   0.0 | 54.03
Neigh   | 29.756     | 29.756     | 29.756     |   0.0 | 44.36
Comm    | 0.42794    | 0.42794    | 0.42794    |   0.0 |  0.64
Output  | 0.00015187 | 0.00015187 | 0.00015187 |   0.0 |  0.00
Modify  | 0.51071    | 0.51071    | 0.51071    |   0.0 |  0.76
Other   |            | 0.1418     |            |       |  0.21

Nlocal:    19652 ave 19652 max 19652 min
Histogram: 1 0 0 0 0 0 0 0 0 0
Nghost:    19784 ave 19784 max 19784 min
Histogram: 1 0 0 0 0 0 0 0 0 0
Neighs:    1.79247e+06 ave 1.79247e+06 max 1.79247e+06 min
Histogram: 1 0 0 0 0 0 0 0 0 0

Total # of neighbors = 1792468
Ave neighs/atom = 91.2105
Neighbor list builds = 495
Dangerous builds not checked
Setting up Verlet run ...
  Unit style    : metal
  Current step  : 52495
  Time step     : 0.001
Per MPI rank memory allocation (min/avg/max) = 18.95 | 18.95 | 18.95 Mbytes
Step Temp Press TotEng PotEng Enthalpy 
   52495     2107.643    169.95976   -71447.705    -76801.31   -71421.629 
   54000    2100.5351    508.26549   -71612.013   -76947.564   -71534.181 
Loop time of 214.09 on 1 procs for 1505 steps with 19652 atoms

Performance: 0.607 ns/day, 39.515 hours/ns, 7.030 timesteps/s
99.9% CPU use with 1 MPI tasks x no OpenMP threads

MPI task timing breakdown:
Section |  min time  |  avg time  |  max time  |%varavg| %total
---------------------------------------------------------------
Pair    | 116.12     | 116.12     | 116.12     |   0.0 | 54.24
Neigh   | 94.299     | 94.299     | 94.299     |   0.0 | 44.05
Comm    | 1.3228     | 1.3228     | 1.3228     |   0.0 |  0.62
Output  | 0.2643     | 0.2643     | 0.2643     |   0.0 |  0.12
Modify  | 1.6007     | 1.6007     | 1.6007     |   0.0 |  0.75
Other   |            | 0.4837     |            |       |  0.23

Nlocal:    19652 ave 19652 max 19652 min
Histogram: 1 0 0 0 0 0 0 0 0 0
Nghost:    19890 ave 19890 max 19890 min
Histogram: 1 0 0 0 0 0 0 0 0 0
Neighs:    1.79646e+06 ave 1.79646e+06 max 1.79646e+06 min
Histogram: 1 0 0 0 0 0 0 0 0 0

Total # of neighbors = 1796465
Ave neighs/atom = 91.4139
Neighbor list builds = 1505
Dangerous builds not checked
Setting up Verlet run ...
  Unit style    : metal
  Current step  : 54000
  Time step     : 0.001
Per MPI rank memory allocation (min/avg/max) = 18.95 | 18.95 | 18.95 Mbytes
Step Temp Press TotEng PotEng Enthalpy 
   54000    2100.5351    508.26549   -71612.013   -76947.564   -71534.181 
   54495    2069.0404    961.80334    -71788.34   -77043.892   -71641.369 
Loop time of 72.7399 on 1 procs for 495 steps with 19652 atoms

Performance: 0.588 ns/day, 40.819 hours/ns, 6.805 timesteps/s
99.9% CPU use with 1 MPI tasks x no OpenMP threads

MPI task timing breakdown:
Section |  min time  |  avg time  |  max time  |%varavg| %total
---------------------------------------------------------------
Pair    | 39.606     | 39.606     | 39.606     |   0.0 | 54.45
Neigh   | 31.959     | 31.959     | 31.959     |   0.0 | 43.94
Comm    | 0.46252    | 0.46252    | 0.46252    |   0.0 |  0.64
Output  | 0.00016093 | 0.00016093 | 0.00016093 |   0.0 |  0.00
Modify  | 0.55775    | 0.55775    | 0.55775    |   0.0 |  0.77
Other   |            | 0.1549     |            |       |  0.21

Nlocal:    19652 ave 19652 max 19652 min
Histogram: 1 0 0 0 0 0 0 0 0 0
Nghost:    19795 ave 19795 max 19795 min
Histogram: 1 0 0 0 0 0 0 0 0 0
Neighs:    1.79977e+06 ave 1.79977e+06 max 1.79977e+06 min
Histogram: 1 0 0 0 0 0 0 0 0 0

Total # of neighbors = 1799772
Ave neighs/atom = 91.5821
Neighbor list builds = 495
Dangerous builds not checked
Setting up Verlet run ...
  Unit style    : metal
  Current step  : 54495
  Time step     : 0.001
Per MPI rank memory allocation (min/avg/max) = 18.95 | 18.95 | 18.95 Mbytes
Step Temp Press TotEng PotEng Enthalpy 
   54495    2069.0404    961.80334    -71788.34   -77043.892   -71641.369 
   56000    2052.6103   -1393.6899   -71886.386   -77100.204   -72099.439 
Loop time of 205.585 on 1 procs for 1505 steps with 19652 atoms

Performance: 0.632 ns/day, 37.945 hours/ns, 7.321 timesteps/s
99.8% CPU use with 1 MPI tasks x no OpenMP threads

MPI task timing breakdown:
Section |  min time  |  avg time  |  max time  |%varavg| %total
---------------------------------------------------------------
Pair    | 110.7      | 110.7      | 110.7      |   0.0 | 53.84
Neigh   | 91.189     | 91.189     | 91.189     |   0.0 | 44.36
Comm    | 1.275      | 1.275      | 1.275      |   0.0 |  0.62
Output  | 0.41417    | 0.41417    | 0.41417    |   0.0 |  0.20
Modify  | 1.5413     | 1.5413     | 1.5413     |   0.0 |  0.75
Other   |            | 0.4685     |            |       |  0.23

Nlocal:    19652 ave 19652 max 19652 min
Histogram: 1 0 0 0 0 0 0 0 0 0
Nghost:    19861 ave 19861 max 19861 min
Histogram: 1 0 0 0 0 0 0 0 0 0
Neighs:    1.79943e+06 ave 1.79943e+06 max 1.79943e+06 min
Histogram: 1 0 0 0 0 0 0 0 0 0

Total # of neighbors = 1799426
Ave neighs/atom = 91.5645
Neighbor list builds = 1505
Dangerous builds not checked
Setting up Verlet run ...
  Unit style    : metal
  Current step  : 56000
  Time step     : 0.001
Per MPI rank memory allocation (min/avg/max) = 18.95 | 18.95 | 18.95 Mbytes
Step Temp Press TotEng PotEng Enthalpy 
   56000    2052.6103   -1393.6899   -71886.386   -77100.204   -72099.439 
   56495    2015.3126     -1640.44   -72153.563   -77272.641   -72403.821 
Loop time of 68.0138 on 1 procs for 495 steps with 19652 atoms

Performance: 0.629 ns/day, 38.167 hours/ns, 7.278 timesteps/s
99.9% CPU use with 1 MPI tasks x no OpenMP threads

MPI task timing breakdown:
Section |  min time  |  avg time  |  max time  |%varavg| %total
---------------------------------------------------------------
Pair    | 36.732     | 36.732     | 36.732     |   0.0 | 54.01
Neigh   | 30.195     | 30.195     | 30.195     |   0.0 | 44.39
Comm    | 0.41339    | 0.41339    | 0.41339    |   0.0 |  0.61
Output  | 0.000144   | 0.000144   | 0.000144   |   0.0 |  0.00
Modify  | 0.51527    | 0.51527    | 0.51527    |   0.0 |  0.76
Other   |            | 0.1585     |            |       |  0.23

Nlocal:    19652 ave 19652 max 19652 min
Histogram: 1 0 0 0 0 0 0 0 0 0
Nghost:    19931 ave 19931 max 19931 min
Histogram: 1 0 0 0 0 0 0 0 0 0
Neighs:    1.80201e+06 ave 1.80201e+06 max 1.80201e+06 min
Histogram: 1 0 0 0 0 0 0 0 0 0

Total # of neighbors = 1802014
Ave neighs/atom = 91.6962
Neighbor list builds = 495
Dangerous builds not checked
Setting up Verlet run ...
  Unit style    : metal
  Current step  : 56495
  Time step     : 0.001
Per MPI rank memory allocation (min/avg/max) = 18.95 | 18.95 | 18.95 Mbytes
Step Temp Press TotEng PotEng Enthalpy 
   56495    2015.3126     -1640.44   -72153.563   -77272.641   -72403.821 
   58000    1980.4941     1077.098   -72238.888   -77269.524   -72074.928 
Loop time of 207.132 on 1 procs for 1505 steps with 19652 atoms

Performance: 0.628 ns/day, 38.230 hours/ns, 7.266 timesteps/s
99.5% CPU use with 1 MPI tasks x no OpenMP threads

MPI task timing breakdown:
Section |  min time  |  avg time  |  max time  |%varavg| %total
---------------------------------------------------------------
Pair    | 111.18     | 111.18     | 111.18     |   0.0 | 53.68
Neigh   | 91.607     | 91.607     | 91.607     |   0.0 | 44.23
Comm    | 1.298      | 1.298      | 1.298      |   0.0 |  0.63
Output  | 1.0529     | 1.0529     | 1.0529     |   0.0 |  0.51
Modify  | 1.5583     | 1.5583     | 1.5583     |   0.0 |  0.75
Other   |            | 0.4347     |            |       |  0.21

Nlocal:    19652 ave 19652 max 19652 min
Histogram: 1 0 0 0 0 0 0 0 0 0
Nghost:    19851 ave 19851 max 19851 min
Histogram: 1 0 0 0 0 0 0 0 0 0
Neighs:    1.80585e+06 ave 1.80585e+06 max 1.80585e+06 min
Histogram: 1 0 0 0 0 0 0 0 0 0

Total # of neighbors = 1805846
Ave neighs/atom = 91.8912
Neighbor list builds = 1505
Dangerous builds not checked
Setting up Verlet run ...
  Unit style    : metal
  Current step  : 58000
  Time step     : 0.001
Per MPI rank memory allocation (min/avg/max) = 18.95 | 18.95 | 18.95 Mbytes
Step Temp Press TotEng PotEng Enthalpy 
   58000    1980.4941     1077.098   -72238.888   -77269.524   -72074.928 
   58495    1951.7572    1166.3286   -72503.341   -77460.982   -72326.256 
Loop time of 66.408 on 1 procs for 495 steps with 19652 atoms

Performance: 0.644 ns/day, 37.266 hours/ns, 7.454 timesteps/s
100.0% CPU use with 1 MPI tasks x no OpenMP threads

MPI task timing breakdown:
Section |  min time  |  avg time  |  max time  |%varavg| %total
---------------------------------------------------------------
Pair    | 35.954     | 35.954     | 35.954     |   0.0 | 54.14
Neigh   | 29.403     | 29.403     | 29.403     |   0.0 | 44.28
Comm    | 0.40603    | 0.40603    | 0.40603    |   0.0 |  0.61
Output  | 0.00012708 | 0.00012708 | 0.00012708 |   0.0 |  0.00
Modify  | 0.49635    | 0.49635    | 0.49635    |   0.0 |  0.75
Other   |            | 0.1489     |            |       |  0.22

Nlocal:    19652 ave 19652 max 19652 min
Histogram: 1 0 0 0 0 0 0 0 0 0
Nghost:    19907 ave 19907 max 19907 min
Histogram: 1 0 0 0 0 0 0 0 0 0
Neighs:    1.80984e+06 ave 1.80984e+06 max 1.80984e+06 min
Histogram: 1 0 0 0 0 0 0 0 0 0

Total # of neighbors = 1809843
Ave neighs/atom = 92.0946
Neighbor list builds = 495
Dangerous builds not checked
Setting up Verlet run ...
  Unit style    : metal
  Current step  : 58495
  Time step     : 0.001
Per MPI rank memory allocation (min/avg/max) = 18.95 | 18.95 | 18.95 Mbytes
Step Temp Press TotEng PotEng Enthalpy 
   58495    1951.7572    1166.3286   -72503.341   -77460.982   -72326.256 
   60000    1938.6454   -1956.1148   -72578.816   -77503.152   -72876.197 
Loop time of 198.133 on 1 procs for 1505 steps with 19652 atoms

Performance: 0.656 ns/day, 36.569 hours/ns, 7.596 timesteps/s
99.9% CPU use with 1 MPI tasks x no OpenMP threads

MPI task timing breakdown:
Section |  min time  |  avg time  |  max time  |%varavg| %total
---------------------------------------------------------------
Pair    | 106.44     | 106.44     | 106.44     |   0.0 | 53.72
Neigh   | 88.302     | 88.302     | 88.302     |   0.0 | 44.57
Comm    | 1.2371     | 1.2371     | 1.2371     |   0.0 |  0.62
Output  | 0.24518    | 0.24518    | 0.24518    |   0.0 |  0.12
Modify  | 1.491      | 1.491      | 1.491      |   0.0 |  0.75
Other   |            | 0.4201     |            |       |  0.21

Nlocal:    19652 ave 19652 max 19652 min
Histogram: 1 0 0 0 0 0 0 0 0 0
Nghost:    19947 ave 19947 max 19947 min
Histogram: 1 0 0 0 0 0 0 0 0 0
Neighs:    1.80759e+06 ave 1.80759e+06 max 1.80759e+06 min
Histogram: 1 0 0 0 0 0 0 0 0 0

Total # of neighbors = 1807588
Ave neighs/atom = 91.9798
Neighbor list builds = 1505
Dangerous builds not checked
Setting up Verlet run ...
  Unit style    : metal
  Current step  : 60000
  Time step     : 0.001
Per MPI rank memory allocation (min/avg/max) = 18.95 | 18.95 | 18.95 Mbytes
Step Temp Press TotEng PotEng Enthalpy 
   60000    1938.6454   -1956.1148   -72578.816   -77503.152   -72876.197 
   60495    1921.6638    -289.3531   -72784.873   -77666.074   -72828.724 
Loop time of 65.4687 on 1 procs for 495 steps with 19652 atoms

Performance: 0.653 ns/day, 36.739 hours/ns, 7.561 timesteps/s
100.0% CPU use with 1 MPI tasks x no OpenMP threads

MPI task timing breakdown:
Section |  min time  |  avg time  |  max time  |%varavg| %total
---------------------------------------------------------------
Pair    | 35.229     | 35.229     | 35.229     |   0.0 | 53.81
Neigh   | 29.193     | 29.193     | 29.193     |   0.0 | 44.59
Comm    | 0.41386    | 0.41386    | 0.41386    |   0.0 |  0.63
Output  | 0.00011992 | 0.00011992 | 0.00011992 |   0.0 |  0.00
Modify  | 0.49888    | 0.49888    | 0.49888    |   0.0 |  0.76
Other   |            | 0.1339     |            |       |  0.20

Nlocal:    19652 ave 19652 max 19652 min
Histogram: 1 0 0 0 0 0 0 0 0 0
Nghost:    20011 ave 20011 max 20011 min
Histogram: 1 0 0 0 0 0 0 0 0 0
Neighs:    1.81348e+06 ave 1.81348e+06 max 1.81348e+06 min
Histogram: 1 0 0 0 0 0 0 0 0 0

Total # of neighbors = 1813480
Ave neighs/atom = 92.2797
Neighbor list builds = 495
Dangerous builds not checked
Setting up Verlet run ...
  Unit style    : metal
  Current step  : 60495
  Time step     : 0.001
Per MPI rank memory allocation (min/avg/max) = 18.95 | 18.95 | 18.95 Mbytes
Step Temp Press TotEng PotEng Enthalpy 
   60495    1921.6638    -289.3531   -72784.873   -77666.074   -72828.724 
   62000    1884.4295    647.12354   -72954.443   -77741.066   -72856.548 
Loop time of 210.524 on 1 procs for 1505 steps with 19652 atoms

Performance: 0.618 ns/day, 38.856 hours/ns, 7.149 timesteps/s
99.8% CPU use with 1 MPI tasks x no OpenMP threads

MPI task timing breakdown:
Section |  min time  |  avg time  |  max time  |%varavg| %total
---------------------------------------------------------------
Pair    | 114.16     | 114.16     | 114.16     |   0.0 | 54.23
Neigh   | 92.706     | 92.706     | 92.706     |   0.0 | 44.04
Comm    | 1.3187     | 1.3187     | 1.3187     |   0.0 |  0.63
Output  | 0.28327    | 0.28327    | 0.28327    |   0.0 |  0.13
Modify  | 1.5997     | 1.5997     | 1.5997     |   0.0 |  0.76
Other   |            | 0.4554     |            |       |  0.22

Nlocal:    19652 ave 19652 max 19652 min
Histogram: 1 0 0 0 0 0 0 0 0 0
Nghost:    19956 ave 19956 max 19956 min
Histogram: 1 0 0 0 0 0 0 0 0 0
Neighs:    1.81564e+06 ave 1.81564e+06 max 1.81564e+06 min
Histogram: 1 0 0 0 0 0 0 0 0 0

Total # of neighbors = 1815643
Ave neighs/atom = 92.3897
Neighbor list builds = 1505
Dangerous builds not checked
Setting up Verlet run ...
  Unit style    : metal
  Current step  : 62000
  Time step     : 0.001
Per MPI rank memory allocation (min/avg/max) = 18.95 | 18.95 | 18.95 Mbytes
Step Temp Press TotEng PotEng Enthalpy 
   62000    1884.4295    647.12354   -72954.443   -77741.066   -72856.548 
   62495    1865.1738   -431.11481    -73199.82   -77937.532   -73264.884 
Loop time of 73.8566 on 1 procs for 495 steps with 19652 atoms

Performance: 0.579 ns/day, 41.446 hours/ns, 6.702 timesteps/s
100.0% CPU use with 1 MPI tasks x no OpenMP threads

MPI task timing breakdown:
Section |  min time  |  avg time  |  max time  |%varavg| %total
---------------------------------------------------------------
Pair    | 40.213     | 40.213     | 40.213     |   0.0 | 54.45
Neigh   | 32.452     | 32.452     | 32.452     |   0.0 | 43.94
Comm    | 0.44767    | 0.44767    | 0.44767    |   0.0 |  0.61
Output  | 0.00014901 | 0.00014901 | 0.00014901 |   0.0 |  0.00
Modify  | 0.57191    | 0.57191    | 0.57191    |   0.0 |  0.77
Other   |            | 0.1719     |            |       |  0.23

Nlocal:    19652 ave 19652 max 19652 min
Histogram: 1 0 0 0 0 0 0 0 0 0
Nghost:    20021 ave 20021 max 20021 min
Histogram: 1 0 0 0 0 0 0 0 0 0
Neighs:    1.82002e+06 ave 1.82002e+06 max 1.82002e+06 min
Histogram: 1 0 0 0 0 0 0 0 0 0

Total # of neighbors = 1820020
Ave neighs/atom = 92.6125
Neighbor list builds = 495
Dangerous builds not checked
Setting up Verlet run ...
  Unit style    : metal
  Current step  : 62495
  Time step     : 0.001
Per MPI rank memory allocation (min/avg/max) = 18.95 | 18.95 | 18.95 Mbytes
Step Temp Press TotEng PotEng Enthalpy 
   62495    1865.1738   -431.11481    -73199.82   -77937.532   -73264.884 
   64000    1869.0328    2670.7401   -73234.464   -77981.977   -72832.393 
Loop time of 213.867 on 1 procs for 1505 steps with 19652 atoms

Performance: 0.608 ns/day, 39.473 hours/ns, 7.037 timesteps/s
99.4% CPU use with 1 MPI tasks x no OpenMP threads

MPI task timing breakdown:
Section |  min time  |  avg time  |  max time  |%varavg| %total
---------------------------------------------------------------
Pair    | 115.67     | 115.67     | 115.67     |   0.0 | 54.08
Neigh   | 93.604     | 93.604     | 93.604     |   0.0 | 43.77
Comm    | 1.2891     | 1.2891     | 1.2891     |   0.0 |  0.60
Output  | 1.2187     | 1.2187     | 1.2187     |   0.0 |  0.57
Modify  | 1.6023     | 1.6023     | 1.6023     |   0.0 |  0.75
Other   |            | 0.4864     |            |       |  0.23

Nlocal:    19652 ave 19652 max 19652 min
Histogram: 1 0 0 0 0 0 0 0 0 0
Nghost:    19984 ave 19984 max 19984 min
Histogram: 1 0 0 0 0 0 0 0 0 0
Neighs:    1.82422e+06 ave 1.82422e+06 max 1.82422e+06 min
Histogram: 1 0 0 0 0 0 0 0 0 0

Total # of neighbors = 1824219
Ave neighs/atom = 92.8261
Neighbor list builds = 1505
Dangerous builds not checked
Setting up Verlet run ...
  Unit style    : metal
  Current step  : 64000
  Time step     : 0.001
Per MPI rank memory allocation (min/avg/max) = 18.95 | 18.95 | 18.95 Mbytes
Step Temp Press TotEng PotEng Enthalpy 
   64000    1869.0328    2670.7401   -73234.464   -77981.977   -72832.393 
   64495    1811.9613    868.18443   -73471.109   -78073.655   -73340.526 
Loop time of 70.3157 on 1 procs for 495 steps with 19652 atoms

Performance: 0.608 ns/day, 39.459 hours/ns, 7.040 timesteps/s
100.0% CPU use with 1 MPI tasks x no OpenMP threads

MPI task timing breakdown:
Section |  min time  |  avg time  |  max time  |%varavg| %total
---------------------------------------------------------------
Pair    | 38.569     | 38.569     | 38.569     |   0.0 | 54.85
Neigh   | 30.624     | 30.624     | 30.624     |   0.0 | 43.55
Comm    | 0.43103    | 0.43103    | 0.43103    |   0.0 |  0.61
Output  | 0.00013399 | 0.00013399 | 0.00013399 |   0.0 |  0.00
Modify  | 0.53249    | 0.53249    | 0.53249    |   0.0 |  0.76
Other   |            | 0.1593     |            |       |  0.23

Nlocal:    19652 ave 19652 max 19652 min
Histogram: 1 0 0 0 0 0 0 0 0 0
Nghost:    20003 ave 20003 max 20003 min
Histogram: 1 0 0 0 0 0 0 0 0 0
Neighs:    1.8252e+06 ave 1.8252e+06 max 1.8252e+06 min
Histogram: 1 0 0 0 0 0 0 0 0 0

Total # of neighbors = 1825202
Ave neighs/atom = 92.8761
Neighbor list builds = 495
Dangerous builds not checked
Setting up Verlet run ...
  Unit style    : metal
  Current step  : 64495
  Time step     : 0.001
Per MPI rank memory allocation (min/avg/max) = 18.95 | 18.95 | 18.95 Mbytes
Step Temp Press TotEng PotEng Enthalpy 
   64495    1811.9613    868.18443   -73471.109   -78073.655   -73340.526 
   66000    1794.6074   -22.598714   -73637.258   -78195.724   -73640.654 
Loop time of 205.588 on 1 procs for 1505 steps with 19652 atoms

Performance: 0.632 ns/day, 37.945 hours/ns, 7.320 timesteps/s
99.3% CPU use with 1 MPI tasks x no OpenMP threads

MPI task timing breakdown:
Section |  min time  |  avg time  |  max time  |%varavg| %total
---------------------------------------------------------------
Pair    | 110.93     | 110.93     | 110.93     |   0.0 | 53.96
Neigh   | 90.295     | 90.295     | 90.295     |   0.0 | 43.92
Comm    | 1.2569     | 1.2569     | 1.2569     |   0.0 |  0.61
Output  | 1.1096     | 1.1096     | 1.1096     |   0.0 |  0.54
Modify  | 1.5252     | 1.5252     | 1.5252     |   0.0 |  0.74
Other   |            | 0.4705     |            |       |  0.23

Nlocal:    19652 ave 19652 max 19652 min
Histogram: 1 0 0 0 0 0 0 0 0 0
Nghost:    19986 ave 19986 max 19986 min
Histogram: 1 0 0 0 0 0 0 0 0 0
Neighs:    1.82701e+06 ave 1.82701e+06 max 1.82701e+06 min
Histogram: 1 0 0 0 0 0 0 0 0 0

Total # of neighbors = 1827014
Ave neighs/atom = 92.9683
Neighbor list builds = 1505
Dangerous builds not checked
Setting up Verlet run ...
  Unit style    : metal
  Current step  : 66000
  Time step     : 0.001
Per MPI rank memory allocation (min/avg/max) = 18.95 | 18.95 | 18.95 Mbytes
Step Temp Press TotEng PotEng Enthalpy 
   66000    1794.6074   -22.598714   -73637.258   -78195.724   -73640.654 
   66495    1761.5899    1135.5578   -73802.852   -78277.451   -73632.498 
Loop time of 65.2201 on 1 procs for 495 steps with 19652 atoms

Performance: 0.656 ns/day, 36.599 hours/ns, 7.590 timesteps/s
100.0% CPU use with 1 MPI tasks x no OpenMP threads

MPI task timing breakdown:
Section |  min time  |  avg time  |  max time  |%varavg| %total
---------------------------------------------------------------
Pair    | 35.356     | 35.356     | 35.356     |   0.0 | 54.21
Neigh   | 28.829     | 28.829     | 28.829     |   0.0 | 44.20
Comm    | 0.39801    | 0.39801    | 0.39801    |   0.0 |  0.61
Output  | 0.00012684 | 0.00012684 | 0.00012684 |   0.0 |  0.00
Modify  | 0.48548    | 0.48548    | 0.48548    |   0.0 |  0.74
Other   |            | 0.1516     |            |       |  0.23

Nlocal:    19652 ave 19652 max 19652 min
Histogram: 1 0 0 0 0 0 0 0 0 0
Nghost:    20000 ave 20000 max 20000 min
Histogram: 1 0 0 0 0 0 0 0 0 0
Neighs:    1.8297e+06 ave 1.8297e+06 max 1.8297e+06 min
Histogram: 1 0 0 0 0 0 0 0 0 0

Total # of neighbors = 1829698
Ave neighs/atom = 93.1049
Neighbor list builds = 495
Dangerous builds not checked
Setting up Verlet run ...
  Unit style    : metal
  Current step  : 66495
  Time step     : 0.001
Per MPI rank memory allocation (min/avg/max) = 18.95 | 18.95 | 18.95 Mbytes
Step Temp Press TotEng PotEng Enthalpy 
   66495    1761.5899    1135.5578   -73802.852   -78277.451   -73632.498 
   68000    1754.6606    768.41061   -73953.985   -78410.983   -73838.928 
Loop time of 209.492 on 1 procs for 1505 steps with 19652 atoms

Performance: 0.621 ns/day, 38.666 hours/ns, 7.184 timesteps/s
99.7% CPU use with 1 MPI tasks x no OpenMP threads

MPI task timing breakdown:
Section |  min time  |  avg time  |  max time  |%varavg| %total
---------------------------------------------------------------
Pair    | 113.91     | 113.91     | 113.91     |   0.0 | 54.38
Neigh   | 92.146     | 92.146     | 92.146     |   0.0 | 43.99
Comm    | 1.3016     | 1.3016     | 1.3016     |   0.0 |  0.62
Output  | 0.082499   | 0.082499   | 0.082499   |   0.0 |  0.04
Modify  | 1.5653     | 1.5653     | 1.5653     |   0.0 |  0.75
Other   |            | 0.4852     |            |       |  0.23

Nlocal:    19652 ave 19652 max 19652 min
Histogram: 1 0 0 0 0 0 0 0 0 0
Nghost:    20012 ave 20012 max 20012 min
Histogram: 1 0 0 0 0 0 0 0 0 0
Neighs:    1.83271e+06 ave 1.83271e+06 max 1.83271e+06 min
Histogram: 1 0 0 0 0 0 0 0 0 0

Total # of neighbors = 1832706
Ave neighs/atom = 93.258
Neighbor list builds = 1505
Dangerous builds not checked
Setting up Verlet run ...
  Unit style    : metal
  Current step  : 68000
  Time step     : 0.001
Per MPI rank memory allocation (min/avg/max) = 18.95 | 18.95 | 18.95 Mbytes
Step Temp Press TotEng PotEng Enthalpy 
   68000    1754.6606    768.41061   -73953.985   -78410.983   -73838.928 
   68495    1718.2377   -693.90466   -74189.458   -78553.938   -74293.208 
Loop time of 74.5821 on 1 procs for 495 steps with 19652 atoms

Performance: 0.573 ns/day, 41.853 hours/ns, 6.637 timesteps/s
99.9% CPU use with 1 MPI tasks x no OpenMP threads

MPI task timing breakdown:
Section |  min time  |  avg time  |  max time  |%varavg| %total
---------------------------------------------------------------
Pair    | 41.04      | 41.04      | 41.04      |   0.0 | 55.03
Neigh   | 32.348     | 32.348     | 32.348     |   0.0 | 43.37
Comm    | 0.46142    | 0.46142    | 0.46142    |   0.0 |  0.62
Output  | 0.00017905 | 0.00017905 | 0.00017905 |   0.0 |  0.00
Modify  | 0.56236    | 0.56236    | 0.56236    |   0.0 |  0.75
Other   |            | 0.1701     |            |       |  0.23

Nlocal:    19652 ave 19652 max 19652 min
Histogram: 1 0 0 0 0 0 0 0 0 0
Nghost:    19979 ave 19979 max 19979 min
Histogram: 1 0 0 0 0 0 0 0 0 0
Neighs:    1.83485e+06 ave 1.83485e+06 max 1.83485e+06 min
Histogram: 1 0 0 0 0 0 0 0 0 0

Total # of neighbors = 1834846
Ave neighs/atom = 93.3669
Neighbor list builds = 495
Dangerous builds not checked
Setting up Verlet run ...
  Unit style    : metal
  Current step  : 68495
  Time step     : 0.001
Per MPI rank memory allocation (min/avg/max) = 18.95 | 18.95 | 18.95 Mbytes
Step Temp Press TotEng PotEng Enthalpy 
   68495    1718.2377   -693.90466   -74189.458   -78553.938   -74293.208 
   70000    1696.7623   -1748.2232   -74362.487   -78672.418    -74623.65 
Loop time of 227.449 on 1 procs for 1505 steps with 19652 atoms

Performance: 0.572 ns/day, 41.980 hours/ns, 6.617 timesteps/s
99.4% CPU use with 1 MPI tasks x no OpenMP threads

MPI task timing breakdown:
Section |  min time  |  avg time  |  max time  |%varavg| %total
---------------------------------------------------------------
Pair    | 124.35     | 124.35     | 124.35     |   0.0 | 54.67
Neigh   | 98.163     | 98.163     | 98.163     |   0.0 | 43.16
Comm    | 1.3912     | 1.3912     | 1.3912     |   0.0 |  0.61
Output  | 1.3103     | 1.3103     | 1.3103     |   0.0 |  0.58
Modify  | 1.7222     | 1.7222     | 1.7222     |   0.0 |  0.76
Other   |            | 0.5145     |            |       |  0.23

Nlocal:    19652 ave 19652 max 19652 min
Histogram: 1 0 0 0 0 0 0 0 0 0
Nghost:    20063 ave 20063 max 20063 min
Histogram: 1 0 0 0 0 0 0 0 0 0
Neighs:    1.83642e+06 ave 1.83642e+06 max 1.83642e+06 min
Histogram: 1 0 0 0 0 0 0 0 0 0

Total # of neighbors = 1836417
Ave neighs/atom = 93.4468
Neighbor list builds = 1505
Dangerous builds not checked
Setting up Verlet run ...
  Unit style    : metal
  Current step  : 70000
  Time step     : 0.001
Per MPI rank memory allocation (min/avg/max) = 18.95 | 18.95 | 18.95 Mbytes
Step Temp Press TotEng PotEng Enthalpy 
   70000    1696.7623   -1748.2232   -74362.487   -78672.418    -74623.65 
   70495    1674.1649     495.6699   -74498.603   -78751.134    -74424.76 
Loop time of 71.925 on 1 procs for 495 steps with 19652 atoms

Performance: 0.595 ns/day, 40.362 hours/ns, 6.882 timesteps/s
99.8% CPU use with 1 MPI tasks x no OpenMP threads

MPI task timing breakdown:
Section |  min time  |  avg time  |  max time  |%varavg| %total
---------------------------------------------------------------
Pair    | 39.506     | 39.506     | 39.506     |   0.0 | 54.93
Neigh   | 31.264     | 31.264     | 31.264     |   0.0 | 43.47
Comm    | 0.44469    | 0.44469    | 0.44469    |   0.0 |  0.62
Output  | 0.00014591 | 0.00014591 | 0.00014591 |   0.0 |  0.00
Modify  | 0.54488    | 0.54488    | 0.54488    |   0.0 |  0.76
Other   |            | 0.1658     |            |       |  0.23

Nlocal:    19652 ave 19652 max 19652 min
Histogram: 1 0 0 0 0 0 0 0 0 0
Nghost:    20094 ave 20094 max 20094 min
Histogram: 1 0 0 0 0 0 0 0 0 0
Neighs:    1.84091e+06 ave 1.84091e+06 max 1.84091e+06 min
Histogram: 1 0 0 0 0 0 0 0 0 0

Total # of neighbors = 1840909
Ave neighs/atom = 93.6754
Neighbor list builds = 495
Dangerous builds not checked
Setting up Verlet run ...
  Unit style    : metal
  Current step  : 70495
  Time step     : 0.001
Per MPI rank memory allocation (min/avg/max) = 18.95 | 18.95 | 18.95 Mbytes
Step Temp Press TotEng PotEng Enthalpy 
   70495    1674.1649     495.6699   -74498.603   -78751.134    -74424.76 
   72000    1657.0431    -441.8883   -74648.265   -78857.305   -74714.032 
Loop time of 224.434 on 1 procs for 1505 steps with 19652 atoms

Performance: 0.579 ns/day, 41.424 hours/ns, 6.706 timesteps/s
99.7% CPU use with 1 MPI tasks x no OpenMP threads

MPI task timing breakdown:
Section |  min time  |  avg time  |  max time  |%varavg| %total
---------------------------------------------------------------
Pair    | 123.25     | 123.25     | 123.25     |   0.0 | 54.92
Neigh   | 97.458     | 97.458     | 97.458     |   0.0 | 43.42
Comm    | 1.3861     | 1.3861     | 1.3861     |   0.0 |  0.62
Output  | 0.13725    | 0.13725    | 0.13725    |   0.0 |  0.06
Modify  | 1.694      | 1.694      | 1.694      |   0.0 |  0.75
Other   |            | 0.508      |            |       |  0.23

Nlocal:    19652 ave 19652 max 19652 min
Histogram: 1 0 0 0 0 0 0 0 0 0
Nghost:    20133 ave 20133 max 20133 min
Histogram: 1 0 0 0 0 0 0 0 0 0
Neighs:    1.84275e+06 ave 1.84275e+06 max 1.84275e+06 min
Histogram: 1 0 0 0 0 0 0 0 0 0

Total # of neighbors = 1842754
Ave neighs/atom = 93.7693
Neighbor list builds = 1505
Dangerous builds not checked
Setting up Verlet run ...
  Unit style    : metal
  Current step  : 72000
  Time step     : 0.001
Per MPI rank memory allocation (min/avg/max) = 18.95 | 18.95 | 18.95 Mbytes
Step Temp Press TotEng PotEng Enthalpy 
   72000    1657.0431    -441.8883   -74648.265   -78857.305   -74714.032 
   72495    1609.1468   -365.36385   -74884.444   -78971.824   -74938.724 
Loop time of 76.082 on 1 procs for 495 steps with 19652 atoms

Performance: 0.562 ns/day, 42.695 hours/ns, 6.506 timesteps/s
99.3% CPU use with 1 MPI tasks x no OpenMP threads

MPI task timing breakdown:
Section |  min time  |  avg time  |  max time  |%varavg| %total
---------------------------------------------------------------
Pair    | 42.164     | 42.164     | 42.164     |   0.0 | 55.42
Neigh   | 32.696     | 32.696     | 32.696     |   0.0 | 42.97
Comm    | 0.47381    | 0.47381    | 0.47381    |   0.0 |  0.62
Output  | 0.00013995 | 0.00013995 | 0.00013995 |   0.0 |  0.00
Modify  | 0.57373    | 0.57373    | 0.57373    |   0.0 |  0.75
Other   |            | 0.1745     |            |       |  0.23

Nlocal:    19652 ave 19652 max 19652 min
Histogram: 1 0 0 0 0 0 0 0 0 0
Nghost:    20074 ave 20074 max 20074 min
Histogram: 1 0 0 0 0 0 0 0 0 0
Neighs:    1.8453e+06 ave 1.8453e+06 max 1.8453e+06 min
Histogram: 1 0 0 0 0 0 0 0 0 0

Total # of neighbors = 1845302
Ave neighs/atom = 93.8989
Neighbor list builds = 495
Dangerous builds not checked
Setting up Verlet run ...
  Unit style    : metal
  Current step  : 72495
  Time step     : 0.001
Per MPI rank memory allocation (min/avg/max) = 18.95 | 18.95 | 18.95 Mbytes
Step Temp Press TotEng PotEng Enthalpy 
   72495    1609.1468   -365.36385   -74884.444   -78971.824   -74938.724 
   74000    1591.1269   -1557.1663   -75036.925   -79078.532   -75268.052 
Loop time of 228.225 on 1 procs for 1505 steps with 19652 atoms

Performance: 0.570 ns/day, 42.124 hours/ns, 6.594 timesteps/s
99.7% CPU use with 1 MPI tasks x no OpenMP threads

MPI task timing breakdown:
Section |  min time  |  avg time  |  max time  |%varavg| %total
---------------------------------------------------------------
Pair    | 125.87     | 125.87     | 125.87     |   0.0 | 55.15
Neigh   | 98.442     | 98.442     | 98.442     |   0.0 | 43.13
Comm    | 1.4274     | 1.4274     | 1.4274     |   0.0 |  0.63
Output  | 0.24805    | 0.24805    | 0.24805    |   0.0 |  0.11
Modify  | 1.719      | 1.719      | 1.719      |   0.0 |  0.75
Other   |            | 0.5237     |            |       |  0.23

Nlocal:    19652 ave 19652 max 19652 min
Histogram: 1 0 0 0 0 0 0 0 0 0
Nghost:    20110 ave 20110 max 20110 min
Histogram: 1 0 0 0 0 0 0 0 0 0
Neighs:    1.84714e+06 ave 1.84714e+06 max 1.84714e+06 min
Histogram: 1 0 0 0 0 0 0 0 0 0

Total # of neighbors = 1847138
Ave neighs/atom = 93.9924
Neighbor list builds = 1505
Dangerous builds not checked
Setting up Verlet run ...
  Unit style    : metal
  Current step  : 74000
  Time step     : 0.001
Per MPI rank memory allocation (min/avg/max) = 18.95 | 18.95 | 18.95 Mbytes
Step Temp Press TotEng PotEng Enthalpy 
   74000    1591.1269   -1557.1663   -75036.925   -79078.532   -75268.052 
   74495    1563.2019    261.53848   -75224.154   -79194.829    -75185.45 
Loop time of 75.9389 on 1 procs for 495 steps with 19652 atoms

Performance: 0.563 ns/day, 42.614 hours/ns, 6.518 timesteps/s
99.9% CPU use with 1 MPI tasks x no OpenMP threads

MPI task timing breakdown:
Section |  min time  |  avg time  |  max time  |%varavg| %total
---------------------------------------------------------------
Pair    | 42.09      | 42.09      | 42.09      |   0.0 | 55.43
Neigh   | 32.609     | 32.609     | 32.609     |   0.0 | 42.94
Comm    | 0.49476    | 0.49476    | 0.49476    |   0.0 |  0.65
Output  | 0.00013685 | 0.00013685 | 0.00013685 |   0.0 |  0.00
Modify  | 0.57444    | 0.57444    | 0.57444    |   0.0 |  0.76
Other   |            | 0.1711     |            |       |  0.23

Nlocal:    19652 ave 19652 max 19652 min
Histogram: 1 0 0 0 0 0 0 0 0 0
Nghost:    20139 ave 20139 max 20139 min
Histogram: 1 0 0 0 0 0 0 0 0 0
Neighs:    1.85275e+06 ave 1.85275e+06 max 1.85275e+06 min
Histogram: 1 0 0 0 0 0 0 0 0 0

Total # of neighbors = 1852748
Ave neighs/atom = 94.2778
Neighbor list builds = 495
Dangerous builds not checked
Setting up Verlet run ...
  Unit style    : metal
  Current step  : 74495
  Time step     : 0.001
Per MPI rank memory allocation (min/avg/max) = 18.95 | 18.95 | 18.95 Mbytes
Step Temp Press TotEng PotEng Enthalpy 
   74495    1563.2019    261.53848   -75224.154   -79194.829    -75185.45 
   76000    1546.9978   -242.19467   -75380.979   -79310.495   -75416.774 
Loop time of 246.986 on 1 procs for 1505 steps with 19652 atoms

Performance: 0.526 ns/day, 45.586 hours/ns, 6.093 timesteps/s
99.8% CPU use with 1 MPI tasks x no OpenMP threads

MPI task timing breakdown:
Section |  min time  |  avg time  |  max time  |%varavg| %total
---------------------------------------------------------------
Pair    | 136.89     | 136.89     | 136.89     |   0.0 | 55.42
Neigh   | 105.97     | 105.97     | 105.97     |   0.0 | 42.91
Comm    | 1.573      | 1.573      | 1.573      |   0.0 |  0.64
Output  | 0.091567   | 0.091567   | 0.091567   |   0.0 |  0.04
Modify  | 1.8957     | 1.8957     | 1.8957     |   0.0 |  0.77
Other   |            | 0.5638     |            |       |  0.23

Nlocal:    19652 ave 19652 max 19652 min
Histogram: 1 0 0 0 0 0 0 0 0 0
Nghost:    20091 ave 20091 max 20091 min
Histogram: 1 0 0 0 0 0 0 0 0 0
Neighs:    1.85426e+06 ave 1.85426e+06 max 1.85426e+06 min
Histogram: 1 0 0 0 0 0 0 0 0 0

Total # of neighbors = 1854264
Ave neighs/atom = 94.355
Neighbor list builds = 1505
Dangerous builds not checked
Setting up Verlet run ...
  Unit style    : metal
  Current step  : 76000
  Time step     : 0.001
Per MPI rank memory allocation (min/avg/max) = 18.95 | 18.95 | 18.95 Mbytes
Step Temp Press TotEng PotEng Enthalpy 
   76000    1546.9978   -242.19467   -75380.979   -79310.495   -75416.774 
   76495     1514.873   -1033.6141    -75599.26   -79447.176   -75751.841 
Loop time of 79.8929 on 1 procs for 495 steps with 19652 atoms

Performance: 0.535 ns/day, 44.833 hours/ns, 6.196 timesteps/s
100.0% CPU use with 1 MPI tasks x no OpenMP threads

MPI task timing breakdown:
Section |  min time  |  avg time  |  max time  |%varavg| %total
---------------------------------------------------------------
Pair    | 44.635     | 44.635     | 44.635     |   0.0 | 55.87
Neigh   | 33.951     | 33.951     | 33.951     |   0.0 | 42.50
Comm    | 0.50504    | 0.50504    | 0.50504    |   0.0 |  0.63
Output  | 0.00016809 | 0.00016809 | 0.00016809 |   0.0 |  0.00
Modify  | 0.61732    | 0.61732    | 0.61732    |   0.0 |  0.77
Other   |            | 0.1842     |            |       |  0.23

Nlocal:    19652 ave 19652 max 19652 min
Histogram: 1 0 0 0 0 0 0 0 0 0
Nghost:    20146 ave 20146 max 20146 min
Histogram: 1 0 0 0 0 0 0 0 0 0
Neighs:    1.85586e+06 ave 1.85586e+06 max 1.85586e+06 min
Histogram: 1 0 0 0 0 0 0 0 0 0

Total # of neighbors = 1855860
Ave neighs/atom = 94.4362
Neighbor list builds = 495
Dangerous builds not checked
Setting up Verlet run ...
  Unit style    : metal
  Current step  : 76495
  Time step     : 0.001
Per MPI rank memory allocation (min/avg/max) = 18.95 | 18.95 | 18.95 Mbytes
Step Temp Press TotEng PotEng Enthalpy 
   76495     1514.873   -1033.6141    -75599.26   -79447.176   -75751.841 
   78000    1509.3594   -1923.6693   -75703.564   -79537.474   -75987.181 
Loop time of 227.33 on 1 procs for 1505 steps with 19652 atoms

Performance: 0.572 ns/day, 41.958 hours/ns, 6.620 timesteps/s
100.0% CPU use with 1 MPI tasks x no OpenMP threads

MPI task timing breakdown:
Section |  min time  |  avg time  |  max time  |%varavg| %total
---------------------------------------------------------------
Pair    | 125.59     | 125.59     | 125.59     |   0.0 | 55.25
Neigh   | 98.003     | 98.003     | 98.003     |   0.0 | 43.11
Comm    | 1.4077     | 1.4077     | 1.4077     |   0.0 |  0.62
Output  | 0.077612   | 0.077612   | 0.077612   |   0.0 |  0.03
Modify  | 1.726      | 1.726      | 1.726      |   0.0 |  0.76
Other   |            | 0.5258     |            |       |  0.23

Nlocal:    19652 ave 19652 max 19652 min
Histogram: 1 0 0 0 0 0 0 0 0 0
Nghost:    20158 ave 20158 max 20158 min
Histogram: 1 0 0 0 0 0 0 0 0 0
Neighs:    1.85826e+06 ave 1.85826e+06 max 1.85826e+06 min
Histogram: 1 0 0 0 0 0 0 0 0 0

Total # of neighbors = 1858264
Ave neighs/atom = 94.5585
Neighbor list builds = 1505
Dangerous builds not checked
Setting up Verlet run ...
  Unit style    : metal
  Current step  : 78000
  Time step     : 0.001
Per MPI rank memory allocation (min/avg/max) = 18.95 | 18.95 | 18.95 Mbytes
Step Temp Press TotEng PotEng Enthalpy 
   78000    1509.3594   -1923.6693   -75703.564   -79537.474   -75987.181 
   78495    1468.2426    558.34195   -75926.965   -79656.435   -75844.879 
Loop time of 84.8386 on 1 procs for 495 steps with 19652 atoms

Performance: 0.504 ns/day, 47.609 hours/ns, 5.835 timesteps/s
99.5% CPU use with 1 MPI tasks x no OpenMP threads

MPI task timing breakdown:
Section |  min time  |  avg time  |  max time  |%varavg| %total
---------------------------------------------------------------
Pair    | 47.504     | 47.504     | 47.504     |   0.0 | 55.99
Neigh   | 35.925     | 35.925     | 35.925     |   0.0 | 42.35
Comm    | 0.54698    | 0.54698    | 0.54698    |   0.0 |  0.64
Output  | 0.00019288 | 0.00019288 | 0.00019288 |   0.0 |  0.00
Modify  | 0.66398    | 0.66398    | 0.66398    |   0.0 |  0.78
Other   |            | 0.1988     |            |       |  0.23

Nlocal:    19652 ave 19652 max 19652 min
Histogram: 1 0 0 0 0 0 0 0 0 0
Nghost:    20204 ave 20204 max 20204 min
Histogram: 1 0 0 0 0 0 0 0 0 0
Neighs:    1.86334e+06 ave 1.86334e+06 max 1.86334e+06 min
Histogram: 1 0 0 0 0 0 0 0 0 0

Total # of neighbors = 1863342
Ave neighs/atom = 94.8169
Neighbor list builds = 495
Dangerous builds not checked
Setting up Verlet run ...
  Unit style    : metal
  Current step  : 78495
  Time step     : 0.001
Per MPI rank memory allocation (min/avg/max) = 18.95 | 18.95 | 18.95 Mbytes
Step Temp Press TotEng PotEng Enthalpy 
   78495    1468.2426    558.34195   -75926.965   -79656.435   -75844.879 
   80000    1449.1062    3.3737603   -76104.779   -79785.641   -76104.284 
Loop time of 241.169 on 1 procs for 1505 steps with 19652 atoms

Performance: 0.539 ns/day, 44.513 hours/ns, 6.240 timesteps/s
99.2% CPU use with 1 MPI tasks x no OpenMP threads

MPI task timing breakdown:
Section |  min time  |  avg time  |  max time  |%varavg| %total
---------------------------------------------------------------
Pair    | 133.88     | 133.88     | 133.88     |   0.0 | 55.51
Neigh   | 103.33     | 103.33     | 103.33     |   0.0 | 42.85
Comm    | 1.501      | 1.501      | 1.501      |   0.0 |  0.62
Output  | 0.060905   | 0.060905   | 0.060905   |   0.0 |  0.03
Modify  | 1.8413     | 1.8413     | 1.8413     |   0.0 |  0.76
Other   |            | 0.5551     |            |       |  0.23

Nlocal:    19652 ave 19652 max 19652 min
Histogram: 1 0 0 0 0 0 0 0 0 0
Nghost:    20173 ave 20173 max 20173 min
Histogram: 1 0 0 0 0 0 0 0 0 0
Neighs:    1.86557e+06 ave 1.86557e+06 max 1.86557e+06 min
Histogram: 1 0 0 0 0 0 0 0 0 0

Total # of neighbors = 1865573
Ave neighs/atom = 94.9304
Neighbor list builds = 1505
Dangerous builds not checked
Setting up Verlet run ...
  Unit style    : metal
  Current step  : 80000
  Time step     : 0.001
Per MPI rank memory allocation (min/avg/max) = 18.95 | 18.95 | 18.95 Mbytes
Step Temp Press TotEng PotEng Enthalpy 
   80000    1449.1062    3.3737603   -76104.779   -79785.641   -76104.284 
   80495    1425.1167   -462.63166   -76282.568   -79902.494   -76350.361 
Loop time of 79.7033 on 1 procs for 495 steps with 19652 atoms

Performance: 0.537 ns/day, 44.727 hours/ns, 6.211 timesteps/s
100.0% CPU use with 1 MPI tasks x no OpenMP threads

MPI task timing breakdown:
Section |  min time  |  avg time  |  max time  |%varavg| %total
---------------------------------------------------------------
Pair    | 44.105     | 44.105     | 44.105     |   0.0 | 55.34
Neigh   | 34.298     | 34.298     | 34.298     |   0.0 | 43.03
Comm    | 0.49221    | 0.49221    | 0.49221    |   0.0 |  0.62
Output  | 0.00015402 | 0.00015402 | 0.00015402 |   0.0 |  0.00
Modify  | 0.62046    | 0.62046    | 0.62046    |   0.0 |  0.78
Other   |            | 0.1881     |            |       |  0.24

Nlocal:    19652 ave 19652 max 19652 min
Histogram: 1 0 0 0 0 0 0 0 0 0
Nghost:    20178 ave 20178 max 20178 min
Histogram: 1 0 0 0 0 0 0 0 0 0
Neighs:    1.86882e+06 ave 1.86882e+06 max 1.86882e+06 min
Histogram: 1 0 0 0 0 0 0 0 0 0

Total # of neighbors = 1868815
Ave neighs/atom = 95.0954
Neighbor list builds = 495
Dangerous builds not checked
Setting up Verlet run ...
  Unit style    : metal
  Current step  : 80495
  Time step     : 0.001
Per MPI rank memory allocation (min/avg/max) = 18.95 | 18.95 | 18.95 Mbytes
Step Temp Press TotEng PotEng Enthalpy 
   80495    1425.1167   -462.63166   -76282.568   -79902.494   -76350.361 
   82000    1406.9799   -1182.6709    -76411.17   -79985.028   -76584.377 
Loop time of 237 on 1 procs for 1505 steps with 19652 atoms

Performance: 0.549 ns/day, 43.743 hours/ns, 6.350 timesteps/s
99.9% CPU use with 1 MPI tasks x no OpenMP threads

MPI task timing breakdown:
Section |  min time  |  avg time  |  max time  |%varavg| %total
---------------------------------------------------------------
Pair    | 131.61     | 131.61     | 131.61     |   0.0 | 55.53
Neigh   | 101.46     | 101.46     | 101.46     |   0.0 | 42.81
Comm    | 1.4738     | 1.4738     | 1.4738     |   0.0 |  0.62
Output  | 0.081805   | 0.081805   | 0.081805   |   0.0 |  0.03
Modify  | 1.8234     | 1.8234     | 1.8234     |   0.0 |  0.77
Other   |            | 0.5496     |            |       |  0.23

Nlocal:    19652 ave 19652 max 19652 min
Histogram: 1 0 0 0 0 0 0 0 0 0
Nghost:    20170 ave 20170 max 20170 min
Histogram: 1 0 0 0 0 0 0 0 0 0
Neighs:    1.86951e+06 ave 1.86951e+06 max 1.86951e+06 min
Histogram: 1 0 0 0 0 0 0 0 0 0

Total # of neighbors = 1869508
Ave neighs/atom = 95.1307
Neighbor list builds = 1505
Dangerous builds not checked
Setting up Verlet run ...
  Unit style    : metal
  Current step  : 82000
  Time step     : 0.001
Per MPI rank memory allocation (min/avg/max) = 18.95 | 18.95 | 18.95 Mbytes
Step Temp Press TotEng PotEng Enthalpy 
   82000    1406.9799   -1182.6709    -76411.17   -79985.028   -76584.377 
   82495    1361.7308    640.83815    -76623.35    -80082.27   -76529.746 
Loop time of 75.7737 on 1 procs for 495 steps with 19652 atoms

Performance: 0.564 ns/day, 42.522 hours/ns, 6.533 timesteps/s
100.0% CPU use with 1 MPI tasks x no OpenMP threads

MPI task timing breakdown:
Section |  min time  |  avg time  |  max time  |%varavg| %total
---------------------------------------------------------------
Pair    | 42.082     | 42.082     | 42.082     |   0.0 | 55.54
Neigh   | 32.463     | 32.463     | 32.463     |   0.0 | 42.84
Comm    | 0.47025    | 0.47025    | 0.47025    |   0.0 |  0.62
Output  | 0.00019002 | 0.00019002 | 0.00019002 |   0.0 |  0.00
Modify  | 0.58277    | 0.58277    | 0.58277    |   0.0 |  0.77
Other   |            | 0.1756     |            |       |  0.23

Nlocal:    19652 ave 19652 max 19652 min
Histogram: 1 0 0 0 0 0 0 0 0 0
Nghost:    20285 ave 20285 max 20285 min
Histogram: 1 0 0 0 0 0 0 0 0 0
Neighs:    1.87387e+06 ave 1.87387e+06 max 1.87387e+06 min
Histogram: 1 0 0 0 0 0 0 0 0 0

Total # of neighbors = 1873871
Ave neighs/atom = 95.3527
Neighbor list builds = 495
Dangerous builds not checked
Setting up Verlet run ...
  Unit style    : metal
  Current step  : 82495
  Time step     : 0.001
Per MPI rank memory allocation (min/avg/max) = 18.95 | 18.95 | 18.95 Mbytes
Step Temp Press TotEng PotEng Enthalpy 
   82495    1361.7308    640.83815    -76623.35    -80082.27   -76529.746 
   84000    1367.3806   -1623.3549    -76709.27   -80182.541    -76946.34 
Loop time of 233.337 on 1 procs for 1505 steps with 19652 atoms

Performance: 0.557 ns/day, 43.067 hours/ns, 6.450 timesteps/s
100.0% CPU use with 1 MPI tasks x no OpenMP threads

MPI task timing breakdown:
Section |  min time  |  avg time  |  max time  |%varavg| %total
---------------------------------------------------------------
Pair    | 129.39     | 129.39     | 129.39     |   0.0 | 55.45
Neigh   | 100.11     | 100.11     | 100.11     |   0.0 | 42.90
Comm    | 1.4475     | 1.4475     | 1.4475     |   0.0 |  0.62
Output  | 0.081441   | 0.081441   | 0.081441   |   0.0 |  0.03
Modify  | 1.7819     | 1.7819     | 1.7819     |   0.0 |  0.76
Other   |            | 0.5338     |            |       |  0.23

Nlocal:    19652 ave 19652 max 19652 min
Histogram: 1 0 0 0 0 0 0 0 0 0
Nghost:    20282 ave 20282 max 20282 min
Histogram: 1 0 0 0 0 0 0 0 0 0
Neighs:    1.87426e+06 ave 1.87426e+06 max 1.87426e+06 min
Histogram: 1 0 0 0 0 0 0 0 0 0

Total # of neighbors = 1874258
Ave neighs/atom = 95.3724
Neighbor list builds = 1505
Dangerous builds not checked
Setting up Verlet run ...
  Unit style    : metal
  Current step  : 84000
  Time step     : 0.001
Per MPI rank memory allocation (min/avg/max) = 18.95 | 18.95 | 18.95 Mbytes
Step Temp Press TotEng PotEng Enthalpy 
   84000    1367.3806   -1623.3549    -76709.27   -80182.541    -76946.34 
   84495     1321.764    898.69544   -76983.077   -80340.478   -76852.322 
Loop time of 88.2163 on 1 procs for 495 steps with 19652 atoms

Performance: 0.485 ns/day, 49.504 hours/ns, 5.611 timesteps/s
98.3% CPU use with 1 MPI tasks x no OpenMP threads

MPI task timing breakdown:
Section |  min time  |  avg time  |  max time  |%varavg| %total
---------------------------------------------------------------
Pair    | 49.461     | 49.461     | 49.461     |   0.0 | 56.07
Neigh   | 37.325     | 37.325     | 37.325     |   0.0 | 42.31
Comm    | 0.55023    | 0.55023    | 0.55023    |   0.0 |  0.62
Output  | 0.00018501 | 0.00018501 | 0.00018501 |   0.0 |  0.00
Modify  | 0.68298    | 0.68298    | 0.68298    |   0.0 |  0.77
Other   |            | 0.1978     |            |       |  0.22

Nlocal:    19652 ave 19652 max 19652 min
Histogram: 1 0 0 0 0 0 0 0 0 0
Nghost:    20191 ave 20191 max 20191 min
Histogram: 1 0 0 0 0 0 0 0 0 0
Neighs:    1.88073e+06 ave 1.88073e+06 max 1.88073e+06 min
Histogram: 1 0 0 0 0 0 0 0 0 0

Total # of neighbors = 1880729
Ave neighs/atom = 95.7017
Neighbor list builds = 495
Dangerous builds not checked
Setting up Verlet run ...
  Unit style    : metal
  Current step  : 84495
  Time step     : 0.001
Per MPI rank memory allocation (min/avg/max) = 18.95 | 18.95 | 18.95 Mbytes
Step Temp Press TotEng PotEng Enthalpy 
   84495     1321.764    898.69544   -76983.077   -80340.478   -76852.322 
   86000    1297.9118    1072.3127   -77171.359   -80468.173   -77015.649 
Loop time of 239.097 on 1 procs for 1505 steps with 19652 atoms

Performance: 0.544 ns/day, 44.130 hours/ns, 6.295 timesteps/s
99.9% CPU use with 1 MPI tasks x no OpenMP threads

MPI task timing breakdown:
Section |  min time  |  avg time  |  max time  |%varavg| %total
---------------------------------------------------------------
Pair    | 132.83     | 132.83     | 132.83     |   0.0 | 55.56
Neigh   | 102.3      | 102.3      | 102.3      |   0.0 | 42.79
Comm    | 1.4977     | 1.4977     | 1.4977     |   0.0 |  0.63
Output  | 0.077128   | 0.077128   | 0.077128   |   0.0 |  0.03
Modify  | 1.8326     | 1.8326     | 1.8326     |   0.0 |  0.77
Other   |            | 0.5543     |            |       |  0.23

Nlocal:    19652 ave 19652 max 19652 min
Histogram: 1 0 0 0 0 0 0 0 0 0
Nghost:    20297 ave 20297 max 20297 min
Histogram: 1 0 0 0 0 0 0 0 0 0
Neighs:    1.88433e+06 ave 1.88433e+06 max 1.88433e+06 min
Histogram: 1 0 0 0 0 0 0 0 0 0

Total # of neighbors = 1884327
Ave neighs/atom = 95.8847
Neighbor list builds = 1505
Dangerous builds not checked
Setting up Verlet run ...
  Unit style    : metal
  Current step  : 86000
  Time step     : 0.001
Per MPI rank memory allocation (min/avg/max) = 18.95 | 18.95 | 18.95 Mbytes
Step Temp Press TotEng PotEng Enthalpy 
   86000    1297.9118    1072.3127   -77171.359   -80468.173   -77015.649 
   86495    1266.3459   -1957.7232   -77355.358   -80571.992   -77639.644 
Loop time of 82.398 on 1 procs for 495 steps with 19652 atoms

Performance: 0.519 ns/day, 46.239 hours/ns, 6.007 timesteps/s
100.0% CPU use with 1 MPI tasks x no OpenMP threads

MPI task timing breakdown:
Section |  min time  |  avg time  |  max time  |%varavg| %total
---------------------------------------------------------------
Pair    | 44.904     | 44.904     | 44.904     |   0.0 | 54.50
Neigh   | 36.221     | 36.221     | 36.221     |   0.0 | 43.96
Comm    | 0.48015    | 0.48015    | 0.48015    |   0.0 |  0.58
Output  | 0.00012016 | 0.00012016 | 0.00012016 |   0.0 |  0.00
Modify  | 0.60817    | 0.60817    | 0.60817    |   0.0 |  0.74
Other   |            | 0.185      |            |       |  0.22

Nlocal:    19652 ave 19652 max 19652 min
Histogram: 1 0 0 0 0 0 0 0 0 0
Nghost:    20325 ave 20325 max 20325 min
Histogram: 1 0 0 0 0 0 0 0 0 0
Neighs:    1.88348e+06 ave 1.88348e+06 max 1.88348e+06 min
Histogram: 1 0 0 0 0 0 0 0 0 0

Total # of neighbors = 1883484
Ave neighs/atom = 95.8418
Neighbor list builds = 495
Dangerous builds not checked
Setting up Verlet run ...
  Unit style    : metal
  Current step  : 86495
  Time step     : 0.001
Per MPI rank memory allocation (min/avg/max) = 18.95 | 18.95 | 18.95 Mbytes
Step Temp Press TotEng PotEng Enthalpy 
   86495    1266.3459   -1957.7232   -77355.358   -80571.992   -77639.644 
   88000     1247.998    471.18872   -77536.046   -80706.075   -77467.831 
Loop time of 238.908 on 1 procs for 1505 steps with 19652 atoms

Performance: 0.544 ns/day, 44.095 hours/ns, 6.300 timesteps/s
99.7% CPU use with 1 MPI tasks x no OpenMP threads

MPI task timing breakdown:
Section |  min time  |  avg time  |  max time  |%varavg| %total
---------------------------------------------------------------
Pair    | 125.22     | 125.22     | 125.22     |   0.0 | 52.42
Neigh   | 109.95     | 109.95     | 109.95     |   0.0 | 46.02
Comm    | 1.3715     | 1.3715     | 1.3715     |   0.0 |  0.57
Output  | 0.095911   | 0.095911   | 0.095911   |   0.0 |  0.04
Modify  | 1.7112     | 1.7112     | 1.7112     |   0.0 |  0.72
Other   |            | 0.552      |            |       |  0.23

Nlocal:    19652 ave 19652 max 19652 min
Histogram: 1 0 0 0 0 0 0 0 0 0
Nghost:    20364 ave 20364 max 20364 min
Histogram: 1 0 0 0 0 0 0 0 0 0
Neighs:    1.88897e+06 ave 1.88897e+06 max 1.88897e+06 min
Histogram: 1 0 0 0 0 0 0 0 0 0

Total # of neighbors = 1888970
Ave neighs/atom = 96.121
Neighbor list builds = 1505
Dangerous builds not checked
Setting up Verlet run ...
  Unit style    : metal
  Current step  : 88000
  Time step     : 0.001
Per MPI rank memory allocation (min/avg/max) = 18.95 | 18.95 | 18.95 Mbytes
Step Temp Press TotEng PotEng Enthalpy 
   88000     1247.998    471.18872   -77536.046   -80706.075   -77467.831 
   88495    1210.6104   -781.46122   -77722.427   -80797.488   -77835.474 
Loop time of 82.0877 on 1 procs for 495 steps with 19652 atoms

Performance: 0.521 ns/day, 46.065 hours/ns, 6.030 timesteps/s
99.8% CPU use with 1 MPI tasks x no OpenMP threads

MPI task timing breakdown:
Section |  min time  |  avg time  |  max time  |%varavg| %total
---------------------------------------------------------------
Pair    | 43.346     | 43.346     | 43.346     |   0.0 | 52.80
Neigh   | 37.48      | 37.48      | 37.48      |   0.0 | 45.66
Comm    | 0.4749     | 0.4749     | 0.4749     |   0.0 |  0.58
Output  | 0.00020099 | 0.00020099 | 0.00020099 |   0.0 |  0.00
Modify  | 0.60231    | 0.60231    | 0.60231    |   0.0 |  0.73
Other   |            | 0.184      |            |       |  0.22

Nlocal:    19652 ave 19652 max 19652 min
Histogram: 1 0 0 0 0 0 0 0 0 0
Nghost:    20331 ave 20331 max 20331 min
Histogram: 1 0 0 0 0 0 0 0 0 0
Neighs:    1.88924e+06 ave 1.88924e+06 max 1.88924e+06 min
Histogram: 1 0 0 0 0 0 0 0 0 0

Total # of neighbors = 1889241
Ave neighs/atom = 96.1348
Neighbor list builds = 495
Dangerous builds not checked
Setting up Verlet run ...
  Unit style    : metal
  Current step  : 88495
  Time step     : 0.001
Per MPI rank memory allocation (min/avg/max) = 18.95 | 18.95 | 18.95 Mbytes
Step Temp Press TotEng PotEng Enthalpy 
   88495    1210.6104   -781.46122   -77722.427   -80797.488   -77835.474 
   90000    1199.1741   -453.34668   -77873.063   -80919.075    -77938.51 
Loop time of 239.184 on 1 procs for 1505 steps with 19652 atoms

Performance: 0.544 ns/day, 44.146 hours/ns, 6.292 timesteps/s
99.9% CPU use with 1 MPI tasks x no OpenMP threads

MPI task timing breakdown:
Section |  min time  |  avg time  |  max time  |%varavg| %total
---------------------------------------------------------------
Pair    | 126.02     | 126.02     | 126.02     |   0.0 | 52.69
Neigh   | 109.46     | 109.46     | 109.46     |   0.0 | 45.76
Comm    | 1.3923     | 1.3923     | 1.3923     |   0.0 |  0.58
Output  | 0.058814   | 0.058814   | 0.058814   |   0.0 |  0.02
Modify  | 1.7201     | 1.7201     | 1.7201     |   0.0 |  0.72
Other   |            | 0.5332     |            |       |  0.22

Nlocal:    19652 ave 19652 max 19652 min
Histogram: 1 0 0 0 0 0 0 0 0 0
Nghost:    20327 ave 20327 max 20327 min
Histogram: 1 0 0 0 0 0 0 0 0 0
Neighs:    1.89322e+06 ave 1.89322e+06 max 1.89322e+06 min
Histogram: 1 0 0 0 0 0 0 0 0 0

Total # of neighbors = 1893216
Ave neighs/atom = 96.3371
Neighbor list builds = 1505
Dangerous builds not checked
Setting up Verlet run ...
  Unit style    : metal
  Current step  : 90000
  Time step     : 0.001
Per MPI rank memory allocation (min/avg/max) = 18.95 | 18.95 | 18.95 Mbytes
Step Temp Press TotEng PotEng Enthalpy 
   90000    1199.1741   -453.34668   -77873.063   -80919.075    -77938.51 
   90495     1170.313     290.9212   -78079.115   -81051.817   -78037.205 
Loop time of 87.0245 on 1 procs for 495 steps with 19652 atoms

Performance: 0.491 ns/day, 48.835 hours/ns, 5.688 timesteps/s
99.8% CPU use with 1 MPI tasks x no OpenMP threads

MPI task timing breakdown:
Section |  min time  |  avg time  |  max time  |%varavg| %total
---------------------------------------------------------------
Pair    | 46.227     | 46.227     | 46.227     |   0.0 | 53.12
Neigh   | 39.485     | 39.485     | 39.485     |   0.0 | 45.37
Comm    | 0.4995     | 0.4995     | 0.4995     |   0.0 |  0.57
Output  | 0.00017595 | 0.00017595 | 0.00017595 |   0.0 |  0.00
Modify  | 0.62346    | 0.62346    | 0.62346    |   0.0 |  0.72
Other   |            | 0.1898     |            |       |  0.22

Nlocal:    19652 ave 19652 max 19652 min
[...]
Setting up Verlet run ...
  Unit style    : metal
  Current step  : 120000
  Time step     : 0.001
Per MPI rank memory allocation (min/avg/max) = 19.34 | 19.34 | 19.34 Mbytes
Step Temp Press TotEng PotEng Enthalpy 
  120000    451.09365   -596.59026   -82631.236   -83777.055   -82713.977 
  120495    424.51978   -427.77263   -82795.874   -83874.193   -82855.122 
Loop time of 85.397 on 1 procs for 495 steps with 19652 atoms

Performance: 0.501 ns/day, 47.922 hours/ns, 5.796 timesteps/s
99.4% CPU use with 1 MPI tasks x no OpenMP threads

MPI task timing breakdown:
Section |  min time  |  avg time  |  max time  |%varavg| %total
---------------------------------------------------------------
Pair    | 45.537     | 45.537     | 45.537     |   0.0 | 53.32
Neigh   | 38.546     | 38.546     | 38.546     |   0.0 | 45.14
Comm    | 0.5022     | 0.5022     | 0.5022     |   0.0 |  0.59
Output  | 0.00013614 | 0.00013614 | 0.00013614 |   0.0 |  0.00
Modify  | 0.62273    | 0.62273    | 0.62273    |   0.0 |  0.73
Other   |            | 0.1897     |            |       |  0.22

Nlocal:    19652 ave 19652 max 19652 min
Histogram: 1 0 0 0 0 0 0 0 0 0
Nghost:    20687 ave 20687 max 20687 min
Histogram: 1 0 0 0 0 0 0 0 0 0
Neighs:    1.97104e+06 ave 1.97104e+06 max 1.97104e+06 min
Histogram: 1 0 0 0 0 0 0 0 0 0

Total # of neighbors = 1971040
Ave neighs/atom = 100.297
Neighbor list builds = 495
Dangerous builds not checked
Setting up Verlet run ...
  Unit style    : metal
  Current step  : 120495
  Time step     : 0.001
Per MPI rank memory allocation (min/avg/max) = 19.34 | 19.34 | 19.34 Mbytes
Step Temp Press TotEng PotEng Enthalpy 
  120495    424.51978   -427.77263   -82795.874   -83874.193   -82855.122 
  122000    400.37642    667.45596   -82910.782   -83927.775   -82818.476 
Loop time of 251.791 on 1 procs for 1505 steps with 19652 atoms

Performance: 0.516 ns/day, 46.473 hours/ns, 5.977 timesteps/s
99.7% CPU use with 1 MPI tasks x no OpenMP threads

MPI task timing breakdown:
Section |  min time  |  avg time  |  max time  |%varavg| %total
---------------------------------------------------------------
Pair    | 134.56     | 134.56     | 134.56     |   0.0 | 53.44
Neigh   | 113.25     | 113.25     | 113.25     |   0.0 | 44.98
Comm    | 1.4906     | 1.4906     | 1.4906     |   0.0 |  0.59
Output  | 0.096424   | 0.096424   | 0.096424   |   0.0 |  0.04
Modify  | 1.842      | 1.842      | 1.842      |   0.0 |  0.73
Other   |            | 0.5589     |            |       |  0.22

Nlocal:    19652 ave 19652 max 19652 min
Histogram: 1 0 0 0 0 0 0 0 0 0
Nghost:    20677 ave 20677 max 20677 min
Histogram: 1 0 0 0 0 0 0 0 0 0
Neighs:    1.97478e+06 ave 1.97478e+06 max 1.97478e+06 min
Histogram: 1 0 0 0 0 0 0 0 0 0

Total # of neighbors = 1974782
Ave neighs/atom = 100.488
Neighbor list builds = 1505
Dangerous builds not checked
Setting up Verlet run ...
  Unit style    : metal
  Current step  : 122000
  Time step     : 0.001
Per MPI rank memory allocation (min/avg/max) = 19.34 | 19.34 | 19.34 Mbytes
Step Temp Press TotEng PotEng Enthalpy 
  122000    400.37642    667.45596   -82910.782   -83927.775   -82818.476 
  122495    374.10495     751.5097   -83064.265   -84014.525   -82960.451 
Loop time of 74.6885 on 1 procs for 495 steps with 19652 atoms

Performance: 0.573 ns/day, 41.913 hours/ns, 6.628 timesteps/s
100.0% CPU use with 1 MPI tasks x no OpenMP threads

MPI task timing breakdown:
Section |  min time  |  avg time  |  max time  |%varavg| %total
---------------------------------------------------------------
Pair    | 39.575     | 39.575     | 39.575     |   0.0 | 52.99
Neigh   | 33.978     | 33.978     | 33.978     |   0.0 | 45.49
Comm    | 0.43186    | 0.43186    | 0.43186    |   0.0 |  0.58
Output  | 0.00013399 | 0.00013399 | 0.00013399 |   0.0 |  0.00
Modify  | 0.53564    | 0.53564    | 0.53564    |   0.0 |  0.72
Other   |            | 0.1674     |            |       |  0.22

Nlocal:    19652 ave 19652 max 19652 min
Histogram: 1 0 0 0 0 0 0 0 0 0
Nghost:    20674 ave 20674 max 20674 min
Histogram: 1 0 0 0 0 0 0 0 0 0
Neighs:    1.97691e+06 ave 1.97691e+06 max 1.97691e+06 min
Histogram: 1 0 0 0 0 0 0 0 0 0

Total # of neighbors = 1976908
Ave neighs/atom = 100.596
Neighbor list builds = 495
Dangerous builds not checked
Setting up Verlet run ...
  Unit style    : metal
  Current step  : 122495
  Time step     : 0.001
Per MPI rank memory allocation (min/avg/max) = 19.34 | 19.34 | 19.34 Mbytes
Step Temp Press TotEng PotEng Enthalpy 
  122495    374.10495     751.5097   -83064.265   -84014.525   -82960.451 
  124000     352.6663    1369.0783   -83180.664   -84076.469   -82991.759 
Loop time of 239.091 on 1 procs for 1505 steps with 19652 atoms

Performance: 0.544 ns/day, 44.129 hours/ns, 6.295 timesteps/s
99.8% CPU use with 1 MPI tasks x no OpenMP threads

MPI task timing breakdown:
Section |  min time  |  avg time  |  max time  |%varavg| %total
---------------------------------------------------------------
Pair    | 126.94     | 126.94     | 126.94     |   0.0 | 53.09
Neigh   | 108.35     | 108.35     | 108.35     |   0.0 | 45.32
Comm    | 1.3738     | 1.3738     | 1.3738     |   0.0 |  0.57
Output  | 0.1557     | 0.1557     | 0.1557     |   0.0 |  0.07
Modify  | 1.7267     | 1.7267     | 1.7267     |   0.0 |  0.72
Other   |            | 0.5383     |            |       |  0.23

Nlocal:    19652 ave 19652 max 19652 min
Histogram: 1 0 0 0 0 0 0 0 0 0
Nghost:    20713 ave 20713 max 20713 min
Histogram: 1 0 0 0 0 0 0 0 0 0
Neighs:    1.9791e+06 ave 1.9791e+06 max 1.9791e+06 min
Histogram: 1 0 0 0 0 0 0 0 0 0

Total # of neighbors = 1979100
Ave neighs/atom = 100.707
Neighbor list builds = 1505
Dangerous builds not checked
Setting up Verlet run ...
  Unit style    : metal
  Current step  : 124000
  Time step     : 0.001
Per MPI rank memory allocation (min/avg/max) = 19.34 | 19.34 | 19.34 Mbytes
Step Temp Press TotEng PotEng Enthalpy 
  124000     352.6663    1369.0783   -83180.664   -84076.469   -82991.759 
  124495    322.54653    1845.2183   -83328.592    -84147.89   -83074.315 
Loop time of 71.479 on 1 procs for 495 steps with 19652 atoms

Performance: 0.598 ns/day, 40.112 hours/ns, 6.925 timesteps/s
100.0% CPU use with 1 MPI tasks x no OpenMP threads

MPI task timing breakdown:
Section |  min time  |  avg time  |  max time  |%varavg| %total
---------------------------------------------------------------
Pair    | 37.896     | 37.896     | 37.896     |   0.0 | 53.02
Neigh   | 32.517     | 32.517     | 32.517     |   0.0 | 45.49
Comm    | 0.4058     | 0.4058     | 0.4058     |   0.0 |  0.57
Output  | 0.00012612 | 0.00012612 | 0.00012612 |   0.0 |  0.00
Modify  | 0.50143    | 0.50143    | 0.50143    |   0.0 |  0.70
Other   |            | 0.159      |            |       |  0.22

Nlocal:    19652 ave 19652 max 19652 min
Histogram: 1 0 0 0 0 0 0 0 0 0
Nghost:    20721 ave 20721 max 20721 min
Histogram: 1 0 0 0 0 0 0 0 0 0
Neighs:    1.9821e+06 ave 1.9821e+06 max 1.9821e+06 min
Histogram: 1 0 0 0 0 0 0 0 0 0

Total # of neighbors = 1982096
Ave neighs/atom = 100.86
Neighbor list builds = 495
Dangerous builds not checked
Setting up Verlet run ...
  Unit style    : metal
  Current step  : 124495
  Time step     : 0.001
Per MPI rank memory allocation (min/avg/max) = 19.34 | 19.34 | 19.34 Mbytes
Step Temp Press TotEng PotEng Enthalpy 
  124495    322.54653    1845.2183   -83328.592    -84147.89   -83074.315 
  126000    302.45329    1284.0529   -83444.566   -84212.824    -83267.71 
Loop time of 225.254 on 1 procs for 1505 steps with 19652 atoms

Performance: 0.577 ns/day, 41.575 hours/ns, 6.681 timesteps/s
99.7% CPU use with 1 MPI tasks x no OpenMP threads

MPI task timing breakdown:
Section |  min time  |  avg time  |  max time  |%varavg| %total
---------------------------------------------------------------
Pair    | 119.21     | 119.21     | 119.21     |   0.0 | 52.92
Neigh   | 102.33     | 102.33     | 102.33     |   0.0 | 45.43
Comm    | 1.2943     | 1.2943     | 1.2943     |   0.0 |  0.57
Output  | 0.31424    | 0.31424    | 0.31424    |   0.0 |  0.14
Modify  | 1.603      | 1.603      | 1.603      |   0.0 |  0.71
Other   |            | 0.5053     |            |       |  0.22

Nlocal:    19652 ave 19652 max 19652 min
Histogram: 1 0 0 0 0 0 0 0 0 0
Nghost:    20705 ave 20705 max 20705 min
Histogram: 1 0 0 0 0 0 0 0 0 0
Neighs:    1.98374e+06 ave 1.98374e+06 max 1.98374e+06 min
Histogram: 1 0 0 0 0 0 0 0 0 0

Total # of neighbors = 1983738
Ave neighs/atom = 100.943
Neighbor list builds = 1505
Dangerous builds not checked
Setting up Verlet run ...
  Unit style    : metal
  Current step  : 126000
  Time step     : 0.001
Per MPI rank memory allocation (min/avg/max) = 19.34 | 19.34 | 19.34 Mbytes
Step Temp Press TotEng PotEng Enthalpy 
  126000    302.45329    1284.0529   -83444.566   -84212.824    -83267.71 
  126495    274.73634   -141.18441   -83591.188   -84289.043   -83610.624 
Loop time of 75.6019 on 1 procs for 495 steps with 19652 atoms

Performance: 0.566 ns/day, 42.425 hours/ns, 6.547 timesteps/s
100.0% CPU use with 1 MPI tasks x no OpenMP threads

MPI task timing breakdown:
Section |  min time  |  avg time  |  max time  |%varavg| %total
---------------------------------------------------------------
Pair    | 40.167     | 40.167     | 40.167     |   0.0 | 53.13
Neigh   | 34.286     | 34.286     | 34.286     |   0.0 | 45.35
Comm    | 0.43582    | 0.43582    | 0.43582    |   0.0 |  0.58
Output  | 0.00018001 | 0.00018001 | 0.00018001 |   0.0 |  0.00
Modify  | 0.54217    | 0.54217    | 0.54217    |   0.0 |  0.72
Other   |            | 0.1702     |            |       |  0.23

Nlocal:    19652 ave 19652 max 19652 min
Histogram: 1 0 0 0 0 0 0 0 0 0
Nghost:    20732 ave 20732 max 20732 min
Histogram: 1 0 0 0 0 0 0 0 0 0
Neighs:    1.98441e+06 ave 1.98441e+06 max 1.98441e+06 min
Histogram: 1 0 0 0 0 0 0 0 0 0

Total # of neighbors = 1984411
Ave neighs/atom = 100.978
Neighbor list builds = 495
Dangerous builds not checked
Setting up Verlet run ...
  Unit style    : metal
  Current step  : 126495
  Time step     : 0.001
Per MPI rank memory allocation (min/avg/max) = 19.34 | 19.34 | 19.34 Mbytes
Step Temp Press TotEng PotEng Enthalpy 
  126495    274.73634   -141.18441   -83591.188   -84289.043   -83610.624 
  128000    250.04848   -57.912181   -83713.316   -84348.462   -83721.281 
Loop time of 272.842 on 1 procs for 1505 steps with 19652 atoms

Performance: 0.477 ns/day, 50.358 hours/ns, 5.516 timesteps/s
98.7% CPU use with 1 MPI tasks x no OpenMP threads

MPI task timing breakdown:
Section |  min time  |  avg time  |  max time  |%varavg| %total
---------------------------------------------------------------
Pair    | 146.79     | 146.79     | 146.79     |   0.0 | 53.80
Neigh   | 121.64     | 121.64     | 121.64     |   0.0 | 44.58
Comm    | 1.6384     | 1.6384     | 1.6384     |   0.0 |  0.60
Output  | 0.16558    | 0.16558    | 0.16558    |   0.0 |  0.06
Modify  | 2.009      | 2.009      | 2.009      |   0.0 |  0.74
Other   |            | 0.602      |            |       |  0.22

Nlocal:    19652 ave 19652 max 19652 min
Histogram: 1 0 0 0 0 0 0 0 0 0
Nghost:    20734 ave 20734 max 20734 min
Histogram: 1 0 0 0 0 0 0 0 0 0
Neighs:    1.98648e+06 ave 1.98648e+06 max 1.98648e+06 min
Histogram: 1 0 0 0 0 0 0 0 0 0

Total # of neighbors = 1986477
Ave neighs/atom = 101.083
Neighbor list builds = 1505
Dangerous builds not checked
Setting up Verlet run ...
  Unit style    : metal
  Current step  : 128000
  Time step     : 0.001
Per MPI rank memory allocation (min/avg/max) = 19.34 | 19.34 | 19.34 Mbytes
Step Temp Press TotEng PotEng Enthalpy 
  128000    250.04848   -57.912181   -83713.316   -84348.462   -83721.281 
  128495    223.39853    195.61807   -83851.019   -84418.472   -83824.143 
Loop time of 81.7596 on 1 procs for 495 steps with 19652 atoms

Performance: 0.523 ns/day, 45.881 hours/ns, 6.054 timesteps/s
100.0% CPU use with 1 MPI tasks x no OpenMP threads

MPI task timing breakdown:
Section |  min time  |  avg time  |  max time  |%varavg| %total
---------------------------------------------------------------
Pair    | 43.77      | 43.77      | 43.77      |   0.0 | 53.53
Neigh   | 36.729     | 36.729     | 36.729     |   0.0 | 44.92
Comm    | 0.47617    | 0.47617    | 0.47617    |   0.0 |  0.58
Output  | 0.00012279 | 0.00012279 | 0.00012279 |   0.0 |  0.00
Modify  | 0.59611    | 0.59611    | 0.59611    |   0.0 |  0.73
Other   |            | 0.1882     |            |       |  0.23

Nlocal:    19652 ave 19652 max 19652 min
Histogram: 1 0 0 0 0 0 0 0 0 0
Nghost:    20711 ave 20711 max 20711 min
Histogram: 1 0 0 0 0 0 0 0 0 0
Neighs:    1.98858e+06 ave 1.98858e+06 max 1.98858e+06 min
Histogram: 1 0 0 0 0 0 0 0 0 0

Total # of neighbors = 1988575
Ave neighs/atom = 101.189
Neighbor list builds = 495
Dangerous builds not checked
Setting up Verlet run ...
  Unit style    : metal
  Current step  : 128495
  Time step     : 0.001
Per MPI rank memory allocation (min/avg/max) = 19.34 | 19.34 | 19.34 Mbytes
Step Temp Press TotEng PotEng Enthalpy 
  128495    223.39853    195.61807   -83851.019   -84418.472   -83824.143 
  130000     200.5945   -361.43661   -83975.762   -84485.291   -84025.386 
Loop time of 260.621 on 1 procs for 1505 steps with 19652 atoms

Performance: 0.499 ns/day, 48.103 hours/ns, 5.775 timesteps/s
99.1% CPU use with 1 MPI tasks x no OpenMP threads

MPI task timing breakdown:
Section |  min time  |  avg time  |  max time  |%varavg| %total
---------------------------------------------------------------
Pair    | 140.23     | 140.23     | 140.23     |   0.0 | 53.81
Neigh   | 116.34     | 116.34     | 116.34     |   0.0 | 44.64
Comm    | 1.5014     | 1.5014     | 1.5014     |   0.0 |  0.58
Output  | 0.057143   | 0.057143   | 0.057143   |   0.0 |  0.02
Modify  | 1.892      | 1.892      | 1.892      |   0.0 |  0.73
Other   |            | 0.6051     |            |       |  0.23

Nlocal:    19652 ave 19652 max 19652 min
Histogram: 1 0 0 0 0 0 0 0 0 0
Nghost:    20757 ave 20757 max 20757 min
Histogram: 1 0 0 0 0 0 0 0 0 0
Neighs:    1.99017e+06 ave 1.99017e+06 max 1.99017e+06 min
Histogram: 1 0 0 0 0 0 0 0 0 0

Total # of neighbors = 1990168
Ave neighs/atom = 101.271
Neighbor list builds = 1505
Dangerous builds not checked
Setting up Verlet run ...
  Unit style    : metal
  Current step  : 130000
  Time step     : 0.001
Per MPI rank memory allocation (min/avg/max) = 19.34 | 19.34 | 19.34 Mbytes
Step Temp Press TotEng PotEng Enthalpy 
  130000     200.5945   -361.43661   -83975.762   -84485.291   -84025.386 
  130495    176.06626   -197.97482   -84106.434   -84553.658   -84133.588 
Loop time of 91.9218 on 1 procs for 495 steps with 19652 atoms

Performance: 0.465 ns/day, 51.584 hours/ns, 5.385 timesteps/s
99.2% CPU use with 1 MPI tasks x no OpenMP threads

MPI task timing breakdown:
Section |  min time  |  avg time  |  max time  |%varavg| %total
---------------------------------------------------------------
Pair    | 49.595     | 49.595     | 49.595     |   0.0 | 53.95
Neigh   | 40.884     | 40.884     | 40.884     |   0.0 | 44.48
Comm    | 0.54128    | 0.54128    | 0.54128    |   0.0 |  0.59
Output  | 0.00015593 | 0.00015593 | 0.00015593 |   0.0 |  0.00
Modify  | 0.69075    | 0.69075    | 0.69075    |   0.0 |  0.75
Other   |            | 0.2105     |            |       |  0.23

Nlocal:    19652 ave 19652 max 19652 min
Histogram: 1 0 0 0 0 0 0 0 0 0
Nghost:    20726 ave 20726 max 20726 min
Histogram: 1 0 0 0 0 0 0 0 0 0
Neighs:    1.99301e+06 ave 1.99301e+06 max 1.99301e+06 min
Histogram: 1 0 0 0 0 0 0 0 0 0

Total # of neighbors = 1993010
Ave neighs/atom = 101.415
Neighbor list builds = 495
Dangerous builds not checked
Setting up Verlet run ...
  Unit style    : metal
  Current step  : 130495
  Time step     : 0.001
Per MPI rank memory allocation (min/avg/max) = 19.34 | 19.34 | 19.34 Mbytes
Step Temp Press TotEng PotEng Enthalpy 
  130495    176.06626   -197.97482   -84106.434   -84553.658   -84133.588 
  132000    149.13524   -93.508694   -84240.257   -84619.074   -84253.069 
Loop time of 275.34 on 1 procs for 1505 steps with 19652 atoms

Performance: 0.472 ns/day, 50.819 hours/ns, 5.466 timesteps/s
99.3% CPU use with 1 MPI tasks x no OpenMP threads

MPI task timing breakdown:
Section |  min time  |  avg time  |  max time  |%varavg| %total
---------------------------------------------------------------
Pair    | 148.41     | 148.41     | 148.41     |   0.0 | 53.90
Neigh   | 122.4      | 122.4      | 122.4      |   0.0 | 44.46
Comm    | 1.6035     | 1.6035     | 1.6035     |   0.0 |  0.58
Output  | 0.25081    | 0.25081    | 0.25081    |   0.0 |  0.09
Modify  | 2.0394     | 2.0394     | 2.0394     |   0.0 |  0.74
Other   |            | 0.6288     |            |       |  0.23

Nlocal:    19652 ave 19652 max 19652 min
Histogram: 1 0 0 0 0 0 0 0 0 0
Nghost:    20753 ave 20753 max 20753 min
Histogram: 1 0 0 0 0 0 0 0 0 0
Neighs:    1.99512e+06 ave 1.99512e+06 max 1.99512e+06 min
Histogram: 1 0 0 0 0 0 0 0 0 0

Total # of neighbors = 1995120
Ave neighs/atom = 101.522
Neighbor list builds = 1505
Dangerous builds not checked
Setting up Verlet run ...
  Unit style    : metal
  Current step  : 132000
  Time step     : 0.001
Per MPI rank memory allocation (min/avg/max) = 19.34 | 19.34 | 19.34 Mbytes
Step Temp Press TotEng PotEng Enthalpy 
  132000    149.13524   -93.508694   -84240.257   -84619.074   -84253.069 
  132495    127.41864    -207.7902   -84359.416   -84683.071   -84387.861 
Loop time of 94.229 on 1 procs for 495 steps with 19652 atoms

Performance: 0.454 ns/day, 52.878 hours/ns, 5.253 timesteps/s
99.2% CPU use with 1 MPI tasks x no OpenMP threads

MPI task timing breakdown:
Section |  min time  |  avg time  |  max time  |%varavg| %total
---------------------------------------------------------------
Pair    | 51.403     | 51.403     | 51.403     |   0.0 | 54.55
Neigh   | 41.333     | 41.333     | 41.333     |   0.0 | 43.86
Comm    | 0.58188    | 0.58188    | 0.58188    |   0.0 |  0.62
Output  | 0.00016904 | 0.00016904 | 0.00016904 |   0.0 |  0.00
Modify  | 0.70311    | 0.70311    | 0.70311    |   0.0 |  0.75
Other   |            | 0.2082     |            |       |  0.22

Nlocal:    19652 ave 19652 max 19652 min
Histogram: 1 0 0 0 0 0 0 0 0 0
Nghost:    20782 ave 20782 max 20782 min
Histogram: 1 0 0 0 0 0 0 0 0 0
Neighs:    1.99728e+06 ave 1.99728e+06 max 1.99728e+06 min
Histogram: 1 0 0 0 0 0 0 0 0 0

Total # of neighbors = 1997285
Ave neighs/atom = 101.633
Neighbor list builds = 495
Dangerous builds not checked
Setting up Verlet run ...
  Unit style    : metal
  Current step  : 132495
  Time step     : 0.001
Per MPI rank memory allocation (min/avg/max) = 19.34 | 19.34 | 19.34 Mbytes
Step Temp Press TotEng PotEng Enthalpy 
  132495    127.41864    -207.7902   -84359.416   -84683.071   -84387.861 
  134000    99.811893    879.83951   -84500.647   -84754.178   -84380.372 
Loop time of 284.792 on 1 procs for 1505 steps with 19652 atoms

Performance: 0.457 ns/day, 52.564 hours/ns, 5.285 timesteps/s
98.9% CPU use with 1 MPI tasks x no OpenMP threads

MPI task timing breakdown:
Section |  min time  |  avg time  |  max time  |%varavg| %total
---------------------------------------------------------------
Pair    | 154.21     | 154.21     | 154.21     |   0.0 | 54.15
Neigh   | 125.99     | 125.99     | 125.99     |   0.0 | 44.24
Comm    | 1.6792     | 1.6792     | 1.6792     |   0.0 |  0.59
Output  | 0.14354    | 0.14354    | 0.14354    |   0.0 |  0.05
Modify  | 2.1195     | 2.1195     | 2.1195     |   0.0 |  0.74
Other   |            | 0.6468     |            |       |  0.23

Nlocal:    19652 ave 19652 max 19652 min
Histogram: 1 0 0 0 0 0 0 0 0 0
Nghost:    20799 ave 20799 max 20799 min
Histogram: 1 0 0 0 0 0 0 0 0 0
Neighs:    2.00009e+06 ave 2.00009e+06 max 2.00009e+06 min
Histogram: 1 0 0 0 0 0 0 0 0 0

Total # of neighbors = 2000088
Ave neighs/atom = 101.775
Neighbor list builds = 1505
Dangerous builds not checked
Total wall time: 5:58:36
