LAMMPS (12 Dec 2018)
Lattice spacing in x,y,z = 4 4 4
Created orthogonal box = (0 0 0) to (68 68 68)
  1 by 1 by 1 MPI processor grid
Created 19652 atoms
  Time spent = 0.00405622 secs
Setting atom values ...
  19480 settings made for type/fraction
Neighbor list info ...
  update every 1 steps, delay 0 steps, check no
  max neighbors/atom: 2000, page size: 100000
  master list distance cutoff = 8.5
  ghost atom cutoff = 8.5
  binsize = 4.25, bins = 16 16 16
  1 neighbor lists, perpetual/occasional/extra = 1 0 0
  (1) pair eam/alloy, perpetual
      attributes: half, newton on
      pair build: half/bin/atomonly/newton
      stencil: half/bin/3d/newton
      bin: standard
Setting up Verlet run ...
  Unit style    : metal
  Current step  : 0
  Time step     : 0.001
Per MPI rank memory allocation (min/avg/max) = 18.19 | 18.19 | 18.19 Mbytes
Step Temp Press TotEng PotEng Enthalpy Volume 
       0          300    58241.258   -55124.656   -55886.684   -43694.633       314432 
     667    148.11511    65183.408   -55124.605    -55500.83   -42332.163       314432 
    1000     153.7094    64912.742   -55124.607   -55515.043   -42385.284       314432 
Loop time of 148.58 on 1 procs for 1000 steps with 19652 atoms

Performance: 0.582 ns/day, 41.272 hours/ns, 6.730 timesteps/s
98.7% CPU use with 1 MPI tasks x no OpenMP threads

MPI task timing breakdown:
Section |  min time  |  avg time  |  max time  |%varavg| %total
---------------------------------------------------------------
Pair    | 84.07      | 84.07      | 84.07      |   0.0 | 56.58
Neigh   | 62.434     | 62.434     | 62.434     |   0.0 | 42.02
Comm    | 1.1217     | 1.1217     | 1.1217     |   0.0 |  0.75
Output  | 0.19268    | 0.19268    | 0.19268    |   0.0 |  0.13
Modify  | 0.3939     | 0.3939     | 0.3939     |   0.0 |  0.27
Other   |            | 0.3676     |            |       |  0.25

Nlocal:    19652 ave 19652 max 19652 min
Histogram: 1 0 0 0 0 0 0 0 0 0
Nghost:    20102 ave 20102 max 20102 min
Histogram: 1 0 0 0 0 0 0 0 0 0
Neighs:    1.57442e+06 ave 1.57442e+06 max 1.57442e+06 min
Histogram: 1 0 0 0 0 0 0 0 0 0

Total # of neighbors = 1574415
Ave neighs/atom = 80.1147
Neighbor list builds = 1000
Dangerous builds not checked
Setting up Verlet run ...
  Unit style    : metal
  Current step  : 1000
  Time step     : 0.001
Per MPI rank memory allocation (min/avg/max) = 18.19 | 18.19 | 18.19 Mbytes
Step Temp Press TotEng PotEng Enthalpy Volume 
    1000     153.7094    64912.742   -55124.607   -55515.043   -42385.284       314432 
    1334    174.37142   -49.485608    -55271.54   -55714.459   -55281.854    333928.94 
    2000    291.13568   -92.368719   -54649.399    -55388.91   -54668.804    336581.43 
Loop time of 156.687 on 1 procs for 1000 steps with 19652 atoms

Performance: 0.551 ns/day, 43.524 hours/ns, 6.382 timesteps/s
98.6% CPU use with 1 MPI tasks x no OpenMP threads

MPI task timing breakdown:
Section |  min time  |  avg time  |  max time  |%varavg| %total
---------------------------------------------------------------
Pair    | 87.263     | 87.263     | 87.263     |   0.0 | 55.69
Neigh   | 66.06      | 66.06      | 66.06      |   0.0 | 42.16
Comm    | 1.2108     | 1.2108     | 1.2108     |   0.0 |  0.77
Output  | 0.20092    | 0.20092    | 0.20092    |   0.0 |  0.13
Modify  | 1.5169     | 1.5169     | 1.5169     |   0.0 |  0.97
Other   |            | 0.4349     |            |       |  0.28

Nlocal:    19652 ave 19652 max 19652 min
Histogram: 1 0 0 0 0 0 0 0 0 0
Nghost:    20097 ave 20097 max 20097 min
Histogram: 1 0 0 0 0 0 0 0 0 0
Neighs:    1.41064e+06 ave 1.41064e+06 max 1.41064e+06 min
Histogram: 1 0 0 0 0 0 0 0 0 0

Total # of neighbors = 1410640
Ave neighs/atom = 71.781
Neighbor list builds = 1000
Dangerous builds not checked
Setting up Verlet run ...
  Unit style    : metal
  Current step  : 2000
  Time step     : 0.001
Per MPI rank memory allocation (min/avg/max) = 18.19 | 18.19 | 18.19 Mbytes
Step Temp Press TotEng PotEng Enthalpy Volume 
    2000    291.13568   -92.368719   -54649.399    -55388.91   -54668.804    336581.43 
    2001    290.98955   -84.500744   -54649.397   -55388.537   -54667.149    336581.41 
    2668    383.77515    -778.3296    -54163.65   -55138.474   -54328.331    338993.51 
    3335    571.49661    477.94909    -53125.95   -54577.604    -53023.46    343565.63 
    4002    790.74289    355.10601    -51833.27   -53841.829   -51755.563    350602.02 
    4669    987.47606   -934.50035    -50588.74    -53097.02   -50797.921    358634.67 
    5336    1183.9626    1453.0362   -49362.462   -52369.834   -49031.226    365233.34 
    6003    1341.3065   -236.81072   -47999.693   -51406.734    -48055.34    376485.16 
    6670    1513.1564    844.96662   -46264.137   -50107.692   -46057.558    391703.05 
    7337    1721.0082    34.836697   -44376.388   -48747.905   -44367.439    411538.99 
    8004    1914.3512    -481.0511   -43153.789   -48016.416   -43280.746    422839.64 
    8671    2092.0775   -1124.0065   -42027.555   -47341.623   -42332.216       434268 
    9338    2278.9057    840.09553   -40905.759   -46694.387   -40673.036    443835.44 
   10000    2435.1507    319.46895   -39867.701   -46053.205   -39776.806    455849.41 
Loop time of 1214.78 on 1 procs for 8000 steps with 19652 atoms

Performance: 0.569 ns/day, 42.180 hours/ns, 6.586 timesteps/s
98.7% CPU use with 1 MPI tasks x no OpenMP threads

MPI task timing breakdown:
Section |  min time  |  avg time  |  max time  |%varavg| %total
---------------------------------------------------------------
Pair    | 660.08     | 660.08     | 660.08     |   0.0 | 54.34
Neigh   | 527.79     | 527.79     | 527.79     |   0.0 | 43.45
Comm    | 9.6839     | 9.6839     | 9.6839     |   0.0 |  0.80
Output  | 1.6563     | 1.6563     | 1.6563     |   0.0 |  0.14
Modify  | 12.056     | 12.056     | 12.056     |   0.0 |  0.99
Other   |            | 3.509      |            |       |  0.29

Nlocal:    19652 ave 19652 max 19652 min
Histogram: 1 0 0 0 0 0 0 0 0 0
Nghost:    16181 ave 16181 max 16181 min
Histogram: 1 0 0 0 0 0 0 0 0 0
Neighs:    1.08458e+06 ave 1.08458e+06 max 1.08458e+06 min
Histogram: 1 0 0 0 0 0 0 0 0 0

Total # of neighbors = 1084577
Ave neighs/atom = 55.1891
Neighbor list builds = 8000
Dangerous builds not checked
Setting up Verlet run ...
  Unit style    : metal
  Current step  : 10000
  Time step     : 0.001
Per MPI rank memory allocation (min/avg/max) = 18.2 | 18.2 | 18.2 Mbytes
Step Temp Press TotEng PotEng Enthalpy Volume 
   10000    2435.1507    319.46895   -39867.701   -46053.205   -39776.806    455849.41 
   10005    2435.8176    301.73368    -39867.61   -46054.809   -39781.761    455849.78 
   10672     2466.044   -609.07643   -39575.049   -45839.026   -39750.411    461288.32 
   11339    2433.6366   -77.624465   -39747.355   -45929.013   -39769.558    458275.84 
   12006    2470.0188    360.65818   -39637.108    -45911.18   -39533.858    458671.77 
   12673    2452.2339    1167.1012   -39667.529   -45896.426   -39333.522    458518.74 
   13340      2449.29    1056.8233     -39747.6    -45969.02   -39446.041    457171.89 
   14007    2468.8426   -213.31497   -39628.526   -45899.611   -39689.645     459055.6 
   14674     2466.486   -1092.9021     -39583.2   -45848.299   -39897.611     460921.8 
   15341    2448.8411   -189.75606   -39674.462   -45894.742   -39728.946    460025.07 
   16008    2450.2547   -492.09628   -39678.867   -45902.738   -39820.214    460199.69 
   16675    2449.9075    589.86423   -39649.761   -45872.749   -39480.354    460139.35 
   17342    2433.3293    654.59099   -39708.848   -45889.726   -39521.349    458921.94 
   18009    2477.1396     294.6399   -39576.363   -45868.524   -39491.772    459986.77 
   18676    2451.0268    697.35714   -39590.579   -45816.411   -39390.277    460195.19 
   19343    2433.4031    16.964076    -39688.39   -45869.456   -39683.524    459623.98 
   20010    2454.8201     512.6561   -39790.201   -46025.668   -39644.057    456739.03 
   20677    2456.4712   -2.1811456   -39619.353   -45859.014    -39619.98    460239.79 
   21344    2440.3854    174.17682   -39637.029    -45835.83   -39587.035    459876.69 
   22011    2433.7491   -831.77727    -39622.52   -45804.465   -39861.869    461036.26 
   22678    2438.8823   -91.502472   -39779.886   -45974.869   -39806.043    457990.81 
   23345    2466.7065    31.958196   -39602.343   -45868.002   -39593.165    460122.35 
   24012    2422.8209    607.35149   -39806.254    -45960.44    -39632.85    457434.18 
   24679    2430.9887    -159.3419   -39665.473   -45840.406   -39711.243    460211.39 
   25346    2454.0776    396.48961   -39695.732   -45929.313   -39582.254    458554.58 
   26013    2464.7272    194.31607   -39704.272   -45964.904   -39648.699    458211.55 
   26680    2477.2192   -227.23429    -39581.99   -45874.353   -39647.261    460212.28 
   27347    2439.2428    939.15357   -39752.452   -45948.351   -39483.964    458034.11 
   28014     2438.568   -1107.3281   -39690.978   -45885.163   -40009.265    460524.36 
   28681    2447.1195    1200.8783   -39647.264   -45863.171   -39303.188    459056.43 
   29348    2454.9104   -206.30064   -39640.281   -45875.977   -39699.497    459884.96 
   30015    2454.3544    -933.3892   -39624.206    -45858.49   -39892.613    460724.67 
   30682    2441.1671   -14.150234   -39616.192   -45816.979    -39620.26    460634.91 
   31349    2451.8627    475.35255    -39728.41   -45956.365   -39592.561    457881.93 
   32016    2440.3059    689.98498   -39702.672   -45901.271   -39504.976     459057.9 
   32683    2451.2008    73.217341   -39587.657    -45813.93    -39566.58    461205.91 
   33350    2447.9028    554.01467   -39631.586   -45849.482   -39472.675    459562.02 
   34017    2439.5149     1251.733   -39709.372   -45905.962   -39351.231    458408.52 
   34684    2433.9718   -548.70397   -39697.903   -45880.413   -39855.403    459891.41 
   35351    2451.3563   -141.16463   -39654.324   -45880.993   -39694.822     459633.8 
   36018    2458.9073   -134.01923    -39668.82   -45914.668   -39707.233    459221.42 
   36685    2469.8445   -44.683382   -39658.639   -45932.269   -39671.441    459019.28 
   37352    2428.1639    -1206.204   -39670.622    -45838.38   -40017.931    461323.85 
   38019    2443.3122    193.26865   -39746.044   -45952.279   -39690.824    457763.61 
   38686     2457.903    145.22046   -39579.078   -45822.376   -39537.348    460401.14 
   39353    2446.6632   -543.55715   -39679.418   -45894.165   -39835.412    459806.04 
   40000    2453.6175    272.04358   -39707.443   -45939.855   -39629.606    458413.28 
Loop time of 3813.95 on 1 procs for 30000 steps with 19652 atoms

Performance: 0.680 ns/day, 35.314 hours/ns, 7.866 timesteps/s
98.3% CPU use with 1 MPI tasks x no OpenMP threads

MPI task timing breakdown:
Section |  min time  |  avg time  |  max time  |%varavg| %total
---------------------------------------------------------------
Pair    | 2022       | 2022       | 2022       |   0.0 | 53.02
Neigh   | 1696.2     | 1696.2     | 1696.2     |   0.0 | 44.47
Comm    | 31.851     | 31.851     | 31.851     |   0.0 |  0.84
Output  | 9.5611     | 9.5611     | 9.5611     |   0.0 |  0.25
Modify  | 42.657     | 42.657     | 42.657     |   0.0 |  1.12
Other   |            | 11.65      |            |       |  0.31

Nlocal:    19652 ave 19652 max 19652 min
Histogram: 1 0 0 0 0 0 0 0 0 0
Nghost:    15931 ave 15931 max 15931 min
Histogram: 1 0 0 0 0 0 0 0 0 0
Neighs:    1.07743e+06 ave 1.07743e+06 max 1.07743e+06 min
Histogram: 1 0 0 0 0 0 0 0 0 0

Total # of neighbors = 1077426
Ave neighs/atom = 54.8253
Neighbor list builds = 30000
Dangerous builds not checked
Setting up Verlet run ...
  Unit style    : metal
  Current step  : 40000
  Time step     : 0.001
Per MPI rank memory allocation (min/avg/max) = 18.2 | 18.2 | 18.2 Mbytes
Step Temp Press TotEng PotEng Enthalpy Volume 
   40000    2453.6175    272.04358   -39707.443   -45939.855   -39629.606    458413.28 
   40020     2448.961    355.34358   -39707.801   -45928.385   -39606.129    458418.75 
   40495    2419.1906   -289.64132   -39849.752   -45994.716   -39932.558    458049.55 
Loop time of 56.3524 on 1 procs for 495 steps with 19652 atoms

Performance: 0.759 ns/day, 31.623 hours/ns, 8.784 timesteps/s
99.0% CPU use with 1 MPI tasks x no OpenMP threads

MPI task timing breakdown:
Section |  min time  |  avg time  |  max time  |%varavg| %total
---------------------------------------------------------------
Pair    | 28.906     | 28.906     | 28.906     |   0.0 | 51.29
Neigh   | 25.759     | 25.759     | 25.759     |   0.0 | 45.71
Comm    | 0.4683     | 0.4683     | 0.4683     |   0.0 |  0.83
Output  | 0.37774    | 0.37774    | 0.37774    |   0.0 |  0.67
Modify  | 0.66789    | 0.66789    | 0.66789    |   0.0 |  1.19
Other   |            | 0.1743     |            |       |  0.31

Nlocal:    19652 ave 19652 max 19652 min
Histogram: 1 0 0 0 0 0 0 0 0 0
Nghost:    16042 ave 16042 max 16042 min
Histogram: 1 0 0 0 0 0 0 0 0 0
Neighs:    1.07835e+06 ave 1.07835e+06 max 1.07835e+06 min
Histogram: 1 0 0 0 0 0 0 0 0 0

Total # of neighbors = 1078346
Ave neighs/atom = 54.8721
Neighbor list builds = 495
Dangerous builds not checked
Setting up Verlet run ...
  Unit style    : metal
  Current step  : 40495
  Time step     : 0.001
Per MPI rank memory allocation (min/avg/max) = 18.2 | 18.2 | 18.2 Mbytes
Step Temp Press TotEng PotEng Enthalpy Volume 
   40495    2419.1906   -289.64132   -39849.752   -45994.716   -39932.558    458049.55 
   40667    2381.5958    251.25816   -39944.861   -45994.332   -39873.118    457476.27 
Loop time of 19.3318 on 1 procs for 172 steps with 19652 atoms

Performance: 0.769 ns/day, 31.221 hours/ns, 8.897 timesteps/s
98.4% CPU use with 1 MPI tasks x no OpenMP threads

MPI task timing breakdown:
Section |  min time  |  avg time  |  max time  |%varavg| %total
---------------------------------------------------------------
Pair    | 9.9808     | 9.9808     | 9.9808     |   0.0 | 51.63
Neigh   | 8.8956     | 8.8956     | 8.8956     |   0.0 | 46.02
Comm    | 0.16139    | 0.16139    | 0.16139    |   0.0 |  0.83
Output  | 0.00015807 | 0.00015807 | 0.00015807 |   0.0 |  0.00
Modify  | 0.23263    | 0.23263    | 0.23263    |   0.0 |  1.20
Other   |            | 0.06124    |            |       |  0.32

Nlocal:    19652 ave 19652 max 19652 min
Histogram: 1 0 0 0 0 0 0 0 0 0
Nghost:    16129 ave 16129 max 16129 min
Histogram: 1 0 0 0 0 0 0 0 0 0
Neighs:    1.07949e+06 ave 1.07949e+06 max 1.07949e+06 min
Histogram: 1 0 0 0 0 0 0 0 0 0

Total # of neighbors = 1079491
Ave neighs/atom = 54.9303
Neighbor list builds = 172
Dangerous builds not checked
Setting up Verlet run ...
  Unit style    : metal
  Current step  : 40667
  Time step     : 0.001
Per MPI rank memory allocation (min/avg/max) = 18.2 | 18.2 | 18.2 Mbytes
Step Temp Press TotEng PotEng Enthalpy Volume 
   40667    2381.5958    251.25816   -39944.861   -45994.332   -39873.118    457476.27 
   40687    2373.0914     523.4158   -39942.602   -45970.471   -39793.147    457483.85 
   41162    2364.1424   -39.202941   -40159.112   -46164.249   -40170.226    454207.72 
Loop time of 54.7663 on 1 procs for 495 steps with 19652 atoms

Performance: 0.781 ns/day, 30.733 hours/ns, 9.038 timesteps/s
98.1% CPU use with 1 MPI tasks x no OpenMP threads

MPI task timing breakdown:
Section |  min time  |  avg time  |  max time  |%varavg| %total
---------------------------------------------------------------
Pair    | 28.169     | 28.169     | 28.169     |   0.0 | 51.43
Neigh   | 25.172     | 25.172     | 25.172     |   0.0 | 45.96
Comm    | 0.46047    | 0.46047    | 0.46047    |   0.0 |  0.84
Output  | 0.13099    | 0.13099    | 0.13099    |   0.0 |  0.24
Modify  | 0.66321    | 0.66321    | 0.66321    |   0.0 |  1.21
Other   |            | 0.1711     |            |       |  0.31

Nlocal:    19652 ave 19652 max 19652 min
Histogram: 1 0 0 0 0 0 0 0 0 0
Nghost:    16190 ave 16190 max 16190 min
Histogram: 1 0 0 0 0 0 0 0 0 0
Neighs:    1.08802e+06 ave 1.08802e+06 max 1.08802e+06 min
Histogram: 1 0 0 0 0 0 0 0 0 0

Total # of neighbors = 1088022
Ave neighs/atom = 55.3644
Neighbor list builds = 495
Dangerous builds not checked
Setting up Verlet run ...
  Unit style    : metal
  Current step  : 41162
  Time step     : 0.001
Per MPI rank memory allocation (min/avg/max) = 18.2 | 18.2 | 18.2 Mbytes
Step Temp Press TotEng PotEng Enthalpy Volume 
   41162    2364.1424   -39.202941   -40159.112   -46164.249   -40170.226    454207.72 
   41334    2343.1843   -161.20451   -40254.946   -46206.847   -40300.602    453773.03 
Loop time of 20.0193 on 1 procs for 172 steps with 19652 atoms

Performance: 0.742 ns/day, 32.331 hours/ns, 8.592 timesteps/s
98.1% CPU use with 1 MPI tasks x no OpenMP threads

MPI task timing breakdown:
Section |  min time  |  avg time  |  max time  |%varavg| %total
---------------------------------------------------------------
Pair    | 10.381     | 10.381     | 10.381     |   0.0 | 51.86
Neigh   | 9.1618     | 9.1618     | 9.1618     |   0.0 | 45.77
Comm    | 0.16769    | 0.16769    | 0.16769    |   0.0 |  0.84
Output  | 0.00014114 | 0.00014114 | 0.00014114 |   0.0 |  0.00
Modify  | 0.24457    | 0.24457    | 0.24457    |   0.0 |  1.22
Other   |            | 0.06376    |            |       |  0.32

Nlocal:    19652 ave 19652 max 19652 min
Histogram: 1 0 0 0 0 0 0 0 0 0
Nghost:    16253 ave 16253 max 16253 min
Histogram: 1 0 0 0 0 0 0 0 0 0
Neighs:    1.08833e+06 ave 1.08833e+06 max 1.08833e+06 min
Histogram: 1 0 0 0 0 0 0 0 0 0

Total # of neighbors = 1088328
Ave neighs/atom = 55.38
Neighbor list builds = 172
Dangerous builds not checked
Setting up Verlet run ...
  Unit style    : metal
  Current step  : 41334
  Time step     : 0.001
Per MPI rank memory allocation (min/avg/max) = 18.2 | 18.2 | 18.2 Mbytes
Step Temp Press TotEng PotEng Enthalpy Volume 
   41334    2343.1843   -161.20451   -40254.946   -46206.847   -40300.602    453773.03 
   41354    2345.9772   -226.30211   -40254.445   -46213.441   -40318.539    453769.35 
   41829    2313.1999   -217.52675   -40434.566   -46310.304   -40495.972    452282.61 
Loop time of 52.4077 on 1 procs for 495 steps with 19652 atoms

Performance: 0.816 ns/day, 29.410 hours/ns, 9.445 timesteps/s
99.0% CPU use with 1 MPI tasks x no OpenMP threads

MPI task timing breakdown:
Section |  min time  |  avg time  |  max time  |%varavg| %total
---------------------------------------------------------------
Pair    | 26.926     | 26.926     | 26.926     |   0.0 | 51.38
Neigh   | 23.992     | 23.992     | 23.992     |   0.0 | 45.78
Comm    | 0.43149    | 0.43149    | 0.43149    |   0.0 |  0.82
Output  | 0.28749    | 0.28749    | 0.28749    |   0.0 |  0.55
Modify  | 0.61117    | 0.61117    | 0.61117    |   0.0 |  1.17
Other   |            | 0.1597     |            |       |  0.30

Nlocal:    19652 ave 19652 max 19652 min
Histogram: 1 0 0 0 0 0 0 0 0 0
Nghost:    16174 ave 16174 max 16174 min
Histogram: 1 0 0 0 0 0 0 0 0 0
Neighs:    1.09287e+06 ave 1.09287e+06 max 1.09287e+06 min
Histogram: 1 0 0 0 0 0 0 0 0 0

Total # of neighbors = 1092869
Ave neighs/atom = 55.6111
Neighbor list builds = 495
Dangerous builds not checked
Setting up Verlet run ...
  Unit style    : metal
  Current step  : 41829
  Time step     : 0.001
Per MPI rank memory allocation (min/avg/max) = 18.2 | 18.2 | 18.2 Mbytes
Step Temp Press TotEng PotEng Enthalpy Volume 
   41829    2313.1999   -217.52675   -40434.566   -46310.304   -40495.972    452282.61 
   42001    2290.3702   -58.916783   -40531.877   -46349.626   -40548.481    451525.26 
Loop time of 20.4425 on 1 procs for 172 steps with 19652 atoms

Performance: 0.727 ns/day, 33.014 hours/ns, 8.414 timesteps/s
99.4% CPU use with 1 MPI tasks x no OpenMP threads

MPI task timing breakdown:
Section |  min time  |  avg time  |  max time  |%varavg| %total
---------------------------------------------------------------
Pair    | 10.642     | 10.642     | 10.642     |   0.0 | 52.06
Neigh   | 9.3193     | 9.3193     | 9.3193     |   0.0 | 45.59
Comm    | 0.16959    | 0.16959    | 0.16959    |   0.0 |  0.83
Output  | 0.00013494 | 0.00013494 | 0.00013494 |   0.0 |  0.00
Modify  | 0.24785    | 0.24785    | 0.24785    |   0.0 |  1.21
Other   |            | 0.06376    |            |       |  0.31

Nlocal:    19652 ave 19652 max 19652 min
Histogram: 1 0 0 0 0 0 0 0 0 0
Nghost:    16279 ave 16279 max 16279 min
Histogram: 1 0 0 0 0 0 0 0 0 0
Neighs:    1.09466e+06 ave 1.09466e+06 max 1.09466e+06 min
Histogram: 1 0 0 0 0 0 0 0 0 0

Total # of neighbors = 1094657
Ave neighs/atom = 55.7021
Neighbor list builds = 172
Dangerous builds not checked
Setting up Verlet run ...
  Unit style    : metal
  Current step  : 42001
  Time step     : 0.001
Per MPI rank memory allocation (min/avg/max) = 18.2 | 18.2 | 18.2 Mbytes
Step Temp Press TotEng PotEng Enthalpy Volume 
   42001    2290.3702   -58.916783   -40531.877   -46349.626   -40548.481    451525.26 
   42021      2291.16   -118.69243   -40530.994   -46350.749   -40564.443    451523.85 
   42496    2268.8571    478.00342   -40816.179   -46579.283    -40683.07    446155.95 
Loop time of 55.3151 on 1 procs for 495 steps with 19652 atoms

Performance: 0.773 ns/day, 31.041 hours/ns, 8.949 timesteps/s
98.8% CPU use with 1 MPI tasks x no OpenMP threads

MPI task timing breakdown:
Section |  min time  |  avg time  |  max time  |%varavg| %total
---------------------------------------------------------------
Pair    | 28.215     | 28.215     | 28.215     |   0.0 | 51.01
Neigh   | 25.621     | 25.621     | 25.621     |   0.0 | 46.32
Comm    | 0.45241    | 0.45241    | 0.45241    |   0.0 |  0.82
Output  | 0.23707    | 0.23707    | 0.23707    |   0.0 |  0.43
Modify  | 0.62428    | 0.62428    | 0.62428    |   0.0 |  1.13
Other   |            | 0.1657     |            |       |  0.30

Nlocal:    19652 ave 19652 max 19652 min
Histogram: 1 0 0 0 0 0 0 0 0 0
Nghost:    16314 ave 16314 max 16314 min
Histogram: 1 0 0 0 0 0 0 0 0 0
Neighs:    1.10762e+06 ave 1.10762e+06 max 1.10762e+06 min
Histogram: 1 0 0 0 0 0 0 0 0 0

Total # of neighbors = 1107618
Ave neighs/atom = 56.3616
Neighbor list builds = 495
Dangerous builds not checked
Setting up Verlet run ...
  Unit style    : metal
  Current step  : 42496
  Time step     : 0.001
Per MPI rank memory allocation (min/avg/max) = 18.2 | 18.2 | 18.2 Mbytes
Step Temp Press TotEng PotEng Enthalpy Volume 
   42496    2268.8571    478.00342   -40816.179   -46579.283    -40683.07    446155.95 
   42668    2245.5648   -421.91067   -40910.621    -46614.56    -41028.14    446271.09 
Loop time of 18.8847 on 1 procs for 172 steps with 19652 atoms

Performance: 0.787 ns/day, 30.499 hours/ns, 9.108 timesteps/s
99.7% CPU use with 1 MPI tasks x no OpenMP threads

MPI task timing breakdown:
Section |  min time  |  avg time  |  max time  |%varavg| %total
---------------------------------------------------------------
Pair    | 9.5064     | 9.5064     | 9.5064     |   0.0 | 50.34
Neigh   | 8.9582     | 8.9582     | 8.9582     |   0.0 | 47.44
Comm    | 0.1513     | 0.1513     | 0.1513     |   0.0 |  0.80
Output  | 0.00014687 | 0.00014687 | 0.00014687 |   0.0 |  0.00
Modify  | 0.21247    | 0.21247    | 0.21247    |   0.0 |  1.13
Other   |            | 0.05621    |            |       |  0.30

Nlocal:    19652 ave 19652 max 19652 min
Histogram: 1 0 0 0 0 0 0 0 0 0
Nghost:    16362 ave 16362 max 16362 min
Histogram: 1 0 0 0 0 0 0 0 0 0
Neighs:    1.10759e+06 ave 1.10759e+06 max 1.10759e+06 min
Histogram: 1 0 0 0 0 0 0 0 0 0

Total # of neighbors = 1107592
Ave neighs/atom = 56.3603
Neighbor list builds = 172
Dangerous builds not checked
Setting up Verlet run ...
  Unit style    : metal
  Current step  : 42668
  Time step     : 0.001
Per MPI rank memory allocation (min/avg/max) = 18.2 | 18.2 | 18.2 Mbytes
Step Temp Press TotEng PotEng Enthalpy Volume 
   42668    2245.5648   -421.91067   -40910.621    -46614.56    -41028.14    446271.09 
   42688    2254.2665   -646.56114   -40910.503   -46636.546   -41090.593    446261.66 
   43163    2217.8541   -260.64921   -41131.567   -46765.118   -41203.725    443544.93 
Loop time of 57.8339 on 1 procs for 495 steps with 19652 atoms

Performance: 0.739 ns/day, 32.454 hours/ns, 8.559 timesteps/s
99.0% CPU use with 1 MPI tasks x no OpenMP threads

MPI task timing breakdown:
Section |  min time  |  avg time  |  max time  |%varavg| %total
---------------------------------------------------------------
Pair    | 29.136     | 29.136     | 29.136     |   0.0 | 50.38
Neigh   | 27.283     | 27.283     | 27.283     |   0.0 | 47.17
Comm    | 0.472      | 0.472      | 0.472      |   0.0 |  0.82
Output  | 0.1258     | 0.1258     | 0.1258     |   0.0 |  0.22
Modify  | 0.64654    | 0.64654    | 0.64654    |   0.0 |  1.12
Other   |            | 0.1703     |            |       |  0.29

Nlocal:    19652 ave 19652 max 19652 min
Histogram: 1 0 0 0 0 0 0 0 0 0
Nghost:    16351 ave 16351 max 16351 min
Histogram: 1 0 0 0 0 0 0 0 0 0
Neighs:    1.115e+06 ave 1.115e+06 max 1.115e+06 min
Histogram: 1 0 0 0 0 0 0 0 0 0

Total # of neighbors = 1114997
Ave neighs/atom = 56.7371
Neighbor list builds = 495
Dangerous builds not checked
Setting up Verlet run ...
  Unit style    : metal
  Current step  : 43163
  Time step     : 0.001
Per MPI rank memory allocation (min/avg/max) = 18.2 | 18.2 | 18.2 Mbytes
Step Temp Press TotEng PotEng Enthalpy Volume 
   43163    2217.8541   -260.64921   -41131.567   -46765.118   -41203.725    443544.93 
   43335    2203.6467     -637.276   -41214.062   -46811.525   -41390.254    442965.02 
Loop time of 20.4565 on 1 procs for 172 steps with 19652 atoms

Performance: 0.726 ns/day, 33.037 hours/ns, 8.408 timesteps/s
99.0% CPU use with 1 MPI tasks x no OpenMP threads

MPI task timing breakdown:
Section |  min time  |  avg time  |  max time  |%varavg| %total
---------------------------------------------------------------
Pair    | 10.26      | 10.26      | 10.26      |   0.0 | 50.15
Neigh   | 9.7203     | 9.7203     | 9.7203     |   0.0 | 47.52
Comm    | 0.16511    | 0.16511    | 0.16511    |   0.0 |  0.81
Output  | 0.00013494 | 0.00013494 | 0.00013494 |   0.0 |  0.00
Modify  | 0.24779    | 0.24779    | 0.24779    |   0.0 |  1.21
Other   |            | 0.06363    |            |       |  0.31

Nlocal:    19652 ave 19652 max 19652 min
Histogram: 1 0 0 0 0 0 0 0 0 0
Nghost:    16318 ave 16318 max 16318 min
Histogram: 1 0 0 0 0 0 0 0 0 0
Neighs:    1.11583e+06 ave 1.11583e+06 max 1.11583e+06 min
Histogram: 1 0 0 0 0 0 0 0 0 0

Total # of neighbors = 1115828
Ave neighs/atom = 56.7794
Neighbor list builds = 172
Dangerous builds not checked
Setting up Verlet run ...
  Unit style    : metal
  Current step  : 43335
  Time step     : 0.001
Per MPI rank memory allocation (min/avg/max) = 18.2 | 18.2 | 18.2 Mbytes
Step Temp Press TotEng PotEng Enthalpy Volume 
   43335    2203.6467     -637.276   -41214.062   -46811.525   -41390.254    442965.02 
   43355    2205.5367   -621.88217   -41214.731   -46816.996   -41386.662     442951.8 
   43830    2160.3355    234.91228   -41429.215   -46916.664   -41364.614    440600.49 
Loop time of 61.7529 on 1 procs for 495 steps with 19652 atoms

Performance: 0.693 ns/day, 34.654 hours/ns, 8.016 timesteps/s
99.3% CPU use with 1 MPI tasks x no OpenMP threads

MPI task timing breakdown:
Section |  min time  |  avg time  |  max time  |%varavg| %total
---------------------------------------------------------------
Pair    | 31.362     | 31.362     | 31.362     |   0.0 | 50.79
Neigh   | 28.948     | 28.948     | 28.948     |   0.0 | 46.88
Comm    | 0.49763    | 0.49763    | 0.49763    |   0.0 |  0.81
Output  | 0.068514   | 0.068514   | 0.068514   |   0.0 |  0.11
Modify  | 0.6932     | 0.6932     | 0.6932     |   0.0 |  1.12
Other   |            | 0.1835     |            |       |  0.30

Nlocal:    19652 ave 19652 max 19652 min
Histogram: 1 0 0 0 0 0 0 0 0 0
Nghost:    16383 ave 16383 max 16383 min
Histogram: 1 0 0 0 0 0 0 0 0 0
Neighs:    1.1223e+06 ave 1.1223e+06 max 1.1223e+06 min
Histogram: 1 0 0 0 0 0 0 0 0 0

Total # of neighbors = 1122302
Ave neighs/atom = 57.1088
Neighbor list builds = 495
Dangerous builds not checked
Setting up Verlet run ...
  Unit style    : metal
  Current step  : 43830
  Time step     : 0.001
Per MPI rank memory allocation (min/avg/max) = 18.2 | 18.2 | 18.2 Mbytes
Step Temp Press TotEng PotEng Enthalpy Volume 
   43830    2160.3355    234.91228   -41429.215   -46916.664   -41364.614    440600.49 
   44002    2155.3637   -1082.3157   -41513.668   -46988.488   -41810.997    440143.06 
Loop time of 18.8487 on 1 procs for 172 steps with 19652 atoms

Performance: 0.788 ns/day, 30.440 hours/ns, 9.125 timesteps/s
98.5% CPU use with 1 MPI tasks x no OpenMP threads

MPI task timing breakdown:
Section |  min time  |  avg time  |  max time  |%varavg| %total
---------------------------------------------------------------
Pair    | 9.476      | 9.476      | 9.476      |   0.0 | 50.27
Neigh   | 8.9573     | 8.9573     | 8.9573     |   0.0 | 47.52
Comm    | 0.15123    | 0.15123    | 0.15123    |   0.0 |  0.80
Output  | 0.00012803 | 0.00012803 | 0.00012803 |   0.0 |  0.00
Modify  | 0.20957    | 0.20957    | 0.20957    |   0.0 |  1.11
Other   |            | 0.05445    |            |       |  0.29

Nlocal:    19652 ave 19652 max 19652 min
Histogram: 1 0 0 0 0 0 0 0 0 0
Nghost:    16381 ave 16381 max 16381 min
Histogram: 1 0 0 0 0 0 0 0 0 0
Neighs:    1.12334e+06 ave 1.12334e+06 max 1.12334e+06 min
Histogram: 1 0 0 0 0 0 0 0 0 0

Total # of neighbors = 1123337
Ave neighs/atom = 57.1615
Neighbor list builds = 172
Dangerous builds not checked
Setting up Verlet run ...
  Unit style    : metal
  Current step  : 44002
  Time step     : 0.001
Per MPI rank memory allocation (min/avg/max) = 18.2 | 18.2 | 18.2 Mbytes
Step Temp Press TotEng PotEng Enthalpy Volume 
   44002    2155.3637   -1082.3157   -41513.668   -46988.488   -41810.997    440143.06 
   44022    2158.1528   -1043.8186    -41514.43   -46996.335   -41801.169     440121.4 
   44497    2116.4162    -764.1762   -41750.617   -47126.507   -41959.434    437806.99 
Loop time of 55.1882 on 1 procs for 495 steps with 19652 atoms

Performance: 0.775 ns/day, 30.970 hours/ns, 8.969 timesteps/s
95.3% CPU use with 1 MPI tasks x no OpenMP threads

MPI task timing breakdown:
Section |  min time  |  avg time  |  max time  |%varavg| %total
---------------------------------------------------------------
Pair    | 27.113     | 27.113     | 27.113     |   0.0 | 49.13
Neigh   | 25.82      | 25.82      | 25.82      |   0.0 | 46.79
Comm    | 0.43065    | 0.43065    | 0.43065    |   0.0 |  0.78
Output  | 1.0728     | 1.0728     | 1.0728     |   0.0 |  1.94
Modify  | 0.59882    | 0.59882    | 0.59882    |   0.0 |  1.09
Other   |            | 0.1525     |            |       |  0.28

Nlocal:    19652 ave 19652 max 19652 min
Histogram: 1 0 0 0 0 0 0 0 0 0
Nghost:    16437 ave 16437 max 16437 min
Histogram: 1 0 0 0 0 0 0 0 0 0
Neighs:    1.13001e+06 ave 1.13001e+06 max 1.13001e+06 min
Histogram: 1 0 0 0 0 0 0 0 0 0

Total # of neighbors = 1130013
Ave neighs/atom = 57.5012
Neighbor list builds = 495
Dangerous builds not checked
Setting up Verlet run ...
  Unit style    : metal
  Current step  : 44497
  Time step     : 0.001
Per MPI rank memory allocation (min/avg/max) = 18.2 | 18.2 | 18.2 Mbytes
Step Temp Press TotEng PotEng Enthalpy Volume 
   44497    2116.4162    -764.1762   -41750.617   -47126.507   -41959.434    437806.99 
   44669    2086.0163    100.94925   -41833.102   -47131.774   -41805.582    436783.16 
Loop time of 18.4302 on 1 procs for 172 steps with 19652 atoms

Performance: 0.806 ns/day, 29.764 hours/ns, 9.333 timesteps/s
100.0% CPU use with 1 MPI tasks x no OpenMP threads

MPI task timing breakdown:
Section |  min time  |  avg time  |  max time  |%varavg| %total
---------------------------------------------------------------
Pair    | 9.2444     | 9.2444     | 9.2444     |   0.0 | 50.16
Neigh   | 8.7742     | 8.7742     | 8.7742     |   0.0 | 47.61
Comm    | 0.14636    | 0.14636    | 0.14636    |   0.0 |  0.79
Output  | 0.00012994 | 0.00012994 | 0.00012994 |   0.0 |  0.00
Modify  | 0.20997    | 0.20997    | 0.20997    |   0.0 |  1.14
Other   |            | 0.05517    |            |       |  0.30

Nlocal:    19652 ave 19652 max 19652 min
Histogram: 1 0 0 0 0 0 0 0 0 0
Nghost:    16428 ave 16428 max 16428 min
Histogram: 1 0 0 0 0 0 0 0 0 0
Neighs:    1.13294e+06 ave 1.13294e+06 max 1.13294e+06 min
Histogram: 1 0 0 0 0 0 0 0 0 0

Total # of neighbors = 1132937
Ave neighs/atom = 57.65
Neighbor list builds = 172
Dangerous builds not checked
Setting up Verlet run ...
  Unit style    : metal
  Current step  : 44669
  Time step     : 0.001
Per MPI rank memory allocation (min/avg/max) = 18.2 | 18.2 | 18.2 Mbytes
Step Temp Press TotEng PotEng Enthalpy Volume 
   44669    2086.0163    100.94925   -41833.102   -47131.774   -41805.582    436783.16 
   44689    2094.4953   -273.90205   -41831.969   -47152.178    -41906.64    436782.86 
   45164    2060.6315    341.99318   -42039.483   -47273.675   -41946.773    434330.52 
Loop time of 53.3774 on 1 procs for 495 steps with 19652 atoms

Performance: 0.801 ns/day, 29.954 hours/ns, 9.274 timesteps/s
98.6% CPU use with 1 MPI tasks x no OpenMP threads

MPI task timing breakdown:
Section |  min time  |  avg time  |  max time  |%varavg| %total
---------------------------------------------------------------
Pair    | 26.724     | 26.724     | 26.724     |   0.0 | 50.07
Neigh   | 25.381     | 25.381     | 25.381     |   0.0 | 47.55
Comm    | 0.41162    | 0.41162    | 0.41162    |   0.0 |  0.77
Output  | 0.12363    | 0.12363    | 0.12363    |   0.0 |  0.23
Modify  | 0.58403    | 0.58403    | 0.58403    |   0.0 |  1.09
Other   |            | 0.1524     |            |       |  0.29

Nlocal:    19652 ave 19652 max 19652 min
Histogram: 1 0 0 0 0 0 0 0 0 0
Nghost:    16490 ave 16490 max 16490 min
Histogram: 1 0 0 0 0 0 0 0 0 0
Neighs:    1.1389e+06 ave 1.1389e+06 max 1.1389e+06 min
Histogram: 1 0 0 0 0 0 0 0 0 0

Total # of neighbors = 1138901
Ave neighs/atom = 57.9534
Neighbor list builds = 495
Dangerous builds not checked
Setting up Verlet run ...
  Unit style    : metal
  Current step  : 45164
  Time step     : 0.001
Per MPI rank memory allocation (min/avg/max) = 18.2 | 18.2 | 18.2 Mbytes
Step Temp Press TotEng PotEng Enthalpy Volume 
   45164    2060.6315    341.99318   -42039.483   -47273.675   -41946.773    434330.52 
   45336    2037.9224   -254.85811   -42124.786   -47301.294   -42193.858    434227.97 
Loop time of 19.9087 on 1 procs for 172 steps with 19652 atoms

Performance: 0.746 ns/day, 32.152 hours/ns, 8.639 timesteps/s
100.0% CPU use with 1 MPI tasks x no OpenMP threads

MPI task timing breakdown:
Section |  min time  |  avg time  |  max time  |%varavg| %total
---------------------------------------------------------------
Pair    | 10.086     | 10.086     | 10.086     |   0.0 | 50.66
Neigh   | 9.3763     | 9.3763     | 9.3763     |   0.0 | 47.10
Comm    | 0.15812    | 0.15812    | 0.15812    |   0.0 |  0.79
Output  | 0.00017214 | 0.00017214 | 0.00017214 |   0.0 |  0.00
Modify  | 0.22911    | 0.22911    | 0.22911    |   0.0 |  1.15
Other   |            | 0.05901    |            |       |  0.30

Nlocal:    19652 ave 19652 max 19652 min
Histogram: 1 0 0 0 0 0 0 0 0 0
Nghost:    16484 ave 16484 max 16484 min
Histogram: 1 0 0 0 0 0 0 0 0 0
Neighs:    1.13917e+06 ave 1.13917e+06 max 1.13917e+06 min
Histogram: 1 0 0 0 0 0 0 0 0 0

Total # of neighbors = 1139169
Ave neighs/atom = 57.9671
Neighbor list builds = 172
Dangerous builds not checked
Setting up Verlet run ...
  Unit style    : metal
  Current step  : 45336
  Time step     : 0.001
Per MPI rank memory allocation (min/avg/max) = 18.2 | 18.2 | 18.2 Mbytes
Step Temp Press TotEng PotEng Enthalpy Volume 
   45336    2037.9224   -254.85811   -42124.786   -47301.294   -42193.858    434227.97 
   45356    2034.5589   -262.01454    -42123.55   -47291.515   -42194.562    434222.62 
   45831    2013.4739   -190.57134   -42357.783    -47472.19   -42409.107    431493.57 
Loop time of 55.4213 on 1 procs for 495 steps with 19652 atoms

Performance: 0.772 ns/day, 31.101 hours/ns, 8.932 timesteps/s
99.8% CPU use with 1 MPI tasks x no OpenMP threads

MPI task timing breakdown:
Section |  min time  |  avg time  |  max time  |%varavg| %total
---------------------------------------------------------------
Pair    | 27.887     | 27.887     | 27.887     |   0.0 | 50.32
Neigh   | 26.212     | 26.212     | 26.212     |   0.0 | 47.30
Comm    | 0.42889    | 0.42889    | 0.42889    |   0.0 |  0.77
Output  | 0.11586    | 0.11586    | 0.11586    |   0.0 |  0.21
Modify  | 0.61617    | 0.61617    | 0.61617    |   0.0 |  1.11
Other   |            | 0.1604     |            |       |  0.29

Nlocal:    19652 ave 19652 max 19652 min
Histogram: 1 0 0 0 0 0 0 0 0 0
Nghost:    16500 ave 16500 max 16500 min
Histogram: 1 0 0 0 0 0 0 0 0 0
Neighs:    1.14607e+06 ave 1.14607e+06 max 1.14607e+06 min
Histogram: 1 0 0 0 0 0 0 0 0 0

Total # of neighbors = 1146069
Ave neighs/atom = 58.3182
Neighbor list builds = 495
Dangerous builds not checked
Setting up Verlet run ...
  Unit style    : metal
  Current step  : 45831
  Time step     : 0.001
Per MPI rank memory allocation (min/avg/max) = 18.2 | 18.2 | 18.2 Mbytes
Step Temp Press TotEng PotEng Enthalpy Volume 
   45831    2013.4739   -190.57134   -42357.783    -47472.19   -42409.107    431493.57 
   46003    1994.5287   -504.79052    -42441.21   -47507.495   -42576.977    430915.14 
Loop time of 19.1906 on 1 procs for 172 steps with 19652 atoms

Performance: 0.774 ns/day, 30.993 hours/ns, 8.963 timesteps/s
98.5% CPU use with 1 MPI tasks x no OpenMP threads

MPI task timing breakdown:
Section |  min time  |  avg time  |  max time  |%varavg| %total
---------------------------------------------------------------
Pair    | 9.7175     | 9.7175     | 9.7175     |   0.0 | 50.64
Neigh   | 9.0432     | 9.0432     | 9.0432     |   0.0 | 47.12
Comm    | 0.15254    | 0.15254    | 0.15254    |   0.0 |  0.79
Output  | 0.0001688  | 0.0001688  | 0.0001688  |   0.0 |  0.00
Modify  | 0.21976    | 0.21976    | 0.21976    |   0.0 |  1.15
Other   |            | 0.0574     |            |       |  0.30

Nlocal:    19652 ave 19652 max 19652 min
Histogram: 1 0 0 0 0 0 0 0 0 0
Nghost:    16529 ave 16529 max 16529 min
Histogram: 1 0 0 0 0 0 0 0 0 0
Neighs:    1.14815e+06 ave 1.14815e+06 max 1.14815e+06 min
Histogram: 1 0 0 0 0 0 0 0 0 0

Total # of neighbors = 1148150
Ave neighs/atom = 58.4241
Neighbor list builds = 172
Dangerous builds not checked
Setting up Verlet run ...
  Unit style    : metal
  Current step  : 46003
  Time step     : 0.001
Per MPI rank memory allocation (min/avg/max) = 18.2 | 18.2 | 18.2 Mbytes
Step Temp Press TotEng PotEng Enthalpy Volume 
   46003    1994.5287   -504.79052    -42441.21   -47507.495   -42576.977    430915.14 
   46023    2001.2985   -740.29991    -42441.04    -47524.52   -42640.142    430902.71 
   46498    1965.3662    235.65347   -42719.687   -47711.896   -42656.817    427444.27 
Loop time of 57.8043 on 1 procs for 495 steps with 19652 atoms

Performance: 0.740 ns/day, 32.438 hours/ns, 8.563 timesteps/s
98.9% CPU use with 1 MPI tasks x no OpenMP threads

MPI task timing breakdown:
Section |  min time  |  avg time  |  max time  |%varavg| %total
---------------------------------------------------------------
Pair    | 29.286     | 29.286     | 29.286     |   0.0 | 50.66
Neigh   | 26.961     | 26.961     | 26.961     |   0.0 | 46.64
Comm    | 0.4538     | 0.4538     | 0.4538     |   0.0 |  0.79
Output  | 0.29035    | 0.29035    | 0.29035    |   0.0 |  0.50
Modify  | 0.63161    | 0.63161    | 0.63161    |   0.0 |  1.09
Other   |            | 0.1818     |            |       |  0.31

Nlocal:    19652 ave 19652 max 19652 min
Histogram: 1 0 0 0 0 0 0 0 0 0
Nghost:    16613 ave 16613 max 16613 min
Histogram: 1 0 0 0 0 0 0 0 0 0
Neighs:    1.15779e+06 ave 1.15779e+06 max 1.15779e+06 min
Histogram: 1 0 0 0 0 0 0 0 0 0

Total # of neighbors = 1157788
Ave neighs/atom = 58.9145
Neighbor list builds = 495
Dangerous builds not checked
Setting up Verlet run ...
  Unit style    : metal
  Current step  : 46498
  Time step     : 0.001
Per MPI rank memory allocation (min/avg/max) = 18.2 | 18.2 | 18.2 Mbytes
Step Temp Press TotEng PotEng Enthalpy Volume 
   46498    1965.3662    235.65347   -42719.687   -47711.896   -42656.817    427444.27 
   46670    1935.9462   -458.31066   -42770.735   -47688.214   -42893.154    427957.12 
Loop time of 20.845 on 1 procs for 172 steps with 19652 atoms

Performance: 0.713 ns/day, 33.664 hours/ns, 8.251 timesteps/s
97.6% CPU use with 1 MPI tasks x no OpenMP threads

MPI task timing breakdown:
Section |  min time  |  avg time  |  max time  |%varavg| %total
---------------------------------------------------------------
Pair    | 10.609     | 10.609     | 10.609     |   0.0 | 50.89
Neigh   | 9.7716     | 9.7716     | 9.7716     |   0.0 | 46.88
Comm    | 0.16391    | 0.16391    | 0.16391    |   0.0 |  0.79
Output  | 0.00018096 | 0.00018096 | 0.00018096 |   0.0 |  0.00
Modify  | 0.23926    | 0.23926    | 0.23926    |   0.0 |  1.15
Other   |            | 0.06142    |            |       |  0.29

Nlocal:    19652 ave 19652 max 19652 min
Histogram: 1 0 0 0 0 0 0 0 0 0
Nghost:    16653 ave 16653 max 16653 min
Histogram: 1 0 0 0 0 0 0 0 0 0
Neighs:    1.15629e+06 ave 1.15629e+06 max 1.15629e+06 min
Histogram: 1 0 0 0 0 0 0 0 0 0

Total # of neighbors = 1156288
Ave neighs/atom = 58.8382
Neighbor list builds = 172
Dangerous builds not checked
Setting up Verlet run ...
  Unit style    : metal
  Current step  : 46670
  Time step     : 0.001
Per MPI rank memory allocation (min/avg/max) = 18.2 | 18.2 | 18.2 Mbytes
Step Temp Press TotEng PotEng Enthalpy Volume 
   46670    1935.9462   -458.31066   -42770.735   -47688.214   -42893.154    427957.12 
   46690    1945.2894   -610.67234   -42769.846   -47711.058   -42932.958    427945.76 
   47165    1910.6934   -320.82357   -42981.984   -47835.319   -43067.291    426016.61 
Loop time of 60.9442 on 1 procs for 495 steps with 19652 atoms

Performance: 0.702 ns/day, 34.200 hours/ns, 8.122 timesteps/s
95.2% CPU use with 1 MPI tasks x no OpenMP threads

MPI task timing breakdown:
Section |  min time  |  avg time  |  max time  |%varavg| %total
---------------------------------------------------------------
Pair    | 30.324     | 30.324     | 30.324     |   0.0 | 49.76
Neigh   | 27.359     | 27.359     | 27.359     |   0.0 | 44.89
Comm    | 0.48963    | 0.48963    | 0.48963    |   0.0 |  0.80
Output  | 1.9384     | 1.9384     | 1.9384     |   0.0 |  3.18
Modify  | 0.64843    | 0.64843    | 0.64843    |   0.0 |  1.06
Other   |            | 0.1844     |            |       |  0.30

Nlocal:    19652 ave 19652 max 19652 min
Histogram: 1 0 0 0 0 0 0 0 0 0
Nghost:    16669 ave 16669 max 16669 min
Histogram: 1 0 0 0 0 0 0 0 0 0
Neighs:    1.16137e+06 ave 1.16137e+06 max 1.16137e+06 min
Histogram: 1 0 0 0 0 0 0 0 0 0

Total # of neighbors = 1161370
Ave neighs/atom = 59.0968
Neighbor list builds = 495
Dangerous builds not checked
Setting up Verlet run ...
  Unit style    : metal
  Current step  : 47165
  Time step     : 0.001
Per MPI rank memory allocation (min/avg/max) = 18.2 | 18.2 | 18.2 Mbytes
Step Temp Press TotEng PotEng Enthalpy Volume 
   47165    1910.6934   -320.82357   -42981.984   -47835.319   -43067.291    426016.61 
   47337    1901.6283    -248.9684   -43058.186   -47888.495   -43124.263    425220.87 
Loop time of 22.1531 on 1 procs for 172 steps with 19652 atoms

Performance: 0.671 ns/day, 35.777 hours/ns, 7.764 timesteps/s
99.8% CPU use with 1 MPI tasks x no OpenMP threads

MPI task timing breakdown:
Section |  min time  |  avg time  |  max time  |%varavg| %total
---------------------------------------------------------------
Pair    | 11.559     | 11.559     | 11.559     |   0.0 | 52.18
Neigh   | 10.09      | 10.09      | 10.09      |   0.0 | 45.55
Comm    | 0.18689    | 0.18689    | 0.18689    |   0.0 |  0.84
Output  | 0.00017786 | 0.00017786 | 0.00017786 |   0.0 |  0.00
Modify  | 0.24737    | 0.24737    | 0.24737    |   0.0 |  1.12
Other   |            | 0.06986    |            |       |  0.32

Nlocal:    19652 ave 19652 max 19652 min
Histogram: 1 0 0 0 0 0 0 0 0 0
Nghost:    16629 ave 16629 max 16629 min
Histogram: 1 0 0 0 0 0 0 0 0 0
Neighs:    1.16409e+06 ave 1.16409e+06 max 1.16409e+06 min
Histogram: 1 0 0 0 0 0 0 0 0 0

Total # of neighbors = 1164091
Ave neighs/atom = 59.2352
Neighbor list builds = 172
Dangerous builds not checked
Setting up Verlet run ...
  Unit style    : metal
  Current step  : 47337
  Time step     : 0.001
Per MPI rank memory allocation (min/avg/max) = 18.2 | 18.2 | 18.2 Mbytes
Step Temp Press TotEng PotEng Enthalpy Volume 
   47337    1901.6283    -248.9684   -43058.186   -47888.495   -43124.263    425220.87 
   47357    1893.2937   -114.25504   -43058.078   -47867.217   -43088.402    425216.78 
   47832    1867.5707    382.76104   -43291.909   -48035.709   -43191.077    422067.09 
Loop time of 61.4091 on 1 procs for 495 steps with 19652 atoms

Performance: 0.696 ns/day, 34.461 hours/ns, 8.061 timesteps/s
94.9% CPU use with 1 MPI tasks x no OpenMP threads

MPI task timing breakdown:
Section |  min time  |  avg time  |  max time  |%varavg| %total
---------------------------------------------------------------
Pair    | 30.843     | 30.843     | 30.843     |   0.0 | 50.23
Neigh   | 27.741     | 27.741     | 27.741     |   0.0 | 45.17
Comm    | 0.47416    | 0.47416    | 0.47416    |   0.0 |  0.77
Output  | 1.5258     | 1.5258     | 1.5258     |   0.0 |  2.48
Modify  | 0.64375    | 0.64375    | 0.64375    |   0.0 |  1.05
Other   |            | 0.1817     |            |       |  0.30

Nlocal:    19652 ave 19652 max 19652 min
Histogram: 1 0 0 0 0 0 0 0 0 0
Nghost:    16637 ave 16637 max 16637 min
Histogram: 1 0 0 0 0 0 0 0 0 0
Neighs:    1.17244e+06 ave 1.17244e+06 max 1.17244e+06 min
Histogram: 1 0 0 0 0 0 0 0 0 0

Total # of neighbors = 1172445
Ave neighs/atom = 59.6603
Neighbor list builds = 495
Dangerous builds not checked
Setting up Verlet run ...
  Unit style    : metal
  Current step  : 47832
  Time step     : 0.001
Per MPI rank memory allocation (min/avg/max) = 18.2 | 18.2 | 18.2 Mbytes
Step Temp Press TotEng PotEng Enthalpy Volume 
   47832    1867.5707    382.76104   -43291.909   -48035.709   -43191.077    422067.09 
   48004    1842.4244  -0.99323602    -43372.69   -48052.616   -43372.951    421902.24 
Loop time of 18.3765 on 1 procs for 172 steps with 19652 atoms

Performance: 0.809 ns/day, 29.678 hours/ns, 9.360 timesteps/s
100.0% CPU use with 1 MPI tasks x no OpenMP threads

MPI task timing breakdown:
Section |  min time  |  avg time  |  max time  |%varavg| %total
---------------------------------------------------------------
Pair    | 9.3782     | 9.3782     | 9.3782     |   0.0 | 51.03
Neigh   | 8.598      | 8.598      | 8.598      |   0.0 | 46.79
Comm    | 0.14904    | 0.14904    | 0.14904    |   0.0 |  0.81
Output  | 0.00021195 | 0.00021195 | 0.00021195 |   0.0 |  0.00
Modify  | 0.19326    | 0.19326    | 0.19326    |   0.0 |  1.05
Other   |            | 0.05785    |            |       |  0.31

Nlocal:    19652 ave 19652 max 19652 min
Histogram: 1 0 0 0 0 0 0 0 0 0
Nghost:    16649 ave 16649 max 16649 min
Histogram: 1 0 0 0 0 0 0 0 0 0
Neighs:    1.17311e+06 ave 1.17311e+06 max 1.17311e+06 min
Histogram: 1 0 0 0 0 0 0 0 0 0

Total # of neighbors = 1173112
Ave neighs/atom = 59.6943
Neighbor list builds = 172
Dangerous builds not checked
Setting up Verlet run ...
  Unit style    : metal
  Current step  : 48004
  Time step     : 0.001
Per MPI rank memory allocation (min/avg/max) = 18.2 | 18.2 | 18.2 Mbytes
Step Temp Press TotEng PotEng Enthalpy Volume 
   48004    1842.4244  -0.99323602    -43372.69   -48052.616   -43372.951    421902.24 
   48024    1849.3918   -192.09063   -43372.221   -48069.845   -43422.804    421900.99 
   48499    1812.4095   -324.97579   -43616.186   -48219.872   -43701.298    419614.31 
Loop time of 62.889 on 1 procs for 495 steps with 19652 atoms

Performance: 0.680 ns/day, 35.291 hours/ns, 7.871 timesteps/s
98.4% CPU use with 1 MPI tasks x no OpenMP threads

MPI task timing breakdown:
Section |  min time  |  avg time  |  max time  |%varavg| %total
---------------------------------------------------------------
Pair    | 32.404     | 32.404     | 32.404     |   0.0 | 51.53
Neigh   | 28.841     | 28.841     | 28.841     |   0.0 | 45.86
Comm    | 0.50071    | 0.50071    | 0.50071    |   0.0 |  0.80
Output  | 0.27194    | 0.27194    | 0.27194    |   0.0 |  0.43
Modify  | 0.67742    | 0.67742    | 0.67742    |   0.0 |  1.08
Other   |            | 0.1944     |            |       |  0.31

Nlocal:    19652 ave 19652 max 19652 min
Histogram: 1 0 0 0 0 0 0 0 0 0
Nghost:    16639 ave 16639 max 16639 min
Histogram: 1 0 0 0 0 0 0 0 0 0
Neighs:    1.17979e+06 ave 1.17979e+06 max 1.17979e+06 min
Histogram: 1 0 0 0 0 0 0 0 0 0

Total # of neighbors = 1179794
Ave neighs/atom = 60.0343
Neighbor list builds = 495
Dangerous builds not checked
Setting up Verlet run ...
  Unit style    : metal
  Current step  : 48499
  Time step     : 0.001
Per MPI rank memory allocation (min/avg/max) = 18.2 | 18.2 | 18.2 Mbytes
Step Temp Press TotEng PotEng Enthalpy Volume 
   48499    1812.4095   -324.97579   -43616.186   -48219.872   -43701.298    419614.31 
   48671    1799.5068   -428.15196   -43695.729    -48266.64   -43807.703    419015.53 
Loop time of 21.0576 on 1 procs for 172 steps with 19652 atoms

Performance: 0.706 ns/day, 34.008 hours/ns, 8.168 timesteps/s
100.0% CPU use with 1 MPI tasks x no OpenMP threads

MPI task timing breakdown:
Section |  min time  |  avg time  |  max time  |%varavg| %total
---------------------------------------------------------------
Pair    | 10.85      | 10.85      | 10.85      |   0.0 | 51.52
Neigh   | 9.7451     | 9.7451     | 9.7451     |   0.0 | 46.28
Comm    | 0.1675     | 0.1675     | 0.1675     |   0.0 |  0.80
Output  | 0.00014782 | 0.00014782 | 0.00014782 |   0.0 |  0.00
Modify  | 0.22951    | 0.22951    | 0.22951    |   0.0 |  1.09
Other   |            | 0.06549    |            |       |  0.31

Nlocal:    19652 ave 19652 max 19652 min
Histogram: 1 0 0 0 0 0 0 0 0 0
Nghost:    16675 ave 16675 max 16675 min
Histogram: 1 0 0 0 0 0 0 0 0 0
Neighs:    1.18209e+06 ave 1.18209e+06 max 1.18209e+06 min
Histogram: 1 0 0 0 0 0 0 0 0 0

Total # of neighbors = 1182093
Ave neighs/atom = 60.1513
Neighbor list builds = 172
Dangerous builds not checked
Setting up Verlet run ...
  Unit style    : metal
  Current step  : 48671
  Time step     : 0.001
Per MPI rank memory allocation (min/avg/max) = 18.2 | 18.2 | 18.2 Mbytes
Step Temp Press TotEng PotEng Enthalpy Volume 
   48671    1799.5068   -428.15196   -43695.729    -48266.64   -43807.703    419015.53 
   48691    1797.4568   -329.46022   -43695.684   -48261.388   -43781.846    419006.84 
   49166    1760.2314   -42.812494   -43916.679   -48387.827    -43927.82    416925.42 
Loop time of 62.8941 on 1 procs for 495 steps with 19652 atoms

Performance: 0.680 ns/day, 35.294 hours/ns, 7.870 timesteps/s
99.7% CPU use with 1 MPI tasks x no OpenMP threads

MPI task timing breakdown:
Section |  min time  |  avg time  |  max time  |%varavg| %total
---------------------------------------------------------------
Pair    | 32.535     | 32.535     | 32.535     |   0.0 | 51.73
Neigh   | 28.83      | 28.83      | 28.83      |   0.0 | 45.84
Comm    | 0.50503    | 0.50503    | 0.50503    |   0.0 |  0.80
Output  | 0.13497    | 0.13497    | 0.13497    |   0.0 |  0.21
Modify  | 0.69161    | 0.69161    | 0.69161    |   0.0 |  1.10
Other   |            | 0.1978     |            |       |  0.31

Nlocal:    19652 ave 19652 max 19652 min
Histogram: 1 0 0 0 0 0 0 0 0 0
Nghost:    16723 ave 16723 max 16723 min
Histogram: 1 0 0 0 0 0 0 0 0 0
Neighs:    1.18825e+06 ave 1.18825e+06 max 1.18825e+06 min
Histogram: 1 0 0 0 0 0 0 0 0 0

Total # of neighbors = 1188249
Ave neighs/atom = 60.4645
Neighbor list builds = 495
Dangerous builds not checked
Setting up Verlet run ...
  Unit style    : metal
  Current step  : 49166
  Time step     : 0.001
Per MPI rank memory allocation (min/avg/max) = 18.2 | 18.2 | 18.2 Mbytes
Step Temp Press TotEng PotEng Enthalpy Volume 
   49166    1760.2314   -42.812494   -43916.679   -48387.827    -43927.82    416925.42 
   49338    1746.9913    82.334997   -43997.951   -48435.468   -43976.552     416390.1 
Loop time of 24.2669 on 1 procs for 172 steps with 19652 atoms

Performance: 0.612 ns/day, 39.191 hours/ns, 7.088 timesteps/s
96.7% CPU use with 1 MPI tasks x no OpenMP threads

MPI task timing breakdown:
Section |  min time  |  avg time  |  max time  |%varavg| %total
---------------------------------------------------------------
Pair    | 12.708     | 12.708     | 12.708     |   0.0 | 52.37
Neigh   | 11.003     | 11.003     | 11.003     |   0.0 | 45.34
Comm    | 0.20127    | 0.20127    | 0.20127    |   0.0 |  0.83
Output  | 0.00021195 | 0.00021195 | 0.00021195 |   0.0 |  0.00
Modify  | 0.2758     | 0.2758     | 0.2758     |   0.0 |  1.14
Other   |            | 0.07888    |            |       |  0.33

Nlocal:    19652 ave 19652 max 19652 min
Histogram: 1 0 0 0 0 0 0 0 0 0
Nghost:    16712 ave 16712 max 16712 min
Histogram: 1 0 0 0 0 0 0 0 0 0
Neighs:    1.18936e+06 ave 1.18936e+06 max 1.18936e+06 min
Histogram: 1 0 0 0 0 0 0 0 0 0

Total # of neighbors = 1189363
Ave neighs/atom = 60.5212
Neighbor list builds = 172
Dangerous builds not checked
Setting up Verlet run ...
  Unit style    : metal
  Current step  : 49338
  Time step     : 0.001
Per MPI rank memory allocation (min/avg/max) = 18.2 | 18.2 | 18.2 Mbytes
Step Temp Press TotEng PotEng Enthalpy Volume 
   49338    1746.9913    82.334997   -43997.951   -48435.468   -43976.552     416390.1 
   49358    1750.9735   -199.98324   -43997.753   -48445.385   -44049.727    416390.45 
   49833     1712.193   -766.21774   -44238.926   -48588.052   -44437.237    414672.47 
Loop time of 65.5902 on 1 procs for 495 steps with 19652 atoms

Performance: 0.652 ns/day, 36.807 hours/ns, 7.547 timesteps/s
98.7% CPU use with 1 MPI tasks x no OpenMP threads

MPI task timing breakdown:
Section |  min time  |  avg time  |  max time  |%varavg| %total
---------------------------------------------------------------
Pair    | 34.043     | 34.043     | 34.043     |   0.0 | 51.90
Neigh   | 30.016     | 30.016     | 30.016     |   0.0 | 45.76
Comm    | 0.51837    | 0.51837    | 0.51837    |   0.0 |  0.79
Output  | 0.09481    | 0.09481    | 0.09481    |   0.0 |  0.14
Modify  | 0.70906    | 0.70906    | 0.70906    |   0.0 |  1.08
Other   |            | 0.2088     |            |       |  0.32

Nlocal:    19652 ave 19652 max 19652 min
Histogram: 1 0 0 0 0 0 0 0 0 0
Nghost:    16741 ave 16741 max 16741 min
Histogram: 1 0 0 0 0 0 0 0 0 0
Neighs:    1.19469e+06 ave 1.19469e+06 max 1.19469e+06 min
Histogram: 1 0 0 0 0 0 0 0 0 0

Total # of neighbors = 1194689
Ave neighs/atom = 60.7922
Neighbor list builds = 495
Dangerous builds not checked
Setting up Verlet run ...
  Unit style    : metal
  Current step  : 49833
  Time step     : 0.001
Per MPI rank memory allocation (min/avg/max) = 18.2 | 18.2 | 18.2 Mbytes
Step Temp Press TotEng PotEng Enthalpy Volume 
   49833     1712.193   -766.21774   -44238.926   -48588.052   -44437.237    414672.47 
   50005    1704.5952    138.93133   -44309.257   -48639.085   -44273.396     413557.9 
Loop time of 21.1575 on 1 procs for 172 steps with 19652 atoms

Performance: 0.702 ns/day, 34.169 hours/ns, 8.129 timesteps/s
100.0% CPU use with 1 MPI tasks x no OpenMP threads

MPI task timing breakdown:
Section |  min time  |  avg time  |  max time  |%varavg| %total
---------------------------------------------------------------
Pair    | 11.03      | 11.03      | 11.03      |   0.0 | 52.13
Neigh   | 9.6565     | 9.6565     | 9.6565     |   0.0 | 45.64
Comm    | 0.17952    | 0.17952    | 0.17952    |   0.0 |  0.85
Output  | 0.00016999 | 0.00016999 | 0.00016999 |   0.0 |  0.00
Modify  | 0.22388    | 0.22388    | 0.22388    |   0.0 |  1.06
Other   |            | 0.06743    |            |       |  0.32

Nlocal:    19652 ave 19652 max 19652 min
Histogram: 1 0 0 0 0 0 0 0 0 0
Nghost:    16689 ave 16689 max 16689 min
Histogram: 1 0 0 0 0 0 0 0 0 0
Neighs:    1.19796e+06 ave 1.19796e+06 max 1.19796e+06 min
Histogram: 1 0 0 0 0 0 0 0 0 0

Total # of neighbors = 1197962
Ave neighs/atom = 60.9588
Neighbor list builds = 172
Dangerous builds not checked
Setting up Verlet run ...
  Unit style    : metal
  Current step  : 50005
  Time step     : 0.001
Per MPI rank memory allocation (min/avg/max) = 18.2 | 18.2 | 18.2 Mbytes
Step Temp Press TotEng PotEng Enthalpy Volume 
   50005    1704.5952    138.93133   -44309.257   -48639.085   -44273.396     413557.9 
   50025    1706.3124    179.26467    -44309.89   -48644.079   -44263.618    413561.07 
   50500    1660.5369    60.200166    -44548.25   -48766.165   -44532.788     411505.3 
Loop time of 60.8572 on 1 procs for 495 steps with 19652 atoms

Performance: 0.703 ns/day, 34.151 hours/ns, 8.134 timesteps/s
99.7% CPU use with 1 MPI tasks x no OpenMP threads

MPI task timing breakdown:
Section |  min time  |  avg time  |  max time  |%varavg| %total
---------------------------------------------------------------
Pair    | 31.522     | 31.522     | 31.522     |   0.0 | 51.80
Neigh   | 27.89      | 27.89      | 27.89      |   0.0 | 45.83
Comm    | 0.48522    | 0.48522    | 0.48522    |   0.0 |  0.80
Output  | 0.13538    | 0.13538    | 0.13538    |   0.0 |  0.22
Modify  | 0.63492    | 0.63492    | 0.63492    |   0.0 |  1.04
Other   |            | 0.189      |            |       |  0.31

Nlocal:    19652 ave 19652 max 19652 min
Histogram: 1 0 0 0 0 0 0 0 0 0
Nghost:    16754 ave 16754 max 16754 min
Histogram: 1 0 0 0 0 0 0 0 0 0
Neighs:    1.20462e+06 ave 1.20462e+06 max 1.20462e+06 min
Histogram: 1 0 0 0 0 0 0 0 0 0

Total # of neighbors = 1204616
Ave neighs/atom = 61.2974
Neighbor list builds = 495
Dangerous builds not checked
Setting up Verlet run ...
  Unit style    : metal
  Current step  : 50500
  Time step     : 0.001
Per MPI rank memory allocation (min/avg/max) = 18.2 | 18.2 | 18.2 Mbytes
Step Temp Press TotEng PotEng Enthalpy Volume 
   50500    1660.5369    60.200166    -44548.25   -48766.165   -44532.788     411505.3 
   50672    1649.0907   -321.97789   -44613.499   -48802.339   -44696.136    411206.66 
Loop time of 22.6046 on 1 procs for 172 steps with 19652 atoms

Performance: 0.657 ns/day, 36.506 hours/ns, 7.609 timesteps/s
99.2% CPU use with 1 MPI tasks x no OpenMP threads

MPI task timing breakdown:
Section |  min time  |  avg time  |  max time  |%varavg| %total
---------------------------------------------------------------
Pair    | 11.839     | 11.839     | 11.839     |   0.0 | 52.37
Neigh   | 10.261     | 10.261     | 10.261     |   0.0 | 45.39
Comm    | 0.18519    | 0.18519    | 0.18519    |   0.0 |  0.82
Output  | 0.00018191 | 0.00018191 | 0.00018191 |   0.0 |  0.00
Modify  | 0.24902    | 0.24902    | 0.24902    |   0.0 |  1.10
Other   |            | 0.07073    |            |       |  0.31

Nlocal:    19652 ave 19652 max 19652 min
Histogram: 1 0 0 0 0 0 0 0 0 0
Nghost:    16824 ave 16824 max 16824 min
Histogram: 1 0 0 0 0 0 0 0 0 0
Neighs:    1.20524e+06 ave 1.20524e+06 max 1.20524e+06 min
Histogram: 1 0 0 0 0 0 0 0 0 0

Total # of neighbors = 1205242
Ave neighs/atom = 61.3292
Neighbor list builds = 172
Dangerous builds not checked
Setting up Verlet run ...
  Unit style    : metal
  Current step  : 50672
  Time step     : 0.001
Per MPI rank memory allocation (min/avg/max) = 18.2 | 18.2 | 18.2 Mbytes
Step Temp Press TotEng PotEng Enthalpy Volume 
   50672    1649.0907   -321.97789   -44613.499   -48802.339   -44696.136    411206.66 
   50692    1656.2659   -547.84281   -44613.818   -48820.884   -44754.421    411197.06 
   51167    1605.5977    394.85059   -44851.693   -48930.057   -44750.947    408796.04 
Loop time of 59.9429 on 1 procs for 495 steps with 19652 atoms

Performance: 0.713 ns/day, 33.638 hours/ns, 8.258 timesteps/s
98.9% CPU use with 1 MPI tasks x no OpenMP threads

MPI task timing breakdown:
Section |  min time  |  avg time  |  max time  |%varavg| %total
---------------------------------------------------------------
Pair    | 31.092     | 31.092     | 31.092     |   0.0 | 51.87
Neigh   | 27.436     | 27.436     | 27.436     |   0.0 | 45.77
Comm    | 0.49695    | 0.49695    | 0.49695    |   0.0 |  0.83
Output  | 0.093773   | 0.093773   | 0.093773   |   0.0 |  0.16
Modify  | 0.63514    | 0.63514    | 0.63514    |   0.0 |  1.06
Other   |            | 0.1891     |            |       |  0.32

Nlocal:    19652 ave 19652 max 19652 min
Histogram: 1 0 0 0 0 0 0 0 0 0
Nghost:    16882 ave 16882 max 16882 min
Histogram: 1 0 0 0 0 0 0 0 0 0
Neighs:    1.21251e+06 ave 1.21251e+06 max 1.21251e+06 min
Histogram: 1 0 0 0 0 0 0 0 0 0

Total # of neighbors = 1212508
Ave neighs/atom = 61.699
Neighbor list builds = 495
Dangerous builds not checked
Setting up Verlet run ...
  Unit style    : metal
  Current step  : 51167
  Time step     : 0.001
Per MPI rank memory allocation (min/avg/max) = 18.2 | 18.2 | 18.2 Mbytes
Step Temp Press TotEng PotEng Enthalpy Volume 
   51167    1605.5977    394.85059   -44851.693   -48930.057   -44750.947    408796.04 
   51339    1587.1437   -95.981565   -44910.792   -48942.282   -44935.281    408782.13 
Loop time of 22.35 on 1 procs for 172 steps with 19652 atoms

Performance: 0.665 ns/day, 36.095 hours/ns, 7.696 timesteps/s
96.7% CPU use with 1 MPI tasks x no OpenMP threads

MPI task timing breakdown:
Section |  min time  |  avg time  |  max time  |%varavg| %total
---------------------------------------------------------------
Pair    | 11.617     | 11.617     | 11.617     |   0.0 | 51.98
Neigh   | 10.238     | 10.238     | 10.238     |   0.0 | 45.81
Comm    | 0.17819    | 0.17819    | 0.17819    |   0.0 |  0.80
Output  | 0.00020504 | 0.00020504 | 0.00020504 |   0.0 |  0.00
Modify  | 0.24587    | 0.24587    | 0.24587    |   0.0 |  1.10
Other   |            | 0.0699     |            |       |  0.31

Nlocal:    19652 ave 19652 max 19652 min
Histogram: 1 0 0 0 0 0 0 0 0 0
Nghost:    16800 ave 16800 max 16800 min
Histogram: 1 0 0 0 0 0 0 0 0 0
Neighs:    1.21224e+06 ave 1.21224e+06 max 1.21224e+06 min
Histogram: 1 0 0 0 0 0 0 0 0 0

Total # of neighbors = 1212237
Ave neighs/atom = 61.6852
Neighbor list builds = 172
Dangerous builds not checked
Setting up Verlet run ...
  Unit style    : metal
  Current step  : 51339
  Time step     : 0.001
Per MPI rank memory allocation (min/avg/max) = 18.2 | 18.2 | 18.2 Mbytes
Step Temp Press TotEng PotEng Enthalpy Volume 
   51339    1587.1437   -95.981565   -44910.792   -48942.282   -44935.281    408782.13 
   51359    1590.2134   -200.29599   -44909.711   -48948.998   -44960.815    408779.09 
   51834    1562.8767   -448.14562   -45157.179   -49127.028   -45270.905    406583.39 
Loop time of 64.1992 on 1 procs for 495 steps with 19652 atoms

Performance: 0.666 ns/day, 36.027 hours/ns, 7.710 timesteps/s
99.8% CPU use with 1 MPI tasks x no OpenMP threads

MPI task timing breakdown:
Section |  min time  |  avg time  |  max time  |%varavg| %total
---------------------------------------------------------------
Pair    | 33.572     | 33.572     | 33.572     |   0.0 | 52.29
Neigh   | 29.14      | 29.14      | 29.14      |   0.0 | 45.39
Comm    | 0.51575    | 0.51575    | 0.51575    |   0.0 |  0.80
Output  | 0.10354    | 0.10354    | 0.10354    |   0.0 |  0.16
Modify  | 0.67089    | 0.67089    | 0.67089    |   0.0 |  1.05
Other   |            | 0.1965     |            |       |  0.31

Nlocal:    19652 ave 19652 max 19652 min
Histogram: 1 0 0 0 0 0 0 0 0 0
Nghost:    16789 ave 16789 max 16789 min
Histogram: 1 0 0 0 0 0 0 0 0 0
Neighs:    1.21972e+06 ave 1.21972e+06 max 1.21972e+06 min
Histogram: 1 0 0 0 0 0 0 0 0 0

Total # of neighbors = 1219718
Ave neighs/atom = 62.0658
Neighbor list builds = 495
Dangerous builds not checked
Setting up Verlet run ...
  Unit style    : metal
  Current step  : 51834
  Time step     : 0.001
Per MPI rank memory allocation (min/avg/max) = 18.2 | 18.2 | 18.2 Mbytes
Step Temp Press TotEng PotEng Enthalpy Volume 
   51834    1562.8767   -448.14562   -45157.179   -49127.028   -45270.905    406583.39 
   52006    1562.7301   -670.64092     -45226.7   -49196.177   -45396.524    405712.77 
Loop time of 22.558 on 1 procs for 172 steps with 19652 atoms

Performance: 0.659 ns/day, 36.431 hours/ns, 7.625 timesteps/s
100.0% CPU use with 1 MPI tasks x no OpenMP threads

MPI task timing breakdown:
Section |  min time  |  avg time  |  max time  |%varavg| %total
---------------------------------------------------------------
Pair    | 11.818     | 11.818     | 11.818     |   0.0 | 52.39
Neigh   | 10.233     | 10.233     | 10.233     |   0.0 | 45.36
Comm    | 0.18232    | 0.18232    | 0.18232    |   0.0 |  0.81
Output  | 0.00018096 | 0.00018096 | 0.00018096 |   0.0 |  0.00
Modify  | 0.25178    | 0.25178    | 0.25178    |   0.0 |  1.12
Other   |            | 0.07288    |            |       |  0.32

Nlocal:    19652 ave 19652 max 19652 min
Histogram: 1 0 0 0 0 0 0 0 0 0
Nghost:    16876 ave 16876 max 16876 min
Histogram: 1 0 0 0 0 0 0 0 0 0
Neighs:    1.22215e+06 ave 1.22215e+06 max 1.22215e+06 min
Histogram: 1 0 0 0 0 0 0 0 0 0

Total # of neighbors = 1222146
Ave neighs/atom = 62.1894
Neighbor list builds = 172
Dangerous builds not checked
Setting up Verlet run ...
  Unit style    : metal
  Current step  : 52006
  Time step     : 0.001
Per MPI rank memory allocation (min/avg/max) = 18.2 | 18.2 | 18.2 Mbytes
Step Temp Press TotEng PotEng Enthalpy Volume 
   52006    1562.7301   -670.64092     -45226.7   -49196.177   -45396.524    405712.77 
   52026     1560.687    -563.1348   -45228.013     -49192.3   -45370.608    405697.55 
   52501    1507.9323   -245.70843   -45478.732   -49309.018    -45540.67    403874.89 
Loop time of 55.6475 on 1 procs for 495 steps with 19652 atoms

Performance: 0.769 ns/day, 31.228 hours/ns, 8.895 timesteps/s
99.2% CPU use with 1 MPI tasks x no OpenMP threads

MPI task timing breakdown:
Section |  min time  |  avg time  |  max time  |%varavg| %total
---------------------------------------------------------------
Pair    | 28.657     | 28.657     | 28.657     |   0.0 | 51.50
Neigh   | 25.672     | 25.672     | 25.672     |   0.0 | 46.13
Comm    | 0.43027    | 0.43027    | 0.43027    |   0.0 |  0.77
Output  | 0.13537    | 0.13537    | 0.13537    |   0.0 |  0.24
Modify  | 0.58147    | 0.58147    | 0.58147    |   0.0 |  1.04
Other   |            | 0.1718     |            |       |  0.31

Nlocal:    19652 ave 19652 max 19652 min
Histogram: 1 0 0 0 0 0 0 0 0 0
Nghost:    16879 ave 16879 max 16879 min
Histogram: 1 0 0 0 0 0 0 0 0 0
Neighs:    1.22789e+06 ave 1.22789e+06 max 1.22789e+06 min
Histogram: 1 0 0 0 0 0 0 0 0 0

Total # of neighbors = 1227890
Ave neighs/atom = 62.4817
Neighbor list builds = 495
Dangerous builds not checked
Setting up Verlet run ...
  Unit style    : metal
  Current step  : 52501
  Time step     : 0.001
Per MPI rank memory allocation (min/avg/max) = 18.2 | 18.2 | 18.2 Mbytes
Step Temp Press TotEng PotEng Enthalpy Volume 
   52501    1507.9323   -245.70843   -45478.732   -49309.018    -45540.67    403874.89 
   52673     1504.605   -398.08468   -45542.133   -49363.966   -45642.346    403330.89 
Loop time of 21.6565 on 1 procs for 172 steps with 19652 atoms

Performance: 0.686 ns/day, 34.975 hours/ns, 7.942 timesteps/s
100.0% CPU use with 1 MPI tasks x no OpenMP threads

MPI task timing breakdown:
Section |  min time  |  avg time  |  max time  |%varavg| %total
---------------------------------------------------------------
Pair    | 11.301     | 11.301     | 11.301     |   0.0 | 52.18
Neigh   | 9.8723     | 9.8723     | 9.8723     |   0.0 | 45.59
Comm    | 0.17703    | 0.17703    | 0.17703    |   0.0 |  0.82
Output  | 0.00018501 | 0.00018501 | 0.00018501 |   0.0 |  0.00
Modify  | 0.23616    | 0.23616    | 0.23616    |   0.0 |  1.09
Other   |            | 0.07006    |            |       |  0.32

Nlocal:    19652 ave 19652 max 19652 min
Histogram: 1 0 0 0 0 0 0 0 0 0
Nghost:    16906 ave 16906 max 16906 min
Histogram: 1 0 0 0 0 0 0 0 0 0
Neighs:    1.22957e+06 ave 1.22957e+06 max 1.22957e+06 min
Histogram: 1 0 0 0 0 0 0 0 0 0

Total # of neighbors = 1229570
Ave neighs/atom = 62.5672
Neighbor list builds = 172
Dangerous builds not checked
Setting up Verlet run ...
  Unit style    : metal
  Current step  : 52673
  Time step     : 0.001
Per MPI rank memory allocation (min/avg/max) = 18.2 | 18.2 | 18.2 Mbytes
Step Temp Press TotEng PotEng Enthalpy Volume 
   52673     1504.605   -398.08468   -45542.133   -49363.966   -45642.346    403330.89 
   52693    1502.7863   -359.87548   -45542.685     -49359.9   -45633.278    403321.02 
   53168     1463.281   -1087.0607   -45798.354   -49515.221   -46070.765    401495.79 
Loop time of 63.5777 on 1 procs for 495 steps with 19652 atoms

Performance: 0.673 ns/day, 35.678 hours/ns, 7.786 timesteps/s
98.9% CPU use with 1 MPI tasks x no OpenMP threads

MPI task timing breakdown:
Section |  min time  |  avg time  |  max time  |%varavg| %total
---------------------------------------------------------------
Pair    | 33.313     | 33.313     | 33.313     |   0.0 | 52.40
Neigh   | 28.774     | 28.774     | 28.774     |   0.0 | 45.26
Comm    | 0.51077    | 0.51077    | 0.51077    |   0.0 |  0.80
Output  | 0.11167    | 0.11167    | 0.11167    |   0.0 |  0.18
Modify  | 0.67316    | 0.67316    | 0.67316    |   0.0 |  1.06
Other   |            | 0.1949     |            |       |  0.31

Nlocal:    19652 ave 19652 max 19652 min
Histogram: 1 0 0 0 0 0 0 0 0 0
Nghost:    16935 ave 16935 max 16935 min
Histogram: 1 0 0 0 0 0 0 0 0 0
Neighs:    1.23575e+06 ave 1.23575e+06 max 1.23575e+06 min
Histogram: 1 0 0 0 0 0 0 0 0 0

Total # of neighbors = 1235749
Ave neighs/atom = 62.8816
Neighbor list builds = 495
Dangerous builds not checked
Setting up Verlet run ...
  Unit style    : metal
  Current step  : 53168
  Time step     : 0.001
Per MPI rank memory allocation (min/avg/max) = 18.2 | 18.2 | 18.2 Mbytes
Step Temp Press TotEng PotEng Enthalpy Volume 
   53168     1463.281   -1087.0607   -45798.354   -49515.221   -46070.765    401495.79 
   53340    1450.5614    259.91759   -45866.887   -49551.446   -45801.925    400442.45 
Loop time of 21.7006 on 1 procs for 172 steps with 19652 atoms

Performance: 0.685 ns/day, 35.046 hours/ns, 7.926 timesteps/s
100.0% CPU use with 1 MPI tasks x no OpenMP threads

MPI task timing breakdown:
Section |  min time  |  avg time  |  max time  |%varavg| %total
---------------------------------------------------------------
Pair    | 11.444     | 11.444     | 11.444     |   0.0 | 52.73
Neigh   | 9.7827     | 9.7827     | 9.7827     |   0.0 | 45.08
Comm    | 0.17503    | 0.17503    | 0.17503    |   0.0 |  0.81
Output  | 0.00018597 | 0.00018597 | 0.00018597 |   0.0 |  0.00
Modify  | 0.2326     | 0.2326     | 0.2326     |   0.0 |  1.07
Other   |            | 0.06647    |            |       |  0.31

Nlocal:    19652 ave 19652 max 19652 min
Histogram: 1 0 0 0 0 0 0 0 0 0
Nghost:    16972 ave 16972 max 16972 min
Histogram: 1 0 0 0 0 0 0 0 0 0
Neighs:    1.23865e+06 ave 1.23865e+06 max 1.23865e+06 min
Histogram: 1 0 0 0 0 0 0 0 0 0

Total # of neighbors = 1238648
Ave neighs/atom = 63.0291
Neighbor list builds = 172
Dangerous builds not checked
Setting up Verlet run ...
  Unit style    : metal
  Current step  : 53340
  Time step     : 0.001
Per MPI rank memory allocation (min/avg/max) = 18.2 | 18.2 | 18.2 Mbytes
Step Temp Press TotEng PotEng Enthalpy Volume 
   53340    1450.5614    259.91759   -45866.887   -49551.446   -45801.925    400442.45 
   53360    1448.4827    298.29102   -45866.953   -49546.231   -45792.398    400449.24 
   53835    1415.3962    1162.3038   -46091.175    -49686.41   -45802.514     397904.7 
Loop time of 63.4842 on 1 procs for 495 steps with 19652 atoms

Performance: 0.674 ns/day, 35.625 hours/ns, 7.797 timesteps/s
99.3% CPU use with 1 MPI tasks x no OpenMP threads

MPI task timing breakdown:
Section |  min time  |  avg time  |  max time  |%varavg| %total
---------------------------------------------------------------
Pair    | 33.22      | 33.22      | 33.22      |   0.0 | 52.33
Neigh   | 28.783     | 28.783     | 28.783     |   0.0 | 45.34
Comm    | 0.49782    | 0.49782    | 0.49782    |   0.0 |  0.78
Output  | 0.11659    | 0.11659    | 0.11659    |   0.0 |  0.18
Modify  | 0.67405    | 0.67405    | 0.67405    |   0.0 |  1.06
Other   |            | 0.1922     |            |       |  0.30

Nlocal:    19652 ave 19652 max 19652 min
Histogram: 1 0 0 0 0 0 0 0 0 0
Nghost:    16990 ave 16990 max 16990 min
Histogram: 1 0 0 0 0 0 0 0 0 0
Neighs:    1.24731e+06 ave 1.24731e+06 max 1.24731e+06 min
Histogram: 1 0 0 0 0 0 0 0 0 0

Total # of neighbors = 1247313
Ave neighs/atom = 63.47
Neighbor list builds = 495
Dangerous builds not checked
Setting up Verlet run ...
  Unit style    : metal
  Current step  : 53835
  Time step     : 0.001
Per MPI rank memory allocation (min/avg/max) = 18.2 | 18.2 | 18.2 Mbytes
Step Temp Press TotEng PotEng Enthalpy Volume 
   53835    1415.3962    1162.3038   -46091.175    -49686.41   -45802.514     397904.7 
   54007    1403.4988   -552.86414   -46164.775    -49729.79   -46302.221    398311.81 
Loop time of 23.2585 on 1 procs for 172 steps with 19652 atoms

Performance: 0.639 ns/day, 37.562 hours/ns, 7.395 timesteps/s
100.0% CPU use with 1 MPI tasks x no OpenMP threads

MPI task timing breakdown:
Section |  min time  |  avg time  |  max time  |%varavg| %total
---------------------------------------------------------------
Pair    | 12.212     | 12.212     | 12.212     |   0.0 | 52.51
Neigh   | 10.532     | 10.532     | 10.532     |   0.0 | 45.28
Comm    | 0.18495    | 0.18495    | 0.18495    |   0.0 |  0.80
Output  | 0.00021386 | 0.00021386 | 0.00021386 |   0.0 |  0.00
Modify  | 0.25769    | 0.25769    | 0.25769    |   0.0 |  1.11
Other   |            | 0.07216    |            |       |  0.31

Nlocal:    19652 ave 19652 max 19652 min
Histogram: 1 0 0 0 0 0 0 0 0 0
Nghost:    17016 ave 17016 max 17016 min
Histogram: 1 0 0 0 0 0 0 0 0 0
Neighs:    1.24642e+06 ave 1.24642e+06 max 1.24642e+06 min
Histogram: 1 0 0 0 0 0 0 0 0 0

Total # of neighbors = 1246425
Ave neighs/atom = 63.4248
Neighbor list builds = 172
Dangerous builds not checked
Setting up Verlet run ...
  Unit style    : metal
  Current step  : 54007
  Time step     : 0.001
Per MPI rank memory allocation (min/avg/max) = 18.2 | 18.2 | 18.2 Mbytes
Step Temp Press TotEng PotEng Enthalpy Volume 
   54007    1403.4988   -552.86414   -46164.775    -49729.79   -46302.221    398311.81 
   54027    1401.8569   -413.24923   -46165.153   -49725.997   -46267.886    398299.05 
   54502    1364.9537    248.70051   -46422.272   -49889.379   -46360.833    395803.38 
Loop time of 66.0564 on 1 procs for 495 steps with 19652 atoms

Performance: 0.647 ns/day, 37.069 hours/ns, 7.494 timesteps/s
99.1% CPU use with 1 MPI tasks x no OpenMP threads

MPI task timing breakdown:
Section |  min time  |  avg time  |  max time  |%varavg| %total
---------------------------------------------------------------
Pair    | 34.881     | 34.881     | 34.881     |   0.0 | 52.81
Neigh   | 29.596     | 29.596     | 29.596     |   0.0 | 44.80
Comm    | 0.52466    | 0.52466    | 0.52466    |   0.0 |  0.79
Output  | 0.15243    | 0.15243    | 0.15243    |   0.0 |  0.23
Modify  | 0.702      | 0.702      | 0.702      |   0.0 |  1.06
Other   |            | 0.2        |            |       |  0.30

Nlocal:    19652 ave 19652 max 19652 min
Histogram: 1 0 0 0 0 0 0 0 0 0
Nghost:    17076 ave 17076 max 17076 min
Histogram: 1 0 0 0 0 0 0 0 0 0
Neighs:    1.25433e+06 ave 1.25433e+06 max 1.25433e+06 min
Histogram: 1 0 0 0 0 0 0 0 0 0

Total # of neighbors = 1254327
Ave neighs/atom = 63.8269
Neighbor list builds = 495
Dangerous builds not checked
Setting up Verlet run ...
  Unit style    : metal
  Current step  : 54502
  Time step     : 0.001
Per MPI rank memory allocation (min/avg/max) = 18.2 | 18.2 | 18.2 Mbytes
Step Temp Press TotEng PotEng Enthalpy Volume 
   54502    1364.9537    248.70051   -46422.272   -49889.379   -46360.833    395803.38 
   54674    1352.9314   -42.963802   -46490.548   -49927.117    -46501.15    395376.04 
Loop time of 20.4986 on 1 procs for 172 steps with 19652 atoms

Performance: 0.725 ns/day, 33.105 hours/ns, 8.391 timesteps/s
100.0% CPU use with 1 MPI tasks x no OpenMP threads

MPI task timing breakdown:
Section |  min time  |  avg time  |  max time  |%varavg| %total
---------------------------------------------------------------
Pair    | 10.736     | 10.736     | 10.736     |   0.0 | 52.37
Neigh   | 9.3092     | 9.3092     | 9.3092     |   0.0 | 45.41
Comm    | 0.16364    | 0.16364    | 0.16364    |   0.0 |  0.80
Output  | 0.00019097 | 0.00019097 | 0.00019097 |   0.0 |  0.00
Modify  | 0.22453    | 0.22453    | 0.22453    |   0.0 |  1.10
Other   |            | 0.06531    |            |       |  0.32

Nlocal:    19652 ave 19652 max 19652 min
Histogram: 1 0 0 0 0 0 0 0 0 0
Nghost:    17050 ave 17050 max 17050 min
Histogram: 1 0 0 0 0 0 0 0 0 0
Neighs:    1.25574e+06 ave 1.25574e+06 max 1.25574e+06 min
Histogram: 1 0 0 0 0 0 0 0 0 0

Total # of neighbors = 1255745
Ave neighs/atom = 63.8991
Neighbor list builds = 172
Dangerous builds not checked
Setting up Verlet run ...
  Unit style    : metal
  Current step  : 54674
  Time step     : 0.001
Per MPI rank memory allocation (min/avg/max) = 18.2 | 18.2 | 18.2 Mbytes
Step Temp Press TotEng PotEng Enthalpy Volume 
   54674    1352.9314   -42.963802   -46490.548   -49927.117    -46501.15    395376.04 
   54694    1351.9169    20.723665   -46490.826   -49924.818   -46485.712    395376.11 
   55169    1318.4291    224.83033    -46751.65    -50100.58   -46696.479    393157.71 
Loop time of 62.3082 on 1 procs for 495 steps with 19652 atoms

Performance: 0.686 ns/day, 34.965 hours/ns, 7.944 timesteps/s
99.4% CPU use with 1 MPI tasks x no OpenMP threads

MPI task timing breakdown:
Section |  min time  |  avg time  |  max time  |%varavg| %total
---------------------------------------------------------------
Pair    | 32.781     | 32.781     | 32.781     |   0.0 | 52.61
Neigh   | 27.985     | 27.985     | 27.985     |   0.0 | 44.91
Comm    | 0.49199    | 0.49199    | 0.49199    |   0.0 |  0.79
Output  | 0.18007    | 0.18007    | 0.18007    |   0.0 |  0.29
Modify  | 0.67742    | 0.67742    | 0.67742    |   0.0 |  1.09
Other   |            | 0.1927     |            |       |  0.31

Nlocal:    19652 ave 19652 max 19652 min
Histogram: 1 0 0 0 0 0 0 0 0 0
Nghost:    17096 ave 17096 max 17096 min
Histogram: 1 0 0 0 0 0 0 0 0 0
Neighs:    1.26291e+06 ave 1.26291e+06 max 1.26291e+06 min
Histogram: 1 0 0 0 0 0 0 0 0 0

Total # of neighbors = 1262913
Ave neighs/atom = 64.2638
Neighbor list builds = 495
Dangerous builds not checked
Setting up Verlet run ...
  Unit style    : metal
  Current step  : 55169
  Time step     : 0.001
Per MPI rank memory allocation (min/avg/max) = 18.2 | 18.2 | 18.2 Mbytes
Step Temp Press TotEng PotEng Enthalpy Volume 
   55169    1318.4291    224.83033    -46751.65    -50100.58   -46696.479    393157.71 
   55341    1308.8676   -713.43247   -46815.342   -50139.985   -46990.323    392960.17 
Loop time of 19.9913 on 1 procs for 172 steps with 19652 atoms

Performance: 0.743 ns/day, 32.286 hours/ns, 8.604 timesteps/s
99.7% CPU use with 1 MPI tasks x no OpenMP threads

MPI task timing breakdown:
Section |  min time  |  avg time  |  max time  |%varavg| %total
---------------------------------------------------------------
Pair    | 10.346     | 10.346     | 10.346     |   0.0 | 51.75
Neigh   | 9.2256     | 9.2256     | 9.2256     |   0.0 | 46.15
[...]
Output  | 0.1607     | 0.1607     | 0.1607     |   0.0 |  0.28
Modify  | 0.5691     | 0.5691     | 0.5691     |   0.0 |  0.98
Other   |            | 0.1494     |            |       |  0.26

Nlocal:    19652 ave 19652 max 19652 min
Histogram: 1 0 0 0 0 0 0 0 0 0
Nghost:    17924 ave 17924 max 17924 min
Histogram: 1 0 0 0 0 0 0 0 0 0
Neighs:    1.41116e+06 ave 1.41116e+06 max 1.41116e+06 min
Histogram: 1 0 0 0 0 0 0 0 0 0

Total # of neighbors = 1411158
Ave neighs/atom = 71.8073
Neighbor list builds = 495
Dangerous builds not checked
Setting up Verlet run ...
  Unit style    : metal
  Current step  : 67175
  Time step     : 0.001
Per MPI rank memory allocation (min/avg/max) = 18.2 | 18.2 | 18.2 Mbytes
Step Temp Press TotEng PotEng Enthalpy Volume 
   67175    427.35566   -445.08467   -52601.421   -53686.944   -52699.511    353095.22 
   67347    416.02167   -319.96299   -52662.599   -53719.332   -52733.043    352739.31 
Loop time of 21.8904 on 1 procs for 172 steps with 19652 atoms

Performance: 0.679 ns/day, 35.353 hours/ns, 7.857 timesteps/s
99.1% CPU use with 1 MPI tasks x no OpenMP threads

MPI task timing breakdown:
Section |  min time  |  avg time  |  max time  |%varavg| %total
---------------------------------------------------------------
Pair    | 11.486     | 11.486     | 11.486     |   0.0 | 52.47
Neigh   | 9.9774     | 9.9774     | 9.9774     |   0.0 | 45.58
Comm    | 0.15226    | 0.15226    | 0.15226    |   0.0 |  0.70
Output  | 0.0001471  | 0.0001471  | 0.0001471  |   0.0 |  0.00
Modify  | 0.21784    | 0.21784    | 0.21784    |   0.0 |  1.00
Other   |            | 0.05655    |            |       |  0.26

Nlocal:    19652 ave 19652 max 19652 min
Histogram: 1 0 0 0 0 0 0 0 0 0
Nghost:    17916 ave 17916 max 17916 min
Histogram: 1 0 0 0 0 0 0 0 0 0
Neighs:    1.41259e+06 ave 1.41259e+06 max 1.41259e+06 min
Histogram: 1 0 0 0 0 0 0 0 0 0

Total # of neighbors = 1412593
Ave neighs/atom = 71.8804
Neighbor list builds = 172
Dangerous builds not checked
Setting up Verlet run ...
  Unit style    : metal
  Current step  : 67347
  Time step     : 0.001
Per MPI rank memory allocation (min/avg/max) = 18.2 | 18.2 | 18.2 Mbytes
Step Temp Press TotEng PotEng Enthalpy Volume 
   67347    416.02167   -319.96299   -52662.599   -53719.332   -52733.043    352739.31 
   67367    416.89005   -351.60029   -52664.439   -53723.378   -52741.843    352715.71 
   67842    376.44735    71.747062    -52900.58   -53856.791   -52884.851    351253.17 
Loop time of 60.631 on 1 procs for 495 steps with 19652 atoms

Performance: 0.705 ns/day, 34.024 hours/ns, 8.164 timesteps/s
99.1% CPU use with 1 MPI tasks x no OpenMP threads

MPI task timing breakdown:
Section |  min time  |  avg time  |  max time  |%varavg| %total
---------------------------------------------------------------
Pair    | 31.261     | 31.261     | 31.261     |   0.0 | 51.56
Neigh   | 28.026     | 28.026     | 28.026     |   0.0 | 46.22
Comm    | 0.42936    | 0.42936    | 0.42936    |   0.0 |  0.71
Output  | 0.14799    | 0.14799    | 0.14799    |   0.0 |  0.24
Modify  | 0.60322    | 0.60322    | 0.60322    |   0.0 |  0.99
Other   |            | 0.1633     |            |       |  0.27

Nlocal:    19652 ave 19652 max 19652 min
Histogram: 1 0 0 0 0 0 0 0 0 0
Nghost:    17930 ave 17930 max 17930 min
Histogram: 1 0 0 0 0 0 0 0 0 0
Neighs:    1.41832e+06 ave 1.41832e+06 max 1.41832e+06 min
Histogram: 1 0 0 0 0 0 0 0 0 0

Total # of neighbors = 1418320
Ave neighs/atom = 72.1718
Neighbor list builds = 495
Dangerous builds not checked
Setting up Verlet run ...
  Unit style    : metal
  Current step  : 67842
  Time step     : 0.001
Per MPI rank memory allocation (min/avg/max) = 18.2 | 18.2 | 18.2 Mbytes
Step Temp Press TotEng PotEng Enthalpy Volume 
   67842    376.44735    71.747062    -52900.58   -53856.791   -52884.851    351253.17 
   68014    367.95352    490.97441   -52962.511   -53897.146   -52855.038     350713.1 
Loop time of 19.613 on 1 procs for 172 steps with 19652 atoms

Performance: 0.758 ns/day, 31.675 hours/ns, 8.770 timesteps/s
100.0% CPU use with 1 MPI tasks x no OpenMP threads

MPI task timing breakdown:
Section |  min time  |  avg time  |  max time  |%varavg| %total
---------------------------------------------------------------
Pair    | 10.127     | 10.127     | 10.127     |   0.0 | 51.63
Neigh   | 9.1079     | 9.1079     | 9.1079     |   0.0 | 46.44
Comm    | 0.13576    | 0.13576    | 0.13576    |   0.0 |  0.69
Output  | 0.00015092 | 0.00015092 | 0.00015092 |   0.0 |  0.00
Modify  | 0.19139    | 0.19139    | 0.19139    |   0.0 |  0.98
Other   |            | 0.05093    |            |       |  0.26

Nlocal:    19652 ave 19652 max 19652 min
Histogram: 1 0 0 0 0 0 0 0 0 0
Nghost:    17883 ave 17883 max 17883 min
Histogram: 1 0 0 0 0 0 0 0 0 0
Neighs:    1.42017e+06 ave 1.42017e+06 max 1.42017e+06 min
Histogram: 1 0 0 0 0 0 0 0 0 0

Total # of neighbors = 1420167
Ave neighs/atom = 72.2658
Neighbor list builds = 172
Dangerous builds not checked
Setting up Verlet run ...
  Unit style    : metal
  Current step  : 68014
  Time step     : 0.001
Per MPI rank memory allocation (min/avg/max) = 18.2 | 18.2 | 18.2 Mbytes
Step Temp Press TotEng PotEng Enthalpy Volume 
   68014    367.95352    490.97441   -52962.511   -53897.146   -52855.038     350713.1 
   68034    367.50871    394.43463   -52964.523   -53898.028   -52878.173    350750.12 
   68509      325.109   -428.93562   -53194.954    -54020.76   -53288.613    349838.61 
Loop time of 62.7623 on 1 procs for 495 steps with 19652 atoms

Performance: 0.681 ns/day, 35.220 hours/ns, 7.887 timesteps/s
98.2% CPU use with 1 MPI tasks x no OpenMP threads

MPI task timing breakdown:
Section |  min time  |  avg time  |  max time  |%varavg| %total
---------------------------------------------------------------
Pair    | 32.536     | 32.536     | 32.536     |   0.0 | 51.84
Neigh   | 28.871     | 28.871     | 28.871     |   0.0 | 46.00
Comm    | 0.43881    | 0.43881    | 0.43881    |   0.0 |  0.70
Output  | 0.13684    | 0.13684    | 0.13684    |   0.0 |  0.22
Modify  | 0.61471    | 0.61471    | 0.61471    |   0.0 |  0.98
Other   |            | 0.1648     |            |       |  0.26

Nlocal:    19652 ave 19652 max 19652 min
Histogram: 1 0 0 0 0 0 0 0 0 0
Nghost:    17896 ave 17896 max 17896 min
Histogram: 1 0 0 0 0 0 0 0 0 0
Neighs:    1.42407e+06 ave 1.42407e+06 max 1.42407e+06 min
Histogram: 1 0 0 0 0 0 0 0 0 0

Total # of neighbors = 1424068
Ave neighs/atom = 72.4643
Neighbor list builds = 495
Dangerous builds not checked
Setting up Verlet run ...
  Unit style    : metal
  Current step  : 68509
  Time step     : 0.001
Per MPI rank memory allocation (min/avg/max) = 18.2 | 18.2 | 18.2 Mbytes
Step Temp Press TotEng PotEng Enthalpy Volume 
   68509      325.109   -428.93562   -53194.954    -54020.76   -53288.613    349838.61 
   68681    319.21523   -392.19421   -53253.346   -54064.182   -53338.876    349403.17 
Loop time of 19.6703 on 1 procs for 172 steps with 19652 atoms

Performance: 0.755 ns/day, 31.767 hours/ns, 8.744 timesteps/s
99.8% CPU use with 1 MPI tasks x no OpenMP threads

MPI task timing breakdown:
Section |  min time  |  avg time  |  max time  |%varavg| %total
---------------------------------------------------------------
Pair    | 10.276     | 10.276     | 10.276     |   0.0 | 52.24
Neigh   | 9.0061     | 9.0061     | 9.0061     |   0.0 | 45.79
Comm    | 0.14428    | 0.14428    | 0.14428    |   0.0 |  0.73
Output  | 0.000211   | 0.000211   | 0.000211   |   0.0 |  0.00
Modify  | 0.18826    | 0.18826    | 0.18826    |   0.0 |  0.96
Other   |            | 0.05596    |            |       |  0.28

Nlocal:    19652 ave 19652 max 19652 min
Histogram: 1 0 0 0 0 0 0 0 0 0
Nghost:    17926 ave 17926 max 17926 min
Histogram: 1 0 0 0 0 0 0 0 0 0
Neighs:    1.42584e+06 ave 1.42584e+06 max 1.42584e+06 min
Histogram: 1 0 0 0 0 0 0 0 0 0

Total # of neighbors = 1425842
Ave neighs/atom = 72.5545
Neighbor list builds = 172
Dangerous builds not checked
Setting up Verlet run ...
  Unit style    : metal
  Current step  : 68681
  Time step     : 0.001
Per MPI rank memory allocation (min/avg/max) = 18.2 | 18.2 | 18.2 Mbytes
Step Temp Press TotEng PotEng Enthalpy Volume 
   68681    319.21523   -392.19421   -53253.346   -54064.182   -53338.876    349403.17 
   68701    319.62253   -372.58713   -53255.564   -54067.435    -53336.81    349366.33 
   69176    278.81888    495.67816   -53477.088   -54185.314    -53369.45     347919.4 
Loop time of 67.7008 on 1 procs for 495 steps with 19652 atoms

Performance: 0.632 ns/day, 37.991 hours/ns, 7.312 timesteps/s
99.0% CPU use with 1 MPI tasks x no OpenMP threads

MPI task timing breakdown:
Section |  min time  |  avg time  |  max time  |%varavg| %total
---------------------------------------------------------------
Pair    | 35.624     | 35.624     | 35.624     |   0.0 | 52.62
Neigh   | 30.614     | 30.614     | 30.614     |   0.0 | 45.22
Comm    | 0.50252    | 0.50252    | 0.50252    |   0.0 |  0.74
Output  | 0.1053     | 0.1053     | 0.1053     |   0.0 |  0.16
Modify  | 0.66416    | 0.66416    | 0.66416    |   0.0 |  0.98
Other   |            | 0.1905     |            |       |  0.28

Nlocal:    19652 ave 19652 max 19652 min
Histogram: 1 0 0 0 0 0 0 0 0 0
Nghost:    17950 ave 17950 max 17950 min
Histogram: 1 0 0 0 0 0 0 0 0 0
Neighs:    1.4315e+06 ave 1.4315e+06 max 1.4315e+06 min
Histogram: 1 0 0 0 0 0 0 0 0 0

Total # of neighbors = 1431495
Ave neighs/atom = 72.8422
Neighbor list builds = 495
Dangerous builds not checked
Setting up Verlet run ...
  Unit style    : metal
  Current step  : 69176
  Time step     : 0.001
Per MPI rank memory allocation (min/avg/max) = 18.2 | 18.2 | 18.2 Mbytes
Step Temp Press TotEng PotEng Enthalpy Volume 
   69176    278.81888    495.67816   -53477.088   -54185.314    -53369.45     347919.4 
   69348     267.8084    294.31661   -53534.878   -54215.135   -53471.002    347719.96 
Loop time of 23.0976 on 1 procs for 172 steps with 19652 atoms

Performance: 0.643 ns/day, 37.302 hours/ns, 7.447 timesteps/s
98.6% CPU use with 1 MPI tasks x no OpenMP threads

MPI task timing breakdown:
Section |  min time  |  avg time  |  max time  |%varavg| %total
---------------------------------------------------------------
Pair    | 12.269     | 12.269     | 12.269     |   0.0 | 53.12
Neigh   | 10.366     | 10.366     | 10.366     |   0.0 | 44.88
Comm    | 0.17834    | 0.17834    | 0.17834    |   0.0 |  0.77
Output  | 0.0001781  | 0.0001781  | 0.0001781  |   0.0 |  0.00
Modify  | 0.2189     | 0.2189     | 0.2189     |   0.0 |  0.95
Other   |            | 0.06491    |            |       |  0.28

Nlocal:    19652 ave 19652 max 19652 min
Histogram: 1 0 0 0 0 0 0 0 0 0
Nghost:    17992 ave 17992 max 17992 min
Histogram: 1 0 0 0 0 0 0 0 0 0
Neighs:    1.43223e+06 ave 1.43223e+06 max 1.43223e+06 min
Histogram: 1 0 0 0 0 0 0 0 0 0

Total # of neighbors = 1432226
Ave neighs/atom = 72.8794
Neighbor list builds = 172
Dangerous builds not checked
Setting up Verlet run ...
  Unit style    : metal
  Current step  : 69348
  Time step     : 0.001
Per MPI rank memory allocation (min/avg/max) = 18.2 | 18.2 | 18.2 Mbytes
Step Temp Press TotEng PotEng Enthalpy Volume 
   69348     267.8084    294.31661   -53534.878   -54215.135   -53471.002    347719.96 
   69368    268.07762     148.8665   -53536.917   -54217.859   -53504.606    347747.79 
   69843    229.54079    187.28374   -53751.637   -54334.692   -53711.118    346636.05 
Loop time of 69.2697 on 1 procs for 495 steps with 19652 atoms

Performance: 0.617 ns/day, 38.872 hours/ns, 7.146 timesteps/s
99.9% CPU use with 1 MPI tasks x no OpenMP threads

MPI task timing breakdown:
Section |  min time  |  avg time  |  max time  |%varavg| %total
---------------------------------------------------------------
Pair    | 36.518     | 36.518     | 36.518     |   0.0 | 52.72
Neigh   | 31.225     | 31.225     | 31.225     |   0.0 | 45.08
Comm    | 0.51271    | 0.51271    | 0.51271    |   0.0 |  0.74
Output  | 0.13462    | 0.13462    | 0.13462    |   0.0 |  0.19
Modify  | 0.68381    | 0.68381    | 0.68381    |   0.0 |  0.99
Other   |            | 0.1954     |            |       |  0.28

Nlocal:    19652 ave 19652 max 19652 min
Histogram: 1 0 0 0 0 0 0 0 0 0
Nghost:    17975 ave 17975 max 17975 min
Histogram: 1 0 0 0 0 0 0 0 0 0
Neighs:    1.43673e+06 ave 1.43673e+06 max 1.43673e+06 min
Histogram: 1 0 0 0 0 0 0 0 0 0

Total # of neighbors = 1436733
Ave neighs/atom = 73.1087
Neighbor list builds = 495
Dangerous builds not checked
Setting up Verlet run ...
  Unit style    : metal
  Current step  : 69843
  Time step     : 0.001
Per MPI rank memory allocation (min/avg/max) = 18.2 | 18.2 | 18.2 Mbytes
Step Temp Press TotEng PotEng Enthalpy Volume 
   69843    229.54079    187.28374   -53751.637   -54334.692   -53711.118    346636.05 
   70015    219.23541    199.35807   -53807.957   -54364.835   -53764.867    346297.12 
Loop time of 22.4742 on 1 procs for 172 steps with 19652 atoms

Performance: 0.661 ns/day, 36.295 hours/ns, 7.653 timesteps/s
100.0% CPU use with 1 MPI tasks x no OpenMP threads

MPI task timing breakdown:
Section |  min time  |  avg time  |  max time  |%varavg| %total
---------------------------------------------------------------
Pair    | 11.814     | 11.814     | 11.814     |   0.0 | 52.57
Neigh   | 10.205     | 10.205     | 10.205     |   0.0 | 45.41
Comm    | 0.16713    | 0.16713    | 0.16713    |   0.0 |  0.74
Output  | 0.00018215 | 0.00018215 | 0.00018215 |   0.0 |  0.00
Modify  | 0.22341    | 0.22341    | 0.22341    |   0.0 |  0.99
Other   |            | 0.06464    |            |       |  0.29

Nlocal:    19652 ave 19652 max 19652 min
Histogram: 1 0 0 0 0 0 0 0 0 0
Nghost:    18011 ave 18011 max 18011 min
Histogram: 1 0 0 0 0 0 0 0 0 0
Neighs:    1.43824e+06 ave 1.43824e+06 max 1.43824e+06 min
Histogram: 1 0 0 0 0 0 0 0 0 0

Total # of neighbors = 1438239
Ave neighs/atom = 73.1854
Neighbor list builds = 172
Dangerous builds not checked
Setting up Verlet run ...
  Unit style    : metal
  Current step  : 70015
  Time step     : 0.001
Per MPI rank memory allocation (min/avg/max) = 18.2 | 18.2 | 18.2 Mbytes
Step Temp Press TotEng PotEng Enthalpy Volume 
   70015    219.23541    199.35807   -53807.957   -54364.835   -53764.867    346297.12 
   70035    219.12988    109.03683   -53810.166   -54366.776   -53786.597    346321.38 
   70510    180.68232    188.98879   -54018.967   -54477.917    -53978.24    345267.03 
Loop time of 66.0342 on 1 procs for 495 steps with 19652 atoms

Performance: 0.648 ns/day, 37.056 hours/ns, 7.496 timesteps/s
98.9% CPU use with 1 MPI tasks x no OpenMP threads

MPI task timing breakdown:
Section |  min time  |  avg time  |  max time  |%varavg| %total
---------------------------------------------------------------
Pair    | 34.675     | 34.675     | 34.675     |   0.0 | 52.51
Neigh   | 29.887     | 29.887     | 29.887     |   0.0 | 45.26
Comm    | 0.48246    | 0.48246    | 0.48246    |   0.0 |  0.73
Output  | 0.15931    | 0.15931    | 0.15931    |   0.0 |  0.24
Modify  | 0.64472    | 0.64472    | 0.64472    |   0.0 |  0.98
Other   |            | 0.1866     |            |       |  0.28

Nlocal:    19652 ave 19652 max 19652 min
Histogram: 1 0 0 0 0 0 0 0 0 0
Nghost:    18014 ave 18014 max 18014 min
Histogram: 1 0 0 0 0 0 0 0 0 0
Neighs:    1.44226e+06 ave 1.44226e+06 max 1.44226e+06 min
Histogram: 1 0 0 0 0 0 0 0 0 0

Total # of neighbors = 1442260
Ave neighs/atom = 73.39
Neighbor list builds = 495
Dangerous builds not checked
Setting up Verlet run ...
  Unit style    : metal
  Current step  : 70510
  Time step     : 0.001
Per MPI rank memory allocation (min/avg/max) = 18.2 | 18.2 | 18.2 Mbytes
Step Temp Press TotEng PotEng Enthalpy Volume 
   70510    180.68232    188.98879   -54018.967   -54477.917    -53978.24    345267.03 
   70682    171.25438   -109.75868   -54073.542   -54508.544   -54097.186    345132.43 
Loop time of 24.9727 on 1 procs for 172 steps with 19652 atoms

Performance: 0.595 ns/day, 40.331 hours/ns, 6.888 timesteps/s
100.0% CPU use with 1 MPI tasks x no OpenMP threads

MPI task timing breakdown:
Section |  min time  |  avg time  |  max time  |%varavg| %total
---------------------------------------------------------------
Pair    | 13.198     | 13.198     | 13.198     |   0.0 | 52.85
Neigh   | 11.268     | 11.268     | 11.268     |   0.0 | 45.12
Comm    | 0.18236    | 0.18236    | 0.18236    |   0.0 |  0.73
Output  | 0.00015712 | 0.00015712 | 0.00015712 |   0.0 |  0.00
Modify  | 0.25292    | 0.25292    | 0.25292    |   0.0 |  1.01
Other   |            | 0.07148    |            |       |  0.29

Nlocal:    19652 ave 19652 max 19652 min
Histogram: 1 0 0 0 0 0 0 0 0 0
Nghost:    17979 ave 17979 max 17979 min
Histogram: 1 0 0 0 0 0 0 0 0 0
Neighs:    1.44247e+06 ave 1.44247e+06 max 1.44247e+06 min
Histogram: 1 0 0 0 0 0 0 0 0 0

Total # of neighbors = 1442471
Ave neighs/atom = 73.4007
Neighbor list builds = 172
Dangerous builds not checked
Setting up Verlet run ...
  Unit style    : metal
  Current step  : 70682
  Time step     : 0.001
Per MPI rank memory allocation (min/avg/max) = 18.2 | 18.2 | 18.2 Mbytes
Step Temp Press TotEng PotEng Enthalpy Volume 
   70682    171.25438   -109.75868   -54073.542   -54508.544   -54097.186    345132.43 
   70702    171.68453   -125.18406   -54076.059   -54512.154   -54103.024    345110.27 
   71177    132.79109    309.51181   -54280.209    -54617.51    -54213.76    343965.89 
Loop time of 68.1004 on 1 procs for 495 steps with 19652 atoms

Performance: 0.628 ns/day, 38.216 hours/ns, 7.269 timesteps/s
98.4% CPU use with 1 MPI tasks x no OpenMP threads

MPI task timing breakdown:
Section |  min time  |  avg time  |  max time  |%varavg| %total
---------------------------------------------------------------
Pair    | 36.005     | 36.005     | 36.005     |   0.0 | 52.87
Neigh   | 30.597     | 30.597     | 30.597     |   0.0 | 44.93
Comm    | 0.51676    | 0.51676    | 0.51676    |   0.0 |  0.76
Output  | 0.1015     | 0.1015     | 0.1015     |   0.0 |  0.15
Modify  | 0.68525    | 0.68525    | 0.68525    |   0.0 |  1.01
Other   |            | 0.1951     |            |       |  0.29

Nlocal:    19652 ave 19652 max 19652 min
Histogram: 1 0 0 0 0 0 0 0 0 0
Nghost:    18033 ave 18033 max 18033 min
Histogram: 1 0 0 0 0 0 0 0 0 0
Neighs:    1.44722e+06 ave 1.44722e+06 max 1.44722e+06 min
Histogram: 1 0 0 0 0 0 0 0 0 0

Total # of neighbors = 1447219
Ave neighs/atom = 73.6423
Neighbor list builds = 495
Dangerous builds not checked
Setting up Verlet run ...
  Unit style    : metal
  Current step  : 71177
  Time step     : 0.001
Per MPI rank memory allocation (min/avg/max) = 18.2 | 18.2 | 18.2 Mbytes
Step Temp Press TotEng PotEng Enthalpy Volume 
   71177    132.79109    309.51181   -54280.209    -54617.51    -54213.76    343965.89 
   71349    122.58217   -8.5012056   -54335.258   -54646.628   -54337.083    343838.97 
Loop time of 23.4304 on 1 procs for 172 steps with 19652 atoms

Performance: 0.634 ns/day, 37.840 hours/ns, 7.341 timesteps/s
100.0% CPU use with 1 MPI tasks x no OpenMP threads

MPI task timing breakdown:
Section |  min time  |  avg time  |  max time  |%varavg| %total
---------------------------------------------------------------
Pair    | 12.444     | 12.444     | 12.444     |   0.0 | 53.11
Neigh   | 10.513     | 10.513     | 10.513     |   0.0 | 44.87
Comm    | 0.17516    | 0.17516    | 0.17516    |   0.0 |  0.75
Output  | 0.00016999 | 0.00016999 | 0.00016999 |   0.0 |  0.00
Modify  | 0.22979    | 0.22979    | 0.22979    |   0.0 |  0.98
Other   |            | 0.06788    |            |       |  0.29

Nlocal:    19652 ave 19652 max 19652 min
Histogram: 1 0 0 0 0 0 0 0 0 0
Nghost:    18058 ave 18058 max 18058 min
Histogram: 1 0 0 0 0 0 0 0 0 0
Neighs:    1.44788e+06 ave 1.44788e+06 max 1.44788e+06 min
Histogram: 1 0 0 0 0 0 0 0 0 0

Total # of neighbors = 1447885
Ave neighs/atom = 73.6762
Neighbor list builds = 172
Dangerous builds not checked
Total wall time: 2:34:54
