LAMMPS (12 Dec 2018)
Lattice spacing in x,y,z = 4 4 4
Created orthogonal box = (0 0 0) to (68 68 68)
  1 by 1 by 1 MPI processor grid
Created 19652 atoms
  Time spent = 0.0127499 secs
Setting atom values ...
  0 settings made for type/fraction
Neighbor list info ...
  update every 1 steps, delay 0 steps, check no
  max neighbors/atom: 2000, page size: 100000
  master list distance cutoff = 8.5
  ghost atom cutoff = 8.5
  binsize = 4.25, bins = 16 16 16
  1 neighbor lists, perpetual/occasional/extra = 1 0 0
  (1) pair eam/alloy, perpetual
      attributes: half, newton on
      pair build: half/bin/atomonly/newton
      stencil: half/bin/3d/newton
      bin: standard
Setting up Verlet run ...
  Unit style    : metal
  Current step  : 0
  Time step     : 0.001
Per MPI rank memory allocation (min/avg/max) = 18.19 | 18.19 | 18.19 Mbytes
Step Temp Press TotEng PotEng Enthalpy 
       0          300    269835.24   -20946.227   -21708.254    32009.758 
    1000    151.53525    268467.44   -20945.987   -21330.901    31741.562 
Loop time of 164.308 on 1 procs for 1000 steps with 19652 atoms

Performance: 0.526 ns/day, 45.641 hours/ns, 6.086 timesteps/s
99.9% CPU use with 1 MPI tasks x no OpenMP threads

MPI task timing breakdown:
Section |  min time  |  avg time  |  max time  |%varavg| %total
---------------------------------------------------------------
Pair    | 99.563     | 99.563     | 99.563     |   0.0 | 60.60
Neigh   | 62.037     | 62.037     | 62.037     |   0.0 | 37.76
Comm    | 1.5984     | 1.5984     | 1.5984     |   0.0 |  0.97
Output  | 0.00039196 | 0.00039196 | 0.00039196 |   0.0 |  0.00
Modify  | 0.64757    | 0.64757    | 0.64757    |   0.0 |  0.39
Other   |            | 0.4619     |            |       |  0.28

Nlocal:    19652 ave 19652 max 19652 min
Histogram: 1 0 0 0 0 0 0 0 0 0
Nghost:    20102 ave 20102 max 20102 min
Histogram: 1 0 0 0 0 0 0 0 0 0
Neighs:    1.57517e+06 ave 1.57517e+06 max 1.57517e+06 min
Histogram: 1 0 0 0 0 0 0 0 0 0

Total # of neighbors = 1575167
Ave neighs/atom = 80.153
Neighbor list builds = 1000
Dangerous builds not checked
Setting up Verlet run ...
  Unit style    : metal
  Current step  : 1000
  Time step     : 0.001
Per MPI rank memory allocation (min/avg/max) = 18.19 | 18.19 | 18.19 Mbytes
Step Temp Press TotEng PotEng Enthalpy 
    1000    151.53525    268467.44   -20945.987   -21330.901    31741.562 
    2000    256.14885    310.12524   -28379.176   -29029.817   -28291.066 
Loop time of 135.895 on 1 procs for 1000 steps with 19652 atoms

Performance: 0.636 ns/day, 37.749 hours/ns, 7.359 timesteps/s
99.8% CPU use with 1 MPI tasks x no OpenMP threads

MPI task timing breakdown:
Section |  min time  |  avg time  |  max time  |%varavg| %total
---------------------------------------------------------------
Pair    | 75.909     | 75.909     | 75.909     |   0.0 | 55.86
Neigh   | 56.373     | 56.373     | 56.373     |   0.0 | 41.48
Comm    | 1.3685     | 1.3685     | 1.3685     |   0.0 |  1.01
Output  | 0.051247   | 0.051247   | 0.051247   |   0.0 |  0.04
Modify  | 1.7615     | 1.7615     | 1.7615     |   0.0 |  1.30
Other   |            | 0.4322     |            |       |  0.32

Nlocal:    19652 ave 19652 max 19652 min
Histogram: 1 0 0 0 0 0 0 0 0 0
Nghost:    14808 ave 14808 max 14808 min
Histogram: 1 0 0 0 0 0 0 0 0 0
Neighs:    1.11809e+06 ave 1.11809e+06 max 1.11809e+06 min
Histogram: 1 0 0 0 0 0 0 0 0 0

Total # of neighbors = 1118088
Ave neighs/atom = 56.8944
Neighbor list builds = 1000
Dangerous builds not checked
Setting up Verlet run ...
  Unit style    : metal
  Current step  : 2000
  Time step     : 0.001
Per MPI rank memory allocation (min/avg/max) = 18.19 | 18.19 | 18.19 Mbytes
Step Temp Press TotEng PotEng Enthalpy 
    2000    256.14885    310.12524   -28379.176   -29029.817   -28291.066 
    4000    786.14071    59.429314   -25224.137   -27221.006   -25206.176 
    6000    1370.3836    20.791623   -20572.555   -24053.454    -20565.48 
    8000    1916.6886    296.19014    -17408.43   -22276.994    -17299.37 
   10000    2443.9213   -159.53826   -14156.091   -20363.874   -14221.166 
Loop time of 898.737 on 1 procs for 8000 steps with 19652 atoms

Performance: 0.769 ns/day, 31.206 hours/ns, 8.901 timesteps/s
99.8% CPU use with 1 MPI tasks x no OpenMP threads

MPI task timing breakdown:
Section |  min time  |  avg time  |  max time  |%varavg| %total
---------------------------------------------------------------
Pair    | 490.39     | 490.39     | 490.39     |   0.0 | 54.56
Neigh   | 380.68     | 380.68     | 380.68     |   0.0 | 42.36
Comm    | 10.41      | 10.41      | 10.41      |   0.0 |  1.16
Output  | 0.19873    | 0.19873    | 0.19873    |   0.0 |  0.02
Modify  | 13.768     | 13.768     | 13.768     |   0.0 |  1.53
Other   |            | 3.292      |            |       |  0.37

Nlocal:    19652 ave 19652 max 19652 min
Histogram: 1 0 0 0 0 0 0 0 0 0
Nghost:    13917 ave 13917 max 13917 min
Histogram: 1 0 0 0 0 0 0 0 0 0
Neighs:    750866 ave 750866 max 750866 min
Histogram: 1 0 0 0 0 0 0 0 0 0

Total # of neighbors = 750866
Ave neighs/atom = 38.2081
Neighbor list builds = 8000
Dangerous builds not checked
Setting up Verlet run ...
  Unit style    : metal
  Current step  : 10000
  Time step     : 0.001
Per MPI rank memory allocation (min/avg/max) = 18.2 | 18.2 | 18.2 Mbytes
Step Temp Press TotEng PotEng Enthalpy 
   10000    2443.9213   -159.53826   -14156.091   -20363.874   -14221.166 
   12000    2473.8525   -130.66705   -14033.203   -20317.014   -14086.703 
   14000    2447.9228   -293.03095   -13963.122   -20181.069   -14084.129 
   16000    2459.4861    2.9834612   -14009.904   -20257.223   -14008.679 
   18000    2469.5396    197.93355   -13956.909   -20229.765   -13875.432 
   20000    2465.8982    21.918242    -14017.63   -20281.236   -14008.632 
   22000    2456.9967    28.616089    -14010.11   -20251.105   -13998.334 
   24000    2455.2973    77.032035   -13994.342   -20231.021   -13962.626 
   26000     2458.956   -239.83745   -13990.976   -20236.948   -14089.898 
   28000     2452.627    66.430438   -13876.387   -20106.283   -13848.935 
   30000    2446.5255   -707.46806   -13968.187   -20182.585   -14261.471 
   32000    2456.2762   -611.15848   -13940.895    -20180.06   -14194.343 
   34000    2454.8645   -358.92818   -13898.201   -20133.781   -14047.103 
   36000    2439.0237   -403.04537   -13970.773   -20166.115   -14137.706 
   38000    2434.1094   -348.20273   -13974.641     -20157.5   -14118.758 
   40000    2437.2358   -77.151345   -14015.076   -20205.877   -14046.866 
Loop time of 3008.36 on 1 procs for 30000 steps with 19652 atoms

Performance: 0.862 ns/day, 27.855 hours/ns, 9.972 timesteps/s
99.8% CPU use with 1 MPI tasks x no OpenMP threads

MPI task timing breakdown:
Section |  min time  |  avg time  |  max time  |%varavg| %total
---------------------------------------------------------------
Pair    | 1553.9     | 1553.9     | 1553.9     |   0.0 | 51.65
Neigh   | 1350.8     | 1350.8     | 1350.8     |   0.0 | 44.90
Comm    | 39.27      | 39.27      | 39.27      |   0.0 |  1.31
Output  | 0.75831    | 0.75831    | 0.75831    |   0.0 |  0.03
Modify  | 51.547     | 51.547     | 51.547     |   0.0 |  1.71
Other   |            | 12.11      |            |       |  0.40

Nlocal:    19652 ave 19652 max 19652 min
Histogram: 1 0 0 0 0 0 0 0 0 0
Nghost:    13807 ave 13807 max 13807 min
Histogram: 1 0 0 0 0 0 0 0 0 0
Neighs:    743489 ave 743489 max 743489 min
Histogram: 1 0 0 0 0 0 0 0 0 0

Total # of neighbors = 743489
Ave neighs/atom = 37.8327
Neighbor list builds = 30000
Dangerous builds not checked
Setting up Verlet run ...
  Unit style    : metal
  Current step  : 40000
  Time step     : 0.001
Per MPI rank memory allocation (min/avg/max) = 18.2 | 18.2 | 18.2 Mbytes
Step Temp Press TotEng PotEng Enthalpy 
   40000    2437.2358   -77.151345   -14015.076   -20205.877   -14046.866 
   40495    2400.6502   -434.56387   -14189.185   -20287.055   -14367.751 
Loop time of 48.8003 on 1 procs for 495 steps with 19652 atoms

Performance: 0.876 ns/day, 27.385 hours/ns, 10.143 timesteps/s
99.9% CPU use with 1 MPI tasks x no OpenMP threads

MPI task timing breakdown:
Section |  min time  |  avg time  |  max time  |%varavg| %total
---------------------------------------------------------------
Pair    | 25.385     | 25.385     | 25.385     |   0.0 | 52.02
Neigh   | 21.737     | 21.737     | 21.737     |   0.0 | 44.54
Comm    | 0.62867    | 0.62867    | 0.62867    |   0.0 |  1.29
Output  | 0.00029802 | 0.00029802 | 0.00029802 |   0.0 |  0.00
Modify  | 0.85082    | 0.85082    | 0.85082    |   0.0 |  1.74
Other   |            | 0.1983     |            |       |  0.41

Nlocal:    19652 ave 19652 max 19652 min
Histogram: 1 0 0 0 0 0 0 0 0 0
Nghost:    13917 ave 13917 max 13917 min
Histogram: 1 0 0 0 0 0 0 0 0 0
Neighs:    745990 ave 745990 max 745990 min
Histogram: 1 0 0 0 0 0 0 0 0 0

Total # of neighbors = 745990
Ave neighs/atom = 37.96
Neighbor list builds = 495
Dangerous builds not checked
Setting up Verlet run ...
  Unit style    : metal
  Current step  : 40495
  Time step     : 0.001
Per MPI rank memory allocation (min/avg/max) = 18.2 | 18.2 | 18.2 Mbytes
Step Temp Press TotEng PotEng Enthalpy 
   40495    2400.6502   -434.56387   -14189.185   -20287.055   -14367.751 
   42000    2402.4919    278.36553   -14439.525   -20542.074   -14326.971 
Loop time of 151.131 on 1 procs for 1505 steps with 19652 atoms

Performance: 0.860 ns/day, 27.894 hours/ns, 9.958 timesteps/s
99.8% CPU use with 1 MPI tasks x no OpenMP threads

MPI task timing breakdown:
Section |  min time  |  avg time  |  max time  |%varavg| %total
---------------------------------------------------------------
Pair    | 78.684     | 78.684     | 78.684     |   0.0 | 52.06
Neigh   | 67.242     | 67.242     | 67.242     |   0.0 | 44.49
Comm    | 1.9572     | 1.9572     | 1.9572     |   0.0 |  1.30
Output  | 0.050772   | 0.050772   | 0.050772   |   0.0 |  0.03
Modify  | 2.5838     | 2.5838     | 2.5838     |   0.0 |  1.71
Other   |            | 0.6126     |            |       |  0.41

Nlocal:    19652 ave 19652 max 19652 min
Histogram: 1 0 0 0 0 0 0 0 0 0
Nghost:    14037 ave 14037 max 14037 min
Histogram: 1 0 0 0 0 0 0 0 0 0
Neighs:    757620 ave 757620 max 757620 min
Histogram: 1 0 0 0 0 0 0 0 0 0

Total # of neighbors = 757620
Ave neighs/atom = 38.5518
Neighbor list builds = 1505
Dangerous builds not checked
Setting up Verlet run ...
  Unit style    : metal
  Current step  : 42000
  Time step     : 0.001
Per MPI rank memory allocation (min/avg/max) = 18.2 | 18.2 | 18.2 Mbytes
Step Temp Press TotEng PotEng Enthalpy 
   42000    2402.4919    278.36553   -14439.525   -20542.074   -14326.971 
   42495     2365.387   -615.63293   -14531.451    -20539.75   -14781.537 
Loop time of 49.069 on 1 procs for 495 steps with 19652 atoms

Performance: 0.872 ns/day, 27.536 hours/ns, 10.088 timesteps/s
99.9% CPU use with 1 MPI tasks x no OpenMP threads

MPI task timing breakdown:
Section |  min time  |  avg time  |  max time  |%varavg| %total
---------------------------------------------------------------
Pair    | 25.603     | 25.603     | 25.603     |   0.0 | 52.18
Neigh   | 21.784     | 21.784     | 21.784     |   0.0 | 44.39
Comm    | 0.63261    | 0.63261    | 0.63261    |   0.0 |  1.29
Output  | 0.00030279 | 0.00030279 | 0.00030279 |   0.0 |  0.00
Modify  | 0.84887    | 0.84887    | 0.84887    |   0.0 |  1.73
Other   |            | 0.2007     |            |       |  0.41

Nlocal:    19652 ave 19652 max 19652 min
Histogram: 1 0 0 0 0 0 0 0 0 0
Nghost:    13969 ave 13969 max 13969 min
Histogram: 1 0 0 0 0 0 0 0 0 0
Neighs:    754327 ave 754327 max 754327 min
Histogram: 1 0 0 0 0 0 0 0 0 0

Total # of neighbors = 754327
Ave neighs/atom = 38.3842
Neighbor list builds = 495
Dangerous builds not checked
Setting up Verlet run ...
  Unit style    : metal
  Current step  : 42495
  Time step     : 0.001
Per MPI rank memory allocation (min/avg/max) = 18.2 | 18.2 | 18.2 Mbytes
Step Temp Press TotEng PotEng Enthalpy 
   42495     2365.387   -615.63293   -14531.451    -20539.75   -14781.537 
   44000    2361.1605   -139.17563   -14615.188   -20612.751   -14671.251 
Loop time of 151.617 on 1 procs for 1505 steps with 19652 atoms

Performance: 0.858 ns/day, 27.984 hours/ns, 9.926 timesteps/s
99.8% CPU use with 1 MPI tasks x no OpenMP threads

MPI task timing breakdown:
Section |  min time  |  avg time  |  max time  |%varavg| %total
---------------------------------------------------------------
Pair    | 79.123     | 79.123     | 79.123     |   0.0 | 52.19
Neigh   | 67.293     | 67.293     | 67.293     |   0.0 | 44.38
Comm    | 1.9543     | 1.9543     | 1.9543     |   0.0 |  1.29
Output  | 0.050544   | 0.050544   | 0.050544   |   0.0 |  0.03
Modify  | 2.583      | 2.583      | 2.583      |   0.0 |  1.70
Other   |            | 0.6124     |            |       |  0.40

Nlocal:    19652 ave 19652 max 19652 min
Histogram: 1 0 0 0 0 0 0 0 0 0
Nghost:    13993 ave 13993 max 13993 min
Histogram: 1 0 0 0 0 0 0 0 0 0
Neighs:    760269 ave 760269 max 760269 min
Histogram: 1 0 0 0 0 0 0 0 0 0

Total # of neighbors = 760269
Ave neighs/atom = 38.6866
Neighbor list builds = 1505
Dangerous builds not checked
Setting up Verlet run ...
  Unit style    : metal
  Current step  : 44000
  Time step     : 0.001
Per MPI rank memory allocation (min/avg/max) = 18.2 | 18.2 | 18.2 Mbytes
Step Temp Press TotEng PotEng Enthalpy 
   44000    2361.1605   -139.17563   -14615.188   -20612.751   -14671.251 
   44495    2312.7153    -80.03414   -14871.581   -20746.088   -14903.485 
Loop time of 49.407 on 1 procs for 495 steps with 19652 atoms

Performance: 0.866 ns/day, 27.726 hours/ns, 10.019 timesteps/s
99.5% CPU use with 1 MPI tasks x no OpenMP threads

MPI task timing breakdown:
Section |  min time  |  avg time  |  max time  |%varavg| %total
---------------------------------------------------------------
Pair    | 25.835     | 25.835     | 25.835     |   0.0 | 52.29
Neigh   | 21.875     | 21.875     | 21.875     |   0.0 | 44.27
Comm    | 0.63384    | 0.63384    | 0.63384    |   0.0 |  1.28
Output  | 0.00032091 | 0.00032091 | 0.00032091 |   0.0 |  0.00
Modify  | 0.86121    | 0.86121    | 0.86121    |   0.0 |  1.74
Other   |            | 0.2021     |            |       |  0.41

Nlocal:    19652 ave 19652 max 19652 min
Histogram: 1 0 0 0 0 0 0 0 0 0
Nghost:    14017 ave 14017 max 14017 min
Histogram: 1 0 0 0 0 0 0 0 0 0
Neighs:    768150 ave 768150 max 768150 min
Histogram: 1 0 0 0 0 0 0 0 0 0

Total # of neighbors = 768150
Ave neighs/atom = 39.0876
Neighbor list builds = 495
Dangerous builds not checked
Setting up Verlet run ...
  Unit style    : metal
  Current step  : 44495
  Time step     : 0.001
Per MPI rank memory allocation (min/avg/max) = 18.2 | 18.2 | 18.2 Mbytes
Step Temp Press TotEng PotEng Enthalpy 
   44495    2312.7153    -80.03414   -14871.581   -20746.088   -14903.485 
   46000    2295.4085   -426.93121   -14940.218   -20770.765   -15110.783 
Loop time of 152.156 on 1 procs for 1505 steps with 19652 atoms

Performance: 0.855 ns/day, 28.083 hours/ns, 9.891 timesteps/s
99.9% CPU use with 1 MPI tasks x no OpenMP threads

MPI task timing breakdown:
Section |  min time  |  avg time  |  max time  |%varavg| %total
---------------------------------------------------------------
Pair    | 79.772     | 79.772     | 79.772     |   0.0 | 52.43
Neigh   | 67.189     | 67.189     | 67.189     |   0.0 | 44.16
Comm    | 1.9536     | 1.9536     | 1.9536     |   0.0 |  1.28
Output  | 0.050539   | 0.050539   | 0.050539   |   0.0 |  0.03
Modify  | 2.5804     | 2.5804     | 2.5804     |   0.0 |  1.70
Other   |            | 0.6105     |            |       |  0.40

Nlocal:    19652 ave 19652 max 19652 min
Histogram: 1 0 0 0 0 0 0 0 0 0
Nghost:    14061 ave 14061 max 14061 min
Histogram: 1 0 0 0 0 0 0 0 0 0
Neighs:    766863 ave 766863 max 766863 min
Histogram: 1 0 0 0 0 0 0 0 0 0

Total # of neighbors = 766863
Ave neighs/atom = 39.0221
Neighbor list builds = 1505
Dangerous builds not checked
Setting up Verlet run ...
  Unit style    : metal
  Current step  : 46000
  Time step     : 0.001
Per MPI rank memory allocation (min/avg/max) = 18.2 | 18.2 | 18.2 Mbytes
Step Temp Press TotEng PotEng Enthalpy 
   46000    2295.4085   -426.93121   -14940.218   -20770.765   -15110.783 
   46495    2260.8137    494.89209   -15206.635   -20949.307   -15011.552 
Loop time of 49.631 on 1 procs for 495 steps with 19652 atoms

Performance: 0.862 ns/day, 27.851 hours/ns, 9.974 timesteps/s
99.9% CPU use with 1 MPI tasks x no OpenMP threads

MPI task timing breakdown:
Section |  min time  |  avg time  |  max time  |%varavg| %total
---------------------------------------------------------------
Pair    | 26.138     | 26.138     | 26.138     |   0.0 | 52.66
Neigh   | 21.798     | 21.798     | 21.798     |   0.0 | 43.92
Comm    | 0.64952    | 0.64952    | 0.64952    |   0.0 |  1.31
Output  | 0.00034094 | 0.00034094 | 0.00034094 |   0.0 |  0.00
Modify  | 0.84654    | 0.84654    | 0.84654    |   0.0 |  1.71
Other   |            | 0.1991     |            |       |  0.40

Nlocal:    19652 ave 19652 max 19652 min
Histogram: 1 0 0 0 0 0 0 0 0 0
Nghost:    14161 ave 14161 max 14161 min
Histogram: 1 0 0 0 0 0 0 0 0 0
Neighs:    777126 ave 777126 max 777126 min
Histogram: 1 0 0 0 0 0 0 0 0 0

Total # of neighbors = 777126
Ave neighs/atom = 39.5444
Neighbor list builds = 495
Dangerous builds not checked
Setting up Verlet run ...
  Unit style    : metal
  Current step  : 46495
  Time step     : 0.001
Per MPI rank memory allocation (min/avg/max) = 18.2 | 18.2 | 18.2 Mbytes
Step Temp Press TotEng PotEng Enthalpy 
   46495    2260.8137    494.89209   -15206.635   -20949.307   -15011.552 
   48000    2252.1461   -6.0935191   -15267.961   -20988.617   -15270.363 
Loop time of 153.924 on 1 procs for 1505 steps with 19652 atoms

Performance: 0.845 ns/day, 28.410 hours/ns, 9.778 timesteps/s
99.8% CPU use with 1 MPI tasks x no OpenMP threads

MPI task timing breakdown:
Section |  min time  |  avg time  |  max time  |%varavg| %total
---------------------------------------------------------------
Pair    | 81.42      | 81.42      | 81.42      |   0.0 | 52.90
Neigh   | 67.291     | 67.291     | 67.291     |   0.0 | 43.72
Comm    | 1.9632     | 1.9632     | 1.9632     |   0.0 |  1.28
Output  | 0.050968   | 0.050968   | 0.050968   |   0.0 |  0.03
Modify  | 2.5877     | 2.5877     | 2.5877     |   0.0 |  1.68
Other   |            | 0.6111     |            |       |  0.40

Nlocal:    19652 ave 19652 max 19652 min
Histogram: 1 0 0 0 0 0 0 0 0 0
Nghost:    14122 ave 14122 max 14122 min
Histogram: 1 0 0 0 0 0 0 0 0 0
Neighs:    777046 ave 777046 max 777046 min
Histogram: 1 0 0 0 0 0 0 0 0 0

Total # of neighbors = 777046
Ave neighs/atom = 39.5403
Neighbor list builds = 1505
Dangerous builds not checked
Setting up Verlet run ...
  Unit style    : metal
  Current step  : 48000
  Time step     : 0.001
Per MPI rank memory allocation (min/avg/max) = 18.2 | 18.2 | 18.2 Mbytes
Step Temp Press TotEng PotEng Enthalpy 
   48000    2252.1461   -6.0935191   -15267.961   -20988.617   -15270.363 
   48495    2214.0883    79.144252   -15512.722   -21136.707   -15481.839 
Loop time of 49.7319 on 1 procs for 495 steps with 19652 atoms

Performance: 0.860 ns/day, 27.908 hours/ns, 9.953 timesteps/s
99.8% CPU use with 1 MPI tasks x no OpenMP threads

MPI task timing breakdown:
Section |  min time  |  avg time  |  max time  |%varavg| %total
---------------------------------------------------------------
Pair    | 26.22      | 26.22      | 26.22      |   0.0 | 52.72
Neigh   | 21.824     | 21.824     | 21.824     |   0.0 | 43.88
Comm    | 0.63406    | 0.63406    | 0.63406    |   0.0 |  1.27
Output  | 0.00023103 | 0.00023103 | 0.00023103 |   0.0 |  0.00
Modify  | 0.85163    | 0.85163    | 0.85163    |   0.0 |  1.71
Other   |            | 0.2021     |            |       |  0.41

Nlocal:    19652 ave 19652 max 19652 min
Histogram: 1 0 0 0 0 0 0 0 0 0
Nghost:    14110 ave 14110 max 14110 min
Histogram: 1 0 0 0 0 0 0 0 0 0
Neighs:    785243 ave 785243 max 785243 min
Histogram: 1 0 0 0 0 0 0 0 0 0

Total # of neighbors = 785243
Ave neighs/atom = 39.9574
Neighbor list builds = 495
Dangerous builds not checked
Setting up Verlet run ...
  Unit style    : metal
  Current step  : 48495
  Time step     : 0.001
Per MPI rank memory allocation (min/avg/max) = 18.2 | 18.2 | 18.2 Mbytes
Step Temp Press TotEng PotEng Enthalpy 
   48495    2214.0883    79.144252   -15512.722   -21136.707   -15481.839 
   50000    2190.4258   -504.33214   -15614.769    -21178.65   -15811.988 
Loop time of 153.778 on 1 procs for 1505 steps with 19652 atoms

Performance: 0.846 ns/day, 28.383 hours/ns, 9.787 timesteps/s
99.8% CPU use with 1 MPI tasks x no OpenMP threads

MPI task timing breakdown:
Section |  min time  |  avg time  |  max time  |%varavg| %total
---------------------------------------------------------------
Pair    | 81.267     | 81.267     | 81.267     |   0.0 | 52.85
Neigh   | 67.304     | 67.304     | 67.304     |   0.0 | 43.77
Comm    | 1.9599     | 1.9599     | 1.9599     |   0.0 |  1.27
Output  | 0.050768   | 0.050768   | 0.050768   |   0.0 |  0.03
Modify  | 2.5842     | 2.5842     | 2.5842     |   0.0 |  1.68
Other   |            | 0.6127     |            |       |  0.40

Nlocal:    19652 ave 19652 max 19652 min
Histogram: 1 0 0 0 0 0 0 0 0 0
Nghost:    14159 ave 14159 max 14159 min
Histogram: 1 0 0 0 0 0 0 0 0 0
Neighs:    783119 ave 783119 max 783119 min
Histogram: 1 0 0 0 0 0 0 0 0 0

Total # of neighbors = 783119
Ave neighs/atom = 39.8493
Neighbor list builds = 1505
Dangerous builds not checked
Setting up Verlet run ...
  Unit style    : metal
  Current step  : 50000
  Time step     : 0.001
Per MPI rank memory allocation (min/avg/max) = 18.2 | 18.2 | 18.2 Mbytes
Step Temp Press TotEng PotEng Enthalpy 
   50000    2190.4258   -504.33214   -15614.769    -21178.65   -15811.988 
   50495    2152.9639     35.85321   -15829.115    -21297.84    -15815.24 
Loop time of 50.3151 on 1 procs for 495 steps with 19652 atoms

Performance: 0.850 ns/day, 28.235 hours/ns, 9.838 timesteps/s
99.2% CPU use with 1 MPI tasks x no OpenMP threads

MPI task timing breakdown:
Section |  min time  |  avg time  |  max time  |%varavg| %total
---------------------------------------------------------------
Pair    | 26.623     | 26.623     | 26.623     |   0.0 | 52.91
Neigh   | 21.998     | 21.998     | 21.998     |   0.0 | 43.72
Comm    | 0.63881    | 0.63881    | 0.63881    |   0.0 |  1.27
Output  | 0.00031209 | 0.00031209 | 0.00031209 |   0.0 |  0.00
Modify  | 0.85478    | 0.85478    | 0.85478    |   0.0 |  1.70
Other   |            | 0.2002     |            |       |  0.40

Nlocal:    19652 ave 19652 max 19652 min
Histogram: 1 0 0 0 0 0 0 0 0 0
Nghost:    14303 ave 14303 max 14303 min
Histogram: 1 0 0 0 0 0 0 0 0 0
Neighs:    791273 ave 791273 max 791273 min
Histogram: 1 0 0 0 0 0 0 0 0 0

Total # of neighbors = 791273
Ave neighs/atom = 40.2642
Neighbor list builds = 495
Dangerous builds not checked
Setting up Verlet run ...
  Unit style    : metal
  Current step  : 50495
  Time step     : 0.001
Per MPI rank memory allocation (min/avg/max) = 18.2 | 18.2 | 18.2 Mbytes
Step Temp Press TotEng PotEng Enthalpy 
   50495    2152.9639     35.85321   -15829.115    -21297.84    -15815.24 
   52000    2135.5244    6.8081162    -15914.93   -21339.357     -15912.3 
Loop time of 154.534 on 1 procs for 1505 steps with 19652 atoms

Performance: 0.841 ns/day, 28.522 hours/ns, 9.739 timesteps/s
99.8% CPU use with 1 MPI tasks x no OpenMP threads

MPI task timing breakdown:
Section |  min time  |  avg time  |  max time  |%varavg| %total
---------------------------------------------------------------
Pair    | 81.965     | 81.965     | 81.965     |   0.0 | 53.04
Neigh   | 67.348     | 67.348     | 67.348     |   0.0 | 43.58
Comm    | 1.9634     | 1.9634     | 1.9634     |   0.0 |  1.27
Output  | 0.050546   | 0.050546   | 0.050546   |   0.0 |  0.03
Modify  | 2.5948     | 2.5948     | 2.5948     |   0.0 |  1.68
Other   |            | 0.6122     |            |       |  0.40

Nlocal:    19652 ave 19652 max 19652 min
Histogram: 1 0 0 0 0 0 0 0 0 0
Nghost:    14325 ave 14325 max 14325 min
Histogram: 1 0 0 0 0 0 0 0 0 0
Neighs:    792448 ave 792448 max 792448 min
Histogram: 1 0 0 0 0 0 0 0 0 0

Total # of neighbors = 792448
Ave neighs/atom = 40.324
Neighbor list builds = 1505
Dangerous builds not checked
Setting up Verlet run ...
  Unit style    : metal
  Current step  : 52000
  Time step     : 0.001
Per MPI rank memory allocation (min/avg/max) = 18.2 | 18.2 | 18.2 Mbytes
Step Temp Press TotEng PotEng Enthalpy 
   52000    2135.5244    6.8081162    -15914.93   -21339.357     -15912.3 
   52495    2116.5839   -28.675502   -16155.149   -21531.465   -16166.113 
Loop time of 50.5451 on 1 procs for 495 steps with 19652 atoms

Performance: 0.846 ns/day, 28.364 hours/ns, 9.793 timesteps/s
99.9% CPU use with 1 MPI tasks x no OpenMP threads

MPI task timing breakdown:
Section |  min time  |  avg time  |  max time  |%varavg| %total
---------------------------------------------------------------
Pair    | 26.695     | 26.695     | 26.695     |   0.0 | 52.81
Neigh   | 22.157     | 22.157     | 22.157     |   0.0 | 43.84
Comm    | 0.63853    | 0.63853    | 0.63853    |   0.0 |  1.26
Output  | 0.00029898 | 0.00029898 | 0.00029898 |   0.0 |  0.00
Modify  | 0.852      | 0.852      | 0.852      |   0.0 |  1.69
Other   |            | 0.2023     |            |       |  0.40

Nlocal:    19652 ave 19652 max 19652 min
Histogram: 1 0 0 0 0 0 0 0 0 0
Nghost:    14436 ave 14436 max 14436 min
Histogram: 1 0 0 0 0 0 0 0 0 0
Neighs:    801107 ave 801107 max 801107 min
Histogram: 1 0 0 0 0 0 0 0 0 0

Total # of neighbors = 801107
Ave neighs/atom = 40.7647
Neighbor list builds = 495
Dangerous builds not checked
Setting up Verlet run ...
  Unit style    : metal
  Current step  : 52495
  Time step     : 0.001
Per MPI rank memory allocation (min/avg/max) = 18.22 | 18.22 | 18.22 Mbytes
Step Temp Press TotEng PotEng Enthalpy 
   52495    2116.5839   -28.675502   -16155.149   -21531.465   -16166.113 
   54000     2101.986    42.543716   -16167.583   -21506.819   -16151.296 
Loop time of 159.667 on 1 procs for 1505 steps with 19652 atoms

Performance: 0.814 ns/day, 29.470 hours/ns, 9.426 timesteps/s
99.9% CPU use with 1 MPI tasks x no OpenMP threads

MPI task timing breakdown:
Section |  min time  |  avg time  |  max time  |%varavg| %total
---------------------------------------------------------------
Pair    | 82.401     | 82.401     | 82.401     |   0.0 | 51.61
Neigh   | 72.078     | 72.078     | 72.078     |   0.0 | 45.14
Comm    | 1.9581     | 1.9581     | 1.9581     |   0.0 |  1.23
Output  | 0.050617   | 0.050617   | 0.050617   |   0.0 |  0.03
Modify  | 2.5718     | 2.5718     | 2.5718     |   0.0 |  1.61
Other   |            | 0.6075     |            |       |  0.38

Nlocal:    19652 ave 19652 max 19652 min
Histogram: 1 0 0 0 0 0 0 0 0 0
Nghost:    14284 ave 14284 max 14284 min
Histogram: 1 0 0 0 0 0 0 0 0 0
Neighs:    799818 ave 799818 max 799818 min
Histogram: 1 0 0 0 0 0 0 0 0 0

Total # of neighbors = 799818
Ave neighs/atom = 40.6991
Neighbor list builds = 1505
Dangerous builds not checked
Setting up Verlet run ...
  Unit style    : metal
  Current step  : 54000
  Time step     : 0.001
Per MPI rank memory allocation (min/avg/max) = 18.22 | 18.22 | 18.22 Mbytes
Step Temp Press TotEng PotEng Enthalpy 
   54000     2101.986    42.543716   -16167.583   -21506.819   -16151.296 
   54495    2064.7604    370.40067   -16423.027   -21667.707   -16282.462 
Loop time of 51.905 on 1 procs for 495 steps with 19652 atoms

Performance: 0.824 ns/day, 29.127 hours/ns, 9.537 timesteps/s
99.8% CPU use with 1 MPI tasks x no OpenMP threads

MPI task timing breakdown:
Section |  min time  |  avg time  |  max time  |%varavg| %total
---------------------------------------------------------------
Pair    | 26.808     | 26.808     | 26.808     |   0.0 | 51.65
Neigh   | 23.41      | 23.41      | 23.41      |   0.0 | 45.10
Comm    | 0.63553    | 0.63553    | 0.63553    |   0.0 |  1.22
Output  | 0.00029492 | 0.00029492 | 0.00029492 |   0.0 |  0.00
Modify  | 0.84938    | 0.84938    | 0.84938    |   0.0 |  1.64
Other   |            | 0.2014     |            |       |  0.39

Nlocal:    19652 ave 19652 max 19652 min
Histogram: 1 0 0 0 0 0 0 0 0 0
Nghost:    14372 ave 14372 max 14372 min
Histogram: 1 0 0 0 0 0 0 0 0 0
Neighs:    806929 ave 806929 max 806929 min
Histogram: 1 0 0 0 0 0 0 0 0 0

Total # of neighbors = 806929
Ave neighs/atom = 41.0609
Neighbor list builds = 495
Dangerous builds not checked
Setting up Verlet run ...
  Unit style    : metal
  Current step  : 54495
  Time step     : 0.001
Per MPI rank memory allocation (min/avg/max) = 18.22 | 18.22 | 18.22 Mbytes
Step Temp Press TotEng PotEng Enthalpy 
   54495    2064.7604    370.40067   -16423.027   -21667.707   -16282.462 
   56000    2078.8638   -668.35601   -16458.367   -21738.871   -16712.304 
Loop time of 160.452 on 1 procs for 1505 steps with 19652 atoms

Performance: 0.810 ns/day, 29.615 hours/ns, 9.380 timesteps/s
99.7% CPU use with 1 MPI tasks x no OpenMP threads

MPI task timing breakdown:
Section |  min time  |  avg time  |  max time  |%varavg| %total
---------------------------------------------------------------
Pair    | 83.103     | 83.103     | 83.103     |   0.0 | 51.79
Neigh   | 72.144     | 72.144     | 72.144     |   0.0 | 44.96
Comm    | 1.9681     | 1.9681     | 1.9681     |   0.0 |  1.23
Output  | 0.050963   | 0.050963   | 0.050963   |   0.0 |  0.03
Modify  | 2.5781     | 2.5781     | 2.5781     |   0.0 |  1.61
Other   |            | 0.6082     |            |       |  0.38

Nlocal:    19652 ave 19652 max 19652 min
Histogram: 1 0 0 0 0 0 0 0 0 0
Nghost:    14371 ave 14371 max 14371 min
Histogram: 1 0 0 0 0 0 0 0 0 0
Neighs:    805392 ave 805392 max 805392 min
Histogram: 1 0 0 0 0 0 0 0 0 0

Total # of neighbors = 805392
Ave neighs/atom = 40.9827
Neighbor list builds = 1505
Dangerous builds not checked
Setting up Verlet run ...
  Unit style    : metal
  Current step  : 56000
  Time step     : 0.001
Per MPI rank memory allocation (min/avg/max) = 18.22 | 18.22 | 18.22 Mbytes
Step Temp Press TotEng PotEng Enthalpy 
   56000    2078.8638   -668.35601   -16458.367   -21738.871   -16712.304 
   56495    2017.8617    120.26602   -16727.116   -21852.668   -16681.875 
Loop time of 52.0777 on 1 procs for 495 steps with 19652 atoms

Performance: 0.821 ns/day, 29.224 hours/ns, 9.505 timesteps/s
99.9% CPU use with 1 MPI tasks x no OpenMP threads

MPI task timing breakdown:
Section |  min time  |  avg time  |  max time  |%varavg| %total
---------------------------------------------------------------
Pair    | 27.005     | 27.005     | 27.005     |   0.0 | 51.85
Neigh   | 23.387     | 23.387     | 23.387     |   0.0 | 44.91
Comm    | 0.63604    | 0.63604    | 0.63604    |   0.0 |  1.22
Output  | 0.00030899 | 0.00030899 | 0.00030899 |   0.0 |  0.00
Modify  | 0.84878    | 0.84878    | 0.84878    |   0.0 |  1.63
Other   |            | 0.2007     |            |       |  0.39

Nlocal:    19652 ave 19652 max 19652 min
Histogram: 1 0 0 0 0 0 0 0 0 0
Nghost:    14323 ave 14323 max 14323 min
Histogram: 1 0 0 0 0 0 0 0 0 0
Neighs:    814483 ave 814483 max 814483 min
Histogram: 1 0 0 0 0 0 0 0 0 0

Total # of neighbors = 814483
Ave neighs/atom = 41.4453
Neighbor list builds = 495
Dangerous builds not checked
Setting up Verlet run ...
  Unit style    : metal
  Current step  : 56495
  Time step     : 0.001
Per MPI rank memory allocation (min/avg/max) = 18.22 | 18.22 | 18.22 Mbytes
Step Temp Press TotEng PotEng Enthalpy 
   56495    2017.8617    120.26602   -16727.116   -21852.668   -16681.875 
   58000    1995.3163    216.95528   -16825.882   -21894.167   -16744.506 
Loop time of 161.515 on 1 procs for 1505 steps with 19652 atoms

Performance: 0.805 ns/day, 29.811 hours/ns, 9.318 timesteps/s
99.4% CPU use with 1 MPI tasks x no OpenMP threads

MPI task timing breakdown:
Section |  min time  |  avg time  |  max time  |%varavg| %total
---------------------------------------------------------------
Pair    | 83.858     | 83.858     | 83.858     |   0.0 | 51.92
Neigh   | 72.409     | 72.409     | 72.409     |   0.0 | 44.83
Comm    | 1.9686     | 1.9686     | 1.9686     |   0.0 |  1.22
Output  | 0.050621   | 0.050621   | 0.050621   |   0.0 |  0.03
Modify  | 2.6167     | 2.6167     | 2.6167     |   0.0 |  1.62
Other   |            | 0.6119     |            |       |  0.38

Nlocal:    19652 ave 19652 max 19652 min
Histogram: 1 0 0 0 0 0 0 0 0 0
Nghost:    14451 ave 14451 max 14451 min
Histogram: 1 0 0 0 0 0 0 0 0 0
Neighs:    816621 ave 816621 max 816621 min
Histogram: 1 0 0 0 0 0 0 0 0 0

Total # of neighbors = 816621
Ave neighs/atom = 41.5541
Neighbor list builds = 1505
Dangerous builds not checked
Setting up Verlet run ...
  Unit style    : metal
  Current step  : 58000
  Time step     : 0.001
Per MPI rank memory allocation (min/avg/max) = 18.22 | 18.22 | 18.22 Mbytes
Step Temp Press TotEng PotEng Enthalpy 
   58000    1995.3163    216.95528   -16825.882   -21894.167   -16744.506 
   58495    1955.0236    185.24986   -17037.191   -22003.129   -16968.137 
Loop time of 52.3409 on 1 procs for 495 steps with 19652 atoms

Performance: 0.817 ns/day, 29.372 hours/ns, 9.457 timesteps/s
99.9% CPU use with 1 MPI tasks x no OpenMP threads

MPI task timing breakdown:
Section |  min time  |  avg time  |  max time  |%varavg| %total
---------------------------------------------------------------
Pair    | 27.213     | 27.213     | 27.213     |   0.0 | 51.99
Neigh   | 23.443     | 23.443     | 23.443     |   0.0 | 44.79
Comm    | 0.63583    | 0.63583    | 0.63583    |   0.0 |  1.21
Output  | 0.00031614 | 0.00031614 | 0.00031614 |   0.0 |  0.00
Modify  | 0.84853    | 0.84853    | 0.84853    |   0.0 |  1.62
Other   |            | 0.201      |            |       |  0.38

Nlocal:    19652 ave 19652 max 19652 min
Histogram: 1 0 0 0 0 0 0 0 0 0
Nghost:    14482 ave 14482 max 14482 min
Histogram: 1 0 0 0 0 0 0 0 0 0
Neighs:    821920 ave 821920 max 821920 min
Histogram: 1 0 0 0 0 0 0 0 0 0

Total # of neighbors = 821920
Ave neighs/atom = 41.8237
Neighbor list builds = 495
Dangerous builds not checked
Setting up Verlet run ...
  Unit style    : metal
  Current step  : 58495
  Time step     : 0.001
Per MPI rank memory allocation (min/avg/max) = 18.22 | 18.22 | 18.22 Mbytes
Step Temp Press TotEng PotEng Enthalpy 
   58495    1955.0236    185.24986   -17037.191   -22003.129   -16968.137 
   60000    1951.3508   -3.5860036   -17098.402   -22055.011   -17099.739 
Loop time of 161.227 on 1 procs for 1505 steps with 19652 atoms

Performance: 0.807 ns/day, 29.758 hours/ns, 9.335 timesteps/s
99.9% CPU use with 1 MPI tasks x no OpenMP threads

MPI task timing breakdown:
Section |  min time  |  avg time  |  max time  |%varavg| %total
---------------------------------------------------------------
Pair    | 83.984     | 83.984     | 83.984     |   0.0 | 52.09
Neigh   | 72.04      | 72.04      | 72.04      |   0.0 | 44.68
Comm    | 1.9652     | 1.9652     | 1.9652     |   0.0 |  1.22
Output  | 0.050893   | 0.050893   | 0.050893   |   0.0 |  0.03
Modify  | 2.5741     | 2.5741     | 2.5741     |   0.0 |  1.60
Other   |            | 0.6115     |            |       |  0.38

Nlocal:    19652 ave 19652 max 19652 min
Histogram: 1 0 0 0 0 0 0 0 0 0
Nghost:    14477 ave 14477 max 14477 min
Histogram: 1 0 0 0 0 0 0 0 0 0
Neighs:    822065 ave 822065 max 822065 min
Histogram: 1 0 0 0 0 0 0 0 0 0

Total # of neighbors = 822065
Ave neighs/atom = 41.8311
Neighbor list builds = 1505
Dangerous builds not checked
Setting up Verlet run ...
  Unit style    : metal
  Current step  : 60000
  Time step     : 0.001
Per MPI rank memory allocation (min/avg/max) = 18.22 | 18.22 | 18.22 Mbytes
Step Temp Press TotEng PotEng Enthalpy 
   60000    1951.3508   -3.5860036   -17098.402   -22055.011   -17099.739 
   60495    1924.4102    205.07711   -17322.066   -22210.243    -17246.24 
Loop time of 52.4983 on 1 procs for 495 steps with 19652 atoms

Performance: 0.815 ns/day, 29.460 hours/ns, 9.429 timesteps/s
99.9% CPU use with 1 MPI tasks x no OpenMP threads

MPI task timing breakdown:
Section |  min time  |  avg time  |  max time  |%varavg| %total
---------------------------------------------------------------
Pair    | 27.357     | 27.357     | 27.357     |   0.0 | 52.11
Neigh   | 23.458     | 23.458     | 23.458     |   0.0 | 44.68
Comm    | 0.63606    | 0.63606    | 0.63606    |   0.0 |  1.21
Output  | 0.00031114 | 0.00031114 | 0.00031114 |   0.0 |  0.00
Modify  | 0.84674    | 0.84674    | 0.84674    |   0.0 |  1.61
Other   |            | 0.2001     |            |       |  0.38

Nlocal:    19652 ave 19652 max 19652 min
Histogram: 1 0 0 0 0 0 0 0 0 0
Nghost:    14538 ave 14538 max 14538 min
Histogram: 1 0 0 0 0 0 0 0 0 0
Neighs:    828660 ave 828660 max 828660 min
Histogram: 1 0 0 0 0 0 0 0 0 0

Total # of neighbors = 828660
Ave neighs/atom = 42.1667
Neighbor list builds = 495
Dangerous builds not checked
Setting up Verlet run ...
  Unit style    : metal
  Current step  : 60495
  Time step     : 0.001
Per MPI rank memory allocation (min/avg/max) = 18.22 | 18.22 | 18.22 Mbytes
Step Temp Press TotEng PotEng Enthalpy 
   60495    1924.4102    205.07711   -17322.066   -22210.243    -17246.24 
   62000    1909.7103    554.27078   -17421.913   -22272.751   -17217.941 
Loop time of 162.381 on 1 procs for 1505 steps with 19652 atoms

Performance: 0.801 ns/day, 29.971 hours/ns, 9.268 timesteps/s
99.5% CPU use with 1 MPI tasks x no OpenMP threads

MPI task timing breakdown:
Section |  min time  |  avg time  |  max time  |%varavg| %total
---------------------------------------------------------------
Pair    | 84.828     | 84.828     | 84.828     |   0.0 | 52.24
Neigh   | 72.335     | 72.335     | 72.335     |   0.0 | 44.55
Comm    | 1.9702     | 1.9702     | 1.9702     |   0.0 |  1.21
Output  | 0.050947   | 0.050947   | 0.050947   |   0.0 |  0.03
Modify  | 2.5843     | 2.5843     | 2.5843     |   0.0 |  1.59
Other   |            | 0.613      |            |       |  0.38

Nlocal:    19652 ave 19652 max 19652 min
Histogram: 1 0 0 0 0 0 0 0 0 0
Nghost:    14481 ave 14481 max 14481 min
Histogram: 1 0 0 0 0 0 0 0 0 0
Neighs:    832640 ave 832640 max 832640 min
Histogram: 1 0 0 0 0 0 0 0 0 0

Total # of neighbors = 832640
Ave neighs/atom = 42.3692
Neighbor list builds = 1505
Dangerous builds not checked
Setting up Verlet run ...
  Unit style    : metal
  Current step  : 62000
  Time step     : 0.001
Per MPI rank memory allocation (min/avg/max) = 18.22 | 18.22 | 18.22 Mbytes
Step Temp Press TotEng PotEng Enthalpy 
   62000    1909.7103    554.27078   -17421.913   -22272.751   -17217.941 
   62495    1866.1338   -125.53676    -17574.11   -22314.259   -17620.355 
Loop time of 52.6351 on 1 procs for 495 steps with 19652 atoms

Performance: 0.813 ns/day, 29.537 hours/ns, 9.404 timesteps/s
99.9% CPU use with 1 MPI tasks x no OpenMP threads

MPI task timing breakdown:
Section |  min time  |  avg time  |  max time  |%varavg| %total
---------------------------------------------------------------
Pair    | 27.526     | 27.526     | 27.526     |   0.0 | 52.30
Neigh   | 23.422     | 23.422     | 23.422     |   0.0 | 44.50
Comm    | 0.63666    | 0.63666    | 0.63666    |   0.0 |  1.21
Output  | 0.00030208 | 0.00030208 | 0.00030208 |   0.0 |  0.00
Modify  | 0.84797    | 0.84797    | 0.84797    |   0.0 |  1.61
Other   |            | 0.2021     |            |       |  0.38

Nlocal:    19652 ave 19652 max 19652 min
Histogram: 1 0 0 0 0 0 0 0 0 0
Nghost:    14485 ave 14485 max 14485 min
Histogram: 1 0 0 0 0 0 0 0 0 0
Neighs:    831333 ave 831333 max 831333 min
Histogram: 1 0 0 0 0 0 0 0 0 0

Total # of neighbors = 831333
Ave neighs/atom = 42.3027
Neighbor list builds = 495
Dangerous builds not checked
Setting up Verlet run ...
  Unit style    : metal
  Current step  : 62495
  Time step     : 0.001
Per MPI rank memory allocation (min/avg/max) = 18.22 | 18.22 | 18.22 Mbytes
Step Temp Press TotEng PotEng Enthalpy 
   62495    1866.1338   -125.53676    -17574.11   -22314.259   -17620.355 
   64000    1847.3642    181.35659   -17668.444   -22360.917   -17602.004 
Loop time of 162.341 on 1 procs for 1505 steps with 19652 atoms

Performance: 0.801 ns/day, 29.963 hours/ns, 9.271 timesteps/s
99.8% CPU use with 1 MPI tasks x no OpenMP threads

MPI task timing breakdown:
Section |  min time  |  avg time  |  max time  |%varavg| %total
---------------------------------------------------------------
Pair    | 85.001     | 85.001     | 85.001     |   0.0 | 52.36
Neigh   | 72.117     | 72.117     | 72.117     |   0.0 | 44.42
Comm    | 1.9687     | 1.9687     | 1.9687     |   0.0 |  1.21
Output  | 0.051143   | 0.051143   | 0.051143   |   0.0 |  0.03
Modify  | 2.5863     | 2.5863     | 2.5863     |   0.0 |  1.59
Other   |            | 0.617      |            |       |  0.38

Nlocal:    19652 ave 19652 max 19652 min
Histogram: 1 0 0 0 0 0 0 0 0 0
Nghost:    14599 ave 14599 max 14599 min
Histogram: 1 0 0 0 0 0 0 0 0 0
Neighs:    836411 ave 836411 max 836411 min
Histogram: 1 0 0 0 0 0 0 0 0 0

Total # of neighbors = 836411
Ave neighs/atom = 42.5611
Neighbor list builds = 1505
Dangerous builds not checked
Setting up Verlet run ...
  Unit style    : metal
  Current step  : 64000
  Time step     : 0.001
Per MPI rank memory allocation (min/avg/max) = 18.22 | 18.22 | 18.22 Mbytes
Step Temp Press TotEng PotEng Enthalpy 
   64000    1847.3642    181.35659   -17668.444   -22360.917   -17602.004 
   64495      1812.31    460.43718   -17923.095   -22526.528   -17755.758 
Loop time of 52.954 on 1 procs for 495 steps with 19652 atoms

Performance: 0.808 ns/day, 29.716 hours/ns, 9.348 timesteps/s
99.8% CPU use with 1 MPI tasks x no OpenMP threads

MPI task timing breakdown:
Section |  min time  |  avg time  |  max time  |%varavg| %total
---------------------------------------------------------------
Pair    | 27.803     | 27.803     | 27.803     |   0.0 | 52.50
Neigh   | 23.46      | 23.46      | 23.46      |   0.0 | 44.30
Comm    | 0.63925    | 0.63925    | 0.63925    |   0.0 |  1.21
Output  | 0.00033808 | 0.00033808 | 0.00033808 |   0.0 |  0.00
Modify  | 0.84962    | 0.84962    | 0.84962    |   0.0 |  1.60
Other   |            | 0.2025     |            |       |  0.38

Nlocal:    19652 ave 19652 max 19652 min
Histogram: 1 0 0 0 0 0 0 0 0 0
Nghost:    14542 ave 14542 max 14542 min
Histogram: 1 0 0 0 0 0 0 0 0 0
Neighs:    843017 ave 843017 max 843017 min
Histogram: 1 0 0 0 0 0 0 0 0 0

Total # of neighbors = 843017
Ave neighs/atom = 42.8973
Neighbor list builds = 495
Dangerous builds not checked
Setting up Verlet run ...
  Unit style    : metal
  Current step  : 64495
  Time step     : 0.001
Per MPI rank memory allocation (min/avg/max) = 18.22 | 18.22 | 18.22 Mbytes
Step Temp Press TotEng PotEng Enthalpy 
   64495      1812.31    460.43718   -17923.095   -22526.528   -17755.758 
   66000    1805.0671    405.89539   -18002.862   -22587.897   -17855.626 
Loop time of 162.992 on 1 procs for 1505 steps with 19652 atoms

Performance: 0.798 ns/day, 30.083 hours/ns, 9.234 timesteps/s
99.9% CPU use with 1 MPI tasks x no OpenMP threads

MPI task timing breakdown:
Section |  min time  |  avg time  |  max time  |%varavg| %total
---------------------------------------------------------------
Pair    | 85.687     | 85.687     | 85.687     |   0.0 | 52.57
Neigh   | 72.075     | 72.075     | 72.075     |   0.0 | 44.22
Comm    | 1.98       | 1.98       | 1.98       |   0.0 |  1.21
Output  | 0.050981   | 0.050981   | 0.050981   |   0.0 |  0.03
Modify  | 2.5817     | 2.5817     | 2.5817     |   0.0 |  1.58
Other   |            | 0.617      |            |       |  0.38

Nlocal:    19652 ave 19652 max 19652 min
Histogram: 1 0 0 0 0 0 0 0 0 0
Nghost:    14688 ave 14688 max 14688 min
Histogram: 1 0 0 0 0 0 0 0 0 0
Neighs:    844560 ave 844560 max 844560 min
Histogram: 1 0 0 0 0 0 0 0 0 0

Total # of neighbors = 844560
Ave neighs/atom = 42.9758
Neighbor list builds = 1505
Dangerous builds not checked
Setting up Verlet run ...
  Unit style    : metal
  Current step  : 66000
  Time step     : 0.001
Per MPI rank memory allocation (min/avg/max) = 18.22 | 18.22 | 18.22 Mbytes
Step Temp Press TotEng PotEng Enthalpy 
   66000    1805.0671    405.89539   -18002.862   -22587.897   -17855.626 
   66495     1757.157    114.11391   -18193.418   -22656.756   -18152.122 
Loop time of 53.2942 on 1 procs for 495 steps with 19652 atoms

Performance: 0.802 ns/day, 29.907 hours/ns, 9.288 timesteps/s
99.9% CPU use with 1 MPI tasks x no OpenMP threads

MPI task timing breakdown:
Section |  min time  |  avg time  |  max time  |%varavg| %total
---------------------------------------------------------------
Pair    | 28.126     | 28.126     | 28.126     |   0.0 | 52.78
Neigh   | 23.471     | 23.471     | 23.471     |   0.0 | 44.04
Comm    | 0.64157    | 0.64157    | 0.64157    |   0.0 |  1.20
Output  | 0.00023293 | 0.00023293 | 0.00023293 |   0.0 |  0.00
Modify  | 0.85175    | 0.85175    | 0.85175    |   0.0 |  1.60
Other   |            | 0.2032     |            |       |  0.38

Nlocal:    19652 ave 19652 max 19652 min
Histogram: 1 0 0 0 0 0 0 0 0 0
Nghost:    14687 ave 14687 max 14687 min
Histogram: 1 0 0 0 0 0 0 0 0 0
Neighs:    846807 ave 846807 max 846807 min
Histogram: 1 0 0 0 0 0 0 0 0 0

Total # of neighbors = 846807
Ave neighs/atom = 43.0901
Neighbor list builds = 495
Dangerous builds not checked
Setting up Verlet run ...
  Unit style    : metal
  Current step  : 66495
  Time step     : 0.001
Per MPI rank memory allocation (min/avg/max) = 18.22 | 18.22 | 18.22 Mbytes
Step Temp Press TotEng PotEng Enthalpy 
   66495     1757.157    114.11391   -18193.418   -22656.756   -18152.122 
   68000    1755.8157    512.91651   -18258.599   -22718.531   -18073.901 
Loop time of 164.162 on 1 procs for 1505 steps with 19652 atoms

Performance: 0.792 ns/day, 30.299 hours/ns, 9.168 timesteps/s
99.6% CPU use with 1 MPI tasks x no OpenMP threads

MPI task timing breakdown:
Section |  min time  |  avg time  |  max time  |%varavg| %total
---------------------------------------------------------------
Pair    | 86.732     | 86.732     | 86.732     |   0.0 | 52.83
Neigh   | 72.202     | 72.202     | 72.202     |   0.0 | 43.98
Comm    | 1.9775     | 1.9775     | 1.9775     |   0.0 |  1.20
Output  | 0.051262   | 0.051262   | 0.051262   |   0.0 |  0.03
Modify  | 2.5832     | 2.5832     | 2.5832     |   0.0 |  1.57
Other   |            | 0.6156     |            |       |  0.38

Nlocal:    19652 ave 19652 max 19652 min
Histogram: 1 0 0 0 0 0 0 0 0 0
Nghost:    14645 ave 14645 max 14645 min
Histogram: 1 0 0 0 0 0 0 0 0 0
Neighs:    850786 ave 850786 max 850786 min
Histogram: 1 0 0 0 0 0 0 0 0 0

Total # of neighbors = 850786
Ave neighs/atom = 43.2926
Neighbor list builds = 1505
Dangerous builds not checked
Setting up Verlet run ...
  Unit style    : metal
  Current step  : 68000
  Time step     : 0.001
Per MPI rank memory allocation (min/avg/max) = 18.22 | 18.22 | 18.22 Mbytes
Step Temp Press TotEng PotEng Enthalpy 
   68000    1755.8157    512.91651   -18258.599   -22718.531   -18073.901 
   68495    1712.9769   -45.104394   -18461.052   -22812.169   -18477.264 
Loop time of 53.4058 on 1 procs for 495 steps with 19652 atoms

Performance: 0.801 ns/day, 29.970 hours/ns, 9.269 timesteps/s
99.9% CPU use with 1 MPI tasks x no OpenMP threads

MPI task timing breakdown:
Section |  min time  |  avg time  |  max time  |%varavg| %total
---------------------------------------------------------------
Pair    | 28.258     | 28.258     | 28.258     |   0.0 | 52.91
Neigh   | 23.454     | 23.454     | 23.454     |   0.0 | 43.92
Comm    | 0.63871    | 0.63871    | 0.63871    |   0.0 |  1.20
Output  | 0.00028896 | 0.00028896 | 0.00028896 |   0.0 |  0.00
Modify  | 0.85121    | 0.85121    | 0.85121    |   0.0 |  1.59
Other   |            | 0.2033     |            |       |  0.38

Nlocal:    19652 ave 19652 max 19652 min
Histogram: 1 0 0 0 0 0 0 0 0 0
Nghost:    14662 ave 14662 max 14662 min
Histogram: 1 0 0 0 0 0 0 0 0 0
Neighs:    852416 ave 852416 max 852416 min
Histogram: 1 0 0 0 0 0 0 0 0 0

Total # of neighbors = 852416
Ave neighs/atom = 43.3755
Neighbor list builds = 495
Dangerous builds not checked
Setting up Verlet run ...
  Unit style    : metal
  Current step  : 68495
  Time step     : 0.001
Per MPI rank memory allocation (min/avg/max) = 18.22 | 18.22 | 18.22 Mbytes
Step Temp Press TotEng PotEng Enthalpy 
   68495    1712.9769   -45.104394   -18461.052   -22812.169   -18477.264 
   70000    1717.2039    123.82295   -18583.043   -22944.897   -18538.803 
Loop time of 164.412 on 1 procs for 1505 steps with 19652 atoms

Performance: 0.791 ns/day, 30.346 hours/ns, 9.154 timesteps/s
99.9% CPU use with 1 MPI tasks x no OpenMP threads

MPI task timing breakdown:
Section |  min time  |  avg time  |  max time  |%varavg| %total
---------------------------------------------------------------
Pair    | 87.154     | 87.154     | 87.154     |   0.0 | 53.01
Neigh   | 72.015     | 72.015     | 72.015     |   0.0 | 43.80
Comm    | 1.9772     | 1.9772     | 1.9772     |   0.0 |  1.20
Output  | 0.050953   | 0.050953   | 0.050953   |   0.0 |  0.03
Modify  | 2.5954     | 2.5954     | 2.5954     |   0.0 |  1.58
Other   |            | 0.6195     |            |       |  0.38

Nlocal:    19652 ave 19652 max 19652 min
Histogram: 1 0 0 0 0 0 0 0 0 0
Nghost:    14597 ave 14597 max 14597 min
Histogram: 1 0 0 0 0 0 0 0 0 0
Neighs:    857562 ave 857562 max 857562 min
Histogram: 1 0 0 0 0 0 0 0 0 0

Total # of neighbors = 857562
Ave neighs/atom = 43.6374
Neighbor list builds = 1505
Dangerous builds not checked
Setting up Verlet run ...
  Unit style    : metal
  Current step  : 70000
  Time step     : 0.001
Per MPI rank memory allocation (min/avg/max) = 18.22 | 18.22 | 18.22 Mbytes
Step Temp Press TotEng PotEng Enthalpy 
   70000    1717.2039    123.82295   -18583.043   -22944.897   -18538.803 
   70495    1675.4124   -650.55331   -18758.676   -23014.376    -18991.02 
Loop time of 53.6407 on 1 procs for 495 steps with 19652 atoms

Performance: 0.797 ns/day, 30.101 hours/ns, 9.228 timesteps/s
99.9% CPU use with 1 MPI tasks x no OpenMP threads

MPI task timing breakdown:
Section |  min time  |  avg time  |  max time  |%varavg| %total
---------------------------------------------------------------
Pair    | 28.468     | 28.468     | 28.468     |   0.0 | 53.07
Neigh   | 23.475     | 23.475     | 23.475     |   0.0 | 43.76
Comm    | 0.64083    | 0.64083    | 0.64083    |   0.0 |  1.19
Output  | 0.0003171  | 0.0003171  | 0.0003171  |   0.0 |  0.00
Modify  | 0.85229    | 0.85229    | 0.85229    |   0.0 |  1.59
Other   |            | 0.2039     |            |       |  0.38

Nlocal:    19652 ave 19652 max 19652 min
Histogram: 1 0 0 0 0 0 0 0 0 0
Nghost:    14679 ave 14679 max 14679 min
Histogram: 1 0 0 0 0 0 0 0 0 0
Neighs:    857888 ave 857888 max 857888 min
Histogram: 1 0 0 0 0 0 0 0 0 0

Total # of neighbors = 857888
Ave neighs/atom = 43.654
Neighbor list builds = 495
Dangerous builds not checked
Setting up Verlet run ...
  Unit style    : metal
  Current step  : 70495
  Time step     : 0.001
Per MPI rank memory allocation (min/avg/max) = 18.22 | 18.22 | 18.22 Mbytes
Step Temp Press TotEng PotEng Enthalpy 
   70495    1675.4124   -650.55331   -18758.676   -23014.376    -18991.02 
   72000    1648.2952   -241.28052     -18882.5    -23069.32   -18968.292 
Loop time of 164.777 on 1 procs for 1505 steps with 19652 atoms

Performance: 0.789 ns/day, 30.413 hours/ns, 9.134 timesteps/s
99.9% CPU use with 1 MPI tasks x no OpenMP threads

MPI task timing breakdown:
Section |  min time  |  avg time  |  max time  |%varavg| %total
---------------------------------------------------------------
Pair    | 87.531     | 87.531     | 87.531     |   0.0 | 53.12
Neigh   | 72.031     | 72.031     | 72.031     |   0.0 | 43.71
Comm    | 1.971      | 1.971      | 1.971      |   0.0 |  1.20
Output  | 0.050926   | 0.050926   | 0.050926   |   0.0 |  0.03
Modify  | 2.5765     | 2.5765     | 2.5765     |   0.0 |  1.56
Other   |            | 0.6155     |            |       |  0.37

Nlocal:    19652 ave 19652 max 19652 min
Histogram: 1 0 0 0 0 0 0 0 0 0
Nghost:    14728 ave 14728 max 14728 min
Histogram: 1 0 0 0 0 0 0 0 0 0
Neighs:    861835 ave 861835 max 861835 min
Histogram: 1 0 0 0 0 0 0 0 0 0

Total # of neighbors = 861835
Ave neighs/atom = 43.8548
Neighbor list builds = 1505
Dangerous builds not checked
Setting up Verlet run ...
  Unit style    : metal
  Current step  : 72000
  Time step     : 0.001
Per MPI rank memory allocation (min/avg/max) = 18.22 | 18.22 | 18.22 Mbytes
Step Temp Press TotEng PotEng Enthalpy 
   72000    1648.2952   -241.28052     -18882.5    -23069.32   -18968.292 
   72495    1614.6851    100.62379   -19068.822   -23170.269   -19033.255 
Loop time of 53.7094 on 1 procs for 495 steps with 19652 atoms

Performance: 0.796 ns/day, 30.140 hours/ns, 9.216 timesteps/s
99.9% CPU use with 1 MPI tasks x no OpenMP threads

MPI task timing breakdown:
Section |  min time  |  avg time  |  max time  |%varavg| %total
---------------------------------------------------------------
Pair    | 28.597     | 28.597     | 28.597     |   0.0 | 53.24
Neigh   | 23.424     | 23.424     | 23.424     |   0.0 | 43.61
Comm    | 0.63766    | 0.63766    | 0.63766    |   0.0 |  1.19
Output  | 0.00031304 | 0.00031304 | 0.00031304 |   0.0 |  0.00
Modify  | 0.84875    | 0.84875    | 0.84875    |   0.0 |  1.58
Other   |            | 0.2012     |            |       |  0.37

Nlocal:    19652 ave 19652 max 19652 min
Histogram: 1 0 0 0 0 0 0 0 0 0
Nghost:    14793 ave 14793 max 14793 min
Histogram: 1 0 0 0 0 0 0 0 0 0
Neighs:    866837 ave 866837 max 866837 min
Histogram: 1 0 0 0 0 0 0 0 0 0

Total # of neighbors = 866837
Ave neighs/atom = 44.1094
Neighbor list builds = 495
Dangerous builds not checked
Setting up Verlet run ...
  Unit style    : metal
  Current step  : 72495
  Time step     : 0.001
Per MPI rank memory allocation (min/avg/max) = 18.22 | 18.22 | 18.22 Mbytes
Step Temp Press TotEng PotEng Enthalpy 
   72495    1614.6851    100.62379   -19068.822   -23170.269   -19033.255 
   74000    1606.9735    302.53814   -19106.829   -23188.688   -19000.035 
Loop time of 165.52 on 1 procs for 1505 steps with 19652 atoms

Performance: 0.786 ns/day, 30.550 hours/ns, 9.093 timesteps/s
99.7% CPU use with 1 MPI tasks x no OpenMP threads

MPI task timing breakdown:
Section |  min time  |  avg time  |  max time  |%varavg| %total
---------------------------------------------------------------
Pair    | 88.18      | 88.18      | 88.18      |   0.0 | 53.27
Neigh   | 72.101     | 72.101     | 72.101     |   0.0 | 43.56
Comm    | 1.9789     | 1.9789     | 1.9789     |   0.0 |  1.20
Output  | 0.051314   | 0.051314   | 0.051314   |   0.0 |  0.03
Modify  | 2.5892     | 2.5892     | 2.5892     |   0.0 |  1.56
Other   |            | 0.6194     |            |       |  0.37

Nlocal:    19652 ave 19652 max 19652 min
Histogram: 1 0 0 0 0 0 0 0 0 0
Nghost:    14791 ave 14791 max 14791 min
Histogram: 1 0 0 0 0 0 0 0 0 0
Neighs:    868681 ave 868681 max 868681 min
Histogram: 1 0 0 0 0 0 0 0 0 0

Total # of neighbors = 868681
Ave neighs/atom = 44.2032
Neighbor list builds = 1505
Dangerous builds not checked
Setting up Verlet run ...
  Unit style    : metal
  Current step  : 74000
  Time step     : 0.001
Per MPI rank memory allocation (min/avg/max) = 18.22 | 18.22 | 18.22 Mbytes
Step Temp Press TotEng PotEng Enthalpy 
   74000    1606.9735    302.53814   -19106.829   -23188.688   -19000.035 
   74495    1571.5073   -288.64591   -19308.408    -23300.18   -19410.071 
Loop time of 53.8192 on 1 procs for 495 steps with 19652 atoms

Performance: 0.795 ns/day, 30.202 hours/ns, 9.197 timesteps/s
99.9% CPU use with 1 MPI tasks x no OpenMP threads

MPI task timing breakdown:
Section |  min time  |  avg time  |  max time  |%varavg| %total
---------------------------------------------------------------
Pair    | 28.667     | 28.667     | 28.667     |   0.0 | 53.27
Neigh   | 23.456     | 23.456     | 23.456     |   0.0 | 43.58
Comm    | 0.6386     | 0.6386     | 0.6386     |   0.0 |  1.19
Output  | 0.00030804 | 0.00030804 | 0.00030804 |   0.0 |  0.00
Modify  | 0.85297    | 0.85297    | 0.85297    |   0.0 |  1.58
Other   |            | 0.2037     |            |       |  0.38

Nlocal:    19652 ave 19652 max 19652 min
Histogram: 1 0 0 0 0 0 0 0 0 0
Nghost:    14726 ave 14726 max 14726 min
Histogram: 1 0 0 0 0 0 0 0 0 0
Neighs:    870564 ave 870564 max 870564 min
Histogram: 1 0 0 0 0 0 0 0 0 0

Total # of neighbors = 870564
Ave neighs/atom = 44.299
Neighbor list builds = 495
Dangerous builds not checked
Setting up Verlet run ...
  Unit style    : metal
  Current step  : 74495
  Time step     : 0.001
Per MPI rank memory allocation (min/avg/max) = 18.22 | 18.22 | 18.22 Mbytes
Step Temp Press TotEng PotEng Enthalpy 
   74495    1571.5073   -288.64591   -19308.408    -23300.18   -19410.071 
   76000    1543.7254    -84.35989   -19450.053   -23371.256   -19479.628 
Loop time of 165.593 on 1 procs for 1505 steps with 19652 atoms

Performance: 0.785 ns/day, 30.563 hours/ns, 9.089 timesteps/s
99.9% CPU use with 1 MPI tasks x no OpenMP threads

MPI task timing breakdown:
Section |  min time  |  avg time  |  max time  |%varavg| %total
---------------------------------------------------------------
Pair    | 88.371     | 88.371     | 88.371     |   0.0 | 53.37
Neigh   | 71.996     | 71.996     | 71.996     |   0.0 | 43.48
Comm    | 1.971      | 1.971      | 1.971      |   0.0 |  1.19
Output  | 0.051463   | 0.051463   | 0.051463   |   0.0 |  0.03
Modify  | 2.5833     | 2.5833     | 2.5833     |   0.0 |  1.56
Other   |            | 0.6195     |            |       |  0.37

Nlocal:    19652 ave 19652 max 19652 min
Histogram: 1 0 0 0 0 0 0 0 0 0
Nghost:    14881 ave 14881 max 14881 min
Histogram: 1 0 0 0 0 0 0 0 0 0
Neighs:    874080 ave 874080 max 874080 min
Histogram: 1 0 0 0 0 0 0 0 0 0

Total # of neighbors = 874080
Ave neighs/atom = 44.4779
Neighbor list builds = 1505
Dangerous builds not checked
Setting up Verlet run ...
  Unit style    : metal
  Current step  : 76000
  Time step     : 0.001
Per MPI rank memory allocation (min/avg/max) = 18.22 | 18.22 | 18.22 Mbytes
Step Temp Press TotEng PotEng Enthalpy 
   76000    1543.7254    -84.35989   -19450.053   -23371.256   -19479.628 
   76495     1512.293   -267.04151   -19629.603   -23470.965   -19722.837 
Loop time of 54.1268 on 1 procs for 495 steps with 19652 atoms

Performance: 0.790 ns/day, 30.374 hours/ns, 9.145 timesteps/s
99.8% CPU use with 1 MPI tasks x no OpenMP threads

MPI task timing breakdown:
Section |  min time  |  avg time  |  max time  |%varavg| %total
---------------------------------------------------------------
Pair    | 28.955     | 28.955     | 28.955     |   0.0 | 53.49
Neigh   | 23.478     | 23.478     | 23.478     |   0.0 | 43.38
Comm    | 0.64224    | 0.64224    | 0.64224    |   0.0 |  1.19
Output  | 0.000319   | 0.000319   | 0.000319   |   0.0 |  0.00
Modify  | 0.84843    | 0.84843    | 0.84843    |   0.0 |  1.57
Other   |            | 0.2028     |            |       |  0.37

Nlocal:    19652 ave 19652 max 19652 min
Histogram: 1 0 0 0 0 0 0 0 0 0
Nghost:    14894 ave 14894 max 14894 min
Histogram: 1 0 0 0 0 0 0 0 0 0
Neighs:    877973 ave 877973 max 877973 min
Histogram: 1 0 0 0 0 0 0 0 0 0

Total # of neighbors = 877973
Ave neighs/atom = 44.676
Neighbor list builds = 495
Dangerous builds not checked
Setting up Verlet run ...
  Unit style    : metal
  Current step  : 76495
  Time step     : 0.001
Per MPI rank memory allocation (min/avg/max) = 18.22 | 18.22 | 18.22 Mbytes
Step Temp Press TotEng PotEng Enthalpy 
   76495     1512.293   -267.04151   -19629.603   -23470.965   -19722.837 
   78000    1504.7356   -197.58003   -19695.838   -23518.004   -19764.698 
Loop time of 166.39 on 1 procs for 1505 steps with 19652 atoms

Performance: 0.781 ns/day, 30.711 hours/ns, 9.045 timesteps/s
99.7% CPU use with 1 MPI tasks x no OpenMP threads

MPI task timing breakdown:
Section |  min time  |  avg time  |  max time  |%varavg| %total
---------------------------------------------------------------
Pair    | 89.012     | 89.012     | 89.012     |   0.0 | 53.50
Neigh   | 72.14      | 72.14      | 72.14      |   0.0 | 43.36
Comm    | 1.9775     | 1.9775     | 1.9775     |   0.0 |  1.19
Output  | 0.051229   | 0.051229   | 0.051229   |   0.0 |  0.03
Modify  | 2.5907     | 2.5907     | 2.5907     |   0.0 |  1.56
Other   |            | 0.6181     |            |       |  0.37

Nlocal:    19652 ave 19652 max 19652 min
Histogram: 1 0 0 0 0 0 0 0 0 0
Nghost:    14872 ave 14872 max 14872 min
Histogram: 1 0 0 0 0 0 0 0 0 0
Neighs:    880025 ave 880025 max 880025 min
Histogram: 1 0 0 0 0 0 0 0 0 0

Total # of neighbors = 880025
Ave neighs/atom = 44.7804
Neighbor list builds = 1505
Dangerous builds not checked
Setting up Verlet run ...
  Unit style    : metal
  Current step  : 78000
  Time step     : 0.001
Per MPI rank memory allocation (min/avg/max) = 18.22 | 18.22 | 18.22 Mbytes
Step Temp Press TotEng PotEng Enthalpy 
   78000    1504.7356   -197.58003   -19695.838   -23518.004   -19764.698 
   78495    1469.2921    71.755952   -19900.802   -23632.938    -19875.93 
Loop time of 54.7577 on 1 procs for 495 steps with 19652 atoms

Performance: 0.781 ns/day, 30.728 hours/ns, 9.040 timesteps/s
99.1% CPU use with 1 MPI tasks x no OpenMP threads

MPI task timing breakdown:
Section |  min time  |  avg time  |  max time  |%varavg| %total
---------------------------------------------------------------
Pair    | 29.349     | 29.349     | 29.349     |   0.0 | 53.60
Neigh   | 23.702     | 23.702     | 23.702     |   0.0 | 43.29
Comm    | 0.64576    | 0.64576    | 0.64576    |   0.0 |  1.18
Output  | 0.00023508 | 0.00023508 | 0.00023508 |   0.0 |  0.00
Modify  | 0.85726    | 0.85726    | 0.85726    |   0.0 |  1.57
Other   |            | 0.2032     |            |       |  0.37

Nlocal:    19652 ave 19652 max 19652 min
Histogram: 1 0 0 0 0 0 0 0 0 0
Nghost:    14984 ave 14984 max 14984 min
Histogram: 1 0 0 0 0 0 0 0 0 0
Neighs:    884651 ave 884651 max 884651 min
Histogram: 1 0 0 0 0 0 0 0 0 0

Total # of neighbors = 884651
Ave neighs/atom = 45.0158
Neighbor list builds = 495
Dangerous builds not checked
Setting up Verlet run ...
  Unit style    : metal
  Current step  : 78495
  Time step     : 0.001
Per MPI rank memory allocation (min/avg/max) = 18.22 | 18.22 | 18.22 Mbytes
Step Temp Press TotEng PotEng Enthalpy 
   78495    1469.2921    71.755952   -19900.802   -23632.938    -19875.93 
   80000    1452.0412   -366.95024    -19963.59   -23651.907   -20090.774 
Loop time of 166.674 on 1 procs for 1505 steps with 19652 atoms

Performance: 0.780 ns/day, 30.763 hours/ns, 9.030 timesteps/s
99.8% CPU use with 1 MPI tasks x no OpenMP threads

MPI task timing breakdown:
Section |  min time  |  avg time  |  max time  |%varavg| %total
---------------------------------------------------------------
Pair    | 89.373     | 89.373     | 89.373     |   0.0 | 53.62
Neigh   | 72.078     | 72.078     | 72.078     |   0.0 | 43.24
Comm    | 1.9752     | 1.9752     | 1.9752     |   0.0 |  1.19
Output  | 0.052812   | 0.052812   | 0.052812   |   0.0 |  0.03
Modify  | 2.5801     | 2.5801     | 2.5801     |   0.0 |  1.55
Other   |            | 0.6147     |            |       |  0.37

Nlocal:    19652 ave 19652 max 19652 min
Histogram: 1 0 0 0 0 0 0 0 0 0
Nghost:    14905 ave 14905 max 14905 min
Histogram: 1 0 0 0 0 0 0 0 0 0
Neighs:    884950 ave 884950 max 884950 min
Histogram: 1 0 0 0 0 0 0 0 0 0

Total # of neighbors = 884950
Ave neighs/atom = 45.031
Neighbor list builds = 1505
Dangerous builds not checked
Setting up Verlet run ...
  Unit style    : metal
  Current step  : 80000
  Time step     : 0.001
Per MPI rank memory allocation (min/avg/max) = 18.22 | 18.22 | 18.22 Mbytes
Step Temp Press TotEng PotEng Enthalpy 
   80000    1452.0412   -366.95024    -19963.59   -23651.907   -20090.774 
   80495    1413.7593    168.30721   -20177.315   -23768.393   -20119.349 
Loop time of 54.4538 on 1 procs for 495 steps with 19652 atoms

Performance: 0.785 ns/day, 30.558 hours/ns, 9.090 timesteps/s
99.9% CPU use with 1 MPI tasks x no OpenMP threads

MPI task timing breakdown:
Section |  min time  |  avg time  |  max time  |%varavg| %total
---------------------------------------------------------------
Pair    | 29.319     | 29.319     | 29.319     |   0.0 | 53.84
Neigh   | 23.442     | 23.442     | 23.442     |   0.0 | 43.05
Comm    | 0.6412     | 0.6412     | 0.6412     |   0.0 |  1.18
Output  | 0.00029588 | 0.00029588 | 0.00029588 |   0.0 |  0.00
Modify  | 0.84927    | 0.84927    | 0.84927    |   0.0 |  1.56
Other   |            | 0.2023     |            |       |  0.37

Nlocal:    19652 ave 19652 max 19652 min
Histogram: 1 0 0 0 0 0 0 0 0 0
Nghost:    14923 ave 14923 max 14923 min
Histogram: 1 0 0 0 0 0 0 0 0 0
Neighs:    890791 ave 890791 max 890791 min
Histogram: 1 0 0 0 0 0 0 0 0 0

Total # of neighbors = 890791
Ave neighs/atom = 45.3283
Neighbor list builds = 495
Dangerous builds not checked
Setting up Verlet run ...
  Unit style    : metal
  Current step  : 80495
  Time step     : 0.001
Per MPI rank memory allocation (min/avg/max) = 18.22 | 18.22 | 18.22 Mbytes
Step Temp Press TotEng PotEng Enthalpy 
   80495    1413.7593    168.30721   -20177.315   -23768.393   -20119.349 
   82000    1395.6138   -30.053421   -20290.672   -23835.658   -20300.995 
Loop time of 167.341 on 1 procs for 1505 steps with 19652 atoms

Performance: 0.777 ns/day, 30.886 hours/ns, 8.994 timesteps/s
99.9% CPU use with 1 MPI tasks x no OpenMP threads

MPI task timing breakdown:
Section |  min time  |  avg time  |  max time  |%varavg| %total
---------------------------------------------------------------
Pair    | 90.19      | 90.19      | 90.19      |   0.0 | 53.90
Neigh   | 71.923     | 71.923     | 71.923     |   0.0 | 42.98
Comm    | 1.9763     | 1.9763     | 1.9763     |   0.0 |  1.18
Output  | 0.051161   | 0.051161   | 0.051161   |   0.0 |  0.03
Modify  | 2.5816     | 2.5816     | 2.5816     |   0.0 |  1.54
Other   |            | 0.6193     |            |       |  0.37

Nlocal:    19652 ave 19652 max 19652 min
Histogram: 1 0 0 0 0 0 0 0 0 0
Nghost:    14983 ave 14983 max 14983 min
Histogram: 1 0 0 0 0 0 0 0 0 0
Neighs:    893080 ave 893080 max 893080 min
Histogram: 1 0 0 0 0 0 0 0 0 0

Total # of neighbors = 893080
Ave neighs/atom = 45.4447
Neighbor list builds = 1505
Dangerous builds not checked
Setting up Verlet run ...
  Unit style    : metal
  Current step  : 82000
  Time step     : 0.001
Per MPI rank memory allocation (min/avg/max) = 18.22 | 18.22 | 18.22 Mbytes
Step Temp Press TotEng PotEng Enthalpy 
   82000    1395.6138   -30.053421   -20290.672   -23835.658   -20300.995 
   82495    1364.5772   -8.3682338   -20465.563   -23931.713   -20468.427 
Loop time of 54.7517 on 1 procs for 495 steps with 19652 atoms

Performance: 0.781 ns/day, 30.725 hours/ns, 9.041 timesteps/s
99.8% CPU use with 1 MPI tasks x no OpenMP threads

MPI task timing breakdown:
Section |  min time  |  avg time  |  max time  |%varavg| %total
---------------------------------------------------------------
Pair    | 29.589     | 29.589     | 29.589     |   0.0 | 54.04
Neigh   | 23.462     | 23.462     | 23.462     |   0.0 | 42.85
Comm    | 0.64336    | 0.64336    | 0.64336    |   0.0 |  1.18
Output  | 0.00030088 | 0.00030088 | 0.00030088 |   0.0 |  0.00
Modify  | 0.85178    | 0.85178    | 0.85178    |   0.0 |  1.56
Other   |            | 0.2048     |            |       |  0.37

Nlocal:    19652 ave 19652 max 19652 min
Histogram: 1 0 0 0 0 0 0 0 0 0
Nghost:    14991 ave 14991 max 14991 min
Histogram: 1 0 0 0 0 0 0 0 0 0
Neighs:    896926 ave 896926 max 896926 min
Histogram: 1 0 0 0 0 0 0 0 0 0

Total # of neighbors = 896926
Ave neighs/atom = 45.6404
Neighbor list builds = 495
Dangerous builds not checked
Setting up Verlet run ...
  Unit style    : metal
  Current step  : 82495
  Time step     : 0.001
Per MPI rank memory allocation (min/avg/max) = 18.22 | 18.22 | 18.22 Mbytes
Step Temp Press TotEng PotEng Enthalpy 
   82495    1364.5772   -8.3682338   -20465.563   -23931.713   -20468.427 
   84000    1346.6247    225.81164    -20585.11   -24005.659   -20508.164 
Loop time of 168.412 on 1 procs for 1505 steps with 19652 atoms

Performance: 0.772 ns/day, 31.084 hours/ns, 8.936 timesteps/s
99.6% CPU use with 1 MPI tasks x no OpenMP threads

MPI task timing breakdown:
Section |  min time  |  avg time  |  max time  |%varavg| %total
---------------------------------------------------------------
Pair    | 91.008     | 91.008     | 91.008     |   0.0 | 54.04
Neigh   | 72.155     | 72.155     | 72.155     |   0.0 | 42.84
Comm    | 1.9784     | 1.9784     | 1.9784     |   0.0 |  1.17
Output  | 0.050938   | 0.050938   | 0.050938   |   0.0 |  0.03
Modify  | 2.5936     | 2.5936     | 2.5936     |   0.0 |  1.54
Other   |            | 0.6263     |            |       |  0.37

Nlocal:    19652 ave 19652 max 19652 min
Histogram: 1 0 0 0 0 0 0 0 0 0
Nghost:    14949 ave 14949 max 14949 min
Histogram: 1 0 0 0 0 0 0 0 0 0
Neighs:    900600 ave 900600 max 900600 min
Histogram: 1 0 0 0 0 0 0 0 0 0

Total # of neighbors = 900600
Ave neighs/atom = 45.8274
Neighbor list builds = 1505
Dangerous builds not checked
Setting up Verlet run ...
  Unit style    : metal
  Current step  : 84000
  Time step     : 0.001
Per MPI rank memory allocation (min/avg/max) = 18.22 | 18.22 | 18.22 Mbytes
Step Temp Press TotEng PotEng Enthalpy 
   84000    1346.6247    225.81164    -20585.11   -24005.659   -20508.164 
   84495    1311.9838    23.184768   -20763.527   -24096.085   -20755.648 
Loop time of 54.9547 on 1 procs for 495 steps with 19652 atoms

Performance: 0.778 ns/day, 30.839 hours/ns, 9.007 timesteps/s
99.8% CPU use with 1 MPI tasks x no OpenMP threads

MPI task timing breakdown:
Section |  min time  |  avg time  |  max time  |%varavg| %total
---------------------------------------------------------------
Pair    | 29.755     | 29.755     | 29.755     |   0.0 | 54.14
Neigh   | 23.488     | 23.488     | 23.488     |   0.0 | 42.74
Comm    | 0.64374    | 0.64374    | 0.64374    |   0.0 |  1.17
Output  | 0.00030899 | 0.00030899 | 0.00030899 |   0.0 |  0.00
Modify  | 0.8629     | 0.8629     | 0.8629     |   0.0 |  1.57
Other   |            | 0.205      |            |       |  0.37

Nlocal:    19652 ave 19652 max 19652 min
Histogram: 1 0 0 0 0 0 0 0 0 0
Nghost:    15108 ave 15108 max 15108 min
Histogram: 1 0 0 0 0 0 0 0 0 0
Neighs:    903730 ave 903730 max 903730 min
Histogram: 1 0 0 0 0 0 0 0 0 0

Total # of neighbors = 903730
Ave neighs/atom = 45.9867
Neighbor list builds = 495
Dangerous builds not checked
Setting up Verlet run ...
  Unit style    : metal
  Current step  : 84495
  Time step     : 0.001
Per MPI rank memory allocation (min/avg/max) = 18.22 | 18.22 | 18.22 Mbytes
Step Temp Press TotEng PotEng Enthalpy 
   84495    1311.9838    23.184768   -20763.527   -24096.085   -20755.648 
   86000    1305.1647   -935.03378   -20872.073    -24187.31   -21189.911 
Loop time of 168.657 on 1 procs for 1505 steps with 19652 atoms

Performance: 0.771 ns/day, 31.129 hours/ns, 8.923 timesteps/s
99.8% CPU use with 1 MPI tasks x no OpenMP threads

MPI task timing breakdown:
Section |  min time  |  avg time  |  max time  |%varavg| %total
---------------------------------------------------------------
Pair    | 91.363     | 91.363     | 91.363     |   0.0 | 54.17
Neigh   | 72.05      | 72.05      | 72.05      |   0.0 | 42.72
Comm    | 1.9759     | 1.9759     | 1.9759     |   0.0 |  1.17
Output  | 0.050787   | 0.050787   | 0.050787   |   0.0 |  0.03
Modify  | 2.5938     | 2.5938     | 2.5938     |   0.0 |  1.54
Other   |            | 0.6234     |            |       |  0.37

Nlocal:    19652 ave 19652 max 19652 min
Histogram: 1 0 0 0 0 0 0 0 0 0
Nghost:    15004 ave 15004 max 15004 min
Histogram: 1 0 0 0 0 0 0 0 0 0
Neighs:    902317 ave 902317 max 902317 min
Histogram: 1 0 0 0 0 0 0 0 0 0

Total # of neighbors = 902317
Ave neighs/atom = 45.9148
Neighbor list builds = 1505
Dangerous builds not checked
Setting up Verlet run ...
  Unit style    : metal
  Current step  : 86000
  Time step     : 0.001
Per MPI rank memory allocation (min/avg/max) = 18.22 | 18.22 | 18.22 Mbytes
Step Temp Press TotEng PotEng Enthalpy 
   86000    1305.1647   -935.03378   -20872.073    -24187.31   -21189.911 
   86495    1262.2974   -207.06846   -21069.189   -24275.539   -21139.154 
Loop time of 55.0667 on 1 procs for 495 steps with 19652 atoms

Performance: 0.777 ns/day, 30.902 hours/ns, 8.989 timesteps/s
99.9% CPU use with 1 MPI tasks x no OpenMP threads

MPI task timing breakdown:
Section |  min time  |  avg time  |  max time  |%varavg| %total
---------------------------------------------------------------
Pair    | 29.892     | 29.892     | 29.892     |   0.0 | 54.28
Neigh   | 23.474     | 23.474     | 23.474     |   0.0 | 42.63
Comm    | 0.64334    | 0.64334    | 0.64334    |   0.0 |  1.17
Output  | 0.00029397 | 0.00029397 | 0.00029397 |   0.0 |  0.00
Modify  | 0.85246    | 0.85246    | 0.85246    |   0.0 |  1.55
Other   |            | 0.2052     |            |       |  0.37

Nlocal:    19652 ave 19652 max 19652 min
Histogram: 1 0 0 0 0 0 0 0 0 0
Nghost:    14975 ave 14975 max 14975 min
Histogram: 1 0 0 0 0 0 0 0 0 0
Neighs:    909532 ave 909532 max 909532 min
Histogram: 1 0 0 0 0 0 0 0 0 0

Total # of neighbors = 909532
Ave neighs/atom = 46.2819
Neighbor list builds = 495
Dangerous builds not checked
Setting up Verlet run ...
  Unit style    : metal
  Current step  : 86495
  Time step     : 0.001
Per MPI rank memory allocation (min/avg/max) = 18.22 | 18.22 | 18.22 Mbytes
Step Temp Press TotEng PotEng Enthalpy 
   86495    1262.2974   -207.06846   -21069.189   -24275.539   -21139.154 
   88000    1249.6209    471.48589   -21146.163   -24320.314   -20987.683 
Loop time of 168.818 on 1 procs for 1505 steps with 19652 atoms

Performance: 0.770 ns/day, 31.159 hours/ns, 8.915 timesteps/s
99.9% CPU use with 1 MPI tasks x no OpenMP threads

MPI task timing breakdown:
Section |  min time  |  avg time  |  max time  |%varavg| %total
---------------------------------------------------------------
Pair    | 91.69      | 91.69      | 91.69      |   0.0 | 54.31
Neigh   | 71.882     | 71.882     | 71.882     |   0.0 | 42.58
Comm    | 1.9736     | 1.9736     | 1.9736     |   0.0 |  1.17
Output  | 0.050899   | 0.050899   | 0.050899   |   0.0 |  0.03
Modify  | 2.598      | 2.598      | 2.598      |   0.0 |  1.54
Other   |            | 0.6239     |            |       |  0.37

Nlocal:    19652 ave 19652 max 19652 min
Histogram: 1 0 0 0 0 0 0 0 0 0
Nghost:    15063 ave 15063 max 15063 min
Histogram: 1 0 0 0 0 0 0 0 0 0
Neighs:    913733 ave 913733 max 913733 min
Histogram: 1 0 0 0 0 0 0 0 0 0

Total # of neighbors = 913733
Ave neighs/atom = 46.4957
Neighbor list builds = 1505
Dangerous builds not checked
Setting up Verlet run ...
  Unit style    : metal
  Current step  : 88000
  Time step     : 0.001
Per MPI rank memory allocation (min/avg/max) = 18.22 | 18.22 | 18.22 Mbytes
Step Temp Press TotEng PotEng Enthalpy 
   88000    1249.6209    471.48589   -21146.163   -24320.314   -20987.683 
   88495    1214.9602    216.01041   -21315.854   -24401.964   -21243.378 
Loop time of 55.1673 on 1 procs for 495 steps with 19652 atoms

Performance: 0.775 ns/day, 30.958 hours/ns, 8.973 timesteps/s
99.9% CPU use with 1 MPI tasks x no OpenMP threads

MPI task timing breakdown:
Section |  min time  |  avg time  |  max time  |%varavg| %total
---------------------------------------------------------------
Pair    | 29.998     | 29.998     | 29.998     |   0.0 | 54.38
Neigh   | 23.473     | 23.473     | 23.473     |   0.0 | 42.55
Comm    | 0.64152    | 0.64152    | 0.64152    |   0.0 |  1.16
Output  | 0.00030088 | 0.00030088 | 0.00030088 |   0.0 |  0.00
Modify  | 0.8506     | 0.8506     | 0.8506     |   0.0 |  1.54
Other   |            | 0.2038     |            |       |  0.37

Nlocal:    19652 ave 19652 max 19652 min
Histogram: 1 0 0 0 0 0 0 0 0 0
Nghost:    15074 ave 15074 max 15074 min
Histogram: 1 0 0 0 0 0 0 0 0 0
Neighs:    915976 ave 915976 max 915976 min
Histogram: 1 0 0 0 0 0 0 0 0 0

Total # of neighbors = 915976
Ave neighs/atom = 46.6098
Neighbor list builds = 495
Dangerous builds not checked
Setting up Verlet run ...
  Unit style    : metal
  Current step  : 88495
  Time step     : 0.001
Per MPI rank memory allocation (min/avg/max) = 18.22 | 18.22 | 18.22 Mbytes
Step Temp Press TotEng PotEng Enthalpy 
   88495    1214.9602    216.01041   -21315.854   -24401.964   -21243.378 
   90000    1203.5227    -180.4057   -21407.673   -24464.731   -21468.153 
Loop time of 169.619 on 1 procs for 1505 steps with 19652 atoms

Performance: 0.767 ns/day, 31.307 hours/ns, 8.873 timesteps/s
99.7% CPU use with 1 MPI tasks x no OpenMP threads

MPI task timing breakdown:
Section |  min time  |  avg time  |  max time  |%varavg| %total
---------------------------------------------------------------
Pair    | 92.226     | 92.226     | 92.226     |   0.0 | 54.37
Neigh   | 72.171     | 72.171     | 72.171     |   0.0 | 42.55
Comm    | 1.9723     | 1.9723     | 1.9723     |   0.0 |  1.16
Output  | 0.050719   | 0.050719   | 0.050719   |   0.0 |  0.03
Modify  | 2.5818     | 2.5818     | 2.5818     |   0.0 |  1.52
Other   |            | 0.617      |            |       |  0.36

Nlocal:    19652 ave 19652 max 19652 min
Histogram: 1 0 0 0 0 0 0 0 0 0
Nghost:    15109 ave 15109 max 15109 min
Histogram: 1 0 0 0 0 0 0 0 0 0
Neighs:    916161 ave 916161 max 916161 min
Histogram: 1 0 0 0 0 0 0 0 0 0

Total # of neighbors = 916161
Ave neighs/atom = 46.6192
Neighbor list builds = 1505
Dangerous builds not checked
Setting up Verlet run ...
  Unit style    : metal
  Current step  : 90000
  Time step     : 0.001
Per MPI rank memory allocation (min/avg/max) = 18.22 | 18.22 | 18.22 Mbytes
Step Temp Press TotEng PotEng Enthalpy 
   90000    1203.5227    -180.4057   -21407.673   -24464.731   -21468.153 
   90495    1172.0224    2.7809413   -21610.483   -24587.527   -21609.556 
Loop time of 55.3372 on 1 procs for 495 steps with 19652 atoms

Performance: 0.773 ns/day, 31.053 hours/ns, 8.945 timesteps/s
99.9% CPU use with 1 MPI tasks x no OpenMP threads

MPI task timing breakdown:
Section |  min time  |  avg time  |  max time  |%varavg| %total
---------------------------------------------------------------
Pair    | 30.152     | 30.152     | 30.152     |   0.0 | 54.49
Neigh   | 23.491     | 23.491     | 23.491     |   0.0 | 42.45
Comm    | 0.64327    | 0.64327    | 0.64327    |   0.0 |  1.16
Output  | 0.00029898 | 0.00029898 | 0.00029898 |   0.0 |  0.00
Modify  | 0.84965    | 0.84965    | 0.84965    |   0.0 |  1.54
Other   |            | 0.2015     |            |       |  0.36

Nlocal:    19652 ave 19652 max 19652 min
Histogram: 1 0 0 0 0 0 0 0 0 0
Nghost:    15077 ave 15077 max 15077 min
Histogram: 1 0 0 0 0 0 0 0 0 0
Neighs:    921327 ave 921327 max 921327 min
Histogram: 1 0 0 0 0 0 0 0 0 0

Total # of neighbors = 921327
Ave neighs/atom = 46.8821
Neighbor list builds = 495
Dangerous builds not checked
Setting up Verlet run ...
  Unit style    : metal
  Current step  : 90495
  Time step     : 0.001
Per MPI rank memory allocation (min/avg/max) = 18.22 | 18.22 | 18.22 Mbytes
Step Temp Press TotEng PotEng Enthalpy 
   90495    1172.0224    2.7809413   -21610.483   -24587.527   -21609.556 
   92000     1151.308     147.2896   -21720.498   -24644.925   -21671.537 
Loop time of 169.892 on 1 procs for 1505 steps with 19652 atoms

Performance: 0.765 ns/day, 31.357 hours/ns, 8.859 timesteps/s
99.8% CPU use with 1 MPI tasks x no OpenMP threads

MPI task timing breakdown:
[...]
Setting up Verlet run ...
  Unit style    : metal
  Current step  : 120000
  Time step     : 0.001
Per MPI rank memory allocation (min/avg/max) = 18.22 | 18.22 | 18.22 Mbytes
Step Temp Press TotEng PotEng Enthalpy 
  120000    446.80101   -289.81467   -26069.367   -27204.282   -26157.122 
  120495    423.45937    340.02787   -26218.785   -27294.411   -26116.375 
Loop time of 60.1308 on 1 procs for 495 steps with 19652 atoms

Performance: 0.711 ns/day, 33.743 hours/ns, 8.232 timesteps/s
99.9% CPU use with 1 MPI tasks x no OpenMP threads

MPI task timing breakdown:
Section |  min time  |  avg time  |  max time  |%varavg| %total
---------------------------------------------------------------
Pair    | 33.312     | 33.312     | 33.312     |   0.0 | 55.40
Neigh   | 25.124     | 25.124     | 25.124     |   0.0 | 41.78
Comm    | 0.63765    | 0.63765    | 0.63765    |   0.0 |  1.06
Output  | 0.00031281 | 0.00031281 | 0.00031281 |   0.0 |  0.00
Modify  | 0.85009    | 0.85009    | 0.85009    |   0.0 |  1.41
Other   |            | 0.2066     |            |       |  0.34

Nlocal:    19652 ave 19652 max 19652 min
Histogram: 1 0 0 0 0 0 0 0 0 0
Nghost:    15751 ave 15751 max 15751 min
Histogram: 1 0 0 0 0 0 0 0 0 0
Neighs:    1.03972e+06 ave 1.03972e+06 max 1.03972e+06 min
Histogram: 1 0 0 0 0 0 0 0 0 0

Total # of neighbors = 1039724
Ave neighs/atom = 52.9068
Neighbor list builds = 495
Dangerous builds not checked
Setting up Verlet run ...
  Unit style    : metal
  Current step  : 120495
  Time step     : 0.001
Per MPI rank memory allocation (min/avg/max) = 18.22 | 18.22 | 18.22 Mbytes
Step Temp Press TotEng PotEng Enthalpy 
  120495    423.45937    340.02787   -26218.785   -27294.411   -26116.375 
  122000    401.63272   -184.61908   -26362.773   -27382.957   -26418.289 
Loop time of 183.494 on 1 procs for 1505 steps with 19652 atoms

Performance: 0.709 ns/day, 33.867 hours/ns, 8.202 timesteps/s
99.9% CPU use with 1 MPI tasks x no OpenMP threads

MPI task timing breakdown:
Section |  min time  |  avg time  |  max time  |%varavg| %total
---------------------------------------------------------------
Pair    | 101.84     | 101.84     | 101.84     |   0.0 | 55.50
Neigh   | 76.468     | 76.468     | 76.468     |   0.0 | 41.67
Comm    | 1.9348     | 1.9348     | 1.9348     |   0.0 |  1.05
Output  | 0.050984   | 0.050984   | 0.050984   |   0.0 |  0.03
Modify  | 2.5745     | 2.5745     | 2.5745     |   0.0 |  1.40
Other   |            | 0.6237     |            |       |  0.34

Nlocal:    19652 ave 19652 max 19652 min
Histogram: 1 0 0 0 0 0 0 0 0 0
Nghost:    15747 ave 15747 max 15747 min
Histogram: 1 0 0 0 0 0 0 0 0 0
Neighs:    1.04207e+06 ave 1.04207e+06 max 1.04207e+06 min
Histogram: 1 0 0 0 0 0 0 0 0 0

Total # of neighbors = 1042069
Ave neighs/atom = 53.0261
Neighbor list builds = 1505
Dangerous builds not checked
Setting up Verlet run ...
  Unit style    : metal
  Current step  : 122000
  Time step     : 0.001
Per MPI rank memory allocation (min/avg/max) = 18.22 | 18.22 | 18.22 Mbytes
Step Temp Press TotEng PotEng Enthalpy 
  122000    401.63272   -184.61908   -26362.773   -27382.957   -26418.289 
  122495    374.79178    287.51464   -26524.066   -27476.071   -26438.043 
Loop time of 60.3214 on 1 procs for 495 steps with 19652 atoms

Performance: 0.709 ns/day, 33.850 hours/ns, 8.206 timesteps/s
99.9% CPU use with 1 MPI tasks x no OpenMP threads

MPI task timing breakdown:
Section |  min time  |  avg time  |  max time  |%varavg| %total
---------------------------------------------------------------
Pair    | 33.536     | 33.536     | 33.536     |   0.0 | 55.60
Neigh   | 25.095     | 25.095     | 25.095     |   0.0 | 41.60
Comm    | 0.63621    | 0.63621    | 0.63621    |   0.0 |  1.05
Output  | 0.00030398 | 0.00030398 | 0.00030398 |   0.0 |  0.00
Modify  | 0.84776    | 0.84776    | 0.84776    |   0.0 |  1.41
Other   |            | 0.2064     |            |       |  0.34

Nlocal:    19652 ave 19652 max 19652 min
Histogram: 1 0 0 0 0 0 0 0 0 0
Nghost:    15799 ave 15799 max 15799 min
Histogram: 1 0 0 0 0 0 0 0 0 0
Neighs:    1.04802e+06 ave 1.04802e+06 max 1.04802e+06 min
Histogram: 1 0 0 0 0 0 0 0 0 0

Total # of neighbors = 1048018
Ave neighs/atom = 53.3288
Neighbor list builds = 495
Dangerous builds not checked
Setting up Verlet run ...
  Unit style    : metal
  Current step  : 122495
  Time step     : 0.001
Per MPI rank memory allocation (min/avg/max) = 18.22 | 18.22 | 18.22 Mbytes
Step Temp Press TotEng PotEng Enthalpy 
  122495    374.79178    287.51464   -26524.066   -27476.071   -26438.043 
  124000    351.59601    397.14745   -26673.696   -27566.782    -26555.29 
Loop time of 184.26 on 1 procs for 1505 steps with 19652 atoms

Performance: 0.706 ns/day, 34.009 hours/ns, 8.168 timesteps/s
99.9% CPU use with 1 MPI tasks x no OpenMP threads

MPI task timing breakdown:
Section |  min time  |  avg time  |  max time  |%varavg| %total
---------------------------------------------------------------
Pair    | 102.62     | 102.62     | 102.62     |   0.0 | 55.69
Neigh   | 76.428     | 76.428     | 76.428     |   0.0 | 41.48
Comm    | 1.9418     | 1.9418     | 1.9418     |   0.0 |  1.05
Output  | 0.051067   | 0.051067   | 0.051067   |   0.0 |  0.03
Modify  | 2.5865     | 2.5865     | 2.5865     |   0.0 |  1.40
Other   |            | 0.6319     |            |       |  0.34

Nlocal:    19652 ave 19652 max 19652 min
Histogram: 1 0 0 0 0 0 0 0 0 0
Nghost:    15823 ave 15823 max 15823 min
Histogram: 1 0 0 0 0 0 0 0 0 0
Neighs:    1.0533e+06 ave 1.0533e+06 max 1.0533e+06 min
Histogram: 1 0 0 0 0 0 0 0 0 0

Total # of neighbors = 1053302
Ave neighs/atom = 53.5977
Neighbor list builds = 1505
Dangerous builds not checked
Setting up Verlet run ...
  Unit style    : metal
  Current step  : 124000
  Time step     : 0.001
Per MPI rank memory allocation (min/avg/max) = 18.22 | 18.22 | 18.22 Mbytes
Step Temp Press TotEng PotEng Enthalpy 
  124000    351.59601    397.14745   -26673.696   -27566.782    -26555.29 
  124495    319.64424   -55.829852   -26827.127   -27639.053   -26843.752 
Loop time of 61.1156 on 1 procs for 495 steps with 19652 atoms

Performance: 0.700 ns/day, 34.296 hours/ns, 8.099 timesteps/s
99.4% CPU use with 1 MPI tasks x no OpenMP threads

MPI task timing breakdown:
Section |  min time  |  avg time  |  max time  |%varavg| %total
---------------------------------------------------------------
Pair    | 34.122     | 34.122     | 34.122     |   0.0 | 55.83
Neigh   | 25.28      | 25.28      | 25.28      |   0.0 | 41.36
Comm    | 0.64845    | 0.64845    | 0.64845    |   0.0 |  1.06
Output  | 0.00032306 | 0.00032306 | 0.00032306 |   0.0 |  0.00
Modify  | 0.8566     | 0.8566     | 0.8566     |   0.0 |  1.40
Other   |            | 0.2078     |            |       |  0.34

Nlocal:    19652 ave 19652 max 19652 min
Histogram: 1 0 0 0 0 0 0 0 0 0
Nghost:    15838 ave 15838 max 15838 min
Histogram: 1 0 0 0 0 0 0 0 0 0
Neighs:    1.0556e+06 ave 1.0556e+06 max 1.0556e+06 min
Histogram: 1 0 0 0 0 0 0 0 0 0

Total # of neighbors = 1055601
Ave neighs/atom = 53.7147
Neighbor list builds = 495
Dangerous builds not checked
Setting up Verlet run ...
  Unit style    : metal
  Current step  : 124495
  Time step     : 0.001
Per MPI rank memory allocation (min/avg/max) = 18.22 | 18.22 | 18.22 Mbytes
Step Temp Press TotEng PotEng Enthalpy 
  124495    319.64424   -55.829852   -26827.127   -27639.053   -26843.752 
  126000     301.1881    283.58508   -26975.155     -27740.2   -26891.127 
Loop time of 185.209 on 1 procs for 1505 steps with 19652 atoms

Performance: 0.702 ns/day, 34.184 hours/ns, 8.126 timesteps/s
99.9% CPU use with 1 MPI tasks x no OpenMP threads

MPI task timing breakdown:
Section |  min time  |  avg time  |  max time  |%varavg| %total
---------------------------------------------------------------
Pair    | 103.7      | 103.7      | 103.7      |   0.0 | 55.99
Neigh   | 76.339     | 76.339     | 76.339     |   0.0 | 41.22
Comm    | 1.9242     | 1.9242     | 1.9242     |   0.0 |  1.04
Output  | 0.051423   | 0.051423   | 0.051423   |   0.0 |  0.03
Modify  | 2.5656     | 2.5656     | 2.5656     |   0.0 |  1.39
Other   |            | 0.6242     |            |       |  0.34

Nlocal:    19652 ave 19652 max 19652 min
Histogram: 1 0 0 0 0 0 0 0 0 0
Nghost:    15877 ave 15877 max 15877 min
Histogram: 1 0 0 0 0 0 0 0 0 0
Neighs:    1.06177e+06 ave 1.06177e+06 max 1.06177e+06 min
Histogram: 1 0 0 0 0 0 0 0 0 0

Total # of neighbors = 1061771
Ave neighs/atom = 54.0286
Neighbor list builds = 1505
Dangerous builds not checked
Setting up Verlet run ...
  Unit style    : metal
  Current step  : 126000
  Time step     : 0.001
Per MPI rank memory allocation (min/avg/max) = 18.22 | 18.22 | 18.22 Mbytes
Step Temp Press TotEng PotEng Enthalpy 
  126000     301.1881    283.58508   -26975.155     -27740.2   -26891.127 
  126495    272.93351    28.652721   -27125.471   -27818.747   -27116.998 
Loop time of 60.8755 on 1 procs for 495 steps with 19652 atoms

Performance: 0.703 ns/day, 34.161 hours/ns, 8.131 timesteps/s
99.9% CPU use with 1 MPI tasks x no OpenMP threads

MPI task timing breakdown:
Section |  min time  |  avg time  |  max time  |%varavg| %total
---------------------------------------------------------------
Pair    | 34.132     | 34.132     | 34.132     |   0.0 | 56.07
Neigh   | 25.056     | 25.056     | 25.056     |   0.0 | 41.16
Comm    | 0.63235    | 0.63235    | 0.63235    |   0.0 |  1.04
Output  | 0.00030208 | 0.00030208 | 0.00030208 |   0.0 |  0.00
Modify  | 0.84841    | 0.84841    | 0.84841    |   0.0 |  1.39
Other   |            | 0.2069     |            |       |  0.34

Nlocal:    19652 ave 19652 max 19652 min
Histogram: 1 0 0 0 0 0 0 0 0 0
Nghost:    15899 ave 15899 max 15899 min
Histogram: 1 0 0 0 0 0 0 0 0 0
Neighs:    1.06471e+06 ave 1.06471e+06 max 1.06471e+06 min
Histogram: 1 0 0 0 0 0 0 0 0 0

Total # of neighbors = 1064711
Ave neighs/atom = 54.1783
Neighbor list builds = 495
Dangerous builds not checked
Setting up Verlet run ...
  Unit style    : metal
  Current step  : 126495
  Time step     : 0.001
Per MPI rank memory allocation (min/avg/max) = 18.22 | 18.22 | 18.22 Mbytes
Step Temp Press TotEng PotEng Enthalpy 
  126495    272.93351    28.652721   -27125.471   -27818.747   -27116.998 
  128000    252.49545    106.96077   -27276.692   -27918.053   -27245.184 
Loop time of 185.694 on 1 procs for 1505 steps with 19652 atoms

Performance: 0.700 ns/day, 34.274 hours/ns, 8.105 timesteps/s
99.9% CPU use with 1 MPI tasks x no OpenMP threads

MPI task timing breakdown:
Section |  min time  |  avg time  |  max time  |%varavg| %total
---------------------------------------------------------------
Pair    | 104.25     | 104.25     | 104.25     |   0.0 | 56.14
Neigh   | 76.252     | 76.252     | 76.252     |   0.0 | 41.06
Comm    | 1.9329     | 1.9329     | 1.9329     |   0.0 |  1.04
Output  | 0.051071   | 0.051071   | 0.051071   |   0.0 |  0.03
Modify  | 2.5804     | 2.5804     | 2.5804     |   0.0 |  1.39
Other   |            | 0.6318     |            |       |  0.34

Nlocal:    19652 ave 19652 max 19652 min
Histogram: 1 0 0 0 0 0 0 0 0 0
Nghost:    15881 ave 15881 max 15881 min
Histogram: 1 0 0 0 0 0 0 0 0 0
Neighs:    1.06995e+06 ave 1.06995e+06 max 1.06995e+06 min
Histogram: 1 0 0 0 0 0 0 0 0 0

Total # of neighbors = 1069948
Ave neighs/atom = 54.4447
Neighbor list builds = 1505
Dangerous builds not checked
Setting up Verlet run ...
  Unit style    : metal
  Current step  : 128000
  Time step     : 0.001
Per MPI rank memory allocation (min/avg/max) = 18.22 | 18.22 | 18.22 Mbytes
Step Temp Press TotEng PotEng Enthalpy 
  128000    252.49545    106.96077   -27276.692   -27918.053   -27245.184 
  128495    226.30826   -115.00684   -27412.663   -27987.506   -27446.482 
Loop time of 61.0442 on 1 procs for 495 steps with 19652 atoms

Performance: 0.701 ns/day, 34.256 hours/ns, 8.109 timesteps/s
99.8% CPU use with 1 MPI tasks x no OpenMP threads

MPI task timing breakdown:
Section |  min time  |  avg time  |  max time  |%varavg| %total
---------------------------------------------------------------
Pair    | 34.323     | 34.323     | 34.323     |   0.0 | 56.23
Neigh   | 25.036     | 25.036     | 25.036     |   0.0 | 41.01
Comm    | 0.63136    | 0.63136    | 0.63136    |   0.0 |  1.03
Output  | 0.000314   | 0.000314   | 0.000314   |   0.0 |  0.00
Modify  | 0.84651    | 0.84651    | 0.84651    |   0.0 |  1.39
Other   |            | 0.2076     |            |       |  0.34

Nlocal:    19652 ave 19652 max 19652 min
Histogram: 1 0 0 0 0 0 0 0 0 0
Nghost:    15908 ave 15908 max 15908 min
Histogram: 1 0 0 0 0 0 0 0 0 0
Neighs:    1.07225e+06 ave 1.07225e+06 max 1.07225e+06 min
Histogram: 1 0 0 0 0 0 0 0 0 0

Total # of neighbors = 1072253
Ave neighs/atom = 54.562
Neighbor list builds = 495
Dangerous builds not checked
Setting up Verlet run ...
  Unit style    : metal
  Current step  : 128495
  Time step     : 0.001
Per MPI rank memory allocation (min/avg/max) = 18.22 | 18.22 | 18.22 Mbytes
Step Temp Press TotEng PotEng Enthalpy 
  128495    226.30826   -115.00684   -27412.663   -27987.506   -27446.482 
  130000    198.64157    389.80194   -27567.681   -28072.248   -27453.583 
Loop time of 187.139 on 1 procs for 1505 steps with 19652 atoms

Performance: 0.695 ns/day, 34.540 hours/ns, 8.042 timesteps/s
99.4% CPU use with 1 MPI tasks x no OpenMP threads

MPI task timing breakdown:
Section |  min time  |  avg time  |  max time  |%varavg| %total
---------------------------------------------------------------
Pair    | 105.28     | 105.28     | 105.28     |   0.0 | 56.26
Neigh   | 76.659     | 76.659     | 76.659     |   0.0 | 40.96
Comm    | 1.9391     | 1.9391     | 1.9391     |   0.0 |  1.04
Output  | 0.051286   | 0.051286   | 0.051286   |   0.0 |  0.03
Modify  | 2.5841     | 2.5841     | 2.5841     |   0.0 |  1.38
Other   |            | 0.6286     |            |       |  0.34

Nlocal:    19652 ave 19652 max 19652 min
Histogram: 1 0 0 0 0 0 0 0 0 0
Nghost:    15924 ave 15924 max 15924 min
Histogram: 1 0 0 0 0 0 0 0 0 0
Neighs:    1.07838e+06 ave 1.07838e+06 max 1.07838e+06 min
Histogram: 1 0 0 0 0 0 0 0 0 0

Total # of neighbors = 1078385
Ave neighs/atom = 54.8741
Neighbor list builds = 1505
Dangerous builds not checked
Setting up Verlet run ...
  Unit style    : metal
  Current step  : 130000
  Time step     : 0.001
Per MPI rank memory allocation (min/avg/max) = 18.22 | 18.22 | 18.22 Mbytes
Step Temp Press TotEng PotEng Enthalpy 
  130000    198.64157    389.80194   -27567.681   -28072.248   -27453.583 
  130495    175.50441    106.46901   -27692.577   -28138.374   -27661.466 
Loop time of 61.1119 on 1 procs for 495 steps with 19652 atoms

Performance: 0.700 ns/day, 34.294 hours/ns, 8.100 timesteps/s
99.9% CPU use with 1 MPI tasks x no OpenMP threads

MPI task timing breakdown:
Section |  min time  |  avg time  |  max time  |%varavg| %total
---------------------------------------------------------------
Pair    | 34.375     | 34.375     | 34.375     |   0.0 | 56.25
Neigh   | 25.042     | 25.042     | 25.042     |   0.0 | 40.98
Comm    | 0.63528    | 0.63528    | 0.63528    |   0.0 |  1.04
Output  | 0.00030494 | 0.00030494 | 0.00030494 |   0.0 |  0.00
Modify  | 0.85121    | 0.85121    | 0.85121    |   0.0 |  1.39
Other   |            | 0.2083     |            |       |  0.34

Nlocal:    19652 ave 19652 max 19652 min
Histogram: 1 0 0 0 0 0 0 0 0 0
Nghost:    15974 ave 15974 max 15974 min
Histogram: 1 0 0 0 0 0 0 0 0 0
Neighs:    1.08066e+06 ave 1.08066e+06 max 1.08066e+06 min
Histogram: 1 0 0 0 0 0 0 0 0 0

Total # of neighbors = 1080659
Ave neighs/atom = 54.9898
Neighbor list builds = 495
Dangerous builds not checked
Setting up Verlet run ...
  Unit style    : metal
  Current step  : 130495
  Time step     : 0.001
Per MPI rank memory allocation (min/avg/max) = 18.22 | 18.22 | 18.22 Mbytes
Step Temp Press TotEng PotEng Enthalpy 
  130495    175.50441    106.46901   -27692.577   -28138.374   -27661.466 
  132000    150.52156    155.28377   -27841.972   -28224.311   -27796.724 
Loop time of 186.068 on 1 procs for 1505 steps with 19652 atoms

Performance: 0.699 ns/day, 34.343 hours/ns, 8.088 timesteps/s
99.9% CPU use with 1 MPI tasks x no OpenMP threads

MPI task timing breakdown:
Section |  min time  |  avg time  |  max time  |%varavg| %total
---------------------------------------------------------------
Pair    | 104.84     | 104.84     | 104.84     |   0.0 | 56.34
Neigh   | 76.042     | 76.042     | 76.042     |   0.0 | 40.87
Comm    | 1.9275     | 1.9275     | 1.9275     |   0.0 |  1.04
Output  | 0.051158   | 0.051158   | 0.051158   |   0.0 |  0.03
Modify  | 2.5795     | 2.5795     | 2.5795     |   0.0 |  1.39
Other   |            | 0.6307     |            |       |  0.34

Nlocal:    19652 ave 19652 max 19652 min
Histogram: 1 0 0 0 0 0 0 0 0 0
Nghost:    15971 ave 15971 max 15971 min
Histogram: 1 0 0 0 0 0 0 0 0 0
Neighs:    1.08466e+06 ave 1.08466e+06 max 1.08466e+06 min
Histogram: 1 0 0 0 0 0 0 0 0 0

Total # of neighbors = 1084660
Ave neighs/atom = 55.1934
Neighbor list builds = 1505
Dangerous builds not checked
Setting up Verlet run ...
  Unit style    : metal
  Current step  : 132000
  Time step     : 0.001
Per MPI rank memory allocation (min/avg/max) = 18.22 | 18.22 | 18.22 Mbytes
Step Temp Press TotEng PotEng Enthalpy 
  132000    150.52156    155.28377   -27841.972   -28224.311   -27796.724 
  132495    127.34993   -111.63803   -27958.692   -28282.172   -27991.184 
Loop time of 61.1252 on 1 procs for 495 steps with 19652 atoms

Performance: 0.700 ns/day, 34.301 hours/ns, 8.098 timesteps/s
99.9% CPU use with 1 MPI tasks x no OpenMP threads

MPI task timing breakdown:
Section |  min time  |  avg time  |  max time  |%varavg| %total
---------------------------------------------------------------
Pair    | 34.43      | 34.43      | 34.43      |   0.0 | 56.33
Neigh   | 25.009     | 25.009     | 25.009     |   0.0 | 40.91
Comm    | 0.63153    | 0.63153    | 0.63153    |   0.0 |  1.03
Output  | 0.00030899 | 0.00030899 | 0.00030899 |   0.0 |  0.00
Modify  | 0.84718    | 0.84718    | 0.84718    |   0.0 |  1.39
Other   |            | 0.2073     |            |       |  0.34

Nlocal:    19652 ave 19652 max 19652 min
Histogram: 1 0 0 0 0 0 0 0 0 0
Nghost:    15968 ave 15968 max 15968 min
Histogram: 1 0 0 0 0 0 0 0 0 0
Neighs:    1.0856e+06 ave 1.0856e+06 max 1.0856e+06 min
Histogram: 1 0 0 0 0 0 0 0 0 0

Total # of neighbors = 1085605
Ave neighs/atom = 55.2415
Neighbor list builds = 495
Dangerous builds not checked
Setting up Verlet run ...
  Unit style    : metal
  Current step  : 132495
  Time step     : 0.001
Per MPI rank memory allocation (min/avg/max) = 18.22 | 18.22 | 18.22 Mbytes
Step Temp Press TotEng PotEng Enthalpy 
  132495    127.34993   -111.63803   -27958.692   -28282.172   -27991.184 
  134000    98.688154   -48.531274    -28109.16   -28359.836    -28123.24 
Loop time of 186.282 on 1 procs for 1505 steps with 19652 atoms

Performance: 0.698 ns/day, 34.382 hours/ns, 8.079 timesteps/s
99.8% CPU use with 1 MPI tasks x no OpenMP threads

MPI task timing breakdown:
Section |  min time  |  avg time  |  max time  |%varavg| %total
---------------------------------------------------------------
Pair    | 105.06     | 105.06     | 105.06     |   0.0 | 56.40
Neigh   | 76.039     | 76.039     | 76.039     |   0.0 | 40.82
Comm    | 1.9235     | 1.9235     | 1.9235     |   0.0 |  1.03
Output  | 0.051376   | 0.051376   | 0.051376   |   0.0 |  0.03
Modify  | 2.5821     | 2.5821     | 2.5821     |   0.0 |  1.39
Other   |            | 0.6253     |            |       |  0.34

Nlocal:    19652 ave 19652 max 19652 min
Histogram: 1 0 0 0 0 0 0 0 0 0
Nghost:    16006 ave 16006 max 16006 min
Histogram: 1 0 0 0 0 0 0 0 0 0
Neighs:    1.08996e+06 ave 1.08996e+06 max 1.08996e+06 min
Histogram: 1 0 0 0 0 0 0 0 0 0

Total # of neighbors = 1089956
Ave neighs/atom = 55.4629
Neighbor list builds = 1505
Dangerous builds not checked
Total wall time: 4:07:28
