LAMMPS (12 Dec 2018)
Lattice spacing in x,y,z = 4 4 4
Created orthogonal box = (0 0 0) to (68 68 68)
  1 by 1 by 2 MPI processor grid
Created 19652 atoms
  Time spent = 0.00167918 secs
Setting atom values ...
  19480 settings made for type/fraction
Neighbor list info ...
  update every 1 steps, delay 0 steps, check no
  max neighbors/atom: 2000, page size: 100000
  master list distance cutoff = 8.5
  ghost atom cutoff = 8.5
  binsize = 4.25, bins = 16 16 16
  1 neighbor lists, perpetual/occasional/extra = 1 0 0
  (1) pair eam/alloy, perpetual
      attributes: half, newton on
      pair build: half/bin/atomonly/newton
      stencil: half/bin/3d/newton
      bin: standard
Setting up Verlet run ...
  Unit style    : metal
  Current step  : 0
  Time step     : 0.001
Per MPI rank memory allocation (min/avg/max) = 11.15 | 11.15 | 11.15 Mbytes
Step Temp Press TotEng PotEng Enthalpy 
       0          300    33431.605    -65131.79   -65893.818   -58570.736 
    1000    161.25074    39142.435   -65131.643   -65541.234   -57449.821 
Loop time of 79.2722 on 2 procs for 1000 steps with 19652 atoms

Performance: 1.090 ns/day, 22.020 hours/ns, 12.615 timesteps/s
99.1% CPU use with 2 MPI tasks x no OpenMP threads

MPI task timing breakdown:
Section |  min time  |  avg time  |  max time  |%varavg| %total
---------------------------------------------------------------
Pair    | 44.758     | 44.944     | 45.13      |   2.8 | 56.70
Neigh   | 30.28      | 30.456     | 30.633     |   3.2 | 38.42
Comm    | 3.4792     | 3.4904     | 3.5016     |   0.6 |  4.40
Output  | 0.00011396 | 0.00013947 | 0.00016499 |   0.0 |  0.00
Modify  | 0.19275    | 0.19369    | 0.19463    |   0.2 |  0.24
Other   |            | 0.1872     |            |       |  0.24

Nlocal:    9826 ave 9830 max 9822 min
Histogram: 1 0 0 0 0 0 0 0 0 1
Nghost:    14211 ave 14215 max 14207 min
Histogram: 1 0 0 0 0 0 0 0 0 1
Neighs:    785060 ave 785153 max 784967 min
Histogram: 1 0 0 0 0 0 0 0 0 1

Total # of neighbors = 1570120
Ave neighs/atom = 79.8962
Neighbor list builds = 1000
Dangerous builds not checked
Setting up Verlet run ...
  Unit style    : metal
  Current step  : 1000
  Time step     : 0.001
Per MPI rank memory allocation (min/avg/max) = 11.15 | 11.15 | 11.15 Mbytes
Step Temp Press TotEng PotEng Enthalpy 
    1000    161.25074    39142.435   -65131.643   -65541.234   -57449.821 
    2000    299.49712   -42.510431   -64494.296   -65255.045    -64503.12 
Loop time of 75.6991 on 2 procs for 1000 steps with 19652 atoms

Performance: 1.141 ns/day, 21.028 hours/ns, 13.210 timesteps/s
98.0% CPU use with 2 MPI tasks x no OpenMP threads

MPI task timing breakdown:
Section |  min time  |  avg time  |  max time  |%varavg| %total
---------------------------------------------------------------
Pair    | 42.258     | 42.345     | 42.433     |   1.3 | 55.94
Neigh   | 29.302     | 29.47      | 29.637     |   3.1 | 38.93
Comm    | 2.8782     | 2.9874     | 3.0966     |   6.3 |  3.95
Output  | 8.2016e-05 | 9.7036e-05 | 0.00011206 |   0.0 |  0.00
Modify  | 0.68185    | 0.7075     | 0.73315    |   3.0 |  0.93
Other   |            | 0.189      |            |       |  0.25

Nlocal:    9826 ave 9832 max 9820 min
Histogram: 1 0 0 0 0 0 0 0 0 1
Nghost:    14201.5 ave 14208 max 14195 min
Histogram: 1 0 0 0 0 0 0 0 0 1
Neighs:    720420 ave 720951 max 719888 min
Histogram: 1 0 0 0 0 0 0 0 0 1

Total # of neighbors = 1440839
Ave neighs/atom = 73.3177
Neighbor list builds = 1000
Dangerous builds not checked
Setting up Verlet run ...
  Unit style    : metal
  Current step  : 2000
  Time step     : 0.001
Per MPI rank memory allocation (min/avg/max) = 11.15 | 11.15 | 11.15 Mbytes
Step Temp Press TotEng PotEng Enthalpy 
    2000    299.49712   -42.510431   -64494.296   -65255.045    -64503.12 
   10000    2442.1684    34.981793   -50843.857   -57047.187    -50834.14 
Loop time of 571.793 on 2 procs for 8000 steps with 19652 atoms

Performance: 1.209 ns/day, 19.854 hours/ns, 13.991 timesteps/s
97.8% CPU use with 2 MPI tasks x no OpenMP threads

MPI task timing breakdown:
Section |  min time  |  avg time  |  max time  |%varavg| %total
---------------------------------------------------------------
Pair    | 300.32     | 300.93     | 301.53     |   3.5 | 52.63
Neigh   | 230.32     | 232        | 233.68     |  11.0 | 40.57
Comm    | 29.166     | 31.477     | 33.789     |  41.2 |  5.51
Output  | 6.3181e-05 | 8.7142e-05 | 0.0001111  |   0.0 |  0.00
Modify  | 5.9492     | 5.9711     | 5.9929     |   0.9 |  1.04
Other   |            | 1.414      |            |       |  0.25

Nlocal:    9826 ave 9866 max 9786 min
Histogram: 1 0 0 0 0 0 0 0 0 1
Nghost:    11444.5 ave 11467 max 11422 min
Histogram: 1 0 0 0 0 0 0 0 0 1
Neighs:    553344 ave 555966 max 550723 min
Histogram: 1 0 0 0 0 0 0 0 0 1

Total # of neighbors = 1106689
Ave neighs/atom = 56.3143
Neighbor list builds = 8000
Dangerous builds not checked
Setting up Verlet run ...
  Unit style    : metal
  Current step  : 10000
  Time step     : 0.001
Per MPI rank memory allocation (min/avg/max) = 11.15 | 11.15 | 11.15 Mbytes
Step Temp Press TotEng PotEng Enthalpy 
   10000    2442.1684    34.981793   -50843.857   -57047.187    -50834.14 
   40000    2436.5757    -114.0627   -50890.879   -57080.003   -50922.468 
Loop time of 2031.55 on 2 procs for 30000 steps with 19652 atoms

Performance: 1.276 ns/day, 18.811 hours/ns, 14.767 timesteps/s
97.2% CPU use with 2 MPI tasks x no OpenMP threads

MPI task timing breakdown:
Section |  min time  |  avg time  |  max time  |%varavg| %total
---------------------------------------------------------------
Pair    | 1042       | 1050.2     | 1058.4     |  25.3 | 51.70
Neigh   | 854.78     | 855.55     | 856.33     |   2.7 | 42.11
Comm    | 89.836     | 98.829     | 107.82     |  90.5 |  4.86
Output  | 9.4891e-05 | 0.00011444 | 0.00013399 |   0.0 |  0.00
Modify  | 21.755     | 21.779     | 21.804     |   0.5 |  1.07
Other   |            | 5.164      |            |       |  0.25

Nlocal:    9826 ave 9836 max 9816 min
Histogram: 1 0 0 0 0 0 0 0 0 1
Nghost:    11431.5 ave 11494 max 11369 min
Histogram: 1 0 0 0 0 0 0 0 0 1
Neighs:    555096 ave 560430 max 549763 min
Histogram: 1 0 0 0 0 0 0 0 0 1

Total # of neighbors = 1110193
Ave neighs/atom = 56.4926
Neighbor list builds = 30000
Dangerous builds not checked
Setting up Verlet run ...
  Unit style    : metal
  Current step  : 40000
  Time step     : 0.001
Per MPI rank memory allocation (min/avg/max) = 11.16 | 11.16 | 11.16 Mbytes
Step Temp Press TotEng PotEng Enthalpy 
   40000    2436.5757    -114.0627   -50890.879   -57080.003   -50922.468 
   40495    2410.7137   -860.01897   -51016.119   -57139.551   -51254.611 
Loop time of 34.3644 on 2 procs for 495 steps with 19652 atoms

Performance: 1.245 ns/day, 19.284 hours/ns, 14.404 timesteps/s
96.5% CPU use with 2 MPI tasks x no OpenMP threads

MPI task timing breakdown:
Section |  min time  |  avg time  |  max time  |%varavg| %total
---------------------------------------------------------------
Pair    | 17.57      | 17.638     | 17.706     |   1.6 | 51.33
Neigh   | 13.74      | 13.887     | 14.035     |   4.0 | 40.41
Comm    | 2.3291     | 2.3664     | 2.4036     |   2.4 |  6.89
Output  | 9.5129e-05 | 0.00011957 | 0.000144   |   0.0 |  0.00
Modify  | 0.34105    | 0.38437    | 0.42768    |   7.0 |  1.12
Other   |            | 0.08841    |            |       |  0.26

Nlocal:    9826 ave 9839 max 9813 min
Histogram: 1 0 0 0 0 0 0 0 0 1
Nghost:    11427 ave 11428 max 11426 min
Histogram: 1 0 0 0 0 0 0 0 0 1
Neighs:    554368 ave 558346 max 550391 min
Histogram: 1 0 0 0 0 0 0 0 0 1

Total # of neighbors = 1108737
Ave neighs/atom = 56.4185
Neighbor list builds = 495
Dangerous builds not checked
Setting up Verlet run ...
  Unit style    : metal
  Current step  : 40495
  Time step     : 0.001
Per MPI rank memory allocation (min/avg/max) = 11.16 | 11.16 | 11.16 Mbytes
Step Temp Press TotEng PotEng Enthalpy 
   40495    2410.7137   -860.01897   -51016.119   -57139.551   -51254.611 
   50000    2388.9308    748.59767   -51153.043   -57221.145   -50947.267 
   90000    2397.6581   -233.68185   -51202.807   -57293.077   -51267.063 
Loop time of 3177.08 on 2 procs for 49505 steps with 19652 atoms

Performance: 1.346 ns/day, 17.827 hours/ns, 15.582 timesteps/s
97.4% CPU use with 2 MPI tasks x no OpenMP threads

MPI task timing breakdown:
Section |  min time  |  avg time  |  max time  |%varavg| %total
---------------------------------------------------------------
Pair    | 1616.5     | 1624.9     | 1633.3     |  20.9 | 51.14
Neigh   | 1350       | 1356.6     | 1363.1     |  17.8 | 42.70
Comm    | 139.67     | 154.71     | 169.75     | 120.9 |  4.87
Output  | 0.030117   | 0.030159   | 0.030202   |   0.0 |  0.00
Modify  | 32.714     | 32.753     | 32.791     |   0.7 |  1.03
Other   |            | 8.152      |            |       |  0.26

Nlocal:    9826 ave 9844 max 9808 min
Histogram: 1 0 0 0 0 0 0 0 0 1
Nghost:    11459.5 ave 11477 max 11442 min
Histogram: 1 0 0 0 0 0 0 0 0 1
Neighs:    559054 ave 566194 max 551913 min
Histogram: 1 0 0 0 0 0 0 0 0 1

Total # of neighbors = 1118107
Ave neighs/atom = 56.8953
Neighbor list builds = 49505
Dangerous builds not checked
Setting up Verlet run ...
  Unit style    : metal
  Current step  : 90000
  Time step     : 0.001
Per MPI rank memory allocation (min/avg/max) = 11.3 | 11.3 | 11.3 Mbytes
Step Temp Press TotEng PotEng Enthalpy 
   90000    2397.6581   -233.68185   -51202.807   -57293.077   -51267.063 
   90495    2353.7508    66.293076   -51320.086   -57298.828   -51301.872 
Loop time of 28.8421 on 2 procs for 495 steps with 19652 atoms

Performance: 1.483 ns/day, 16.185 hours/ns, 17.162 timesteps/s
97.6% CPU use with 2 MPI tasks x no OpenMP threads

MPI task timing breakdown:
Section |  min time  |  avg time  |  max time  |%varavg| %total
---------------------------------------------------------------
Pair    | 14.592     | 14.673     | 14.755     |   2.1 | 50.88
Neigh   | 12.416     | 12.588     | 12.759     |   4.8 | 43.64
Comm    | 0.96791    | 1.2247     | 1.4815     |  23.2 |  4.25
Output  | 7.7009e-05 | 0.00011957 | 0.00016212 |   0.0 |  0.00
Modify  | 0.27764    | 0.28026    | 0.28289    |   0.5 |  0.97
Other   |            | 0.07577    |            |       |  0.26

Nlocal:    9826 ave 9835 max 9817 min
Histogram: 1 0 0 0 0 0 0 0 0 1
Nghost:    11411 ave 11418 max 11404 min
Histogram: 1 0 0 0 0 0 0 0 0 1
Neighs:    559698 ave 563610 max 555787 min
Histogram: 1 0 0 0 0 0 0 0 0 1

Total # of neighbors = 1119397
Ave neighs/atom = 56.961
Neighbor list builds = 495
Dangerous builds not checked
Setting up Verlet run ...
  Unit style    : metal
  Current step  : 90495
  Time step     : 0.001
Per MPI rank memory allocation (min/avg/max) = 11.3 | 11.3 | 11.3 Mbytes
Step Temp Press TotEng PotEng Enthalpy 
   90495    2353.7508    66.293076   -51320.086   -57298.828   -51301.872 
  100000    2359.5823    731.61964     -51322.6   -57316.153   -51122.238 
  140000     2351.078    715.05427   -51372.304   -57344.256   -51176.617 
Loop time of 3514.59 on 2 procs for 49505 steps with 19652 atoms

Performance: 1.217 ns/day, 19.721 hours/ns, 14.086 timesteps/s
98.7% CPU use with 2 MPI tasks x no OpenMP threads

MPI task timing breakdown:
Section |  min time  |  avg time  |  max time  |%varavg| %total
---------------------------------------------------------------
Pair    | 1829.4     | 1841.8     | 1854.3     |  29.0 | 52.40
Neigh   | 1485.3     | 1488.3     | 1491.2     |   7.6 | 42.35
Comm    | 123.87     | 139.31     | 154.76     | 130.8 |  3.96
Output  | 0.034494   | 0.034588   | 0.034682   |   0.1 |  0.00
Modify  | 35.952     | 36.018     | 36.085     |   1.1 |  1.02
Other   |            | 9.124      |            |       |  0.26

Nlocal:    9826 ave 9827 max 9825 min
Histogram: 1 0 0 0 0 0 0 0 0 1
Nghost:    11501.5 ave 11530 max 11473 min
Histogram: 1 0 0 0 0 0 0 0 0 1
Neighs:    561913 ave 567773 max 556053 min
Histogram: 1 0 0 0 0 0 0 0 0 1

Total # of neighbors = 1123826
Ave neighs/atom = 57.1863
Neighbor list builds = 49505
Dangerous builds not checked
Setting up Verlet run ...
  Unit style    : metal
  Current step  : 140000
  Time step     : 0.001
Per MPI rank memory allocation (min/avg/max) = 11.34 | 11.34 | 11.34 Mbytes
Step Temp Press TotEng PotEng Enthalpy 
  140000     2351.078    715.05427   -51372.304   -57344.256   -51176.617 
  140495    2325.9075   -399.71271   -51559.526   -57467.543   -51668.748 
Loop time of 36.5977 on 2 procs for 495 steps with 19652 atoms

Performance: 1.169 ns/day, 20.537 hours/ns, 13.525 timesteps/s
99.4% CPU use with 2 MPI tasks x no OpenMP threads

MPI task timing breakdown:
Section |  min time  |  avg time  |  max time  |%varavg| %total
---------------------------------------------------------------
Pair    | 19.332     | 19.48      | 19.629     |   3.4 | 53.23
Neigh   | 15.441     | 15.51      | 15.579     |   1.7 | 42.38
Comm    | 1.0419     | 1.1221     | 1.2024     |   7.6 |  3.07
Output  | 8.297e-05  | 0.00011146 | 0.00013995 |   0.0 |  0.00
Modify  | 0.37684    | 0.37744    | 0.37804    |   0.1 |  1.03
Other   |            | 0.1077     |            |       |  0.29

Nlocal:    9826 ave 9833 max 9819 min
Histogram: 1 0 0 0 0 0 0 0 0 1
Nghost:    11486.5 ave 11515 max 11458 min
Histogram: 1 0 0 0 0 0 0 0 0 1
Neighs:    562456 ave 567770 max 557141 min
Histogram: 1 0 0 0 0 0 0 0 0 1

Total # of neighbors = 1124911
Ave neighs/atom = 57.2416
Neighbor list builds = 495
Dangerous builds not checked
Setting up Verlet run ...
  Unit style    : metal
  Current step  : 140495
  Time step     : 0.001
Per MPI rank memory allocation (min/avg/max) = 11.34 | 11.34 | 11.34 Mbytes
Step Temp Press TotEng PotEng Enthalpy 
  140495    2325.9075   -399.71271   -51559.526   -57467.543   -51668.748 
  150000    2315.6433   -278.65988   -51619.257   -57501.202   -51695.319 
  190000    2304.0152   -1468.1214   -51691.316   -57543.724   -52091.697 
Loop time of 2857.15 on 2 procs for 49505 steps with 19652 atoms

Performance: 1.497 ns/day, 16.032 hours/ns, 17.327 timesteps/s
99.3% CPU use with 2 MPI tasks x no OpenMP threads

MPI task timing breakdown:
Section |  min time  |  avg time  |  max time  |%varavg| %total
---------------------------------------------------------------
Pair    | 1469.5     | 1476.4     | 1483.2     |  17.8 | 51.67
Neigh   | 1252.9     | 1259       | 1265       |  17.1 | 44.06
Comm    | 73.368     | 86.408     | 99.449     | 140.3 |  3.02
Output  | 0.023652   | 0.023696   | 0.02374    |   0.0 |  0.00
Modify  | 27.462     | 27.603     | 27.744     |   2.7 |  0.97
Other   |            | 7.75       |            |       |  0.27

Nlocal:    9826 ave 9851 max 9801 min
Histogram: 1 0 0 0 0 0 0 0 0 1
Nghost:    11466.5 ave 11477 max 11456 min
Histogram: 1 0 0 0 0 0 0 0 0 1
Neighs:    564166 ave 572084 max 556249 min
Histogram: 1 0 0 0 0 0 0 0 0 1

Total # of neighbors = 1128333
Ave neighs/atom = 57.4157
Neighbor list builds = 49505
Dangerous builds not checked
Setting up Verlet run ...
  Unit style    : metal
  Current step  : 190000
  Time step     : 0.001
Per MPI rank memory allocation (min/avg/max) = 11.35 | 11.35 | 11.35 Mbytes
Step Temp Press TotEng PotEng Enthalpy 
  190000    2304.0152   -1468.1214   -51691.316   -57543.724   -52091.697 
  190495    2254.5121    719.64299   -51924.611   -57651.277   -51730.007 
Loop time of 25.7637 on 2 procs for 495 steps with 19652 atoms

Performance: 1.660 ns/day, 14.458 hours/ns, 19.213 timesteps/s
99.9% CPU use with 2 MPI tasks x no OpenMP threads

MPI task timing breakdown:
Section |  min time  |  avg time  |  max time  |%varavg| %total
---------------------------------------------------------------
Pair    | 12.989     | 13.08      | 13.171     |   2.5 | 50.77
Neigh   | 11.81      | 11.812     | 11.815     |   0.1 | 45.85
Comm    | 0.44119    | 0.53616    | 0.63112    |  13.0 |  2.08
Output  | 6.9857e-05 | 9.6917e-05 | 0.00012398 |   0.0 |  0.00
Modify  | 0.25902    | 0.26023    | 0.26143    |   0.2 |  1.01
Other   |            | 0.07483    |            |       |  0.29

Nlocal:    9826 ave 9835 max 9817 min
Histogram: 1 0 0 0 0 0 0 0 0 1
Nghost:    11490 ave 11518 max 11462 min
Histogram: 1 0 0 0 0 0 0 0 0 1
Neighs:    568536 ave 573600 max 563473 min
Histogram: 1 0 0 0 0 0 0 0 0 1

Total # of neighbors = 1137073
Ave neighs/atom = 57.8604
Neighbor list builds = 495
Dangerous builds not checked
Setting up Verlet run ...
  Unit style    : metal
  Current step  : 190495
  Time step     : 0.001
Per MPI rank memory allocation (min/avg/max) = 11.35 | 11.35 | 11.35 Mbytes
Step Temp Press TotEng PotEng Enthalpy 
  190495    2254.5121    719.64299   -51924.611   -57651.277   -51730.007 
  200000    2253.4153    285.19065   -51994.457   -57718.337   -51917.397 
  240000     2242.389    787.68036   -51980.347    -57676.22   -51767.482 
Loop time of 2762.09 on 2 procs for 49505 steps with 19652 atoms

Performance: 1.549 ns/day, 15.498 hours/ns, 17.923 timesteps/s
99.0% CPU use with 2 MPI tasks x no OpenMP threads

MPI task timing breakdown:
Section |  min time  |  avg time  |  max time  |%varavg| %total
---------------------------------------------------------------
Pair    | 1412.6     | 1421.5     | 1430.3     |  23.5 | 51.46
Neigh   | 1224.8     | 1233.2     | 1241.6     |  24.0 | 44.65
Comm    | 54.979     | 72.493     | 90.008     | 205.7 |  2.62
Output  | 0.023232   | 0.023286   | 0.023341   |   0.0 |  0.00
Modify  | 27.139     | 27.354     | 27.57      |   4.1 |  0.99
Other   |            | 7.552      |            |       |  0.27

Nlocal:    9826 ave 9843 max 9809 min
Histogram: 1 0 0 0 0 0 0 0 0 1
Nghost:    11545 ave 11555 max 11535 min
Histogram: 1 0 0 0 0 0 0 0 0 1
Neighs:    569418 ave 577291 max 561544 min
Histogram: 1 0 0 0 0 0 0 0 0 1

Total # of neighbors = 1138835
Ave neighs/atom = 57.9501
Neighbor list builds = 49505
Dangerous builds not checked
Setting up Verlet run ...
  Unit style    : metal
  Current step  : 240000
  Time step     : 0.001
Per MPI rank memory allocation (min/avg/max) = 11.35 | 11.35 | 11.35 Mbytes
Step Temp Press TotEng PotEng Enthalpy 
  240000     2242.389    787.68036   -51980.347    -57676.22   -51767.482 
  240495     2209.822     -383.629   -52127.122   -57740.271   -52230.769 
Loop time of 25.292 on 2 procs for 495 steps with 19652 atoms

Performance: 1.691 ns/day, 14.193 hours/ns, 19.571 timesteps/s
100.0% CPU use with 2 MPI tasks x no OpenMP threads

MPI task timing breakdown:
Section |  min time  |  avg time  |  max time  |%varavg| %total
---------------------------------------------------------------
Pair    | 12.785     | 12.834     | 12.883     |   1.4 | 50.74
Neigh   | 11.592     | 11.68      | 11.767     |   2.6 | 46.18
Comm    | 0.31538    | 0.45432    | 0.59326    |  20.6 |  1.80
Output  | 6.5088e-05 | 9.0599e-05 | 0.00011611 |   0.0 |  0.00
Modify  | 0.25029    | 0.25229    | 0.25428    |   0.4 |  1.00
Other   |            | 0.07181    |            |       |  0.28

Nlocal:    9826 ave 9853 max 9799 min
Histogram: 1 0 0 0 0 0 0 0 0 1
Nghost:    11557.5 ave 11581 max 11534 min
Histogram: 1 0 0 0 0 0 0 0 0 1
Neighs:    569511 ave 573833 max 565189 min
Histogram: 1 0 0 0 0 0 0 0 0 1

Total # of neighbors = 1139022
Ave neighs/atom = 57.9596
Neighbor list builds = 495
Dangerous builds not checked
Setting up Verlet run ...
  Unit style    : metal
  Current step  : 240495
  Time step     : 0.001
Per MPI rank memory allocation (min/avg/max) = 11.35 | 11.35 | 11.35 Mbytes
Step Temp Press TotEng PotEng Enthalpy 
  240495     2209.822     -383.629   -52127.122   -57740.271   -52230.769 
  250000     2180.062     521.0242   -52322.407   -57859.963   -52182.558 
  290000    2185.8331    -652.4329   -52278.373   -57830.589   -52454.004 
Loop time of 2794.16 on 2 procs for 49505 steps with 19652 atoms

Performance: 1.531 ns/day, 15.678 hours/ns, 17.717 timesteps/s
99.2% CPU use with 2 MPI tasks x no OpenMP threads

MPI task timing breakdown:
Section |  min time  |  avg time  |  max time  |%varavg| %total
---------------------------------------------------------------
Pair    | 1427.1     | 1435.1     | 1443.1     |  21.2 | 51.36
Neigh   | 1232.1     | 1241.3     | 1250.5     |  26.1 | 44.42
Comm    | 65.237     | 82.664     | 100.09     | 191.7 |  2.96
Output  | 0.023679   | 0.023731   | 0.023783   |   0.0 |  0.00
Modify  | 27.431     | 27.616     | 27.8       |   3.5 |  0.99
Other   |            | 7.468      |            |       |  0.27

Nlocal:    9826 ave 9835 max 9817 min
Histogram: 1 0 0 0 0 0 0 0 0 1
Nghost:    11508.5 ave 11535 max 11482 min
Histogram: 1 0 0 0 0 0 0 0 0 1
Neighs:    571392 ave 576010 max 566774 min
Histogram: 1 0 0 0 0 0 0 0 0 1

Total # of neighbors = 1142784
Ave neighs/atom = 58.151
Neighbor list builds = 49505
Dangerous builds not checked
Setting up Verlet run ...
  Unit style    : metal
  Current step  : 290000
  Time step     : 0.001
Per MPI rank memory allocation (min/avg/max) = 11.35 | 11.35 | 11.35 Mbytes
Step Temp Press TotEng PotEng Enthalpy 
  290000    2185.8331    -652.4329   -52278.373   -57830.589   -52454.004 
  290495    2156.5329    -145.6338   -52444.774   -57922.564   -52483.834 
Loop time of 29.9166 on 2 procs for 495 steps with 19652 atoms

Performance: 1.430 ns/day, 16.788 hours/ns, 16.546 timesteps/s
100.0% CPU use with 2 MPI tasks x no OpenMP threads

MPI task timing breakdown:
Section |  min time  |  avg time  |  max time  |%varavg| %total
---------------------------------------------------------------
Pair    | 15.535     | 15.595     | 15.655     |   1.5 | 52.13
Neigh   | 12.576     | 12.73      | 12.884     |   4.3 | 42.55
Comm    | 1.1185     | 1.2154     | 1.3123     |   8.8 |  4.06
Output  | 0.0001781  | 0.00020504 | 0.00023198 |   0.0 |  0.00
Modify  | 0.2951     | 0.29647    | 0.29784    |   0.3 |  0.99
Other   |            | 0.07909    |            |       |  0.26

Nlocal:    9826 ave 9837 max 9815 min
Histogram: 1 0 0 0 0 0 0 0 0 1
Nghost:    11621.5 ave 11648 max 11595 min
Histogram: 1 0 0 0 0 0 0 0 0 1
Neighs:    573338 ave 577091 max 569586 min
Histogram: 1 0 0 0 0 0 0 0 0 1

Total # of neighbors = 1146677
Ave neighs/atom = 58.3491
Neighbor list builds = 495
Dangerous builds not checked
Setting up Verlet run ...
  Unit style    : metal
  Current step  : 290495
  Time step     : 0.001
Per MPI rank memory allocation (min/avg/max) = 11.35 | 11.35 | 11.35 Mbytes
Step Temp Press TotEng PotEng Enthalpy 
  290495    2156.5329    -145.6338   -52444.774   -57922.564   -52483.834 
  300000     2157.854    346.87383   -52451.775   -57932.921   -52358.814 
  340000    2151.0738   -490.88119   -52491.401   -57955.325   -52623.056 
Loop time of 3066.1 on 2 procs for 49505 steps with 19652 atoms

Performance: 1.395 ns/day, 17.204 hours/ns, 16.146 timesteps/s
99.3% CPU use with 2 MPI tasks x no OpenMP threads

MPI task timing breakdown:
Section |  min time  |  avg time  |  max time  |%varavg| %total
---------------------------------------------------------------
Pair    | 1602.3     | 1606.1     | 1609.9     |   9.4 | 52.38
Neigh   | 1301.8     | 1306.2     | 1310.6     |  12.2 | 42.60
Comm    | 108.26     | 116.43     | 124.61     |  75.7 |  3.80
Output  | 0.023326   | 0.023378   | 0.023429   |   0.0 |  0.00
Modify  | 29.423     | 29.448     | 29.473     |   0.5 |  0.96
Other   |            | 7.929      |            |       |  0.26

Nlocal:    9826 ave 9837 max 9815 min
Histogram: 1 0 0 0 0 0 0 0 0 1
Nghost:    11596 ave 11597 max 11595 min
Histogram: 1 0 0 0 0 0 0 0 0 1
Neighs:    573409 ave 579741 max 567077 min
Histogram: 1 0 0 0 0 0 0 0 0 1

Total # of neighbors = 1146818
Ave neighs/atom = 58.3563
Neighbor list builds = 49505
Dangerous builds not checked
Setting up Verlet run ...
  Unit style    : metal
  Current step  : 340000
  Time step     : 0.001
Per MPI rank memory allocation (min/avg/max) = 11.35 | 11.35 | 11.35 Mbytes
Step Temp Press TotEng PotEng Enthalpy 
  340000    2151.0738   -490.88119   -52491.401   -57955.325   -52623.056 
  340495    2115.7835    345.22169   -52703.647   -58077.929   -52611.648 
Loop time of 26.332 on 2 procs for 495 steps with 19652 atoms

Performance: 1.624 ns/day, 14.777 hours/ns, 18.798 timesteps/s
99.1% CPU use with 2 MPI tasks x no OpenMP threads

MPI task timing breakdown:
Section |  min time  |  avg time  |  max time  |%varavg| %total
---------------------------------------------------------------
Pair    | 13.434     | 13.525     | 13.616     |   2.5 | 51.36
Neigh   | 11.861     | 11.88      | 11.898     |   0.5 | 45.12
Comm    | 0.48134    | 0.59223    | 0.70312    |  14.4 |  2.25
Output  | 5.7936e-05 | 8.0466e-05 | 0.000103   |   0.0 |  0.00
Modify  | 0.26017    | 0.26129    | 0.26241    |   0.2 |  0.99
Other   |            | 0.07376    |            |       |  0.28

Nlocal:    9826 ave 9844 max 9808 min
Histogram: 1 0 0 0 0 0 0 0 0 1
Nghost:    11599.5 ave 11603 max 11596 min
Histogram: 1 0 0 0 0 0 0 0 0 1
Neighs:    576979 ave 584772 max 569186 min
Histogram: 1 0 0 0 0 0 0 0 0 1

Total # of neighbors = 1153958
Ave neighs/atom = 58.7196
Neighbor list builds = 495
Dangerous builds not checked
Setting up Verlet run ...
  Unit style    : metal
  Current step  : 340495
  Time step     : 0.001
Per MPI rank memory allocation (min/avg/max) = 11.35 | 11.35 | 11.35 Mbytes
Step Temp Press TotEng PotEng Enthalpy 
  340495    2115.7835    345.22169   -52703.647   -58077.929   -52611.648 
  350000    2099.7844    89.546416   -52776.992   -58110.636   -52753.176 
  390000    2098.4127   -802.87879   -52720.172   -58050.331   -52934.875 
Loop time of 2774.67 on 2 procs for 49505 steps with 19652 atoms

Performance: 1.542 ns/day, 15.569 hours/ns, 17.842 timesteps/s
99.2% CPU use with 2 MPI tasks x no OpenMP threads

MPI task timing breakdown:
Section |  min time  |  avg time  |  max time  |%varavg| %total
---------------------------------------------------------------
Pair    | 1420.2     | 1427.4     | 1434.6     |  19.1 | 51.44
Neigh   | 1225.3     | 1232.6     | 1239.9     |  20.7 | 44.42
Comm    | 65.902     | 80.097     | 94.293     | 158.6 |  2.89
Output  | 0.02322    | 0.023253   | 0.023286   |   0.0 |  0.00
Modify  | 26.866     | 27.178     | 27.49      |   6.0 |  0.98
Other   |            | 7.431      |            |       |  0.27

Nlocal:    9826 ave 9830 max 9822 min
Histogram: 1 0 0 0 0 0 0 0 0 1
Nghost:    11518 ave 11557 max 11479 min
Histogram: 1 0 0 0 0 0 0 0 0 1
Neighs:    575330 ave 580354 max 570307 min
Histogram: 1 0 0 0 0 0 0 0 0 1

Total # of neighbors = 1150661
Ave neighs/atom = 58.5519
Neighbor list builds = 49505
Dangerous builds not checked
Setting up Verlet run ...
  Unit style    : metal
  Current step  : 390000
  Time step     : 0.001
Per MPI rank memory allocation (min/avg/max) = 11.35 | 11.35 | 11.35 Mbytes
Step Temp Press TotEng PotEng Enthalpy 
  390000    2098.4127   -802.87879   -52720.172   -58050.331   -52934.875 
  390495    2075.0243    296.25753   -52993.103   -58263.854   -52914.742 
Loop time of 26.563 on 2 procs for 495 steps with 19652 atoms

Performance: 1.610 ns/day, 14.906 hours/ns, 18.635 timesteps/s
98.7% CPU use with 2 MPI tasks x no OpenMP threads

MPI task timing breakdown:
Section |  min time  |  avg time  |  max time  |%varavg| %total
---------------------------------------------------------------
Pair    | 13.619     | 13.751     | 13.883     |   3.6 | 51.77
Neigh   | 11.88      | 11.902     | 11.924     |   0.6 | 44.81
Comm    | 0.46069    | 0.57161    | 0.68254    |  14.7 |  2.15
Output  | 6.6996e-05 | 8.3566e-05 | 0.00010014 |   0.0 |  0.00
Modify  | 0.26199    | 0.26302    | 0.26405    |   0.2 |  0.99
Other   |            | 0.0753     |            |       |  0.28

Nlocal:    9826 ave 9845 max 9807 min
Histogram: 1 0 0 0 0 0 0 0 0 1
Nghost:    11679.5 ave 11703 max 11656 min
Histogram: 1 0 0 0 0 0 0 0 0 1
Neighs:    581328 ave 590199 max 572458 min
Histogram: 1 0 0 0 0 0 0 0 0 1

Total # of neighbors = 1162657
Ave neighs/atom = 59.1623
Neighbor list builds = 495
Dangerous builds not checked
Setting up Verlet run ...
  Unit style    : metal
  Current step  : 390495
  Time step     : 0.001
Per MPI rank memory allocation (min/avg/max) = 11.35 | 11.35 | 11.35 Mbytes
Step Temp Press TotEng PotEng Enthalpy 
  390495    2075.0243    296.25753   -52993.103   -58263.854   -52914.742 
  400000    2035.2471    913.39527   -53151.089   -58320.802   -52910.345 
  440000    2060.4675   -485.29096   -53075.093   -58308.868   -53203.546 
Loop time of 4384.13 on 2 procs for 49505 steps with 19652 atoms

Performance: 0.976 ns/day, 24.600 hours/ns, 11.292 timesteps/s
99.0% CPU use with 2 MPI tasks x no OpenMP threads

MPI task timing breakdown:
Section |  min time  |  avg time  |  max time  |%varavg| %total
---------------------------------------------------------------
Pair    | 2381.7     | 2394.4     | 2407.1     |  26.0 | 54.61
Neigh   | 1789.6     | 1796.9     | 1804.2     |  17.3 | 40.99
Comm    | 116.99     | 137.14     | 157.29     | 172.1 |  3.13
Output  | 0.038318   | 0.038426   | 0.038533   |   0.1 |  0.00
Modify  | 43.888     | 44.07      | 44.252     |   2.7 |  1.01
Other   |            | 11.61      |            |       |  0.26

Nlocal:    9826 ave 9835 max 9817 min
Histogram: 1 0 0 0 0 0 0 0 0 1
Nghost:    11617.5 ave 11669 max 11566 min
Histogram: 1 0 0 0 0 0 0 0 0 1
Neighs:    581094 ave 586336 max 575851 min
Histogram: 1 0 0 0 0 0 0 0 0 1

Total # of neighbors = 1162187
Ave neighs/atom = 59.1384
Neighbor list builds = 49505
Dangerous builds not checked
Setting up Verlet run ...
  Unit style    : metal
  Current step  : 440000
  Time step     : 0.001
Per MPI rank memory allocation (min/avg/max) = 11.35 | 11.35 | 11.35 Mbytes
Step Temp Press TotEng PotEng Enthalpy 
  440000    2060.4675   -485.29096   -53075.093   -58308.868   -53203.546 
  440495    2014.8374     -100.663   -53242.472   -58360.343    -53269.03 
Loop time of 41.8278 on 2 procs for 495 steps with 19652 atoms

Performance: 1.022 ns/day, 23.472 hours/ns, 11.834 timesteps/s
100.0% CPU use with 2 MPI tasks x no OpenMP threads

MPI task timing breakdown:
Section |  min time  |  avg time  |  max time  |%varavg| %total
---------------------------------------------------------------
Pair    | 22.647     | 22.713     | 22.779     |   1.4 | 54.30
Neigh   | 17.521     | 17.53      | 17.539     |   0.2 | 41.91
Comm    | 0.94962    | 1.03       | 1.1104     |   7.9 |  2.46
Output  | 9.4175e-05 | 0.00014865 | 0.00020313 |   0.0 |  0.00
Modify  | 0.42751    | 0.43171    | 0.43592    |   0.6 |  1.03
Other   |            | 0.123      |            |       |  0.29

Nlocal:    9826 ave 9826 max 9826 min
Histogram: 2 0 0 0 0 0 0 0 0 0
Nghost:    11647 ave 11673 max 11621 min
Histogram: 1 0 0 0 0 0 0 0 0 1
Neighs:    583158 ave 589442 max 576875 min
Histogram: 1 0 0 0 0 0 0 0 0 1

Total # of neighbors = 1166317
Ave neighs/atom = 59.3485
Neighbor list builds = 495
Dangerous builds not checked
Setting up Verlet run ...
  Unit style    : metal
  Current step  : 440495
  Time step     : 0.001
Per MPI rank memory allocation (min/avg/max) = 11.35 | 11.35 | 11.35 Mbytes
Step Temp Press TotEng PotEng Enthalpy 
  440495    2014.8374     -100.663   -53242.472   -58360.343    -53269.03 
  450000    1993.7814      921.541   -53381.815   -58446.202    -53140.24 
  490000    2003.0618   -178.24705   -53322.599   -58410.558   -53369.501 
Loop time of 3608.13 on 2 procs for 49505 steps with 19652 atoms

Performance: 1.185 ns/day, 20.246 hours/ns, 13.720 timesteps/s
99.3% CPU use with 2 MPI tasks x no OpenMP threads

MPI task timing breakdown:
Section |  min time  |  avg time  |  max time  |%varavg| %total
---------------------------------------------------------------
Pair    | 1934       | 1940.5     | 1947       |  14.8 | 53.78
Neigh   | 1504.6     | 1512.7     | 1520.8     |  20.7 | 41.92
Comm    | 95.536     | 110.27     | 125        | 140.3 |  3.06
Output  | 0.038798   | 0.038859   | 0.038921   |   0.0 |  0.00
Modify  | 34.862     | 35.001     | 35.14      |   2.4 |  0.97
Other   |            | 9.631      |            |       |  0.27

Nlocal:    9826 ave 9846 max 9806 min
Histogram: 1 0 0 0 0 0 0 0 0 1
Nghost:    11684 ave 11727 max 11641 min
Histogram: 1 0 0 0 0 0 0 0 0 1
Neighs:    584614 ave 592799 max 576429 min
Histogram: 1 0 0 0 0 0 0 0 0 1

Total # of neighbors = 1169228
Ave neighs/atom = 59.4966
Neighbor list builds = 49505
Dangerous builds not checked
Setting up Verlet run ...
  Unit style    : metal
  Current step  : 490000
  Time step     : 0.001
Per MPI rank memory allocation (min/avg/max) = 11.35 | 11.35 | 11.35 Mbytes
Step Temp Press TotEng PotEng Enthalpy 
  490000    2003.0618   -178.24705   -53322.599   -58410.558   -53369.501 
  490495    1944.3463    723.14122   -53565.312   -58504.129   -53376.162 
Loop time of 27.7656 on 2 procs for 495 steps with 19652 atoms

Performance: 1.540 ns/day, 15.581 hours/ns, 17.828 timesteps/s
98.9% CPU use with 2 MPI tasks x no OpenMP threads

MPI task timing breakdown:
Section |  min time  |  avg time  |  max time  |%varavg| %total
---------------------------------------------------------------
Pair    | 14.471     | 14.497     | 14.522     |   0.7 | 52.21
Neigh   | 12.133     | 12.221     | 12.309     |   2.5 | 44.02
Comm    | 0.6271     | 0.69315    | 0.7592     |   7.9 |  2.50
Output  | 8.7976e-05 | 0.00012243 | 0.00015688 |   0.0 |  0.00
Modify  | 0.27407    | 0.27651    | 0.27896    |   0.5 |  1.00
Other   |            | 0.07782    |            |       |  0.28

Nlocal:    9826 ave 9878 max 9774 min
Histogram: 1 0 0 0 0 0 0 0 0 1
Nghost:    11702.5 ave 11722 max 11683 min
Histogram: 1 0 0 0 0 0 0 0 0 1
Neighs:    588244 ave 599106 max 577381 min
Histogram: 1 0 0 0 0 0 0 0 0 1

Total # of neighbors = 1176487
Ave neighs/atom = 59.866
Neighbor list builds = 495
Dangerous builds not checked
Setting up Verlet run ...
  Unit style    : metal
  Current step  : 490495
  Time step     : 0.001
Per MPI rank memory allocation (min/avg/max) = 11.35 | 11.35 | 11.35 Mbytes
Step Temp Press TotEng PotEng Enthalpy 
  490495    1944.3463    723.14122   -53565.312   -58504.129   -53376.162 
  500000    1934.7012   -782.90858   -53645.432   -58559.749   -53850.646 
  540000    1968.3711    -879.8254   -53587.037   -58586.879    -53817.54 
Loop time of 2930.99 on 2 procs for 49505 steps with 19652 atoms

Performance: 1.459 ns/day, 16.446 hours/ns, 16.890 timesteps/s
99.0% CPU use with 2 MPI tasks x no OpenMP threads

MPI task timing breakdown:
Section |  min time  |  avg time  |  max time  |%varavg| %total
---------------------------------------------------------------
Pair    | 1529       | 1535.3     | 1541.7     |  16.2 | 52.38
Neigh   | 1259.3     | 1266.1     | 1272.8     |  19.0 | 43.20
Comm    | 78.967     | 92.206     | 105.45     | 137.9 |  3.15
Output  | 0.024271   | 0.024346   | 0.024421   |   0.0 |  0.00
Modify  | 29.395     | 29.493     | 29.591     |   1.8 |  1.01
Other   |            | 7.888      |            |       |  0.27

Nlocal:    9826 ave 9866 max 9786 min
Histogram: 1 0 0 0 0 0 0 0 0 1
Nghost:    11672.5 ave 11678 max 11667 min
Histogram: 1 0 0 0 0 0 0 0 0 1
Neighs:    587270 ave 589377 max 585163 min
Histogram: 1 0 0 0 0 0 0 0 0 1

Total # of neighbors = 1174540
Ave neighs/atom = 59.7669
Neighbor list builds = 49505
Dangerous builds not checked
Setting up Verlet run ...
  Unit style    : metal
  Current step  : 540000
  Time step     : 0.001
Per MPI rank memory allocation (min/avg/max) = 11.35 | 11.35 | 11.35 Mbytes
Step Temp Press TotEng PotEng Enthalpy 
  540000    1968.3711    -879.8254   -53587.037   -58586.879    -53817.54 
  540495    1917.3624   -125.26962   -53826.639   -58696.914   -53859.246 
Loop time of 40.5047 on 2 procs for 495 steps with 19652 atoms

Performance: 1.056 ns/day, 22.730 hours/ns, 12.221 timesteps/s
99.1% CPU use with 2 MPI tasks x no OpenMP threads

MPI task timing breakdown:
Section |  min time  |  avg time  |  max time  |%varavg| %total
---------------------------------------------------------------
Pair    | 22.24      | 22.316     | 22.392     |   1.6 | 55.10
Neigh   | 15.282     | 15.843     | 16.403     |  14.1 | 39.11
Comm    | 1.3224     | 1.815      | 2.3076     |  36.6 |  4.48
Output  | 0.00044203 | 0.00053346 | 0.0006249  |   0.0 |  0.00
Modify  | 0.4106     | 0.41715    | 0.42369    |   1.0 |  1.03
Other   |            | 0.1134     |            |       |  0.28

Nlocal:    9826 ave 9831 max 9821 min
Histogram: 1 0 0 0 0 0 0 0 0 1
Nghost:    11735 ave 11738 max 11732 min
Histogram: 1 0 0 0 0 0 0 0 0 1
Neighs:    591220 ave 597546 max 584894 min
Histogram: 1 0 0 0 0 0 0 0 0 1

Total # of neighbors = 1182440
Ave neighs/atom = 60.1689
Neighbor list builds = 495
Dangerous builds not checked
Setting up Verlet run ...
  Unit style    : metal
  Current step  : 540495
  Time step     : 0.001
Per MPI rank memory allocation (min/avg/max) = 11.35 | 11.35 | 11.35 Mbytes
Step Temp Press TotEng PotEng Enthalpy 
  540495    1917.3624   -125.26962   -53826.639   -58696.914   -53859.246 
  550000    1901.0763   -1518.0539   -53895.262   -58724.169   -54291.543 
  590000    1894.0854   -654.53744   -53834.334   -58645.483   -54005.167 
Loop time of 2934.13 on 2 procs for 49505 steps with 19652 atoms

Performance: 1.458 ns/day, 16.464 hours/ns, 16.872 timesteps/s
99.4% CPU use with 2 MPI tasks x no OpenMP threads

MPI task timing breakdown:
Section |  min time  |  avg time  |  max time  |%varavg| %total
---------------------------------------------------------------
Pair    | 1552.4     | 1554.4     | 1556.4     |   5.0 | 52.98
Neigh   | 1259.7     | 1266.7     | 1273.7     |  19.6 | 43.17
Comm    | 71.531     | 76.725     | 81.919     |  59.3 |  2.61
Output  | 0.026185   | 0.026234   | 0.026284   |   0.0 |  0.00
Modify  | 28.05      | 28.214     | 28.378     |   3.1 |  0.96
Other   |            | 8.104      |            |       |  0.28

Nlocal:    9826 ave 9835 max 9817 min
Histogram: 1 0 0 0 0 0 0 0 0 1
Nghost:    11676.5 ave 11689 max 11664 min
Histogram: 1 0 0 0 0 0 0 0 0 1
Neighs:    589414 ave 594224 max 584604 min
Histogram: 1 0 0 0 0 0 0 0 0 1

Total # of neighbors = 1178828
Ave neighs/atom = 59.9851
Neighbor list builds = 49505
Dangerous builds not checked
Setting up Verlet run ...
  Unit style    : metal
  Current step  : 590000
  Time step     : 0.001
Per MPI rank memory allocation (min/avg/max) = 11.35 | 11.35 | 11.35 Mbytes
Step Temp Press TotEng PotEng Enthalpy 
  590000    1894.0854   -654.53744   -53834.334   -58645.483   -54005.167 
  590495    1868.0273    99.469627   -54111.606   -58856.566   -54085.857 
Loop time of 27.2685 on 2 procs for 495 steps with 19652 atoms

Performance: 1.568 ns/day, 15.302 hours/ns, 18.153 timesteps/s
100.0% CPU use with 2 MPI tasks x no OpenMP threads

MPI task timing breakdown:
Section |  min time  |  avg time  |  max time  |%varavg| %total
---------------------------------------------------------------
Pair    | 14.198     | 14.268     | 14.337     |   1.8 | 52.32
Neigh   | 11.952     | 12.119     | 12.286     |   4.8 | 44.44
Comm    | 0.42854    | 0.53154    | 0.63453    |  14.1 |  1.95
Output  | 9.1791e-05 | 0.00012386 | 0.00015593 |   0.0 |  0.00
Modify  | 0.26749    | 0.27151    | 0.27552    |   0.8 |  1.00
Other   |            | 0.07916    |            |       |  0.29

Nlocal:    9826 ave 9848 max 9804 min
Histogram: 1 0 0 0 0 0 0 0 0 1
Nghost:    11787 ave 11809 max 11765 min
Histogram: 1 0 0 0 0 0 0 0 0 1
Neighs:    594379 ave 598045 max 590713 min
Histogram: 1 0 0 0 0 0 0 0 0 1

Total # of neighbors = 1188758
Ave neighs/atom = 60.4904
Neighbor list builds = 495
Dangerous builds not checked
Setting up Verlet run ...
  Unit style    : metal
  Current step  : 590495
  Time step     : 0.001
Per MPI rank memory allocation (min/avg/max) = 11.35 | 11.35 | 11.35 Mbytes
Step Temp Press TotEng PotEng Enthalpy 
  590495    1868.0273    99.469627   -54111.606   -58856.566   -54085.857 
  600000    1861.9976    -97.58872    -54199.35   -58928.994   -54224.561 
  640000    1856.9096   -527.63955    -54129.39   -58846.109   -54266.196 
Loop time of 3134.43 on 2 procs for 49505 steps with 19652 atoms

Performance: 1.365 ns/day, 17.588 hours/ns, 15.794 timesteps/s
99.1% CPU use with 2 MPI tasks x no OpenMP threads

MPI task timing breakdown:
Section |  min time  |  avg time  |  max time  |%varavg| %total
---------------------------------------------------------------
Pair    | 1670       | 1675.1     | 1680.2     |  12.5 | 53.44
Neigh   | 1304.2     | 1310.1     | 1316       |  16.2 | 41.80
Comm    | 99.262     | 110.73     | 122.2      | 109.0 |  3.53
Output  | 0.024284   | 0.024352   | 0.024419   |   0.0 |  0.00
Modify  | 29.546     | 30.015     | 30.484     |   8.6 |  0.96
Other   |            | 8.463      |            |       |  0.27

Nlocal:    9826 ave 9846 max 9806 min
Histogram: 1 0 0 0 0 0 0 0 0 1
Nghost:    11732 ave 11755 max 11709 min
Histogram: 1 0 0 0 0 0 0 0 0 1
Neighs:    593456 ave 600656 max 586256 min
Histogram: 1 0 0 0 0 0 0 0 0 1

Total # of neighbors = 1186912
Ave neighs/atom = 60.3965
Neighbor list builds = 49505
Dangerous builds not checked
Setting up Verlet run ...
  Unit style    : metal
  Current step  : 640000
  Time step     : 0.001
Per MPI rank memory allocation (min/avg/max) = 11.35 | 11.35 | 11.35 Mbytes
Step Temp Press TotEng PotEng Enthalpy 
  640000    1856.9096   -527.63955    -54129.39   -58846.109   -54266.196 
  640495    1807.5296    259.14453    -54379.55    -58970.84   -54312.819 
Loop time of 35.7581 on 2 procs for 495 steps with 19652 atoms

Performance: 1.196 ns/day, 20.066 hours/ns, 13.843 timesteps/s
99.5% CPU use with 2 MPI tasks x no OpenMP threads

MPI task timing breakdown:
Section |  min time  |  avg time  |  max time  |%varavg| %total
---------------------------------------------------------------
Pair    | 19.128     | 19.211     | 19.293     |   1.9 | 53.72
Neigh   | 13.175     | 14.162     | 15.15      |  26.2 | 39.61
Comm    | 1.0042     | 1.9344     | 2.8646     |  66.9 |  5.41
Output  | 0.00012088 | 0.00013745 | 0.00015402 |   0.0 |  0.00
Modify  | 0.33447    | 0.35274    | 0.371      |   3.1 |  0.99
Other   |            | 0.09775    |            |       |  0.27

Nlocal:    9826 ave 9831 max 9821 min
Histogram: 1 0 0 0 0 0 0 0 0 1
Nghost:    11792 ave 11801 max 11783 min
Histogram: 1 0 0 0 0 0 0 0 0 1
Neighs:    597640 ave 603108 max 592172 min
Histogram: 1 0 0 0 0 0 0 0 0 1

Total # of neighbors = 1195280
Ave neighs/atom = 60.8223
Neighbor list builds = 495
Dangerous builds not checked
Setting up Verlet run ...
  Unit style    : metal
  Current step  : 640495
  Time step     : 0.001
Per MPI rank memory allocation (min/avg/max) = 11.35 | 11.35 | 11.35 Mbytes
Step Temp Press TotEng PotEng Enthalpy 
  640495    1807.5296    259.14453    -54379.55    -58970.84   -54312.819 
  650000    1807.7659   -877.43917   -54432.266   -59024.156   -54658.393 
  690000    1793.1397   -67.593485   -54459.421   -59014.159    -54476.83 
Loop time of 3178.61 on 2 procs for 49505 steps with 19652 atoms

Performance: 1.346 ns/day, 17.836 hours/ns, 15.574 timesteps/s
99.4% CPU use with 2 MPI tasks x no OpenMP threads

MPI task timing breakdown:
Section |  min time  |  avg time  |  max time  |%varavg| %total
---------------------------------------------------------------
Pair    | 1690.4     | 1694.6     | 1698.8     |  10.3 | 53.31
Neigh   | 1316.6     | 1322.6     | 1328.6     |  16.4 | 41.61
Comm    | 120.28     | 122.39     | 124.5      |  19.1 |  3.85
Output  | 0.034877   | 0.034906   | 0.034936   |   0.0 |  0.00
Modify  | 30.054     | 30.422     | 30.79      |   6.7 |  0.96
Other   |            | 8.577      |            |       |  0.27

Nlocal:    9826 ave 9826 max 9826 min
Histogram: 2 0 0 0 0 0 0 0 0 0
Nghost:    11803 ave 11819 max 11787 min
Histogram: 1 0 0 0 0 0 0 0 0 1
Neighs:    597478 ave 602493 max 592463 min
Histogram: 1 0 0 0 0 0 0 0 0 1

Total # of neighbors = 1194956
Ave neighs/atom = 60.8058
Neighbor list builds = 49505
Dangerous builds not checked
Setting up Verlet run ...
  Unit style    : metal
  Current step  : 690000
  Time step     : 0.001
Per MPI rank memory allocation (min/avg/max) = 11.35 | 11.35 | 11.35 Mbytes
Step Temp Press TotEng PotEng Enthalpy 
  690000    1793.1397   -67.593485   -54459.421   -59014.159    -54476.83 
  690495    1751.6764    451.18969   -54674.613   -59124.031   -54559.078 
Loop time of 26.9356 on 2 procs for 495 steps with 19652 atoms

Performance: 1.588 ns/day, 15.115 hours/ns, 18.377 timesteps/s
99.8% CPU use with 2 MPI tasks x no OpenMP threads

MPI task timing breakdown:
Section |  min time  |  avg time  |  max time  |%varavg| %total
---------------------------------------------------------------
Pair    | 14.005     | 14.033     | 14.062     |   0.8 | 52.10
Neigh   | 11.994     | 12.038     | 12.083     |   1.3 | 44.69
Comm    | 0.44457    | 0.5178     | 0.59103    |  10.2 |  1.92
Output  | 6.2943e-05 | 8.0943e-05 | 9.8944e-05 |   0.0 |  0.00
Modify  | 0.26576    | 0.26658    | 0.26741    |   0.2 |  0.99
Other   |            | 0.07925    |            |       |  0.29

Nlocal:    9826 ave 9835 max 9817 min
Histogram: 1 0 0 0 0 0 0 0 0 1
Nghost:    11794 ave 11800 max 11788 min
Histogram: 1 0 0 0 0 0 0 0 0 1
Neighs:    601034 ave 605911 max 596157 min
Histogram: 1 0 0 0 0 0 0 0 0 1

Total # of neighbors = 1202068
Ave neighs/atom = 61.1677
Neighbor list builds = 495
Dangerous builds not checked
Setting up Verlet run ...
  Unit style    : metal
  Current step  : 690495
  Time step     : 0.001
Per MPI rank memory allocation (min/avg/max) = 11.35 | 11.35 | 11.35 Mbytes
Step Temp Press TotEng PotEng Enthalpy 
  690495    1751.6764    451.18969   -54674.613   -59124.031   -54559.078 
  700000    1752.0619   -775.67637   -54711.979   -59162.376   -54910.874 
  740000    1748.2166    501.46201   -54705.358   -59145.988   -54577.085 
Loop time of 3845.96 on 2 procs for 49505 steps with 19652 atoms

Performance: 1.112 ns/day, 21.580 hours/ns, 12.872 timesteps/s
98.8% CPU use with 2 MPI tasks x no OpenMP threads

MPI task timing breakdown:
Section |  min time  |  avg time  |  max time  |%varavg| %total
---------------------------------------------------------------
Pair    | 2076.9     | 2083.9     | 2090.9     |  15.3 | 54.18
Neigh   | 1588.6     | 1596.4     | 1604.3     |  19.7 | 41.51
Comm    | 102.6      | 117.64     | 132.68     | 138.7 |  3.06
Output  | 0.024221   | 0.024291   | 0.024361   |   0.0 |  0.00
Modify  | 37.785     | 37.979     | 38.173     |   3.1 |  0.99
Other   |            | 9.974      |            |       |  0.26

Nlocal:    9826 ave 9830 max 9822 min
Histogram: 1 0 0 0 0 0 0 0 0 1
Nghost:    11797.5 ave 11809 max 11786 min
Histogram: 1 0 0 0 0 0 0 0 0 1
Neighs:    601961 ave 608722 max 595200 min
Histogram: 1 0 0 0 0 0 0 0 0 1

Total # of neighbors = 1203922
Ave neighs/atom = 61.2621
Neighbor list builds = 49505
Dangerous builds not checked
Setting up Verlet run ...
  Unit style    : metal
  Current step  : 740000
  Time step     : 0.001
Per MPI rank memory allocation (min/avg/max) = 11.35 | 11.35 | 11.35 Mbytes
Step Temp Press TotEng PotEng Enthalpy 
  740000    1748.2166    501.46201   -54705.358   -59145.988   -54577.085 
  740495     1713.221    13.505826   -54920.367   -59272.104   -54916.924 
Loop time of 42.3178 on 2 procs for 495 steps with 19652 atoms

Performance: 1.011 ns/day, 23.747 hours/ns, 11.697 timesteps/s
99.9% CPU use with 2 MPI tasks x no OpenMP threads

MPI task timing breakdown:
Section |  min time  |  avg time  |  max time  |%varavg| %total
---------------------------------------------------------------
Pair    | 23.156     | 23.206     | 23.255     |   1.0 | 54.84
Neigh   | 17.418     | 17.521     | 17.625     |   2.5 | 41.40
Comm    | 0.98904    | 1.0442     | 1.0995     |   5.4 |  2.47
Output  | 7.8917e-05 | 0.00012505 | 0.00017118 |   0.0 |  0.00
Modify  | 0.42952    | 0.43111    | 0.43269    |   0.2 |  1.02
Other   |            | 0.1155     |            |       |  0.27

Nlocal:    9826 ave 9842 max 9810 min
Histogram: 1 0 0 0 0 0 0 0 0 1
Nghost:    11807 ave 11819 max 11795 min
Histogram: 1 0 0 0 0 0 0 0 0 1
Neighs:    603767 ave 610036 max 597498 min
Histogram: 1 0 0 0 0 0 0 0 0 1

Total # of neighbors = 1207534
Ave neighs/atom = 61.4459
Neighbor list builds = 495
Dangerous builds not checked
Setting up Verlet run ...
  Unit style    : metal
  Current step  : 740495
  Time step     : 0.001
Per MPI rank memory allocation (min/avg/max) = 11.35 | 11.35 | 11.35 Mbytes
Step Temp Press TotEng PotEng Enthalpy 
  740495     1713.221    13.505826   -54920.367   -59272.104   -54916.924 
  750000     1695.651   -233.21101   -55039.954   -59347.062   -55099.305 
  790000    1690.9472   -792.66267   -54953.985   -59249.145     -55156.5 
Loop time of 3854.63 on 2 procs for 49505 steps with 19652 atoms

Performance: 1.110 ns/day, 21.629 hours/ns, 12.843 timesteps/s
99.2% CPU use with 2 MPI tasks x no OpenMP threads

MPI task timing breakdown:
Section |  min time  |  avg time  |  max time  |%varavg| %total
---------------------------------------------------------------
Pair    | 2087.1     | 2092.3     | 2097.6     |  11.4 | 54.28
Neigh   | 1589.6     | 1593.8     | 1598.1     |  10.6 | 41.35
Comm    | 110.91     | 120.44     | 129.97     |  86.8 |  3.12
Output  | 0.03791    | 0.037968   | 0.038026   |   0.0 |  0.00
Modify  | 37.859     | 37.925     | 37.992     |   1.1 |  0.98
Other   |            | 10.1       |            |       |  0.26

Nlocal:    9826 ave 9828 max 9824 min
Histogram: 1 0 0 0 0 0 0 0 0 1
Nghost:    11784.5 ave 11819 max 11750 min
Histogram: 1 0 0 0 0 0 0 0 0 1
Neighs:    602636 ave 609377 max 595895 min
Histogram: 1 0 0 0 0 0 0 0 0 1

Total # of neighbors = 1205272
Ave neighs/atom = 61.3308
Neighbor list builds = 49505
Dangerous builds not checked
Setting up Verlet run ...
  Unit style    : metal
  Current step  : 790000
  Time step     : 0.001
Per MPI rank memory allocation (min/avg/max) = 11.35 | 11.35 | 11.35 Mbytes
Step Temp Press TotEng PotEng Enthalpy 
  790000    1690.9472   -792.66267   -54953.985   -59249.145     -55156.5 
  790495    1654.2363    482.02895   -55215.119    -59417.03   -55092.984 
Loop time of 26.3128 on 2 procs for 495 steps with 19652 atoms

Performance: 1.625 ns/day, 14.766 hours/ns, 18.812 timesteps/s
95.2% CPU use with 2 MPI tasks x no OpenMP threads

MPI task timing breakdown:
Section |  min time  |  avg time  |  max time  |%varavg| %total
---------------------------------------------------------------
Pair    | 14.041     | 14.068     | 14.096     |   0.7 | 53.47
Neigh   | 11.527     | 11.563     | 11.6       |   1.1 | 43.95
Comm    | 0.30439    | 0.36954    | 0.43469    |  10.7 |  1.40
Output  | 6.3896e-05 | 8.3923e-05 | 0.00010395 |   0.0 |  0.00
Modify  | 0.24371    | 0.24392    | 0.24412    |   0.0 |  0.93
Other   |            | 0.06741    |            |       |  0.26

Nlocal:    9826 ave 9854 max 9798 min
Histogram: 1 0 0 0 0 0 0 0 0 1
Nghost:    11839.5 ave 11860 max 11819 min
Histogram: 1 0 0 0 0 0 0 0 0 1
Neighs:    607354 ave 611331 max 603378 min
Histogram: 1 0 0 0 0 0 0 0 0 1

Total # of neighbors = 1214709
Ave neighs/atom = 61.811
Neighbor list builds = 495
Dangerous builds not checked
Setting up Verlet run ...
  Unit style    : metal
  Current step  : 790495
  Time step     : 0.001
Per MPI rank memory allocation (min/avg/max) = 11.35 | 11.35 | 11.35 Mbytes
Step Temp Press TotEng PotEng Enthalpy 
  790495    1654.2363    482.02895   -55215.119    -59417.03   -55092.984 
  800000    1653.1849   -446.80988   -55253.885   -59453.126    -55367.25 
  840000    1669.2359    637.29986   -55226.093   -59466.104   -55064.895 
Loop time of 2635.2 on 2 procs for 49505 steps with 19652 atoms

Performance: 1.623 ns/day, 14.786 hours/ns, 18.786 timesteps/s
99.4% CPU use with 2 MPI tasks x no OpenMP threads

MPI task timing breakdown:
Section |  min time  |  avg time  |  max time  |%varavg| %total
---------------------------------------------------------------
Pair    | 1342.2     | 1350.7     | 1359.1     |  23.1 | 51.25
Neigh   | 1185.8     | 1189.3     | 1192.8     |  10.1 | 45.13
Comm    | 50.758     | 62.421     | 74.084     | 147.6 |  2.37
Output  | 0.023236   | 0.02329    | 0.023344   |   0.0 |  0.00
Modify  | 25.655     | 25.967     | 26.278     |   6.1 |  0.99
Other   |            | 6.853      |            |       |  0.26

Nlocal:    9826 ave 9834 max 9818 min
Histogram: 1 0 0 0 0 0 0 0 0 1
Nghost:    11862.5 ave 11882 max 11843 min
Histogram: 1 0 0 0 0 0 0 0 0 1
Neighs:    608751 ave 614147 max 603355 min
Histogram: 1 0 0 0 0 0 0 0 0 1

Total # of neighbors = 1217502
Ave neighs/atom = 61.9531
Neighbor list builds = 49505
Dangerous builds not checked
Setting up Verlet run ...
  Unit style    : metal
  Current step  : 840000
  Time step     : 0.001
Per MPI rank memory allocation (min/avg/max) = 11.35 | 11.35 | 11.35 Mbytes
Step Temp Press TotEng PotEng Enthalpy 
  840000    1669.2359    637.29986   -55226.093   -59466.104   -55064.895 
  840495    1626.8182    702.34556   -55467.027   -59599.294   -55290.225 
Loop time of 25.5397 on 2 procs for 495 steps with 19652 atoms

Performance: 1.675 ns/day, 14.332 hours/ns, 19.382 timesteps/s
99.9% CPU use with 2 MPI tasks x no OpenMP threads

MPI task timing breakdown:
Section |  min time  |  avg time  |  max time  |%varavg| %total
---------------------------------------------------------------
Pair    | 12.946     | 13.083     | 13.22      |   3.8 | 51.23
Neigh   | 11.589     | 11.665     | 11.741     |   2.2 | 45.67
Comm    | 0.41236    | 0.47245    | 0.53254    |   8.7 |  1.85
Output  | 6.3896e-05 | 8.8453e-05 | 0.00011301 |   0.0 |  0.00
Modify  | 0.24818    | 0.24935    | 0.25052    |   0.2 |  0.98
Other   |            | 0.07008    |            |       |  0.27

Nlocal:    9826 ave 9851 max 9801 min
Histogram: 1 0 0 0 0 0 0 0 0 1
Nghost:    11871.5 ave 11898 max 11845 min
Histogram: 1 0 0 0 0 0 0 0 0 1
Neighs:    611670 ave 615395 max 607945 min
Histogram: 1 0 0 0 0 0 0 0 0 1

Total # of neighbors = 1223340
Ave neighs/atom = 62.2502
Neighbor list builds = 495
Dangerous builds not checked
Setting up Verlet run ...
  Unit style    : metal
  Current step  : 840495
  Time step     : 0.001
Per MPI rank memory allocation (min/avg/max) = 11.35 | 11.35 | 11.35 Mbytes
Step Temp Press TotEng PotEng Enthalpy 
  840495    1626.8182    702.34556   -55467.027   -59599.294   -55290.225 
  850000    1597.9653     -385.628   -55579.451   -59638.429   -55676.533 
  890000    1590.3312   -517.65878   -55593.711   -59633.297   -55724.187 
Loop time of 2816.44 on 2 procs for 49505 steps with 19652 atoms

Performance: 1.519 ns/day, 15.803 hours/ns, 17.577 timesteps/s
99.3% CPU use with 2 MPI tasks x no OpenMP threads

MPI task timing breakdown:
Section |  min time  |  avg time  |  max time  |%varavg| %total
---------------------------------------------------------------
Pair    | 1465.3     | 1465.7     | 1466       |   0.9 | 52.04
Neigh   | 1233       | 1235       | 1237       |   5.7 | 43.85
Comm    | 79.713     | 82.056     | 84.398     |  25.9 |  2.91
Output  | 0.022947   | 0.022993   | 0.023038   |   0.0 |  0.00
Modify  | 26.425     | 26.446     | 26.466     |   0.4 |  0.94
Other   |            | 7.243      |            |       |  0.26

Nlocal:    9826 ave 9853 max 9799 min
Histogram: 1 0 0 0 0 0 0 0 0 1
Nghost:    11855 ave 11896 max 11814 min
Histogram: 1 0 0 0 0 0 0 0 0 1
Neighs:    610832 ave 613619 max 608044 min
Histogram: 1 0 0 0 0 0 0 0 0 1

Total # of neighbors = 1221663
Ave neighs/atom = 62.1648
Neighbor list builds = 49505
Dangerous builds not checked
Setting up Verlet run ...
  Unit style    : metal
  Current step  : 890000
  Time step     : 0.001
Per MPI rank memory allocation (min/avg/max) = 11.35 | 11.35 | 11.35 Mbytes
Step Temp Press TotEng PotEng Enthalpy 
  890000    1590.3312   -517.65878   -55593.711   -59633.297   -55724.187 
  890495    1562.7427     244.4703   -55767.262   -59736.771   -55705.956 
Loop time of 31.19 on 2 procs for 495 steps with 19652 atoms

Performance: 1.371 ns/day, 17.503 hours/ns, 15.870 timesteps/s
93.5% CPU use with 2 MPI tasks x no OpenMP threads

MPI task timing breakdown:
Section |  min time  |  avg time  |  max time  |%varavg| %total
---------------------------------------------------------------
Pair    | 17.254     | 17.338     | 17.422     |   2.0 | 55.59
Neigh   | 11.958     | 12.423     | 12.887     |  13.2 | 39.83
Comm    | 0.51821    | 1.0781     | 1.638      |  53.9 |  3.46
Output  | 6.6996e-05 | 8.6546e-05 | 0.0001061  |   0.0 |  0.00
Modify  | 0.26767    | 0.27575    | 0.28383    |   1.5 |  0.88
Other   |            | 0.07538    |            |       |  0.24

Nlocal:    9826 ave 9867 max 9785 min
Histogram: 1 0 0 0 0 0 0 0 0 1
Nghost:    11856 ave 11873 max 11839 min
Histogram: 1 0 0 0 0 0 0 0 0 1
Neighs:    614080 ave 615740 max 612419 min
Histogram: 1 0 0 0 0 0 0 0 0 1

Total # of neighbors = 1228159
Ave neighs/atom = 62.4954
Neighbor list builds = 495
Dangerous builds not checked
Setting up Verlet run ...
  Unit style    : metal
  Current step  : 890495
  Time step     : 0.001
Per MPI rank memory allocation (min/avg/max) = 11.35 | 11.35 | 11.35 Mbytes
Step Temp Press TotEng PotEng Enthalpy 
  890495    1562.7427     244.4703   -55767.262   -59736.771   -55705.956 
  900000    1548.5952   -697.17004   -55872.625   -59806.198   -56047.237 
  940000     1545.845   -92.703464   -55867.523    -59794.11   -55890.707 
Loop time of 2814.04 on 2 procs for 49505 steps with 19652 atoms

Performance: 1.520 ns/day, 15.790 hours/ns, 17.592 timesteps/s
98.8% CPU use with 2 MPI tasks x no OpenMP threads

MPI task timing breakdown:
Section |  min time  |  avg time  |  max time  |%varavg| %total
---------------------------------------------------------------
Pair    | 1453.2     | 1460.1     | 1467       |  17.9 | 51.89
Neigh   | 1214.1     | 1222.9     | 1231.6     |  25.0 | 43.46
Comm    | 78.418     | 94.472     | 110.53     | 165.2 |  3.36
Output  | 0.022701   | 0.022746   | 0.02279    |   0.0 |  0.00
Modify  | 28.932     | 29.357     | 29.783     |   7.9 |  1.04
Other   |            | 7.241      |            |       |  0.26

Nlocal:    9826 ave 9827 max 9825 min
Histogram: 1 0 0 0 0 0 0 0 0 1
Nghost:    11956.5 ave 11963 max 11950 min
Histogram: 1 0 0 0 0 0 0 0 0 1
Neighs:    615871 ave 622740 max 609002 min
Histogram: 1 0 0 0 0 0 0 0 0 1

Total # of neighbors = 1231742
Ave neighs/atom = 62.6777
Neighbor list builds = 49505
Dangerous builds not checked
Setting up Verlet run ...
  Unit style    : metal
  Current step  : 940000
  Time step     : 0.001
Per MPI rank memory allocation (min/avg/max) = 11.35 | 11.35 | 11.35 Mbytes
Step Temp Press TotEng PotEng Enthalpy 
  940000     1545.845   -92.703464   -55867.523    -59794.11   -55890.707 
  940495    1504.8517    765.30616   -56063.545   -59886.005   -55872.936 
Loop time of 25.4577 on 2 procs for 495 steps with 19652 atoms

Performance: 1.680 ns/day, 14.286 hours/ns, 19.444 timesteps/s
99.9% CPU use with 2 MPI tasks x no OpenMP threads

MPI task timing breakdown:
Section |  min time  |  avg time  |  max time  |%varavg| %total
---------------------------------------------------------------
Pair    | 13.055     | 13.104     | 13.152     |   1.3 | 51.47
Neigh   | 11.63      | 11.632     | 11.634     |   0.1 | 45.69
Comm    | 0.35942    | 0.40533    | 0.45124    |   7.2 |  1.59
Output  | 6.2227e-05 | 8.6665e-05 | 0.0001111  |   0.0 |  0.00
Modify  | 0.24711    | 0.24722    | 0.24734    |   0.0 |  0.97
Other   |            | 0.0699     |            |       |  0.27

Nlocal:    9826 ave 9854 max 9798 min
Histogram: 1 0 0 0 0 0 0 0 0 1
Nghost:    11911 ave 11929 max 11893 min
Histogram: 1 0 0 0 0 0 0 0 0 1
Neighs:    618322 ave 626443 max 610202 min
Histogram: 1 0 0 0 0 0 0 0 0 1

Total # of neighbors = 1236645
Ave neighs/atom = 62.9272
Neighbor list builds = 495
Dangerous builds not checked
Setting up Verlet run ...
  Unit style    : metal
  Current step  : 940495
  Time step     : 0.001
Per MPI rank memory allocation (min/avg/max) = 11.35 | 11.35 | 11.35 Mbytes
Step Temp Press TotEng PotEng Enthalpy 
  940495    1504.8517    765.30616   -56063.545   -59886.005   -55872.936 
  950000    1500.2427   -1076.9484   -56075.495   -59886.248   -56344.712 
  990000    1500.7011    142.12529   -56069.312    -59881.23    -56033.86 
Loop time of 2894.72 on 2 procs for 49505 steps with 19652 atoms

Performance: 1.478 ns/day, 16.243 hours/ns, 17.102 timesteps/s
99.3% CPU use with 2 MPI tasks x no OpenMP threads

MPI task timing breakdown:
Section |  min time  |  avg time  |  max time  |%varavg| %total
---------------------------------------------------------------
Pair    | 1511.6     | 1513.8     | 1516       |   5.7 | 52.30
Neigh   | 1242.4     | 1247.4     | 1252.3     |  14.0 | 43.09
Comm    | 89.108     | 96.288     | 103.47     |  73.2 |  3.33
Output  | 0.02304    | 0.023087   | 0.023134   |   0.0 |  0.00
Modify  | 29.794     | 29.816     | 29.838     |   0.4 |  1.03
Other   |            | 7.426      |            |       |  0.26

Nlocal:    9826 ave 9837 max 9815 min
Histogram: 1 0 0 0 0 0 0 0 0 1
Nghost:    11954.5 ave 11958 max 11951 min
Histogram: 1 0 0 0 0 0 0 0 0 1
Neighs:    617426 ave 622734 max 612118 min
Histogram: 1 0 0 0 0 0 0 0 0 1

Total # of neighbors = 1234852
Ave neighs/atom = 62.8359
Neighbor list builds = 49505
Dangerous builds not checked
Setting up Verlet run ...
  Unit style    : metal
  Current step  : 990000
  Time step     : 0.001
Per MPI rank memory allocation (min/avg/max) = 11.35 | 11.35 | 11.35 Mbytes
Step Temp Press TotEng PotEng Enthalpy 
  990000    1500.7011    142.12529   -56069.312    -59881.23    -56033.86 
  990495    1477.8208   -526.83752   -56295.012   -60048.812   -56425.836 
Loop time of 35.2503 on 2 procs for 495 steps with 19652 atoms

Performance: 1.213 ns/day, 19.781 hours/ns, 14.042 timesteps/s
97.3% CPU use with 2 MPI tasks x no OpenMP threads

MPI task timing breakdown:
Section |  min time  |  avg time  |  max time  |%varavg| %total
---------------------------------------------------------------
Pair    | 19.392     | 19.409     | 19.427     |   0.4 | 55.06
Neigh   | 13.489     | 13.767     | 14.045     |   7.5 | 39.05
Comm    | 1.3953     | 1.6614     | 1.9276     |  20.7 |  4.71
Output  | 7.3195e-05 | 8.7023e-05 | 0.00010085 |   0.0 |  0.00
Modify  | 0.32316    | 0.32704    | 0.33092    |   0.7 |  0.93
Other   |            | 0.08548    |            |       |  0.24

Nlocal:    9826 ave 9829 max 9823 min
Histogram: 1 0 0 0 0 0 0 0 0 1
Nghost:    11970.5 ave 11975 max 11966 min
Histogram: 1 0 0 0 0 0 0 0 0 1
Neighs:    620484 ave 626062 max 614906 min
Histogram: 1 0 0 0 0 0 0 0 0 1

Total # of neighbors = 1240968
Ave neighs/atom = 63.1472
Neighbor list builds = 495
Dangerous builds not checked
Setting up Verlet run ...
  Unit style    : metal
  Current step  : 990495
  Time step     : 0.001
Per MPI rank memory allocation (min/avg/max) = 11.35 | 11.35 | 11.35 Mbytes
Step Temp Press TotEng PotEng Enthalpy 
  990495    1477.8208   -526.83752   -56295.012   -60048.812   -56425.836 
 1000000    1446.1625   -66.210448   -56441.703   -60115.087   -56458.092 
 1040000     1460.841    136.73659   -56350.871    -60061.54   -56316.951 
Loop time of 3184.21 on 2 procs for 49505 steps with 19652 atoms

Performance: 1.343 ns/day, 17.867 hours/ns, 15.547 timesteps/s
98.9% CPU use with 2 MPI tasks x no OpenMP threads

MPI task timing breakdown:
Section |  min time  |  avg time  |  max time  |%varavg| %total
---------------------------------------------------------------
Pair    | 1695       | 1695.8     | 1696.6     |   1.9 | 53.26
Neigh   | 1301.8     | 1311.1     | 1320.4     |  25.6 | 41.18
Comm    | 128.26     | 138.51     | 148.76     |  87.1 |  4.35
Output  | 0.022754   | 0.022799   | 0.022845   |   0.0 |  0.00
Modify  | 30.6       | 30.795     | 30.989     |   3.5 |  0.97
Other   |            | 7.978      |            |       |  0.25

Nlocal:    9826 ave 9835 max 9817 min
Histogram: 1 0 0 0 0 0 0 0 0 1
Nghost:    11998.5 ave 12040 max 11957 min
Histogram: 1 0 0 0 0 0 0 0 0 1
Neighs:    620800 ave 627892 max 613708 min
Histogram: 1 0 0 0 0 0 0 0 0 1

Total # of neighbors = 1241600
Ave neighs/atom = 63.1793
Neighbor list builds = 49505
Dangerous builds not checked
Setting up Verlet run ...
  Unit style    : metal
  Current step  : 1040000
  Time step     : 0.001
Per MPI rank memory allocation (min/avg/max) = 11.35 | 11.35 | 11.35 Mbytes
Step Temp Press TotEng PotEng Enthalpy 
 1040000     1460.841    136.73659   -56350.871    -60061.54   -56316.951 
 1040495    1410.0232    727.34694   -56608.109   -60189.696   -56428.938 
Loop time of 36.5702 on 2 procs for 495 steps with 19652 atoms

Performance: 1.169 ns/day, 20.522 hours/ns, 13.536 timesteps/s
99.9% CPU use with 2 MPI tasks x no OpenMP threads

MPI task timing breakdown:
Section |  min time  |  avg time  |  max time  |%varavg| %total
---------------------------------------------------------------
Pair    | 19.823     | 19.893     | 19.963     |   1.6 | 54.40
Neigh   | 14.301     | 14.322     | 14.344     |   0.6 | 39.16
Comm    | 1.8711     | 1.9188     | 1.9665     |   3.4 |  5.25
Output  | 8.5831e-05 | 0.00011587 | 0.00014591 |   0.0 |  0.00
Modify  | 0.34474    | 0.34597    | 0.34721    |   0.2 |  0.95
Other   |            | 0.08991    |            |       |  0.25

Nlocal:    9826 ave 9828 max 9824 min
Histogram: 1 0 0 0 0 0 0 0 0 1
Nghost:    11972.5 ave 12000 max 11945 min
Histogram: 1 0 0 0 0 0 0 0 0 1
Neighs:    625323 ave 630937 max 619709 min
Histogram: 1 0 0 0 0 0 0 0 0 1

Total # of neighbors = 1250646
Ave neighs/atom = 63.6396
Neighbor list builds = 495
Dangerous builds not checked
Setting up Verlet run ...
  Unit style    : metal
  Current step  : 1040495
  Time step     : 0.001
Per MPI rank memory allocation (min/avg/max) = 11.35 | 11.35 | 11.35 Mbytes
Step Temp Press TotEng PotEng Enthalpy 
 1040495    1410.0232    727.34694   -56608.109   -60189.696   -56428.938 
 1050000    1400.0175    291.61671   -56704.325   -60260.497   -56632.539 
 1090000    1390.1543    86.326613   -56744.833   -60275.951     -56723.6 
Loop time of 3671.17 on 2 procs for 49505 steps with 19652 atoms

Performance: 1.165 ns/day, 20.599 hours/ns, 13.485 timesteps/s
98.4% CPU use with 2 MPI tasks x no OpenMP threads

MPI task timing breakdown:
Section |  min time  |  avg time  |  max time  |%varavg| %total
---------------------------------------------------------------
Pair    | 1977.7     | 1980       | 1982.3     |   5.1 | 53.93
Neigh   | 1506.9     | 1508.3     | 1509.6     |   3.5 | 41.08
Comm    | 132.34     | 136        | 139.67     |  31.4 |  3.70
Output  | 0.023131   | 0.023181   | 0.023231   |   0.0 |  0.00
Modify  | 37.423     | 37.49      | 37.558     |   1.1 |  1.02
Other   |            | 9.377      |            |       |  0.26

Nlocal:    9826 ave 9836 max 9816 min
Histogram: 1 0 0 0 0 0 0 0 0 1
Nghost:    12027 ave 12053 max 12001 min
Histogram: 1 0 0 0 0 0 0 0 0 1
Neighs:    626039 ave 631213 max 620865 min
Histogram: 1 0 0 0 0 0 0 0 0 1

Total # of neighbors = 1252078
Ave neighs/atom = 63.7125
Neighbor list builds = 49505
Dangerous builds not checked
Setting up Verlet run ...
  Unit style    : metal
  Current step  : 1090000
  Time step     : 0.001
Per MPI rank memory allocation (min/avg/max) = 11.35 | 11.35 | 11.35 Mbytes
Step Temp Press TotEng PotEng Enthalpy 
 1090000    1390.1543    86.326613   -56744.833   -60275.951     -56723.6 
 1090495    1364.2543   -10.813011   -56900.312   -60365.642   -56902.963 
Loop time of 41.9316 on 2 procs for 495 steps with 19652 atoms

Performance: 1.020 ns/day, 23.531 hours/ns, 11.805 timesteps/s
98.6% CPU use with 2 MPI tasks x no OpenMP threads

MPI task timing breakdown:
Section |  min time  |  avg time  |  max time  |%varavg| %total
---------------------------------------------------------------
Pair    | 22.515     | 22.563     | 22.61      |   1.0 | 53.81
Neigh   | 16.932     | 16.975     | 17.017     |   1.0 | 40.48
Comm    | 1.2025     | 1.2093     | 1.216      |   0.6 |  2.88
Output  | 9.5129e-05 | 0.00014806 | 0.00020099 |   0.0 |  0.00
Modify  | 1.0716     | 1.0732     | 1.0748     |   0.2 |  2.56
Other   |            | 0.1118     |            |       |  0.27

Nlocal:    9826 ave 9841 max 9811 min
Histogram: 1 0 0 0 0 0 0 0 0 1
Nghost:    12054.5 ave 12089 max 12020 min
Histogram: 1 0 0 0 0 0 0 0 0 1
Neighs:    628200 ave 632360 max 624041 min
Histogram: 1 0 0 0 0 0 0 0 0 1

Total # of neighbors = 1256401
Ave neighs/atom = 63.9325
Neighbor list builds = 495
Dangerous builds not checked
Setting up Verlet run ...
  Unit style    : metal
  Current step  : 1090495
  Time step     : 0.001
Per MPI rank memory allocation (min/avg/max) = 11.35 | 11.35 | 11.35 Mbytes
Step Temp Press TotEng PotEng Enthalpy 
 1090495    1364.2543   -10.813011   -56900.312   -60365.642   -56902.963 
 1100000    1333.0859   -314.46568   -57048.728   -60434.888    -57125.69 
 1140000    1347.2062    295.42852   -57040.233    -60462.26   -56968.056 
Loop time of 3868.24 on 2 procs for 49505 steps with 19652 atoms

Performance: 1.106 ns/day, 21.705 hours/ns, 12.798 timesteps/s
98.1% CPU use with 2 MPI tasks x no OpenMP threads

MPI task timing breakdown:
Section |  min time  |  avg time  |  max time  |%varavg| %total
---------------------------------------------------------------
Pair    | 2071.3     | 2078.7     | 2086.1     |  16.2 | 53.74
Neigh   | 1551.8     | 1559.5     | 1567.2     |  19.4 | 40.32
Comm    | 162.63     | 178.09     | 193.56     | 115.9 |  4.60
Output  | 0.037289   | 0.03734    | 0.03739    |   0.0 |  0.00
Modify  | 41.634     | 42.034     | 42.435     |   6.2 |  1.09
Other   |            | 9.863      |            |       |  0.25

Nlocal:    9826 ave 9857 max 9795 min
Histogram: 1 0 0 0 0 0 0 0 0 1
Nghost:    12069.5 ave 12110 max 12029 min
Histogram: 1 0 0 0 0 0 0 0 0 1
Neighs:    630550 ave 634461 max 626638 min
Histogram: 1 0 0 0 0 0 0 0 0 1

Total # of neighbors = 1261099
Ave neighs/atom = 64.1715
Neighbor list builds = 49505
Dangerous builds not checked
Setting up Verlet run ...
  Unit style    : metal
  Current step  : 1140000
  Time step     : 0.001
Per MPI rank memory allocation (min/avg/max) = 11.35 | 11.35 | 11.35 Mbytes
Step Temp Press TotEng PotEng Enthalpy 
 1140000    1347.2062    295.42852   -57040.233    -60462.26   -56968.056 
 1140495    1307.9635    445.75288   -57184.524    -60506.87   -57075.855 
Loop time of 27.2922 on 2 procs for 495 steps with 19652 atoms

Performance: 1.567 ns/day, 15.315 hours/ns, 18.137 timesteps/s
97.0% CPU use with 2 MPI tasks x no OpenMP threads

MPI task timing breakdown:
Section |  min time  |  avg time  |  max time  |%varavg| %total
---------------------------------------------------------------
Pair    | 13.658     | 13.82      | 13.982     |   4.4 | 50.64
Neigh   | 11.618     | 11.818     | 12.019     |   5.8 | 43.30
Comm    | 1.2678     | 1.3092     | 1.3505     |   3.6 |  4.80
Output  | 8.1062e-05 | 0.00010347 | 0.00012589 |   0.0 |  0.00
Modify  | 0.27127    | 0.27374    | 0.2762     |   0.5 |  1.00
Other   |            | 0.07068    |            |       |  0.26

Nlocal:    9826 ave 9831 max 9821 min
Histogram: 1 0 0 0 0 0 0 0 0 1
Nghost:    12002.5 ave 12033 max 11972 min
Histogram: 1 0 0 0 0 0 0 0 0 1
Neighs:    631932 ave 638102 max 625762 min
Histogram: 1 0 0 0 0 0 0 0 0 1

Total # of neighbors = 1263864
Ave neighs/atom = 64.3122
Neighbor list builds = 495
Dangerous builds not checked
Setting up Verlet run ...
  Unit style    : metal
  Current step  : 1140495
  Time step     : 0.001
Per MPI rank memory allocation (min/avg/max) = 11.35 | 11.35 | 11.35 Mbytes
Step Temp Press TotEng PotEng Enthalpy 
 1140495    1307.9635    445.75288   -57184.524    -60506.87   -57075.855 
 1150000    1309.3335   -158.72329   -57276.914    -60602.74   -57315.544 
 1190000    1297.5775  -0.35287564   -57287.068   -60583.033   -57287.154 
Loop time of 2661.22 on 2 procs for 49505 steps with 19652 atoms

Performance: 1.607 ns/day, 14.932 hours/ns, 18.602 timesteps/s
98.0% CPU use with 2 MPI tasks x no OpenMP threads

MPI task timing breakdown:
Section |  min time  |  avg time  |  max time  |%varavg| %total
---------------------------------------------------------------
Pair    | 1354.1     | 1361.5     | 1369       |  20.2 | 51.16
Neigh   | 1173       | 1177.5     | 1182       |  13.1 | 44.25
Comm    | 75.961     | 88.102     | 100.24     | 129.4 |  3.31
Output  | 0.022735   | 0.022757   | 0.02278    |   0.0 |  0.00
Modify  | 27.072     | 27.24      | 27.407     |   3.2 |  1.02
Other   |            | 6.827      |            |       |  0.26

Nlocal:    9826 ave 9834 max 9818 min
Histogram: 1 0 0 0 0 0 0 0 0 1
Nghost:    12038.5 ave 12052 max 12025 min
Histogram: 1 0 0 0 0 0 0 0 0 1
Neighs:    632884 ave 636903 max 628864 min
Histogram: 1 0 0 0 0 0 0 0 0 1

Total # of neighbors = 1265767
Ave neighs/atom = 64.4091
Neighbor list builds = 49505
Dangerous builds not checked
Setting up Verlet run ...
  Unit style    : metal
  Current step  : 1190000
  Time step     : 0.001
Per MPI rank memory allocation (min/avg/max) = 11.35 | 11.35 | 11.35 Mbytes
Step Temp Press TotEng PotEng Enthalpy 
 1190000    1297.5775  -0.35287564   -57287.068   -60583.033   -57287.154 
 1190495    1259.0292    1100.7358   -57457.089   -60655.138   -57190.375 
Loop time of 26.2054 on 2 procs for 495 steps with 19652 atoms

Performance: 1.632 ns/day, 14.706 hours/ns, 18.889 timesteps/s
98.5% CPU use with 2 MPI tasks x no OpenMP threads

MPI task timing breakdown:
Section |  min time  |  avg time  |  max time  |%varavg| %total
---------------------------------------------------------------
Pair    | 13.227     | 13.26      | 13.294     |   0.9 | 50.60
Neigh   | 11.573     | 11.574     | 11.575     |   0.0 | 44.17
Comm    | 1.0235     | 1.0554     | 1.0873     |   3.1 |  4.03
Output  | 5.5075e-05 | 7.9513e-05 | 0.00010395 |   0.0 |  0.00
Modify  | 0.2458     | 0.24584    | 0.24588    |   0.0 |  0.94
Other   |            | 0.06959    |            |       |  0.27

Nlocal:    9826 ave 9865 max 9787 min
Histogram: 1 0 0 0 0 0 0 0 0 1
Nghost:    12053 ave 12082 max 12024 min
Histogram: 1 0 0 0 0 0 0 0 0 1
Neighs:    636052 ave 637836 max 634268 min
Histogram: 1 0 0 0 0 0 0 0 0 1

Total # of neighbors = 1272104
Ave neighs/atom = 64.7315
Neighbor list builds = 495
Dangerous builds not checked
Setting up Verlet run ...
  Unit style    : metal
  Current step  : 1190495
  Time step     : 0.001
Per MPI rank memory allocation (min/avg/max) = 11.35 | 11.35 | 11.35 Mbytes
Step Temp Press TotEng PotEng Enthalpy 
 1190495    1259.0292    1100.7358   -57457.089   -60655.138   -57190.375 
 1200000    1260.0772     623.7303   -57565.923   -60766.634   -57415.157 
 1240000     1253.028    19.828821   -57549.705   -60732.511   -57544.905 
Loop time of 2657.85 on 2 procs for 49505 steps with 19652 atoms

Performance: 1.609 ns/day, 14.913 hours/ns, 18.626 timesteps/s
98.9% CPU use with 2 MPI tasks x no OpenMP threads

MPI task timing breakdown:
Section |  min time  |  avg time  |  max time  |%varavg| %total
---------------------------------------------------------------
Pair    | 1383.1     | 1386.1     | 1389.1     |   8.1 | 52.15
Neigh   | 1178.7     | 1182.4     | 1186       |  10.6 | 44.49
Comm    | 49.89      | 56.565     | 63.24      |  88.8 |  2.13
Output  | 0.022606   | 0.022641   | 0.022677   |   0.0 |  0.00
Modify  | 25.912     | 25.914     | 25.917     |   0.1 |  0.98
Other   |            | 6.883      |            |       |  0.26

Nlocal:    9826 ave 9835 max 9817 min
Histogram: 1 0 0 0 0 0 0 0 0 1
Nghost:    12081 ave 12098 max 12064 min
Histogram: 1 0 0 0 0 0 0 0 0 1
Neighs:    636676 ave 642214 max 631138 min
Histogram: 1 0 0 0 0 0 0 0 0 1

Total # of neighbors = 1273352
Ave neighs/atom = 64.795
Neighbor list builds = 49505
Dangerous builds not checked
Setting up Verlet run ...
  Unit style    : metal
  Current step  : 1240000
  Time step     : 0.001
Per MPI rank memory allocation (min/avg/max) = 11.35 | 11.35 | 11.35 Mbytes
Step Temp Press TotEng PotEng Enthalpy 
 1240000     1253.028    19.828821   -57549.705   -60732.511   -57544.905 
 1240495    1220.0296    406.41031   -57747.086   -60846.072   -57649.052 
Loop time of 25.6524 on 2 procs for 495 steps with 19652 atoms

Performance: 1.667 ns/day, 14.395 hours/ns, 19.296 timesteps/s
99.6% CPU use with 2 MPI tasks x no OpenMP threads

MPI task timing breakdown:
Section |  min time  |  avg time  |  max time  |%varavg| %total
---------------------------------------------------------------
Pair    | 13.117     | 13.223     | 13.33      |   2.9 | 51.55
Neigh   | 11.577     | 11.602     | 11.627     |   0.7 | 45.23
Comm    | 0.42974    | 0.51095    | 0.59217    |  11.4 |  1.99
Output  | 6.1035e-05 | 9.0957e-05 | 0.00012088 |   0.0 |  0.00
Modify  | 0.24611    | 0.2462     | 0.24629    |   0.0 |  0.96
Other   |            | 0.06941    |            |       |  0.27

Nlocal:    9826 ave 9830 max 9822 min
Histogram: 1 0 0 0 0 0 0 0 0 1
Nghost:    12077.5 ave 12085 max 12070 min
Histogram: 1 0 0 0 0 0 0 0 0 1
Neighs:    639016 ave 644802 max 633231 min
Histogram: 1 0 0 0 0 0 0 0 0 1

Total # of neighbors = 1278033
Ave neighs/atom = 65.0332
Neighbor list builds = 495
Dangerous builds not checked
Setting up Verlet run ...
  Unit style    : metal
  Current step  : 1240495
  Time step     : 0.001
Per MPI rank memory allocation (min/avg/max) = 11.35 | 11.35 | 11.35 Mbytes
Step Temp Press TotEng PotEng Enthalpy 
 1240495    1220.0296    406.41031   -57747.086   -60846.072   -57649.052 
 1250000    1205.9231    73.712763   -57863.761   -60926.915   -57846.022 
 1290000    1191.9809    143.95704   -57909.709   -60937.449   -57875.074 
Loop time of 2722.9 on 2 procs for 49505 steps with 19652 atoms

Performance: 1.571 ns/day, 15.278 hours/ns, 18.181 timesteps/s
99.0% CPU use with 2 MPI tasks x no OpenMP threads

MPI task timing breakdown:
Section |  min time  |  avg time  |  max time  |%varavg| %total
---------------------------------------------------------------
Pair    | 1415.3     | 1419       | 1422.7     |   9.8 | 52.11
Neigh   | 1187.7     | 1194.2     | 1200.6     |  18.6 | 43.86
Comm    | 65.655     | 75.851     | 86.048     | 117.1 |  2.79
Output  | 0.022779   | 0.022822   | 0.022865   |   0.0 |  0.00
Modify  | 26.702     | 26.782     | 26.862     |   1.6 |  0.98
Other   |            | 7.094      |            |       |  0.26

Nlocal:    9826 ave 9834 max 9818 min
Histogram: 1 0 0 0 0 0 0 0 0 1
Nghost:    12094 ave 12132 max 12056 min
Histogram: 1 0 0 0 0 0 0 0 0 1
Neighs:    640728 ave 647370 max 634085 min
Histogram: 1 0 0 0 0 0 0 0 0 1

Total # of neighbors = 1281455
Ave neighs/atom = 65.2074
Neighbor list builds = 49505
Dangerous builds not checked
Setting up Verlet run ...
  Unit style    : metal
  Current step  : 1290000
  Time step     : 0.001
Per MPI rank memory allocation (min/avg/max) = 11.35 | 11.35 | 11.35 Mbytes
Step Temp Press TotEng PotEng Enthalpy 
 1290000    1191.9809    143.95704   -57909.709   -60937.449   -57875.074 
 1290495    1168.8334    125.12901   -58052.315   -61021.258   -58022.288 
Loop time of 25.6724 on 2 procs for 495 steps with 19652 atoms

Performance: 1.666 ns/day, 14.407 hours/ns, 19.281 timesteps/s
99.9% CPU use with 2 MPI tasks x no OpenMP threads

MPI task timing breakdown:
Section |  min time  |  avg time  |  max time  |%varavg| %total
---------------------------------------------------------------
Pair    | 13.264     | 13.324     | 13.384     |   1.7 | 51.90
Neigh   | 11.579     | 11.601     | 11.623     |   0.7 | 45.19
Comm    | 0.34652    | 0.42957    | 0.51261    |  12.7 |  1.67
Output  | 6.8188e-05 | 9.7632e-05 | 0.00012708 |   0.0 |  0.00
Modify  | 0.24728    | 0.24782    | 0.24835    |   0.1 |  0.97
Other   |            | 0.07012    |            |       |  0.27

Nlocal:    9826 ave 9838 max 9814 min
Histogram: 1 0 0 0 0 0 0 0 0 1
Nghost:    12121.5 ave 12154 max 12089 min
Histogram: 1 0 0 0 0 0 0 0 0 1
[...]
Loop time of 35.5117 on 2 procs for 495 steps with 19652 atoms

Performance: 1.204 ns/day, 19.928 hours/ns, 13.939 timesteps/s
99.9% CPU use with 2 MPI tasks x no OpenMP threads

MPI task timing breakdown:
Section |  min time  |  avg time  |  max time  |%varavg| %total
---------------------------------------------------------------
Pair    | 18.924     | 18.958     | 18.993     |   0.8 | 53.39
Neigh   | 14.141     | 14.749     | 15.358     |  15.8 | 41.53
Comm    | 0.72156    | 1.3812     | 2.0408     |  56.1 |  3.89
Output  | 7.4148e-05 | 9.9063e-05 | 0.00012398 |   0.0 |  0.00
Modify  | 0.32113    | 0.33301    | 0.3449     |   2.1 |  0.94
Other   |            | 0.08973    |            |       |  0.25

Nlocal:    9826 ave 9834 max 9818 min
Histogram: 1 0 0 0 0 0 0 0 0 1
Nghost:    12607 ave 12609 max 12605 min
Histogram: 1 0 0 0 0 0 0 0 0 1
Neighs:    704624 ave 706033 max 703214 min
Histogram: 1 0 0 0 0 0 0 0 0 1

Total # of neighbors = 1409247
Ave neighs/atom = 71.7101
Neighbor list builds = 495
Dangerous builds not checked
Setting up Verlet run ...
  Unit style    : metal
  Current step  : 2040495
  Time step     : 0.001
Per MPI rank memory allocation (min/avg/max) = 11.35 | 11.35 | 11.35 Mbytes
Step Temp Press TotEng PotEng Enthalpy 
 2040495     421.5978   -128.76611   -62848.768   -63919.665   -62876.972 
 2050000    396.89176   -838.37273   -63015.152   -64023.293   -63198.393 
 2090000    397.01073    344.41161    -63041.77   -64050.213   -62966.678 
Loop time of 3769.07 on 2 procs for 49505 steps with 19652 atoms

Performance: 1.135 ns/day, 21.149 hours/ns, 13.135 timesteps/s
99.6% CPU use with 2 MPI tasks x no OpenMP threads

MPI task timing breakdown:
Section |  min time  |  avg time  |  max time  |%varavg| %total
---------------------------------------------------------------
Pair    | 2003.5     | 2007.6     | 2011.7     |   9.1 | 53.27
Neigh   | 1597.8     | 1603       | 1608.3     |  13.1 | 42.53
Comm    | 111.01     | 112.18     | 113.36     |  11.1 |  2.98
Output  | 0.037506   | 0.03756    | 0.037615   |   0.0 |  0.00
Modify  | 36.304     | 36.308     | 36.312     |   0.1 |  0.96
Other   |            | 9.926      |            |       |  0.26

Nlocal:    9826 ave 9839 max 9813 min
Histogram: 1 0 0 0 0 0 0 0 0 1
Nghost:    12641 ave 12663 max 12619 min
Histogram: 1 0 0 0 0 0 0 0 0 1
Neighs:    708110 ave 708958 max 707261 min
Histogram: 1 0 0 0 0 0 0 0 0 1

Total # of neighbors = 1416219
Ave neighs/atom = 72.0649
Neighbor list builds = 49505
Dangerous builds not checked
Setting up Verlet run ...
  Unit style    : metal
  Current step  : 2090000
  Time step     : 0.001
Per MPI rank memory allocation (min/avg/max) = 11.35 | 11.35 | 11.35 Mbytes
Step Temp Press TotEng PotEng Enthalpy 
 2090000    397.01073    344.41161    -63041.77   -64050.213   -62966.678 
 2090495    370.60731   -99.758342   -63189.452   -64130.829   -63211.169 
Loop time of 37.9167 on 2 procs for 495 steps with 19652 atoms

Performance: 1.128 ns/day, 21.278 hours/ns, 13.055 timesteps/s
100.0% CPU use with 2 MPI tasks x no OpenMP threads

MPI task timing breakdown:
Section |  min time  |  avg time  |  max time  |%varavg| %total
---------------------------------------------------------------
Pair    | 20.038     | 20.196     | 20.355     |   3.5 | 53.26
Neigh   | 15.722     | 16.169     | 16.617     |  11.1 | 42.64
Comm    | 0.77849    | 1.0788     | 1.379      |  28.9 |  2.85
Output  | 0.000103   | 0.000139   | 0.000175   |   0.0 |  0.00
Modify  | 0.36239    | 0.37112    | 0.37984    |   1.4 |  0.98
Other   |            | 0.1012     |            |       |  0.27

Nlocal:    9826 ave 9842 max 9810 min
Histogram: 1 0 0 0 0 0 0 0 0 1
Nghost:    12628.5 ave 12640 max 12617 min
Histogram: 1 0 0 0 0 0 0 0 0 1
Neighs:    709172 ave 710246 max 708098 min
Histogram: 1 0 0 0 0 0 0 0 0 1

Total # of neighbors = 1418344
Ave neighs/atom = 72.173
Neighbor list builds = 495
Dangerous builds not checked
Setting up Verlet run ...
  Unit style    : metal
  Current step  : 2090495
  Time step     : 0.001
Per MPI rank memory allocation (min/avg/max) = 11.35 | 11.35 | 11.35 Mbytes
Step Temp Press TotEng PotEng Enthalpy 
 2090495    370.60731   -99.758342   -63189.452   -64130.829   -63211.169 
 2100000    351.34108    362.00621   -63323.746   -64216.184   -63245.197 
 2140000    346.17563   -386.33986   -63351.709   -64231.027    -63435.61 
Loop time of 3520.53 on 2 procs for 49505 steps with 19652 atoms

Performance: 1.215 ns/day, 19.754 hours/ns, 14.062 timesteps/s
99.6% CPU use with 2 MPI tasks x no OpenMP threads

MPI task timing breakdown:
Section |  min time  |  avg time  |  max time  |%varavg| %total
---------------------------------------------------------------
Pair    | 1862.5     | 1866.7     | 1870.9     |   9.6 | 53.02
Neigh   | 1488.6     | 1492       | 1495.3     |   8.6 | 42.38
Comm    | 117.72     | 118.56     | 119.39     |   7.7 |  3.37
Output  | 0.036845   | 0.036887   | 0.036929   |   0.0 |  0.00
Modify  | 34.009     | 34.043     | 34.077     |   0.6 |  0.97
Other   |            | 9.239      |            |       |  0.26

Nlocal:    9826 ave 9834 max 9818 min
Histogram: 1 0 0 0 0 0 0 0 0 1
Nghost:    12631 ave 12645 max 12617 min
Histogram: 1 0 0 0 0 0 0 0 0 1
Neighs:    710904 ave 712214 max 709593 min
Histogram: 1 0 0 0 0 0 0 0 0 1

Total # of neighbors = 1421807
Ave neighs/atom = 72.3492
Neighbor list builds = 49505
Dangerous builds not checked
Setting up Verlet run ...
  Unit style    : metal
  Current step  : 2140000
  Time step     : 0.001
Per MPI rank memory allocation (min/avg/max) = 11.35 | 11.35 | 11.35 Mbytes
Step Temp Press TotEng PotEng Enthalpy 
 2140000    346.17563   -386.33986   -63351.709   -64231.027    -63435.61 
 2140495    323.41201   -286.63117   -63496.586   -64318.082   -63558.713 
Loop time of 26.7443 on 2 procs for 495 steps with 19652 atoms

Performance: 1.599 ns/day, 15.008 hours/ns, 18.509 timesteps/s
99.3% CPU use with 2 MPI tasks x no OpenMP threads

MPI task timing breakdown:
Section |  min time  |  avg time  |  max time  |%varavg| %total
---------------------------------------------------------------
Pair    | 13.877     | 13.882     | 13.887     |   0.1 | 51.91
Neigh   | 12.182     | 12.186     | 12.19      |   0.1 | 45.57
Comm    | 0.35604    | 0.35716    | 0.35829    |   0.2 |  1.34
Output  | 8.2016e-05 | 0.00012207 | 0.00016212 |   0.0 |  0.00
Modify  | 0.24641    | 0.24689    | 0.24738    |   0.1 |  0.92
Other   |            | 0.0719     |            |       |  0.27

Nlocal:    9826 ave 9827 max 9825 min
Histogram: 1 0 0 0 0 0 0 0 0 1
Nghost:    12629 ave 12636 max 12622 min
Histogram: 1 0 0 0 0 0 0 0 0 1
Neighs:    711668 ave 711806 max 711529 min
Histogram: 1 0 0 0 0 0 0 0 0 1

Total # of neighbors = 1423335
Ave neighs/atom = 72.427
Neighbor list builds = 495
Dangerous builds not checked
Setting up Verlet run ...
  Unit style    : metal
  Current step  : 2140495
  Time step     : 0.001
Per MPI rank memory allocation (min/avg/max) = 11.35 | 11.35 | 11.35 Mbytes
Step Temp Press TotEng PotEng Enthalpy 
 2140495    323.41201   -286.63117   -63496.586   -64318.082   -63558.713 
 2150000    297.44914   -324.46837   -63636.612   -64392.159   -63706.807 
 2190000    301.29772   -137.79278   -63627.213   -64392.536   -63657.008 
Loop time of 2679.51 on 2 procs for 49505 steps with 19652 atoms

Performance: 1.596 ns/day, 15.035 hours/ns, 18.475 timesteps/s
99.7% CPU use with 2 MPI tasks x no OpenMP threads

MPI task timing breakdown:
Section |  min time  |  avg time  |  max time  |%varavg| %total
---------------------------------------------------------------
Pair    | 1383.6     | 1384.3     | 1384.9     |   1.8 | 51.66
Neigh   | 1217.9     | 1221.2     | 1224.4     |   9.3 | 45.57
Comm    | 39.226     | 41.887     | 44.547     |  41.1 |  1.56
Output  | 0.02373    | 0.023764   | 0.023798   |   0.0 |  0.00
Modify  | 24.977     | 25.005     | 25.034     |   0.6 |  0.93
Other   |            | 7.178      |            |       |  0.27

Nlocal:    9826 ave 9835 max 9817 min
Histogram: 1 0 0 0 0 0 0 0 0 1
Nghost:    12669.5 ave 12692 max 12647 min
Histogram: 1 0 0 0 0 0 0 0 0 1
Neighs:    713718 ave 714432 max 713003 min
Histogram: 1 0 0 0 0 0 0 0 0 1

Total # of neighbors = 1427435
Ave neighs/atom = 72.6356
Neighbor list builds = 49505
Dangerous builds not checked
Setting up Verlet run ...
  Unit style    : metal
  Current step  : 2190000
  Time step     : 0.001
Per MPI rank memory allocation (min/avg/max) = 11.35 | 11.35 | 11.35 Mbytes
Step Temp Press TotEng PotEng Enthalpy 
 2190000    301.29772   -137.79278   -63627.213   -64392.536   -63657.008 
 2190495    275.36336    279.83882   -63777.023   -64476.471   -63716.667 
Loop time of 26.5376 on 2 procs for 495 steps with 19652 atoms

Performance: 1.612 ns/day, 14.892 hours/ns, 18.653 timesteps/s
99.8% CPU use with 2 MPI tasks x no OpenMP threads

MPI task timing breakdown:
Section |  min time  |  avg time  |  max time  |%varavg| %total
---------------------------------------------------------------
Pair    | 13.736     | 13.749     | 13.761     |   0.3 | 51.81
Neigh   | 12.137     | 12.155     | 12.173     |   0.5 | 45.80
Comm    | 0.31143    | 0.31675    | 0.32207    |   0.9 |  1.19
Output  | 5.7936e-05 | 8.7976e-05 | 0.00011802 |   0.0 |  0.00
Modify  | 0.24572    | 0.24599    | 0.24626    |   0.1 |  0.93
Other   |            | 0.07112    |            |       |  0.27

Nlocal:    9826 ave 9835 max 9817 min
Histogram: 1 0 0 0 0 0 0 0 0 1
Nghost:    12690 ave 12709 max 12671 min
Histogram: 1 0 0 0 0 0 0 0 0 1
Neighs:    715374 ave 716353 max 714396 min
Histogram: 1 0 0 0 0 0 0 0 0 1

Total # of neighbors = 1430749
Ave neighs/atom = 72.8042
Neighbor list builds = 495
Dangerous builds not checked
Setting up Verlet run ...
  Unit style    : metal
  Current step  : 2190495
  Time step     : 0.001
Per MPI rank memory allocation (min/avg/max) = 11.35 | 11.35 | 11.35 Mbytes
Step Temp Press TotEng PotEng Enthalpy 
 2190495    275.36336    279.83882   -63777.023   -64476.471   -63716.667 
 2200000    253.15645    121.28277   -63909.086   -64552.127   -63882.953 
 2240000    249.58748    190.13753   -63916.544   -64550.519   -63875.601 
Loop time of 2660.13 on 2 procs for 49505 steps with 19652 atoms

Performance: 1.608 ns/day, 14.926 hours/ns, 18.610 timesteps/s
99.7% CPU use with 2 MPI tasks x no OpenMP threads

MPI task timing breakdown:
Section |  min time  |  avg time  |  max time  |%varavg| %total
---------------------------------------------------------------
Pair    | 1371.8     | 1373.6     | 1375.3     |   4.7 | 51.64
Neigh   | 1211.4     | 1214.3     | 1217.3     |   8.4 | 45.65
Comm    | 35.953     | 40.7       | 45.447     |  74.4 |  1.53
Output  | 0.024595   | 0.024637   | 0.02468    |   0.0 |  0.00
Modify  | 24.469     | 24.519     | 24.568     |   1.0 |  0.92
Other   |            | 6.985      |            |       |  0.26

Nlocal:    9826 ave 9830 max 9822 min
Histogram: 1 0 0 0 0 0 0 0 0 1
Nghost:    12692 ave 12727 max 12657 min
Histogram: 1 0 0 0 0 0 0 0 0 1
Neighs:    716716 ave 716768 max 716665 min
Histogram: 1 0 0 0 0 0 0 0 0 1

Total # of neighbors = 1433433
Ave neighs/atom = 72.9408
Neighbor list builds = 49505
Dangerous builds not checked
Setting up Verlet run ...
  Unit style    : metal
  Current step  : 2240000
  Time step     : 0.001
Per MPI rank memory allocation (min/avg/max) = 11.35 | 11.35 | 11.35 Mbytes
Step Temp Press TotEng PotEng Enthalpy 
 2240000    249.58748    190.13753   -63916.544   -64550.519   -63875.601 
 2240495    223.32781   -125.64677   -64050.313   -64617.586   -64077.342 
Loop time of 28.035 on 2 procs for 495 steps with 19652 atoms

Performance: 1.526 ns/day, 15.732 hours/ns, 17.656 timesteps/s
94.1% CPU use with 2 MPI tasks x no OpenMP threads

MPI task timing breakdown:
Section |  min time  |  avg time  |  max time  |%varavg| %total
---------------------------------------------------------------
Pair    | 15.224     | 15.261     | 15.297     |   0.9 | 54.43
Neigh   | 12.073     | 12.107     | 12.141     |   1.0 | 43.19
Comm    | 0.34562    | 0.34608    | 0.34653    |   0.1 |  1.23
Output  | 7.1049e-05 | 9.656e-05  | 0.00012207 |   0.0 |  0.00
Modify  | 0.24782    | 0.24799    | 0.24816    |   0.0 |  0.88
Other   |            | 0.07285    |            |       |  0.26

Nlocal:    9826 ave 9833 max 9819 min
Histogram: 1 0 0 0 0 0 0 0 0 1
Nghost:    12686 ave 12696 max 12676 min
Histogram: 1 0 0 0 0 0 0 0 0 1
Neighs:    717291 ave 718140 max 716442 min
Histogram: 1 0 0 0 0 0 0 0 0 1

Total # of neighbors = 1434582
Ave neighs/atom = 72.9993
Neighbor list builds = 495
Dangerous builds not checked
Setting up Verlet run ...
  Unit style    : metal
  Current step  : 2240495
  Time step     : 0.001
Per MPI rank memory allocation (min/avg/max) = 11.35 | 11.35 | 11.35 Mbytes
Step Temp Press TotEng PotEng Enthalpy 
 2240495    223.32781   -125.64677   -64050.313   -64617.586   -64077.342 
 2250000     198.9493   -111.19578   -64184.255   -64689.604   -64208.134 
 2290000    202.12556    15.463175   -64182.821   -64696.238   -64179.499 
Loop time of 2638.63 on 2 procs for 49505 steps with 19652 atoms

Performance: 1.621 ns/day, 14.806 hours/ns, 18.762 timesteps/s
99.8% CPU use with 2 MPI tasks x no OpenMP threads

MPI task timing breakdown:
Section |  min time  |  avg time  |  max time  |%varavg| %total
---------------------------------------------------------------
Pair    | 1360.5     | 1362.3     | 1364.1     |   4.9 | 51.63
Neigh   | 1208.1     | 1210       | 1211.9     |   5.4 | 45.86
Comm    | 34.786     | 34.873     | 34.959     |   1.5 |  1.32
Output  | 0.12573    | 0.12577    | 0.12582    |   0.0 |  0.00
Modify  | 24.406     | 24.41      | 24.413     |   0.1 |  0.93
Other   |            | 6.9        |            |       |  0.26

Nlocal:    9826 ave 9829 max 9823 min
Histogram: 1 0 0 0 0 0 0 0 0 1
Nghost:    12693 ave 12702 max 12684 min
Histogram: 1 0 0 0 0 0 0 0 0 1
Neighs:    718327 ave 718466 max 718188 min
Histogram: 1 0 0 0 0 0 0 0 0 1

Total # of neighbors = 1436654
Ave neighs/atom = 73.1047
Neighbor list builds = 49505
Dangerous builds not checked
Setting up Verlet run ...
  Unit style    : metal
  Current step  : 2290000
  Time step     : 0.001
Per MPI rank memory allocation (min/avg/max) = 11.35 | 11.35 | 11.35 Mbytes
Step Temp Press TotEng PotEng Enthalpy 
 2290000    202.12556    15.463175   -64182.821   -64696.238   -64179.499 
 2290495    175.59657    319.36914   -64311.375   -64757.406   -64242.896 
Loop time of 26.1651 on 2 procs for 495 steps with 19652 atoms

Performance: 1.635 ns/day, 14.683 hours/ns, 18.918 timesteps/s
99.9% CPU use with 2 MPI tasks x no OpenMP threads

MPI task timing breakdown:
Section |  min time  |  avg time  |  max time  |%varavg| %total
---------------------------------------------------------------
Pair    | 13.502     | 13.513     | 13.523     |   0.3 | 51.64
Neigh   | 12.017     | 12.04      | 12.062     |   0.6 | 46.01
Comm    | 0.29016    | 0.3022     | 0.31424    |   2.2 |  1.15
Output  | 5.2929e-05 | 7.689e-05  | 0.00010085 |   0.0 |  0.00
Modify  | 0.24198    | 0.24204    | 0.24209    |   0.0 |  0.93
Other   |            | 0.0682     |            |       |  0.26

Nlocal:    9826 ave 9835 max 9817 min
Histogram: 1 0 0 0 0 0 0 0 0 1
Nghost:    12706.5 ave 12715 max 12698 min
Histogram: 1 0 0 0 0 0 0 0 0 1
Neighs:    719558 ave 719977 max 719139 min
Histogram: 1 0 0 0 0 0 0 0 0 1

Total # of neighbors = 1439116
Ave neighs/atom = 73.23
Neighbor list builds = 495
Dangerous builds not checked
Setting up Verlet run ...
  Unit style    : metal
  Current step  : 2290495
  Time step     : 0.001
Per MPI rank memory allocation (min/avg/max) = 11.35 | 11.35 | 11.35 Mbytes
Step Temp Press TotEng PotEng Enthalpy 
 2290495    175.59657    319.36914   -64311.375   -64757.406   -64242.896 
 2300000    150.46535    152.63719   -64447.091   -64829.287   -64414.412 
 2340000    149.88032   -493.55348   -64445.356   -64826.065   -64551.143 
Loop time of 2634.5 on 2 procs for 49505 steps with 19652 atoms

Performance: 1.624 ns/day, 14.782 hours/ns, 18.791 timesteps/s
99.6% CPU use with 2 MPI tasks x no OpenMP threads

MPI task timing breakdown:
Section |  min time  |  avg time  |  max time  |%varavg| %total
---------------------------------------------------------------
Pair    | 1360.2     | 1361.3     | 1362.4     |   3.0 | 51.67
Neigh   | 1203.7     | 1205.5     | 1207.3     |   5.2 | 45.76
Comm    | 35.622     | 36.359     | 37.096     |  12.2 |  1.38
Output  | 0.02284    | 0.022879   | 0.022919   |   0.0 |  0.00
Modify  | 24.483     | 24.489     | 24.494     |   0.1 |  0.93
Other   |            | 6.824      |            |       |  0.26

Nlocal:    9826 ave 9834 max 9818 min
Histogram: 1 0 0 0 0 0 0 0 0 1
Nghost:    12697.5 ave 12701 max 12694 min
Histogram: 1 0 0 0 0 0 0 0 0 1
Neighs:    719718 ave 720336 max 719100 min
Histogram: 1 0 0 0 0 0 0 0 0 1

Total # of neighbors = 1439436
Ave neighs/atom = 73.2463
Neighbor list builds = 49505
Dangerous builds not checked
Setting up Verlet run ...
  Unit style    : metal
  Current step  : 2340000
  Time step     : 0.001
Per MPI rank memory allocation (min/avg/max) = 11.35 | 11.35 | 11.35 Mbytes
Step Temp Press TotEng PotEng Enthalpy 
 2340000    149.88032   -493.55348   -64445.356   -64826.065   -64551.143 
 2340495     126.8238    -111.1546   -64566.787   -64888.931   -64590.571 
Loop time of 26.2094 on 2 procs for 495 steps with 19652 atoms

Performance: 1.632 ns/day, 14.708 hours/ns, 18.886 timesteps/s
99.7% CPU use with 2 MPI tasks x no OpenMP threads

MPI task timing breakdown:
Section |  min time  |  avg time  |  max time  |%varavg| %total
---------------------------------------------------------------
Pair    | 13.452     | 13.469     | 13.487     |   0.5 | 51.39
Neigh   | 12.017     | 12.018     | 12.019     |   0.0 | 45.85
Comm    | 0.39562    | 0.41211    | 0.42859    |   2.6 |  1.57
Output  | 6.3896e-05 | 8.893e-05  | 0.00011396 |   0.0 |  0.00
Modify  | 0.24192    | 0.24198    | 0.24204    |   0.0 |  0.92
Other   |            | 0.06785    |            |       |  0.26

Nlocal:    9826 ave 9828 max 9824 min
Histogram: 1 0 0 0 0 0 0 0 0 1
Nghost:    12727 ave 12748 max 12706 min
Histogram: 1 0 0 0 0 0 0 0 0 1
Neighs:    721002 ave 721337 max 720668 min
Histogram: 1 0 0 0 0 0 0 0 0 1

Total # of neighbors = 1442005
Ave neighs/atom = 73.377
Neighbor list builds = 495
Dangerous builds not checked
Setting up Verlet run ...
  Unit style    : metal
  Current step  : 2340495
  Time step     : 0.001
Per MPI rank memory allocation (min/avg/max) = 11.35 | 11.35 | 11.35 Mbytes
Step Temp Press TotEng PotEng Enthalpy 
 2340495     126.8238    -111.1546   -64566.787   -64888.931   -64590.571 
 2350000    100.13657    168.15473   -64708.353   -64962.709   -64672.444 
 2390000    100.18568   -285.03001    -64707.29    -64961.77     -64768.2 
Loop time of 2675.45 on 2 procs for 49505 steps with 19652 atoms

Performance: 1.599 ns/day, 15.012 hours/ns, 18.503 timesteps/s
98.9% CPU use with 2 MPI tasks x no OpenMP threads

MPI task timing breakdown:
Section |  min time  |  avg time  |  max time  |%varavg| %total
---------------------------------------------------------------
Pair    | 1385.9     | 1386.9     | 1387.9     |   2.7 | 51.84
Neigh   | 1203.7     | 1205.2     | 1206.7     |   4.3 | 45.05
Comm    | 42.006     | 44.491     | 46.977     |  37.3 |  1.66
Output  | 0.022876   | 0.022912   | 0.022947   |   0.0 |  0.00
Modify  | 31.853     | 31.86      | 31.866     |   0.1 |  1.19
Other   |            | 6.974      |            |       |  0.26

Nlocal:    9826 ave 9832 max 9820 min
Histogram: 1 0 0 0 0 0 0 0 0 1
Nghost:    12713.5 ave 12735 max 12692 min
Histogram: 1 0 0 0 0 0 0 0 0 1
Neighs:    721955 ave 722989 max 720921 min
Histogram: 1 0 0 0 0 0 0 0 0 1

Total # of neighbors = 1443910
Ave neighs/atom = 73.4739
Neighbor list builds = 49505
Dangerous builds not checked
Total wall time: 42:27:00
