LAMMPS (12 Dec 2018)
Lattice spacing in x,y,z = 4 4 4
Created orthogonal box = (0 0 0) to (68 68 68)
  1 by 1 by 2 MPI processor grid
Created 19652 atoms
  Time spent = 0.00159502 secs
Setting atom values ...
  19652 settings made for type/fraction
Neighbor list info ...
  update every 1 steps, delay 0 steps, check no
  max neighbors/atom: 2000, page size: 100000
  master list distance cutoff = 8.5
  ghost atom cutoff = 8.5
  binsize = 4.25, bins = 16 16 16
  1 neighbor lists, perpetual/occasional/extra = 1 0 0
  (1) pair eam/alloy, perpetual
      attributes: half, newton on
      pair build: half/bin/atomonly/newton
      stencil: half/bin/3d/newton
      bin: standard
Setting up Verlet run ...
  Unit style    : metal
  Current step  : 0
  Time step     : 0.001
Per MPI rank memory allocation (min/avg/max) = 11.15 | 11.15 | 11.15 Mbytes
Step Temp Press TotEng PotEng Enthalpy 
       0          300   -61779.302   -76290.537   -77052.565   -88414.913 
    1000    2105.0104    116686.76   -76291.721   -81638.639    -53391.59 
Loop time of 99.98 on 2 procs for 1000 steps with 19652 atoms

Performance: 0.864 ns/day, 27.772 hours/ns, 10.002 timesteps/s
98.7% CPU use with 2 MPI tasks x no OpenMP threads

MPI task timing breakdown:
Section |  min time  |  avg time  |  max time  |%varavg| %total
---------------------------------------------------------------
Pair    | 55.718     | 55.81      | 55.902     |   1.2 | 55.82
Neigh   | 39.927     | 40.184     | 40.442     |   4.1 | 40.19
Comm    | 3.3927     | 3.563      | 3.7333     |   9.0 |  3.56
Output  | 0.00014305 | 0.00020456 | 0.00026608 |   0.0 |  0.00
Modify  | 0.21413    | 0.21711    | 0.22008    |   0.6 |  0.22
Other   |            | 0.2053     |            |       |  0.21

Nlocal:    9826 ave 9840 max 9812 min
Histogram: 1 0 0 0 0 0 0 0 0 1
Nghost:    13174 ave 13181 max 13167 min
Histogram: 1 0 0 0 0 0 0 0 0 1
Neighs:    784717 ave 786559 max 782875 min
Histogram: 1 0 0 0 0 0 0 0 0 1

Total # of neighbors = 1569434
Ave neighs/atom = 79.8613
Neighbor list builds = 1000
Dangerous builds not checked
Setting up Verlet run ...
  Unit style    : metal
  Current step  : 1000
  Time step     : 0.001
Per MPI rank memory allocation (min/avg/max) = 11.15 | 11.15 | 11.15 Mbytes
Step Temp Press TotEng PotEng Enthalpy 
    1000    2105.0104    116686.76   -76291.721   -81638.639    -53391.59 
    2000    340.15178    338.90362   -86575.274   -87439.291   -86497.982 
Loop time of 90.004 on 2 procs for 1000 steps with 19652 atoms

Performance: 0.960 ns/day, 25.001 hours/ns, 11.111 timesteps/s
96.7% CPU use with 2 MPI tasks x no OpenMP threads

MPI task timing breakdown:
Section |  min time  |  avg time  |  max time  |%varavg| %total
---------------------------------------------------------------
Pair    | 47.619     | 47.726     | 47.833     |   1.6 | 53.03
Neigh   | 36.981     | 37.301     | 37.62      |   5.2 | 41.44
Comm    | 3.7401     | 3.9599     | 4.1797     |  11.0 |  4.40
Output  | 9.2983e-05 | 0.00013256 | 0.00017214 |   0.0 |  0.00
Modify  | 0.80258    | 0.80799    | 0.81339    |   0.6 |  0.90
Other   |            | 0.2089     |            |       |  0.23

Nlocal:    9826 ave 9832 max 9820 min
Histogram: 1 0 0 0 0 0 0 0 0 1
Nghost:    12368 ave 12390 max 12346 min
Histogram: 1 0 0 0 0 0 0 0 0 1
Neighs:    676022 ave 676063 max 675982 min
Histogram: 1 0 0 0 0 0 0 0 0 1

Total # of neighbors = 1352045
Ave neighs/atom = 68.7994
Neighbor list builds = 1000
Dangerous builds not checked
Setting up Verlet run ...
  Unit style    : metal
  Current step  : 2000
  Time step     : 0.001
Per MPI rank memory allocation (min/avg/max) = 11.15 | 11.15 | 11.15 Mbytes
Step Temp Press TotEng PotEng Enthalpy 
    2000    340.15178    338.90362   -86575.274   -87439.291   -86497.982 
   10000    2448.7762    414.54459   -75298.717   -81518.831    -75197.17 
Loop time of 691.987 on 2 procs for 8000 steps with 19652 atoms

Performance: 0.999 ns/day, 24.027 hours/ns, 11.561 timesteps/s
98.3% CPU use with 2 MPI tasks x no OpenMP threads

MPI task timing breakdown:
Section |  min time  |  avg time  |  max time  |%varavg| %total
---------------------------------------------------------------
Pair    | 369.1      | 369.17     | 369.23     |   0.3 | 53.35
Neigh   | 289.75     | 289.79     | 289.83     |   0.3 | 41.88
Comm    | 24.122     | 24.41      | 24.699     |   5.8 |  3.53
Output  | 0.034731   | 0.034803   | 0.034875   |   0.0 |  0.01
Modify  | 6.5985     | 6.8709     | 7.1433     |  10.4 |  0.99
Other   |            | 1.713      |            |       |  0.25

Nlocal:    9826 ave 9872 max 9780 min
Histogram: 1 0 0 0 0 0 0 0 0 1
Nghost:    12013 ave 12035 max 11991 min
Histogram: 1 0 0 0 0 0 0 0 0 1
Neighs:    628785 ave 638706 max 618864 min
Histogram: 1 0 0 0 0 0 0 0 0 1

Total # of neighbors = 1257570
Ave neighs/atom = 63.992
Neighbor list builds = 8000
Dangerous builds not checked
Setting up Verlet run ...
  Unit style    : metal
  Current step  : 10000
  Time step     : 0.001
Per MPI rank memory allocation (min/avg/max) = 11.21 | 11.21 | 11.21 Mbytes
Step Temp Press TotEng PotEng Enthalpy 
   10000    2448.7762    414.54459   -75298.717   -81518.831    -75197.17 
   20000    2449.2366    1039.3796   -75279.717   -81501.001   -75025.491 
   30000    2463.0614   -76.743859    -75254.48    -81510.88   -75273.269 
   40000    2470.5188    -613.5441   -75186.046   -81461.389   -75336.723 
Loop time of 3552.91 on 2 procs for 30000 steps with 19652 atoms

Performance: 0.730 ns/day, 32.897 hours/ns, 8.444 timesteps/s
84.7% CPU use with 2 MPI tasks x no OpenMP threads

MPI task timing breakdown:
Section |  min time  |  avg time  |  max time  |%varavg| %total
---------------------------------------------------------------
Pair    | 1952.6     | 1959.6     | 1966.6     |  15.8 | 55.15
Neigh   | 1333.6     | 1341.3     | 1349       |  21.0 | 37.75
Comm    | 191.9      | 207.07     | 222.24     | 105.4 |  5.83
Output  | 0.13508    | 0.13517    | 0.13526    |   0.0 |  0.00
Modify  | 36.395     | 36.881     | 37.368     |   8.0 |  1.04
Other   |            | 7.939      |            |       |  0.22

Nlocal:    9826 ave 9859 max 9793 min
Histogram: 1 0 0 0 0 0 0 0 0 1
Nghost:    12018.5 ave 12035 max 12002 min
Histogram: 1 0 0 0 0 0 0 0 0 1
Neighs:    627288 ave 629986 max 624590 min
Histogram: 1 0 0 0 0 0 0 0 0 1

Total # of neighbors = 1254576
Ave neighs/atom = 63.8396
Neighbor list builds = 30000
Dangerous builds not checked
Setting up Verlet run ...
  Unit style    : metal
  Current step  : 40000
  Time step     : 0.001
Per MPI rank memory allocation (min/avg/max) = 11.3 | 11.3 | 11.3 Mbytes
Step Temp Press TotEng PotEng Enthalpy 
   40000    2470.5188    -613.5441   -75186.046   -81461.389   -75336.723 
   40495    2400.2953    533.56948   -75429.031       -81526   -75298.532 
Loop time of 51.0557 on 2 procs for 495 steps with 19652 atoms

Performance: 0.838 ns/day, 28.651 hours/ns, 9.695 timesteps/s
90.6% CPU use with 2 MPI tasks x no OpenMP threads

MPI task timing breakdown:
Section |  min time  |  avg time  |  max time  |%varavg| %total
---------------------------------------------------------------
Pair    | 28.14      | 28.143     | 28.145     |   0.0 | 55.12
Neigh   | 19.969     | 20.073     | 20.178     |   2.3 | 39.32
Comm    | 2.0399     | 2.1793     | 2.3187     |   9.4 |  4.27
Output  | 0.00012398 | 0.00016057 | 0.00019717 |   0.0 |  0.00
Modify  | 0.51541    | 0.53519    | 0.55497    |   2.7 |  1.05
Other   |            | 0.1252     |            |       |  0.25

Nlocal:    9826 ave 9848 max 9804 min
Histogram: 1 0 0 0 0 0 0 0 0 1
Nghost:    12008 ave 12009 max 12007 min
Histogram: 1 0 0 0 0 0 0 0 0 1
Neighs:    629900 ave 633421 max 626379 min
Histogram: 1 0 0 0 0 0 0 0 0 1

Total # of neighbors = 1259800
Ave neighs/atom = 64.1054
Neighbor list builds = 495
Dangerous builds not checked
Setting up Verlet run ...
  Unit style    : metal
  Current step  : 40495
  Time step     : 0.001
Per MPI rank memory allocation (min/avg/max) = 11.3 | 11.3 | 11.3 Mbytes
Step Temp Press TotEng PotEng Enthalpy 
   40495    2400.2953    533.56948   -75429.031       -81526   -75298.532 
   50000    2384.8836   -143.48267   -75486.714   -81544.536    -75521.82 
Loop time of 941.921 on 2 procs for 9505 steps with 19652 atoms

Performance: 0.872 ns/day, 27.527 hours/ns, 10.091 timesteps/s
94.6% CPU use with 2 MPI tasks x no OpenMP threads

MPI task timing breakdown:
Section |  min time  |  avg time  |  max time  |%varavg| %total
---------------------------------------------------------------
Pair    | 513.85     | 515.7      | 517.56     |   8.2 | 54.75
Neigh   | 368.61     | 371.39     | 374.17     |  14.4 | 39.43
Comm    | 38.994     | 43.881     | 48.769     |  73.8 |  4.66
Output  | 0.036056   | 0.03607    | 0.036084   |   0.0 |  0.00
Modify  | 8.484      | 8.7361     | 8.9882     |   8.5 |  0.93
Other   |            | 2.174      |            |       |  0.23

Nlocal:    9826 ave 9842 max 9810 min
Histogram: 1 0 0 0 0 0 0 0 0 1
Nghost:    12011.5 ave 12020 max 12003 min
Histogram: 1 0 0 0 0 0 0 0 0 1
Neighs:    629734 ave 637376 max 622093 min
Histogram: 1 0 0 0 0 0 0 0 0 1

Total # of neighbors = 1259469
Ave neighs/atom = 64.0886
Neighbor list builds = 9505
Dangerous builds not checked
Setting up Verlet run ...
  Unit style    : metal
  Current step  : 50000
  Time step     : 0.001
Per MPI rank memory allocation (min/avg/max) = 11.31 | 11.31 | 11.31 Mbytes
Step Temp Press TotEng PotEng Enthalpy 
   50000    2384.8836   -143.48267   -75486.714   -81544.536    -75521.82 
   50495     2379.115    664.23238   -75576.108   -81619.277   -75413.802 
Loop time of 43.6831 on 2 procs for 495 steps with 19652 atoms

Performance: 0.979 ns/day, 24.514 hours/ns, 11.332 timesteps/s
98.6% CPU use with 2 MPI tasks x no OpenMP threads

MPI task timing breakdown:
Section |  min time  |  avg time  |  max time  |%varavg| %total
---------------------------------------------------------------
Pair    | 23.298     | 23.309     | 23.32      |   0.2 | 53.36
Neigh   | 17.587     | 17.85      | 18.113     |   6.2 | 40.86
Comm    | 1.4658     | 1.4707     | 1.4756     |   0.4 |  3.37
Output  | 8.5115e-05 | 0.00013363 | 0.00018215 |   0.0 |  0.00
Modify  | 0.66289    | 0.94311    | 1.2233     |  28.9 |  2.16
Other   |            | 0.1102     |            |       |  0.25

Nlocal:    9826 ave 9831 max 9821 min
Histogram: 1 0 0 0 0 0 0 0 0 1
Nghost:    12060 ave 12075 max 12045 min
Histogram: 1 0 0 0 0 0 0 0 0 1
Neighs:    630690 ave 637561 max 623818 min
Histogram: 1 0 0 0 0 0 0 0 0 1

Total # of neighbors = 1261379
Ave neighs/atom = 64.1858
Neighbor list builds = 495
Dangerous builds not checked
Setting up Verlet run ...
  Unit style    : metal
  Current step  : 50495
  Time step     : 0.001
Per MPI rank memory allocation (min/avg/max) = 11.31 | 11.31 | 11.31 Mbytes
Step Temp Press TotEng PotEng Enthalpy 
   50495     2379.115    664.23238   -75576.108   -81619.277   -75413.802 
   60000    2366.6544    25.660923   -75661.783   -81673.301   -75655.512 
Loop time of 900.725 on 2 procs for 9505 steps with 19652 atoms

Performance: 0.912 ns/day, 26.323 hours/ns, 10.553 timesteps/s
96.9% CPU use with 2 MPI tasks x no OpenMP threads

MPI task timing breakdown:
Section |  min time  |  avg time  |  max time  |%varavg| %total
---------------------------------------------------------------
Pair    | 487.84     | 489.78     | 491.72     |   8.8 | 54.38
Neigh   | 354.7      | 357.43     | 360.16     |  14.4 | 39.68
Comm    | 37.267     | 41.965     | 46.664     |  72.5 |  4.66
Output  | 0.033496   | 0.033517   | 0.033539   |   0.0 |  0.00
Modify  | 9.3769     | 9.4077     | 9.4385     |   1.0 |  1.04
Other   |            | 2.113      |            |       |  0.23

Nlocal:    9826 ave 9835 max 9817 min
Histogram: 1 0 0 0 0 0 0 0 0 1
Nghost:    12023 ave 12055 max 11991 min
Histogram: 1 0 0 0 0 0 0 0 0 1
Neighs:    630438 ave 635752 max 625123 min
Histogram: 1 0 0 0 0 0 0 0 0 1

Total # of neighbors = 1260875
Ave neighs/atom = 64.1601
Neighbor list builds = 9505
Dangerous builds not checked
Setting up Verlet run ...
  Unit style    : metal
  Current step  : 60000
  Time step     : 0.001
Per MPI rank memory allocation (min/avg/max) = 11.32 | 11.32 | 11.32 Mbytes
Step Temp Press TotEng PotEng Enthalpy 
   60000    2366.6544    25.660923   -75661.783   -81673.301   -75655.512 
   60495    2314.1309    292.32798   -75887.055   -81765.158   -75815.893 
Loop time of 43.3838 on 2 procs for 495 steps with 19652 atoms

Performance: 0.986 ns/day, 24.346 hours/ns, 11.410 timesteps/s
99.0% CPU use with 2 MPI tasks x no OpenMP threads

MPI task timing breakdown:
Section |  min time  |  avg time  |  max time  |%varavg| %total
---------------------------------------------------------------
Pair    | 23.152     | 23.319     | 23.486     |   3.5 | 53.75
Neigh   | 17.336     | 17.617     | 17.898     |   6.7 | 40.61
Comm    | 1.4708     | 1.9244     | 2.3779     |  32.7 |  4.44
Output  | 0.00011396 | 0.00020492 | 0.00029588 |   0.0 |  0.00
Modify  | 0.41136    | 0.41509    | 0.41882    |   0.6 |  0.96
Other   |            | 0.1087     |            |       |  0.25

Nlocal:    9826 ave 9853 max 9799 min
Histogram: 1 0 0 0 0 0 0 0 0 1
Nghost:    12047.5 ave 12068 max 12027 min
Histogram: 1 0 0 0 0 0 0 0 0 1
Neighs:    633046 ave 636010 max 630081 min
Histogram: 1 0 0 0 0 0 0 0 0 1

Total # of neighbors = 1266091
Ave neighs/atom = 64.4256
Neighbor list builds = 495
Dangerous builds not checked
Setting up Verlet run ...
  Unit style    : metal
  Current step  : 60495
  Time step     : 0.001
Per MPI rank memory allocation (min/avg/max) = 11.32 | 11.32 | 11.32 Mbytes
Step Temp Press TotEng PotEng Enthalpy 
   60495    2314.1309    292.32798   -75887.055   -81765.158   -75815.893 
   70000    2307.2811   -427.64796   -75844.997   -81705.701   -75949.388 
Loop time of 881.023 on 2 procs for 9505 steps with 19652 atoms

Performance: 0.932 ns/day, 25.747 hours/ns, 10.789 timesteps/s
98.5% CPU use with 2 MPI tasks x no OpenMP threads

MPI task timing breakdown:
Section |  min time  |  avg time  |  max time  |%varavg| %total
---------------------------------------------------------------
Pair    | 476.34     | 479.24     | 482.13     |  13.2 | 54.40
Neigh   | 353.13     | 356.09     | 359.05     |  15.7 | 40.42
Comm    | 27.742     | 34.184     | 40.626     | 110.2 |  3.88
Output  | 0.036117   | 0.036206   | 0.036294   |   0.0 |  0.00
Modify  | 8.7964     | 9.3742     | 9.9521     |  18.9 |  1.06
Other   |            | 2.101      |            |       |  0.24

Nlocal:    9826 ave 9834 max 9818 min
Histogram: 1 0 0 0 0 0 0 0 0 1
Nghost:    12037 ave 12041 max 12033 min
Histogram: 1 0 0 0 0 0 0 0 0 1
Neighs:    630898 ave 636711 max 625085 min
Histogram: 1 0 0 0 0 0 0 0 0 1

Total # of neighbors = 1261796
Ave neighs/atom = 64.207
Neighbor list builds = 9505
Dangerous builds not checked
Setting up Verlet run ...
  Unit style    : metal
  Current step  : 70000
  Time step     : 0.001
Per MPI rank memory allocation (min/avg/max) = 11.33 | 11.33 | 11.33 Mbytes
Step Temp Press TotEng PotEng Enthalpy 
   70000    2307.2811   -427.64796   -75844.997   -81705.701   -75949.388 
   70495    2251.6413    980.31124   -76100.313   -81819.687   -75862.296 
Loop time of 43.7356 on 2 procs for 495 steps with 19652 atoms

Performance: 0.978 ns/day, 24.543 hours/ns, 11.318 timesteps/s
98.7% CPU use with 2 MPI tasks x no OpenMP threads

MPI task timing breakdown:
Section |  min time  |  avg time  |  max time  |%varavg| %total
---------------------------------------------------------------
Pair    | 23.931     | 24.116     | 24.301     |   3.8 | 55.14
Neigh   | 17.756     | 17.764     | 17.772     |   0.2 | 40.62
Comm    | 0.9856     | 1.1793     | 1.373      |  17.8 |  2.70
Output  | 8.7976e-05 | 0.00011158 | 0.00013518 |   0.0 |  0.00
Modify  | 0.56668    | 0.568      | 0.56933    |   0.2 |  1.30
Other   |            | 0.1082     |            |       |  0.25

Nlocal:    9826 ave 9857 max 9795 min
Histogram: 1 0 0 0 0 0 0 0 0 1
Nghost:    12084 ave 12151 max 12017 min
Histogram: 1 0 0 0 0 0 0 0 0 1
Neighs:    634506 ave 637908 max 631103 min
Histogram: 1 0 0 0 0 0 0 0 0 1

Total # of neighbors = 1269011
Ave neighs/atom = 64.5741
Neighbor list builds = 495
Dangerous builds not checked
Setting up Verlet run ...
  Unit style    : metal
  Current step  : 70495
  Time step     : 0.001
Per MPI rank memory allocation (min/avg/max) = 11.33 | 11.33 | 11.33 Mbytes
Step Temp Press TotEng PotEng Enthalpy 
   70495    2251.6413    980.31124   -76100.313   -81819.687   -75862.296 
   80000    2244.7548    123.81319    -76157.52   -81859.401   -76127.475 
Loop time of 884.3 on 2 procs for 9505 steps with 19652 atoms

Performance: 0.929 ns/day, 25.843 hours/ns, 10.749 timesteps/s
98.4% CPU use with 2 MPI tasks x no OpenMP threads

MPI task timing breakdown:
Section |  min time  |  avg time  |  max time  |%varavg| %total
---------------------------------------------------------------
Pair    | 479.03     | 482.62     | 486.22     |  16.4 | 54.58
Neigh   | 354.67     | 357.8      | 360.93     |  16.6 | 40.46
Comm    | 25.213     | 31.971     | 38.728     | 119.5 |  3.62
Output  | 0.035502   | 0.035532   | 0.035562   |   0.0 |  0.00
Modify  | 9.7561     | 9.7795     | 9.803      |   0.7 |  1.11
Other   |            | 2.093      |            |       |  0.24

Nlocal:    9826 ave 9850 max 9802 min
Histogram: 1 0 0 0 0 0 0 0 0 1
Nghost:    12056 ave 12060 max 12052 min
Histogram: 1 0 0 0 0 0 0 0 0 1
Neighs:    634974 ave 643435 max 626513 min
Histogram: 1 0 0 0 0 0 0 0 0 1

Total # of neighbors = 1269948
Ave neighs/atom = 64.6218
Neighbor list builds = 9505
Dangerous builds not checked
Setting up Verlet run ...
  Unit style    : metal
  Current step  : 80000
  Time step     : 0.001
Per MPI rank memory allocation (min/avg/max) = 11.33 | 11.33 | 11.33 Mbytes
Step Temp Press TotEng PotEng Enthalpy 
   80000    2244.7548    123.81319    -76157.52   -81859.401   -76127.475 
   80495    2214.6615   -1109.8934    -76308.51   -81933.952   -76578.202 
Loop time of 42.8165 on 2 procs for 495 steps with 19652 atoms

Performance: 0.999 ns/day, 24.027 hours/ns, 11.561 timesteps/s
99.4% CPU use with 2 MPI tasks x no OpenMP threads

MPI task timing breakdown:
Section |  min time  |  avg time  |  max time  |%varavg| %total
---------------------------------------------------------------
Pair    | 23.334     | 23.436     | 23.538     |   2.1 | 54.74
Neigh   | 17.447     | 17.538     | 17.629     |   2.2 | 40.96
Comm    | 1.1258     | 1.321      | 1.5162     |  17.0 |  3.09
Output  | 0.00010705 | 0.00014853 | 0.00019002 |   0.0 |  0.00
Modify  | 0.4119     | 0.41311    | 0.41433    |   0.2 |  0.96
Other   |            | 0.1083     |            |       |  0.25

Nlocal:    9826 ave 9839 max 9813 min
Histogram: 1 0 0 0 0 0 0 0 0 1
Nghost:    12053.5 ave 12065 max 12042 min
Histogram: 1 0 0 0 0 0 0 0 0 1
Neighs:    634094 ave 641386 max 626802 min
Histogram: 1 0 0 0 0 0 0 0 0 1

Total # of neighbors = 1268188
Ave neighs/atom = 64.5323
Neighbor list builds = 495
Dangerous builds not checked
Setting up Verlet run ...
  Unit style    : metal
  Current step  : 80495
  Time step     : 0.001
Per MPI rank memory allocation (min/avg/max) = 11.33 | 11.33 | 11.33 Mbytes
Step Temp Press TotEng PotEng Enthalpy 
   80495    2214.6615   -1109.8934    -76308.51   -81933.952   -76578.202 
   90000    2194.1445     1356.349   -76394.644   -81967.971   -76066.645 
Loop time of 881.047 on 2 procs for 9505 steps with 19652 atoms

Performance: 0.932 ns/day, 25.748 hours/ns, 10.788 timesteps/s
98.5% CPU use with 2 MPI tasks x no OpenMP threads

MPI task timing breakdown:
Section |  min time  |  avg time  |  max time  |%varavg| %total
---------------------------------------------------------------
Pair    | 479.71     | 482.13     | 484.55     |  11.0 | 54.72
Neigh   | 351.63     | 356.04     | 360.45     |  23.4 | 40.41
Comm    | 25.458     | 32.363     | 39.268     | 121.4 |  3.67
Output  | 0.036868   | 0.036896   | 0.036923   |   0.0 |  0.00
Modify  | 8.3211     | 8.3846     | 8.448      |   2.2 |  0.95
Other   |            | 2.087      |            |       |  0.24

Nlocal:    9826 ave 9841 max 9811 min
Histogram: 1 0 0 0 0 0 0 0 0 1
Nghost:    12122 ave 12159 max 12085 min
Histogram: 1 0 0 0 0 0 0 0 0 1
Neighs:    637049 ave 644994 max 629104 min
Histogram: 1 0 0 0 0 0 0 0 0 1

Total # of neighbors = 1274098
Ave neighs/atom = 64.833
Neighbor list builds = 9505
Dangerous builds not checked
Setting up Verlet run ...
  Unit style    : metal
  Current step  : 90000
  Time step     : 0.001
Per MPI rank memory allocation (min/avg/max) = 11.34 | 11.34 | 11.34 Mbytes
Step Temp Press TotEng PotEng Enthalpy 
   90000    2194.1445     1356.349   -76394.644   -81967.971   -76066.645 
   90495    2168.6351    267.84103    -76485.42   -81993.951   -76420.574 
Loop time of 44.2897 on 2 procs for 495 steps with 19652 atoms

Performance: 0.966 ns/day, 24.854 hours/ns, 11.176 timesteps/s
98.1% CPU use with 2 MPI tasks x no OpenMP threads

MPI task timing breakdown:
Section |  min time  |  avg time  |  max time  |%varavg| %total
---------------------------------------------------------------
Pair    | 23.553     | 23.779     | 24.004     |   4.6 | 53.69
Neigh   | 17.8       | 17.99      | 18.181     |   4.5 | 40.62
Comm    | 1.5793     | 1.9981     | 2.4168     |  29.6 |  4.51
Output  | 0.00018501 | 0.00025654 | 0.00032806 |   0.0 |  0.00
Modify  | 0.41002    | 0.41134    | 0.41267    |   0.2 |  0.93
Other   |            | 0.1112     |            |       |  0.25

Nlocal:    9826 ave 9834 max 9818 min
Histogram: 1 0 0 0 0 0 0 0 0 1
Nghost:    12078 ave 12087 max 12069 min
Histogram: 1 0 0 0 0 0 0 0 0 1
Neighs:    636382 ave 641829 max 630934 min
Histogram: 1 0 0 0 0 0 0 0 0 1

Total # of neighbors = 1272763
Ave neighs/atom = 64.7651
Neighbor list builds = 495
Dangerous builds not checked
Setting up Verlet run ...
  Unit style    : metal
  Current step  : 90495
  Time step     : 0.001
Per MPI rank memory allocation (min/avg/max) = 11.34 | 11.34 | 11.34 Mbytes
Step Temp Press TotEng PotEng Enthalpy 
   90495    2168.6351    267.84103    -76485.42   -81993.951   -76420.574 
  100000    2149.2001    861.85087   -76529.924   -81989.089   -76321.168 
Loop time of 881.011 on 2 procs for 9505 steps with 19652 atoms

Performance: 0.932 ns/day, 25.747 hours/ns, 10.789 timesteps/s
98.1% CPU use with 2 MPI tasks x no OpenMP threads

MPI task timing breakdown:
Section |  min time  |  avg time  |  max time  |%varavg| %total
---------------------------------------------------------------
Pair    | 481.83     | 483.15     | 484.48     |   6.0 | 54.84
Neigh   | 351.66     | 354.06     | 356.47     |  12.8 | 40.19
Comm    | 29.839     | 33.604     | 37.369     |  65.0 |  3.81
Output  | 0.035747   | 0.035823   | 0.0359     |   0.0 |  0.00
Modify  | 8.0228     | 8.0648     | 8.1068     |   1.5 |  0.92
Other   |            | 2.09       |            |       |  0.24

Nlocal:    9826 ave 9827 max 9825 min
Histogram: 1 0 0 0 0 0 0 0 0 1
Nghost:    12058 ave 12078 max 12038 min
Histogram: 1 0 0 0 0 0 0 0 0 1
Neighs:    635968 ave 641915 max 630022 min
Histogram: 1 0 0 0 0 0 0 0 0 1

Total # of neighbors = 1271937
Ave neighs/atom = 64.723
Neighbor list builds = 9505
Dangerous builds not checked
Setting up Verlet run ...
  Unit style    : metal
  Current step  : 100000
  Time step     : 0.001
Per MPI rank memory allocation (min/avg/max) = 11.34 | 11.34 | 11.34 Mbytes
Step Temp Press TotEng PotEng Enthalpy 
  100000    2149.2001    861.85087   -76529.924   -81989.089   -76321.168 
  100495    2102.9352    455.77379   -76742.008   -82083.655   -76631.993 
Loop time of 42.5235 on 2 procs for 495 steps with 19652 atoms

Performance: 1.006 ns/day, 23.863 hours/ns, 11.641 timesteps/s
99.1% CPU use with 2 MPI tasks x no OpenMP threads

MPI task timing breakdown:
Section |  min time  |  avg time  |  max time  |%varavg| %total
---------------------------------------------------------------
Pair    | 22.955     | 23.026     | 23.098     |   1.5 | 54.15
Neigh   | 17.278     | 17.341     | 17.403     |   1.5 | 40.78
Comm    | 1.5066     | 1.641      | 1.7754     |  10.5 |  3.86
Output  | 7.987e-05  | 0.00012994 | 0.00018001 |   0.0 |  0.00
Modify  | 0.40761    | 0.40889    | 0.41016    |   0.2 |  0.96
Other   |            | 0.1067     |            |       |  0.25

Nlocal:    9826 ave 9834 max 9818 min
Histogram: 1 0 0 0 0 0 0 0 0 1
Nghost:    12082.5 ave 12113 max 12052 min
Histogram: 1 0 0 0 0 0 0 0 0 1
Neighs:    638514 ave 645099 max 631930 min
Histogram: 1 0 0 0 0 0 0 0 0 1

Total # of neighbors = 1277029
Ave neighs/atom = 64.9821
Neighbor list builds = 495
Dangerous builds not checked
Setting up Verlet run ...
  Unit style    : metal
  Current step  : 100495
  Time step     : 0.001
Per MPI rank memory allocation (min/avg/max) = 11.34 | 11.34 | 11.34 Mbytes
Step Temp Press TotEng PotEng Enthalpy 
  100495    2102.9352    455.77379   -76742.008   -82083.655   -76631.993 
  110000    2097.7153    524.37843   -76851.355   -82179.743   -76724.969 
Loop time of 869.279 on 2 procs for 9505 steps with 19652 atoms

Performance: 0.945 ns/day, 25.404 hours/ns, 10.934 timesteps/s
98.1% CPU use with 2 MPI tasks x no OpenMP threads

MPI task timing breakdown:
Section |  min time  |  avg time  |  max time  |%varavg| %total
---------------------------------------------------------------
Pair    | 473.03     | 475.3      | 477.58     |  10.4 | 54.68
Neigh   | 351.48     | 352.86     | 354.24     |   7.4 | 40.59
Comm    | 25.396     | 29.336     | 33.276     |  72.7 |  3.37
Output  | 0.093458   | 0.093479   | 0.0935     |   0.0 |  0.01
Modify  | 9.3451     | 9.6204     | 9.8957     |   8.9 |  1.11
Other   |            | 2.068      |            |       |  0.24

Nlocal:    9826 ave 9845 max 9807 min
Histogram: 1 0 0 0 0 0 0 0 0 1
Nghost:    12115 ave 12149 max 12081 min
Histogram: 1 0 0 0 0 0 0 0 0 1
Neighs:    639334 ave 647902 max 630767 min
Histogram: 1 0 0 0 0 0 0 0 0 1

Total # of neighbors = 1278669
Ave neighs/atom = 65.0656
Neighbor list builds = 9505
Dangerous builds not checked
Setting up Verlet run ...
  Unit style    : metal
  Current step  : 110000
  Time step     : 0.001
Per MPI rank memory allocation (min/avg/max) = 11.34 | 11.34 | 11.34 Mbytes
Step Temp Press TotEng PotEng Enthalpy 
  110000    2097.7153    524.37843   -76851.355   -82179.743   -76724.969 
  110495    2058.6646   -416.44401    -76957.95   -82187.146   -77058.505 
Loop time of 46.8728 on 2 procs for 495 steps with 19652 atoms

Performance: 0.912 ns/day, 26.303 hours/ns, 10.560 timesteps/s
95.3% CPU use with 2 MPI tasks x no OpenMP threads

MPI task timing breakdown:
Section |  min time  |  avg time  |  max time  |%varavg| %total
---------------------------------------------------------------
Pair    | 23.831     | 23.856     | 23.881     |   0.5 | 50.90
Neigh   | 17.658     | 17.68      | 17.702     |   0.5 | 37.72
Comm    | 4.4844     | 4.4901     | 4.4959     |   0.3 |  9.58
Output  | 9.3937e-05 | 0.00014746 | 0.00020099 |   0.0 |  0.00
Modify  | 0.73589    | 0.73676    | 0.73764    |   0.1 |  1.57
Other   |            | 0.1099     |            |       |  0.23

Nlocal:    9826 ave 9830 max 9822 min
Histogram: 1 0 0 0 0 0 0 0 0 1
Nghost:    12109 ave 12118 max 12100 min
Histogram: 1 0 0 0 0 0 0 0 0 1
Neighs:    637996 ave 645090 max 630903 min
Histogram: 1 0 0 0 0 0 0 0 0 1

Total # of neighbors = 1275993
Ave neighs/atom = 64.9294
Neighbor list builds = 495
Dangerous builds not checked
Setting up Verlet run ...
  Unit style    : metal
  Current step  : 110495
  Time step     : 0.001
Per MPI rank memory allocation (min/avg/max) = 11.34 | 11.34 | 11.34 Mbytes
Step Temp Press TotEng PotEng Enthalpy 
  110495    2058.6646   -416.44401    -76957.95   -82187.146   -77058.505 
  120000    2053.0553    454.20326   -76996.669   -82211.617   -76887.166 
Loop time of 864.484 on 2 procs for 9505 steps with 19652 atoms

Performance: 0.950 ns/day, 25.264 hours/ns, 10.995 timesteps/s
98.7% CPU use with 2 MPI tasks x no OpenMP threads

MPI task timing breakdown:
Section |  min time  |  avg time  |  max time  |%varavg| %total
---------------------------------------------------------------
Pair    | 465.05     | 467.45     | 469.85     |  11.1 | 54.07
Neigh   | 351.27     | 353.51     | 355.75     |  11.9 | 40.89
Comm    | 28.23      | 32.898     | 37.567     |  81.4 |  3.81
Output  | 0.035936   | 0.035957   | 0.035979   |   0.0 |  0.00
Modify  | 8.4943     | 8.5122     | 8.5301     |   0.6 |  0.98
Other   |            | 2.073      |            |       |  0.24

Nlocal:    9826 ave 9848 max 9804 min
Histogram: 1 0 0 0 0 0 0 0 0 1
Nghost:    12093.5 ave 12099 max 12088 min
Histogram: 1 0 0 0 0 0 0 0 0 1
Neighs:    638938 ave 642529 max 635348 min
Histogram: 1 0 0 0 0 0 0 0 0 1

Total # of neighbors = 1277877
Ave neighs/atom = 65.0253
Neighbor list builds = 9505
Dangerous builds not checked
Setting up Verlet run ...
  Unit style    : metal
  Current step  : 120000
  Time step     : 0.001
Per MPI rank memory allocation (min/avg/max) = 11.34 | 11.34 | 11.34 Mbytes
Step Temp Press TotEng PotEng Enthalpy 
  120000    2053.0553    454.20326   -76996.669   -82211.617   -76887.166 
  120495    2011.5405    35.272146   -77200.634    -82310.13   -77192.143 
Loop time of 42.3424 on 2 procs for 495 steps with 19652 atoms

Performance: 1.010 ns/day, 23.761 hours/ns, 11.690 timesteps/s
99.3% CPU use with 2 MPI tasks x no OpenMP threads

MPI task timing breakdown:
Section |  min time  |  avg time  |  max time  |%varavg| %total
---------------------------------------------------------------
Pair    | 23.118     | 23.185     | 23.253     |   1.4 | 54.76
Neigh   | 17.328     | 17.342     | 17.356     |   0.3 | 40.96
Comm    | 1.2467     | 1.3003     | 1.354      |   4.7 |  3.07
Output  | 8.9884e-05 | 0.00012493 | 0.00015998 |   0.0 |  0.00
Modify  | 0.40853    | 0.40886    | 0.40919    |   0.1 |  0.97
Other   |            | 0.106      |            |       |  0.25

Nlocal:    9826 ave 9856 max 9796 min
Histogram: 1 0 0 0 0 0 0 0 0 1
Nghost:    12115 ave 12132 max 12098 min
Histogram: 1 0 0 0 0 0 0 0 0 1
Neighs:    640248 ave 642883 max 637613 min
Histogram: 1 0 0 0 0 0 0 0 0 1

Total # of neighbors = 1280496
Ave neighs/atom = 65.1586
Neighbor list builds = 495
Dangerous builds not checked
Setting up Verlet run ...
  Unit style    : metal
  Current step  : 120495
  Time step     : 0.001
Per MPI rank memory allocation (min/avg/max) = 11.34 | 11.34 | 11.34 Mbytes
Step Temp Press TotEng PotEng Enthalpy 
  120495    2011.5405    35.272146   -77200.634    -82310.13   -77192.143 
  130000    1995.5608   -461.39305   -77231.779   -82300.685   -77343.186 
Loop time of 867.283 on 2 procs for 9505 steps with 19652 atoms

Performance: 0.947 ns/day, 25.346 hours/ns, 10.960 timesteps/s
99.0% CPU use with 2 MPI tasks x no OpenMP threads

MPI task timing breakdown:
Section |  min time  |  avg time  |  max time  |%varavg| %total
---------------------------------------------------------------
Pair    | 469.81     | 472.52     | 475.23     |  12.5 | 54.48
Neigh   | 350.85     | 353.87     | 356.88     |  16.0 | 40.80
Comm    | 23.415     | 29.459     | 35.504     | 111.4 |  3.40
Output  | 0.034622   | 0.034629   | 0.034637   |   0.0 |  0.00
Modify  | 9.0102     | 9.3246     | 9.6391     |  10.3 |  1.08
Other   |            | 2.076      |            |       |  0.24

Nlocal:    9826 ave 9832 max 9820 min
Histogram: 1 0 0 0 0 0 0 0 0 1
Nghost:    12105.5 ave 12130 max 12081 min
Histogram: 1 0 0 0 0 0 0 0 0 1
Neighs:    638167 ave 645414 max 630920 min
Histogram: 1 0 0 0 0 0 0 0 0 1

Total # of neighbors = 1276334
Ave neighs/atom = 64.9468
Neighbor list builds = 9505
Dangerous builds not checked
Setting up Verlet run ...
  Unit style    : metal
  Current step  : 130000
  Time step     : 0.001
Per MPI rank memory allocation (min/avg/max) = 11.34 | 11.34 | 11.34 Mbytes
Step Temp Press TotEng PotEng Enthalpy 
  130000    1995.5608   -461.39305   -77231.779   -82300.685   -77343.186 
  130495    1958.9207     37.36498     -77416.8   -82392.638   -77407.826 
Loop time of 43.393 on 2 procs for 495 steps with 19652 atoms

Performance: 0.986 ns/day, 24.351 hours/ns, 11.407 timesteps/s
97.8% CPU use with 2 MPI tasks x no OpenMP threads

MPI task timing breakdown:
Section |  min time  |  avg time  |  max time  |%varavg| %total
---------------------------------------------------------------
Pair    | 23.634     | 23.828     | 24.022     |   4.0 | 54.91
Neigh   | 17.59      | 17.632     | 17.675     |   1.0 | 40.63
Comm    | 1.1714     | 1.4116     | 1.6517     |  20.2 |  3.25
Output  | 0.00018716 | 0.00023508 | 0.000283   |   0.0 |  0.00
Modify  | 0.40976    | 0.41291    | 0.41605    |   0.5 |  0.95
Other   |            | 0.1074     |            |       |  0.25

Nlocal:    9826 ave 9832 max 9820 min
Histogram: 1 0 0 0 0 0 0 0 0 1
Nghost:    12131.5 ave 12154 max 12109 min
Histogram: 1 0 0 0 0 0 0 0 0 1
Neighs:    641566 ave 647107 max 636024 min
Histogram: 1 0 0 0 0 0 0 0 0 1

Total # of neighbors = 1283131
Ave neighs/atom = 65.2926
Neighbor list builds = 495
Dangerous builds not checked
Setting up Verlet run ...
  Unit style    : metal
  Current step  : 130495
  Time step     : 0.001
Per MPI rank memory allocation (min/avg/max) = 11.34 | 11.34 | 11.34 Mbytes
Step Temp Press TotEng PotEng Enthalpy 
  130495    1958.9207     37.36498     -77416.8   -82392.638   -77407.826 
  140000    1923.7763    665.16305   -77530.539   -82417.106    -77370.87 
Loop time of 857.469 on 2 procs for 9505 steps with 19652 atoms

Performance: 0.958 ns/day, 25.059 hours/ns, 11.085 timesteps/s
98.8% CPU use with 2 MPI tasks x no OpenMP threads

MPI task timing breakdown:
Section |  min time  |  avg time  |  max time  |%varavg| %total
---------------------------------------------------------------
Pair    | 463.68     | 465.82     | 467.95     |   9.9 | 54.32
Neigh   | 345.91     | 348.97     | 352.03     |  16.4 | 40.70
Comm    | 27.31      | 32.532     | 37.755     |  91.6 |  3.79
Output  | 0.053255   | 0.053313   | 0.053372   |   0.0 |  0.01
Modify  | 8.0303     | 8.0493     | 8.0683     |   0.7 |  0.94
Other   |            | 2.05       |            |       |  0.24

Nlocal:    9826 ave 9840 max 9812 min
Histogram: 1 0 0 0 0 0 0 0 0 1
Nghost:    12113.5 ave 12117 max 12110 min
Histogram: 1 0 0 0 0 0 0 0 0 1
Neighs:    642015 ave 649075 max 634955 min
Histogram: 1 0 0 0 0 0 0 0 0 1

Total # of neighbors = 1284030
Ave neighs/atom = 65.3384
Neighbor list builds = 9505
Dangerous builds not checked
Setting up Verlet run ...
  Unit style    : metal
  Current step  : 140000
  Time step     : 0.001
Per MPI rank memory allocation (min/avg/max) = 11.34 | 11.34 | 11.34 Mbytes
Step Temp Press TotEng PotEng Enthalpy 
  140000    1923.7763    665.16305   -77530.539   -82417.106    -77370.87 
  140495    1914.4982    351.40182   -77656.216   -82519.216   -77572.006 
Loop time of 42.1978 on 2 procs for 495 steps with 19652 atoms

Performance: 1.014 ns/day, 23.680 hours/ns, 11.730 timesteps/s
99.4% CPU use with 2 MPI tasks x no OpenMP threads

MPI task timing breakdown:
Section |  min time  |  avg time  |  max time  |%varavg| %total
---------------------------------------------------------------
Pair    | 22.921     | 23.011     | 23.102     |   1.9 | 54.53
Neigh   | 17.531     | 17.631     | 17.731     |   2.4 | 41.78
Comm    | 0.84358    | 1.0356     | 1.2277     |  18.9 |  2.45
Output  | 8.4877e-05 | 0.00013137 | 0.00017786 |   0.0 |  0.00
Modify  | 0.41162    | 0.41338    | 0.41513    |   0.3 |  0.98
Other   |            | 0.1065     |            |       |  0.25

Nlocal:    9826 ave 9844 max 9808 min
Histogram: 1 0 0 0 0 0 0 0 0 1
Nghost:    12116 ave 12120 max 12112 min
Histogram: 1 0 0 0 0 0 0 0 0 1
Neighs:    643202 ave 647621 max 638784 min
Histogram: 1 0 0 0 0 0 0 0 0 1

Total # of neighbors = 1286405
Ave neighs/atom = 65.4592
Neighbor list builds = 495
Dangerous builds not checked
Setting up Verlet run ...
  Unit style    : metal
  Current step  : 140495
  Time step     : 0.001
Per MPI rank memory allocation (min/avg/max) = 11.34 | 11.34 | 11.34 Mbytes
Step Temp Press TotEng PotEng Enthalpy 
  140495    1914.4982    351.40182   -77656.216   -82519.216   -77572.006 
  150000    1905.7465    324.14397   -77717.213   -82557.983   -77639.548 
Loop time of 864.964 on 2 procs for 9505 steps with 19652 atoms

Performance: 0.949 ns/day, 25.278 hours/ns, 10.989 timesteps/s
98.3% CPU use with 2 MPI tasks x no OpenMP threads

MPI task timing breakdown:
Section |  min time  |  avg time  |  max time  |%varavg| %total
---------------------------------------------------------------
Pair    | 466.53     | 470.21     | 473.88     |  16.9 | 54.36
Neigh   | 348.45     | 350.12     | 351.8      |   8.9 | 40.48
Comm    | 28.713     | 34.107     | 39.501     |  92.4 |  3.94
Output  | 0.040041   | 0.040076   | 0.04011    |   0.0 |  0.00
Modify  | 8.3873     | 8.436      | 8.4847     |   1.7 |  0.98
Other   |            | 2.05       |            |       |  0.24

Nlocal:    9826 ave 9846 max 9806 min
Histogram: 1 0 0 0 0 0 0 0 0 1
Nghost:    12126 ave 12141 max 12111 min
Histogram: 1 0 0 0 0 0 0 0 0 1
Neighs:    642944 ave 651804 max 634085 min
Histogram: 1 0 0 0 0 0 0 0 0 1

Total # of neighbors = 1285889
Ave neighs/atom = 65.433
Neighbor list builds = 9505
Dangerous builds not checked
Setting up Verlet run ...
  Unit style    : metal
  Current step  : 150000
  Time step     : 0.001
Per MPI rank memory allocation (min/avg/max) = 11.34 | 11.34 | 11.34 Mbytes
Step Temp Press TotEng PotEng Enthalpy 
  150000    1905.7465    324.14397   -77717.213   -82557.983   -77639.548 
  150495    1868.8493    688.84063   -77878.021   -82625.069   -77713.307 
Loop time of 42.8606 on 2 procs for 495 steps with 19652 atoms

Performance: 0.998 ns/day, 24.052 hours/ns, 11.549 timesteps/s
99.6% CPU use with 2 MPI tasks x no OpenMP threads

MPI task timing breakdown:
Section |  min time  |  avg time  |  max time  |%varavg| %total
---------------------------------------------------------------
Pair    | 23.422     | 23.485     | 23.548     |   1.3 | 54.79
Neigh   | 17.557     | 17.705     | 17.853     |   3.5 | 41.31
Comm    | 0.90105    | 1.1156     | 1.3301     |  20.3 |  2.60
Output  | 8.6069e-05 | 0.00011897 | 0.00015187 |   0.0 |  0.00
Modify  | 0.44433    | 0.44748    | 0.45063    |   0.5 |  1.04
Other   |            | 0.1074     |            |       |  0.25

Nlocal:    9826 ave 9845 max 9807 min
Histogram: 1 0 0 0 0 0 0 0 0 1
Nghost:    12151.5 ave 12189 max 12114 min
Histogram: 1 0 0 0 0 0 0 0 0 1
Neighs:    644475 ave 649141 max 639809 min
Histogram: 1 0 0 0 0 0 0 0 0 1

Total # of neighbors = 1288950
Ave neighs/atom = 65.5887
Neighbor list builds = 495
Dangerous builds not checked
Setting up Verlet run ...
  Unit style    : metal
  Current step  : 150495
  Time step     : 0.001
Per MPI rank memory allocation (min/avg/max) = 11.34 | 11.34 | 11.34 Mbytes
Step Temp Press TotEng PotEng Enthalpy 
  150495    1868.8493    688.84063   -77878.021   -82625.069   -77713.307 
  160000    1837.9993    647.61706   -77951.794   -82620.479   -77797.199 
Loop time of 858.354 on 2 procs for 9505 steps with 19652 atoms

Performance: 0.957 ns/day, 25.085 hours/ns, 11.074 timesteps/s
98.6% CPU use with 2 MPI tasks x no OpenMP threads

MPI task timing breakdown:
Section |  min time  |  avg time  |  max time  |%varavg| %total
---------------------------------------------------------------
Pair    | 461.87     | 464.33     | 466.79     |  11.4 | 54.10
Neigh   | 347.19     | 349.32     | 351.46     |  11.4 | 40.70
Comm    | 29.177     | 33.811     | 38.446     |  79.7 |  3.94
Output  | 0.035542   | 0.035551   | 0.03556    |   0.0 |  0.00
Modify  | 8.7784     | 8.8126     | 8.8468     |   1.2 |  1.03
Other   |            | 2.047      |            |       |  0.24

Nlocal:    9826 ave 9829 max 9823 min
Histogram: 1 0 0 0 0 0 0 0 0 1
Nghost:    12123 ave 12137 max 12109 min
Histogram: 1 0 0 0 0 0 0 0 0 1
Neighs:    645452 ave 651246 max 639658 min
Histogram: 1 0 0 0 0 0 0 0 0 1

Total # of neighbors = 1290904
Ave neighs/atom = 65.6882
Neighbor list builds = 9505
Dangerous builds not checked
Setting up Verlet run ...
  Unit style    : metal
  Current step  : 160000
  Time step     : 0.001
Per MPI rank memory allocation (min/avg/max) = 11.35 | 11.35 | 11.35 Mbytes
Step Temp Press TotEng PotEng Enthalpy 
  160000    1837.9993    647.61706   -77951.794   -82620.479   -77797.199 
  160495    1811.5637   -323.62918   -78102.216   -82703.752   -78179.613 
Loop time of 42.0309 on 2 procs for 495 steps with 19652 atoms

Performance: 1.018 ns/day, 23.586 hours/ns, 11.777 timesteps/s
99.8% CPU use with 2 MPI tasks x no OpenMP threads

MPI task timing breakdown:
Section |  min time  |  avg time  |  max time  |%varavg| %total
---------------------------------------------------------------
Pair    | 22.481     | 22.802     | 23.123     |   6.7 | 54.25
Neigh   | 17.319     | 17.42      | 17.522     |   2.4 | 41.45
Comm    | 0.8666     | 1.2932     | 1.7198     |  37.5 |  3.08
Output  | 8.7976e-05 | 0.00013638 | 0.00018477 |   0.0 |  0.00
Modify  | 0.40688    | 0.41005    | 0.41322    |   0.5 |  0.98
Other   |            | 0.1052     |            |       |  0.25

Nlocal:    9826 ave 9827 max 9825 min
Histogram: 1 0 0 0 0 0 0 0 0 1
Nghost:    12179 ave 12186 max 12172 min
Histogram: 1 0 0 0 0 0 0 0 0 1
Neighs:    644282 ave 650622 max 637942 min
Histogram: 1 0 0 0 0 0 0 0 0 1

Total # of neighbors = 1288564
Ave neighs/atom = 65.5691
Neighbor list builds = 495
Dangerous builds not checked
Setting up Verlet run ...
  Unit style    : metal
  Current step  : 160495
  Time step     : 0.001
Per MPI rank memory allocation (min/avg/max) = 11.35 | 11.35 | 11.35 Mbytes
Step Temp Press TotEng PotEng Enthalpy 
  160495    1811.5637   -323.62918   -78102.216   -82703.752   -78179.613 
  170000    1787.5847   -1070.4838   -78176.377   -82717.005   -78432.787 
Loop time of 849.054 on 2 procs for 9505 steps with 19652 atoms

Performance: 0.967 ns/day, 24.813 hours/ns, 11.195 timesteps/s
98.7% CPU use with 2 MPI tasks x no OpenMP threads

MPI task timing breakdown:
Section |  min time  |  avg time  |  max time  |%varavg| %total
---------------------------------------------------------------
Pair    | 457.07     | 458.56     | 460.05     |   7.0 | 54.01
Neigh   | 343        | 344.21     | 345.42     |   6.5 | 40.54
Comm    | 33.261     | 35.896     | 38.532     |  44.0 |  4.23
Output  | 0.036527   | 0.036608   | 0.036689   |   0.0 |  0.00
Modify  | 8.2751     | 8.3366     | 8.3982     |   2.1 |  0.98
Other   |            | 2.013      |            |       |  0.24

Nlocal:    9826 ave 9832 max 9820 min
Histogram: 1 0 0 0 0 0 0 0 0 1
Nghost:    12129 ave 12154 max 12104 min
Histogram: 1 0 0 0 0 0 0 0 0 1
Neighs:    643496 ave 649620 max 637373 min
Histogram: 1 0 0 0 0 0 0 0 0 1

Total # of neighbors = 1286993
Ave neighs/atom = 65.4892
Neighbor list builds = 9505
Dangerous builds not checked
Setting up Verlet run ...
  Unit style    : metal
  Current step  : 170000
  Time step     : 0.001
Per MPI rank memory allocation (min/avg/max) = 11.35 | 11.35 | 11.35 Mbytes
Step Temp Press TotEng PotEng Enthalpy 
  170000    1787.5847   -1070.4838   -78176.377   -82717.005   -78432.787 
  170495    1750.6943   -383.37382   -78368.544   -82815.467   -78460.017 
Loop time of 43.1866 on 2 procs for 495 steps with 19652 atoms

Performance: 0.990 ns/day, 24.235 hours/ns, 11.462 timesteps/s
97.3% CPU use with 2 MPI tasks x no OpenMP threads

MPI task timing breakdown:
Section |  min time  |  avg time  |  max time  |%varavg| %total
---------------------------------------------------------------
Pair    | 23.76      | 23.969     | 24.178     |   4.3 | 55.50
Neigh   | 17.534     | 17.587     | 17.64      |   1.3 | 40.72
Comm    | 0.95748    | 1.1144     | 1.2713     |  14.9 |  2.58
Output  | 8.893e-05  | 0.00019193 | 0.00029492 |   0.0 |  0.00
Modify  | 0.40885    | 0.41047    | 0.41209    |   0.3 |  0.95
Other   |            | 0.1059     |            |       |  0.25

Nlocal:    9826 ave 9832 max 9820 min
Histogram: 1 0 0 0 0 0 0 0 0 1
Nghost:    12160.5 ave 12175 max 12146 min
Histogram: 1 0 0 0 0 0 0 0 0 1
Neighs:    646012 ave 651903 max 640121 min
Histogram: 1 0 0 0 0 0 0 0 0 1

Total # of neighbors = 1292024
Ave neighs/atom = 65.7452
Neighbor list builds = 495
Dangerous builds not checked
Setting up Verlet run ...
  Unit style    : metal
  Current step  : 170495
  Time step     : 0.001
Per MPI rank memory allocation (min/avg/max) = 11.35 | 11.35 | 11.35 Mbytes
Step Temp Press TotEng PotEng Enthalpy 
  170495    1750.6943   -383.37382   -78368.544   -82815.467   -78460.017 
  180000    1748.2202   -953.88897   -78330.282    -82770.92   -78558.316 
Loop time of 872.475 on 2 procs for 9505 steps with 19652 atoms

Performance: 0.941 ns/day, 25.498 hours/ns, 10.894 timesteps/s
97.5% CPU use with 2 MPI tasks x no OpenMP threads

MPI task timing breakdown:
Section |  min time  |  avg time  |  max time  |%varavg| %total
---------------------------------------------------------------
Pair    | 474.09     | 476.25     | 478.41     |   9.9 | 54.59
Neigh   | 346.66     | 348.63     | 350.6      |  10.5 | 39.96
Comm    | 31.158     | 35.239     | 39.319     |  68.7 |  4.04
Output  | 0.071599   | 0.071625   | 0.071651   |   0.0 |  0.01
Modify  | 10.184     | 10.231     | 10.278     |   1.5 |  1.17
Other   |            | 2.049      |            |       |  0.23

Nlocal:    9826 ave 9839 max 9813 min
Histogram: 1 0 0 0 0 0 0 0 0 1
Nghost:    12151.5 ave 12188 max 12115 min
Histogram: 1 0 0 0 0 0 0 0 0 1
Neighs:    644664 ave 652387 max 636940 min
Histogram: 1 0 0 0 0 0 0 0 0 1

Total # of neighbors = 1289327
Ave neighs/atom = 65.6079
Neighbor list builds = 9505
Dangerous builds not checked
Setting up Verlet run ...
  Unit style    : metal
  Current step  : 180000
  Time step     : 0.001
Per MPI rank memory allocation (min/avg/max) = 11.35 | 11.35 | 11.35 Mbytes
Step Temp Press TotEng PotEng Enthalpy 
  180000    1748.2202   -953.88897   -78330.282    -82770.92   -78558.316 
  180495    1699.9974   -114.63842   -78595.375   -82913.523   -78622.655 
Loop time of 47.7309 on 2 procs for 495 steps with 19652 atoms

Performance: 0.896 ns/day, 26.785 hours/ns, 10.371 timesteps/s
90.0% CPU use with 2 MPI tasks x no OpenMP threads

MPI task timing breakdown:
Section |  min time  |  avg time  |  max time  |%varavg| %total
---------------------------------------------------------------
Pair    | 25.546     | 25.723     | 25.9       |   3.5 | 53.89
Neigh   | 17.394     | 17.45      | 17.507     |   1.4 | 36.56
Comm    | 2.9989     | 3.365      | 3.7311     |  20.0 |  7.05
Output  | 8.7023e-05 | 0.00012994 | 0.00017285 |   0.0 |  0.00
Modify  | 0.84071    | 1.0862     | 1.3316     |  23.6 |  2.28
Other   |            | 0.1065     |            |       |  0.22

Nlocal:    9826 ave 9831 max 9821 min
Histogram: 1 0 0 0 0 0 0 0 0 1
Nghost:    12147.5 ave 12149 max 12146 min
Histogram: 1 0 0 0 0 0 0 0 0 1
Neighs:    647552 ave 653239 max 641865 min
Histogram: 1 0 0 0 0 0 0 0 0 1

Total # of neighbors = 1295104
Ave neighs/atom = 65.9019
Neighbor list builds = 495
Dangerous builds not checked
Setting up Verlet run ...
  Unit style    : metal
  Current step  : 180495
  Time step     : 0.001
Per MPI rank memory allocation (min/avg/max) = 11.35 | 11.35 | 11.35 Mbytes
Step Temp Press TotEng PotEng Enthalpy 
  180495    1699.9974   -114.63842   -78595.375   -82913.523   -78622.655 
  190000    1709.5828    293.89798   -78580.507   -82923.003   -78510.534 
Loop time of 875.083 on 2 procs for 9505 steps with 19652 atoms

Performance: 0.938 ns/day, 25.574 hours/ns, 10.862 timesteps/s
96.8% CPU use with 2 MPI tasks x no OpenMP threads

MPI task timing breakdown:
Section |  min time  |  avg time  |  max time  |%varavg| %total
---------------------------------------------------------------
Pair    | 476.41     | 477.85     | 479.29     |   6.6 | 54.61
Neigh   | 350.26     | 351.65     | 353.04     |   7.4 | 40.18
Comm    | 32.011     | 34.836     | 37.661     |  47.9 |  3.98
Output  | 0.033064   | 0.033122   | 0.03318    |   0.0 |  0.00
Modify  | 8.6155     | 8.6169     | 8.6183     |   0.0 |  0.98
Other   |            | 2.1        |            |       |  0.24

Nlocal:    9826 ave 9842 max 9810 min
Histogram: 1 0 0 0 0 0 0 0 0 1
Nghost:    12161 ave 12165 max 12157 min
Histogram: 1 0 0 0 0 0 0 0 0 1
Neighs:    647232 ave 652673 max 641791 min
Histogram: 1 0 0 0 0 0 0 0 0 1

Total # of neighbors = 1294464
Ave neighs/atom = 65.8693
Neighbor list builds = 9505
Dangerous builds not checked
Setting up Verlet run ...
  Unit style    : metal
  Current step  : 190000
  Time step     : 0.001
Per MPI rank memory allocation (min/avg/max) = 11.35 | 11.35 | 11.35 Mbytes
Step Temp Press TotEng PotEng Enthalpy 
  190000    1709.5828    293.89798   -78580.507   -82923.003   -78510.534 
  190495    1651.4988     847.2916   -78830.543     -83025.5   -78629.522 
Loop time of 41.1844 on 2 procs for 495 steps with 19652 atoms

Performance: 1.038 ns/day, 23.111 hours/ns, 12.019 timesteps/s
100.0% CPU use with 2 MPI tasks x no OpenMP threads

MPI task timing breakdown:
Section |  min time  |  avg time  |  max time  |%varavg| %total
---------------------------------------------------------------
Pair    | 22.113     | 22.307     | 22.501     |   4.1 | 54.16
Neigh   | 17.167     | 17.302     | 17.436     |   3.2 | 42.01
Comm    | 1.0048     | 1.0629     | 1.121      |   5.6 |  2.58
Output  | 9.1076e-05 | 0.00017762 | 0.00026417 |   0.0 |  0.00
Modify  | 0.40556    | 0.40713    | 0.40871    |   0.2 |  0.99
Other   |            | 0.1058     |            |       |  0.26

Nlocal:    9826 ave 9830 max 9822 min
Histogram: 1 0 0 0 0 0 0 0 0 1
Nghost:    12147.5 ave 12168 max 12127 min
Histogram: 1 0 0 0 0 0 0 0 0 1
Neighs:    649754 ave 656094 max 643413 min
Histogram: 1 0 0 0 0 0 0 0 0 1

Total # of neighbors = 1299507
Ave neighs/atom = 66.1259
Neighbor list builds = 495
Dangerous builds not checked
Setting up Verlet run ...
  Unit style    : metal
  Current step  : 190495
  Time step     : 0.001
Per MPI rank memory allocation (min/avg/max) = 11.35 | 11.35 | 11.35 Mbytes
Step Temp Press TotEng PotEng Enthalpy 
  190495    1651.4988     847.2916   -78830.543     -83025.5   -78629.522 
  200000    1639.7818    311.55921   -78879.871   -83045.066   -78805.948 
Loop time of 871.765 on 2 procs for 9505 steps with 19652 atoms

Performance: 0.942 ns/day, 25.477 hours/ns, 10.903 timesteps/s
97.0% CPU use with 2 MPI tasks x no OpenMP threads

MPI task timing breakdown:
Section |  min time  |  avg time  |  max time  |%varavg| %total
---------------------------------------------------------------
Pair    | 470.84     | 473.52     | 476.2      |  12.3 | 54.32
Neigh   | 348.09     | 349.2      | 350.3      |   5.9 | 40.06
Comm    | 33.241     | 37.795     | 42.35      |  74.1 |  4.34
Output  | 0.035819   | 0.03584    | 0.035861   |   0.0 |  0.00
Modify  | 8.3643     | 9.1389     | 9.9134     |  25.6 |  1.05
Other   |            | 2.076      |            |       |  0.24

Nlocal:    9826 ave 9834 max 9818 min
Histogram: 1 0 0 0 0 0 0 0 0 1
Nghost:    12186 ave 12189 max 12183 min
Histogram: 1 0 0 0 0 0 0 0 0 1
Neighs:    649562 ave 655215 max 643908 min
Histogram: 1 0 0 0 0 0 0 0 0 1

Total # of neighbors = 1299123
Ave neighs/atom = 66.1064
Neighbor list builds = 9505
Dangerous builds not checked
Setting up Verlet run ...
  Unit style    : metal
  Current step  : 200000
  Time step     : 0.001
Per MPI rank memory allocation (min/avg/max) = 11.35 | 11.35 | 11.35 Mbytes
Step Temp Press TotEng PotEng Enthalpy 
  200000    1639.7818    311.55921   -78879.871   -83045.066   -78805.948 
  200495    1611.2259    414.75568   -79073.303   -83165.963   -78975.048 
Loop time of 44.0457 on 2 procs for 495 steps with 19652 atoms

Performance: 0.971 ns/day, 24.717 hours/ns, 11.238 timesteps/s
96.1% CPU use with 2 MPI tasks x no OpenMP threads

MPI task timing breakdown:
Section |  min time  |  avg time  |  max time  |%varavg| %total
---------------------------------------------------------------
Pair    | 24.496     | 24.618     | 24.74      |   2.5 | 55.89
Neigh   | 17.373     | 17.507     | 17.64      |   3.2 | 39.75
Comm    | 1.3786     | 1.3935     | 1.4083     |   1.3 |  3.16
Output  | 6.6996e-05 | 9.203e-05  | 0.00011706 |   0.0 |  0.00
Modify  | 0.4168     | 0.41959    | 0.42239    |   0.4 |  0.95
Other   |            | 0.1077     |            |       |  0.24

Nlocal:    9826 ave 9836 max 9816 min
Histogram: 1 0 0 0 0 0 0 0 0 1
Nghost:    12221 ave 12228 max 12214 min
Histogram: 1 0 0 0 0 0 0 0 0 1
Neighs:    650729 ave 658567 max 642891 min
Histogram: 1 0 0 0 0 0 0 0 0 1

Total # of neighbors = 1301458
Ave neighs/atom = 66.2252
Neighbor list builds = 495
Dangerous builds not checked
Setting up Verlet run ...
  Unit style    : metal
  Current step  : 200495
  Time step     : 0.001
Per MPI rank memory allocation (min/avg/max) = 11.35 | 11.35 | 11.35 Mbytes
Step Temp Press TotEng PotEng Enthalpy 
  200495    1611.2259    414.75568   -79073.303   -83165.963   -78975.048 
  210000    1603.2518    78.218843   -79127.595   -83200.001   -79109.068 
Loop time of 867.802 on 2 procs for 9505 steps with 19652 atoms

Performance: 0.946 ns/day, 25.361 hours/ns, 10.953 timesteps/s
98.3% CPU use with 2 MPI tasks x no OpenMP threads

MPI task timing breakdown:
Section |  min time  |  avg time  |  max time  |%varavg| %total
---------------------------------------------------------------
Pair    | 473.38     | 475.8      | 478.21     |  11.1 | 54.83
Neigh   | 350.27     | 353.56     | 356.85     |  17.5 | 40.74
Comm    | 22.386     | 28.14      | 33.893     | 108.5 |  3.24
Output  | 0.035441   | 0.035471   | 0.0355     |   0.0 |  0.00
Modify  | 8.1081     | 8.1544     | 8.2007     |   1.6 |  0.94
Other   |            | 2.114      |            |       |  0.24

Nlocal:    9826 ave 9840 max 9812 min
Histogram: 1 0 0 0 0 0 0 0 0 1
Nghost:    12229 ave 12231 max 12227 min
Histogram: 1 0 0 0 0 0 0 0 0 1
Neighs:    650334 ave 657815 max 642853 min
Histogram: 1 0 0 0 0 0 0 0 0 1

Total # of neighbors = 1300668
Ave neighs/atom = 66.185
Neighbor list builds = 9505
Dangerous builds not checked
Setting up Verlet run ...
  Unit style    : metal
  Current step  : 210000
  Time step     : 0.001
Per MPI rank memory allocation (min/avg/max) = 11.35 | 11.35 | 11.35 Mbytes
Step Temp Press TotEng PotEng Enthalpy 
  210000    1603.2518    78.218843   -79127.595   -83200.001   -79109.068 
  210495    1560.9043    404.84492   -79274.413   -83239.252   -79178.616 
Loop time of 43.0432 on 2 procs for 495 steps with 19652 atoms

Performance: 0.994 ns/day, 24.154 hours/ns, 11.500 timesteps/s
98.8% CPU use with 2 MPI tasks x no OpenMP threads

MPI task timing breakdown:
Section |  min time  |  avg time  |  max time  |%varavg| %total
---------------------------------------------------------------
Pair    | 23.542     | 23.553     | 23.565     |   0.2 | 54.72
Neigh   | 17.607     | 17.997     | 18.387     |   9.2 | 41.81
Comm    | 0.54781    | 0.96063    | 1.3734     |  42.1 |  2.23
Output  | 8.3923e-05 | 0.00020051 | 0.0003171  |   0.0 |  0.00
Modify  | 0.41276    | 0.42363    | 0.4345     |   1.7 |  0.98
Other   |            | 0.108      |            |       |  0.25

Nlocal:    9826 ave 9831 max 9821 min
Histogram: 1 0 0 0 0 0 0 0 0 1
Nghost:    12211 ave 12229 max 12193 min
Histogram: 1 0 0 0 0 0 0 0 0 1
Neighs:    651292 ave 658896 max 643687 min
Histogram: 1 0 0 0 0 0 0 0 0 1

Total # of neighbors = 1302583
Ave neighs/atom = 66.2825
Neighbor list builds = 495
Dangerous builds not checked
Setting up Verlet run ...
  Unit style    : metal
  Current step  : 210495
  Time step     : 0.001
Per MPI rank memory allocation (min/avg/max) = 11.35 | 11.35 | 11.35 Mbytes
Step Temp Press TotEng PotEng Enthalpy 
  210495    1560.9043    404.84492   -79274.413   -83239.252   -79178.616 
  220000     1549.043   -564.17854   -79407.306   -83342.017   -79540.883 
Loop time of 866.588 on 2 procs for 9505 steps with 19652 atoms

Performance: 0.948 ns/day, 25.325 hours/ns, 10.968 timesteps/s
96.7% CPU use with 2 MPI tasks x no OpenMP threads

MPI task timing breakdown:
Section |  min time  |  avg time  |  max time  |%varavg| %total
---------------------------------------------------------------
Pair    | 474.43     | 477.13     | 479.84     |  12.4 | 55.06
Neigh   | 348.67     | 349.5      | 350.33     |   4.5 | 40.33
Comm    | 26.272     | 29.845     | 33.417     |  65.4 |  3.44
Output  | 0.036341   | 0.036427   | 0.036512   |   0.0 |  0.00
Modify  | 7.9603     | 7.9908     | 8.0213     |   1.1 |  0.92
Other   |            | 2.086      |            |       |  0.24

Nlocal:    9826 ave 9849 max 9803 min
Histogram: 1 0 0 0 0 0 0 0 0 1
Nghost:    12201 ave 12214 max 12188 min
Histogram: 1 0 0 0 0 0 0 0 0 1
Neighs:    651290 ave 659491 max 643089 min
Histogram: 1 0 0 0 0 0 0 0 0 1

Total # of neighbors = 1302580
Ave neighs/atom = 66.2823
Neighbor list builds = 9505
Dangerous builds not checked
Setting up Verlet run ...
  Unit style    : metal
  Current step  : 220000
  Time step     : 0.001
Per MPI rank memory allocation (min/avg/max) = 11.35 | 11.35 | 11.35 Mbytes
Step Temp Press TotEng PotEng Enthalpy 
  220000     1549.043   -564.17854   -79407.306   -83342.017   -79540.883 
  220495    1504.0115    104.54126   -79554.693    -83375.02   -79530.007 
Loop time of 43.3318 on 2 procs for 495 steps with 19652 atoms

Performance: 0.987 ns/day, 24.316 hours/ns, 11.423 timesteps/s
97.2% CPU use with 2 MPI tasks x no OpenMP threads

MPI task timing breakdown:
Section |  min time  |  avg time  |  max time  |%varavg| %total
---------------------------------------------------------------
Pair    | 24.231     | 24.415     | 24.599     |   3.7 | 56.34
Neigh   | 17.552     | 17.553     | 17.555     |   0.0 | 40.51
Comm    | 0.67168    | 0.8534     | 1.0351     |  19.7 |  1.97
Output  | 8.893e-05  | 0.00011301 | 0.00013709 |   0.0 |  0.00
Modify  | 0.40331    | 0.4035     | 0.4037     |   0.0 |  0.93
Other   |            | 0.1061     |            |       |  0.24

Nlocal:    9826 ave 9858 max 9794 min
Histogram: 1 0 0 0 0 0 0 0 0 1
Nghost:    12209.5 ave 12247 max 12172 min
Histogram: 1 0 0 0 0 0 0 0 0 1
Neighs:    652796 ave 655865 max 649728 min
Histogram: 1 0 0 0 0 0 0 0 0 1

Total # of neighbors = 1305593
Ave neighs/atom = 66.4356
Neighbor list builds = 495
Dangerous builds not checked
Setting up Verlet run ...
  Unit style    : metal
  Current step  : 220495
  Time step     : 0.001
Per MPI rank memory allocation (min/avg/max) = 11.35 | 11.35 | 11.35 Mbytes
Step Temp Press TotEng PotEng Enthalpy 
  220495    1504.0115    104.54126   -79554.693    -83375.02   -79530.007 
  230000    1491.7092    422.96875   -79625.124   -83414.201   -79525.221 
Loop time of 864.692 on 2 procs for 9505 steps with 19652 atoms

Performance: 0.950 ns/day, 25.270 hours/ns, 10.992 timesteps/s
97.5% CPU use with 2 MPI tasks x no OpenMP threads

MPI task timing breakdown:
Section |  min time  |  avg time  |  max time  |%varavg| %total
---------------------------------------------------------------
Pair    | 478.67     | 479.31     | 479.95     |   2.9 | 55.43
Neigh   | 345.57     | 348.61     | 351.64     |  16.2 | 40.32
Comm    | 23.973     | 26.441     | 28.909     |  48.0 |  3.06
Output  | 0.036322   | 0.036396   | 0.03647    |   0.0 |  0.00
Modify  | 8.1051     | 8.1931     | 8.2812     |   3.1 |  0.95
Other   |            | 2.102      |            |       |  0.24

Nlocal:    9826 ave 9838 max 9814 min
Histogram: 1 0 0 0 0 0 0 0 0 1
Nghost:    12201 ave 12208 max 12194 min
Histogram: 1 0 0 0 0 0 0 0 0 1
Neighs:    652492 ave 659461 max 645522 min
Histogram: 1 0 0 0 0 0 0 0 0 1

Total # of neighbors = 1304983
Ave neighs/atom = 66.4046
Neighbor list builds = 9505
Dangerous builds not checked
Setting up Verlet run ...
  Unit style    : metal
  Current step  : 230000
  Time step     : 0.001
Per MPI rank memory allocation (min/avg/max) = 11.35 | 11.35 | 11.35 Mbytes
Step Temp Press TotEng PotEng Enthalpy 
  230000    1491.7092    422.96875   -79625.124   -83414.201   -79525.221 
  230495    1452.2999    324.83106   -79786.173   -83475.148   -79709.611 
Loop time of 44.5064 on 2 procs for 495 steps with 19652 atoms

Performance: 0.961 ns/day, 24.976 hours/ns, 11.122 timesteps/s
94.9% CPU use with 2 MPI tasks x no OpenMP threads

MPI task timing breakdown:
Section |  min time  |  avg time  |  max time  |%varavg| %total
---------------------------------------------------------------
Pair    | 24.551     | 24.723     | 24.896     |   3.5 | 55.55
Neigh   | 17.35      | 17.413     | 17.477     |   1.5 | 39.13
Comm    | 1.7417     | 1.8469     | 1.9521     |   7.7 |  4.15
Output  | 9.2983e-05 | 0.00013542 | 0.00017786 |   0.0 |  0.00
Modify  | 0.41204    | 0.41213    | 0.41222    |   0.0 |  0.93
Other   |            | 0.1107     |            |       |  0.25

Nlocal:    9826 ave 9827 max 9825 min
Histogram: 1 0 0 0 0 0 0 0 0 1
Nghost:    12208.5 ave 12229 max 12188 min
Histogram: 1 0 0 0 0 0 0 0 0 1
Neighs:    654310 ave 661386 max 647235 min
Histogram: 1 0 0 0 0 0 0 0 0 1

Total # of neighbors = 1308621
Ave neighs/atom = 66.5897
Neighbor list builds = 495
Dangerous builds not checked
Setting up Verlet run ...
  Unit style    : metal
  Current step  : 230495
  Time step     : 0.001
Per MPI rank memory allocation (min/avg/max) = 11.35 | 11.35 | 11.35 Mbytes
Step Temp Press TotEng PotEng Enthalpy 
  230495    1452.2999    324.83106   -79786.173   -83475.148   -79709.611 
  240000    1444.8442    670.62994   -79890.647   -83560.683   -79732.632 
Loop time of 864.623 on 2 procs for 9505 steps with 19652 atoms

Performance: 0.950 ns/day, 25.268 hours/ns, 10.993 timesteps/s
97.5% CPU use with 2 MPI tasks x no OpenMP threads

MPI task timing breakdown:
Section |  min time  |  avg time  |  max time  |%varavg| %total
---------------------------------------------------------------
Pair    | 473.08     | 474.71     | 476.34     |   7.5 | 54.90
Neigh   | 348.08     | 351.71     | 355.34     |  19.4 | 40.68
Comm    | 22.569     | 27.853     | 33.138     | 100.1 |  3.22
Output  | 0.035923   | 0.035995   | 0.036067   |   0.0 |  0.00
Modify  | 8.1883     | 8.2117     | 8.2351     |   0.8 |  0.95
Other   |            | 2.096      |            |       |  0.24

Nlocal:    9826 ave 9838 max 9814 min
Histogram: 1 0 0 0 0 0 0 0 0 1
Nghost:    12242.5 ave 12264 max 12221 min
Histogram: 1 0 0 0 0 0 0 0 0 1
Neighs:    654037 ave 660232 max 647842 min
Histogram: 1 0 0 0 0 0 0 0 0 1

Total # of neighbors = 1308074
Ave neighs/atom = 66.5619
Neighbor list builds = 9505
Dangerous builds not checked
Setting up Verlet run ...
  Unit style    : metal
  Current step  : 240000
  Time step     : 0.001
Per MPI rank memory allocation (min/avg/max) = 11.35 | 11.35 | 11.35 Mbytes
Step Temp Press TotEng PotEng Enthalpy 
  240000    1444.8442    670.62994   -79890.647   -83560.683   -79732.632 
  240495    1417.5288    258.58128   -80051.167   -83651.819   -79990.367 
Loop time of 48.81 on 2 procs for 495 steps with 19652 atoms

Performance: 0.876 ns/day, 27.391 hours/ns, 10.141 timesteps/s
91.3% CPU use with 2 MPI tasks x no OpenMP threads

MPI task timing breakdown:
Section |  min time  |  avg time  |  max time  |%varavg| %total
---------------------------------------------------------------
Pair    | 26.349     | 26.614     | 26.88      |   5.1 | 54.53
Neigh   | 18.781     | 18.909     | 19.037     |   2.9 | 38.74
Comm    | 2.1842     | 2.5849     | 2.9856     |  24.9 |  5.30
Output  | 9.203e-05  | 0.00012553 | 0.00015903 |   0.0 |  0.00
Modify  | 0.57736    | 0.5838     | 0.59025    |   0.8 |  1.20
Other   |            | 0.1178     |            |       |  0.24

Nlocal:    9826 ave 9829 max 9823 min
Histogram: 1 0 0 0 0 0 0 0 0 1
Nghost:    12193.5 ave 12219 max 12168 min
Histogram: 1 0 0 0 0 0 0 0 0 1
Neighs:    655628 ave 655634 max 655621 min
Histogram: 1 0 0 0 0 0 0 0 0 1

Total # of neighbors = 1311255
Ave neighs/atom = 66.7237
Neighbor list builds = 495
Dangerous builds not checked
Setting up Verlet run ...
  Unit style    : metal
  Current step  : 240495
  Time step     : 0.001
Per MPI rank memory allocation (min/avg/max) = 11.35 | 11.35 | 11.35 Mbytes
Step Temp Press TotEng PotEng Enthalpy 
  240495    1417.5288    258.58128   -80051.167   -83651.819   -79990.367 
  250000    1402.2614   -64.064273   -80125.268    -83687.14   -80140.345 
Loop time of 1164.08 on 2 procs for 9505 steps with 19652 atoms

Performance: 0.705 ns/day, 34.020 hours/ns, 8.165 timesteps/s
82.0% CPU use with 2 MPI tasks x no OpenMP threads

MPI task timing breakdown:
Section |  min time  |  avg time  |  max time  |%varavg| %total
---------------------------------------------------------------
Pair    | 638.84     | 640.79     | 642.74     |   7.7 | 55.05
Neigh   | 436.58     | 436.69     | 436.8      |   0.5 | 37.51
Comm    | 70.07      | 72.054     | 74.038     |  23.4 |  6.19
Output  | 0.035872   | 0.035893   | 0.035915   |   0.0 |  0.00
Modify  | 11.943     | 12.048     | 12.153     |   3.0 |  1.04
Other   |            | 2.47       |            |       |  0.21

Nlocal:    9826 ave 9841 max 9811 min
Histogram: 1 0 0 0 0 0 0 0 0 1
Nghost:    12192.5 ave 12227 max 12158 min
Histogram: 1 0 0 0 0 0 0 0 0 1
Neighs:    655176 ave 656048 max 654303 min
Histogram: 1 0 0 0 0 0 0 0 0 1

Total # of neighbors = 1310351
Ave neighs/atom = 66.6777
Neighbor list builds = 9505
Dangerous builds not checked
Setting up Verlet run ...
  Unit style    : metal
  Current step  : 250000
  Time step     : 0.001
Per MPI rank memory allocation (min/avg/max) = 11.35 | 11.35 | 11.35 Mbytes
Step Temp Press TotEng PotEng Enthalpy 
  250000    1402.2614   -64.064273   -80125.268    -83687.14   -80140.345 
  250495    1358.5909    69.780755   -80316.802   -83767.747   -80300.396 
Loop time of 60.8665 on 2 procs for 495 steps with 19652 atoms

Performance: 0.703 ns/day, 34.156 hours/ns, 8.133 timesteps/s
79.2% CPU use with 2 MPI tasks x no OpenMP threads

MPI task timing breakdown:
Section |  min time  |  avg time  |  max time  |%varavg| %total
---------------------------------------------------------------
Pair    | 32.627     | 32.758     | 32.89      |   2.3 | 53.82
Neigh   | 23.529     | 23.787     | 24.044     |   5.3 | 39.08
Comm    | 3.4434     | 3.5772     | 3.711      |   7.1 |  5.88
Output  | 8.1062e-05 | 0.00012505 | 0.00016904 |   0.0 |  0.00
Modify  | 0.5949     | 0.59805    | 0.6012     |   0.4 |  0.98
Other   |            | 0.1463     |            |       |  0.24

Nlocal:    9826 ave 9848 max 9804 min
Histogram: 1 0 0 0 0 0 0 0 0 1
Nghost:    12246 ave 12282 max 12210 min
Histogram: 1 0 0 0 0 0 0 0 0 1
Neighs:    655560 ave 658094 max 653026 min
Histogram: 1 0 0 0 0 0 0 0 0 1

Total # of neighbors = 1311120
Ave neighs/atom = 66.7169
Neighbor list builds = 495
Dangerous builds not checked
Setting up Verlet run ...
  Unit style    : metal
  Current step  : 250495
  Time step     : 0.001
Per MPI rank memory allocation (min/avg/max) = 11.35 | 11.35 | 11.35 Mbytes
Step Temp Press TotEng PotEng Enthalpy 
  250495    1358.5909    69.780755   -80316.802   -83767.747   -80300.396 
  260000    1337.5363   -338.94301    -80433.34   -83830.804   -80512.998 
Loop time of 1172.63 on 2 procs for 9505 steps with 19652 atoms

Performance: 0.700 ns/day, 34.270 hours/ns, 8.106 timesteps/s
81.6% CPU use with 2 MPI tasks x no OpenMP threads

MPI task timing breakdown:
Section |  min time  |  avg time  |  max time  |%varavg| %total
---------------------------------------------------------------
Pair    | 629.2      | 630.65     | 632.09     |   5.7 | 53.78
Neigh   | 453.08     | 454.3      | 455.51     |   5.7 | 38.74
Comm    | 70.729     | 73.316     | 75.903     |  30.2 |  6.25
Output  | 0.06797    | 0.068002   | 0.068034   |   0.0 |  0.01
Modify  | 11.752     | 11.777     | 11.803     |   0.7 |  1.00
Other   |            | 2.531      |            |       |  0.22

Nlocal:    9826 ave 9832 max 9820 min
Histogram: 1 0 0 0 0 0 0 0 0 1
Nghost:    12255 ave 12284 max 12226 min
Histogram: 1 0 0 0 0 0 0 0 0 1
Neighs:    656006 ave 656611 max 655402 min
Histogram: 1 0 0 0 0 0 0 0 0 1

Total # of neighbors = 1312013
Ave neighs/atom = 66.7623
Neighbor list builds = 9505
Dangerous builds not checked
Setting up Verlet run ...
  Unit style    : metal
  Current step  : 260000
  Time step     : 0.001
Per MPI rank memory allocation (min/avg/max) = 11.35 | 11.35 | 11.35 Mbytes
Step Temp Press TotEng PotEng Enthalpy 
  260000    1337.5363   -338.94301    -80433.34   -83830.804   -80512.998 
  260495    1313.6052    105.99172   -80529.507   -83866.184   -80504.642 
Loop time of 60.5518 on 2 procs for 495 steps with 19652 atoms

Performance: 0.706 ns/day, 33.980 hours/ns, 8.175 timesteps/s
81.2% CPU use with 2 MPI tasks x no OpenMP threads

MPI task timing breakdown:
Section |  min time  |  avg time  |  max time  |%varavg| %total
---------------------------------------------------------------
Pair    | 31.871     | 32.33      | 32.788     |   8.1 | 53.39
Neigh   | 23.209     | 23.7       | 24.191     |  10.1 | 39.14
Comm    | 3.6647     | 3.7234     | 3.782      |   3.0 |  6.15
Output  | 9.7036e-05 | 0.00013947 | 0.00018191 |   0.0 |  0.00
Modify  | 0.63906    | 0.65951    | 0.67996    |   2.5 |  1.09
Other   |            | 0.139      |            |       |  0.23

Nlocal:    9826 ave 9827 max 9825 min
Histogram: 1 0 0 0 0 0 0 0 0 1
Nghost:    12282 ave 12331 max 12233 min
Histogram: 1 0 0 0 0 0 0 0 0 1
Neighs:    657188 ave 658402 max 655973 min
Histogram: 1 0 0 0 0 0 0 0 0 1

Total # of neighbors = 1314375
Ave neighs/atom = 66.8825
Neighbor list builds = 495
Dangerous builds not checked
Setting up Verlet run ...
  Unit style    : metal
  Current step  : 260495
  Time step     : 0.001
Per MPI rank memory allocation (min/avg/max) = 11.35 | 11.35 | 11.35 Mbytes
Step Temp Press TotEng PotEng Enthalpy 
  260495    1313.6052    105.99172   -80529.507   -83866.184   -80504.642 
  270000    1309.8652   -563.54633   -80615.864   -83943.041   -80748.301 
Loop time of 1052.4 on 2 procs for 9505 steps with 19652 atoms

Performance: 0.780 ns/day, 30.756 hours/ns, 9.032 timesteps/s
87.7% CPU use with 2 MPI tasks x no OpenMP threads

MPI task timing breakdown:
Section |  min time  |  avg time  |  max time  |%varavg| %total
---------------------------------------------------------------
Pair    | 562        | 564.19     | 566.37     |   9.2 | 53.61
Neigh   | 419.77     | 420.68     | 421.59     |   4.4 | 39.97
Comm    | 53.566     | 54.847     | 56.128     |  17.3 |  5.21
Output  | 0.064988   | 0.065013   | 0.065039   |   0.0 |  0.01
Modify  | 10.223     | 10.247     | 10.27      |   0.7 |  0.97
Other   |            | 2.378      |            |       |  0.23

Nlocal:    9826 ave 9848 max 9804 min
Histogram: 1 0 0 0 0 0 0 0 0 1
Nghost:    12183.5 ave 12210 max 12157 min
Histogram: 1 0 0 0 0 0 0 0 0 1
Neighs:    656024 ave 656820 max 655229 min
Histogram: 1 0 0 0 0 0 0 0 0 1

Total # of neighbors = 1312049
Ave neighs/atom = 66.7641
Neighbor list builds = 9505
Dangerous builds not checked
Setting up Verlet run ...
  Unit style    : metal
  Current step  : 270000
  Time step     : 0.001
Per MPI rank memory allocation (min/avg/max) = 11.35 | 11.35 | 11.35 Mbytes
Step Temp Press TotEng PotEng Enthalpy 
  270000    1309.8652   -563.54633   -80615.864   -83943.041   -80748.301 
  270495      1267.49    492.66334   -80821.976   -84041.516   -80706.548 
Loop time of 52.6576 on 2 procs for 495 steps with 19652 atoms

Performance: 0.812 ns/day, 29.550 hours/ns, 9.400 timesteps/s
87.7% CPU use with 2 MPI tasks x no OpenMP threads

MPI task timing breakdown:
Section |  min time  |  avg time  |  max time  |%varavg| %total
---------------------------------------------------------------
Pair    | 27.651     | 28.047     | 28.442     |   7.5 | 53.26
Neigh   | 20.914     | 21.182     | 21.45      |   5.8 | 40.23
Comm    | 2.6806     | 2.8077     | 2.9349     |   7.6 |  5.33
Output  | 9.1076e-05 | 0.00012457 | 0.00015807 |   0.0 |  0.00
Modify  | 0.495      | 0.50009    | 0.50519    |   0.7 |  0.95
Other   |            | 0.1206     |            |       |  0.23

Nlocal:    9826 ave 9846 max 9806 min
Histogram: 1 0 0 0 0 0 0 0 0 1
Nghost:    12238.5 ave 12240 max 12237 min
Histogram: 1 0 0 0 0 0 0 0 0 1
Neighs:    658298 ave 660080 max 656515 min
Histogram: 1 0 0 0 0 0 0 0 0 1

Total # of neighbors = 1316595
Ave neighs/atom = 66.9955
Neighbor list builds = 495
Dangerous builds not checked
Setting up Verlet run ...
  Unit style    : metal
  Current step  : 270495
  Time step     : 0.001
Per MPI rank memory allocation (min/avg/max) = 11.35 | 11.35 | 11.35 Mbytes
Step Temp Press TotEng PotEng Enthalpy 
  270495      1267.49    492.66334   -80821.976   -84041.516   -80706.548 
  280000    1245.9466   -54.271992   -80934.507   -84099.325   -80947.216 
Loop time of 986.112 on 2 procs for 9505 steps with 19652 atoms

Performance: 0.833 ns/day, 28.819 hours/ns, 9.639 timesteps/s
90.9% CPU use with 2 MPI tasks x no OpenMP threads

MPI task timing breakdown:
Section |  min time  |  avg time  |  max time  |%varavg| %total
---------------------------------------------------------------
Pair    | 527.1      | 527.19     | 527.28     |   0.4 | 53.46
Neigh   | 403.17     | 404.79     | 406.41     |   8.1 | 41.05
Comm    | 41.027     | 42.506     | 43.984     |  22.7 |  4.31
Output  | 0.035322   | 0.035343   | 0.035365   |   0.0 |  0.00
Modify  | 9.3069     | 9.3374     | 9.368      |   1.0 |  0.95
Other   |            | 2.248      |            |       |  0.23

Nlocal:    9826 ave 9826 max 9826 min
Histogram: 2 0 0 0 0 0 0 0 0 0
Nghost:    12249 ave 12260 max 12238 min
Histogram: 1 0 0 0 0 0 0 0 0 1
Neighs:    658271 ave 658435 max 658107 min
Histogram: 1 0 0 0 0 0 0 0 0 1

Total # of neighbors = 1316542
Ave neighs/atom = 66.9928
Neighbor list builds = 9505
Dangerous builds not checked
Setting up Verlet run ...
  Unit style    : metal
  Current step  : 280000
  Time step     : 0.001
Per MPI rank memory allocation (min/avg/max) = 11.35 | 11.35 | 11.35 Mbytes
Step Temp Press TotEng PotEng Enthalpy 
  280000    1245.9466   -54.271992   -80934.507   -84099.325   -80947.216 
  280495    1209.6312    516.08149   -81123.338   -84195.912   -81002.602 
Loop time of 43.2104 on 2 procs for 495 steps with 19652 atoms

Performance: 0.990 ns/day, 24.248 hours/ns, 11.456 timesteps/s
97.9% CPU use with 2 MPI tasks x no OpenMP threads

MPI task timing breakdown:
Section |  min time  |  avg time  |  max time  |%varavg| %total
---------------------------------------------------------------
Pair    | 22.852     | 22.857     | 22.862     |   0.1 | 52.90
Neigh   | 18.479     | 18.528     | 18.576     |   1.1 | 42.88
Comm    | 1.275      | 1.323      | 1.3709     |   4.2 |  3.06
Output  | 8.3923e-05 | 0.00012541 | 0.00016689 |   0.0 |  0.00
Modify  | 0.39362    | 0.39818    | 0.40274    |   0.7 |  0.92
Other   |            | 0.1043     |            |       |  0.24

Nlocal:    9826 ave 9835 max 9817 min
Histogram: 1 0 0 0 0 0 0 0 0 1
Nghost:    12266 ave 12268 max 12264 min
Histogram: 1 0 0 0 0 0 0 0 0 1
Neighs:    658994 ave 660267 max 657720 min
Histogram: 1 0 0 0 0 0 0 0 0 1

Total # of neighbors = 1317987
Ave neighs/atom = 67.0663
Neighbor list builds = 495
Dangerous builds not checked
Setting up Verlet run ...
  Unit style    : metal
  Current step  : 280495
  Time step     : 0.001
Per MPI rank memory allocation (min/avg/max) = 11.35 | 11.35 | 11.35 Mbytes
Step Temp Press TotEng PotEng Enthalpy 
  280495    1209.6312    516.08149   -81123.338   -84195.912   -81002.602 
  290000     1197.592    834.56799   -81176.805   -84218.798   -80981.624 
Loop time of 884.277 on 2 procs for 9505 steps with 19652 atoms

Performance: 0.929 ns/day, 25.842 hours/ns, 10.749 timesteps/s
96.5% CPU use with 2 MPI tasks x no OpenMP threads

MPI task timing breakdown:
Section |  min time  |  avg time  |  max time  |%varavg| %total
---------------------------------------------------------------
Pair    | 463.4      | 464.28     | 465.17     |   4.1 | 52.50
Neigh   | 372.75     | 372.88     | 373.02     |   0.7 | 42.17
Comm    | 33.949     | 34.938     | 35.928     |  16.7 |  3.95
Output  | 0.035926   | 0.035956   | 0.035987   |   0.0 |  0.00
Modify  | 10.054     | 10.093     | 10.132     |   1.2 |  1.14
Other   |            | 2.042      |            |       |  0.23

Nlocal:    9826 ave 9836 max 9816 min
Histogram: 1 0 0 0 0 0 0 0 0 1
Nghost:    12260.5 ave 12270 max 12251 min
Histogram: 1 0 0 0 0 0 0 0 0 1
Neighs:    659280 ave 659361 max 659199 min
Histogram: 1 0 0 0 0 0 0 0 0 1

Total # of neighbors = 1318560
Ave neighs/atom = 67.0955
Neighbor list builds = 9505
Dangerous builds not checked
Setting up Verlet run ...
  Unit style    : metal
  Current step  : 290000
  Time step     : 0.001
Per MPI rank memory allocation (min/avg/max) = 11.35 | 11.35 | 11.35 Mbytes
Step Temp Press TotEng PotEng Enthalpy 
  290000     1197.592    834.56799   -81176.805   -84218.798   -80981.624 
  290495    1171.0116    723.10993   -81387.292   -84361.768   -81218.533 
Loop time of 44.5864 on 2 procs for 495 steps with 19652 atoms

Performance: 0.959 ns/day, 25.020 hours/ns, 11.102 timesteps/s
95.8% CPU use with 2 MPI tasks x no OpenMP threads

MPI task timing breakdown:
Section |  min time  |  avg time  |  max time  |%varavg| %total
---------------------------------------------------------------
Pair    | 24.45      | 24.472     | 24.494     |   0.4 | 54.89
Neigh   | 18.593     | 18.668     | 18.743     |   1.7 | 41.87
Comm    | 0.84279    | 0.94044    | 1.0381     |  10.1 |  2.11
Output  | 8.2016e-05 | 0.00017107 | 0.00026011 |   0.0 |  0.00
Modify  | 0.39995    | 0.40145    | 0.40294    |   0.2 |  0.90
Other   |            | 0.1048     |            |       |  0.24

Nlocal:    9826 ave 9828 max 9824 min
Histogram: 1 0 0 0 0 0 0 0 0 1
Nghost:    12283 ave 12299 max 12267 min
Histogram: 1 0 0 0 0 0 0 0 0 1
Neighs:    660718 ave 660826 max 660611 min
Histogram: 1 0 0 0 0 0 0 0 0 1

Total # of neighbors = 1321437
Ave neighs/atom = 67.2419
Neighbor list builds = 495
Dangerous builds not checked
Setting up Verlet run ...
  Unit style    : metal
  Current step  : 290495
  Time step     : 0.001
Per MPI rank memory allocation (min/avg/max) = 11.35 | 11.35 | 11.35 Mbytes
Step Temp Press TotEng PotEng Enthalpy 
  290495    1171.0116    723.10993   -81387.292   -84361.768   -81218.533 
  300000    1145.0039   -348.50399   -81518.041   -84426.455   -81599.435 
Loop time of 862.308 on 2 procs for 9505 steps with 19652 atoms

Performance: 0.952 ns/day, 25.200 hours/ns, 11.023 timesteps/s
98.1% CPU use with 2 MPI tasks x no OpenMP threads

MPI task timing breakdown:
Section |  min time  |  avg time  |  max time  |%varavg| %total
---------------------------------------------------------------
Pair    | 453.32     | 453.77     | 454.23     |   2.1 | 52.62
Neigh   | 373.32     | 374.28     | 375.25     |   5.0 | 43.41
Comm    | 23.259     | 23.614     | 23.969     |   7.3 |  2.74
Output  | 0.035022   | 0.035091   | 0.03516    |   0.0 |  0.00
Modify  | 8.3879     | 8.5559     | 8.7239     |   5.7 |  0.99
Other   |            | 2.044      |            |       |  0.24

Nlocal:    9826 ave 9836 max 9816 min
Histogram: 1 0 0 0 0 0 0 0 0 1
Nghost:    12273.5 ave 12289 max 12258 min
Histogram: 1 0 0 0 0 0 0 0 0 1
Neighs:    660314 ave 660788 max 659840 min
Histogram: 1 0 0 0 0 0 0 0 0 1

Total # of neighbors = 1320628
Ave neighs/atom = 67.2007
Neighbor list builds = 9505
Dangerous builds not checked
Setting up Verlet run ...
  Unit style    : metal
  Current step  : 300000
  Time step     : 0.001
Per MPI rank memory allocation (min/avg/max) = 11.35 | 11.35 | 11.35 Mbytes
Step Temp Press TotEng PotEng Enthalpy 
[...]
Histogram: 1 0 0 0 0 0 0 0 0 1
Neighs:    668617 ave 669366 max 667868 min
Histogram: 1 0 0 0 0 0 0 0 0 1

Total # of neighbors = 1337234
Ave neighs/atom = 68.0457
Neighbor list builds = 9505
Dangerous builds not checked
Setting up Verlet run ...
  Unit style    : metal
  Current step  : 440000
  Time step     : 0.001
Per MPI rank memory allocation (min/avg/max) = 11.35 | 11.35 | 11.35 Mbytes
Step Temp Press TotEng PotEng Enthalpy 
  440000    447.22505   -538.24372   -86681.214   -87817.207   -86805.441 
  440495    426.56231   -51.848708   -86833.232   -87916.739   -86845.182 
Loop time of 38.7352 on 2 procs for 495 steps with 19652 atoms

Performance: 1.104 ns/day, 21.737 hours/ns, 12.779 timesteps/s
97.8% CPU use with 2 MPI tasks x no OpenMP threads

MPI task timing breakdown:
Section |  min time  |  avg time  |  max time  |%varavg| %total
---------------------------------------------------------------
Pair    | 20.014     | 20.036     | 20.058     |   0.5 | 51.72
Neigh   | 16.904     | 16.934     | 16.964     |   0.7 | 43.72
Comm    | 1.2407     | 1.2923     | 1.3438     |   4.5 |  3.34
Output  | 7.8917e-05 | 0.00011039 | 0.00014186 |   0.0 |  0.00
Modify  | 0.37222    | 0.37244    | 0.37265    |   0.0 |  0.96
Other   |            | 0.1005     |            |       |  0.26

Nlocal:    9826 ave 9835 max 9817 min
Histogram: 1 0 0 0 0 0 0 0 0 1
Nghost:    12357 ave 12367 max 12347 min
Histogram: 1 0 0 0 0 0 0 0 0 1
Neighs:    669426 ave 670546 max 668307 min
Histogram: 1 0 0 0 0 0 0 0 0 1

Total # of neighbors = 1338853
Ave neighs/atom = 68.1281
Neighbor list builds = 495
Dangerous builds not checked
Setting up Verlet run ...
  Unit style    : metal
  Current step  : 440495
  Time step     : 0.001
Per MPI rank memory allocation (min/avg/max) = 11.35 | 11.35 | 11.35 Mbytes
Step Temp Press TotEng PotEng Enthalpy 
  440495    426.56231   -51.848708   -86833.232   -87916.739   -86845.182 
  450000    396.20065   -378.99217   -87057.069   -88063.455   -87144.474 
Loop time of 767.269 on 2 procs for 9505 steps with 19652 atoms

Performance: 1.070 ns/day, 22.423 hours/ns, 12.388 timesteps/s
97.6% CPU use with 2 MPI tasks x no OpenMP threads

MPI task timing breakdown:
Section |  min time  |  avg time  |  max time  |%varavg| %total
---------------------------------------------------------------
Pair    | 402.71     | 402.79     | 402.87     |   0.4 | 52.50
Neigh   | 334.2      | 334.36     | 334.51     |   0.8 | 43.58
Comm    | 20.309     | 20.542     | 20.776     |   5.2 |  2.68
Output  | 0.035307   | 0.035329   | 0.035351   |   0.0 |  0.00
Modify  | 7.5533     | 7.5587     | 7.5641     |   0.2 |  0.99
Other   |            | 1.989      |            |       |  0.26

Nlocal:    9826 ave 9836 max 9816 min
Histogram: 1 0 0 0 0 0 0 0 0 1
Nghost:    12305 ave 12310 max 12300 min
Histogram: 1 0 0 0 0 0 0 0 0 1
Neighs:    668894 ave 669429 max 668359 min
Histogram: 1 0 0 0 0 0 0 0 0 1

Total # of neighbors = 1337788
Ave neighs/atom = 68.0739
Neighbor list builds = 9505
Dangerous builds not checked
Setting up Verlet run ...
  Unit style    : metal
  Current step  : 450000
  Time step     : 0.001
Per MPI rank memory allocation (min/avg/max) = 11.35 | 11.35 | 11.35 Mbytes
Step Temp Press TotEng PotEng Enthalpy 
  450000    396.20065   -378.99217   -87057.069   -88063.455   -87144.474 
  450495    373.32894   -47.562134   -87203.483   -88151.772   -87214.434 
Loop time of 39.8506 on 2 procs for 495 steps with 19652 atoms

Performance: 1.073 ns/day, 22.363 hours/ns, 12.421 timesteps/s
98.0% CPU use with 2 MPI tasks x no OpenMP threads

MPI task timing breakdown:
Section |  min time  |  avg time  |  max time  |%varavg| %total
---------------------------------------------------------------
Pair    | 20.336     | 20.606     | 20.875     |   5.9 | 51.71
Neigh   | 17.059     | 17.401     | 17.743     |   8.2 | 43.67
Comm    | 1.2516     | 1.3375     | 1.4235     |   7.4 |  3.36
Output  | 0.00010204 | 0.00012505 | 0.00014806 |   0.0 |  0.00
Modify  | 0.3898     | 0.40232    | 0.41484    |   2.0 |  1.01
Other   |            | 0.1035     |            |       |  0.26

Nlocal:    9826 ave 9830 max 9822 min
Histogram: 1 0 0 0 0 0 0 0 0 1
Nghost:    12339 ave 12368 max 12310 min
Histogram: 1 0 0 0 0 0 0 0 0 1
Neighs:    669897 ave 670448 max 669346 min
Histogram: 1 0 0 0 0 0 0 0 0 1

Total # of neighbors = 1339794
Ave neighs/atom = 68.176
Neighbor list builds = 495
Dangerous builds not checked
Setting up Verlet run ...
  Unit style    : metal
  Current step  : 450495
  Time step     : 0.001
Per MPI rank memory allocation (min/avg/max) = 11.35 | 11.35 | 11.35 Mbytes
Step Temp Press TotEng PotEng Enthalpy 
  450495    373.32894   -47.562134   -87203.483   -88151.772   -87214.434 
  460000     348.5561    58.094342   -87385.231   -88270.595   -87371.861 
Loop time of 755.607 on 2 procs for 9505 steps with 19652 atoms

Performance: 1.087 ns/day, 22.082 hours/ns, 12.579 timesteps/s
98.3% CPU use with 2 MPI tasks x no OpenMP threads

MPI task timing breakdown:
Section |  min time  |  avg time  |  max time  |%varavg| %total
---------------------------------------------------------------
Pair    | 392.9      | 393.26     | 393.61     |   1.8 | 52.05
Neigh   | 331.47     | 331.77     | 332.07     |   1.6 | 43.91
Comm    | 20.69      | 20.748     | 20.807     |   1.3 |  2.75
Output  | 0.10458    | 0.10617    | 0.10777    |   0.5 |  0.01
Modify  | 7.7041     | 7.7085     | 7.7129     |   0.2 |  1.02
Other   |            | 2.017      |            |       |  0.27

Nlocal:    9826 ave 9840 max 9812 min
Histogram: 1 0 0 0 0 0 0 0 0 1
Nghost:    12336.5 ave 12341 max 12332 min
Histogram: 1 0 0 0 0 0 0 0 0 1
Neighs:    670174 ave 671358 max 668989 min
Histogram: 1 0 0 0 0 0 0 0 0 1

Total # of neighbors = 1340347
Ave neighs/atom = 68.2041
Neighbor list builds = 9505
Dangerous builds not checked
Setting up Verlet run ...
  Unit style    : metal
  Current step  : 460000
  Time step     : 0.001
Per MPI rank memory allocation (min/avg/max) = 11.35 | 11.35 | 11.35 Mbytes
Step Temp Press TotEng PotEng Enthalpy 
  460000     348.5561    58.094342   -87385.231   -88270.595   -87371.861 
  460495     322.7759   -49.005933   -87533.284   -88353.164   -87544.555 
Loop time of 39.3608 on 2 procs for 495 steps with 19652 atoms

Performance: 1.087 ns/day, 22.088 hours/ns, 12.576 timesteps/s
97.2% CPU use with 2 MPI tasks x no OpenMP threads

MPI task timing breakdown:
Section |  min time  |  avg time  |  max time  |%varavg| %total
---------------------------------------------------------------
Pair    | 20.416     | 20.636     | 20.856     |   4.8 | 52.43
Neigh   | 16.819     | 17.046     | 17.274     |   5.5 | 43.31
Comm    | 1.1637     | 1.1812     | 1.1986     |   1.6 |  3.00
Output  | 7.987e-05  | 0.00017536 | 0.00027084 |   0.0 |  0.00
Modify  | 0.38644    | 0.39531    | 0.40418    |   1.4 |  1.00
Other   |            | 0.1022     |            |       |  0.26

Nlocal:    9826 ave 9841 max 9811 min
Histogram: 1 0 0 0 0 0 0 0 0 1
Nghost:    12335 ave 12347 max 12323 min
Histogram: 1 0 0 0 0 0 0 0 0 1
Neighs:    670655 ave 671949 max 669361 min
Histogram: 1 0 0 0 0 0 0 0 0 1

Total # of neighbors = 1341310
Ave neighs/atom = 68.2531
Neighbor list builds = 495
Dangerous builds not checked
Setting up Verlet run ...
  Unit style    : metal
  Current step  : 460495
  Time step     : 0.001
Per MPI rank memory allocation (min/avg/max) = 11.35 | 11.35 | 11.35 Mbytes
Step Temp Press TotEng PotEng Enthalpy 
  460495     322.7759   -49.005933   -87533.284   -88353.164   -87544.555 
  470000    300.11453    180.40284   -87686.038   -88448.356    -87644.57 
Loop time of 767.647 on 2 procs for 9505 steps with 19652 atoms

Performance: 1.070 ns/day, 22.434 hours/ns, 12.382 timesteps/s
96.6% CPU use with 2 MPI tasks x no OpenMP threads

MPI task timing breakdown:
Section |  min time  |  avg time  |  max time  |%varavg| %total
---------------------------------------------------------------
Pair    | 402.63     | 403.91     | 405.18     |   6.3 | 52.62
Neigh   | 328.23     | 330.5      | 332.76     |  12.5 | 43.05
Comm    | 22.507     | 23.553     | 24.599     |  21.6 |  3.07
Output  | 0.03565    | 0.03572    | 0.035791   |   0.0 |  0.00
Modify  | 7.5887     | 7.6517     | 7.7148     |   2.3 |  1.00
Other   |            | 2.002      |            |       |  0.26

Nlocal:    9826 ave 9834 max 9818 min
Histogram: 1 0 0 0 0 0 0 0 0 1
Nghost:    12372.5 ave 12376 max 12369 min
Histogram: 1 0 0 0 0 0 0 0 0 1
Neighs:    670656 ave 671314 max 669999 min
Histogram: 1 0 0 0 0 0 0 0 0 1

Total # of neighbors = 1341313
Ave neighs/atom = 68.2533
Neighbor list builds = 9505
Dangerous builds not checked
Setting up Verlet run ...
  Unit style    : metal
  Current step  : 470000
  Time step     : 0.001
Per MPI rank memory allocation (min/avg/max) = 11.35 | 11.35 | 11.35 Mbytes
Step Temp Press TotEng PotEng Enthalpy 
  470000    300.11453    180.40284   -87686.038   -88448.356    -87644.57 
  470495    275.06081   -179.71213   -87834.191    -88532.87    -87875.46 
Loop time of 39.0968 on 2 procs for 495 steps with 19652 atoms

Performance: 1.094 ns/day, 21.940 hours/ns, 12.661 timesteps/s
98.6% CPU use with 2 MPI tasks x no OpenMP threads

MPI task timing breakdown:
Section |  min time  |  avg time  |  max time  |%varavg| %total
---------------------------------------------------------------
Pair    | 20.006     | 20.084     | 20.163     |   1.7 | 51.37
Neigh   | 17.007     | 17.143     | 17.279     |   3.3 | 43.85
Comm    | 1.3087     | 1.3699     | 1.4311     |   5.2 |  3.50
Output  | 8.7976e-05 | 0.00011945 | 0.00015092 |   0.0 |  0.00
Modify  | 0.39283    | 0.3962     | 0.39958    |   0.5 |  1.01
Other   |            | 0.1033     |            |       |  0.26

Nlocal:    9826 ave 9830 max 9822 min
Histogram: 1 0 0 0 0 0 0 0 0 1
Nghost:    12354.5 ave 12362 max 12347 min
Histogram: 1 0 0 0 0 0 0 0 0 1
Neighs:    671226 ave 671485 max 670967 min
Histogram: 1 0 0 0 0 0 0 0 0 1

Total # of neighbors = 1342452
Ave neighs/atom = 68.3112
Neighbor list builds = 495
Dangerous builds not checked
Setting up Verlet run ...
  Unit style    : metal
  Current step  : 470495
  Time step     : 0.001
Per MPI rank memory allocation (min/avg/max) = 11.35 | 11.35 | 11.35 Mbytes
Step Temp Press TotEng PotEng Enthalpy 
  470495    275.06081   -179.71213   -87834.191    -88532.87    -87875.46 
  480000    252.06493   -55.472153   -87977.337   -88617.605   -87990.072 
Loop time of 755.42 on 2 procs for 9505 steps with 19652 atoms

Performance: 1.087 ns/day, 22.077 hours/ns, 12.582 timesteps/s
97.0% CPU use with 2 MPI tasks x no OpenMP threads

MPI task timing breakdown:
Section |  min time  |  avg time  |  max time  |%varavg| %total
---------------------------------------------------------------
Pair    | 393.87     | 394.1      | 394.33     |   1.2 | 52.17
Neigh   | 325.51     | 326.12     | 326.73     |   3.4 | 43.17
Comm    | 25.239     | 25.611     | 25.984     |   7.4 |  3.39
Output  | 0.035455   | 0.03548    | 0.035506   |   0.0 |  0.00
Modify  | 7.5727     | 7.5734     | 7.5741     |   0.0 |  1.00
Other   |            | 1.978      |            |       |  0.26

Nlocal:    9826 ave 9827 max 9825 min
Histogram: 1 0 0 0 0 0 0 0 0 1
Nghost:    12355 ave 12359 max 12351 min
Histogram: 1 0 0 0 0 0 0 0 0 1
Neighs:    671461 ave 671607 max 671315 min
Histogram: 1 0 0 0 0 0 0 0 0 1

Total # of neighbors = 1342922
Ave neighs/atom = 68.3351
Neighbor list builds = 9505
Dangerous builds not checked
Setting up Verlet run ...
  Unit style    : metal
  Current step  : 480000
  Time step     : 0.001
Per MPI rank memory allocation (min/avg/max) = 11.35 | 11.35 | 11.35 Mbytes
Step Temp Press TotEng PotEng Enthalpy 
  480000    252.06493   -55.472153   -87977.337   -88617.605   -87990.072 
  480495    224.38427    209.55321   -88120.711   -88690.668   -88072.655 
Loop time of 38.4919 on 2 procs for 495 steps with 19652 atoms

Performance: 1.111 ns/day, 21.600 hours/ns, 12.860 timesteps/s
98.3% CPU use with 2 MPI tasks x no OpenMP threads

MPI task timing breakdown:
Section |  min time  |  avg time  |  max time  |%varavg| %total
---------------------------------------------------------------
Pair    | 20.134     | 20.214     | 20.294     |   1.8 | 52.51
Neigh   | 16.533     | 16.566     | 16.599     |   0.8 | 43.04
Comm    | 1.1028     | 1.2179     | 1.3331     |  10.4 |  3.16
Output  | 8.9884e-05 | 0.00013435 | 0.00017881 |   0.0 |  0.00
Modify  | 0.38997    | 0.39044    | 0.3909     |   0.1 |  1.01
Other   |            | 0.1036     |            |       |  0.27

Nlocal:    9826 ave 9844 max 9808 min
Histogram: 1 0 0 0 0 0 0 0 0 1
Nghost:    12354.5 ave 12359 max 12350 min
Histogram: 1 0 0 0 0 0 0 0 0 1
Neighs:    672378 ave 673938 max 670819 min
Histogram: 1 0 0 0 0 0 0 0 0 1

Total # of neighbors = 1344757
Ave neighs/atom = 68.4285
Neighbor list builds = 495
Dangerous builds not checked
Setting up Verlet run ...
  Unit style    : metal
  Current step  : 480495
  Time step     : 0.001
Per MPI rank memory allocation (min/avg/max) = 11.35 | 11.35 | 11.35 Mbytes
Step Temp Press TotEng PotEng Enthalpy 
  480495    224.38427    209.55321   -88120.711   -88690.668   -88072.655 
  490000    200.76615   -58.689579   -88257.014   -88766.979   -88270.466 
Loop time of 891.868 on 2 procs for 9505 steps with 19652 atoms

Performance: 0.921 ns/day, 26.064 hours/ns, 10.657 timesteps/s
88.3% CPU use with 2 MPI tasks x no OpenMP threads

MPI task timing breakdown:
Section |  min time  |  avg time  |  max time  |%varavg| %total
---------------------------------------------------------------
Pair    | 470.14     | 470.81     | 471.48     |   3.1 | 52.79
Neigh   | 362.21     | 363.06     | 363.92     |   4.5 | 40.71
Comm    | 44.066     | 45.684     | 47.303     |  23.9 |  5.12
Output  | 0.03526    | 0.035277   | 0.035294   |   0.0 |  0.00
Modify  | 9.9175     | 10.008     | 10.099     |   2.9 |  1.12
Other   |            | 2.266      |            |       |  0.25

Nlocal:    9826 ave 9829 max 9823 min
Histogram: 1 0 0 0 0 0 0 0 0 1
Nghost:    12357.5 ave 12363 max 12352 min
Histogram: 1 0 0 0 0 0 0 0 0 1
Neighs:    672428 ave 672681 max 672175 min
Histogram: 1 0 0 0 0 0 0 0 0 1

Total # of neighbors = 1344856
Ave neighs/atom = 68.4335
Neighbor list builds = 9505
Dangerous builds not checked
Setting up Verlet run ...
  Unit style    : metal
  Current step  : 490000
  Time step     : 0.001
Per MPI rank memory allocation (min/avg/max) = 11.35 | 11.35 | 11.35 Mbytes
Step Temp Press TotEng PotEng Enthalpy 
  490000    200.76615   -58.689579   -88257.014   -88766.979   -88270.466 
  490495    177.12195   -41.561468   -88389.037   -88838.943   -88398.557 
Loop time of 50.286 on 2 procs for 495 steps with 19652 atoms

Performance: 0.850 ns/day, 28.219 hours/ns, 9.844 timesteps/s
85.1% CPU use with 2 MPI tasks x no OpenMP threads

MPI task timing breakdown:
Section |  min time  |  avg time  |  max time  |%varavg| %total
---------------------------------------------------------------
Pair    | 26.912     | 26.949     | 26.987     |   0.7 | 53.59
Neigh   | 19.757     | 19.985     | 20.214     |   5.1 | 39.74
Comm    | 2.4297     | 2.6295     | 2.8293     |  12.3 |  5.23
Output  | 9.6083e-05 | 0.0001446  | 0.00019312 |   0.0 |  0.00
Modify  | 0.59839    | 0.60542    | 0.61246    |   0.9 |  1.20
Other   |            | 0.1163     |            |       |  0.23

Nlocal:    9826 ave 9834 max 9818 min
Histogram: 1 0 0 0 0 0 0 0 0 1
Nghost:    12379.5 ave 12380 max 12379 min
Histogram: 1 0 0 0 0 0 0 0 0 1
Neighs:    672912 ave 673599 max 672226 min
Histogram: 1 0 0 0 0 0 0 0 0 1

Total # of neighbors = 1345825
Ave neighs/atom = 68.4829
Neighbor list builds = 495
Dangerous builds not checked
Setting up Verlet run ...
  Unit style    : metal
  Current step  : 490495
  Time step     : 0.001
Per MPI rank memory allocation (min/avg/max) = 11.35 | 11.35 | 11.35 Mbytes
Step Temp Press TotEng PotEng Enthalpy 
  490495    177.12195   -41.561468   -88389.037   -88838.943   -88398.557 
  500000    150.67825   -180.46274    -88526.88   -88909.617    -88568.19 
Loop time of 794.679 on 2 procs for 9505 steps with 19652 atoms

Performance: 1.033 ns/day, 23.224 hours/ns, 11.961 timesteps/s
95.5% CPU use with 2 MPI tasks x no OpenMP threads

MPI task timing breakdown:
Section |  min time  |  avg time  |  max time  |%varavg| %total
---------------------------------------------------------------
Pair    | 410.52     | 413.06     | 415.6      |  12.5 | 51.98
Neigh   | 335.02     | 337.48     | 339.94     |  13.4 | 42.47
Comm    | 32.074     | 32.528     | 32.982     |   8.0 |  4.09
Output  | 0.035051   | 0.035059   | 0.035066   |   0.0 |  0.00
Modify  | 8.9639     | 9.4907     | 10.018     |  17.1 |  1.19
Other   |            | 2.09       |            |       |  0.26

Nlocal:    9826 ave 9829 max 9823 min
Histogram: 1 0 0 0 0 0 0 0 0 1
Nghost:    12377 ave 12380 max 12374 min
Histogram: 1 0 0 0 0 0 0 0 0 1
Neighs:    673332 ave 673740 max 672925 min
Histogram: 1 0 0 0 0 0 0 0 0 1

Total # of neighbors = 1346665
Ave neighs/atom = 68.5256
Neighbor list builds = 9505
Dangerous builds not checked
Setting up Verlet run ...
  Unit style    : metal
  Current step  : 500000
  Time step     : 0.001
Per MPI rank memory allocation (min/avg/max) = 11.35 | 11.35 | 11.35 Mbytes
Step Temp Press TotEng PotEng Enthalpy 
  500000    150.67825   -180.46274    -88526.88   -88909.617    -88568.19 
  500495    127.14838    165.05622   -88650.589   -88973.558   -88612.825 
Loop time of 38.3108 on 2 procs for 495 steps with 19652 atoms

Performance: 1.116 ns/day, 21.499 hours/ns, 12.921 timesteps/s
99.4% CPU use with 2 MPI tasks x no OpenMP threads

MPI task timing breakdown:
Section |  min time  |  avg time  |  max time  |%varavg| %total
---------------------------------------------------------------
Pair    | 19.684     | 19.923     | 20.162     |   5.4 | 52.00
Neigh   | 16.823     | 16.976     | 17.129     |   3.7 | 44.31
Comm    | 0.78942    | 0.87486    | 0.9603     |   9.1 |  2.28
Output  | 0.00015092 | 0.00018549 | 0.00022006 |   0.0 |  0.00
Modify  | 0.43128    | 0.43193    | 0.43258    |   0.1 |  1.13
Other   |            | 0.1043     |            |       |  0.27

Nlocal:    9826 ave 9828 max 9824 min
Histogram: 1 0 0 0 0 0 0 0 0 1
Nghost:    12374.5 ave 12386 max 12363 min
Histogram: 1 0 0 0 0 0 0 0 0 1
Neighs:    673510 ave 673803 max 673218 min
Histogram: 1 0 0 0 0 0 0 0 0 1

Total # of neighbors = 1347021
Ave neighs/atom = 68.5437
Neighbor list builds = 495
Dangerous builds not checked
Setting up Verlet run ...
  Unit style    : metal
  Current step  : 500495
  Time step     : 0.001
Per MPI rank memory allocation (min/avg/max) = 11.35 | 11.35 | 11.35 Mbytes
Step Temp Press TotEng PotEng Enthalpy 
  500495    127.14838    165.05622   -88650.589   -88973.558   -88612.825 
  510000    100.18757   -47.801528   -88795.751   -89050.237   -88806.682 
Loop time of 734.876 on 2 procs for 9505 steps with 19652 atoms

Performance: 1.118 ns/day, 21.476 hours/ns, 12.934 timesteps/s
99.9% CPU use with 2 MPI tasks x no OpenMP threads

MPI task timing breakdown:
Section |  min time  |  avg time  |  max time  |%varavg| %total
---------------------------------------------------------------
Pair    | 380.38     | 382.31     | 384.24     |   9.9 | 52.02
Neigh   | 326.53     | 327.47     | 328.41     |   5.2 | 44.56
Comm    | 12.514     | 15.456     | 18.397     |  74.8 |  2.10
Output  | 0.034718   | 0.034741   | 0.034764   |   0.0 |  0.00
Modify  | 7.53       | 7.5946     | 7.6592     |   2.3 |  1.03
Other   |            | 2.014      |            |       |  0.27

Nlocal:    9826 ave 9827 max 9825 min
Histogram: 1 0 0 0 0 0 0 0 0 1
Nghost:    12381.5 ave 12383 max 12380 min
Histogram: 1 0 0 0 0 0 0 0 0 1
Neighs:    674038 ave 674063 max 674014 min
Histogram: 1 0 0 0 0 0 0 0 0 1

Total # of neighbors = 1348077
Ave neighs/atom = 68.5974
Neighbor list builds = 9505
Dangerous builds not checked
Total wall time: 13:01:07
