LAMMPS (12 Dec 2018)
Lattice spacing in x,y,z = 4 4 4
Created orthogonal box = (0 0 0) to (68 68 68)
  1 by 1 by 1 MPI processor grid
Created 19652 atoms
  Time spent = 0.00335288 secs
Setting atom values ...
  417 settings made for type/fraction
Neighbor list info ...
  update every 1 steps, delay 0 steps, check no
  max neighbors/atom: 2000, page size: 100000
  master list distance cutoff = 8.5
  ghost atom cutoff = 8.5
  binsize = 4.25, bins = 16 16 16
  1 neighbor lists, perpetual/occasional/extra = 1 0 0
  (1) pair eam/alloy, perpetual
      attributes: half, newton on
      pair build: half/bin/atomonly/newton
      stencil: half/bin/3d/newton
      bin: standard
Setting up Verlet run ...
  Unit style    : metal
  Current step  : 0
  Time step     : 0.001
Per MPI rank memory allocation (min/avg/max) = 18.19 | 18.19 | 18.19 Mbytes
Step Temp Press TotEng PotEng Enthalpy 
       0          300    10137.093    -65118.43   -65880.458   -63128.995 
    1000    153.02544    18471.336   -65118.284   -65506.983   -61493.229 
Loop time of 160.53 on 1 procs for 1000 steps with 19652 atoms

Performance: 0.538 ns/day, 44.592 hours/ns, 6.229 timesteps/s
99.9% CPU use with 1 MPI tasks x no OpenMP threads

MPI task timing breakdown:
Section |  min time  |  avg time  |  max time  |%varavg| %total
---------------------------------------------------------------
Pair    | 92.473     | 92.473     | 92.473     |   0.0 | 57.60
Neigh   | 65.88      | 65.88      | 65.88      |   0.0 | 41.04
Comm    | 1.2944     | 1.2944     | 1.2944     |   0.0 |  0.81
Output  | 0.00056911 | 0.00056911 | 0.00056911 |   0.0 |  0.00
Modify  | 0.45892    | 0.45892    | 0.45892    |   0.0 |  0.29
Other   |            | 0.4234     |            |       |  0.26

Nlocal:    19652 ave 19652 max 19652 min
Histogram: 1 0 0 0 0 0 0 0 0 0
Nghost:    20102 ave 20102 max 20102 min
Histogram: 1 0 0 0 0 0 0 0 0 0
Neighs:    1.56584e+06 ave 1.56584e+06 max 1.56584e+06 min
Histogram: 1 0 0 0 0 0 0 0 0 0

Total # of neighbors = 1565841
Ave neighs/atom = 79.6785
Neighbor list builds = 1000
Dangerous builds not checked
Setting up Verlet run ...
  Unit style    : metal
  Current step  : 1000
  Time step     : 0.001
Per MPI rank memory allocation (min/avg/max) = 18.19 | 18.19 | 18.19 Mbytes
Step Temp Press TotEng PotEng Enthalpy 
    1000    153.02544    18471.336   -65118.284   -65506.983   -61493.229 
    2000    301.86389   -207.87273   -64366.258   -65133.019   -64408.625 
Loop time of 165.266 on 1 procs for 1000 steps with 19652 atoms

Performance: 0.523 ns/day, 45.907 hours/ns, 6.051 timesteps/s
99.9% CPU use with 1 MPI tasks x no OpenMP threads

MPI task timing breakdown:
Section |  min time  |  avg time  |  max time  |%varavg| %total
---------------------------------------------------------------
Pair    | 93.696     | 93.696     | 93.696     |   0.0 | 56.69
Neigh   | 68.188     | 68.188     | 68.188     |   0.0 | 41.26
Comm    | 1.2919     | 1.2919     | 1.2919     |   0.0 |  0.78
Output  | 0.00031304 | 0.00031304 | 0.00031304 |   0.0 |  0.00
Modify  | 1.6338     | 1.6338     | 1.6338     |   0.0 |  0.99
Other   |            | 0.4559     |            |       |  0.28

Nlocal:    19652 ave 19652 max 19652 min
Histogram: 1 0 0 0 0 0 0 0 0 0
Nghost:    20034 ave 20034 max 20034 min
Histogram: 1 0 0 0 0 0 0 0 0 0
Neighs:    1.47825e+06 ave 1.47825e+06 max 1.47825e+06 min
Histogram: 1 0 0 0 0 0 0 0 0 0

Total # of neighbors = 1478249
Ave neighs/atom = 75.2213
Neighbor list builds = 1000
Dangerous builds not checked
Setting up Verlet run ...
  Unit style    : metal
  Current step  : 2000
  Time step     : 0.001
Per MPI rank memory allocation (min/avg/max) = 18.2 | 18.2 | 18.2 Mbytes
Step Temp Press TotEng PotEng Enthalpy 
    2000    301.86389   -207.87273   -64366.258   -65133.019   -64408.625 
    6667    1553.2266    352.88618   -55165.158   -59110.496   -55075.546 
   10000    2448.0547    41.481121    -50358.11   -56576.392   -50346.529 
Loop time of 1313.79 on 1 procs for 8000 steps with 19652 atoms

Performance: 0.526 ns/day, 45.618 hours/ns, 6.089 timesteps/s
99.9% CPU use with 1 MPI tasks x no OpenMP threads

MPI task timing breakdown:
Section |  min time  |  avg time  |  max time  |%varavg| %total
---------------------------------------------------------------
Pair    | 722.51     | 722.51     | 722.51     |   0.0 | 54.99
Neigh   | 563.9      | 563.9      | 563.9      |   0.0 | 42.92
Comm    | 10.413     | 10.413     | 10.413     |   0.0 |  0.79
Output  | 0.064536   | 0.064536   | 0.064536   |   0.0 |  0.00
Modify  | 13.275     | 13.275     | 13.275     |   0.0 |  1.01
Other   |            | 3.625      |            |       |  0.28

Nlocal:    19652 ave 19652 max 19652 min
Histogram: 1 0 0 0 0 0 0 0 0 0
Nghost:    16236 ave 16236 max 16236 min
Histogram: 1 0 0 0 0 0 0 0 0 0
Neighs:    1.10285e+06 ave 1.10285e+06 max 1.10285e+06 min
Histogram: 1 0 0 0 0 0 0 0 0 0

Total # of neighbors = 1102854
Ave neighs/atom = 56.1192
Neighbor list builds = 8000
Dangerous builds not checked
Setting up Verlet run ...
  Unit style    : metal
  Current step  : 10000
  Time step     : 0.001
Per MPI rank memory allocation (min/avg/max) = 18.2 | 18.2 | 18.2 Mbytes
Step Temp Press TotEng PotEng Enthalpy 
   10000    2448.0547    41.481121    -50358.11   -56576.392   -50346.529 
   13334    2453.2923    346.52304    -50323.43   -56555.016   -50226.631 
   20001    2459.1293      668.591   -50315.591   -56562.003   -50128.937 
   26668    2443.7831   -427.24522   -50439.772   -56647.203   -50559.024 
   33335    2446.4903    1329.6812   -50429.322   -56643.631    -50059.74 
   40000     2466.056    11.521115   -50353.492   -56617.499   -50350.279 
Loop time of 4663.23 on 1 procs for 30000 steps with 19652 atoms

Performance: 0.556 ns/day, 43.178 hours/ns, 6.433 timesteps/s
99.3% CPU use with 1 MPI tasks x no OpenMP threads

MPI task timing breakdown:
Section |  min time  |  avg time  |  max time  |%varavg| %total
---------------------------------------------------------------
Pair    | 2513.6     | 2513.6     | 2513.6     |   0.0 | 53.90
Neigh   | 2049       | 2049       | 2049       |   0.0 | 43.94
Comm    | 37.585     | 37.585     | 37.585     |   0.0 |  0.81
Output  | 0.82278    | 0.82278    | 0.82278    |   0.0 |  0.02
Modify  | 49.006     | 49.006     | 49.006     |   0.0 |  1.05
Other   |            | 13.23      |            |       |  0.28

Nlocal:    19652 ave 19652 max 19652 min
Histogram: 1 0 0 0 0 0 0 0 0 0
Nghost:    16325 ave 16325 max 16325 min
Histogram: 1 0 0 0 0 0 0 0 0 0
Neighs:    1.10393e+06 ave 1.10393e+06 max 1.10393e+06 min
Histogram: 1 0 0 0 0 0 0 0 0 0

Total # of neighbors = 1103928
Ave neighs/atom = 56.1738
Neighbor list builds = 30000
Dangerous builds not checked
Setting up Verlet run ...
  Unit style    : metal
  Current step  : 40000
  Time step     : 0.001
Per MPI rank memory allocation (min/avg/max) = 18.21 | 18.21 | 18.21 Mbytes
Step Temp Press TotEng PotEng Enthalpy 
   40000     2466.056    11.521115   -50353.492   -56617.499   -50350.279 
   40002    2466.5953   -9.8686065   -50353.508   -56618.885    -50356.26 
   40495    2398.1964   -451.48376   -50659.651   -56751.288    -50785.08 
Loop time of 73.2921 on 1 procs for 495 steps with 19652 atoms

Performance: 0.584 ns/day, 41.129 hours/ns, 6.754 timesteps/s
99.9% CPU use with 1 MPI tasks x no OpenMP threads

MPI task timing breakdown:
Section |  min time  |  avg time  |  max time  |%varavg| %total
---------------------------------------------------------------
Pair    | 38.112     | 38.112     | 38.112     |   0.0 | 52.00
Neigh   | 33.47      | 33.47      | 33.47      |   0.0 | 45.67
Comm    | 0.61101    | 0.61101    | 0.61101    |   0.0 |  0.83
Output  | 0.071636   | 0.071636   | 0.071636   |   0.0 |  0.10
Modify  | 0.80894    | 0.80894    | 0.80894    |   0.0 |  1.10
Other   |            | 0.2192     |            |       |  0.30

Nlocal:    19652 ave 19652 max 19652 min
Histogram: 1 0 0 0 0 0 0 0 0 0
Nghost:    16278 ave 16278 max 16278 min
Histogram: 1 0 0 0 0 0 0 0 0 0
Neighs:    1.10918e+06 ave 1.10918e+06 max 1.10918e+06 min
Histogram: 1 0 0 0 0 0 0 0 0 0

Total # of neighbors = 1109179
Ave neighs/atom = 56.441
Neighbor list builds = 495
Dangerous builds not checked
Setting up Verlet run ...
  Unit style    : metal
  Current step  : 40495
  Time step     : 0.001
Per MPI rank memory allocation (min/avg/max) = 18.21 | 18.21 | 18.21 Mbytes
Step Temp Press TotEng PotEng Enthalpy 
   40495    2398.1964   -451.48376   -50659.651   -56751.288    -50785.08 
   46667     2392.059   -1011.4322   -50605.398   -56681.446   -50886.891 
Loop time of 961.464 on 1 procs for 6172 steps with 19652 atoms

Performance: 0.555 ns/day, 43.272 hours/ns, 6.419 timesteps/s
99.6% CPU use with 1 MPI tasks x no OpenMP threads

MPI task timing breakdown:
Section |  min time  |  avg time  |  max time  |%varavg| %total
---------------------------------------------------------------
Pair    | 511.49     | 511.49     | 511.49     |   0.0 | 53.20
Neigh   | 429.6      | 429.6      | 429.6      |   0.0 | 44.68
Comm    | 7.6817     | 7.6817     | 7.6817     |   0.0 |  0.80
Output  | 0.00020909 | 0.00020909 | 0.00020909 |   0.0 |  0.00
Modify  | 9.9735     | 9.9735     | 9.9735     |   0.0 |  1.04
Other   |            | 2.723      |            |       |  0.28

Nlocal:    19652 ave 19652 max 19652 min
Histogram: 1 0 0 0 0 0 0 0 0 0
Nghost:    16283 ave 16283 max 16283 min
Histogram: 1 0 0 0 0 0 0 0 0 0
Neighs:    1.10669e+06 ave 1.10669e+06 max 1.10669e+06 min
Histogram: 1 0 0 0 0 0 0 0 0 0

Total # of neighbors = 1106686
Ave neighs/atom = 56.3142
Neighbor list builds = 6172
Dangerous builds not checked
Setting up Verlet run ...
  Unit style    : metal
  Current step  : 46667
  Time step     : 0.001
Per MPI rank memory allocation (min/avg/max) = 18.21 | 18.21 | 18.21 Mbytes
Step Temp Press TotEng PotEng Enthalpy 
   46667     2392.059   -1011.4322   -50605.398   -56681.446   -50886.891 
   46669    2391.0813   -958.55426    -50605.39   -56678.955   -50872.167 
   47162    2353.8234   -346.19709   -50838.427   -56817.353   -50934.222 
Loop time of 73.8329 on 1 procs for 495 steps with 19652 atoms

Performance: 0.579 ns/day, 41.433 hours/ns, 6.704 timesteps/s
99.2% CPU use with 1 MPI tasks x no OpenMP threads

MPI task timing breakdown:
Section |  min time  |  avg time  |  max time  |%varavg| %total
---------------------------------------------------------------
Pair    | 39.166     | 39.166     | 39.166     |   0.0 | 53.05
Neigh   | 32.933     | 32.933     | 32.933     |   0.0 | 44.60
Comm    | 0.62491    | 0.62491    | 0.62491    |   0.0 |  0.85
Output  | 0.068075   | 0.068075   | 0.068075   |   0.0 |  0.09
Modify  | 0.81615    | 0.81615    | 0.81615    |   0.0 |  1.11
Other   |            | 0.2246     |            |       |  0.30

Nlocal:    19652 ave 19652 max 19652 min
Histogram: 1 0 0 0 0 0 0 0 0 0
Nghost:    16246 ave 16246 max 16246 min
Histogram: 1 0 0 0 0 0 0 0 0 0
Neighs:    1.11261e+06 ave 1.11261e+06 max 1.11261e+06 min
Histogram: 1 0 0 0 0 0 0 0 0 0

Total # of neighbors = 1112607
Ave neighs/atom = 56.6155
Neighbor list builds = 495
Dangerous builds not checked
Setting up Verlet run ...
  Unit style    : metal
  Current step  : 47162
  Time step     : 0.001
Per MPI rank memory allocation (min/avg/max) = 18.21 | 18.21 | 18.21 Mbytes
Step Temp Press TotEng PotEng Enthalpy 
   47162    2353.8234   -346.19709   -50838.427   -56817.353   -50934.222 
   53334     2366.609    621.38253   -50840.869   -56852.272    -50669.33 
Loop time of 1073.77 on 1 procs for 6172 steps with 19652 atoms

Performance: 0.497 ns/day, 48.326 hours/ns, 5.748 timesteps/s
86.9% CPU use with 1 MPI tasks x no OpenMP threads

MPI task timing breakdown:
Section |  min time  |  avg time  |  max time  |%varavg| %total
---------------------------------------------------------------
Pair    | 560.75     | 560.75     | 560.75     |   0.0 | 52.22
Neigh   | 490.58     | 490.58     | 490.58     |   0.0 | 45.69
Comm    | 8.2586     | 8.2586     | 8.2586     |   0.0 |  0.77
Output  | 0.00037217 | 0.00037217 | 0.00037217 |   0.0 |  0.00
Modify  | 11.101     | 11.101     | 11.101     |   0.0 |  1.03
Other   |            | 3.079      |            |       |  0.29

Nlocal:    19652 ave 19652 max 19652 min
Histogram: 1 0 0 0 0 0 0 0 0 0
Nghost:    16296 ave 16296 max 16296 min
Histogram: 1 0 0 0 0 0 0 0 0 0
Neighs:    1.1155e+06 ave 1.1155e+06 max 1.1155e+06 min
Histogram: 1 0 0 0 0 0 0 0 0 0

Total # of neighbors = 1115503
Ave neighs/atom = 56.7628
Neighbor list builds = 6172
Dangerous builds not checked
Setting up Verlet run ...
  Unit style    : metal
  Current step  : 53334
  Time step     : 0.001
Per MPI rank memory allocation (min/avg/max) = 18.21 | 18.21 | 18.21 Mbytes
Step Temp Press TotEng PotEng Enthalpy 
   53334     2366.609    621.38253   -50840.869   -56852.272    -50669.33 
   53336    2366.5902    607.45699   -50840.883   -56852.238   -50673.188 
   53829    2310.8248   -320.56512   -51054.839   -56924.545   -51143.221 
Loop time of 91.1239 on 1 procs for 495 steps with 19652 atoms

Performance: 0.469 ns/day, 51.136 hours/ns, 5.432 timesteps/s
79.1% CPU use with 1 MPI tasks x no OpenMP threads

MPI task timing breakdown:
Section |  min time  |  avg time  |  max time  |%varavg| %total
---------------------------------------------------------------
Pair    | 46.817     | 46.817     | 46.817     |   0.0 | 51.38
Neigh   | 42.325     | 42.325     | 42.325     |   0.0 | 46.45
Comm    | 0.68623    | 0.68623    | 0.68623    |   0.0 |  0.75
Output  | 0.065924   | 0.065924   | 0.065924   |   0.0 |  0.07
Modify  | 0.98302    | 0.98302    | 0.98302    |   0.0 |  1.08
Other   |            | 0.246      |            |       |  0.27

Nlocal:    19652 ave 19652 max 19652 min
Histogram: 1 0 0 0 0 0 0 0 0 0
Nghost:    16367 ave 16367 max 16367 min
Histogram: 1 0 0 0 0 0 0 0 0 0
Neighs:    1.11743e+06 ave 1.11743e+06 max 1.11743e+06 min
Histogram: 1 0 0 0 0 0 0 0 0 0

Total # of neighbors = 1117428
Ave neighs/atom = 56.8608
Neighbor list builds = 495
Dangerous builds not checked
Setting up Verlet run ...
  Unit style    : metal
  Current step  : 53829
  Time step     : 0.001
Per MPI rank memory allocation (min/avg/max) = 18.21 | 18.21 | 18.21 Mbytes
Step Temp Press TotEng PotEng Enthalpy 
   53829    2310.8248   -320.56512   -51054.839   -56924.545   -51143.221 
   60001    2302.8435    653.90376   -51169.683   -57019.115    -50990.26 
Loop time of 1119.24 on 1 procs for 6172 steps with 19652 atoms

Performance: 0.476 ns/day, 50.373 hours/ns, 5.514 timesteps/s
82.8% CPU use with 1 MPI tasks x no OpenMP threads

MPI task timing breakdown:
Section |  min time  |  avg time  |  max time  |%varavg| %total
---------------------------------------------------------------
Pair    | 582.68     | 582.68     | 582.68     |   0.0 | 52.06
Neigh   | 513.23     | 513.23     | 513.23     |   0.0 | 45.85
Comm    | 8.6012     | 8.6012     | 8.6012     |   0.0 |  0.77
Output  | 0.00019598 | 0.00019598 | 0.00019598 |   0.0 |  0.00
Modify  | 11.725     | 11.725     | 11.725     |   0.0 |  1.05
Other   |            | 3.004      |            |       |  0.27

Nlocal:    19652 ave 19652 max 19652 min
Histogram: 1 0 0 0 0 0 0 0 0 0
Nghost:    16297 ave 16297 max 16297 min
Histogram: 1 0 0 0 0 0 0 0 0 0
Neighs:    1.12276e+06 ave 1.12276e+06 max 1.12276e+06 min
Histogram: 1 0 0 0 0 0 0 0 0 0

Total # of neighbors = 1122760
Ave neighs/atom = 57.1321
Neighbor list builds = 6172
Dangerous builds not checked
Setting up Verlet run ...
  Unit style    : metal
  Current step  : 60001
  Time step     : 0.001
Per MPI rank memory allocation (min/avg/max) = 18.21 | 18.21 | 18.21 Mbytes
Step Temp Press TotEng PotEng Enthalpy 
   60001    2302.8435    653.90376   -51169.683   -57019.115    -50990.26 
   60003    2301.1445    674.71348   -51169.679   -57014.796   -50984.547 
   60496    2272.1859    161.09378   -51287.024   -57058.583   -51242.846 
Loop time of 87.4092 on 1 procs for 495 steps with 19652 atoms

Performance: 0.489 ns/day, 49.051 hours/ns, 5.663 timesteps/s
82.9% CPU use with 1 MPI tasks x no OpenMP threads

MPI task timing breakdown:
Section |  min time  |  avg time  |  max time  |%varavg| %total
---------------------------------------------------------------
Pair    | 45.3       | 45.3       | 45.3       |   0.0 | 51.83
Neigh   | 40.162     | 40.162     | 40.162     |   0.0 | 45.95
Comm    | 0.64212    | 0.64212    | 0.64212    |   0.0 |  0.73
Output  | 0.067211   | 0.067211   | 0.067211   |   0.0 |  0.08
Modify  | 0.9987     | 0.9987     | 0.9987     |   0.0 |  1.14
Other   |            | 0.2386     |            |       |  0.27

Nlocal:    19652 ave 19652 max 19652 min
Histogram: 1 0 0 0 0 0 0 0 0 0
Nghost:    16213 ave 16213 max 16213 min
Histogram: 1 0 0 0 0 0 0 0 0 0
Neighs:    1.12359e+06 ave 1.12359e+06 max 1.12359e+06 min
Histogram: 1 0 0 0 0 0 0 0 0 0

Total # of neighbors = 1123591
Ave neighs/atom = 57.1744
Neighbor list builds = 495
Dangerous builds not checked
Setting up Verlet run ...
  Unit style    : metal
  Current step  : 60496
  Time step     : 0.001
Per MPI rank memory allocation (min/avg/max) = 18.21 | 18.21 | 18.21 Mbytes
Step Temp Press TotEng PotEng Enthalpy 
   60496    2272.1859    161.09378   -51287.024   -57058.583   -51242.846 
   66668    2237.9446    385.46707    -51455.05   -57139.633   -51349.756 
Loop time of 1196.44 on 1 procs for 6172 steps with 19652 atoms

Performance: 0.446 ns/day, 53.847 hours/ns, 5.159 timesteps/s
80.1% CPU use with 1 MPI tasks x no OpenMP threads

MPI task timing breakdown:
Section |  min time  |  avg time  |  max time  |%varavg| %total
---------------------------------------------------------------
Pair    | 634.64     | 634.64     | 634.64     |   0.0 | 53.04
Neigh   | 537.12     | 537.12     | 537.12     |   0.0 | 44.89
Comm    | 9.1835     | 9.1835     | 9.1835     |   0.0 |  0.77
Output  | 0.00019383 | 0.00019383 | 0.00019383 |   0.0 |  0.00
Modify  | 12.258     | 12.258     | 12.258     |   0.0 |  1.02
Other   |            | 3.234      |            |       |  0.27

Nlocal:    19652 ave 19652 max 19652 min
Histogram: 1 0 0 0 0 0 0 0 0 0
Nghost:    16339 ave 16339 max 16339 min
Histogram: 1 0 0 0 0 0 0 0 0 0
Neighs:    1.12796e+06 ave 1.12796e+06 max 1.12796e+06 min
Histogram: 1 0 0 0 0 0 0 0 0 0

Total # of neighbors = 1127959
Ave neighs/atom = 57.3967
Neighbor list builds = 6172
Dangerous builds not checked
Setting up Verlet run ...
  Unit style    : metal
  Current step  : 66668
  Time step     : 0.001
Per MPI rank memory allocation (min/avg/max) = 18.21 | 18.21 | 18.21 Mbytes
Step Temp Press TotEng PotEng Enthalpy 
   66668    2237.9446    385.46707    -51455.05   -57139.633   -51349.756 
   66670    2240.6435    321.54901   -51455.046   -57146.484   -51367.212 
   67163    2204.4027   -281.96703   -51541.706    -57141.09   -51618.796 
Loop time of 97.3219 on 1 procs for 495 steps with 19652 atoms

Performance: 0.439 ns/day, 54.614 hours/ns, 5.086 timesteps/s
75.3% CPU use with 1 MPI tasks x no OpenMP threads

MPI task timing breakdown:
Section |  min time  |  avg time  |  max time  |%varavg| %total
---------------------------------------------------------------
Pair    | 50.983     | 50.983     | 50.983     |   0.0 | 52.39
Neigh   | 44.113     | 44.113     | 44.113     |   0.0 | 45.33
Comm    | 0.78825    | 0.78825    | 0.78825    |   0.0 |  0.81
Output  | 0.067533   | 0.067533   | 0.067533   |   0.0 |  0.07
Modify  | 1.0554     | 1.0554     | 1.0554     |   0.0 |  1.08
Other   |            | 0.3147     |            |       |  0.32

Nlocal:    19652 ave 19652 max 19652 min
Histogram: 1 0 0 0 0 0 0 0 0 0
Nghost:    16346 ave 16346 max 16346 min
Histogram: 1 0 0 0 0 0 0 0 0 0
Neighs:    1.12743e+06 ave 1.12743e+06 max 1.12743e+06 min
Histogram: 1 0 0 0 0 0 0 0 0 0

Total # of neighbors = 1127426
Ave neighs/atom = 57.3695
Neighbor list builds = 495
Dangerous builds not checked
Setting up Verlet run ...
  Unit style    : metal
  Current step  : 67163
  Time step     : 0.001
Per MPI rank memory allocation (min/avg/max) = 18.21 | 18.21 | 18.21 Mbytes
Step Temp Press TotEng PotEng Enthalpy 
   67163    2204.4027   -281.96703   -51541.706    -57141.09   -51618.796 
   73335    2208.6165   -769.36677   -51612.425   -57222.512   -51822.491 
Loop time of 1192.83 on 1 procs for 6172 steps with 19652 atoms

Performance: 0.447 ns/day, 53.685 hours/ns, 5.174 timesteps/s
80.4% CPU use with 1 MPI tasks x no OpenMP threads

MPI task timing breakdown:
Section |  min time  |  avg time  |  max time  |%varavg| %total
---------------------------------------------------------------
Pair    | 636.17     | 636.17     | 636.17     |   0.0 | 53.33
Neigh   | 532.26     | 532.26     | 532.26     |   0.0 | 44.62
Comm    | 9.0211     | 9.0211     | 9.0211     |   0.0 |  0.76
Output  | 0.00026393 | 0.00026393 | 0.00026393 |   0.0 |  0.00
Modify  | 12.166     | 12.166     | 12.166     |   0.0 |  1.02
Other   |            | 3.216      |            |       |  0.27

Nlocal:    19652 ave 19652 max 19652 min
Histogram: 1 0 0 0 0 0 0 0 0 0
Nghost:    16374 ave 16374 max 16374 min
Histogram: 1 0 0 0 0 0 0 0 0 0
Neighs:    1.12861e+06 ave 1.12861e+06 max 1.12861e+06 min
Histogram: 1 0 0 0 0 0 0 0 0 0

Total # of neighbors = 1128610
Ave neighs/atom = 57.4298
Neighbor list builds = 6172
Dangerous builds not checked
Setting up Verlet run ...
  Unit style    : metal
  Current step  : 73335
  Time step     : 0.001
Per MPI rank memory allocation (min/avg/max) = 18.21 | 18.21 | 18.21 Mbytes
Step Temp Press TotEng PotEng Enthalpy 
   73335    2208.6165   -769.36677   -51612.425   -57222.512   -51822.491 
   73337    2207.8609   -748.83274   -51612.433     -57220.6   -51816.892 
   73830    2158.1838    777.88772   -51855.452   -57337.435   -51644.616 
Loop time of 96.4653 on 1 procs for 495 steps with 19652 atoms

Performance: 0.443 ns/day, 54.133 hours/ns, 5.131 timesteps/s
77.9% CPU use with 1 MPI tasks x no OpenMP threads

MPI task timing breakdown:
Section |  min time  |  avg time  |  max time  |%varavg| %total
---------------------------------------------------------------
Pair    | 50.962     | 50.962     | 50.962     |   0.0 | 52.83
Neigh   | 43.371     | 43.371     | 43.371     |   0.0 | 44.96
Comm    | 0.80245    | 0.80245    | 0.80245    |   0.0 |  0.83
Output  | 0.066883   | 0.066883   | 0.066883   |   0.0 |  0.07
Modify  | 0.9872     | 0.9872     | 0.9872     |   0.0 |  1.02
Other   |            | 0.2761     |            |       |  0.29

Nlocal:    19652 ave 19652 max 19652 min
Histogram: 1 0 0 0 0 0 0 0 0 0
Nghost:    16432 ave 16432 max 16432 min
Histogram: 1 0 0 0 0 0 0 0 0 0
Neighs:    1.13688e+06 ave 1.13688e+06 max 1.13688e+06 min
Histogram: 1 0 0 0 0 0 0 0 0 0

Total # of neighbors = 1136881
Ave neighs/atom = 57.8507
Neighbor list builds = 495
Dangerous builds not checked
Setting up Verlet run ...
  Unit style    : metal
  Current step  : 73830
  Time step     : 0.001
Per MPI rank memory allocation (min/avg/max) = 18.21 | 18.21 | 18.21 Mbytes
Step Temp Press TotEng PotEng Enthalpy 
   73830    2158.1838    777.88772   -51855.452   -57337.435   -51644.616 
   80002    2161.1871   -210.60919   -51856.242   -57345.854   -51913.395 
Loop time of 1190.67 on 1 procs for 6172 steps with 19652 atoms

Performance: 0.448 ns/day, 53.587 hours/ns, 5.184 timesteps/s
80.1% CPU use with 1 MPI tasks x no OpenMP threads

MPI task timing breakdown:
Section |  min time  |  avg time  |  max time  |%varavg| %total
---------------------------------------------------------------
Pair    | 637.18     | 637.18     | 637.18     |   0.0 | 53.51
Neigh   | 529        | 529        | 529        |   0.0 | 44.43
Comm    | 9.1862     | 9.1862     | 9.1862     |   0.0 |  0.77
Output  | 0.00019908 | 0.00019908 | 0.00019908 |   0.0 |  0.00
Modify  | 12.109     | 12.109     | 12.109     |   0.0 |  1.02
Other   |            | 3.184      |            |       |  0.27

Nlocal:    19652 ave 19652 max 19652 min
Histogram: 1 0 0 0 0 0 0 0 0 0
Nghost:    16467 ave 16467 max 16467 min
Histogram: 1 0 0 0 0 0 0 0 0 0
Neighs:    1.1358e+06 ave 1.1358e+06 max 1.1358e+06 min
Histogram: 1 0 0 0 0 0 0 0 0 0

Total # of neighbors = 1135804
Ave neighs/atom = 57.7958
Neighbor list builds = 6172
Dangerous builds not checked
Setting up Verlet run ...
  Unit style    : metal
  Current step  : 80002
  Time step     : 0.001
Per MPI rank memory allocation (min/avg/max) = 18.21 | 18.21 | 18.21 Mbytes
Step Temp Press TotEng PotEng Enthalpy 
   80002    2161.1871   -210.60919   -51856.242   -57345.854   -51913.395 
   80004    2162.3695   -214.69269   -51856.261   -57348.876   -51914.522 
   80497    2122.4933    228.60855   -52105.343    -57496.67   -52043.683 
Loop time of 86.6672 on 1 procs for 495 steps with 19652 atoms

Performance: 0.493 ns/day, 48.635 hours/ns, 5.712 timesteps/s
83.8% CPU use with 1 MPI tasks x no OpenMP threads

MPI task timing breakdown:
Section |  min time  |  avg time  |  max time  |%varavg| %total
---------------------------------------------------------------
Pair    | 46.067     | 46.067     | 46.067     |   0.0 | 53.15
Neigh   | 38.698     | 38.698     | 38.698     |   0.0 | 44.65
Comm    | 0.6501     | 0.6501     | 0.6501     |   0.0 |  0.75
Output  | 0.071033   | 0.071033   | 0.071033   |   0.0 |  0.08
Modify  | 0.93973    | 0.93973    | 0.93973    |   0.0 |  1.08
Other   |            | 0.2411     |            |       |  0.28

Nlocal:    19652 ave 19652 max 19652 min
Histogram: 1 0 0 0 0 0 0 0 0 0
Nghost:    16488 ave 16488 max 16488 min
Histogram: 1 0 0 0 0 0 0 0 0 0
Neighs:    1.14286e+06 ave 1.14286e+06 max 1.14286e+06 min
Histogram: 1 0 0 0 0 0 0 0 0 0

Total # of neighbors = 1142865
Ave neighs/atom = 58.1551
Neighbor list builds = 495
Dangerous builds not checked
Setting up Verlet run ...
  Unit style    : metal
  Current step  : 80497
  Time step     : 0.001
Per MPI rank memory allocation (min/avg/max) = 18.21 | 18.21 | 18.21 Mbytes
Step Temp Press TotEng PotEng Enthalpy 
   80497    2122.4933    228.60855   -52105.343    -57496.67   -52043.683 
   86669    2096.2925    182.01913   -52190.126     -57514.9   -52141.103 
Loop time of 1110.8 on 1 procs for 6172 steps with 19652 atoms

Performance: 0.480 ns/day, 49.993 hours/ns, 5.556 timesteps/s
87.0% CPU use with 1 MPI tasks x no OpenMP threads

MPI task timing breakdown:
Section |  min time  |  avg time  |  max time  |%varavg| %total
---------------------------------------------------------------
Pair    | 594.22     | 594.22     | 594.22     |   0.0 | 53.49
Neigh   | 493.67     | 493.67     | 493.67     |   0.0 | 44.44
Comm    | 8.6663     | 8.6663     | 8.6663     |   0.0 |  0.78
Output  | 0.00020099 | 0.00020099 | 0.00020099 |   0.0 |  0.00
Modify  | 11.265     | 11.265     | 11.265     |   0.0 |  1.01
Other   |            | 2.986      |            |       |  0.27

Nlocal:    19652 ave 19652 max 19652 min
Histogram: 1 0 0 0 0 0 0 0 0 0
Nghost:    16450 ave 16450 max 16450 min
Histogram: 1 0 0 0 0 0 0 0 0 0
Neighs:    1.14477e+06 ave 1.14477e+06 max 1.14477e+06 min
Histogram: 1 0 0 0 0 0 0 0 0 0

Total # of neighbors = 1144769
Ave neighs/atom = 58.252
Neighbor list builds = 6172
Dangerous builds not checked
Setting up Verlet run ...
  Unit style    : metal
  Current step  : 86669
  Time step     : 0.001
Per MPI rank memory allocation (min/avg/max) = 18.21 | 18.21 | 18.21 Mbytes
Step Temp Press TotEng PotEng Enthalpy 
   86669    2096.2925    182.01913   -52190.126     -57514.9   -52141.103 
   86671    2095.9421    209.72664   -52190.125   -57514.009   -52133.639 
   87164     2070.458    426.95091   -52324.921   -57584.073   -52210.137 
Loop time of 77.0005 on 1 procs for 495 steps with 19652 atoms

Performance: 0.555 ns/day, 43.210 hours/ns, 6.429 timesteps/s
90.1% CPU use with 1 MPI tasks x no OpenMP threads

MPI task timing breakdown:
Section |  min time  |  avg time  |  max time  |%varavg| %total
---------------------------------------------------------------
Pair    | 40.986     | 40.986     | 40.986     |   0.0 | 53.23
Neigh   | 34.273     | 34.273     | 34.273     |   0.0 | 44.51
Comm    | 0.62614    | 0.62614    | 0.62614    |   0.0 |  0.81
Output  | 0.070309   | 0.070309   | 0.070309   |   0.0 |  0.09
Modify  | 0.82043    | 0.82043    | 0.82043    |   0.0 |  1.07
Other   |            | 0.2242     |            |       |  0.29

Nlocal:    19652 ave 19652 max 19652 min
Histogram: 1 0 0 0 0 0 0 0 0 0
Nghost:    16526 ave 16526 max 16526 min
Histogram: 1 0 0 0 0 0 0 0 0 0
Neighs:    1.147e+06 ave 1.147e+06 max 1.147e+06 min
Histogram: 1 0 0 0 0 0 0 0 0 0

Total # of neighbors = 1147000
Ave neighs/atom = 58.3656
Neighbor list builds = 495
Dangerous builds not checked
Setting up Verlet run ...
  Unit style    : metal
  Current step  : 87164
  Time step     : 0.001
Per MPI rank memory allocation (min/avg/max) = 18.21 | 18.21 | 18.21 Mbytes
Step Temp Press TotEng PotEng Enthalpy 
   87164     2070.458    426.95091   -52324.921   -57584.073   -52210.137 
   93336    2051.6876   -68.401023   -52411.793   -57623.267   -52430.162 
Loop time of 1132.87 on 1 procs for 6172 steps with 19652 atoms

Performance: 0.471 ns/day, 50.986 hours/ns, 5.448 timesteps/s
84.9% CPU use with 1 MPI tasks x no OpenMP threads

MPI task timing breakdown:
Section |  min time  |  avg time  |  max time  |%varavg| %total
---------------------------------------------------------------
Pair    | 607.48     | 607.48     | 607.48     |   0.0 | 53.62
Neigh   | 502.2      | 502.2      | 502.2      |   0.0 | 44.33
Comm    | 8.7394     | 8.7394     | 8.7394     |   0.0 |  0.77
Output  | 0.00030708 | 0.00030708 | 0.00030708 |   0.0 |  0.00
Modify  | 11.346     | 11.346     | 11.346     |   0.0 |  1.00
Other   |            | 3.098      |            |       |  0.27

Nlocal:    19652 ave 19652 max 19652 min
Histogram: 1 0 0 0 0 0 0 0 0 0
Nghost:    16428 ave 16428 max 16428 min
Histogram: 1 0 0 0 0 0 0 0 0 0
Neighs:    1.14811e+06 ave 1.14811e+06 max 1.14811e+06 min
Histogram: 1 0 0 0 0 0 0 0 0 0

Total # of neighbors = 1148113
Ave neighs/atom = 58.4222
Neighbor list builds = 6172
Dangerous builds not checked
Setting up Verlet run ...
  Unit style    : metal
  Current step  : 93336
  Time step     : 0.001
Per MPI rank memory allocation (min/avg/max) = 18.21 | 18.21 | 18.21 Mbytes
Step Temp Press TotEng PotEng Enthalpy 
   93336    2051.6876   -68.401023   -52411.793   -57623.267   -52430.162 
   93338    2052.6983   -93.747088   -52411.797   -57625.838   -52436.972 
   93831    2015.4193    561.53732    -52619.67   -57739.019   -52469.638 
Loop time of 90.2183 on 1 procs for 495 steps with 19652 atoms

Performance: 0.474 ns/day, 50.628 hours/ns, 5.487 timesteps/s
82.7% CPU use with 1 MPI tasks x no OpenMP threads

MPI task timing breakdown:
Section |  min time  |  avg time  |  max time  |%varavg| %total
---------------------------------------------------------------
Pair    | 47.726     | 47.726     | 47.726     |   0.0 | 52.90
Neigh   | 40.436     | 40.436     | 40.436     |   0.0 | 44.82
Comm    | 0.69181    | 0.69181    | 0.69181    |   0.0 |  0.77
Output  | 0.15878    | 0.15878    | 0.15878    |   0.0 |  0.18
Modify  | 0.94894    | 0.94894    | 0.94894    |   0.0 |  1.05
Other   |            | 0.2575     |            |       |  0.29

Nlocal:    19652 ave 19652 max 19652 min
Histogram: 1 0 0 0 0 0 0 0 0 0
Nghost:    16547 ave 16547 max 16547 min
Histogram: 1 0 0 0 0 0 0 0 0 0
Neighs:    1.15363e+06 ave 1.15363e+06 max 1.15363e+06 min
Histogram: 1 0 0 0 0 0 0 0 0 0

Total # of neighbors = 1153627
Ave neighs/atom = 58.7028
Neighbor list builds = 495
Dangerous builds not checked
Setting up Verlet run ...
  Unit style    : metal
  Current step  : 93831
  Time step     : 0.001
Per MPI rank memory allocation (min/avg/max) = 18.21 | 18.21 | 18.21 Mbytes
Step Temp Press TotEng PotEng Enthalpy 
   93831    2015.4193    561.53732    -52619.67   -57739.019   -52469.638 
  100003    1995.3126    678.21261   -52748.624     -57816.9   -52567.972 
Loop time of 1169.67 on 1 procs for 6172 steps with 19652 atoms

Performance: 0.456 ns/day, 52.642 hours/ns, 5.277 timesteps/s
83.0% CPU use with 1 MPI tasks x no OpenMP threads

MPI task timing breakdown:
Section |  min time  |  avg time  |  max time  |%varavg| %total
---------------------------------------------------------------
Pair    | 631.77     | 631.77     | 631.77     |   0.0 | 54.01
Neigh   | 513.98     | 513.98     | 513.98     |   0.0 | 43.94
Comm    | 9.045      | 9.045      | 9.045      |   0.0 |  0.77
Output  | 0.00029898 | 0.00029898 | 0.00029898 |   0.0 |  0.00
Modify  | 11.723     | 11.723     | 11.723     |   0.0 |  1.00
Other   |            | 3.151      |            |       |  0.27

Nlocal:    19652 ave 19652 max 19652 min
Histogram: 1 0 0 0 0 0 0 0 0 0
Nghost:    16582 ave 16582 max 16582 min
Histogram: 1 0 0 0 0 0 0 0 0 0
Neighs:    1.1577e+06 ave 1.1577e+06 max 1.1577e+06 min
Histogram: 1 0 0 0 0 0 0 0 0 0

Total # of neighbors = 1157705
Ave neighs/atom = 58.9103
Neighbor list builds = 6172
Dangerous builds not checked
Setting up Verlet run ...
  Unit style    : metal
  Current step  : 100003
  Time step     : 0.001
Per MPI rank memory allocation (min/avg/max) = 18.21 | 18.21 | 18.21 Mbytes
Step Temp Press TotEng PotEng Enthalpy 
  100003    1995.3126    678.21261   -52748.624     -57816.9   -52567.972 
  100005    1995.9079     671.3144   -52748.621   -57818.409   -52569.806 
  100498    1977.2829   -180.07775   -52887.245   -57909.724   -52935.122 
Loop time of 88.6496 on 1 procs for 495 steps with 19652 atoms

Performance: 0.482 ns/day, 49.747 hours/ns, 5.584 timesteps/s
86.5% CPU use with 1 MPI tasks x no OpenMP threads

MPI task timing breakdown:
Section |  min time  |  avg time  |  max time  |%varavg| %total
---------------------------------------------------------------
Pair    | 47.112     | 47.112     | 47.112     |   0.0 | 53.14
Neigh   | 39.515     | 39.515     | 39.515     |   0.0 | 44.57
Comm    | 0.65694    | 0.65694    | 0.65694    |   0.0 |  0.74
Output  | 0.15291    | 0.15291    | 0.15291    |   0.0 |  0.17
Modify  | 0.95952    | 0.95952    | 0.95952    |   0.0 |  1.08
Other   |            | 0.2534     |            |       |  0.29

Nlocal:    19652 ave 19652 max 19652 min
Histogram: 1 0 0 0 0 0 0 0 0 0
Nghost:    16559 ave 16559 max 16559 min
Histogram: 1 0 0 0 0 0 0 0 0 0
Neighs:    1.15998e+06 ave 1.15998e+06 max 1.15998e+06 min
Histogram: 1 0 0 0 0 0 0 0 0 0

Total # of neighbors = 1159976
Ave neighs/atom = 59.0258
Neighbor list builds = 495
Dangerous builds not checked
Setting up Verlet run ...
  Unit style    : metal
  Current step  : 100498
  Time step     : 0.001
Per MPI rank memory allocation (min/avg/max) = 18.21 | 18.21 | 18.21 Mbytes
Step Temp Press TotEng PotEng Enthalpy 
  100498    1977.2829   -180.07775   -52887.245   -57909.724   -52935.122 
  106670    1947.9995    -412.0446   -52992.135   -57940.231   -53101.564 
Loop time of 1156.51 on 1 procs for 6172 steps with 19652 atoms

Performance: 0.461 ns/day, 52.050 hours/ns, 5.337 timesteps/s
83.6% CPU use with 1 MPI tasks x no OpenMP threads

MPI task timing breakdown:
Section |  min time  |  avg time  |  max time  |%varavg| %total
---------------------------------------------------------------
Pair    | 620.48     | 620.48     | 620.48     |   0.0 | 53.65
Neigh   | 512.48     | 512.48     | 512.48     |   0.0 | 44.31
Comm    | 8.7379     | 8.7379     | 8.7379     |   0.0 |  0.76
Output  | 0.00023293 | 0.00023293 | 0.00023293 |   0.0 |  0.00
Modify  | 11.753     | 11.753     | 11.753     |   0.0 |  1.02
Other   |            | 3.056      |            |       |  0.26

Nlocal:    19652 ave 19652 max 19652 min
Histogram: 1 0 0 0 0 0 0 0 0 0
Nghost:    16542 ave 16542 max 16542 min
Histogram: 1 0 0 0 0 0 0 0 0 0
Neighs:    1.16161e+06 ave 1.16161e+06 max 1.16161e+06 min
Histogram: 1 0 0 0 0 0 0 0 0 0

Total # of neighbors = 1161607
Ave neighs/atom = 59.1088
Neighbor list builds = 6172
Dangerous builds not checked
Setting up Verlet run ...
  Unit style    : metal
  Current step  : 106670
  Time step     : 0.001
Per MPI rank memory allocation (min/avg/max) = 18.21 | 18.21 | 18.21 Mbytes
Step Temp Press TotEng PotEng Enthalpy 
  106670    1947.9995    -412.0446   -52992.135   -57940.231   -53101.564 
  106672    1948.7354   -418.40331   -52992.138   -57942.104   -53103.256 
  107165    1899.4814    1316.5881   -53187.026   -58011.882   -52839.331 
Loop time of 91.8484 on 1 procs for 495 steps with 19652 atoms

Performance: 0.466 ns/day, 51.542 hours/ns, 5.389 timesteps/s
80.5% CPU use with 1 MPI tasks x no OpenMP threads

MPI task timing breakdown:
Section |  min time  |  avg time  |  max time  |%varavg| %total
---------------------------------------------------------------
Pair    | 48.8       | 48.8       | 48.8       |   0.0 | 53.13
Neigh   | 41.022     | 41.022     | 41.022     |   0.0 | 44.66
Comm    | 0.69808    | 0.69808    | 0.69808    |   0.0 |  0.76
Output  | 0.067377   | 0.067377   | 0.067377   |   0.0 |  0.07
Modify  | 0.99498    | 0.99498    | 0.99498    |   0.0 |  1.08
Other   |            | 0.266      |            |       |  0.29

Nlocal:    19652 ave 19652 max 19652 min
Histogram: 1 0 0 0 0 0 0 0 0 0
Nghost:    16655 ave 16655 max 16655 min
Histogram: 1 0 0 0 0 0 0 0 0 0
Neighs:    1.16796e+06 ave 1.16796e+06 max 1.16796e+06 min
Histogram: 1 0 0 0 0 0 0 0 0 0

Total # of neighbors = 1167955
Ave neighs/atom = 59.4319
Neighbor list builds = 495
Dangerous builds not checked
Setting up Verlet run ...
  Unit style    : metal
  Current step  : 107165
  Time step     : 0.001
Per MPI rank memory allocation (min/avg/max) = 18.21 | 18.21 | 18.21 Mbytes
Step Temp Press TotEng PotEng Enthalpy 
  107165    1899.4814    1316.5881   -53187.026   -58011.882   -52839.331 
  113337    1899.4511   -341.94868   -53184.706   -58009.485   -53275.323 
Loop time of 1125.27 on 1 procs for 6172 steps with 19652 atoms

Performance: 0.474 ns/day, 50.644 hours/ns, 5.485 timesteps/s
85.5% CPU use with 1 MPI tasks x no OpenMP threads

MPI task timing breakdown:
Section |  min time  |  avg time  |  max time  |%varavg| %total
---------------------------------------------------------------
Pair    | 605.64     | 605.64     | 605.64     |   0.0 | 53.82
Neigh   | 496.6      | 496.6      | 496.6      |   0.0 | 44.13
Comm    | 8.6724     | 8.6724     | 8.6724     |   0.0 |  0.77
Output  | 0.00019503 | 0.00019503 | 0.00019503 |   0.0 |  0.00
Modify  | 11.325     | 11.325     | 11.325     |   0.0 |  1.01
Other   |            | 3.038      |            |       |  0.27

Nlocal:    19652 ave 19652 max 19652 min
Histogram: 1 0 0 0 0 0 0 0 0 0
Nghost:    16527 ave 16527 max 16527 min
Histogram: 1 0 0 0 0 0 0 0 0 0
Neighs:    1.16355e+06 ave 1.16355e+06 max 1.16355e+06 min
Histogram: 1 0 0 0 0 0 0 0 0 0

Total # of neighbors = 1163554
Ave neighs/atom = 59.2079
Neighbor list builds = 6172
Dangerous builds not checked
Setting up Verlet run ...
  Unit style    : metal
  Current step  : 113337
  Time step     : 0.001
Per MPI rank memory allocation (min/avg/max) = 18.21 | 18.21 | 18.21 Mbytes
Step Temp Press TotEng PotEng Enthalpy 
  113337    1899.4511   -341.94868   -53184.706   -58009.485   -53275.323 
  113339     1900.262   -347.13612   -53184.712    -58011.55   -53276.703 
  113832    1856.9275    598.50125   -53438.228   -58154.994   -53280.729 
Loop time of 83.3733 on 1 procs for 495 steps with 19652 atoms

Performance: 0.513 ns/day, 46.786 hours/ns, 5.937 timesteps/s
91.2% CPU use with 1 MPI tasks x no OpenMP threads

MPI task timing breakdown:
Section |  min time  |  avg time  |  max time  |%varavg| %total
---------------------------------------------------------------
Pair    | 44.919     | 44.919     | 44.919     |   0.0 | 53.88
Neigh   | 36.592     | 36.592     | 36.592     |   0.0 | 43.89
Comm    | 0.66377    | 0.66377    | 0.66377    |   0.0 |  0.80
Output  | 0.065276   | 0.065276   | 0.065276   |   0.0 |  0.08
Modify  | 0.88416    | 0.88416    | 0.88416    |   0.0 |  1.06
Other   |            | 0.25       |            |       |  0.30

Nlocal:    19652 ave 19652 max 19652 min
Histogram: 1 0 0 0 0 0 0 0 0 0
Nghost:    16605 ave 16605 max 16605 min
Histogram: 1 0 0 0 0 0 0 0 0 0
Neighs:    1.17236e+06 ave 1.17236e+06 max 1.17236e+06 min
Histogram: 1 0 0 0 0 0 0 0 0 0

Total # of neighbors = 1172360
Ave neighs/atom = 59.656
Neighbor list builds = 495
Dangerous builds not checked
Setting up Verlet run ...
  Unit style    : metal
  Current step  : 113832
  Time step     : 0.001
Per MPI rank memory allocation (min/avg/max) = 18.21 | 18.21 | 18.21 Mbytes
Step Temp Press TotEng PotEng Enthalpy 
  113832    1856.9275    598.50125   -53438.228   -58154.994   -53280.729 
  120004    1851.4999    -873.5477   -53459.103   -58162.081   -53689.345 
Loop time of 1090.93 on 1 procs for 6172 steps with 19652 atoms

Performance: 0.489 ns/day, 49.098 hours/ns, 5.658 timesteps/s
90.2% CPU use with 1 MPI tasks x no OpenMP threads

MPI task timing breakdown:
Section |  min time  |  avg time  |  max time  |%varavg| %total
---------------------------------------------------------------
Pair    | 589.11     | 589.11     | 589.11     |   0.0 | 54.00
Neigh   | 479.46     | 479.46     | 479.46     |   0.0 | 43.95
Comm    | 8.4938     | 8.4938     | 8.4938     |   0.0 |  0.78
Output  | 0.00020814 | 0.00020814 | 0.00020814 |   0.0 |  0.00
Modify  | 10.921     | 10.921     | 10.921     |   0.0 |  1.00
Other   |            | 2.943      |            |       |  0.27

Nlocal:    19652 ave 19652 max 19652 min
Histogram: 1 0 0 0 0 0 0 0 0 0
Nghost:    16604 ave 16604 max 16604 min
Histogram: 1 0 0 0 0 0 0 0 0 0
Neighs:    1.17015e+06 ave 1.17015e+06 max 1.17015e+06 min
Histogram: 1 0 0 0 0 0 0 0 0 0

Total # of neighbors = 1170148
Ave neighs/atom = 59.5435
Neighbor list builds = 6172
Dangerous builds not checked
Setting up Verlet run ...
  Unit style    : metal
  Current step  : 120004
  Time step     : 0.001
Per MPI rank memory allocation (min/avg/max) = 18.21 | 18.21 | 18.21 Mbytes
Step Temp Press TotEng PotEng Enthalpy 
  120004    1851.4999    -873.5477   -53459.103   -58162.081   -53689.345 
  120006    1851.1641   -837.45959   -53459.109   -58161.234    -53679.84 
  120499    1800.4234    58.653156   -53723.297   -58296.537   -53707.943 
Loop time of 81.1906 on 1 procs for 495 steps with 19652 atoms

Performance: 0.527 ns/day, 45.561 hours/ns, 6.097 timesteps/s
93.4% CPU use with 1 MPI tasks x no OpenMP threads

MPI task timing breakdown:
Section |  min time  |  avg time  |  max time  |%varavg| %total
---------------------------------------------------------------
Pair    | 43.58      | 43.58      | 43.58      |   0.0 | 53.68
Neigh   | 35.784     | 35.784     | 35.784     |   0.0 | 44.07
Comm    | 0.63939    | 0.63939    | 0.63939    |   0.0 |  0.79
Output  | 0.12125    | 0.12125    | 0.12125    |   0.0 |  0.15
Modify  | 0.8347     | 0.8347     | 0.8347     |   0.0 |  1.03
Other   |            | 0.2311     |            |       |  0.28

Nlocal:    19652 ave 19652 max 19652 min
Histogram: 1 0 0 0 0 0 0 0 0 0
Nghost:    16645 ave 16645 max 16645 min
Histogram: 1 0 0 0 0 0 0 0 0 0
Neighs:    1.17846e+06 ave 1.17846e+06 max 1.17846e+06 min
Histogram: 1 0 0 0 0 0 0 0 0 0

Total # of neighbors = 1178456
Ave neighs/atom = 59.9662
Neighbor list builds = 495
Dangerous builds not checked
Setting up Verlet run ...
  Unit style    : metal
  Current step  : 120499
  Time step     : 0.001
Per MPI rank memory allocation (min/avg/max) = 18.21 | 18.21 | 18.21 Mbytes
Step Temp Press TotEng PotEng Enthalpy 
  120499    1800.4234    58.653156   -53723.297   -58296.537   -53707.943 
  126671    1802.6191    1288.5099   -53800.502   -58379.319   -53464.722 
Loop time of 1106.75 on 1 procs for 6172 steps with 19652 atoms

Performance: 0.482 ns/day, 49.810 hours/ns, 5.577 timesteps/s
89.5% CPU use with 1 MPI tasks x no OpenMP threads

MPI task timing breakdown:
Section |  min time  |  avg time  |  max time  |%varavg| %total
---------------------------------------------------------------
Pair    | 599.51     | 599.51     | 599.51     |   0.0 | 54.17
Neigh   | 484.56     | 484.56     | 484.56     |   0.0 | 43.78
Comm    | 8.5086     | 8.5086     | 8.5086     |   0.0 |  0.77
Output  | 0.00028682 | 0.00028682 | 0.00028682 |   0.0 |  0.00
Modify  | 11.188     | 11.188     | 11.188     |   0.0 |  1.01
Other   |            | 2.98       |            |       |  0.27

Nlocal:    19652 ave 19652 max 19652 min
Histogram: 1 0 0 0 0 0 0 0 0 0
Nghost:    16735 ave 16735 max 16735 min
Histogram: 1 0 0 0 0 0 0 0 0 0
Neighs:    1.18334e+06 ave 1.18334e+06 max 1.18334e+06 min
Histogram: 1 0 0 0 0 0 0 0 0 0

Total # of neighbors = 1183338
Ave neighs/atom = 60.2146
Neighbor list builds = 6172
Dangerous builds not checked
Setting up Verlet run ...
  Unit style    : metal
  Current step  : 126671
  Time step     : 0.001
Per MPI rank memory allocation (min/avg/max) = 18.21 | 18.21 | 18.21 Mbytes
Step Temp Press TotEng PotEng Enthalpy 
  126671    1802.6191    1288.5099   -53800.502   -58379.319   -53464.722 
  126673    1801.3295    1306.8988   -53800.501   -58376.042   -53459.929 
  127166    1755.2603    1493.1496   -53947.616   -58406.138   -53559.156 
Loop time of 81.4099 on 1 procs for 495 steps with 19652 atoms

Performance: 0.525 ns/day, 45.685 hours/ns, 6.080 timesteps/s
92.4% CPU use with 1 MPI tasks x no OpenMP threads

MPI task timing breakdown:
Section |  min time  |  avg time  |  max time  |%varavg| %total
---------------------------------------------------------------
Pair    | 43.377     | 43.377     | 43.377     |   0.0 | 53.28
Neigh   | 36.214     | 36.214     | 36.214     |   0.0 | 44.48
Comm    | 0.64144    | 0.64144    | 0.64144    |   0.0 |  0.79
Output  | 0.069096   | 0.069096   | 0.069096   |   0.0 |  0.08
Modify  | 0.87145    | 0.87145    | 0.87145    |   0.0 |  1.07
Other   |            | 0.2365     |            |       |  0.29

Nlocal:    19652 ave 19652 max 19652 min
Histogram: 1 0 0 0 0 0 0 0 0 0
Nghost:    16719 ave 16719 max 16719 min
Histogram: 1 0 0 0 0 0 0 0 0 0
Neighs:    1.18601e+06 ave 1.18601e+06 max 1.18601e+06 min
Histogram: 1 0 0 0 0 0 0 0 0 0

Total # of neighbors = 1186007
Ave neighs/atom = 60.3504
Neighbor list builds = 495
Dangerous builds not checked
Setting up Verlet run ...
  Unit style    : metal
  Current step  : 127166
  Time step     : 0.001
Per MPI rank memory allocation (min/avg/max) = 18.21 | 18.21 | 18.21 Mbytes
Step Temp Press TotEng PotEng Enthalpy 
  127166    1755.2603    1493.1496   -53947.616   -58406.138   -53559.156 
  133338     1744.611   -1132.7245   -54035.354   -58466.825   -54330.736 
Loop time of 937.916 on 1 procs for 6172 steps with 19652 atoms

Performance: 0.569 ns/day, 42.212 hours/ns, 6.581 timesteps/s
99.5% CPU use with 1 MPI tasks x no OpenMP threads

MPI task timing breakdown:
Section |  min time  |  avg time  |  max time  |%varavg| %total
---------------------------------------------------------------
Pair    | 505.13     | 505.13     | 505.13     |   0.0 | 53.86
Neigh   | 413.34     | 413.34     | 413.34     |   0.0 | 44.07
Comm    | 7.4122     | 7.4122     | 7.4122     |   0.0 |  0.79
Output  | 0.00033379 | 0.00033379 | 0.00033379 |   0.0 |  0.00
Modify  | 9.4738     | 9.4738     | 9.4738     |   0.0 |  1.01
Other   |            | 2.557      |            |       |  0.27

Nlocal:    19652 ave 19652 max 19652 min
Histogram: 1 0 0 0 0 0 0 0 0 0
Nghost:    16739 ave 16739 max 16739 min
Histogram: 1 0 0 0 0 0 0 0 0 0
Neighs:    1.18333e+06 ave 1.18333e+06 max 1.18333e+06 min
Histogram: 1 0 0 0 0 0 0 0 0 0

Total # of neighbors = 1183326
Ave neighs/atom = 60.214
Neighbor list builds = 6172
Dangerous builds not checked
Setting up Verlet run ...
  Unit style    : metal
  Current step  : 133338
  Time step     : 0.001
Per MPI rank memory allocation (min/avg/max) = 18.21 | 18.21 | 18.21 Mbytes
Step Temp Press TotEng PotEng Enthalpy 
  133338     1744.611   -1132.7245   -54035.354   -58466.825   -54330.736 
  133340    1744.6651   -1137.0699   -54035.348   -58466.957   -54331.863 
  133833    1704.6608    146.65482   -54238.188   -58568.181   -54200.155 
Loop time of 69.4663 on 1 procs for 495 steps with 19652 atoms

Performance: 0.616 ns/day, 38.982 hours/ns, 7.126 timesteps/s
99.6% CPU use with 1 MPI tasks x no OpenMP threads

MPI task timing breakdown:
Section |  min time  |  avg time  |  max time  |%varavg| %total
---------------------------------------------------------------
Pair    | 36.869     | 36.869     | 36.869     |   0.0 | 53.07
Neigh   | 31.052     | 31.052     | 31.052     |   0.0 | 44.70
Comm    | 0.54271    | 0.54271    | 0.54271    |   0.0 |  0.78
Output  | 0.082997   | 0.082997   | 0.082997   |   0.0 |  0.12
Modify  | 0.72667    | 0.72667    | 0.72667    |   0.0 |  1.05
Other   |            | 0.1937     |            |       |  0.28

Nlocal:    19652 ave 19652 max 19652 min
Histogram: 1 0 0 0 0 0 0 0 0 0
Nghost:    16654 ave 16654 max 16654 min
Histogram: 1 0 0 0 0 0 0 0 0 0
Neighs:    1.18981e+06 ave 1.18981e+06 max 1.18981e+06 min
Histogram: 1 0 0 0 0 0 0 0 0 0

Total # of neighbors = 1189810
Ave neighs/atom = 60.544
Neighbor list builds = 495
Dangerous builds not checked
Setting up Verlet run ...
  Unit style    : metal
  Current step  : 133833
  Time step     : 0.001
Per MPI rank memory allocation (min/avg/max) = 18.21 | 18.21 | 18.21 Mbytes
Step Temp Press TotEng PotEng Enthalpy 
  133833    1704.6608    146.65482   -54238.188   -58568.181   -54200.155 
  140005    1704.1089   -1029.0304   -54287.192   -58615.784   -54554.041 
Loop time of 917.965 on 1 procs for 6172 steps with 19652 atoms

Performance: 0.581 ns/day, 41.314 hours/ns, 6.724 timesteps/s
99.8% CPU use with 1 MPI tasks x no OpenMP threads

MPI task timing breakdown:
Section |  min time  |  avg time  |  max time  |%varavg| %total
---------------------------------------------------------------
Pair    | 494.87     | 494.87     | 494.87     |   0.0 | 53.91
Neigh   | 404.16     | 404.16     | 404.16     |   0.0 | 44.03
Comm    | 7.192      | 7.192      | 7.192      |   0.0 |  0.78
Output  | 0.00020194 | 0.00020194 | 0.00020194 |   0.0 |  0.00
Modify  | 9.2675     | 9.2675     | 9.2675     |   0.0 |  1.01
Other   |            | 2.475      |            |       |  0.27

Nlocal:    19652 ave 19652 max 19652 min
Histogram: 1 0 0 0 0 0 0 0 0 0
Nghost:    16730 ave 16730 max 16730 min
Histogram: 1 0 0 0 0 0 0 0 0 0
Neighs:    1.18976e+06 ave 1.18976e+06 max 1.18976e+06 min
Histogram: 1 0 0 0 0 0 0 0 0 0

Total # of neighbors = 1189757
Ave neighs/atom = 60.5413
Neighbor list builds = 6172
Dangerous builds not checked
Setting up Verlet run ...
  Unit style    : metal
  Current step  : 140005
  Time step     : 0.001
Per MPI rank memory allocation (min/avg/max) = 18.21 | 18.21 | 18.21 Mbytes
Step Temp Press TotEng PotEng Enthalpy 
  140005    1704.1089   -1029.0304   -54287.192   -58615.784   -54554.041 
  140007    1704.1721   -1042.0252   -54287.195   -58615.948   -54557.414 
  140500     1664.166   -103.60351   -54528.726   -58755.859   -54555.415 
Loop time of 71.5055 on 1 procs for 495 steps with 19652 atoms

Performance: 0.598 ns/day, 40.127 hours/ns, 6.923 timesteps/s
99.4% CPU use with 1 MPI tasks x no OpenMP threads

MPI task timing breakdown:
Section |  min time  |  avg time  |  max time  |%varavg| %total
---------------------------------------------------------------
Pair    | 38.186     | 38.186     | 38.186     |   0.0 | 53.40
Neigh   | 31.745     | 31.745     | 31.745     |   0.0 | 44.40
Comm    | 0.56856    | 0.56856    | 0.56856    |   0.0 |  0.80
Output  | 0.066112   | 0.066112   | 0.066112   |   0.0 |  0.09
Modify  | 0.74209    | 0.74209    | 0.74209    |   0.0 |  1.04
Other   |            | 0.1969     |            |       |  0.28

Nlocal:    19652 ave 19652 max 19652 min
Histogram: 1 0 0 0 0 0 0 0 0 0
Nghost:    16724 ave 16724 max 16724 min
Histogram: 1 0 0 0 0 0 0 0 0 0
Neighs:    1.19836e+06 ave 1.19836e+06 max 1.19836e+06 min
Histogram: 1 0 0 0 0 0 0 0 0 0

Total # of neighbors = 1198359
Ave neighs/atom = 60.979
Neighbor list builds = 495
Dangerous builds not checked
Setting up Verlet run ...
  Unit style    : metal
  Current step  : 140500
  Time step     : 0.001
Per MPI rank memory allocation (min/avg/max) = 18.21 | 18.21 | 18.21 Mbytes
Step Temp Press TotEng PotEng Enthalpy 
  140500     1664.166   -103.60351   -54528.726   -58755.859   -54555.415 
  146672    1654.4943    112.92622   -54550.502   -58753.068    -54521.42 
Loop time of 955.678 on 1 procs for 6172 steps with 19652 atoms

Performance: 0.558 ns/day, 43.011 hours/ns, 6.458 timesteps/s
99.8% CPU use with 1 MPI tasks x no OpenMP threads

MPI task timing breakdown:
Section |  min time  |  avg time  |  max time  |%varavg| %total
---------------------------------------------------------------
Pair    | 519.64     | 519.64     | 519.64     |   0.0 | 54.37
Neigh   | 416.24     | 416.24     | 416.24     |   0.0 | 43.55
Comm    | 7.4989     | 7.4989     | 7.4989     |   0.0 |  0.78
Output  | 0.00021386 | 0.00021386 | 0.00021386 |   0.0 |  0.00
Modify  | 9.6819     | 9.6819     | 9.6819     |   0.0 |  1.01
Other   |            | 2.615      |            |       |  0.27

Nlocal:    19652 ave 19652 max 19652 min
Histogram: 1 0 0 0 0 0 0 0 0 0
Nghost:    16724 ave 16724 max 16724 min
Histogram: 1 0 0 0 0 0 0 0 0 0
Neighs:    1.19908e+06 ave 1.19908e+06 max 1.19908e+06 min
Histogram: 1 0 0 0 0 0 0 0 0 0

Total # of neighbors = 1199081
Ave neighs/atom = 61.0157
Neighbor list builds = 6172
Dangerous builds not checked
Setting up Verlet run ...
  Unit style    : metal
  Current step  : 146672
  Time step     : 0.001
Per MPI rank memory allocation (min/avg/max) = 18.21 | 18.21 | 18.21 Mbytes
Step Temp Press TotEng PotEng Enthalpy 
  146672    1654.4943    112.92622   -54550.502   -58753.068    -54521.42 
  146674    1654.2615    112.16823   -54550.505    -58752.48   -54521.618 
  147167     1608.149    472.14356   -54772.097   -58856.942   -54651.065 
Loop time of 74.3782 on 1 procs for 495 steps with 19652 atoms

Performance: 0.575 ns/day, 41.739 hours/ns, 6.655 timesteps/s
99.7% CPU use with 1 MPI tasks x no OpenMP threads

MPI task timing breakdown:
Section |  min time  |  avg time  |  max time  |%varavg| %total
---------------------------------------------------------------
Pair    | 39.902     | 39.902     | 39.902     |   0.0 | 53.65
Neigh   | 32.785     | 32.785     | 32.785     |   0.0 | 44.08
Comm    | 0.60648    | 0.60648    | 0.60648    |   0.0 |  0.82
Output  | 0.070561   | 0.070561   | 0.070561   |   0.0 |  0.09
Modify  | 0.79749    | 0.79749    | 0.79749    |   0.0 |  1.07
Other   |            | 0.2174     |            |       |  0.29

Nlocal:    19652 ave 19652 max 19652 min
Histogram: 1 0 0 0 0 0 0 0 0 0
Nghost:    16713 ave 16713 max 16713 min
Histogram: 1 0 0 0 0 0 0 0 0 0
Neighs:    1.20386e+06 ave 1.20386e+06 max 1.20386e+06 min
Histogram: 1 0 0 0 0 0 0 0 0 0

Total # of neighbors = 1203856
Ave neighs/atom = 61.2587
Neighbor list builds = 495
Dangerous builds not checked
Setting up Verlet run ...
  Unit style    : metal
  Current step  : 147167
  Time step     : 0.001
Per MPI rank memory allocation (min/avg/max) = 18.21 | 18.21 | 18.21 Mbytes
Step Temp Press TotEng PotEng Enthalpy 
  147167     1608.149    472.14356   -54772.097   -58856.942   -54651.065 
  153339    1599.0566    493.54421   -54810.788   -58872.537   -54684.394 
Loop time of 952.261 on 1 procs for 6172 steps with 19652 atoms

Performance: 0.560 ns/day, 42.858 hours/ns, 6.481 timesteps/s
99.8% CPU use with 1 MPI tasks x no OpenMP threads

MPI task timing breakdown:
Section |  min time  |  avg time  |  max time  |%varavg| %total
---------------------------------------------------------------
Pair    | 517.26     | 517.26     | 517.26     |   0.0 | 54.32
Neigh   | 415.26     | 415.26     | 415.26     |   0.0 | 43.61
Comm    | 7.5031     | 7.5031     | 7.5031     |   0.0 |  0.79
Output  | 0.00023198 | 0.00023198 | 0.00023198 |   0.0 |  0.00
Modify  | 9.634      | 9.634      | 9.634      |   0.0 |  1.01
Other   |            | 2.602      |            |       |  0.27

Nlocal:    19652 ave 19652 max 19652 min
Histogram: 1 0 0 0 0 0 0 0 0 0
Nghost:    16798 ave 16798 max 16798 min
Histogram: 1 0 0 0 0 0 0 0 0 0
Neighs:    1.20517e+06 ave 1.20517e+06 max 1.20517e+06 min
Histogram: 1 0 0 0 0 0 0 0 0 0

Total # of neighbors = 1205174
Ave neighs/atom = 61.3258
Neighbor list builds = 6172
Dangerous builds not checked
Setting up Verlet run ...
  Unit style    : metal
  Current step  : 153339
  Time step     : 0.001
Per MPI rank memory allocation (min/avg/max) = 18.21 | 18.21 | 18.21 Mbytes
Step Temp Press TotEng PotEng Enthalpy 
  153339    1599.0566    493.54421   -54810.788   -58872.537   -54684.394 
  153341    1599.1658    520.52665   -54810.791   -58872.818   -54677.487 
  153834    1565.0378    688.47566   -55035.851    -59011.19   -54860.421 
Loop time of 74.0472 on 1 procs for 495 steps with 19652 atoms

Performance: 0.578 ns/day, 41.553 hours/ns, 6.685 timesteps/s
99.9% CPU use with 1 MPI tasks x no OpenMP threads

MPI task timing breakdown:
Section |  min time  |  avg time  |  max time  |%varavg| %total
---------------------------------------------------------------
Pair    | 40.038     | 40.038     | 40.038     |   0.0 | 54.07
Neigh   | 32.372     | 32.372     | 32.372     |   0.0 | 43.72
Comm    | 0.59151    | 0.59151    | 0.59151    |   0.0 |  0.80
Output  | 0.06864    | 0.06864    | 0.06864    |   0.0 |  0.09
Modify  | 0.77152    | 0.77152    | 0.77152    |   0.0 |  1.04
Other   |            | 0.2058     |            |       |  0.28

Nlocal:    19652 ave 19652 max 19652 min
Histogram: 1 0 0 0 0 0 0 0 0 0
Nghost:    16853 ave 16853 max 16853 min
Histogram: 1 0 0 0 0 0 0 0 0 0
Neighs:    1.21157e+06 ave 1.21157e+06 max 1.21157e+06 min
Histogram: 1 0 0 0 0 0 0 0 0 0

Total # of neighbors = 1211572
Ave neighs/atom = 61.6513
Neighbor list builds = 495
Dangerous builds not checked
Setting up Verlet run ...
  Unit style    : metal
  Current step  : 153834
  Time step     : 0.001
Per MPI rank memory allocation (min/avg/max) = 18.21 | 18.21 | 18.21 Mbytes
Step Temp Press TotEng PotEng Enthalpy 
  153834    1565.0378    688.47566   -55035.851    -59011.19   -54860.421 
  160006    1525.7307   -991.32124   -55213.201   -59088.695   -55465.773 
Loop time of 987.887 on 1 procs for 6172 steps with 19652 atoms

Performance: 0.540 ns/day, 44.461 hours/ns, 6.248 timesteps/s
99.6% CPU use with 1 MPI tasks x no OpenMP threads

MPI task timing breakdown:
Section |  min time  |  avg time  |  max time  |%varavg| %total
---------------------------------------------------------------
Pair    | 542.14     | 542.14     | 542.14     |   0.0 | 54.88
Neigh   | 425.22     | 425.22     | 425.22     |   0.0 | 43.04
Comm    | 7.8224     | 7.8224     | 7.8224     |   0.0 |  0.79
Output  | 0.00019598 | 0.00019598 | 0.00019598 |   0.0 |  0.00
Modify  | 9.9831     | 9.9831     | 9.9831     |   0.0 |  1.01
Other   |            | 2.722      |            |       |  0.28

Nlocal:    19652 ave 19652 max 19652 min
Histogram: 1 0 0 0 0 0 0 0 0 0
Nghost:    16872 ave 16872 max 16872 min
Histogram: 1 0 0 0 0 0 0 0 0 0
Neighs:    1.21168e+06 ave 1.21168e+06 max 1.21168e+06 min
Histogram: 1 0 0 0 0 0 0 0 0 0

Total # of neighbors = 1211683
Ave neighs/atom = 61.657
Neighbor list builds = 6172
Dangerous builds not checked
Setting up Verlet run ...
  Unit style    : metal
  Current step  : 160006
  Time step     : 0.001
Per MPI rank memory allocation (min/avg/max) = 18.21 | 18.21 | 18.21 Mbytes
Step Temp Press TotEng PotEng Enthalpy 
  160006    1525.7307   -991.32124   -55213.201   -59088.695   -55465.773 
  160008     1526.105   -1015.4875   -55213.175    -59089.62   -55471.904 
  160501    1515.5785   -13.283335   -55313.571   -59163.278   -55316.943 
Loop time of 78.7286 on 1 procs for 495 steps with 19652 atoms

Performance: 0.543 ns/day, 44.180 hours/ns, 6.287 timesteps/s
99.8% CPU use with 1 MPI tasks x no OpenMP threads

MPI task timing breakdown:
Section |  min time  |  avg time  |  max time  |%varavg| %total
---------------------------------------------------------------
Pair    | 43.02      | 43.02      | 43.02      |   0.0 | 54.64
Neigh   | 33.952     | 33.952     | 33.952     |   0.0 | 43.12
Comm    | 0.64134    | 0.64134    | 0.64134    |   0.0 |  0.81
Output  | 0.060666   | 0.060666   | 0.060666   |   0.0 |  0.08
Modify  | 0.83099    | 0.83099    | 0.83099    |   0.0 |  1.06
Other   |            | 0.2243     |            |       |  0.28

Nlocal:    19652 ave 19652 max 19652 min
Histogram: 1 0 0 0 0 0 0 0 0 0
Nghost:    16871 ave 16871 max 16871 min
Histogram: 1 0 0 0 0 0 0 0 0 0
Neighs:    1.21618e+06 ave 1.21618e+06 max 1.21618e+06 min
Histogram: 1 0 0 0 0 0 0 0 0 0

Total # of neighbors = 1216180
Ave neighs/atom = 61.8858
Neighbor list builds = 495
Dangerous builds not checked
Setting up Verlet run ...
  Unit style    : metal
  Current step  : 160501
  Time step     : 0.001
Per MPI rank memory allocation (min/avg/max) = 18.21 | 18.21 | 18.21 Mbytes
Step Temp Press TotEng PotEng Enthalpy 
  160501    1515.5785   -13.283335   -55313.571   -59163.278   -55316.943 
  166673    1510.5523   -298.41255   -55387.157   -59224.098   -55462.757 
Loop time of 1004.56 on 1 procs for 6172 steps with 19652 atoms

Performance: 0.531 ns/day, 45.211 hours/ns, 6.144 timesteps/s
99.9% CPU use with 1 MPI tasks x no OpenMP threads

MPI task timing breakdown:
Section |  min time  |  avg time  |  max time  |%varavg| %total
---------------------------------------------------------------
Pair    | 555.28     | 555.28     | 555.28     |   0.0 | 55.28
Neigh   | 428.45     | 428.45     | 428.45     |   0.0 | 42.65
Comm    | 7.9631     | 7.9631     | 7.9631     |   0.0 |  0.79
Output  | 0.00023508 | 0.00023508 | 0.00023508 |   0.0 |  0.00
Modify  | 10.102     | 10.102     | 10.102     |   0.0 |  1.01
Other   |            | 2.77       |            |       |  0.28

Nlocal:    19652 ave 19652 max 19652 min
Histogram: 1 0 0 0 0 0 0 0 0 0
Nghost:    16929 ave 16929 max 16929 min
Histogram: 1 0 0 0 0 0 0 0 0 0
Neighs:    1.21874e+06 ave 1.21874e+06 max 1.21874e+06 min
Histogram: 1 0 0 0 0 0 0 0 0 0

Total # of neighbors = 1218738
Ave neighs/atom = 62.016
Neighbor list builds = 6172
Dangerous builds not checked
Setting up Verlet run ...
  Unit style    : metal
  Current step  : 166673
  Time step     : 0.001
Per MPI rank memory allocation (min/avg/max) = 18.21 | 18.21 | 18.21 Mbytes
Step Temp Press TotEng PotEng Enthalpy 
  166673    1510.5523   -298.41255   -55387.157   -59224.098   -55462.757 
  166675    1509.1019   -260.91322   -55387.165   -59220.421   -55453.265 
  167168    1464.9546      478.728   -55604.565   -59325.683   -55483.959 
Loop time of 76.586 on 1 procs for 495 steps with 19652 atoms

Performance: 0.558 ns/day, 42.978 hours/ns, 6.463 timesteps/s
99.8% CPU use with 1 MPI tasks x no OpenMP threads

MPI task timing breakdown:
Section |  min time  |  avg time  |  max time  |%varavg| %total
---------------------------------------------------------------
Pair    | 41.838     | 41.838     | 41.838     |   0.0 | 54.63
Neigh   | 32.998     | 32.998     | 32.998     |   0.0 | 43.09
Comm    | 0.63318    | 0.63318    | 0.63318    |   0.0 |  0.83
Output  | 0.062793   | 0.062793   | 0.062793   |   0.0 |  0.08
Modify  | 0.82641    | 0.82641    | 0.82641    |   0.0 |  1.08
Other   |            | 0.2269     |            |       |  0.30

Nlocal:    19652 ave 19652 max 19652 min
Histogram: 1 0 0 0 0 0 0 0 0 0
Nghost:    16886 ave 16886 max 16886 min
Histogram: 1 0 0 0 0 0 0 0 0 0
Neighs:    1.22638e+06 ave 1.22638e+06 max 1.22638e+06 min
Histogram: 1 0 0 0 0 0 0 0 0 0

Total # of neighbors = 1226384
Ave neighs/atom = 62.405
Neighbor list builds = 495
Dangerous builds not checked
Setting up Verlet run ...
  Unit style    : metal
  Current step  : 167168
  Time step     : 0.001
Per MPI rank memory allocation (min/avg/max) = 18.21 | 18.21 | 18.21 Mbytes
Step Temp Press TotEng PotEng Enthalpy 
  167168    1464.9546      478.728   -55604.565   -59325.683   -55483.959 
  173340    1465.3345   -521.20893   -55643.706   -59365.789   -55775.035 
Loop time of 1014.69 on 1 procs for 6172 steps with 19652 atoms

Performance: 0.526 ns/day, 45.667 hours/ns, 6.083 timesteps/s
99.7% CPU use with 1 MPI tasks x no OpenMP threads

MPI task timing breakdown:
Section |  min time  |  avg time  |  max time  |%varavg| %total
---------------------------------------------------------------
Pair    | 562.65     | 562.65     | 562.65     |   0.0 | 55.45
Neigh   | 430.9      | 430.9      | 430.9      |   0.0 | 42.47
Comm    | 8.0794     | 8.0794     | 8.0794     |   0.0 |  0.80
Output  | 0.00021195 | 0.00021195 | 0.00021195 |   0.0 |  0.00
Modify  | 10.277     | 10.277     | 10.277     |   0.0 |  1.01
Other   |            | 2.77       |            |       |  0.27

Nlocal:    19652 ave 19652 max 19652 min
Histogram: 1 0 0 0 0 0 0 0 0 0
Nghost:    16965 ave 16965 max 16965 min
Histogram: 1 0 0 0 0 0 0 0 0 0
Neighs:    1.22616e+06 ave 1.22616e+06 max 1.22616e+06 min
Histogram: 1 0 0 0 0 0 0 0 0 0

Total # of neighbors = 1226161
Ave neighs/atom = 62.3937
Neighbor list builds = 6172
Dangerous builds not checked
Setting up Verlet run ...
  Unit style    : metal
  Current step  : 173340
  Time step     : 0.001
Per MPI rank memory allocation (min/avg/max) = 18.21 | 18.21 | 18.21 Mbytes
Step Temp Press TotEng PotEng Enthalpy 
  173340    1465.3345   -521.20893   -55643.706   -59365.789   -55775.035 
  173342    1464.5996   -496.94044    -55643.72   -59363.937   -55768.935 
  173835    1407.1023    112.62464   -55880.012    -59454.18   -55851.758 
Loop time of 80.382 on 1 procs for 495 steps with 19652 atoms

Performance: 0.532 ns/day, 45.108 hours/ns, 6.158 timesteps/s
99.9% CPU use with 1 MPI tasks x no OpenMP threads

MPI task timing breakdown:
Section |  min time  |  avg time  |  max time  |%varavg| %total
---------------------------------------------------------------
Pair    | 44.662     | 44.662     | 44.662     |   0.0 | 55.56
Neigh   | 33.891     | 33.891     | 33.891     |   0.0 | 42.16
Comm    | 0.67566    | 0.67566    | 0.67566    |   0.0 |  0.84
Output  | 0.067823   | 0.067823   | 0.067823   |   0.0 |  0.08
Modify  | 0.85532    | 0.85532    | 0.85532    |   0.0 |  1.06
Other   |            | 0.2302     |            |       |  0.29

Nlocal:    19652 ave 19652 max 19652 min
Histogram: 1 0 0 0 0 0 0 0 0 0
Nghost:    16936 ave 16936 max 16936 min
Histogram: 1 0 0 0 0 0 0 0 0 0
Neighs:    1.23151e+06 ave 1.23151e+06 max 1.23151e+06 min
Histogram: 1 0 0 0 0 0 0 0 0 0

Total # of neighbors = 1231506
Ave neighs/atom = 62.6657
Neighbor list builds = 495
Dangerous builds not checked
Setting up Verlet run ...
  Unit style    : metal
  Current step  : 173835
  Time step     : 0.001
Per MPI rank memory allocation (min/avg/max) = 18.21 | 18.21 | 18.21 Mbytes
Step Temp Press TotEng PotEng Enthalpy 
  173835    1407.1023    112.62464   -55880.012    -59454.18   -55851.758 
  180007    1411.9053    423.06835   -55959.011    -59545.38   -55853.284 
Loop time of 1054.56 on 1 procs for 6172 steps with 19652 atoms

Performance: 0.506 ns/day, 47.462 hours/ns, 5.853 timesteps/s
99.8% CPU use with 1 MPI tasks x no OpenMP threads

MPI task timing breakdown:
Section |  min time  |  avg time  |  max time  |%varavg| %total
---------------------------------------------------------------
Pair    | 587.56     | 587.56     | 587.56     |   0.0 | 55.72
Neigh   | 445.04     | 445.04     | 445.04     |   0.0 | 42.20
Comm    | 8.4127     | 8.4127     | 8.4127     |   0.0 |  0.80
Output  | 0.00022888 | 0.00022888 | 0.00022888 |   0.0 |  0.00
Modify  | 10.682     | 10.682     | 10.682     |   0.0 |  1.01
Other   |            | 2.862      |            |       |  0.27

Nlocal:    19652 ave 19652 max 19652 min
Histogram: 1 0 0 0 0 0 0 0 0 0
Nghost:    16944 ave 16944 max 16944 min
Histogram: 1 0 0 0 0 0 0 0 0 0
Neighs:    1.23666e+06 ave 1.23666e+06 max 1.23666e+06 min
Histogram: 1 0 0 0 0 0 0 0 0 0

Total # of neighbors = 1236656
Ave neighs/atom = 62.9277
Neighbor list builds = 6172
Dangerous builds not checked
Setting up Verlet run ...
  Unit style    : metal
  Current step  : 180007
  Time step     : 0.001
Per MPI rank memory allocation (min/avg/max) = 18.21 | 18.21 | 18.21 Mbytes
Step Temp Press TotEng PotEng Enthalpy 
  180007    1411.9053    423.06835   -55959.011    -59545.38   -55853.284 
  180009    1410.9561    462.86211   -55959.023    -59542.98    -55843.35 
  180502    1367.7788    778.30278   -56161.178   -59635.461   -55967.466 
Loop time of 83.2616 on 1 procs for 495 steps with 19652 atoms

Performance: 0.514 ns/day, 46.724 hours/ns, 5.945 timesteps/s
99.4% CPU use with 1 MPI tasks x no OpenMP threads

MPI task timing breakdown:
Section |  min time  |  avg time  |  max time  |%varavg| %total
---------------------------------------------------------------
Pair    | 46.316     | 46.316     | 46.316     |   0.0 | 55.63
Neigh   | 35.088     | 35.088     | 35.088     |   0.0 | 42.14
Comm    | 0.68449    | 0.68449    | 0.68449    |   0.0 |  0.82
Output  | 0.065703   | 0.065703   | 0.065703   |   0.0 |  0.08
Modify  | 0.87624    | 0.87624    | 0.87624    |   0.0 |  1.05
Other   |            | 0.231      |            |       |  0.28

Nlocal:    19652 ave 19652 max 19652 min
Histogram: 1 0 0 0 0 0 0 0 0 0
Nghost:    17001 ave 17001 max 17001 min
Histogram: 1 0 0 0 0 0 0 0 0 0
Neighs:    1.24186e+06 ave 1.24186e+06 max 1.24186e+06 min
Histogram: 1 0 0 0 0 0 0 0 0 0

Total # of neighbors = 1241863
Ave neighs/atom = 63.1927
Neighbor list builds = 495
Dangerous builds not checked
Setting up Verlet run ...
  Unit style    : metal
  Current step  : 180502
  Time step     : 0.001
Per MPI rank memory allocation (min/avg/max) = 18.21 | 18.21 | 18.21 Mbytes
Step Temp Press TotEng PotEng Enthalpy 
  180502    1367.7788    778.30278   -56161.178   -59635.461   -55967.466 
  186674    1359.0158   -560.88904   -56219.223   -59671.247   -56359.058 
Loop time of 1013.54 on 1 procs for 6172 steps with 19652 atoms

Performance: 0.526 ns/day, 45.616 hours/ns, 6.090 timesteps/s
99.9% CPU use with 1 MPI tasks x no OpenMP threads

MPI task timing breakdown:
Section |  min time  |  avg time  |  max time  |%varavg| %total
---------------------------------------------------------------
Pair    | 563.11     | 563.11     | 563.11     |   0.0 | 55.56
Neigh   | 429.36     | 429.36     | 429.36     |   0.0 | 42.36
Comm    | 8.0369     | 8.0369     | 8.0369     |   0.0 |  0.79
Output  | 0.00029302 | 0.00029302 | 0.00029302 |   0.0 |  0.00
Modify  | 10.268     | 10.268     | 10.268     |   0.0 |  1.01
Other   |            | 2.76       |            |       |  0.27

Nlocal:    19652 ave 19652 max 19652 min
Histogram: 1 0 0 0 0 0 0 0 0 0
Nghost:    16963 ave 16963 max 16963 min
Histogram: 1 0 0 0 0 0 0 0 0 0
Neighs:    1.23955e+06 ave 1.23955e+06 max 1.23955e+06 min
Histogram: 1 0 0 0 0 0 0 0 0 0

Total # of neighbors = 1239546
Ave neighs/atom = 63.0748
Neighbor list builds = 6172
Dangerous builds not checked
Setting up Verlet run ...
  Unit style    : metal
  Current step  : 186674
  Time step     : 0.001
Per MPI rank memory allocation (min/avg/max) = 18.21 | 18.21 | 18.21 Mbytes
Step Temp Press TotEng PotEng Enthalpy 
  186674    1359.0158   -560.88904   -56219.223   -59671.247   -56359.058 
  186676    1357.9804   -539.17458    -56219.23   -59668.624   -56353.651 
  187169    1315.1672   -253.38814   -56475.365   -59816.009   -56538.132 
Loop time of 80.387 on 1 procs for 495 steps with 19652 atoms

Performance: 0.532 ns/day, 45.111 hours/ns, 6.158 timesteps/s
95.8% CPU use with 1 MPI tasks x no OpenMP threads

MPI task timing breakdown:
Section |  min time  |  avg time  |  max time  |%varavg| %total
---------------------------------------------------------------
Pair    | 44.292     | 44.292     | 44.292     |   0.0 | 55.10
Neigh   | 34.295     | 34.295     | 34.295     |   0.0 | 42.66
Comm    | 0.65921    | 0.65921    | 0.65921    |   0.0 |  0.82
Output  | 0.058413   | 0.058413   | 0.058413   |   0.0 |  0.07
Modify  | 0.84546    | 0.84546    | 0.84546    |   0.0 |  1.05
Other   |            | 0.237      |            |       |  0.29

Nlocal:    19652 ave 19652 max 19652 min
Histogram: 1 0 0 0 0 0 0 0 0 0
Nghost:    17071 ave 17071 max 17071 min
Histogram: 1 0 0 0 0 0 0 0 0 0
Neighs:    1.24809e+06 ave 1.24809e+06 max 1.24809e+06 min
Histogram: 1 0 0 0 0 0 0 0 0 0

Total # of neighbors = 1248090
Ave neighs/atom = 63.5096
Neighbor list builds = 495
Dangerous builds not checked
Setting up Verlet run ...
  Unit style    : metal
  Current step  : 187169
  Time step     : 0.001
Per MPI rank memory allocation (min/avg/max) = 18.21 | 18.21 | 18.21 Mbytes
Step Temp Press TotEng PotEng Enthalpy 
  187169    1315.1672   -253.38814   -56475.365   -59816.009   -56538.132 
  193341    1311.3935    849.86304    -56518.79   -59849.849   -56308.893 
Loop time of 1011.12 on 1 procs for 6172 steps with 19652 atoms

Performance: 0.527 ns/day, 45.507 hours/ns, 6.104 timesteps/s
99.7% CPU use with 1 MPI tasks x no OpenMP threads

MPI task timing breakdown:
Section |  min time  |  avg time  |  max time  |%varavg| %total
---------------------------------------------------------------
Pair    | 563.82     | 563.82     | 563.82     |   0.0 | 55.76
Neigh   | 426.23     | 426.23     | 426.23     |   0.0 | 42.15
Comm    | 8.0397     | 8.0397     | 8.0397     |   0.0 |  0.80
Output  | 0.0002079  | 0.0002079  | 0.0002079  |   0.0 |  0.00
Modify  | 10.279     | 10.279     | 10.279     |   0.0 |  1.02
Other   |            | 2.752      |            |       |  0.27

Nlocal:    19652 ave 19652 max 19652 min
Histogram: 1 0 0 0 0 0 0 0 0 0
Nghost:    17071 ave 17071 max 17071 min
Histogram: 1 0 0 0 0 0 0 0 0 0
Neighs:    1.25166e+06 ave 1.25166e+06 max 1.25166e+06 min
Histogram: 1 0 0 0 0 0 0 0 0 0

Total # of neighbors = 1251662
Ave neighs/atom = 63.6913
Neighbor list builds = 6172
Dangerous builds not checked
Setting up Verlet run ...
  Unit style    : metal
  Current step  : 193341
  Time step     : 0.001
Per MPI rank memory allocation (min/avg/max) = 18.21 | 18.21 | 18.21 Mbytes
Step Temp Press TotEng PotEng Enthalpy 
  193341    1311.3935    849.86304    -56518.79   -59849.849   -56308.893 
  193343    1311.6561    852.96935   -56518.803   -59850.529   -56308.139 
  193836      1282.15    540.68659   -56717.597   -59974.375   -56584.613 
Loop time of 79.2006 on 1 procs for 495 steps with 19652 atoms

Performance: 0.540 ns/day, 44.445 hours/ns, 6.250 timesteps/s
99.9% CPU use with 1 MPI tasks x no OpenMP threads

MPI task timing breakdown:
Section |  min time  |  avg time  |  max time  |%varavg| %total
---------------------------------------------------------------
Pair    | 43.938     | 43.938     | 43.938     |   0.0 | 55.48
Neigh   | 33.477     | 33.477     | 33.477     |   0.0 | 42.27
Comm    | 0.65123    | 0.65123    | 0.65123    |   0.0 |  0.82
Output  | 0.065487   | 0.065487   | 0.065487   |   0.0 |  0.08
Modify  | 0.84646    | 0.84646    | 0.84646    |   0.0 |  1.07
Other   |            | 0.2229     |            |       |  0.28

Nlocal:    19652 ave 19652 max 19652 min
Histogram: 1 0 0 0 0 0 0 0 0 0
Nghost:    17112 ave 17112 max 17112 min
Histogram: 1 0 0 0 0 0 0 0 0 0
Neighs:    1.25661e+06 ave 1.25661e+06 max 1.25661e+06 min
Histogram: 1 0 0 0 0 0 0 0 0 0

Total # of neighbors = 1256614
Ave neighs/atom = 63.9433
Neighbor list builds = 495
Dangerous builds not checked
Setting up Verlet run ...
  Unit style    : metal
  Current step  : 193836
  Time step     : 0.001
Per MPI rank memory allocation (min/avg/max) = 18.21 | 18.21 | 18.21 Mbytes
Step Temp Press TotEng PotEng Enthalpy 
  193836      1282.15    540.68659   -56717.597   -59974.375   -56584.613 
  200008    1238.0337   -127.66516   -56909.045   -60053.764   -56940.391 
Loop time of 1009.06 on 1 procs for 6172 steps with 19652 atoms

Performance: 0.528 ns/day, 45.414 hours/ns, 6.117 timesteps/s
99.9% CPU use with 1 MPI tasks x no OpenMP threads

MPI task timing breakdown:
Section |  min time  |  avg time  |  max time  |%varavg| %total
---------------------------------------------------------------
Pair    | 562.4      | 562.4      | 562.4      |   0.0 | 55.74
Neigh   | 425.58     | 425.58     | 425.58     |   0.0 | 42.18
Comm    | 8.0717     | 8.0717     | 8.0717     |   0.0 |  0.80
Output  | 0.00030017 | 0.00030017 | 0.00030017 |   0.0 |  0.00
Modify  | 10.223     | 10.223     | 10.223     |   0.0 |  1.01
Other   |            | 2.78       |            |       |  0.28

Nlocal:    19652 ave 19652 max 19652 min
Histogram: 1 0 0 0 0 0 0 0 0 0
Nghost:    17090 ave 17090 max 17090 min
Histogram: 1 0 0 0 0 0 0 0 0 0
Neighs:    1.25953e+06 ave 1.25953e+06 max 1.25953e+06 min
Histogram: 1 0 0 0 0 0 0 0 0 0

Total # of neighbors = 1259531
Ave neighs/atom = 64.0917
Neighbor list builds = 6172
Dangerous builds not checked
Setting up Verlet run ...
  Unit style    : metal
  Current step  : 200008
  Time step     : 0.001
Per MPI rank memory allocation (min/avg/max) = 18.21 | 18.21 | 18.21 Mbytes
Step Temp Press TotEng PotEng Enthalpy 
  200008    1238.0337   -127.66516   -56909.045   -60053.764   -56940.391 
  200010    1237.9706   -134.62358   -56909.032    -60053.59   -56942.087 
  200503    1222.1684   -145.65114   -57036.479   -60140.898   -57072.108 
Loop time of 76.9102 on 1 procs for 495 steps with 19652 atoms

Performance: 0.556 ns/day, 43.159 hours/ns, 6.436 timesteps/s
99.9% CPU use with 1 MPI tasks x no OpenMP threads

MPI task timing breakdown:
Section |  min time  |  avg time  |  max time  |%varavg| %total
---------------------------------------------------------------
Pair    | 42.607     | 42.607     | 42.607     |   0.0 | 55.40
Neigh   | 32.631     | 32.631     | 32.631     |   0.0 | 42.43
Comm    | 0.61386    | 0.61386    | 0.61386    |   0.0 |  0.80
Output  | 0.050976   | 0.050976   | 0.050976   |   0.0 |  0.07
Modify  | 0.79161    | 0.79161    | 0.79161    |   0.0 |  1.03
Other   |            | 0.2164     |            |       |  0.28

Nlocal:    19652 ave 19652 max 19652 min
Histogram: 1 0 0 0 0 0 0 0 0 0
Nghost:    17110 ave 17110 max 17110 min
Histogram: 1 0 0 0 0 0 0 0 0 0
Neighs:    1.26471e+06 ave 1.26471e+06 max 1.26471e+06 min
Histogram: 1 0 0 0 0 0 0 0 0 0

Total # of neighbors = 1264709
Ave neighs/atom = 64.3552
Neighbor list builds = 495
Dangerous builds not checked
Setting up Verlet run ...
  Unit style    : metal
  Current step  : 200503
  Time step     : 0.001
Per MPI rank memory allocation (min/avg/max) = 18.21 | 18.21 | 18.21 Mbytes
Step Temp Press TotEng PotEng Enthalpy 
  200503    1222.1684   -145.65114   -57036.479   -60140.898   -57072.108 
  206675    1215.9417    57.515099   -57092.304   -60180.907   -57078.256 
Loop time of 1013.24 on 1 procs for 6172 steps with 19652 atoms

Performance: 0.526 ns/day, 45.602 hours/ns, 6.091 timesteps/s
99.5% CPU use with 1 MPI tasks x no OpenMP threads

MPI task timing breakdown:
Section |  min time  |  avg time  |  max time  |%varavg| %total
---------------------------------------------------------------
Pair    | 566.93     | 566.93     | 566.93     |   0.0 | 55.95
Neigh   | 425.18     | 425.18     | 425.18     |   0.0 | 41.96
Comm    | 8.0589     | 8.0589     | 8.0589     |   0.0 |  0.80
Output  | 0.00023508 | 0.00023508 | 0.00023508 |   0.0 |  0.00
Modify  | 10.318     | 10.318     | 10.318     |   0.0 |  1.02
Other   |            | 2.758      |            |       |  0.27

Nlocal:    19652 ave 19652 max 19652 min
Histogram: 1 0 0 0 0 0 0 0 0 0
Nghost:    17159 ave 17159 max 17159 min
Histogram: 1 0 0 0 0 0 0 0 0 0
Neighs:    1.26621e+06 ave 1.26621e+06 max 1.26621e+06 min
Histogram: 1 0 0 0 0 0 0 0 0 0

Total # of neighbors = 1266212
Ave neighs/atom = 64.4317
Neighbor list builds = 6172
Dangerous builds not checked
Setting up Verlet run ...
  Unit style    : metal
  Current step  : 206675
  Time step     : 0.001
[...]
92.2% CPU use with 1 MPI tasks x no OpenMP threads

MPI task timing breakdown:
Section |  min time  |  avg time  |  max time  |%varavg| %total
---------------------------------------------------------------
Pair    | 51.69      | 51.69      | 51.69      |   0.0 | 55.65
Neigh   | 39.271     | 39.271     | 39.271     |   0.0 | 42.28
Comm    | 0.70513    | 0.70513    | 0.70513    |   0.0 |  0.76
Output  | 0.063169   | 0.063169   | 0.063169   |   0.0 |  0.07
Modify  | 0.91262    | 0.91262    | 0.91262    |   0.0 |  0.98
Other   |            | 0.2453     |            |       |  0.26

Nlocal:    19652 ave 19652 max 19652 min
Histogram: 1 0 0 0 0 0 0 0 0 0
Nghost:    17982 ave 17982 max 17982 min
Histogram: 1 0 0 0 0 0 0 0 0 0
Neighs:    1.43467e+06 ave 1.43467e+06 max 1.43467e+06 min
Histogram: 1 0 0 0 0 0 0 0 0 0

Total # of neighbors = 1434671
Ave neighs/atom = 73.0038
Neighbor list builds = 495
Dangerous builds not checked
Setting up Verlet run ...
  Unit style    : metal
  Current step  : 307175
  Time step     : 0.001
Per MPI rank memory allocation (min/avg/max) = 18.21 | 18.21 | 18.21 Mbytes
Step Temp Press TotEng PotEng Enthalpy 
  307175    423.54321   -627.14083   -62370.383   -63446.221   -62506.062 
  313347    399.54866    479.97151   -62567.416   -63582.306   -62464.249 
Loop time of 1123.63 on 1 procs for 6172 steps with 19652 atoms

Performance: 0.475 ns/day, 50.570 hours/ns, 5.493 timesteps/s
95.0% CPU use with 1 MPI tasks x no OpenMP threads

MPI task timing breakdown:
Section |  min time  |  avg time  |  max time  |%varavg| %total
---------------------------------------------------------------
Pair    | 625.4      | 625.4      | 625.4      |   0.0 | 55.66
Neigh   | 475.26     | 475.26     | 475.26     |   0.0 | 42.30
Comm    | 8.8503     | 8.8503     | 8.8503     |   0.0 |  0.79
Output  | 0.00024295 | 0.00024295 | 0.00024295 |   0.0 |  0.00
Modify  | 11.167     | 11.167     | 11.167     |   0.0 |  0.99
Other   |            | 2.945      |            |       |  0.26

Nlocal:    19652 ave 19652 max 19652 min
Histogram: 1 0 0 0 0 0 0 0 0 0
Nghost:    18092 ave 18092 max 18092 min
Histogram: 1 0 0 0 0 0 0 0 0 0
Neighs:    1.4435e+06 ave 1.4435e+06 max 1.4435e+06 min
Histogram: 1 0 0 0 0 0 0 0 0 0

Total # of neighbors = 1443504
Ave neighs/atom = 73.4533
Neighbor list builds = 6172
Dangerous builds not checked
Setting up Verlet run ...
  Unit style    : metal
  Current step  : 313347
  Time step     : 0.001
Per MPI rank memory allocation (min/avg/max) = 18.21 | 18.21 | 18.21 Mbytes
Step Temp Press TotEng PotEng Enthalpy 
  313347    399.54866    479.97151   -62567.416   -63582.306   -62464.249 
  313349      399.166    488.23586   -62567.414   -63581.332   -62462.471 
  313842     371.9059    338.51659   -62713.556   -63658.231   -62640.973 
Loop time of 87.6588 on 1 procs for 495 steps with 19652 atoms

Performance: 0.488 ns/day, 49.191 hours/ns, 5.647 timesteps/s
95.5% CPU use with 1 MPI tasks x no OpenMP threads

MPI task timing breakdown:
Section |  min time  |  avg time  |  max time  |%varavg| %total
---------------------------------------------------------------
Pair    | 48.864     | 48.864     | 48.864     |   0.0 | 55.74
Neigh   | 36.959     | 36.959     | 36.959     |   0.0 | 42.16
Comm    | 0.66977    | 0.66977    | 0.66977    |   0.0 |  0.76
Output  | 0.063283   | 0.063283   | 0.063283   |   0.0 |  0.07
Modify  | 0.88357    | 0.88357    | 0.88357    |   0.0 |  1.01
Other   |            | 0.2195     |            |       |  0.25

Nlocal:    19652 ave 19652 max 19652 min
Histogram: 1 0 0 0 0 0 0 0 0 0
Nghost:    18074 ave 18074 max 18074 min
Histogram: 1 0 0 0 0 0 0 0 0 0
Neighs:    1.44686e+06 ave 1.44686e+06 max 1.44686e+06 min
Histogram: 1 0 0 0 0 0 0 0 0 0

Total # of neighbors = 1446863
Ave neighs/atom = 73.6242
Neighbor list builds = 495
Dangerous builds not checked
Setting up Verlet run ...
  Unit style    : metal
  Current step  : 313842
  Time step     : 0.001
Per MPI rank memory allocation (min/avg/max) = 18.21 | 18.21 | 18.21 Mbytes
Step Temp Press TotEng PotEng Enthalpy 
  313842     371.9059    338.51659   -62713.556   -63658.231   -62640.973 
  320014    350.89514   -171.64766   -62899.868   -63791.173   -62936.524 
Loop time of 1120.46 on 1 procs for 6172 steps with 19652 atoms

Performance: 0.476 ns/day, 50.428 hours/ns, 5.508 timesteps/s
94.6% CPU use with 1 MPI tasks x no OpenMP threads

MPI task timing breakdown:
Section |  min time  |  avg time  |  max time  |%varavg| %total
---------------------------------------------------------------
Pair    | 624.86     | 624.86     | 624.86     |   0.0 | 55.77
Neigh   | 472.69     | 472.69     | 472.69     |   0.0 | 42.19
Comm    | 8.7833     | 8.7833     | 8.7833     |   0.0 |  0.78
Output  | 0.000211   | 0.000211   | 0.000211   |   0.0 |  0.00
Modify  | 11.198     | 11.198     | 11.198     |   0.0 |  1.00
Other   |            | 2.934      |            |       |  0.26

Nlocal:    19652 ave 19652 max 19652 min
Histogram: 1 0 0 0 0 0 0 0 0 0
Nghost:    18144 ave 18144 max 18144 min
Histogram: 1 0 0 0 0 0 0 0 0 0
Neighs:    1.45198e+06 ave 1.45198e+06 max 1.45198e+06 min
Histogram: 1 0 0 0 0 0 0 0 0 0

Total # of neighbors = 1451980
Ave neighs/atom = 73.8846
Neighbor list builds = 6172
Dangerous builds not checked
Setting up Verlet run ...
  Unit style    : metal
  Current step  : 320014
  Time step     : 0.001
Per MPI rank memory allocation (min/avg/max) = 18.21 | 18.21 | 18.21 Mbytes
Step Temp Press TotEng PotEng Enthalpy 
  320014    350.89514   -171.64766   -62899.868   -63791.173   -62936.524 
  320016    350.77437   -158.17595   -62899.869   -63790.867   -62933.647 
  320509     326.1448    272.34133   -63049.536   -63877.973   -62991.589 
Loop time of 89.1948 on 1 procs for 495 steps with 19652 atoms

Performance: 0.479 ns/day, 50.053 hours/ns, 5.550 timesteps/s
97.2% CPU use with 1 MPI tasks x no OpenMP threads

MPI task timing breakdown:
Section |  min time  |  avg time  |  max time  |%varavg| %total
---------------------------------------------------------------
Pair    | 49.83      | 49.83      | 49.83      |   0.0 | 55.87
Neigh   | 37.414     | 37.414     | 37.414     |   0.0 | 41.95
Comm    | 0.72019    | 0.72019    | 0.72019    |   0.0 |  0.81
Output  | 0.070869   | 0.070869   | 0.070869   |   0.0 |  0.08
Modify  | 0.92424    | 0.92424    | 0.92424    |   0.0 |  1.04
Other   |            | 0.2354     |            |       |  0.26

Nlocal:    19652 ave 19652 max 19652 min
Histogram: 1 0 0 0 0 0 0 0 0 0
Nghost:    18174 ave 18174 max 18174 min
Histogram: 1 0 0 0 0 0 0 0 0 0
Neighs:    1.45675e+06 ave 1.45675e+06 max 1.45675e+06 min
Histogram: 1 0 0 0 0 0 0 0 0 0

Total # of neighbors = 1456750
Ave neighs/atom = 74.1273
Neighbor list builds = 495
Dangerous builds not checked
Setting up Verlet run ...
  Unit style    : metal
  Current step  : 320509
  Time step     : 0.001
Per MPI rank memory allocation (min/avg/max) = 18.21 | 18.21 | 18.21 Mbytes
Step Temp Press TotEng PotEng Enthalpy 
  320509     326.1448    272.34133   -63049.536   -63877.973   -62991.589 
  326681    298.36921   -99.694983   -63213.046   -63970.931   -63234.205 
Loop time of 1141.01 on 1 procs for 6172 steps with 19652 atoms

Performance: 0.467 ns/day, 51.352 hours/ns, 5.409 timesteps/s
94.2% CPU use with 1 MPI tasks x no OpenMP threads

MPI task timing breakdown:
Section |  min time  |  avg time  |  max time  |%varavg| %total
---------------------------------------------------------------
Pair    | 640.46     | 640.46     | 640.46     |   0.0 | 56.13
Neigh   | 476.85     | 476.85     | 476.85     |   0.0 | 41.79
Comm    | 9.1989     | 9.1989     | 9.1989     |   0.0 |  0.81
Output  | 0.0001781  | 0.0001781  | 0.0001781  |   0.0 |  0.00
Modify  | 11.534     | 11.534     | 11.534     |   0.0 |  1.01
Other   |            | 2.958      |            |       |  0.26

Nlocal:    19652 ave 19652 max 19652 min
Histogram: 1 0 0 0 0 0 0 0 0 0
Nghost:    18168 ave 18168 max 18168 min
Histogram: 1 0 0 0 0 0 0 0 0 0
Neighs:    1.46035e+06 ave 1.46035e+06 max 1.46035e+06 min
Histogram: 1 0 0 0 0 0 0 0 0 0

Total # of neighbors = 1460354
Ave neighs/atom = 74.3107
Neighbor list builds = 6172
Dangerous builds not checked
Setting up Verlet run ...
  Unit style    : metal
  Current step  : 326681
  Time step     : 0.001
Per MPI rank memory allocation (min/avg/max) = 18.21 | 18.21 | 18.21 Mbytes
Step Temp Press TotEng PotEng Enthalpy 
  326681    298.36921   -99.694983   -63213.046   -63970.931   -63234.205 
  326683    298.43656   -101.96871   -63213.045   -63971.101   -63234.686 
  327176    276.06058   -119.58245   -63359.048   -64060.267   -63384.358 
Loop time of 86.304 on 1 procs for 495 steps with 19652 atoms

Performance: 0.496 ns/day, 48.431 hours/ns, 5.736 timesteps/s
96.4% CPU use with 1 MPI tasks x no OpenMP threads

MPI task timing breakdown:
Section |  min time  |  avg time  |  max time  |%varavg| %total
---------------------------------------------------------------
Pair    | 47.782     | 47.782     | 47.782     |   0.0 | 55.37
Neigh   | 36.591     | 36.591     | 36.591     |   0.0 | 42.40
Comm    | 0.6567     | 0.6567     | 0.6567     |   0.0 |  0.76
Output  | 0.18685    | 0.18685    | 0.18685    |   0.0 |  0.22
Modify  | 0.85392    | 0.85392    | 0.85392    |   0.0 |  0.99
Other   |            | 0.2336     |            |       |  0.27

Nlocal:    19652 ave 19652 max 19652 min
Histogram: 1 0 0 0 0 0 0 0 0 0
Nghost:    18200 ave 18200 max 18200 min
Histogram: 1 0 0 0 0 0 0 0 0 0
Neighs:    1.46412e+06 ave 1.46412e+06 max 1.46412e+06 min
Histogram: 1 0 0 0 0 0 0 0 0 0

Total # of neighbors = 1464116
Ave neighs/atom = 74.5021
Neighbor list builds = 495
Dangerous builds not checked
Setting up Verlet run ...
  Unit style    : metal
  Current step  : 327176
  Time step     : 0.001
Per MPI rank memory allocation (min/avg/max) = 18.21 | 18.21 | 18.21 Mbytes
Step Temp Press TotEng PotEng Enthalpy 
  327176    276.06058   -119.58245   -63359.048   -64060.267   -63384.358 
  333348    249.96954   -73.772494   -63511.539   -64146.485   -63527.104 
Loop time of 1140.31 on 1 procs for 6172 steps with 19652 atoms

Performance: 0.468 ns/day, 51.321 hours/ns, 5.413 timesteps/s
94.5% CPU use with 1 MPI tasks x no OpenMP threads

MPI task timing breakdown:
Section |  min time  |  avg time  |  max time  |%varavg| %total
---------------------------------------------------------------
Pair    | 638.94     | 638.94     | 638.94     |   0.0 | 56.03
Neigh   | 477.45     | 477.45     | 477.45     |   0.0 | 41.87
Comm    | 9.1853     | 9.1853     | 9.1853     |   0.0 |  0.81
Output  | 0.000314   | 0.000314   | 0.000314   |   0.0 |  0.00
Modify  | 11.664     | 11.664     | 11.664     |   0.0 |  1.02
Other   |            | 3.076      |            |       |  0.27

Nlocal:    19652 ave 19652 max 19652 min
Histogram: 1 0 0 0 0 0 0 0 0 0
Nghost:    18187 ave 18187 max 18187 min
Histogram: 1 0 0 0 0 0 0 0 0 0
Neighs:    1.4682e+06 ave 1.4682e+06 max 1.4682e+06 min
Histogram: 1 0 0 0 0 0 0 0 0 0

Total # of neighbors = 1468199
Ave neighs/atom = 74.7099
Neighbor list builds = 6172
Dangerous builds not checked
Setting up Verlet run ...
  Unit style    : metal
  Current step  : 333348
  Time step     : 0.001
Per MPI rank memory allocation (min/avg/max) = 18.21 | 18.21 | 18.21 Mbytes
Step Temp Press TotEng PotEng Enthalpy 
  333348    249.96954   -73.772494   -63511.539   -64146.485   -63527.104 
  333350    249.88206   -70.462397   -63511.539   -64146.262   -63526.405 
  333843    225.06177    103.07704   -63647.006   -64218.683   -63625.313 
Loop time of 90.5337 on 1 procs for 495 steps with 19652 atoms

Performance: 0.472 ns/day, 50.805 hours/ns, 5.468 timesteps/s
94.6% CPU use with 1 MPI tasks x no OpenMP threads

MPI task timing breakdown:
Section |  min time  |  avg time  |  max time  |%varavg| %total
---------------------------------------------------------------
Pair    | 50.349     | 50.349     | 50.349     |   0.0 | 55.61
Neigh   | 38.125     | 38.125     | 38.125     |   0.0 | 42.11
Comm    | 0.71846    | 0.71846    | 0.71846    |   0.0 |  0.79
Output  | 0.15497    | 0.15497    | 0.15497    |   0.0 |  0.17
Modify  | 0.94233    | 0.94233    | 0.94233    |   0.0 |  1.04
Other   |            | 0.2442     |            |       |  0.27

Nlocal:    19652 ave 19652 max 19652 min
Histogram: 1 0 0 0 0 0 0 0 0 0
Nghost:    18217 ave 18217 max 18217 min
Histogram: 1 0 0 0 0 0 0 0 0 0
Neighs:    1.47115e+06 ave 1.47115e+06 max 1.47115e+06 min
Histogram: 1 0 0 0 0 0 0 0 0 0

Total # of neighbors = 1471154
Ave neighs/atom = 74.8603
Neighbor list builds = 495
Dangerous builds not checked
Setting up Verlet run ...
  Unit style    : metal
  Current step  : 333843
  Time step     : 0.001
Per MPI rank memory allocation (min/avg/max) = 18.21 | 18.21 | 18.21 Mbytes
Step Temp Press TotEng PotEng Enthalpy 
  333843    225.06177    103.07704   -63647.006   -64218.683   -63625.313 
  340015    199.96866    460.60088   -63790.851    -64298.79   -63694.243 
Loop time of 1113.17 on 1 procs for 6172 steps with 19652 atoms

Performance: 0.479 ns/day, 50.099 hours/ns, 5.545 timesteps/s
96.3% CPU use with 1 MPI tasks x no OpenMP threads

MPI task timing breakdown:
Section |  min time  |  avg time  |  max time  |%varavg| %total
---------------------------------------------------------------
Pair    | 626.31     | 626.31     | 626.31     |   0.0 | 56.26
Neigh   | 463.7      | 463.7      | 463.7      |   0.0 | 41.66
Comm    | 8.9715     | 8.9715     | 8.9715     |   0.0 |  0.81
Output  | 0.000278   | 0.000278   | 0.000278   |   0.0 |  0.00
Modify  | 11.232     | 11.232     | 11.232     |   0.0 |  1.01
Other   |            | 2.955      |            |       |  0.27

Nlocal:    19652 ave 19652 max 19652 min
Histogram: 1 0 0 0 0 0 0 0 0 0
Nghost:    18249 ave 18249 max 18249 min
Histogram: 1 0 0 0 0 0 0 0 0 0
Neighs:    1.47566e+06 ave 1.47566e+06 max 1.47566e+06 min
Histogram: 1 0 0 0 0 0 0 0 0 0

Total # of neighbors = 1475663
Ave neighs/atom = 75.0897
Neighbor list builds = 6172
Dangerous builds not checked
Setting up Verlet run ...
  Unit style    : metal
  Current step  : 340015
  Time step     : 0.001
Per MPI rank memory allocation (min/avg/max) = 18.21 | 18.21 | 18.21 Mbytes
Step Temp Press TotEng PotEng Enthalpy 
  340015    199.96866    460.60088   -63790.851    -64298.79   -63694.243 
  340017    199.74297    464.16052   -63790.851   -64298.217   -63693.496 
  340510    175.44736    480.00108   -63920.078    -64365.73    -63819.62 
Loop time of 85.1615 on 1 procs for 495 steps with 19652 atoms

Performance: 0.502 ns/day, 47.790 hours/ns, 5.812 timesteps/s
99.0% CPU use with 1 MPI tasks x no OpenMP threads

MPI task timing breakdown:
Section |  min time  |  avg time  |  max time  |%varavg| %total
---------------------------------------------------------------
Pair    | 47.619     | 47.619     | 47.619     |   0.0 | 55.92
Neigh   | 35.712     | 35.712     | 35.712     |   0.0 | 41.93
Comm    | 0.68347    | 0.68347    | 0.68347    |   0.0 |  0.80
Output  | 0.069048   | 0.069048   | 0.069048   |   0.0 |  0.08
Modify  | 0.85562    | 0.85562    | 0.85562    |   0.0 |  1.00
Other   |            | 0.2216     |            |       |  0.26

Nlocal:    19652 ave 19652 max 19652 min
Histogram: 1 0 0 0 0 0 0 0 0 0
Nghost:    18234 ave 18234 max 18234 min
Histogram: 1 0 0 0 0 0 0 0 0 0
Neighs:    1.47827e+06 ave 1.47827e+06 max 1.47827e+06 min
Histogram: 1 0 0 0 0 0 0 0 0 0

Total # of neighbors = 1478274
Ave neighs/atom = 75.2226
Neighbor list builds = 495
Dangerous builds not checked
Setting up Verlet run ...
  Unit style    : metal
  Current step  : 340510
  Time step     : 0.001
Per MPI rank memory allocation (min/avg/max) = 18.21 | 18.21 | 18.21 Mbytes
Step Temp Press TotEng PotEng Enthalpy 
  340510    175.44736    480.00108   -63920.078    -64365.73    -63819.62 
  346682    152.39494   -234.85306   -64060.264   -64447.362   -64109.332 
Loop time of 1084.57 on 1 procs for 6172 steps with 19652 atoms

Performance: 0.492 ns/day, 48.812 hours/ns, 5.691 timesteps/s
97.5% CPU use with 1 MPI tasks x no OpenMP threads

MPI task timing breakdown:
Section |  min time  |  avg time  |  max time  |%varavg| %total
---------------------------------------------------------------
Pair    | 607.2      | 607.2      | 607.2      |   0.0 | 55.99
Neigh   | 454.81     | 454.81     | 454.81     |   0.0 | 41.93
Comm    | 8.6194     | 8.6194     | 8.6194     |   0.0 |  0.79
Output  | 0.00023794 | 0.00023794 | 0.00023794 |   0.0 |  0.00
Modify  | 11.02      | 11.02      | 11.02      |   0.0 |  1.02
Other   |            | 2.919      |            |       |  0.27

Nlocal:    19652 ave 19652 max 19652 min
Histogram: 1 0 0 0 0 0 0 0 0 0
Nghost:    18267 ave 18267 max 18267 min
Histogram: 1 0 0 0 0 0 0 0 0 0
Neighs:    1.48085e+06 ave 1.48085e+06 max 1.48085e+06 min
Histogram: 1 0 0 0 0 0 0 0 0 0

Total # of neighbors = 1480851
Ave neighs/atom = 75.3537
Neighbor list builds = 6172
Dangerous builds not checked
Setting up Verlet run ...
  Unit style    : metal
  Current step  : 346682
  Time step     : 0.001
Per MPI rank memory allocation (min/avg/max) = 18.21 | 18.21 | 18.21 Mbytes
Step Temp Press TotEng PotEng Enthalpy 
  346682    152.39494   -234.85306   -64060.264   -64447.362   -64109.332 
  346684    152.33866   -232.39647   -64060.267   -64447.221   -64108.821 
  347177    126.95322    109.72139   -64185.623   -64508.096   -64162.754 
Loop time of 90.8272 on 1 procs for 495 steps with 19652 atoms

Performance: 0.471 ns/day, 50.969 hours/ns, 5.450 timesteps/s
94.1% CPU use with 1 MPI tasks x no OpenMP threads

MPI task timing breakdown:
Section |  min time  |  avg time  |  max time  |%varavg| %total
---------------------------------------------------------------
Pair    | 51.273     | 51.273     | 51.273     |   0.0 | 56.45
Neigh   | 37.554     | 37.554     | 37.554     |   0.0 | 41.35
Comm    | 0.71496    | 0.71496    | 0.71496    |   0.0 |  0.79
Output  | 0.073429   | 0.073429   | 0.073429   |   0.0 |  0.08
Modify  | 0.95149    | 0.95149    | 0.95149    |   0.0 |  1.05
Other   |            | 0.2604     |            |       |  0.29

Nlocal:    19652 ave 19652 max 19652 min
Histogram: 1 0 0 0 0 0 0 0 0 0
Nghost:    18248 ave 18248 max 18248 min
Histogram: 1 0 0 0 0 0 0 0 0 0
Neighs:    1.48336e+06 ave 1.48336e+06 max 1.48336e+06 min
Histogram: 1 0 0 0 0 0 0 0 0 0

Total # of neighbors = 1483365
Ave neighs/atom = 75.4816
Neighbor list builds = 495
Dangerous builds not checked
Setting up Verlet run ...
  Unit style    : metal
  Current step  : 347177
  Time step     : 0.001
Per MPI rank memory allocation (min/avg/max) = 18.21 | 18.21 | 18.21 Mbytes
Step Temp Press TotEng PotEng Enthalpy 
  347177    126.95322    109.72139   -64185.623   -64508.096   -64162.754 
  353349    100.00506   -181.72244   -64335.435   -64589.457   -64373.225 
Loop time of 1108.4 on 1 procs for 6172 steps with 19652 atoms

Performance: 0.481 ns/day, 49.885 hours/ns, 5.568 timesteps/s
95.4% CPU use with 1 MPI tasks x no OpenMP threads

MPI task timing breakdown:
Section |  min time  |  avg time  |  max time  |%varavg| %total
---------------------------------------------------------------
Pair    | 622.37     | 622.37     | 622.37     |   0.0 | 56.15
Neigh   | 462.63     | 462.63     | 462.63     |   0.0 | 41.74
Comm    | 8.952      | 8.952      | 8.952      |   0.0 |  0.81
Output  | 0.00034404 | 0.00034404 | 0.00034404 |   0.0 |  0.00
Modify  | 11.436     | 11.436     | 11.436     |   0.0 |  1.03
Other   |            | 3.012      |            |       |  0.27

Nlocal:    19652 ave 19652 max 19652 min
Histogram: 1 0 0 0 0 0 0 0 0 0
Nghost:    18288 ave 18288 max 18288 min
Histogram: 1 0 0 0 0 0 0 0 0 0
Neighs:    1.48626e+06 ave 1.48626e+06 max 1.48626e+06 min
Histogram: 1 0 0 0 0 0 0 0 0 0

Total # of neighbors = 1486265
Ave neighs/atom = 75.6292
Neighbor list builds = 6172
Dangerous builds not checked
Total wall time: 16:54:53
