LAMMPS (12 Dec 2018)
Lattice spacing in x,y,z = 4 4 4
Created orthogonal box = (0 0 0) to (68 68 68)
  1 by 1 by 2 MPI processor grid
Created 19652 atoms
  Time spent = 0.00200701 secs
Setting atom values ...
  19281 settings made for type/fraction
Neighbor list info ...
  update every 1 steps, delay 0 steps, check no
  max neighbors/atom: 2000, page size: 100000
  master list distance cutoff = 8.5
  ghost atom cutoff = 8.5
  binsize = 4.25, bins = 16 16 16
  1 neighbor lists, perpetual/occasional/extra = 1 0 0
  (1) pair eam/alloy, perpetual
      attributes: half, newton on
      pair build: half/bin/atomonly/newton
      stencil: half/bin/3d/newton
      bin: standard
Setting up Verlet run ...
  Unit style    : metal
  Current step  : 0
  Time step     : 0.001
Per MPI rank memory allocation (min/avg/max) = 11.15 | 11.15 | 11.15 Mbytes
Step Temp Press TotEng PotEng Enthalpy 
       0          300    20088.665   -66737.626   -67499.653   -62795.164 
    1000    160.85432    26312.879   -66737.452   -67146.036   -61573.469 
Loop time of 116.519 on 2 procs for 1000 steps with 19652 atoms

Performance: 0.742 ns/day, 32.366 hours/ns, 8.582 timesteps/s
99.2% CPU use with 2 MPI tasks x no OpenMP threads

MPI task timing breakdown:
Section |  min time  |  avg time  |  max time  |%varavg| %total
---------------------------------------------------------------
Pair    | 68.404     | 68.525     | 68.646     |   1.5 | 58.81
Neigh   | 40.673     | 40.849     | 41.026     |   2.8 | 35.06
Comm    | 5.8998     | 6.0193     | 6.1388     |   4.9 |  5.17
Output  | 0.00014305 | 0.00023448 | 0.00032592 |   0.0 |  0.00
Modify  | 0.63841    | 0.67231    | 0.70621    |   4.1 |  0.58
Other   |            | 0.4531     |            |       |  0.39

Nlocal:    9826 ave 9827 max 9825 min
Histogram: 1 0 0 0 0 0 0 0 0 1
Nghost:    14211 ave 14212 max 14210 min
Histogram: 1 0 0 0 0 0 0 0 0 1
Neighs:    786300 ave 786436 max 786165 min
Histogram: 1 0 0 0 0 0 0 0 0 1

Total # of neighbors = 1572601
Ave neighs/atom = 80.0224
Neighbor list builds = 1000
Dangerous builds not checked
Setting up Verlet run ...
  Unit style    : metal
  Current step  : 1000
  Time step     : 0.001
Per MPI rank memory allocation (min/avg/max) = 11.15 | 11.15 | 11.15 Mbytes
Step Temp Press TotEng PotEng Enthalpy 
    1000    160.85432    26312.879   -66737.452   -67146.036   -61573.469 
    2000    299.44141    47.617636   -66015.567   -66776.175   -66005.798 
Loop time of 114.047 on 2 procs for 1000 steps with 19652 atoms

Performance: 0.758 ns/day, 31.680 hours/ns, 8.768 timesteps/s
99.5% CPU use with 2 MPI tasks x no OpenMP threads

MPI task timing breakdown:
Section |  min time  |  avg time  |  max time  |%varavg| %total
---------------------------------------------------------------
Pair    | 65.452     | 65.517     | 65.582     |   0.8 | 57.45
Neigh   | 40.148     | 40.506     | 40.865     |   5.6 | 35.52
Comm    | 5.1089     | 5.5138     | 5.9187     |  17.2 |  4.83
Output  | 0.00011396 | 0.00014496 | 0.00017595 |   0.0 |  0.00
Modify  | 1.975      | 2.0556     | 2.1363     |   5.6 |  1.80
Other   |            | 0.4542     |            |       |  0.40

Nlocal:    9826 ave 9854 max 9798 min
Histogram: 1 0 0 0 0 0 0 0 0 1
Nghost:    14208 ave 14234 max 14182 min
Histogram: 1 0 0 0 0 0 0 0 0 1
Neighs:    726490 ave 728755 max 724225 min
Histogram: 1 0 0 0 0 0 0 0 0 1

Total # of neighbors = 1452980
Ave neighs/atom = 73.9355
Neighbor list builds = 1000
Dangerous builds not checked
Setting up Verlet run ...
  Unit style    : metal
  Current step  : 2000
  Time step     : 0.001
Per MPI rank memory allocation (min/avg/max) = 11.15 | 11.15 | 11.15 Mbytes
Step Temp Press TotEng PotEng Enthalpy 
    2000    299.44141    47.617636   -66015.567   -66776.175   -66005.798 
   10000    2457.0085    289.61835    -51754.96   -57995.986    -51674.27 
Loop time of 890.739 on 2 procs for 8000 steps with 19652 atoms

Performance: 0.776 ns/day, 30.928 hours/ns, 8.981 timesteps/s
98.9% CPU use with 2 MPI tasks x no OpenMP threads

MPI task timing breakdown:
Section |  min time  |  avg time  |  max time  |%varavg| %total
---------------------------------------------------------------
Pair    | 494.86     | 496.36     | 497.87     |   6.8 | 55.72
Neigh   | 329.92     | 330.41     | 330.9      |   2.7 | 37.09
Comm    | 43.418     | 44.835     | 46.252     |  21.2 |  5.03
Output  | 0.00014997 | 0.00018299 | 0.00021601 |   0.0 |  0.00
Modify  | 15.482     | 15.808     | 16.134     |   8.2 |  1.77
Other   |            | 3.322      |            |       |  0.37

Nlocal:    9826 ave 9837 max 9815 min
Histogram: 1 0 0 0 0 0 0 0 0 1
Nghost:    11392.5 ave 11406 max 11379 min
Histogram: 1 0 0 0 0 0 0 0 0 1
Neighs:    552836 ave 558811 max 546860 min
Histogram: 1 0 0 0 0 0 0 0 0 1

Total # of neighbors = 1105671
Ave neighs/atom = 56.2625
Neighbor list builds = 8000
Dangerous builds not checked
Setting up Verlet run ...
  Unit style    : metal
  Current step  : 10000
  Time step     : 0.001
Per MPI rank memory allocation (min/avg/max) = 11.15 | 11.15 | 11.15 Mbytes
Step Temp Press TotEng PotEng Enthalpy 
   10000    2457.0085    289.61835    -51754.96   -57995.986    -51674.27 
   20000    2450.4254   -115.48714   -51750.422   -57974.726   -51782.676 
   40000    2439.7144   -248.76309    -51733.57   -57930.667    -51803.12 
Loop time of 3419.23 on 2 procs for 30000 steps with 19652 atoms

Performance: 0.758 ns/day, 31.660 hours/ns, 8.774 timesteps/s
97.8% CPU use with 2 MPI tasks x no OpenMP threads

MPI task timing breakdown:
Section |  min time  |  avg time  |  max time  |%varavg| %total
---------------------------------------------------------------
Pair    | 1884.6     | 1888.5     | 1892.4     |   9.0 | 55.23
Neigh   | 1235.4     | 1242.7     | 1250       |  20.8 | 36.34
Comm    | 207.87     | 211.02     | 214.17     |  21.7 |  6.17
Output  | 0.17423    | 0.1743     | 0.17438    |   0.0 |  0.01
Modify  | 64.002     | 64.197     | 64.393     |   2.4 |  1.88
Other   |            | 12.61      |            |       |  0.37

Nlocal:    9826 ave 9861 max 9791 min
Histogram: 1 0 0 0 0 0 0 0 0 1
Nghost:    11397.5 ave 11413 max 11382 min
Histogram: 1 0 0 0 0 0 0 0 0 1
Neighs:    551157 ave 554216 max 548098 min
Histogram: 1 0 0 0 0 0 0 0 0 1

Total # of neighbors = 1102314
Ave neighs/atom = 56.0917
Neighbor list builds = 30000
Dangerous builds not checked
Setting up Verlet run ...
  Unit style    : metal
  Current step  : 40000
  Time step     : 0.001
Per MPI rank memory allocation (min/avg/max) = 11.29 | 11.29 | 11.29 Mbytes
Step Temp Press TotEng PotEng Enthalpy 
   40000    2439.7144   -248.76309    -51733.57   -57930.667    -51803.12 
   40495    2407.2049   -218.96394   -51893.562   -58008.082   -51954.601 
Loop time of 48.9836 on 2 procs for 495 steps with 19652 atoms

Performance: 0.873 ns/day, 27.488 hours/ns, 10.105 timesteps/s
99.1% CPU use with 2 MPI tasks x no OpenMP threads

MPI task timing breakdown:
Section |  min time  |  avg time  |  max time  |%varavg| %total
---------------------------------------------------------------
Pair    | 27.026     | 27.291     | 27.556     |   5.1 | 55.71
Neigh   | 17.991     | 17.993     | 17.995     |   0.0 | 36.73
Comm    | 2.2801     | 2.5404     | 2.8008     |  16.3 |  5.19
Output  | 0.00023103 | 0.00023901 | 0.000247   |   0.0 |  0.00
Modify  | 0.96042    | 0.9654     | 0.97037    |   0.5 |  1.97
Other   |            | 0.1938     |            |       |  0.40

Nlocal:    9826 ave 9843 max 9809 min
Histogram: 1 0 0 0 0 0 0 0 0 1
Nghost:    11287.5 ave 11316 max 11259 min
Histogram: 1 0 0 0 0 0 0 0 0 1
Neighs:    552476 ave 560330 max 544621 min
Histogram: 1 0 0 0 0 0 0 0 0 1

Total # of neighbors = 1104951
Ave neighs/atom = 56.2259
Neighbor list builds = 495
Dangerous builds not checked
Setting up Verlet run ...
  Unit style    : metal
  Current step  : 40495
  Time step     : 0.001
Per MPI rank memory allocation (min/avg/max) = 11.29 | 11.29 | 11.29 Mbytes
Step Temp Press TotEng PotEng Enthalpy 
   40495    2407.2049   -218.96394   -51893.562   -58008.082   -51954.601 
   60000    2378.4509     544.8828   -52074.454   -58115.936   -51923.361 
Loop time of 2197.83 on 2 procs for 19505 steps with 19652 atoms

Performance: 0.767 ns/day, 31.300 hours/ns, 8.875 timesteps/s
99.0% CPU use with 2 MPI tasks x no OpenMP threads

MPI task timing breakdown:
Section |  min time  |  avg time  |  max time  |%varavg| %total
---------------------------------------------------------------
Pair    | 1194.9     | 1198       | 1201       |   8.8 | 54.51
Neigh   | 812.57     | 814.74     | 816.91     |   7.6 | 37.07
Comm    | 132.88     | 137.49     | 142.09     |  39.3 |  6.26
Output  | 0.037934   | 0.037963   | 0.037991   |   0.0 |  0.00
Modify  | 39.176     | 39.615     | 40.055     |   7.0 |  1.80
Other   |            | 7.973      |            |       |  0.36

Nlocal:    9826 ave 9833 max 9819 min
Histogram: 1 0 0 0 0 0 0 0 0 1
Nghost:    11418.5 ave 11438 max 11399 min
Histogram: 1 0 0 0 0 0 0 0 0 1
Neighs:    555294 ave 559603 max 550986 min
Histogram: 1 0 0 0 0 0 0 0 0 1

Total # of neighbors = 1110589
Ave neighs/atom = 56.5128
Neighbor list builds = 19505
Dangerous builds not checked
Setting up Verlet run ...
  Unit style    : metal
  Current step  : 60000
  Time step     : 0.001
Per MPI rank memory allocation (min/avg/max) = 11.31 | 11.31 | 11.31 Mbytes
Step Temp Press TotEng PotEng Enthalpy 
   60000    2378.4509     544.8828   -52074.454   -58115.936   -51923.361 
   60495    2347.3313    561.28496   -52216.123   -58178.558    -52060.93 
Loop time of 49.1706 on 2 procs for 495 steps with 19652 atoms

Performance: 0.870 ns/day, 27.593 hours/ns, 10.067 timesteps/s
99.7% CPU use with 2 MPI tasks x no OpenMP threads

MPI task timing breakdown:
Section |  min time  |  avg time  |  max time  |%varavg| %total
---------------------------------------------------------------
Pair    | 26.309     | 26.619     | 26.93      |   6.0 | 54.14
Neigh   | 18.643     | 18.822     | 19.002     |   4.1 | 38.28
Comm    | 2.5356     | 2.6756     | 2.8155     |   8.6 |  5.44
Output  | 0.00012684 | 0.00016141 | 0.00019598 |   0.0 |  0.00
Modify  | 0.86676    | 0.8755     | 0.88425    |   0.9 |  1.78
Other   |            | 0.1777     |            |       |  0.36

Nlocal:    9826 ave 9849 max 9803 min
Histogram: 1 0 0 0 0 0 0 0 0 1
Nghost:    11426.5 ave 11441 max 11412 min
Histogram: 1 0 0 0 0 0 0 0 0 1
Neighs:    556942 ave 564133 max 549751 min
Histogram: 1 0 0 0 0 0 0 0 0 1

Total # of neighbors = 1113884
Ave neighs/atom = 56.6804
Neighbor list builds = 495
Dangerous builds not checked
Setting up Verlet run ...
  Unit style    : metal
  Current step  : 60495
  Time step     : 0.001
Per MPI rank memory allocation (min/avg/max) = 11.31 | 11.31 | 11.31 Mbytes
Step Temp Press TotEng PotEng Enthalpy 
   60495    2347.3313    561.28496   -52216.123   -58178.558    -52060.93 
   80000     2351.785    259.68677   -52301.703   -58275.451   -52230.042 
Loop time of 2185.5 on 2 procs for 19505 steps with 19652 atoms

Performance: 0.771 ns/day, 31.124 hours/ns, 8.925 timesteps/s
98.5% CPU use with 2 MPI tasks x no OpenMP threads

MPI task timing breakdown:
Section |  min time  |  avg time  |  max time  |%varavg| %total
---------------------------------------------------------------
Pair    | 1194       | 1195.5     | 1197       |   4.3 | 54.70
Neigh   | 793.49     | 802.47     | 811.45     |  31.7 | 36.72
Comm    | 133.25     | 140.57     | 147.89     |  61.7 |  6.43
Output  | 0.039912   | 0.039928   | 0.039945   |   0.0 |  0.00
Modify  | 39.014     | 39.124     | 39.233     |   1.8 |  1.79
Other   |            | 7.77       |            |       |  0.36

Nlocal:    9826 ave 9852 max 9800 min
Histogram: 1 0 0 0 0 0 0 0 0 1
Nghost:    11471 ave 11503 max 11439 min
Histogram: 1 0 0 0 0 0 0 0 0 1
Neighs:    558262 ave 566396 max 550127 min
Histogram: 1 0 0 0 0 0 0 0 0 1

Total # of neighbors = 1116523
Ave neighs/atom = 56.8147
Neighbor list builds = 19505
Dangerous builds not checked
Setting up Verlet run ...
  Unit style    : metal
  Current step  : 80000
  Time step     : 0.001
Per MPI rank memory allocation (min/avg/max) = 11.33 | 11.33 | 11.33 Mbytes
Step Temp Press TotEng PotEng Enthalpy 
   80000     2351.785    259.68677   -52301.703   -58275.451   -52230.042 
   80495    2326.5478   -110.51259   -52464.544   -58374.187   -52494.943 
Loop time of 65.2231 on 2 procs for 495 steps with 19652 atoms

Performance: 0.656 ns/day, 36.601 hours/ns, 7.589 timesteps/s
85.7% CPU use with 2 MPI tasks x no OpenMP threads

MPI task timing breakdown:
Section |  min time  |  avg time  |  max time  |%varavg| %total
---------------------------------------------------------------
Pair    | 33.173     | 33.186     | 33.2       |   0.2 | 50.88
Neigh   | 19.681     | 20.636     | 21.592     |  21.0 | 31.64
Comm    | 9.0805     | 10.107     | 11.134     |  32.3 | 15.50
Output  | 0.00026298 | 0.00034451 | 0.00042605 |   0.0 |  0.00
Modify  | 1.0579     | 1.094      | 1.1301     |   3.4 |  1.68
Other   |            | 0.1987     |            |       |  0.30

Nlocal:    9826 ave 9827 max 9825 min
Histogram: 1 0 0 0 0 0 0 0 0 1
Nghost:    11415.5 ave 11434 max 11397 min
Histogram: 1 0 0 0 0 0 0 0 0 1
Neighs:    560026 ave 566193 max 553860 min
Histogram: 1 0 0 0 0 0 0 0 0 1

Total # of neighbors = 1120053
Ave neighs/atom = 56.9944
Neighbor list builds = 495
Dangerous builds not checked
Setting up Verlet run ...
  Unit style    : metal
  Current step  : 80495
  Time step     : 0.001
Per MPI rank memory allocation (min/avg/max) = 11.33 | 11.33 | 11.33 Mbytes
Step Temp Press TotEng PotEng Enthalpy 
   80495    2326.5478   -110.51259   -52464.544   -58374.187   -52494.943 
  100000    2294.0798    87.472797    -52596.02   -58423.192   -52572.044 
Loop time of 3356.64 on 2 procs for 19505 steps with 19652 atoms

Performance: 0.502 ns/day, 47.803 hours/ns, 5.811 timesteps/s
76.7% CPU use with 2 MPI tasks x no OpenMP threads

MPI task timing breakdown:
Section |  min time  |  avg time  |  max time  |%varavg| %total
---------------------------------------------------------------
Pair    | 1839.6     | 1846.3     | 1853       |  15.6 | 55.00
Neigh   | 1033.3     | 1041       | 1048.6     |  23.8 | 31.01
Comm    | 392.41     | 393.9      | 395.38     |   7.5 | 11.73
Output  | 0.038525   | 0.038527   | 0.038529   |   0.0 |  0.00
Modify  | 65.399     | 65.707     | 66.015     |   3.8 |  1.96
Other   |            | 9.77       |            |       |  0.29

Nlocal:    9826 ave 9828 max 9824 min
Histogram: 1 0 0 0 0 0 0 0 0 1
Nghost:    11487.5 ave 11495 max 11480 min
Histogram: 1 0 0 0 0 0 0 0 0 1
Neighs:    561922 ave 568429 max 555414 min
Histogram: 1 0 0 0 0 0 0 0 0 1

Total # of neighbors = 1123843
Ave neighs/atom = 57.1872
Neighbor list builds = 19505
Dangerous builds not checked
Setting up Verlet run ...
  Unit style    : metal
  Current step  : 100000
  Time step     : 0.001
Per MPI rank memory allocation (min/avg/max) = 11.34 | 11.34 | 11.34 Mbytes
Step Temp Press TotEng PotEng Enthalpy 
  100000    2294.0798    87.472797    -52596.02   -58423.192   -52572.044 
  100495    2254.9645    390.41347   -52730.392   -58458.208   -52623.551 
Loop time of 87.1178 on 2 procs for 495 steps with 19652 atoms

Performance: 0.491 ns/day, 48.888 hours/ns, 5.682 timesteps/s
76.0% CPU use with 2 MPI tasks x no OpenMP threads

MPI task timing breakdown:
Section |  min time  |  avg time  |  max time  |%varavg| %total
---------------------------------------------------------------
Pair    | 48.247     | 48.382     | 48.517     |   1.9 | 55.54
Neigh   | 23.418     | 26.208     | 28.998     |  54.5 | 30.08
Comm    | 7.7167     | 10.429     | 13.141     |  84.0 | 11.97
Output  | 0.00027895 | 0.00029492 | 0.0003109  |   0.0 |  0.00
Modify  | 1.7818     | 1.8114     | 1.841      |   2.2 |  2.08
Other   |            | 0.2872     |            |       |  0.33

Nlocal:    9826 ave 9835 max 9817 min
Histogram: 1 0 0 0 0 0 0 0 0 1
Nghost:    11529.5 ave 11553 max 11506 min
Histogram: 1 0 0 0 0 0 0 0 0 1
Neighs:    562950 ave 566971 max 558928 min
Histogram: 1 0 0 0 0 0 0 0 0 1

Total # of neighbors = 1125899
Ave neighs/atom = 57.2918
Neighbor list builds = 495
Dangerous builds not checked
Setting up Verlet run ...
  Unit style    : metal
  Current step  : 100495
  Time step     : 0.001
Per MPI rank memory allocation (min/avg/max) = 11.34 | 11.34 | 11.34 Mbytes
Step Temp Press TotEng PotEng Enthalpy 
  100495    2254.9645    390.41347   -52730.392   -58458.208   -52623.551 
  120000    2252.6324   -1907.3281   -52741.015   -58462.906   -53265.196 
Loop time of 3225.19 on 2 procs for 19505 steps with 19652 atoms

Performance: 0.523 ns/day, 45.931 hours/ns, 6.048 timesteps/s
77.2% CPU use with 2 MPI tasks x no OpenMP threads

MPI task timing breakdown:
Section |  min time  |  avg time  |  max time  |%varavg| %total
---------------------------------------------------------------
Pair    | 1775       | 1779.8     | 1784.7     |  11.5 | 55.18
Neigh   | 954.97     | 1000.5     | 1045.9     | 143.8 | 31.02
Comm    | 322.37     | 374.03     | 425.68     | 267.1 | 11.60
Output  | 0.097417   | 0.097432   | 0.097447   |   0.0 |  0.00
Modify  | 60.535     | 61.473     | 62.41      |  12.0 |  1.91
Other   |            | 9.318      |            |       |  0.29

Nlocal:    9826 ave 9848 max 9804 min
Histogram: 1 0 0 0 0 0 0 0 0 1
Nghost:    11447 ave 11510 max 11384 min
Histogram: 1 0 0 0 0 0 0 0 0 1
Neighs:    560422 ave 567716 max 553128 min
Histogram: 1 0 0 0 0 0 0 0 0 1

Total # of neighbors = 1120844
Ave neighs/atom = 57.0346
Neighbor list builds = 19505
Dangerous builds not checked
Setting up Verlet run ...
  Unit style    : metal
  Current step  : 120000
  Time step     : 0.001
Per MPI rank memory allocation (min/avg/max) = 11.34 | 11.34 | 11.34 Mbytes
Step Temp Press TotEng PotEng Enthalpy 
  120000    2252.6324   -1907.3281   -52741.015   -58462.906   -53265.196 
  120495    2225.2416   -507.22217    -53012.43   -58664.746   -53150.468 
Loop time of 59.8877 on 2 procs for 495 steps with 19652 atoms

Performance: 0.714 ns/day, 33.607 hours/ns, 8.265 timesteps/s
80.0% CPU use with 2 MPI tasks x no OpenMP threads

MPI task timing breakdown:
Section |  min time  |  avg time  |  max time  |%varavg| %total
---------------------------------------------------------------
Pair    | 32.5       | 32.615     | 32.73      |   2.0 | 54.46
Neigh   | 17.852     | 20.268     | 22.683     |  53.7 | 33.84
Comm    | 3.0846     | 5.6826     | 8.2806     | 109.0 |  9.49
Output  | 9.4175e-05 | 0.00011766 | 0.00014114 |   0.0 |  0.00
Modify  | 1.0699     | 1.1226     | 1.1754     |   5.0 |  1.87
Other   |            | 0.2001     |            |       |  0.33

Nlocal:    9826 ave 9832 max 9820 min
Histogram: 1 0 0 0 0 0 0 0 0 1
Nghost:    11506.5 ave 11511 max 11502 min
Histogram: 1 0 0 0 0 0 0 0 0 1
Neighs:    566172 ave 572140 max 560205 min
Histogram: 1 0 0 0 0 0 0 0 0 1

Total # of neighbors = 1132345
Ave neighs/atom = 57.6198
Neighbor list builds = 495
Dangerous builds not checked
Setting up Verlet run ...
  Unit style    : metal
  Current step  : 120495
  Time step     : 0.001
Per MPI rank memory allocation (min/avg/max) = 11.34 | 11.34 | 11.34 Mbytes
Step Temp Press TotEng PotEng Enthalpy 
  120495    2225.2416   -507.22217    -53012.43   -58664.746   -53150.468 
  140000    2223.0471   -195.72294   -53057.201   -58703.944   -53110.391 
Loop time of 2402.81 on 2 procs for 19505 steps with 19652 atoms

Performance: 0.701 ns/day, 34.219 hours/ns, 8.118 timesteps/s
90.0% CPU use with 2 MPI tasks x no OpenMP threads

MPI task timing breakdown:
Section |  min time  |  avg time  |  max time  |%varavg| %total
---------------------------------------------------------------
Pair    | 1323.5     | 1324       | 1324.5     |   1.4 | 55.10
Neigh   | 834.63     | 838.34     | 842.05     |  12.8 | 34.89
Comm    | 186.39     | 190.61     | 194.83     |  30.6 |  7.93
Output  | 0.035662   | 0.035687   | 0.035713   |   0.0 |  0.00
Modify  | 41.978     | 42         | 42.022     |   0.3 |  1.75
Other   |            | 7.792      |            |       |  0.32

Nlocal:    9826 ave 9834 max 9818 min
Histogram: 1 0 0 0 0 0 0 0 0 1
Nghost:    11567.5 ave 11575 max 11560 min
Histogram: 1 0 0 0 0 0 0 0 0 1
Neighs:    566975 ave 572225 max 561725 min
Histogram: 1 0 0 0 0 0 0 0 0 1

Total # of neighbors = 1133950
Ave neighs/atom = 57.7015
Neighbor list builds = 19505
Dangerous builds not checked
Setting up Verlet run ...
  Unit style    : metal
  Current step  : 140000
  Time step     : 0.001
Per MPI rank memory allocation (min/avg/max) = 11.35 | 11.35 | 11.35 Mbytes
Step Temp Press TotEng PotEng Enthalpy 
  140000    2223.0471   -195.72294   -53057.201   -58703.944   -53110.391 
  140495    2163.1286    613.32356   -53282.832   -58777.376    -53116.99 
Loop time of 47.5459 on 2 procs for 495 steps with 19652 atoms

Performance: 0.900 ns/day, 26.681 hours/ns, 10.411 timesteps/s
98.6% CPU use with 2 MPI tasks x no OpenMP threads

MPI task timing breakdown:
Section |  min time  |  avg time  |  max time  |%varavg| %total
---------------------------------------------------------------
Pair    | 25.458     | 25.897     | 26.336     |   8.6 | 54.47
Neigh   | 17.101     | 17.951     | 18.8       |  20.0 | 37.75
Comm    | 2.3247     | 2.7365     | 3.1483     |  24.9 |  5.76
Output  | 0.0001328  | 0.00015593 | 0.00017905 |   0.0 |  0.00
Modify  | 0.78332    | 0.78401    | 0.78469    |   0.1 |  1.65
Other   |            | 0.1775     |            |       |  0.37

Nlocal:    9826 ave 9834 max 9818 min
Histogram: 1 0 0 0 0 0 0 0 0 1
Nghost:    11571.5 ave 11579 max 11564 min
Histogram: 1 0 0 0 0 0 0 0 0 1
Neighs:    570190 ave 577646 max 562733 min
Histogram: 1 0 0 0 0 0 0 0 0 1

Total # of neighbors = 1140379
Ave neighs/atom = 58.0286
Neighbor list builds = 495
Dangerous builds not checked
Setting up Verlet run ...
  Unit style    : metal
  Current step  : 140495
  Time step     : 0.001
Per MPI rank memory allocation (min/avg/max) = 11.35 | 11.35 | 11.35 Mbytes
Step Temp Press TotEng PotEng Enthalpy 
  140495    2163.1286    613.32356   -53282.832   -58777.376    -53116.99 
  160000    2141.4798   -265.37268   -53394.129   -58833.682   -53465.834 
Loop time of 2051 on 2 procs for 19505 steps with 19652 atoms

Performance: 0.822 ns/day, 29.209 hours/ns, 9.510 timesteps/s
98.7% CPU use with 2 MPI tasks x no OpenMP threads

MPI task timing breakdown:
Section |  min time  |  avg time  |  max time  |%varavg| %total
---------------------------------------------------------------
Pair    | 1127.5     | 1129.8     | 1132       |   6.7 | 55.08
Neigh   | 746.21     | 752.82     | 759.43     |  24.1 | 36.71
Comm    | 118.18     | 127.3      | 136.43     |  80.9 |  6.21
Output  | 0.49699    | 0.49702    | 0.49705    |   0.0 |  0.02
Modify  | 33.333     | 33.52      | 33.707     |   3.2 |  1.63
Other   |            | 7.08       |            |       |  0.35

Nlocal:    9826 ave 9841 max 9811 min
Histogram: 1 0 0 0 0 0 0 0 0 1
Nghost:    11564 ave 11585 max 11543 min
Histogram: 1 0 0 0 0 0 0 0 0 1
Neighs:    570570 ave 576992 max 564149 min
Histogram: 1 0 0 0 0 0 0 0 0 1

Total # of neighbors = 1141141
Ave neighs/atom = 58.0674
Neighbor list builds = 19505
Dangerous builds not checked
Setting up Verlet run ...
  Unit style    : metal
  Current step  : 160000
  Time step     : 0.001
Per MPI rank memory allocation (min/avg/max) = 11.35 | 11.35 | 11.35 Mbytes
Step Temp Press TotEng PotEng Enthalpy 
  160000    2141.4798   -265.37268   -53394.129   -58833.682   -53465.834 
  160495    2106.8247     1263.195   -53615.235   -58966.762   -53276.612 
Loop time of 47.4678 on 2 procs for 495 steps with 19652 atoms

Performance: 0.901 ns/day, 26.637 hours/ns, 10.428 timesteps/s
95.9% CPU use with 2 MPI tasks x no OpenMP threads

MPI task timing breakdown:
Section |  min time  |  avg time  |  max time  |%varavg| %total
---------------------------------------------------------------
Pair    | 24.763     | 25.168     | 25.572     |   8.1 | 53.02
Neigh   | 16.554     | 16.991     | 17.428     |  10.6 | 35.79
Comm    | 3.5831     | 4.4601     | 5.337      |  41.5 |  9.40
Output  | 9.8944e-05 | 0.00011849 | 0.00013804 |   0.0 |  0.00
Modify  | 0.67078    | 0.69091    | 0.71104    |   2.4 |  1.46
Other   |            | 0.1582     |            |       |  0.33

Nlocal:    9826 ave 9842 max 9810 min
Histogram: 1 0 0 0 0 0 0 0 0 1
Nghost:    11581 ave 11584 max 11578 min
Histogram: 1 0 0 0 0 0 0 0 0 1
Neighs:    574770 ave 579382 max 570157 min
Histogram: 1 0 0 0 0 0 0 0 0 1

Total # of neighbors = 1149539
Ave neighs/atom = 58.4948
Neighbor list builds = 495
Dangerous builds not checked
Setting up Verlet run ...
  Unit style    : metal
  Current step  : 160495
  Time step     : 0.001
Per MPI rank memory allocation (min/avg/max) = 11.35 | 11.35 | 11.35 Mbytes
Step Temp Press TotEng PotEng Enthalpy 
  160495    2106.8247     1263.195   -53615.235   -58966.762   -53276.612 
  180000    2116.1941     478.9118    -53533.17   -58908.496   -53404.349 
Loop time of 1913.83 on 2 procs for 19505 steps with 19652 atoms

Performance: 0.881 ns/day, 27.256 hours/ns, 10.192 timesteps/s
98.6% CPU use with 2 MPI tasks x no OpenMP threads

MPI task timing breakdown:
Section |  min time  |  avg time  |  max time  |%varavg| %total
---------------------------------------------------------------
Pair    | 1043.9     | 1050.6     | 1057.3     |  20.7 | 54.90
Neigh   | 704.64     | 714.12     | 723.6      |  35.5 | 37.31
Comm    | 97.556     | 113.96     | 130.36     | 153.7 |  5.95
Output  | 0.034935   | 0.034937   | 0.034938   |   0.0 |  0.00
Modify  | 28.762     | 28.875     | 28.988     |   2.1 |  1.51
Other   |            | 6.237      |            |       |  0.33

Nlocal:    9826 ave 9864 max 9788 min
Histogram: 1 0 0 0 0 0 0 0 0 1
Nghost:    11592 ave 11604 max 11580 min
Histogram: 1 0 0 0 0 0 0 0 0 1
Neighs:    573371 ave 574800 max 571942 min
Histogram: 1 0 0 0 0 0 0 0 0 1

Total # of neighbors = 1146742
Ave neighs/atom = 58.3524
Neighbor list builds = 19505
Dangerous builds not checked
Setting up Verlet run ...
  Unit style    : metal
  Current step  : 180000
  Time step     : 0.001
Per MPI rank memory allocation (min/avg/max) = 11.35 | 11.35 | 11.35 Mbytes
Step Temp Press TotEng PotEng Enthalpy 
  180000    2116.1941     478.9118    -53533.17   -58908.496   -53404.349 
  180495    2070.7789   -124.96381   -53841.927   -59101.894   -53875.321 
Loop time of 43.624 on 2 procs for 495 steps with 19652 atoms

Performance: 0.980 ns/day, 24.480 hours/ns, 11.347 timesteps/s
99.7% CPU use with 2 MPI tasks x no OpenMP threads

MPI task timing breakdown:
Section |  min time  |  avg time  |  max time  |%varavg| %total
---------------------------------------------------------------
Pair    | 24.178     | 24.201     | 24.224     |   0.5 | 55.48
Neigh   | 15.479     | 15.958     | 16.437     |  12.0 | 36.58
Comm    | 2.1445     | 2.6462     | 3.148      |  30.8 |  6.07
Output  | 0.00010586 | 0.00013041 | 0.00015497 |   0.0 |  0.00
Modify  | 0.66557    | 0.66561    | 0.66565    |   0.0 |  1.53
Other   |            | 0.1529     |            |       |  0.35

Nlocal:    9826 ave 9834 max 9818 min
Histogram: 1 0 0 0 0 0 0 0 0 1
Nghost:    11601 ave 11618 max 11584 min
Histogram: 1 0 0 0 0 0 0 0 0 1
Neighs:    576834 ave 582966 max 570702 min
Histogram: 1 0 0 0 0 0 0 0 0 1

Total # of neighbors = 1153668
Ave neighs/atom = 58.7049
Neighbor list builds = 495
Dangerous builds not checked
Setting up Verlet run ...
  Unit style    : metal
  Current step  : 180495
  Time step     : 0.001
Per MPI rank memory allocation (min/avg/max) = 11.35 | 11.35 | 11.35 Mbytes
Step Temp Press TotEng PotEng Enthalpy 
  180495    2070.7789   -124.96381   -53841.927   -59101.894   -53875.321 
  200000    2046.9679   -356.29445   -53986.118   -59185.603   -54081.099 
Loop time of 1834.17 on 2 procs for 19505 steps with 19652 atoms

Performance: 0.919 ns/day, 26.121 hours/ns, 10.634 timesteps/s
99.5% CPU use with 2 MPI tasks x no OpenMP threads

MPI task timing breakdown:
Section |  min time  |  avg time  |  max time  |%varavg| %total
---------------------------------------------------------------
Pair    | 1008.5     | 1010.1     | 1011.7     |   5.0 | 55.07
Neigh   | 680.88     | 686.94     | 693        |  23.1 | 37.45
Comm    | 99.276     | 103.89     | 108.5      |  45.3 |  5.66
Output  | 0.037131   | 0.037154   | 0.037177   |   0.0 |  0.00
Modify  | 27.094     | 27.2       | 27.307     |   2.0 |  1.48
Other   |            | 6.017      |            |       |  0.33

Nlocal:    9826 ave 9843 max 9809 min
Histogram: 1 0 0 0 0 0 0 0 0 1
Nghost:    11573.5 ave 11587 max 11560 min
Histogram: 1 0 0 0 0 0 0 0 0 1
Neighs:    578108 ave 585581 max 570634 min
Histogram: 1 0 0 0 0 0 0 0 0 1

Total # of neighbors = 1156215
Ave neighs/atom = 58.8345
Neighbor list builds = 19505
Dangerous builds not checked
Setting up Verlet run ...
  Unit style    : metal
  Current step  : 200000
  Time step     : 0.001
Per MPI rank memory allocation (min/avg/max) = 11.35 | 11.35 | 11.35 Mbytes
Step Temp Press TotEng PotEng Enthalpy 
  200000    2046.9679   -356.29445   -53986.118   -59185.603   -54081.099 
  200495    2020.0631   -437.58892   -54143.209   -59274.353   -54259.544 
Loop time of 45.7138 on 2 procs for 495 steps with 19652 atoms

Performance: 0.936 ns/day, 25.653 hours/ns, 10.828 timesteps/s
99.3% CPU use with 2 MPI tasks x no OpenMP threads

MPI task timing breakdown:
Section |  min time  |  avg time  |  max time  |%varavg| %total
---------------------------------------------------------------
Pair    | 25.056     | 25.225     | 25.394     |   3.4 | 55.18
Neigh   | 17.341     | 17.426     | 17.51      |   2.0 | 38.12
Comm    | 1.9478     | 2.2038     | 2.4598     |  17.2 |  4.82
Output  | 0.00015616 | 0.00016916 | 0.00018215 |   0.0 |  0.00
Modify  | 0.69539    | 0.69739    | 0.69939    |   0.2 |  1.53
Other   |            | 0.1616     |            |       |  0.35

Nlocal:    9826 ave 9849 max 9803 min
Histogram: 1 0 0 0 0 0 0 0 0 1
Nghost:    11594 ave 11603 max 11585 min
Histogram: 1 0 0 0 0 0 0 0 0 1
Neighs:    579960 ave 587276 max 572643 min
Histogram: 1 0 0 0 0 0 0 0 0 1

Total # of neighbors = 1159919
Ave neighs/atom = 59.0229
Neighbor list builds = 495
Dangerous builds not checked
Setting up Verlet run ...
  Unit style    : metal
  Current step  : 200495
  Time step     : 0.001
Per MPI rank memory allocation (min/avg/max) = 11.35 | 11.35 | 11.35 Mbytes
Step Temp Press TotEng PotEng Enthalpy 
  200495    2020.0631   -437.58892   -54143.209   -59274.353   -54259.544 
  220000    2002.1373   -1044.0144   -54238.785   -59324.396   -54516.161 
Loop time of 1981.43 on 2 procs for 19505 steps with 19652 atoms

Performance: 0.851 ns/day, 28.218 hours/ns, 9.844 timesteps/s
98.8% CPU use with 2 MPI tasks x no OpenMP threads

MPI task timing breakdown:
Section |  min time  |  avg time  |  max time  |%varavg| %total
---------------------------------------------------------------
Pair    | 1091.1     | 1094.9     | 1098.6     |  11.4 | 55.26
Neigh   | 709.9      | 725.14     | 740.37     |  56.6 | 36.60
Comm    | 105.34     | 124.37     | 143.4      | 170.7 |  6.28
Output  | 0.039026   | 0.039053   | 0.03908    |   0.0 |  0.00
Modify  | 30.419     | 30.48      | 30.542     |   1.1 |  1.54
Other   |            | 6.554      |            |       |  0.33

Nlocal:    9826 ave 9859 max 9793 min
Histogram: 1 0 0 0 0 0 0 0 0 1
Nghost:    11624 ave 11640 max 11608 min
Histogram: 1 0 0 0 0 0 0 0 0 1
Neighs:    580524 ave 582821 max 578226 min
Histogram: 1 0 0 0 0 0 0 0 0 1

Total # of neighbors = 1161047
Ave neighs/atom = 59.0803
Neighbor list builds = 19505
Dangerous builds not checked
Setting up Verlet run ...
  Unit style    : metal
  Current step  : 220000
  Time step     : 0.001
Per MPI rank memory allocation (min/avg/max) = 11.35 | 11.35 | 11.35 Mbytes
Step Temp Press TotEng PotEng Enthalpy 
  220000    2002.1373   -1044.0144   -54238.785   -59324.396   -54516.161 
  220495    1950.0874   -316.30108   -54375.652   -59329.052   -54459.536 
Loop time of 46.4097 on 2 procs for 495 steps with 19652 atoms

Performance: 0.922 ns/day, 26.044 hours/ns, 10.666 timesteps/s
99.8% CPU use with 2 MPI tasks x no OpenMP threads

MPI task timing breakdown:
Section |  min time  |  avg time  |  max time  |%varavg| %total
---------------------------------------------------------------
Pair    | 25.75      | 25.775     | 25.799     |   0.5 | 55.54
Neigh   | 16.858     | 16.934     | 17.01      |   1.9 | 36.49
Comm    | 2.6693     | 2.7952     | 2.921      |   7.5 |  6.02
Output  | 0.00012612 | 0.00017011 | 0.0002141  |   0.0 |  0.00
Modify  | 0.72432    | 0.7415     | 0.75868    |   2.0 |  1.60
Other   |            | 0.1642     |            |       |  0.35

Nlocal:    9826 ave 9840 max 9812 min
Histogram: 1 0 0 0 0 0 0 0 0 1
Nghost:    11707.5 ave 11767 max 11648 min
Histogram: 1 0 0 0 0 0 0 0 0 1
Neighs:    581240 ave 589160 max 573319 min
Histogram: 1 0 0 0 0 0 0 0 0 1

Total # of neighbors = 1162479
Ave neighs/atom = 59.1532
Neighbor list builds = 495
Dangerous builds not checked
Setting up Verlet run ...
  Unit style    : metal
  Current step  : 220495
  Time step     : 0.001
Per MPI rank memory allocation (min/avg/max) = 11.35 | 11.35 | 11.35 Mbytes
Step Temp Press TotEng PotEng Enthalpy 
  220495    1950.0874   -316.30108   -54375.652   -59329.052   -54459.536 
  240000    1965.1724   -230.70655   -54510.336   -59502.052   -54571.128 
Loop time of 1914.4 on 2 procs for 19505 steps with 19652 atoms

Performance: 0.880 ns/day, 27.264 hours/ns, 10.189 timesteps/s
99.5% CPU use with 2 MPI tasks x no OpenMP threads

MPI task timing breakdown:
Section |  min time  |  avg time  |  max time  |%varavg| %total
---------------------------------------------------------------
Pair    | 1046.3     | 1059.7     | 1073.1     |  41.2 | 55.35
Neigh   | 690.34     | 700.55     | 710.77     |  38.6 | 36.59
Comm    | 94.785     | 118.93     | 143.08     | 221.4 |  6.21
Output  | 0.037649   | 0.037663   | 0.037678   |   0.0 |  0.00
Modify  | 28.422     | 28.768     | 29.113     |   6.4 |  1.50
Other   |            | 6.417      |            |       |  0.34

Nlocal:    9826 ave 9836 max 9816 min
Histogram: 1 0 0 0 0 0 0 0 0 1
Nghost:    11730.5 ave 11750 max 11711 min
Histogram: 1 0 0 0 0 0 0 0 0 1
Neighs:    585231 ave 591894 max 578568 min
Histogram: 1 0 0 0 0 0 0 0 0 1

Total # of neighbors = 1170462
Ave neighs/atom = 59.5594
Neighbor list builds = 19505
Dangerous builds not checked
Setting up Verlet run ...
  Unit style    : metal
  Current step  : 240000
  Time step     : 0.001
Per MPI rank memory allocation (min/avg/max) = 11.35 | 11.35 | 11.35 Mbytes
Step Temp Press TotEng PotEng Enthalpy 
  240000    1965.1724   -230.70655   -54510.336   -59502.052   -54571.128 
  240495    1917.2529     236.4799   -54676.192    -59546.19   -54614.027 
Loop time of 45.6051 on 2 procs for 495 steps with 19652 atoms

Performance: 0.938 ns/day, 25.592 hours/ns, 10.854 timesteps/s
99.8% CPU use with 2 MPI tasks x no OpenMP threads

MPI task timing breakdown:
Section |  min time  |  avg time  |  max time  |%varavg| %total
---------------------------------------------------------------
Pair    | 24.743     | 25.246     | 25.749     |  10.0 | 55.36
Neigh   | 15.902     | 16.524     | 17.146     |  15.3 | 36.23
Comm    | 1.8159     | 2.9777     | 4.1395     |  67.3 |  6.53
Output  | 0.00017381 | 0.00019944 | 0.00022507 |   0.0 |  0.00
Modify  | 0.67778    | 0.70184    | 0.72589    |   2.9 |  1.54
Other   |            | 0.1552     |            |       |  0.34

Nlocal:    9826 ave 9853 max 9799 min
Histogram: 1 0 0 0 0 0 0 0 0 1
Nghost:    11700 ave 11710 max 11690 min
Histogram: 1 0 0 0 0 0 0 0 0 1
Neighs:    586980 ave 589315 max 584646 min
Histogram: 1 0 0 0 0 0 0 0 0 1

Total # of neighbors = 1173961
Ave neighs/atom = 59.7375
Neighbor list builds = 495
Dangerous builds not checked
Setting up Verlet run ...
  Unit style    : metal
  Current step  : 240495
  Time step     : 0.001
Per MPI rank memory allocation (min/avg/max) = 11.35 | 11.35 | 11.35 Mbytes
Step Temp Press TotEng PotEng Enthalpy 
  240495    1917.2529     236.4799   -54676.192    -59546.19   -54614.027 
  260000    1905.2228   -491.26809   -54739.946   -59579.386   -54869.122 
Loop time of 1895.36 on 2 procs for 19505 steps with 19652 atoms

Performance: 0.889 ns/day, 26.993 hours/ns, 10.291 timesteps/s
99.5% CPU use with 2 MPI tasks x no OpenMP threads

MPI task timing breakdown:
Section |  min time  |  avg time  |  max time  |%varavg| %total
---------------------------------------------------------------
Pair    | 1050.1     | 1052.6     | 1055.1     |   7.8 | 55.54
Neigh   | 684.46     | 693.72     | 702.98     |  35.1 | 36.60
Comm    | 102.41     | 114.35     | 126.29     | 111.6 |  6.03
Output  | 0.034155   | 0.034155   | 0.034156   |   0.0 |  0.00
Modify  | 28.224     | 28.295     | 28.366     |   1.3 |  1.49
Other   |            | 6.363      |            |       |  0.34

Nlocal:    9826 ave 9857 max 9795 min
Histogram: 1 0 0 0 0 0 0 0 0 1
Nghost:    11705 ave 11737 max 11673 min
Histogram: 1 0 0 0 0 0 0 0 0 1
Neighs:    586664 ave 595165 max 578163 min
Histogram: 1 0 0 0 0 0 0 0 0 1

Total # of neighbors = 1173328
Ave neighs/atom = 59.7053
Neighbor list builds = 19505
Dangerous builds not checked
Setting up Verlet run ...
  Unit style    : metal
  Current step  : 260000
  Time step     : 0.001
Per MPI rank memory allocation (min/avg/max) = 11.35 | 11.35 | 11.35 Mbytes
Step Temp Press TotEng PotEng Enthalpy 
  260000    1905.2228   -491.26809   -54739.946   -59579.386   -54869.122 
  260495    1858.6819    758.27127   -54995.301   -59716.522   -54797.397 
Loop time of 44.6511 on 2 procs for 495 steps with 19652 atoms

Performance: 0.958 ns/day, 25.057 hours/ns, 11.086 timesteps/s
99.8% CPU use with 2 MPI tasks x no OpenMP threads

MPI task timing breakdown:
Section |  min time  |  avg time  |  max time  |%varavg| %total
---------------------------------------------------------------
Pair    | 24.336     | 24.713     | 25.09      |   7.6 | 55.35
Neigh   | 16.338     | 16.656     | 16.973     |   7.8 | 37.30
Comm    | 2.4116     | 2.4407     | 2.4697     |   1.9 |  5.47
Output  | 0.00011301 | 0.000126   | 0.000139   |   0.0 |  0.00
Modify  | 0.66227    | 0.68476    | 0.70724    |   2.7 |  1.53
Other   |            | 0.1571     |            |       |  0.35

Nlocal:    9826 ave 9846 max 9806 min
Histogram: 1 0 0 0 0 0 0 0 0 1
Nghost:    11715.5 ave 11725 max 11706 min
Histogram: 1 0 0 0 0 0 0 0 0 1
Neighs:    591115 ave 598645 max 583585 min
Histogram: 1 0 0 0 0 0 0 0 0 1

Total # of neighbors = 1182230
Ave neighs/atom = 60.1583
Neighbor list builds = 495
Dangerous builds not checked
Setting up Verlet run ...
  Unit style    : metal
  Current step  : 260495
  Time step     : 0.001
Per MPI rank memory allocation (min/avg/max) = 11.35 | 11.35 | 11.35 Mbytes
Step Temp Press TotEng PotEng Enthalpy 
  260495    1858.6819    758.27127   -54995.301   -59716.522   -54797.397 
  280000    1841.8794     74.60067   -55048.271   -59726.813   -55028.788 
Loop time of 1845.55 on 2 procs for 19505 steps with 19652 atoms

Performance: 0.913 ns/day, 26.283 hours/ns, 10.569 timesteps/s
99.6% CPU use with 2 MPI tasks x no OpenMP threads

MPI task timing breakdown:
Section |  min time  |  avg time  |  max time  |%varavg| %total
---------------------------------------------------------------
Pair    | 1028.8     | 1031.3     | 1033.7     |   7.5 | 55.88
Neigh   | 673.26     | 676.62     | 679.99     |  12.9 | 36.66
Comm    | 98.212     | 104.5      | 110.78     |  61.5 |  5.66
Output  | 0.033493   | 0.033509   | 0.033526   |   0.0 |  0.00
Modify  | 26.77      | 27.08      | 27.391     |   6.0 |  1.47
Other   |            | 6.058      |            |       |  0.33

Nlocal:    9826 ave 9836 max 9816 min
Histogram: 1 0 0 0 0 0 0 0 0 1
Nghost:    11718.5 ave 11729 max 11708 min
Histogram: 1 0 0 0 0 0 0 0 0 1
Neighs:    590558 ave 595372 max 585743 min
Histogram: 1 0 0 0 0 0 0 0 0 1

Total # of neighbors = 1181115
Ave neighs/atom = 60.1015
Neighbor list builds = 19505
Dangerous builds not checked
Setting up Verlet run ...
  Unit style    : metal
  Current step  : 280000
  Time step     : 0.001
Per MPI rank memory allocation (min/avg/max) = 11.35 | 11.35 | 11.35 Mbytes
Step Temp Press TotEng PotEng Enthalpy 
  280000    1841.8794     74.60067   -55048.271   -59726.813   -55028.788 
  280495    1809.4022    578.43297   -55280.846   -59876.893   -55130.761 
Loop time of 41.852 on 2 procs for 495 steps with 19652 atoms

Performance: 1.022 ns/day, 23.486 hours/ns, 11.827 timesteps/s
100.0% CPU use with 2 MPI tasks x no OpenMP threads

MPI task timing breakdown:
Section |  min time  |  avg time  |  max time  |%varavg| %total
---------------------------------------------------------------
Pair    | 23.187     | 23.393     | 23.599     |   4.3 | 55.89
Neigh   | 15.396     | 15.607     | 15.818     |   5.3 | 37.29
Comm    | 2.1517     | 2.1595     | 2.1674     |   0.5 |  5.16
Output  | 7.8917e-05 | 0.0001049  | 0.00013089 |   0.0 |  0.00
Modify  | 0.55336    | 0.55459    | 0.55582    |   0.2 |  1.33
Other   |            | 0.1376     |            |       |  0.33

Nlocal:    9826 ave 9830 max 9822 min
Histogram: 1 0 0 0 0 0 0 0 0 1
Nghost:    11779.5 ave 11791 max 11768 min
Histogram: 1 0 0 0 0 0 0 0 0 1
Neighs:    594624 ave 599741 max 589506 min
Histogram: 1 0 0 0 0 0 0 0 0 1

Total # of neighbors = 1189247
Ave neighs/atom = 60.5153
Neighbor list builds = 495
Dangerous builds not checked
Setting up Verlet run ...
  Unit style    : metal
  Current step  : 280495
  Time step     : 0.001
Per MPI rank memory allocation (min/avg/max) = 11.35 | 11.35 | 11.35 Mbytes
Step Temp Press TotEng PotEng Enthalpy 
  280495    1809.4022    578.43297   -55280.846   -59876.893   -55130.761 
  300000    1812.0046   -45.337723   -55225.539   -59828.196   -55237.333 
Loop time of 1771.73 on 2 procs for 19505 steps with 19652 atoms

Performance: 0.951 ns/day, 25.232 hours/ns, 11.009 timesteps/s
99.6% CPU use with 2 MPI tasks x no OpenMP threads

MPI task timing breakdown:
Section |  min time  |  avg time  |  max time  |%varavg| %total
---------------------------------------------------------------
Pair    | 985.62     | 990.46     | 995.29     |  15.4 | 55.90
Neigh   | 640.37     | 654.1      | 667.83     |  53.7 | 36.92
Comm    | 77.746     | 96.769     | 115.79     | 193.4 |  5.46
Output  | 0.037486   | 0.037508   | 0.03753    |   0.0 |  0.00
Modify  | 24.319     | 24.632     | 24.944     |   6.3 |  1.39
Other   |            | 5.731      |            |       |  0.32

Nlocal:    9826 ave 9838 max 9814 min
Histogram: 1 0 0 0 0 0 0 0 0 1
Nghost:    11723.5 ave 11769 max 11678 min
Histogram: 1 0 0 0 0 0 0 0 0 1
Neighs:    592928 ave 598217 max 587640 min
Histogram: 1 0 0 0 0 0 0 0 0 1

Total # of neighbors = 1185857
Ave neighs/atom = 60.3428
Neighbor list builds = 19505
Dangerous builds not checked
Setting up Verlet run ...
  Unit style    : metal
  Current step  : 300000
  Time step     : 0.001
Per MPI rank memory allocation (min/avg/max) = 11.35 | 11.35 | 11.35 Mbytes
Step Temp Press TotEng PotEng Enthalpy 
  300000    1812.0046   -45.337723   -55225.539   -59828.196   -55237.333 
  300495    1764.5518     317.9629   -55545.131   -60027.253    -55463.08 
Loop time of 44.6333 on 2 procs for 495 steps with 19652 atoms

Performance: 0.958 ns/day, 25.047 hours/ns, 11.090 timesteps/s
99.6% CPU use with 2 MPI tasks x no OpenMP threads

MPI task timing breakdown:
Section |  min time  |  avg time  |  max time  |%varavg| %total
---------------------------------------------------------------
Pair    | 24.304     | 24.907     | 25.511     |  12.1 | 55.80
Neigh   | 15.514     | 15.952     | 16.39      |  11.0 | 35.74
Comm    | 1.8809     | 2.9581     | 4.0352     |  62.6 |  6.63
Output  | 0.00026512 | 0.00036108 | 0.00045705 |   0.0 |  0.00
Modify  | 0.64044    | 0.66411    | 0.68778    |   2.9 |  1.49
Other   |            | 0.1519     |            |       |  0.34

Nlocal:    9826 ave 9828 max 9824 min
Histogram: 1 0 0 0 0 0 0 0 0 1
Nghost:    11726.5 ave 11736 max 11717 min
Histogram: 1 0 0 0 0 0 0 0 0 1
Neighs:    598088 ave 603055 max 593120 min
Histogram: 1 0 0 0 0 0 0 0 0 1

Total # of neighbors = 1196175
Ave neighs/atom = 60.8679
Neighbor list builds = 495
Dangerous builds not checked
Setting up Verlet run ...
  Unit style    : metal
  Current step  : 300495
  Time step     : 0.001
Per MPI rank memory allocation (min/avg/max) = 11.35 | 11.35 | 11.35 Mbytes
Step Temp Press TotEng PotEng Enthalpy 
  300495    1764.5518     317.9629   -55545.131   -60027.253    -55463.08 
  320000    1758.1217   -720.76491   -55662.271    -60128.06   -55848.056 
Loop time of 1580.46 on 2 procs for 19505 steps with 19652 atoms

Performance: 1.066 ns/day, 22.508 hours/ns, 12.341 timesteps/s
99.9% CPU use with 2 MPI tasks x no OpenMP threads

MPI task timing breakdown:
Section |  min time  |  avg time  |  max time  |%varavg| %total
---------------------------------------------------------------
Pair    | 862.58     | 873.38     | 884.18     |  36.5 | 55.26
Neigh   | 597.01     | 603.1      | 609.2      |  24.8 | 38.16
Comm    | 61.646     | 78.894     | 96.142     | 194.2 |  4.99
Output  | 0.036516   | 0.036534   | 0.036553   |   0.0 |  0.00
Modify  | 20.09      | 20.334     | 20.579     |   5.4 |  1.29
Other   |            | 4.713      |            |       |  0.30

Nlocal:    9826 ave 9829 max 9823 min
Histogram: 1 0 0 0 0 0 0 0 0 1
Nghost:    11731 ave 11771 max 11691 min
Histogram: 1 0 0 0 0 0 0 0 0 1
Neighs:    598683 ave 605681 max 591685 min
Histogram: 1 0 0 0 0 0 0 0 0 1

Total # of neighbors = 1197366
Ave neighs/atom = 60.9285
Neighbor list builds = 19505
Dangerous builds not checked
Setting up Verlet run ...
  Unit style    : metal
  Current step  : 320000
  Time step     : 0.001
Per MPI rank memory allocation (min/avg/max) = 11.35 | 11.35 | 11.35 Mbytes
Step Temp Press TotEng PotEng Enthalpy 
  320000    1758.1217   -720.76491   -55662.271    -60128.06   -55848.056 
  320495    1715.3374    155.17347   -55818.855   -60175.968    -55778.98 
Loop time of 39.5075 on 2 procs for 495 steps with 19652 atoms

Performance: 1.083 ns/day, 22.170 hours/ns, 12.529 timesteps/s
100.0% CPU use with 2 MPI tasks x no OpenMP threads

MPI task timing breakdown:
Section |  min time  |  avg time  |  max time  |%varavg| %total
---------------------------------------------------------------
Pair    | 21.64      | 21.829     | 22.017     |   4.0 | 55.25
Neigh   | 14.874     | 15.107     | 15.339     |   6.0 | 38.24
Comm    | 1.44       | 1.8691     | 2.2981     |  31.4 |  4.73
Output  | 0.00010896 | 0.00012553 | 0.0001421  |   0.0 |  0.00
Modify  | 0.56614    | 0.57251    | 0.57887    |   0.8 |  1.45
Other   |            | 0.1306     |            |       |  0.33

Nlocal:    9826 ave 9835 max 9817 min
Histogram: 1 0 0 0 0 0 0 0 0 1
Nghost:    11794.5 ave 11825 max 11764 min
Histogram: 1 0 0 0 0 0 0 0 0 1
Neighs:    600658 ave 607217 max 594099 min
Histogram: 1 0 0 0 0 0 0 0 0 1

Total # of neighbors = 1201316
Ave neighs/atom = 61.1295
Neighbor list builds = 495
Dangerous builds not checked
Setting up Verlet run ...
  Unit style    : metal
  Current step  : 320495
  Time step     : 0.001
Per MPI rank memory allocation (min/avg/max) = 11.35 | 11.35 | 11.35 Mbytes
Step Temp Press TotEng PotEng Enthalpy 
  320495    1715.3374    155.17347   -55818.855   -60175.968    -55778.98 
  340000    1692.3924    450.79759   -55956.615   -60255.446   -55841.242 
Loop time of 1558.21 on 2 procs for 19505 steps with 19652 atoms

Performance: 1.082 ns/day, 22.191 hours/ns, 12.518 timesteps/s
99.9% CPU use with 2 MPI tasks x no OpenMP threads

MPI task timing breakdown:
Section |  min time  |  avg time  |  max time  |%varavg| %total
---------------------------------------------------------------
Pair    | 856.85     | 864.33     | 871.8      |  25.4 | 55.47
Neigh   | 588.89     | 591.38     | 593.86     |  10.2 | 37.95
Comm    | 66.898     | 76.918     | 86.937     | 114.2 |  4.94
Output  | 0.037654   | 0.037675   | 0.037696   |   0.0 |  0.00
Modify  | 20.674     | 20.719     | 20.764     |   1.0 |  1.33
Other   |            | 4.834      |            |       |  0.31

Nlocal:    9826 ave 9863 max 9789 min
Histogram: 1 0 0 0 0 0 0 0 0 1
Nghost:    11807 ave 11817 max 11797 min
Histogram: 1 0 0 0 0 0 0 0 0 1
Neighs:    603252 ave 612819 max 593685 min
Histogram: 1 0 0 0 0 0 0 0 0 1

Total # of neighbors = 1206504
Ave neighs/atom = 61.3934
Neighbor list builds = 19505
Dangerous builds not checked
Setting up Verlet run ...
  Unit style    : metal
  Current step  : 340000
  Time step     : 0.001
Per MPI rank memory allocation (min/avg/max) = 11.35 | 11.35 | 11.35 Mbytes
Step Temp Press TotEng PotEng Enthalpy 
  340000    1692.3924    450.79759   -55956.615   -60255.446   -55841.242 
  340495    1657.2685    297.70863   -56112.681   -60322.294   -56036.697 
Loop time of 44.5539 on 2 procs for 495 steps with 19652 atoms

Performance: 0.960 ns/day, 25.002 hours/ns, 11.110 timesteps/s
99.9% CPU use with 2 MPI tasks x no OpenMP threads

MPI task timing breakdown:
Section |  min time  |  avg time  |  max time  |%varavg| %total
---------------------------------------------------------------
Pair    | 24.317     | 24.785     | 25.253     |   9.4 | 55.63
Neigh   | 15.232     | 16.135     | 17.038     |  22.5 | 36.21
Comm    | 1.4435     | 2.845      | 4.2464     |  83.1 |  6.39
Output  | 8.7976e-05 | 0.00011349 | 0.000139   |   0.0 |  0.00
Modify  | 0.61621    | 0.63833    | 0.66045    |   2.8 |  1.43
Other   |            | 0.1506     |            |       |  0.34

Nlocal:    9826 ave 9840 max 9812 min
Histogram: 1 0 0 0 0 0 0 0 0 1
Nghost:    11798 ave 11801 max 11795 min
Histogram: 1 0 0 0 0 0 0 0 0 1
Neighs:    605008 ave 608755 max 601260 min
Histogram: 1 0 0 0 0 0 0 0 0 1

Total # of neighbors = 1210015
Ave neighs/atom = 61.5721
Neighbor list builds = 495
Dangerous builds not checked
Setting up Verlet run ...
  Unit style    : metal
  Current step  : 340495
  Time step     : 0.001
Per MPI rank memory allocation (min/avg/max) = 11.35 | 11.35 | 11.35 Mbytes
Step Temp Press TotEng PotEng Enthalpy 
  340495    1657.2685    297.70863   -56112.681   -60322.294   -56036.697 
  360000    1645.9126   -317.64802   -56246.326   -60427.094   -56327.183 
Loop time of 1728.81 on 2 procs for 19505 steps with 19652 atoms

Performance: 0.975 ns/day, 24.621 hours/ns, 11.282 timesteps/s
99.8% CPU use with 2 MPI tasks x no OpenMP threads

MPI task timing breakdown:
Section |  min time  |  avg time  |  max time  |%varavg| %total
---------------------------------------------------------------
Pair    | 948.44     | 964.17     | 979.9      |  50.7 | 55.77
Neigh   | 638.23     | 642.1      | 645.97     |  15.3 | 37.14
Comm    | 74.446     | 94.017     | 113.59     | 201.8 |  5.44
Output  | 0.034126   | 0.034153   | 0.034181   |   0.0 |  0.00
Modify  | 23.022     | 23.046     | 23.069     |   0.5 |  1.33
Other   |            | 5.448      |            |       |  0.32

Nlocal:    9826 ave 9841 max 9811 min
Histogram: 1 0 0 0 0 0 0 0 0 1
Nghost:    11852.5 ave 11872 max 11833 min
Histogram: 1 0 0 0 0 0 0 0 0 1
Neighs:    606412 ave 614386 max 598437 min
Histogram: 1 0 0 0 0 0 0 0 0 1

Total # of neighbors = 1212823
Ave neighs/atom = 61.715
Neighbor list builds = 19505
Dangerous builds not checked
Setting up Verlet run ...
  Unit style    : metal
  Current step  : 360000
  Time step     : 0.001
Per MPI rank memory allocation (min/avg/max) = 11.35 | 11.35 | 11.35 Mbytes
Step Temp Press TotEng PotEng Enthalpy 
  360000    1645.9126   -317.64802   -56246.326   -60427.094   -56327.183 
  360495    1606.9148    421.35292   -56425.464   -60507.174   -56318.653 
Loop time of 43.0706 on 2 procs for 495 steps with 19652 atoms

Performance: 0.993 ns/day, 24.170 hours/ns, 11.493 timesteps/s
100.0% CPU use with 2 MPI tasks x no OpenMP threads

MPI task timing breakdown:
Section |  min time  |  avg time  |  max time  |%varavg| %total
---------------------------------------------------------------
Pair    | 23.803     | 24.164     | 24.524     |   7.3 | 56.10
Neigh   | 15.224     | 15.813     | 16.401     |  14.8 | 36.71
Comm    | 2.1004     | 2.3585     | 2.6166     |  16.8 |  5.48
Output  | 0.00010204 | 0.00012648 | 0.00015092 |   0.0 |  0.00
Modify  | 0.57441    | 0.59555    | 0.61669    |   2.7 |  1.38
Other   |            | 0.1401     |            |       |  0.33

Nlocal:    9826 ave 9828 max 9824 min
Histogram: 1 0 0 0 0 0 0 0 0 1
Nghost:    11863 ave 11881 max 11845 min
Histogram: 1 0 0 0 0 0 0 0 0 1
Neighs:    609206 ave 614716 max 603695 min
Histogram: 1 0 0 0 0 0 0 0 0 1

Total # of neighbors = 1218411
Ave neighs/atom = 61.9993
Neighbor list builds = 495
Dangerous builds not checked
Setting up Verlet run ...
  Unit style    : metal
  Current step  : 360495
  Time step     : 0.001
Per MPI rank memory allocation (min/avg/max) = 11.35 | 11.35 | 11.35 Mbytes
Step Temp Press TotEng PotEng Enthalpy 
  360495    1606.9148    421.35292   -56425.464   -60507.174   -56318.653 
  380000    1591.8884    906.53008   -56542.851   -60586.393   -56313.827 
Loop time of 1690.88 on 2 procs for 19505 steps with 19652 atoms

Performance: 0.997 ns/day, 24.080 hours/ns, 11.535 timesteps/s
99.7% CPU use with 2 MPI tasks x no OpenMP threads

MPI task timing breakdown:
Section |  min time  |  avg time  |  max time  |%varavg| %total
---------------------------------------------------------------
Pair    | 947.13     | 948.32     | 949.52     |   3.9 | 56.08
Neigh   | 624.68     | 627.03     | 629.38     |   9.4 | 37.08
Comm    | 84.45      | 87.982     | 91.514     |  37.7 |  5.20
Output  | 0.025174   | 0.025186   | 0.025199   |   0.0 |  0.00
Modify  | 22.207     | 22.246     | 22.284     |   0.8 |  1.32
Other   |            | 5.271      |            |       |  0.31

Nlocal:    9826 ave 9832 max 9820 min
Histogram: 1 0 0 0 0 0 0 0 0 1
Nghost:    11899 ave 11910 max 11888 min
Histogram: 1 0 0 0 0 0 0 0 0 1
Neighs:    611153 ave 615244 max 607062 min
Histogram: 1 0 0 0 0 0 0 0 0 1

Total # of neighbors = 1222306
Ave neighs/atom = 62.1975
Neighbor list builds = 19505
Dangerous builds not checked
Setting up Verlet run ...
  Unit style    : metal
  Current step  : 380000
  Time step     : 0.001
Per MPI rank memory allocation (min/avg/max) = 11.35 | 11.35 | 11.35 Mbytes
Step Temp Press TotEng PotEng Enthalpy 
  380000    1591.8884    906.53008   -56542.851   -60586.393   -56313.827 
  380495     1572.215    530.18208    -56684.86    -60678.43   -56551.198 
Loop time of 40.5261 on 2 procs for 495 steps with 19652 atoms

Performance: 1.055 ns/day, 22.742 hours/ns, 12.214 timesteps/s
100.0% CPU use with 2 MPI tasks x no OpenMP threads

MPI task timing breakdown:
Section |  min time  |  avg time  |  max time  |%varavg| %total
---------------------------------------------------------------
Pair    | 22.602     | 22.68      | 22.757     |   1.6 | 55.96
Neigh   | 15.116     | 15.187     | 15.257     |   1.8 | 37.47
Comm    | 1.9782     | 1.9958     | 2.0133     |   1.2 |  4.92
Output  | 9.5844e-05 | 0.00012743 | 0.00015903 |   0.0 |  0.00
Modify  | 0.53006    | 0.53408    | 0.5381     |   0.5 |  1.32
Other   |            | 0.1297     |            |       |  0.32

Nlocal:    9826 ave 9832 max 9820 min
Histogram: 1 0 0 0 0 0 0 0 0 1
Nghost:    11900 ave 11917 max 11883 min
Histogram: 1 0 0 0 0 0 0 0 0 1
Neighs:    612408 ave 618693 max 606124 min
Histogram: 1 0 0 0 0 0 0 0 0 1

Total # of neighbors = 1224817
Ave neighs/atom = 62.3253
Neighbor list builds = 495
Dangerous builds not checked
Setting up Verlet run ...
  Unit style    : metal
  Current step  : 380495
  Time step     : 0.001
Per MPI rank memory allocation (min/avg/max) = 11.35 | 11.35 | 11.35 Mbytes
Step Temp Press TotEng PotEng Enthalpy 
  380495     1572.215    530.18208    -56684.86    -60678.43   -56551.198 
  400000     1556.063    566.52691     -56797.1   -60749.642   -56654.738 
Loop time of 1710.7 on 2 procs for 19505 steps with 19652 atoms

Performance: 0.985 ns/day, 24.363 hours/ns, 11.402 timesteps/s
99.4% CPU use with 2 MPI tasks x no OpenMP threads

MPI task timing breakdown:
Section |  min time  |  avg time  |  max time  |%varavg| %total
---------------------------------------------------------------
Pair    | 950.61     | 958.07     | 965.53     |  24.1 | 56.00
Neigh   | 600.18     | 621.27     | 642.35     |  84.6 | 36.32
Comm    | 74.864     | 104.12     | 133.38     | 286.7 |  6.09
Output  | 0.02449    | 0.024502   | 0.024513   |   0.0 |  0.00
Modify  | 21.582     | 22.075     | 22.567     |  10.5 |  1.29
Other   |            | 5.151      |            |       |  0.30

Nlocal:    9826 ave 9831 max 9821 min
Histogram: 1 0 0 0 0 0 0 0 0 1
Nghost:    11863.5 ave 11904 max 11823 min
Histogram: 1 0 0 0 0 0 0 0 0 1
Neighs:    614736 ave 621903 max 607569 min
Histogram: 1 0 0 0 0 0 0 0 0 1

Total # of neighbors = 1229472
Ave neighs/atom = 62.5622
Neighbor list builds = 19505
Dangerous builds not checked
Setting up Verlet run ...
  Unit style    : metal
  Current step  : 400000
  Time step     : 0.001
Per MPI rank memory allocation (min/avg/max) = 11.35 | 11.35 | 11.35 Mbytes
Step Temp Press TotEng PotEng Enthalpy 
  400000     1556.063    566.52691     -56797.1   -60749.642   -56654.738 
  400495    1519.1394    529.09748   -56977.922   -60836.674   -56845.268 
Loop time of 43.7035 on 2 procs for 495 steps with 19652 atoms

Performance: 0.979 ns/day, 24.525 hours/ns, 11.326 timesteps/s
100.1% CPU use with 2 MPI tasks x no OpenMP threads

MPI task timing breakdown:
Section |  min time  |  avg time  |  max time  |%varavg| %total
---------------------------------------------------------------
Pair    | 24.291     | 24.664     | 25.038     |   7.5 | 56.44
Neigh   | 15.184     | 16.103     | 17.022     |  22.9 | 36.85
Comm    | 1.6427     | 2.2068     | 2.7709     |  38.0 |  5.05
Output  | 0.0001018  | 0.00012386 | 0.00014591 |   0.0 |  0.00
Modify  | 0.57555    | 0.58974    | 0.60393    |   1.8 |  1.35
Other   |            | 0.1397     |            |       |  0.32

Nlocal:    9826 ave 9833 max 9819 min
Histogram: 1 0 0 0 0 0 0 0 0 1
Nghost:    11886 ave 11914 max 11858 min
Histogram: 1 0 0 0 0 0 0 0 0 1
Neighs:    615988 ave 621051 max 610926 min
Histogram: 1 0 0 0 0 0 0 0 0 1

Total # of neighbors = 1231977
Ave neighs/atom = 62.6896
Neighbor list builds = 495
Dangerous builds not checked
Setting up Verlet run ...
  Unit style    : metal
  Current step  : 400495
  Time step     : 0.001
Per MPI rank memory allocation (min/avg/max) = 11.35 | 11.35 | 11.35 Mbytes
Step Temp Press TotEng PotEng Enthalpy 
  400495    1519.1394    529.09748   -56977.922   -60836.674   -56845.268 
  420000    1509.4256   -842.59715   -57017.459   -60851.537   -57229.029 
Loop time of 1706.83 on 2 procs for 19505 steps with 19652 atoms

Performance: 0.987 ns/day, 24.308 hours/ns, 11.428 timesteps/s
99.7% CPU use with 2 MPI tasks x no OpenMP threads

MPI task timing breakdown:
Section |  min time  |  avg time  |  max time  |%varavg| %total
---------------------------------------------------------------
Pair    | 955.24     | 961.24     | 967.24     |  19.3 | 56.32
Neigh   | 631.45     | 633.44     | 635.42     |   7.9 | 37.11
Comm    | 76.558     | 84.626     | 92.694     |  87.7 |  4.96
Output  | 0.039134   | 0.039166   | 0.039198   |   0.0 |  0.00
Modify  | 22.098     | 22.147     | 22.197     |   1.1 |  1.30
Other   |            | 5.344      |            |       |  0.31

Nlocal:    9826 ave 9847 max 9805 min
Histogram: 1 0 0 0 0 0 0 0 0 1
Nghost:    11904.5 ave 11935 max 11874 min
Histogram: 1 0 0 0 0 0 0 0 0 1
Neighs:    615353 ave 621194 max 609512 min
Histogram: 1 0 0 0 0 0 0 0 0 1

Total # of neighbors = 1230706
Ave neighs/atom = 62.625
Neighbor list builds = 19505
Dangerous builds not checked
Setting up Verlet run ...
  Unit style    : metal
  Current step  : 420000
  Time step     : 0.001
Per MPI rank memory allocation (min/avg/max) = 11.35 | 11.35 | 11.35 Mbytes
Step Temp Press TotEng PotEng Enthalpy 
  420000    1509.4256   -842.59715   -57017.459   -60851.537   -57229.029 
  420495    1466.3082   -397.11875    -57266.11   -60990.666   -57365.215 
Loop time of 44.6559 on 2 procs for 495 steps with 19652 atoms

Performance: 0.958 ns/day, 25.059 hours/ns, 11.085 timesteps/s
99.8% CPU use with 2 MPI tasks x no OpenMP threads

MPI task timing breakdown:
Section |  min time  |  avg time  |  max time  |%varavg| %total
---------------------------------------------------------------
Pair    | 25.076     | 25.306     | 25.537     |   4.6 | 56.67
Neigh   | 15.765     | 16.082     | 16.399     |   7.9 | 36.01
Comm    | 2.3781     | 2.4726     | 2.5671     |   6.0 |  5.54
Output  | 8.5115e-05 | 0.00011158 | 0.00013804 |   0.0 |  0.00
Modify  | 0.64243    | 0.64828    | 0.65413    |   0.7 |  1.45
Other   |            | 0.1467     |            |       |  0.33

Nlocal:    9826 ave 9837 max 9815 min
Histogram: 1 0 0 0 0 0 0 0 0 1
Nghost:    11918 ave 11924 max 11912 min
Histogram: 1 0 0 0 0 0 0 0 0 1
Neighs:    619144 ave 626767 max 611521 min
Histogram: 1 0 0 0 0 0 0 0 0 1

Total # of neighbors = 1238288
Ave neighs/atom = 63.0108
Neighbor list builds = 495
Dangerous builds not checked
Setting up Verlet run ...
  Unit style    : metal
  Current step  : 420495
  Time step     : 0.001
Per MPI rank memory allocation (min/avg/max) = 11.35 | 11.35 | 11.35 Mbytes
Step Temp Press TotEng PotEng Enthalpy 
  420495    1466.3082   -397.11875    -57266.11   -60990.666   -57365.215 
  440000    1450.7017   -11.430965   -57353.852   -61038.767   -57356.697 
Loop time of 1740.76 on 2 procs for 19505 steps with 19652 atoms

Performance: 0.968 ns/day, 24.791 hours/ns, 11.205 timesteps/s
99.8% CPU use with 2 MPI tasks x no OpenMP threads

MPI task timing breakdown:
Section |  min time  |  avg time  |  max time  |%varavg| %total
---------------------------------------------------------------
Pair    | 956.72     | 972.86     | 989.01     |  51.8 | 55.89
Neigh   | 624.97     | 636.72     | 648.46     |  46.5 | 36.58
Comm    | 73.055     | 101.85     | 130.64     | 285.3 |  5.85
Output  | 0.036422   | 0.036456   | 0.036491   |   0.0 |  0.00
Modify  | 23.254     | 23.838     | 24.422     |  12.0 |  1.37
Other   |            | 5.459      |            |       |  0.31

Nlocal:    9826 ave 9837 max 9815 min
Histogram: 1 0 0 0 0 0 0 0 0 1
Nghost:    11919.5 ave 11922 max 11917 min
Histogram: 1 0 0 0 0 0 0 0 0 1
Neighs:    620985 ave 628738 max 613232 min
Histogram: 1 0 0 0 0 0 0 0 0 1

Total # of neighbors = 1241970
Ave neighs/atom = 63.1981
Neighbor list builds = 19505
Dangerous builds not checked
Setting up Verlet run ...
  Unit style    : metal
  Current step  : 440000
  Time step     : 0.001
Per MPI rank memory allocation (min/avg/max) = 11.35 | 11.35 | 11.35 Mbytes
Step Temp Press TotEng PotEng Enthalpy 
  440000    1450.7017   -11.430965   -57353.852   -61038.767   -57356.697 
  440495      1416.19    311.72643   -57573.209    -61170.46   -57495.986 
Loop time of 48.2846 on 2 procs for 495 steps with 19652 atoms

Performance: 0.886 ns/day, 27.096 hours/ns, 10.252 timesteps/s
99.7% CPU use with 2 MPI tasks x no OpenMP threads

MPI task timing breakdown:
Section |  min time  |  avg time  |  max time  |%varavg| %total
---------------------------------------------------------------
Pair    | 26.759     | 27.21      | 27.662     |   8.7 | 56.35
Neigh   | 16.015     | 16.892     | 17.769     |  21.3 | 34.98
Comm    | 1.9695     | 3.3378     | 4.7061     |  74.9 |  6.91
Output  | 0.00022197 | 0.00028598 | 0.00035    |   0.0 |  0.00
Modify  | 0.66078    | 0.68688    | 0.71298    |   3.1 |  1.42
Other   |            | 0.1573     |            |       |  0.33

Nlocal:    9826 ave 9832 max 9820 min
Histogram: 1 0 0 0 0 0 0 0 0 1
Nghost:    11961 ave 11964 max 11958 min
Histogram: 1 0 0 0 0 0 0 0 0 1
Neighs:    624152 ave 630173 max 618130 min
Histogram: 1 0 0 0 0 0 0 0 0 1

Total # of neighbors = 1248303
Ave neighs/atom = 63.5204
Neighbor list builds = 495
Dangerous builds not checked
Setting up Verlet run ...
  Unit style    : metal
  Current step  : 440495
  Time step     : 0.001
Per MPI rank memory allocation (min/avg/max) = 11.35 | 11.35 | 11.35 Mbytes
Step Temp Press TotEng PotEng Enthalpy 
  440495      1416.19    311.72643   -57573.209    -61170.46   -57495.986 
  460000    1397.5456   -1297.1577   -57694.411   -61244.304   -58015.625 
Loop time of 2041.38 on 2 procs for 19505 steps with 19652 atoms

Performance: 0.826 ns/day, 29.072 hours/ns, 9.555 timesteps/s
99.2% CPU use with 2 MPI tasks x no OpenMP threads

MPI task timing breakdown:
Section |  min time  |  avg time  |  max time  |%varavg| %total
---------------------------------------------------------------
Pair    | 1128.8     | 1149.3     | 1169.7     |  60.2 | 56.30
Neigh   | 712.6      | 726.33     | 740.07     |  51.0 | 35.58
Comm    | 93.098     | 128.1      | 163.1      | 309.3 |  6.28
Output  | 0.059699   | 0.059736   | 0.059772   |   0.0 |  0.00
Modify  | 30.364     | 30.916     | 31.469     |   9.9 |  1.51
Other   |            | 6.711      |            |       |  0.33

Nlocal:    9826 ave 9844 max 9808 min
Histogram: 1 0 0 0 0 0 0 0 0 1
Nghost:    12018 ave 12052 max 11984 min
Histogram: 1 0 0 0 0 0 0 0 0 1
Neighs:    624272 ave 628128 max 620416 min
Histogram: 1 0 0 0 0 0 0 0 0 1

Total # of neighbors = 1248544
Ave neighs/atom = 63.5327
Neighbor list builds = 19505
Dangerous builds not checked
Setting up Verlet run ...
  Unit style    : metal
  Current step  : 460000
  Time step     : 0.001
Per MPI rank memory allocation (min/avg/max) = 11.35 | 11.35 | 11.35 Mbytes
Step Temp Press TotEng PotEng Enthalpy 
  460000    1397.5456   -1297.1577   -57694.411   -61244.304   -58015.625 
  460495    1362.8074   -10.770796   -57895.055    -61356.71   -57897.708 
Loop time of 50.9292 on 2 procs for 495 steps with 19652 atoms

Performance: 0.840 ns/day, 28.580 hours/ns, 9.719 timesteps/s
99.3% CPU use with 2 MPI tasks x no OpenMP threads

MPI task timing breakdown:
Section |  min time  |  avg time  |  max time  |%varavg| %total
---------------------------------------------------------------
Pair    | 28.422     | 28.792     | 29.163     |   6.9 | 56.53
Neigh   | 18.679     | 18.941     | 19.204     |   6.0 | 37.19
Comm    | 2.0686     | 2.1708     | 2.273      |   6.9 |  4.26
Output  | 0.00011516 | 0.00015008 | 0.00018501 |   0.0 |  0.00
Modify  | 0.83237    | 0.83709    | 0.8418     |   0.5 |  1.64
Other   |            | 0.1873     |            |       |  0.37

Nlocal:    9826 ave 9832 max 9820 min
Histogram: 1 0 0 0 0 0 0 0 0 1
Nghost:    12058 ave 12063 max 12053 min
Histogram: 1 0 0 0 0 0 0 0 0 1
Neighs:    627982 ave 633884 max 622080 min
Histogram: 1 0 0 0 0 0 0 0 0 1

Total # of neighbors = 1255964
Ave neighs/atom = 63.9102
Neighbor list builds = 495
Dangerous builds not checked
Setting up Verlet run ...
  Unit style    : metal
  Current step  : 460495
  Time step     : 0.001
Per MPI rank memory allocation (min/avg/max) = 11.35 | 11.35 | 11.35 Mbytes
Step Temp Press TotEng PotEng Enthalpy 
  460495    1362.8074   -10.770796   -57895.055    -61356.71   -57897.708 
  480000    1351.7171   -181.25189   -58012.466   -61445.951   -58056.988 
Loop time of 1984.4 on 2 procs for 19505 steps with 19652 atoms

Performance: 0.849 ns/day, 28.261 hours/ns, 9.829 timesteps/s
99.0% CPU use with 2 MPI tasks x no OpenMP threads

MPI task timing breakdown:
Section |  min time  |  avg time  |  max time  |%varavg| %total
---------------------------------------------------------------
Pair    | 1110.4     | 1115.8     | 1121.1     |  16.0 | 56.23
Neigh   | 731.66     | 733.47     | 735.28     |   6.7 | 36.96
Comm    | 95.205     | 98.548     | 101.89     |  33.7 |  4.97
Output  | 0.041295   | 0.041321   | 0.041346   |   0.0 |  0.00
Modify  | 29.913     | 30.017     | 30.122     |   1.9 |  1.51
Other   |            | 6.568      |            |       |  0.33

Nlocal:    9826 ave 9865 max 9787 min
Histogram: 1 0 0 0 0 0 0 0 0 1
Nghost:    12013 ave 12052 max 11974 min
Histogram: 1 0 0 0 0 0 0 0 0 1
Neighs:    629562 ave 632155 max 626970 min
Histogram: 1 0 0 0 0 0 0 0 0 1

Total # of neighbors = 1259125
Ave neighs/atom = 64.0711
Neighbor list builds = 19505
Dangerous builds not checked
Setting up Verlet run ...
  Unit style    : metal
  Current step  : 480000
  Time step     : 0.001
Per MPI rank memory allocation (min/avg/max) = 11.35 | 11.35 | 11.35 Mbytes
Step Temp Press TotEng PotEng Enthalpy 
  480000    1351.7171   -181.25189   -58012.466   -61445.951   -58056.988 
  480495    1320.4192    803.22223     -58190.2   -61544.185   -57993.885 
Loop time of 49.9699 on 2 procs for 495 steps with 19652 atoms

Performance: 0.856 ns/day, 28.041 hours/ns, 9.906 timesteps/s
99.6% CPU use with 2 MPI tasks x no OpenMP threads

MPI task timing breakdown:
Section |  min time  |  avg time  |  max time  |%varavg| %total
---------------------------------------------------------------
Pair    | 28.258     | 28.411     | 28.564     |   2.9 | 56.86
Neigh   | 17.311     | 17.925     | 18.539     |  14.5 | 35.87
Comm    | 2.0854     | 2.5696     | 3.0539     |  30.2 |  5.14
Output  | 0.00011086 | 0.00015044 | 0.00019002 |   0.0 |  0.00
Modify  | 0.86122    | 0.87877    | 0.89633    |   1.9 |  1.76
Other   |            | 0.1852     |            |       |  0.37

Nlocal:    9826 ave 9836 max 9816 min
Histogram: 1 0 0 0 0 0 0 0 0 1
Nghost:    12030.5 ave 12039 max 12022 min
Histogram: 1 0 0 0 0 0 0 0 0 1
Neighs:    632728 ave 639906 max 625550 min
Histogram: 1 0 0 0 0 0 0 0 0 1

Total # of neighbors = 1265456
Ave neighs/atom = 64.3932
Neighbor list builds = 495
Dangerous builds not checked
Setting up Verlet run ...
  Unit style    : metal
  Current step  : 480495
  Time step     : 0.001
Per MPI rank memory allocation (min/avg/max) = 11.35 | 11.35 | 11.35 Mbytes
Step Temp Press TotEng PotEng Enthalpy 
  480495    1320.4192    803.22223     -58190.2   -61544.185   -57993.885 
  500000     1296.438   -38.022778   -58291.976   -61585.047   -58301.265 
Loop time of 2017.84 on 2 procs for 19505 steps with 19652 atoms

Performance: 0.835 ns/day, 28.737 hours/ns, 9.666 timesteps/s
99.0% CPU use with 2 MPI tasks x no OpenMP threads

MPI task timing breakdown:
Section |  min time  |  avg time  |  max time  |%varavg| %total
---------------------------------------------------------------
Pair    | 1122       | 1133.8     | 1145.7     |  35.1 | 56.19
Neigh   | 724.88     | 731.87     | 738.86     |  25.8 | 36.27
Comm    | 93.699     | 112.91     | 132.13     | 180.8 |  5.60
Output  | 0.0364     | 0.036425   | 0.036449   |   0.0 |  0.00
Modify  | 31.951     | 32.248     | 32.545     |   5.2 |  1.60
Other   |            | 6.929      |            |       |  0.34

Nlocal:    9826 ave 9827 max 9825 min
Histogram: 1 0 0 0 0 0 0 0 0 1
Nghost:    12035 ave 12055 max 12015 min
Histogram: 1 0 0 0 0 0 0 0 0 1
Neighs:    633563 ave 639832 max 627294 min
Histogram: 1 0 0 0 0 0 0 0 0 1

Total # of neighbors = 1267126
Ave neighs/atom = 64.4782
Neighbor list builds = 19505
Dangerous builds not checked
Setting up Verlet run ...
  Unit style    : metal
  Current step  : 500000
  Time step     : 0.001
Per MPI rank memory allocation (min/avg/max) = 11.35 | 11.35 | 11.35 Mbytes
Step Temp Press TotEng PotEng Enthalpy 
  500000     1296.438   -38.022778   -58291.976   -61585.047   -58301.265 
  500495    1271.5543   -396.86397   -58503.555   -61733.419   -58600.025 
Loop time of 48.7639 on 2 procs for 495 steps with 19652 atoms

Performance: 0.877 ns/day, 27.365 hours/ns, 10.151 timesteps/s
98.9% CPU use with 2 MPI tasks x no OpenMP threads

MPI task timing breakdown:
Section |  min time  |  avg time  |  max time  |%varavg| %total
---------------------------------------------------------------
Pair    | 27.144     | 27.526     | 27.907     |   7.3 | 56.45
Neigh   | 16.354     | 17.345     | 18.337     |  23.8 | 35.57
Comm    | 1.515      | 2.9364     | 4.3578     |  82.9 |  6.02
Output  | 9.7036e-05 | 0.00012946 | 0.00016189 |   0.0 |  0.00
Modify  | 0.75085    | 0.77949    | 0.80812    |   3.2 |  1.60
Other   |            | 0.1768     |            |       |  0.36

Nlocal:    9826 ave 9851 max 9801 min
Histogram: 1 0 0 0 0 0 0 0 0 1
Nghost:    12039.5 ave 12044 max 12035 min
Histogram: 1 0 0 0 0 0 0 0 0 1
Neighs:    636602 ave 645611 max 627592 min
Histogram: 1 0 0 0 0 0 0 0 0 1

Total # of neighbors = 1273203
Ave neighs/atom = 64.7875
Neighbor list builds = 495
Dangerous builds not checked
Setting up Verlet run ...
  Unit style    : metal
  Current step  : 500495
  Time step     : 0.001
Per MPI rank memory allocation (min/avg/max) = 11.35 | 11.35 | 11.35 Mbytes
Step Temp Press TotEng PotEng Enthalpy 
  500495    1271.5543   -396.86397   -58503.555   -61733.419   -58600.025 
  520000    1260.7375    1007.6973   -58562.825   -61765.214   -58318.515 
Loop time of 2090.05 on 2 procs for 19505 steps with 19652 atoms

Performance: 0.806 ns/day, 29.765 hours/ns, 9.332 timesteps/s
99.2% CPU use with 2 MPI tasks x no OpenMP threads

MPI task timing breakdown:
Section |  min time  |  avg time  |  max time  |%varavg| %total
---------------------------------------------------------------
Pair    | 1177.8     | 1180.9     | 1184       |   9.1 | 56.50
Neigh   | 749.01     | 751.62     | 754.23     |   9.5 | 35.96
Comm    | 114.45     | 115.59     | 116.73     |  10.6 |  5.53
Output  | 0.04043    | 0.040452   | 0.040473   |   0.0 |  0.00
Modify  | 34.066     | 34.482     | 34.899     |   7.1 |  1.65
Other   |            | 7.428      |            |       |  0.36

Nlocal:    9826 ave 9859 max 9793 min
Histogram: 1 0 0 0 0 0 0 0 0 1
Nghost:    12124 ave 12135 max 12113 min
Histogram: 1 0 0 0 0 0 0 0 0 1
Neighs:    638197 ave 641046 max 635348 min
Histogram: 1 0 0 0 0 0 0 0 0 1

Total # of neighbors = 1276394
Ave neighs/atom = 64.9498
Neighbor list builds = 19505
Dangerous builds not checked
Setting up Verlet run ...
  Unit style    : metal
  Current step  : 520000
  Time step     : 0.001
Per MPI rank memory allocation (min/avg/max) = 11.35 | 11.35 | 11.35 Mbytes
Step Temp Press TotEng PotEng Enthalpy 
  520000    1260.7375    1007.6973   -58562.825   -61765.214   -58318.515 
  520495    1219.9759     14.00761   -58775.324   -61874.174   -58771.937 
Loop time of 51.5684 on 2 procs for 495 steps with 19652 atoms

Performance: 0.829 ns/day, 28.939 hours/ns, 9.599 timesteps/s
98.6% CPU use with 2 MPI tasks x no OpenMP threads

MPI task timing breakdown:
Section |  min time  |  avg time  |  max time  |%varavg| %total
---------------------------------------------------------------
Pair    | 29.284     | 29.447     | 29.61      |   3.0 | 57.10
Neigh   | 17.949     | 18.343     | 18.736     |   9.2 | 35.57
Comm    | 2.1435     | 2.7036     | 3.2636     |  34.1 |  5.24
Output  | 0.00015616 | 0.00018203 | 0.0002079  |   0.0 |  0.00
Modify  | 0.89012    | 0.89156    | 0.89301    |   0.2 |  1.73
Other   |            | 0.1837     |            |       |  0.36

Nlocal:    9826 ave 9831 max 9821 min
Histogram: 1 0 0 0 0 0 0 0 0 1
Nghost:    12133.5 ave 12139 max 12128 min
Histogram: 1 0 0 0 0 0 0 0 0 1
Neighs:    640411 ave 647191 max 633631 min
Histogram: 1 0 0 0 0 0 0 0 0 1

Total # of neighbors = 1280822
Ave neighs/atom = 65.1751
Neighbor list builds = 495
Dangerous builds not checked
Setting up Verlet run ...
  Unit style    : metal
  Current step  : 520495
  Time step     : 0.001
Per MPI rank memory allocation (min/avg/max) = 11.35 | 11.35 | 11.35 Mbytes
Step Temp Press TotEng PotEng Enthalpy 
  520495    1219.9759     14.00761   -58775.324   -61874.174   -58771.937 
  540000    1194.2987   -415.74804   -58950.957   -61984.585    -59051.16 
Loop time of 2118.09 on 2 procs for 19505 steps with 19652 atoms

Performance: 0.796 ns/day, 30.164 hours/ns, 9.209 timesteps/s
98.8% CPU use with 2 MPI tasks x no OpenMP threads

MPI task timing breakdown:
Section |  min time  |  avg time  |  max time  |%varavg| %total
---------------------------------------------------------------
Pair    | 1194.5     | 1199.2     | 1203.9     |  13.6 | 56.62
Neigh   | 758.39     | 762.46     | 766.52     |  14.7 | 36.00
Comm    | 103.23     | 112.44     | 121.65     |  86.9 |  5.31
Output  | 0.039756   | 0.039814   | 0.039873   |   0.0 |  0.00
Modify  | 35.942     | 36.252     | 36.561     |   5.1 |  1.71
Other   |            | 7.719      |            |       |  0.36

Nlocal:    9826 ave 9841 max 9811 min
Histogram: 1 0 0 0 0 0 0 0 0 1
Nghost:    12120 ave 12168 max 12072 min
Histogram: 1 0 0 0 0 0 0 0 0 1
Neighs:    642228 ave 649186 max 635270 min
Histogram: 1 0 0 0 0 0 0 0 0 1

Total # of neighbors = 1284456
Ave neighs/atom = 65.3601
Neighbor list builds = 19505
Dangerous builds not checked
Setting up Verlet run ...
  Unit style    : metal
  Current step  : 540000
  Time step     : 0.001
Per MPI rank memory allocation (min/avg/max) = 11.35 | 11.35 | 11.35 Mbytes
Step Temp Press TotEng PotEng Enthalpy 
  540000    1194.2987   -415.74804   -58950.957   -61984.585    -59051.16 
  540495    1159.1193    118.15481   -59112.112    -62056.38   -59083.725 
Loop time of 52.6487 on 2 procs for 495 steps with 19652 atoms

Performance: 0.812 ns/day, 29.545 hours/ns, 9.402 timesteps/s
99.2% CPU use with 2 MPI tasks x no OpenMP threads

MPI task timing breakdown:
Section |  min time  |  avg time  |  max time  |%varavg| %total
---------------------------------------------------------------
Pair    | 29.673     | 29.808     | 29.944     |   2.5 | 56.62
Neigh   | 18.506     | 18.776     | 19.047     |   6.2 | 35.66
Comm    | 2.8047     | 2.9424     | 3.0801     |   8.0 |  5.59
Output  | 0.00018811 | 0.00020158 | 0.00021505 |   0.0 |  0.00
Modify  | 0.92366    | 0.92545    | 0.92725    |   0.2 |  1.76
Other   |            | 0.1959     |            |       |  0.37

Nlocal:    9826 ave 9851 max 9801 min
Histogram: 1 0 0 0 0 0 0 0 0 1
Nghost:    12104.5 ave 12109 max 12100 min
Histogram: 1 0 0 0 0 0 0 0 0 1
Neighs:    644308 ave 647963 max 640653 min
Histogram: 1 0 0 0 0 0 0 0 0 1

Total # of neighbors = 1288616
Ave neighs/atom = 65.5717
Neighbor list builds = 495
Dangerous builds not checked
Setting up Verlet run ...
  Unit style    : metal
  Current step  : 540495
  Time step     : 0.001
Per MPI rank memory allocation (min/avg/max) = 11.35 | 11.35 | 11.35 Mbytes
Step Temp Press TotEng PotEng Enthalpy 
  540495    1159.1193    118.15481   -59112.112    -62056.38   -59083.725 
  560000    1139.9855   -49.476444   -59231.975   -62127.642   -59243.837 
Loop time of 2056.04 on 2 procs for 19505 steps with 19652 atoms

Performance: 0.820 ns/day, 29.281 hours/ns, 9.487 timesteps/s
99.1% CPU use with 2 MPI tasks x no OpenMP threads

MPI task timing breakdown:
Section |  min time  |  avg time  |  max time  |%varavg| %total
---------------------------------------------------------------
Pair    | 1151.7     | 1158.4     | 1165.1     |  19.7 | 56.34
Neigh   | 750.62     | 751.78     | 752.94     |   4.2 | 36.56
Comm    | 98.846     | 104.79     | 110.73     |  58.1 |  5.10
Output  | 0.044704   | 0.044708   | 0.044713   |   0.0 |  0.00
Modify  | 33.44      | 33.743     | 34.047     |   5.2 |  1.64
Other   |            | 7.307      |            |       |  0.36

Nlocal:    9826 ave 9828 max 9824 min
Histogram: 1 0 0 0 0 0 0 0 0 1
Nghost:    12147.5 ave 12149 max 12146 min
Histogram: 1 0 0 0 0 0 0 0 0 1
Neighs:    645998 ave 651965 max 640030 min
Histogram: 1 0 0 0 0 0 0 0 0 1

Total # of neighbors = 1291995
Ave neighs/atom = 65.7437
Neighbor list builds = 19505
Dangerous builds not checked
Setting up Verlet run ...
  Unit style    : metal
  Current step  : 560000
  Time step     : 0.001
Per MPI rank memory allocation (min/avg/max) = 11.35 | 11.35 | 11.35 Mbytes
Step Temp Press TotEng PotEng Enthalpy 
[...]
Histogram: 1 0 0 0 0 0 0 0 0 1
Neighs:    719288 ave 719345 max 719232 min
Histogram: 1 0 0 0 0 0 0 0 0 1

Total # of neighbors = 1438577
Ave neighs/atom = 73.2026
Neighbor list builds = 19505
Dangerous builds not checked
Setting up Verlet run ...
  Unit style    : metal
  Current step  : 840000
  Time step     : 0.001
Per MPI rank memory allocation (min/avg/max) = 11.35 | 11.35 | 11.35 Mbytes
Step Temp Press TotEng PotEng Enthalpy 
  840000    449.25302    -819.3033   -64042.851   -65183.995   -64219.929 
  840495     420.8612   -553.33878   -64207.387   -65276.412   -64326.566 
Loop time of 51.0925 on 2 procs for 495 steps with 19652 atoms

Performance: 0.837 ns/day, 28.671 hours/ns, 9.688 timesteps/s
99.4% CPU use with 2 MPI tasks x no OpenMP threads

MPI task timing breakdown:
Section |  min time  |  avg time  |  max time  |%varavg| %total
---------------------------------------------------------------
Pair    | 28.074     | 28.286     | 28.498     |   4.0 | 55.36
Neigh   | 19.178     | 19.638     | 20.097     |  10.4 | 38.44
Comm    | 1.893      | 2.1344     | 2.3758     |  16.5 |  4.18
Output  | 0.00013804 | 0.00016713 | 0.00019622 |   0.0 |  0.00
Modify  | 0.83946    | 0.84632    | 0.85318    |   0.7 |  1.66
Other   |            | 0.188      |            |       |  0.37

Nlocal:    9826 ave 9830 max 9822 min
Histogram: 1 0 0 0 0 0 0 0 0 1
Nghost:    12686.5 ave 12690 max 12683 min
Histogram: 1 0 0 0 0 0 0 0 0 1
Neighs:    721750 ave 722134 max 721366 min
Histogram: 1 0 0 0 0 0 0 0 0 1

Total # of neighbors = 1443500
Ave neighs/atom = 73.4531
Neighbor list builds = 495
Dangerous builds not checked
Setting up Verlet run ...
  Unit style    : metal
  Current step  : 840495
  Time step     : 0.001
Per MPI rank memory allocation (min/avg/max) = 11.35 | 11.35 | 11.35 Mbytes
Step Temp Press TotEng PotEng Enthalpy 
  840495     420.8612   -553.33878   -64207.387   -65276.412   -64326.566 
  860000    401.44007    393.72978   -64388.464   -65408.159   -64304.149 
Loop time of 2069.18 on 2 procs for 19505 steps with 19652 atoms

Performance: 0.814 ns/day, 29.468 hours/ns, 9.426 timesteps/s
99.2% CPU use with 2 MPI tasks x no OpenMP threads

MPI task timing breakdown:
Section |  min time  |  avg time  |  max time  |%varavg| %total
---------------------------------------------------------------
Pair    | 1142.8     | 1150.3     | 1157.8     |  22.0 | 55.59
Neigh   | 765.03     | 766.47     | 767.9      |   5.2 | 37.04
Comm    | 101.94     | 108.28     | 114.63     |  61.0 |  5.23
Output  | 0.037273   | 0.037293   | 0.037313   |   0.0 |  0.00
Modify  | 36.137     | 36.367     | 36.598     |   3.8 |  1.76
Other   |            | 7.72       |            |       |  0.37

Nlocal:    9826 ave 9827 max 9825 min
Histogram: 1 0 0 0 0 0 0 0 0 1
Nghost:    12732.5 ave 12751 max 12714 min
Histogram: 1 0 0 0 0 0 0 0 0 1
Neighs:    725522 ave 725701 max 725343 min
Histogram: 1 0 0 0 0 0 0 0 0 1

Total # of neighbors = 1451044
Ave neighs/atom = 73.837
Neighbor list builds = 19505
Dangerous builds not checked
Setting up Verlet run ...
  Unit style    : metal
  Current step  : 860000
  Time step     : 0.001
Per MPI rank memory allocation (min/avg/max) = 11.35 | 11.35 | 11.35 Mbytes
Step Temp Press TotEng PotEng Enthalpy 
  860000    401.44007    393.72978   -64388.464   -65408.159   -64304.149 
  860495    371.93116    709.64839   -64538.486   -65483.225   -64386.929 
Loop time of 48.5519 on 2 procs for 495 steps with 19652 atoms

Performance: 0.881 ns/day, 27.246 hours/ns, 10.195 timesteps/s
99.1% CPU use with 2 MPI tasks x no OpenMP threads

MPI task timing breakdown:
Section |  min time  |  avg time  |  max time  |%varavg| %total
---------------------------------------------------------------
Pair    | 26.438     | 26.898     | 27.358     |   8.9 | 55.40
Neigh   | 18.537     | 18.9       | 19.262     |   8.3 | 38.93
Comm    | 1.8208     | 1.9189     | 2.017      |   7.1 |  3.95
Output  | 0.00018501 | 0.00021005 | 0.00023508 |   0.0 |  0.00
Modify  | 0.67526    | 0.67617    | 0.67708    |   0.1 |  1.39
Other   |            | 0.1594     |            |       |  0.33

Nlocal:    9826 ave 9828 max 9824 min
Histogram: 1 0 0 0 0 0 0 0 0 1
Nghost:    12744 ave 12746 max 12742 min
Histogram: 1 0 0 0 0 0 0 0 0 1
Neighs:    727305 ave 728023 max 726587 min
Histogram: 1 0 0 0 0 0 0 0 0 1

Total # of neighbors = 1454610
Ave neighs/atom = 74.0184
Neighbor list builds = 495
Dangerous builds not checked
Setting up Verlet run ...
  Unit style    : metal
  Current step  : 860495
  Time step     : 0.001
Per MPI rank memory allocation (min/avg/max) = 11.35 | 11.35 | 11.35 Mbytes
Step Temp Press TotEng PotEng Enthalpy 
  860495    371.93116    709.64839   -64538.486   -65483.225   -64386.929 
  880000    353.18932    243.88477    -64696.98   -65594.113   -64645.054 
Loop time of 2072.33 on 2 procs for 19505 steps with 19652 atoms

Performance: 0.813 ns/day, 29.513 hours/ns, 9.412 timesteps/s
99.2% CPU use with 2 MPI tasks x no OpenMP threads

MPI task timing breakdown:
Section |  min time  |  avg time  |  max time  |%varavg| %total
---------------------------------------------------------------
Pair    | 1145.4     | 1156       | 1166.6     |  31.2 | 55.78
Neigh   | 747.79     | 752.22     | 756.64     |  16.1 | 36.30
Comm    | 104.46     | 119.98     | 135.5      | 141.7 |  5.79
Output  | 0.040118   | 0.040155   | 0.040192   |   0.0 |  0.00
Modify  | 36.024     | 36.394     | 36.764     |   6.1 |  1.76
Other   |            | 7.733      |            |       |  0.37

Nlocal:    9826 ave 9830 max 9822 min
Histogram: 1 0 0 0 0 0 0 0 0 1
Nghost:    12759.5 ave 12764 max 12755 min
Histogram: 1 0 0 0 0 0 0 0 0 1
Neighs:    729473 ave 730330 max 728616 min
Histogram: 1 0 0 0 0 0 0 0 0 1

Total # of neighbors = 1458946
Ave neighs/atom = 74.2391
Neighbor list builds = 19505
Dangerous builds not checked
Setting up Verlet run ...
  Unit style    : metal
  Current step  : 880000
  Time step     : 0.001
Per MPI rank memory allocation (min/avg/max) = 11.35 | 11.35 | 11.35 Mbytes
Step Temp Press TotEng PotEng Enthalpy 
  880000    353.18932    243.88477    -64696.98   -65594.113   -64645.054 
  880495    321.32083    267.97703   -64852.016     -65668.2   -64795.099 
Loop time of 55.6603 on 2 procs for 495 steps with 19652 atoms

Performance: 0.768 ns/day, 31.235 hours/ns, 8.893 timesteps/s
95.2% CPU use with 2 MPI tasks x no OpenMP threads

MPI task timing breakdown:
Section |  min time  |  avg time  |  max time  |%varavg| %total
---------------------------------------------------------------
Pair    | 30.709     | 30.861     | 31.013     |   2.7 | 55.45
Neigh   | 19.835     | 19.944     | 20.053     |   2.4 | 35.83
Comm    | 3.3182     | 3.5912     | 3.8641     |  14.4 |  6.45
Output  | 0.00031805 | 0.00032604 | 0.00033402 |   0.0 |  0.00
Modify  | 1.0426     | 1.0487     | 1.0549     |   0.6 |  1.88
Other   |            | 0.2147     |            |       |  0.39

Nlocal:    9826 ave 9831 max 9821 min
Histogram: 1 0 0 0 0 0 0 0 0 1
Nghost:    12775.5 ave 12782 max 12769 min
Histogram: 1 0 0 0 0 0 0 0 0 1
Neighs:    731200 ave 731873 max 730527 min
Histogram: 1 0 0 0 0 0 0 0 0 1

Total # of neighbors = 1462400
Ave neighs/atom = 74.4148
Neighbor list builds = 495
Dangerous builds not checked
Setting up Verlet run ...
  Unit style    : metal
  Current step  : 880495
  Time step     : 0.001
Per MPI rank memory allocation (min/avg/max) = 11.35 | 11.35 | 11.35 Mbytes
Step Temp Press TotEng PotEng Enthalpy 
  880495    321.32083    267.97703   -64852.016     -65668.2   -64795.099 
  900000     298.3584    660.63392   -65020.236   -65778.094   -64880.473 
Loop time of 2134.46 on 2 procs for 19505 steps with 19652 atoms

Performance: 0.790 ns/day, 30.398 hours/ns, 9.138 timesteps/s
99.1% CPU use with 2 MPI tasks x no OpenMP threads

MPI task timing breakdown:
Section |  min time  |  avg time  |  max time  |%varavg| %total
---------------------------------------------------------------
Pair    | 1185.9     | 1188.7     | 1191.5     |   8.1 | 55.69
Neigh   | 764.17     | 766.04     | 767.91     |   6.8 | 35.89
Comm    | 127.81     | 128.7      | 129.58     |   7.8 |  6.03
Output  | 0.044673   | 0.044681   | 0.044689   |   0.0 |  0.00
Modify  | 42.262     | 42.303     | 42.344     |   0.6 |  1.98
Other   |            | 8.706      |            |       |  0.41

Nlocal:    9826 ave 9837 max 9815 min
Histogram: 1 0 0 0 0 0 0 0 0 1
Nghost:    12777 ave 12807 max 12747 min
Histogram: 1 0 0 0 0 0 0 0 0 1
Neighs:    733638 ave 734487 max 732790 min
Histogram: 1 0 0 0 0 0 0 0 0 1

Total # of neighbors = 1467277
Ave neighs/atom = 74.663
Neighbor list builds = 19505
Dangerous builds not checked
Setting up Verlet run ...
  Unit style    : metal
  Current step  : 900000
  Time step     : 0.001
Per MPI rank memory allocation (min/avg/max) = 11.35 | 11.35 | 11.35 Mbytes
Step Temp Press TotEng PotEng Enthalpy 
  900000     298.3584    660.63392   -65020.236   -65778.094   -64880.473 
  900495    275.08664    148.91553   -65148.757   -65847.503   -65117.303 
Loop time of 54.4377 on 2 procs for 495 steps with 19652 atoms

Performance: 0.786 ns/day, 30.549 hours/ns, 9.093 timesteps/s
97.1% CPU use with 2 MPI tasks x no OpenMP threads

MPI task timing breakdown:
Section |  min time  |  avg time  |  max time  |%varavg| %total
---------------------------------------------------------------
Pair    | 30.074     | 30.265     | 30.456     |   3.5 | 55.60
Neigh   | 19.795     | 19.88      | 19.964     |   1.9 | 36.52
Comm    | 2.684      | 2.9781     | 3.2722     |  17.0 |  5.47
Output  | 9.8944e-05 | 0.00011945 | 0.00013995 |   0.0 |  0.00
Modify  | 1.0801     | 1.0925     | 1.105      |   1.2 |  2.01
Other   |            | 0.2224     |            |       |  0.41

Nlocal:    9826 ave 9827 max 9825 min
Histogram: 1 0 0 0 0 0 0 0 0 1
Nghost:    12810 ave 12832 max 12788 min
Histogram: 1 0 0 0 0 0 0 0 0 1
Neighs:    734926 ave 734959 max 734894 min
Histogram: 1 0 0 0 0 0 0 0 0 1

Total # of neighbors = 1469853
Ave neighs/atom = 74.7941
Neighbor list builds = 495
Dangerous builds not checked
Setting up Verlet run ...
  Unit style    : metal
  Current step  : 900495
  Time step     : 0.001
Per MPI rank memory allocation (min/avg/max) = 11.35 | 11.35 | 11.35 Mbytes
Step Temp Press TotEng PotEng Enthalpy 
  900495    275.08664    148.91553   -65148.757   -65847.503   -65117.303 
  920000    248.85145   -386.61468   -65291.262   -65923.367   -65372.808 
Loop time of 2201.63 on 2 procs for 19505 steps with 19652 atoms

Performance: 0.765 ns/day, 31.354 hours/ns, 8.859 timesteps/s
99.0% CPU use with 2 MPI tasks x no OpenMP threads

MPI task timing breakdown:
Section |  min time  |  avg time  |  max time  |%varavg| %total
---------------------------------------------------------------
Pair    | 1212.6     | 1227.8     | 1243.1     |  43.6 | 55.77
Neigh   | 749.77     | 752.35     | 754.92     |   9.4 | 34.17
Comm    | 148.31     | 167.2      | 186.1      | 146.1 |  7.59
Output  | 0.044215   | 0.044224   | 0.044233   |   0.0 |  0.00
Modify  | 44.42      | 45.284     | 46.148     |  12.8 |  2.06
Other   |            | 8.911      |            |       |  0.40

Nlocal:    9826 ave 9836 max 9816 min
Histogram: 1 0 0 0 0 0 0 0 0 1
Nghost:    12804 ave 12806 max 12802 min
Histogram: 1 0 0 0 0 0 0 0 0 1
Neighs:    735734 ave 736245 max 735224 min
Histogram: 1 0 0 0 0 0 0 0 0 1

Total # of neighbors = 1471469
Ave neighs/atom = 74.8763
Neighbor list builds = 19505
Dangerous builds not checked
Setting up Verlet run ...
  Unit style    : metal
  Current step  : 920000
  Time step     : 0.001
Per MPI rank memory allocation (min/avg/max) = 11.35 | 11.35 | 11.35 Mbytes
Step Temp Press TotEng PotEng Enthalpy 
  920000    248.85145   -386.61468   -65291.262   -65923.367   -65372.808 
  920495    225.88409    484.05052   -65425.758   -65999.524    -65324.02 
Loop time of 51.8659 on 2 procs for 495 steps with 19652 atoms

Performance: 0.825 ns/day, 29.105 hours/ns, 9.544 timesteps/s
99.6% CPU use with 2 MPI tasks x no OpenMP threads

MPI task timing breakdown:
Section |  min time  |  avg time  |  max time  |%varavg| %total
---------------------------------------------------------------
Pair    | 28.08      | 28.848     | 29.617     |  14.3 | 55.62
Neigh   | 17.426     | 18.154     | 18.882     |  17.1 | 35.00
Comm    | 2.0276     | 3.6319     | 5.2361     |  84.2 |  7.00
Output  | 0.00024509 | 0.00032759 | 0.00041008 |   0.0 |  0.00
Modify  | 0.94477    | 1.0248     | 1.1048     |   7.9 |  1.98
Other   |            | 0.2065     |            |       |  0.40

Nlocal:    9826 ave 9831 max 9821 min
Histogram: 1 0 0 0 0 0 0 0 0 1
Nghost:    12824.5 ave 12837 max 12812 min
Histogram: 1 0 0 0 0 0 0 0 0 1
Neighs:    738130 ave 738725 max 737534 min
Histogram: 1 0 0 0 0 0 0 0 0 1

Total # of neighbors = 1476259
Ave neighs/atom = 75.12
Neighbor list builds = 495
Dangerous builds not checked
Setting up Verlet run ...
  Unit style    : metal
  Current step  : 920495
  Time step     : 0.001
Per MPI rank memory allocation (min/avg/max) = 11.35 | 11.35 | 11.35 Mbytes
Step Temp Press TotEng PotEng Enthalpy 
  920495    225.88409    484.05052   -65425.758   -65999.524    -65324.02 
  940000    200.13743    847.20951   -65561.586   -66069.954   -65383.975 
Loop time of 2280.62 on 2 procs for 19505 steps with 19652 atoms

Performance: 0.739 ns/day, 32.479 hours/ns, 8.553 timesteps/s
97.8% CPU use with 2 MPI tasks x no OpenMP threads

MPI task timing breakdown:
Section |  min time  |  avg time  |  max time  |%varavg| %total
---------------------------------------------------------------
Pair    | 1260.6     | 1268.1     | 1275.5     |  20.9 | 55.60
Neigh   | 779.33     | 786.43     | 793.53     |  25.3 | 34.48
Comm    | 149.65     | 164.73     | 179.81     | 117.5 |  7.22
Output  | 0.19263    | 0.19268    | 0.19273    |   0.0 |  0.01
Modify  | 50.642     | 51.1       | 51.558     |   6.4 |  2.24
Other   |            | 10.11      |            |       |  0.44

Nlocal:    9826 ave 9831 max 9821 min
Histogram: 1 0 0 0 0 0 0 0 0 1
Nghost:    12842.5 ave 12843 max 12842 min
Histogram: 1 0 0 0 0 0 0 0 0 1
Neighs:    739400 ave 739880 max 738919 min
Histogram: 1 0 0 0 0 0 0 0 0 1

Total # of neighbors = 1478799
Ave neighs/atom = 75.2493
Neighbor list builds = 19505
Dangerous builds not checked
Setting up Verlet run ...
  Unit style    : metal
  Current step  : 940000
  Time step     : 0.001
Per MPI rank memory allocation (min/avg/max) = 11.35 | 11.35 | 11.35 Mbytes
Step Temp Press TotEng PotEng Enthalpy 
  940000    200.13743    847.20951   -65561.586   -66069.954   -65383.975 
  940495    176.33841    542.51358   -65692.771   -66140.686   -65579.234 
Loop time of 57.7061 on 2 procs for 495 steps with 19652 atoms

Performance: 0.741 ns/day, 32.383 hours/ns, 8.578 timesteps/s
97.6% CPU use with 2 MPI tasks x no OpenMP threads

MPI task timing breakdown:
Section |  min time  |  avg time  |  max time  |%varavg| %total
---------------------------------------------------------------
Pair    | 31.162     | 31.84      | 32.518     |  12.0 | 55.18
Neigh   | 20.031     | 20.153     | 20.275     |   2.7 | 34.92
Comm    | 3.521      | 4.1382     | 4.7553     |  30.3 |  7.17
Output  | 9.799e-05  | 0.00012648 | 0.00015497 |   0.0 |  0.00
Modify  | 1.2654     | 1.313      | 1.3607     |   4.2 |  2.28
Other   |            | 0.2616     |            |       |  0.45

Nlocal:    9826 ave 9828 max 9824 min
Histogram: 1 0 0 0 0 0 0 0 0 1
Nghost:    12851 ave 12867 max 12835 min
Histogram: 1 0 0 0 0 0 0 0 0 1
Neighs:    740782 ave 740924 max 740641 min
Histogram: 1 0 0 0 0 0 0 0 0 1

Total # of neighbors = 1481565
Ave neighs/atom = 75.39
Neighbor list builds = 495
Dangerous builds not checked
Setting up Verlet run ...
  Unit style    : metal
  Current step  : 940495
  Time step     : 0.001
Per MPI rank memory allocation (min/avg/max) = 11.35 | 11.35 | 11.35 Mbytes
Step Temp Press TotEng PotEng Enthalpy 
  940495    176.33841    542.51358   -65692.771   -66140.686   -65579.234 
  960000    149.72783   -217.69471   -65833.973   -66214.295    -65879.47 
Loop time of 2271.73 on 2 procs for 19505 steps with 19652 atoms

Performance: 0.742 ns/day, 32.352 hours/ns, 8.586 timesteps/s
98.6% CPU use with 2 MPI tasks x no OpenMP threads

MPI task timing breakdown:
Section |  min time  |  avg time  |  max time  |%varavg| %total
---------------------------------------------------------------
Pair    | 1268.1     | 1274.8     | 1281.5     |  18.8 | 56.12
Neigh   | 773.68     | 774.65     | 775.62     |   3.5 | 34.10
Comm    | 157.71     | 162.94     | 168.17     |  41.0 |  7.17
Output  | 0.043187   | 0.043237   | 0.043287   |   0.0 |  0.00
Modify  | 49.049     | 49.433     | 49.818     |   5.5 |  2.18
Other   |            | 9.872      |            |       |  0.43

Nlocal:    9826 ave 9830 max 9822 min
Histogram: 1 0 0 0 0 0 0 0 0 1
Nghost:    12868 ave 12882 max 12854 min
Histogram: 1 0 0 0 0 0 0 0 0 1
Neighs:    741696 ave 742063 max 741330 min
Histogram: 1 0 0 0 0 0 0 0 0 1

Total # of neighbors = 1483393
Ave neighs/atom = 75.4831
Neighbor list builds = 19505
Dangerous builds not checked
Setting up Verlet run ...
  Unit style    : metal
  Current step  : 960000
  Time step     : 0.001
Per MPI rank memory allocation (min/avg/max) = 11.35 | 11.35 | 11.35 Mbytes
Step Temp Press TotEng PotEng Enthalpy 
  960000    149.72783   -217.69471   -65833.973   -66214.295    -65879.47 
  960495    127.11251    428.94193   -65952.729   -66275.607   -65863.314 
Loop time of 53.0862 on 2 procs for 495 steps with 19652 atoms

Performance: 0.806 ns/day, 29.790 hours/ns, 9.324 timesteps/s
99.7% CPU use with 2 MPI tasks x no OpenMP threads

MPI task timing breakdown:
Section |  min time  |  avg time  |  max time  |%varavg| %total
---------------------------------------------------------------
Pair    | 29.08      | 29.42      | 29.76      |   6.3 | 55.42
Neigh   | 18.806     | 18.811     | 18.816     |   0.1 | 35.43
Comm    | 3.1382     | 3.5419     | 3.9456     |  21.5 |  6.67
Output  | 0.00014997 | 0.00019097 | 0.00023198 |   0.0 |  0.00
Modify  | 1.0463     | 1.0883     | 1.1302     |   4.0 |  2.05
Other   |            | 0.2246     |            |       |  0.42

Nlocal:    9826 ave 9833 max 9819 min
Histogram: 1 0 0 0 0 0 0 0 0 1
Nghost:    12881 ave 12888 max 12874 min
Histogram: 1 0 0 0 0 0 0 0 0 1
Neighs:    743210 ave 743607 max 742814 min
Histogram: 1 0 0 0 0 0 0 0 0 1

Total # of neighbors = 1486421
Ave neighs/atom = 75.6371
Neighbor list builds = 495
Dangerous builds not checked
Setting up Verlet run ...
  Unit style    : metal
  Current step  : 960495
  Time step     : 0.001
Per MPI rank memory allocation (min/avg/max) = 11.35 | 11.35 | 11.35 Mbytes
Step Temp Press TotEng PotEng Enthalpy 
  960495    127.11251    428.94193   -65952.729   -66275.607   -65863.314 
  980000    98.983519    212.70479   -66098.686   -66350.113   -66054.432 
Loop time of 2250.44 on 2 procs for 19505 steps with 19652 atoms

Performance: 0.749 ns/day, 32.049 hours/ns, 8.667 timesteps/s
98.7% CPU use with 2 MPI tasks x no OpenMP threads

MPI task timing breakdown:
Section |  min time  |  avg time  |  max time  |%varavg| %total
---------------------------------------------------------------
Pair    | 1256.4     | 1260.9     | 1265.5     |  12.8 | 56.03
Neigh   | 762.01     | 770.28     | 778.55     |  29.8 | 34.23
Comm    | 153.73     | 157.6      | 161.48     |  30.9 |  7.00
Output  | 0.041093   | 0.041115   | 0.041137   |   0.0 |  0.00
Modify  | 51.412     | 51.531     | 51.649     |   1.7 |  2.29
Other   |            | 10.04      |            |       |  0.45

Nlocal:    9826 ave 9835 max 9817 min
Histogram: 1 0 0 0 0 0 0 0 0 1
Nghost:    12858.5 ave 12873 max 12844 min
Histogram: 1 0 0 0 0 0 0 0 0 1
Neighs:    744684 ave 745446 max 743923 min
Histogram: 1 0 0 0 0 0 0 0 0 1

Total # of neighbors = 1489369
Ave neighs/atom = 75.7871
Neighbor list builds = 19505
Dangerous builds not checked
Total wall time: 28:56:03
