LAMMPS (12 Dec 2018)
Lattice spacing in x,y,z = 4 4 4
Created orthogonal box = (0 0 0) to (68 68 68)
  1 by 2 by 3 MPI processor grid
Created 19652 atoms
  Time spent = 0.000905991 secs
Setting atom values ...
  19652 settings made for type/fraction
Neighbor list info ...
  update every 1 steps, delay 0 steps, check no
  max neighbors/atom: 2000, page size: 100000
  master list distance cutoff = 8.5
  ghost atom cutoff = 8.5
  binsize = 4.25, bins = 16 16 16
  1 neighbor lists, perpetual/occasional/extra = 1 0 0
  (1) pair eam/alloy, perpetual
      attributes: half, newton on
      pair build: half/bin/atomonly/newton
      stencil: half/bin/3d/newton
      bin: standard
Setting up Verlet run ...
  Unit style    : metal
  Current step  : 0
  Time step     : 0.001
Per MPI rank memory allocation (min/avg/max) = 5.546 | 5.705 | 5.983 Mbytes
Step Temp Press TotEng PotEng Enthalpy 
       0          300   -61779.302   -76290.537   -77052.565   -88414.913 
    1000    2083.1822    118329.63   -76291.694   -81583.167   -53069.145 
Loop time of 40.9627 on 6 procs for 1000 steps with 19652 atoms

Performance: 2.109 ns/day, 11.379 hours/ns, 24.412 timesteps/s
97.4% CPU use with 6 MPI tasks x no OpenMP threads

MPI task timing breakdown:
Section |  min time  |  avg time  |  max time  |%varavg| %total
---------------------------------------------------------------
Pair    | 22.561     | 22.855     | 23.384     |   5.5 | 55.79
Neigh   | 12.572     | 13.508     | 14.34      |  18.0 | 32.98
Comm    | 3.6979     | 4.4456     | 5.4486     |  27.6 | 10.85
Output  | 6.9141e-05 | 9.1553e-05 | 0.00012517 |   0.0 |  0.00
Modify  | 0.07111    | 0.075521   | 0.079794   |   1.1 |  0.18
Other   |            | 0.07825    |            |       |  0.19

Nlocal:    3275.33 ave 3297 max 3266 min
Histogram: 2 1 1 1 0 0 0 0 0 1
Nghost:    7493.17 ave 7509 max 7476 min
Histogram: 1 0 1 0 0 1 2 0 0 1
Neighs:    261575 ave 267292 max 257696 min
Histogram: 2 0 0 2 0 0 1 0 0 1

Total # of neighbors = 1569448
Ave neighs/atom = 79.862
Neighbor list builds = 1000
Dangerous builds not checked
Setting up Verlet run ...
  Unit style    : metal
  Current step  : 1000
  Time step     : 0.001
Per MPI rank memory allocation (min/avg/max) = 5.559 | 5.842 | 5.987 Mbytes
Step Temp Press TotEng PotEng Enthalpy 
    1000    2083.1822    118329.63   -76291.694   -81583.167   -53069.145 
    2000    340.92547   -269.47458   -86578.957   -87444.939   -86640.432 
Loop time of 36.4036 on 6 procs for 1000 steps with 19652 atoms

Performance: 2.373 ns/day, 10.112 hours/ns, 27.470 timesteps/s
97.5% CPU use with 6 MPI tasks x no OpenMP threads

MPI task timing breakdown:
Section |  min time  |  avg time  |  max time  |%varavg| %total
---------------------------------------------------------------
Pair    | 18.353     | 18.606     | 19.195     |   6.6 | 51.11
Neigh   | 10.751     | 11.342     | 11.614     |   8.5 | 31.16
Comm    | 5.7253     | 6.0741     | 6.2571     |   6.9 | 16.69
Output  | 4.6968e-05 | 5.6624e-05 | 8.5115e-05 |   0.0 |  0.00
Modify  | 0.29819    | 0.30803    | 0.31599    |   1.1 |  0.85
Other   |            | 0.07383    |            |       |  0.20

Nlocal:    3275.33 ave 3290 max 3258 min
Histogram: 1 0 0 1 1 1 0 0 0 2
Nghost:    6961.17 ave 6985 max 6916 min
Histogram: 1 0 0 1 0 0 0 0 3 1
Neighs:    225229 ave 229417 max 220672 min
Histogram: 1 1 0 0 0 1 1 1 0 1

Total # of neighbors = 1351374
Ave neighs/atom = 68.7652
Neighbor list builds = 1000
Dangerous builds not checked
Setting up Verlet run ...
  Unit style    : metal
  Current step  : 2000
  Time step     : 0.001
Per MPI rank memory allocation (min/avg/max) = 5.559 | 5.842 | 5.987 Mbytes
Step Temp Press TotEng PotEng Enthalpy 
    2000    340.92547   -269.47458   -86578.957   -87444.939   -86640.432 
   10000    2456.0018   -1030.4368   -75240.185   -81478.653   -75493.295 
Loop time of 255.379 on 6 procs for 8000 steps with 19652 atoms

Performance: 2.707 ns/day, 8.867 hours/ns, 31.326 timesteps/s
99.5% CPU use with 6 MPI tasks x no OpenMP threads

MPI task timing breakdown:
Section |  min time  |  avg time  |  max time  |%varavg| %total
---------------------------------------------------------------
Pair    | 136.95     | 138.22     | 138.9      |   5.9 | 54.12
Neigh   | 85.368     | 87.472     | 94.029     |  33.0 | 34.25
Comm    | 19.141     | 26.514     | 29.032     |  65.3 | 10.38
Output  | 5.4121e-05 | 6.3181e-05 | 9.2983e-05 |   0.0 |  0.00
Modify  | 2.5199     | 2.5625     | 2.654      |   2.9 |  1.00
Other   |            | 0.6124     |            |       |  0.24

Nlocal:    3275.33 ave 3287 max 3259 min
Histogram: 1 0 0 0 0 2 0 2 0 1
Nghost:    6743.17 ave 6787 max 6705 min
Histogram: 1 1 0 0 1 1 1 0 0 1
Neighs:    209015 ave 213292 max 205095 min
Histogram: 1 0 1 0 1 1 0 1 0 1

Total # of neighbors = 1254092
Ave neighs/atom = 63.815
Neighbor list builds = 8000
Dangerous builds not checked
Setting up Verlet run ...
  Unit style    : metal
  Current step  : 10000
  Time step     : 0.001
Per MPI rank memory allocation (min/avg/max) = 5.561 | 5.843 | 5.988 Mbytes
Step Temp Press TotEng PotEng Enthalpy 
   10000    2456.0018   -1030.4368   -75240.185   -81478.653   -75493.295 
   40000    2440.4433   -352.71563   -75294.916   -81493.865   -75381.533 
Loop time of 955.681 on 6 procs for 30000 steps with 19652 atoms

Performance: 2.712 ns/day, 8.849 hours/ns, 31.391 timesteps/s
99.6% CPU use with 6 MPI tasks x no OpenMP threads

MPI task timing breakdown:
Section |  min time  |  avg time  |  max time  |%varavg| %total
---------------------------------------------------------------
Pair    | 513.69     | 519.01     | 528.32     |  20.9 | 54.31
Neigh   | 295.71     | 319.53     | 343.87     | 126.8 | 33.43
Comm    | 71.39      | 105.27     | 134.91     | 262.1 | 11.02
Output  | 5.3883e-05 | 6.2585e-05 | 0.00010204 |   0.0 |  0.00
Modify  | 9.4005     | 9.5976     | 9.9387     |   6.3 |  1.00
Other   |            | 2.267      |            |       |  0.24

Nlocal:    3275.33 ave 3290 max 3256 min
Histogram: 1 0 0 0 1 1 1 1 0 1
Nghost:    6761.5 ave 6786 max 6724 min
Histogram: 1 0 0 0 2 0 0 0 2 1
Neighs:    209192 ave 211956 max 206772 min
Histogram: 1 1 0 1 0 1 0 1 0 1

Total # of neighbors = 1255154
Ave neighs/atom = 63.869
Neighbor list builds = 30000
Dangerous builds not checked
Setting up Verlet run ...
  Unit style    : metal
  Current step  : 40000
  Time step     : 0.001
Per MPI rank memory allocation (min/avg/max) = 5.561 | 5.843 | 5.988 Mbytes
Step Temp Press TotEng PotEng Enthalpy 
   40000    2440.4433   -352.71563   -75294.916   -81493.865   -75381.533 
   40495    2408.2348   -376.93841   -75397.258   -81514.393   -75489.488 
Loop time of 14.4736 on 6 procs for 495 steps with 19652 atoms

Performance: 2.955 ns/day, 8.122 hours/ns, 34.200 timesteps/s
99.8% CPU use with 6 MPI tasks x no OpenMP threads

MPI task timing breakdown:
Section |  min time  |  avg time  |  max time  |%varavg| %total
---------------------------------------------------------------
Pair    | 7.8021     | 7.9456     | 8.2044     |   5.3 | 54.90
Neigh   | 4.395      | 5.1487     | 5.5932     |  20.1 | 35.57
Comm    | 0.85238    | 1.1888     | 1.7043     |  29.2 |  8.21
Output  | 5.8174e-05 | 6.9737e-05 | 0.000108   |   0.0 |  0.00
Modify  | 0.13247    | 0.15193    | 0.1662     |   2.7 |  1.05
Other   |            | 0.03854    |            |       |  0.27

Nlocal:    3275.33 ave 3298 max 3246 min
Histogram: 1 0 0 1 1 0 1 0 1 1
Nghost:    6747 ave 6760 max 6737 min
Histogram: 1 0 0 3 0 1 0 0 0 1
Neighs:    209855 ave 215413 max 206025 min
Histogram: 1 1 1 0 1 1 0 0 0 1

Total # of neighbors = 1259132
Ave neighs/atom = 64.0714
Neighbor list builds = 495
Dangerous builds not checked
Setting up Verlet run ...
  Unit style    : metal
  Current step  : 40495
  Time step     : 0.001
Per MPI rank memory allocation (min/avg/max) = 5.561 | 5.843 | 5.988 Mbytes
Step Temp Press TotEng PotEng Enthalpy 
   40495    2408.2348   -376.93841   -75397.258   -81514.393   -75489.488 
   66667    2426.9009   -257.76094   -75413.351   -81577.901   -75476.484 
  106667    2397.8554   -1450.6049    -75458.42   -81549.192    -75814.74 
Loop time of 1969.84 on 6 procs for 66172 steps with 19652 atoms

Performance: 2.902 ns/day, 8.269 hours/ns, 33.593 timesteps/s
99.8% CPU use with 6 MPI tasks x no OpenMP threads

MPI task timing breakdown:
Section |  min time  |  avg time  |  max time  |%varavg| %total
---------------------------------------------------------------
Pair    | 1062.4     | 1073.8     | 1082.6     |  23.2 | 54.51
Neigh   | 677.34     | 693.43     | 708.47     |  44.3 | 35.20
Comm    | 162.61     | 177.5      | 185.95     |  56.6 |  9.01
Output  | 0.02625    | 0.026269   | 0.026329   |   0.0 |  0.00
Modify  | 19.241     | 19.895     | 20.26      |   9.9 |  1.01
Other   |            | 5.155      |            |       |  0.26

Nlocal:    3275.33 ave 3304 max 3248 min
Histogram: 1 0 0 2 1 0 0 1 0 1
Nghost:    6737.17 ave 6751 max 6710 min
Histogram: 1 0 0 0 1 0 0 1 1 2
Neighs:    209166 ave 210890 max 205349 min
Histogram: 1 0 0 0 0 1 0 1 0 3

Total # of neighbors = 1254996
Ave neighs/atom = 63.861
Neighbor list builds = 66172
Dangerous builds not checked
Setting up Verlet run ...
  Unit style    : metal
  Current step  : 106667
  Time step     : 0.001
Per MPI rank memory allocation (min/avg/max) = 5.58 | 5.862 | 6.003 Mbytes
Step Temp Press TotEng PotEng Enthalpy 
  106667    2397.8554   -1450.6049    -75458.42   -81549.192    -75814.74 
  107162    2368.5258   -490.43541   -75688.008   -81704.279   -75807.677 
Loop time of 12.1496 on 6 procs for 495 steps with 19652 atoms

Performance: 3.520 ns/day, 6.818 hours/ns, 40.742 timesteps/s
100.0% CPU use with 6 MPI tasks x no OpenMP threads

MPI task timing breakdown:
Section |  min time  |  avg time  |  max time  |%varavg| %total
---------------------------------------------------------------
Pair    | 6.4722     | 6.5861     | 6.774      |   4.2 | 54.21
Neigh   | 3.9292     | 4.4121     | 4.7457     |  14.4 | 36.32
Comm    | 0.75822    | 0.9883     | 1.2919     |  20.5 |  8.13
Output  | 5.0068e-05 | 6.0121e-05 | 0.00010085 |   0.0 |  0.00
Modify  | 0.12201    | 0.12807    | 0.13634    |   1.6 |  1.05
Other   |            | 0.03493    |            |       |  0.29

Nlocal:    3275.33 ave 3299 max 3264 min
Histogram: 3 1 0 0 0 0 0 1 0 1
Nghost:    6738 ave 6768 max 6703 min
Histogram: 1 0 0 1 0 1 2 0 0 1
Neighs:    210514 ave 216261 max 205479 min
Histogram: 1 0 1 1 1 0 0 1 0 1

Total # of neighbors = 1263084
Ave neighs/atom = 64.2725
Neighbor list builds = 495
Dangerous builds not checked
Setting up Verlet run ...
  Unit style    : metal
  Current step  : 107162
  Time step     : 0.001
Per MPI rank memory allocation (min/avg/max) = 5.58 | 5.862 | 6.003 Mbytes
Step Temp Press TotEng PotEng Enthalpy 
  107162    2368.5258   -490.43541   -75688.008   -81704.279   -75807.677 
  133334    2357.9114    557.08701   -75693.607   -81682.916   -75558.037 
  173334    2326.5024    -2346.787    -75673.58   -81583.108   -76249.246 
Loop time of 1844.94 on 6 procs for 66172 steps with 19652 atoms

Performance: 3.099 ns/day, 7.745 hours/ns, 35.867 timesteps/s
99.8% CPU use with 6 MPI tasks x no OpenMP threads

MPI task timing breakdown:
Section |  min time  |  avg time  |  max time  |%varavg| %total
---------------------------------------------------------------
Pair    | 1001.2     | 1006.4     | 1015.8     |  16.7 | 54.55
Neigh   | 640.52     | 653.53     | 666.98     |  31.5 | 35.42
Comm    | 148.34     | 161.23     | 178.3      |  77.7 |  8.74
Output  | 0.028976   | 0.028996   | 0.029061   |   0.0 |  0.00
Modify  | 18.614     | 18.913     | 19.169     |   4.9 |  1.03
Other   |            | 4.83       |            |       |  0.26

Nlocal:    3275.33 ave 3297 max 3256 min
Histogram: 1 1 0 1 0 1 0 1 0 1
Nghost:    6726.5 ave 6776 max 6679 min
Histogram: 1 0 0 0 3 1 0 0 0 1
Neighs:    209406 ave 212721 max 205339 min
Histogram: 1 0 1 1 0 0 0 1 0 2

Total # of neighbors = 1256434
Ave neighs/atom = 63.9342
Neighbor list builds = 66172
Dangerous builds not checked
Setting up Verlet run ...
  Unit style    : metal
  Current step  : 173334
  Time step     : 0.001
Per MPI rank memory allocation (min/avg/max) = 5.58 | 5.862 | 6.003 Mbytes
Step Temp Press TotEng PotEng Enthalpy 
  173334    2326.5024    -2346.787    -75673.58   -81583.108   -76249.246 
  173829    2306.4726    197.41579   -75891.115   -81749.766   -75843.083 
Loop time of 9.77613 on 6 procs for 495 steps with 19652 atoms

Performance: 4.375 ns/day, 5.486 hours/ns, 50.634 timesteps/s
100.0% CPU use with 6 MPI tasks x no OpenMP threads

MPI task timing breakdown:
Section |  min time  |  avg time  |  max time  |%varavg| %total
---------------------------------------------------------------
Pair    | 5.0401     | 5.0617     | 5.0957     |   1.0 | 51.78
Neigh   | 3.928      | 4.0155     | 4.1801     |   4.7 | 41.07
Comm    | 0.35935    | 0.56526    | 0.67391    |  16.1 |  5.78
Output  | 4.8876e-05 | 5.7975e-05 | 9.3937e-05 |   0.0 |  0.00
Modify  | 0.10027    | 0.10253    | 0.10573    |   0.6 |  1.05
Other   |            | 0.03116    |            |       |  0.32

Nlocal:    3275.33 ave 3291 max 3261 min
Histogram: 1 0 1 0 1 1 0 1 0 1
Nghost:    6777 ave 6829 max 6752 min
Histogram: 1 1 3 0 0 0 0 0 0 1
Neighs:    211003 ave 214360 max 207749 min
Histogram: 2 0 0 0 1 1 0 0 0 2

Total # of neighbors = 1266020
Ave neighs/atom = 64.4219
Neighbor list builds = 495
Dangerous builds not checked
Setting up Verlet run ...
  Unit style    : metal
  Current step  : 173829
  Time step     : 0.001
Per MPI rank memory allocation (min/avg/max) = 5.58 | 5.862 | 6.003 Mbytes
Step Temp Press TotEng PotEng Enthalpy 
  173829    2306.4726    197.41579   -75891.115   -81749.766   -75843.083 
  200001    2305.4784     413.6522   -75925.194   -81781.319   -75824.556 
  240001    2296.6265   -1160.7212   -75855.275   -81688.915   -76139.065 
Loop time of 1886 on 6 procs for 66172 steps with 19652 atoms

Performance: 3.031 ns/day, 7.917 hours/ns, 35.086 timesteps/s
99.9% CPU use with 6 MPI tasks x no OpenMP threads

MPI task timing breakdown:
Section |  min time  |  avg time  |  max time  |%varavg| %total
---------------------------------------------------------------
Pair    | 1027.6     | 1030.5     | 1033.9     |   7.5 | 54.64
Neigh   | 649.18     | 667.64     | 686.75     |  48.5 | 35.40
Comm    | 142.34     | 164.63     | 186.17     | 110.8 |  8.73
Output  | 0.041118   | 0.041131   | 0.041179   |   0.0 |  0.00
Modify  | 17.963     | 18.333     | 18.647     |   5.7 |  0.97
Other   |            | 4.812      |            |       |  0.26

Nlocal:    3275.33 ave 3293 max 3245 min
Histogram: 1 0 0 0 0 0 2 2 0 1
Nghost:    6762.33 ave 6792 max 6742 min
Histogram: 2 0 1 1 0 0 0 1 0 1
Neighs:    210115 ave 213518 max 205553 min
Histogram: 1 1 0 0 1 0 0 0 1 2

Total # of neighbors = 1260688
Ave neighs/atom = 64.1506
Neighbor list builds = 66172
Dangerous builds not checked
Setting up Verlet run ...
  Unit style    : metal
  Current step  : 240001
  Time step     : 0.001
Per MPI rank memory allocation (min/avg/max) = 5.58 | 5.862 | 6.003 Mbytes
Step Temp Press TotEng PotEng Enthalpy 
  240001    2296.6265   -1160.7212   -75855.275   -81688.915   -76139.065 
  240496    2249.9539    477.74984   -76114.149   -81829.237    -75998.12 
Loop time of 10.9687 on 6 procs for 495 steps with 19652 atoms

Performance: 3.899 ns/day, 6.155 hours/ns, 45.129 timesteps/s
100.0% CPU use with 6 MPI tasks x no OpenMP threads

MPI task timing breakdown:
Section |  min time  |  avg time  |  max time  |%varavg| %total
---------------------------------------------------------------
Pair    | 5.6983     | 5.9261     | 6.0137     |   4.5 | 54.03
Neigh   | 3.9366     | 4.0976     | 4.4686     |  10.3 | 37.36
Comm    | 0.63183    | 0.80391    | 0.9277     |  13.3 |  7.33
Output  | 4.9829e-05 | 5.8015e-05 | 8.6069e-05 |   0.0 |  0.00
Modify  | 0.10536    | 0.11035    | 0.11542    |   1.1 |  1.01
Other   |            | 0.03064    |            |       |  0.28

Nlocal:    3275.33 ave 3289 max 3256 min
Histogram: 1 0 0 0 0 1 2 1 0 1
Nghost:    6785.33 ave 6798 max 6761 min
Histogram: 1 0 0 0 1 0 1 0 0 3
Neighs:    211469 ave 215382 max 206002 min
Histogram: 1 0 0 1 0 0 1 2 0 1

Total # of neighbors = 1268816
Ave neighs/atom = 64.5642
Neighbor list builds = 495
Dangerous builds not checked
Setting up Verlet run ...
  Unit style    : metal
  Current step  : 240496
  Time step     : 0.001
Per MPI rank memory allocation (min/avg/max) = 5.58 | 5.862 | 6.003 Mbytes
Step Temp Press TotEng PotEng Enthalpy 
  240496    2249.9539    477.74984   -76114.149   -81829.237    -75998.12 
  266668    2268.8024   -686.83723   -76075.254   -81838.219   -76242.726 
  306668    2248.7417    844.33478   -76142.254   -81854.262   -75937.552 
Loop time of 1759.93 on 6 procs for 66172 steps with 19652 atoms

Performance: 3.249 ns/day, 7.388 hours/ns, 37.599 timesteps/s
99.9% CPU use with 6 MPI tasks x no OpenMP threads

MPI task timing breakdown:
Section |  min time  |  avg time  |  max time  |%varavg| %total
---------------------------------------------------------------
Pair    | 945.92     | 962.34     | 976.23     |  37.3 | 54.68
Neigh   | 613.45     | 630.44     | 651.36     |  55.1 | 35.82
Comm    | 132.33     | 145.18     | 158.71     |  75.2 |  8.25
Output  | 0.038398   | 0.03842    | 0.03848    |   0.0 |  0.00
Modify  | 17.05      | 17.418     | 17.75      |   6.0 |  0.99
Other   |            | 4.514      |            |       |  0.26

Nlocal:    3275.33 ave 3305 max 3246 min
Histogram: 1 0 0 1 1 1 1 0 0 1
Nghost:    6798.67 ave 6822 max 6771 min
Histogram: 1 0 1 0 1 0 1 0 0 2
Neighs:    211870 ave 216004 max 206298 min
Histogram: 1 0 0 1 1 0 0 0 2 1

Total # of neighbors = 1271219
Ave neighs/atom = 64.6865
Neighbor list builds = 66172
Dangerous builds not checked
Setting up Verlet run ...
  Unit style    : metal
  Current step  : 306668
  Time step     : 0.001
Per MPI rank memory allocation (min/avg/max) = 5.58 | 5.862 | 6.003 Mbytes
Step Temp Press TotEng PotEng Enthalpy 
  306668    2248.7417    844.33478   -76142.254   -81854.262   -75937.552 
  307163     2225.901    79.062184   -76264.982   -81918.974   -76245.802 
Loop time of 12.2445 on 6 procs for 495 steps with 19652 atoms

Performance: 3.493 ns/day, 6.871 hours/ns, 40.426 timesteps/s
100.0% CPU use with 6 MPI tasks x no OpenMP threads

MPI task timing breakdown:
Section |  min time  |  avg time  |  max time  |%varavg| %total
---------------------------------------------------------------
Pair    | 6.5734     | 6.7538     | 6.8859     |   4.9 | 55.16
Neigh   | 3.9251     | 4.2959     | 4.6973     |  12.7 | 35.08
Comm    | 0.81013    | 1.0386     | 1.2846     |  17.3 |  8.48
Output  | 4.7922e-05 | 5.9406e-05 | 9.3937e-05 |   0.0 |  0.00
Modify  | 0.11556    | 0.12374    | 0.13099    |   1.4 |  1.01
Other   |            | 0.03232    |            |       |  0.26

Nlocal:    3275.33 ave 3309 max 3247 min
Histogram: 1 0 0 2 1 1 0 0 0 1
Nghost:    6776.33 ave 6795 max 6756 min
Histogram: 1 0 0 1 1 0 2 0 0 1
Neighs:    211760 ave 217160 max 207470 min
Histogram: 1 1 1 0 1 0 0 0 1 1

Total # of neighbors = 1270563
Ave neighs/atom = 64.6531
Neighbor list builds = 495
Dangerous builds not checked
Setting up Verlet run ...
  Unit style    : metal
  Current step  : 307163
  Time step     : 0.001
Per MPI rank memory allocation (min/avg/max) = 5.58 | 5.862 | 6.003 Mbytes
Step Temp Press TotEng PotEng Enthalpy 
  307163     2225.901    79.062184   -76264.982   -81918.974   -76245.802 
  333335    2196.3998    442.34989   -76371.295   -81950.351    -76264.27 
  373335    2205.2698   -2060.4155    -76349.62   -81951.206   -76850.813 
Loop time of 1764.72 on 6 procs for 66172 steps with 19652 atoms

Performance: 3.240 ns/day, 7.408 hours/ns, 37.497 timesteps/s
99.9% CPU use with 6 MPI tasks x no OpenMP threads

MPI task timing breakdown:
Section |  min time  |  avg time  |  max time  |%varavg| %total
---------------------------------------------------------------
Pair    | 947.74     | 967.2      | 982.95     |  49.5 | 54.81
Neigh   | 595.92     | 631.32     | 665.3      | 103.7 | 35.77
Comm    | 123.31     | 144.34     | 165.52     | 109.8 |  8.18
Output  | 0.035788   | 0.035804   | 0.035856   |   0.0 |  0.00
Modify  | 16.569     | 17.243     | 17.799     |  11.0 |  0.98
Other   |            | 4.58       |            |       |  0.26

Nlocal:    3275.33 ave 3289 max 3262 min
Histogram: 1 1 0 0 1 1 0 1 0 1
Nghost:    6765.67 ave 6789 max 6733 min
Histogram: 1 0 0 2 0 0 0 0 1 2
Neighs:    211152 ave 214918 max 206390 min
Histogram: 1 0 0 2 0 0 0 1 0 2

Total # of neighbors = 1266909
Ave neighs/atom = 64.4672
Neighbor list builds = 66172
Dangerous builds not checked
Setting up Verlet run ...
  Unit style    : metal
  Current step  : 373335
  Time step     : 0.001
Per MPI rank memory allocation (min/avg/max) = 5.58 | 5.862 | 6.003 Mbytes
Step Temp Press TotEng PotEng Enthalpy 
  373335    2205.2698   -2060.4155    -76349.62   -81951.206   -76850.813 
  373830    2151.1091    376.31288    -76555.29   -82019.304   -76464.241 
Loop time of 13.2817 on 6 procs for 495 steps with 19652 atoms

Performance: 3.220 ns/day, 7.453 hours/ns, 37.269 timesteps/s
100.0% CPU use with 6 MPI tasks x no OpenMP threads

MPI task timing breakdown:
Section |  min time  |  avg time  |  max time  |%varavg| %total
---------------------------------------------------------------
Pair    | 6.9903     | 7.3127     | 7.498      |   6.9 | 55.06
Neigh   | 4.1909     | 4.6885     | 5.1913     |  18.3 | 35.30
Comm    | 0.78039    | 1.1136     | 1.4346     |  23.5 |  8.38
Output  | 4.7922e-05 | 5.7975e-05 | 8.2016e-05 |   0.0 |  0.00
Modify  | 0.12279    | 0.13154    | 0.13955    |   1.7 |  0.99
Other   |            | 0.0353     |            |       |  0.27

Nlocal:    3275.33 ave 3299 max 3255 min
Histogram: 2 0 0 0 1 0 2 0 0 1
Nghost:    6801.17 ave 6828 max 6781 min
Histogram: 1 2 0 0 0 1 0 1 0 1
Neighs:    212310 ave 216166 max 210034 min
Histogram: 2 1 0 0 1 0 1 0 0 1

Total # of neighbors = 1273863
Ave neighs/atom = 64.821
Neighbor list builds = 495
Dangerous builds not checked
Setting up Verlet run ...
  Unit style    : metal
  Current step  : 373830
  Time step     : 0.001
Per MPI rank memory allocation (min/avg/max) = 5.58 | 5.862 | 6.003 Mbytes
Step Temp Press TotEng PotEng Enthalpy 
  373830    2151.1091    376.31288    -76555.29   -82019.304   -76464.241 
  400002    2148.1523   -423.22401   -76553.927   -82010.429   -76656.681 
  440002    2146.2668   -1007.2082   -76552.822   -82004.535   -76797.352 
Loop time of 1790.17 on 6 procs for 66172 steps with 19652 atoms

Performance: 3.194 ns/day, 7.515 hours/ns, 36.964 timesteps/s
99.6% CPU use with 6 MPI tasks x no OpenMP threads

MPI task timing breakdown:
Section |  min time  |  avg time  |  max time  |%varavg| %total
---------------------------------------------------------------
Pair    | 963.69     | 977.94     | 991.44     |  36.8 | 54.63
Neigh   | 613.6      | 636.68     | 662.41     |  70.5 | 35.57
Comm    | 133.83     | 149.2      | 165.72     |  79.6 |  8.33
Output  | 0.22791    | 0.22792    | 0.22796    |   0.0 |  0.01
Modify  | 20.934     | 21.447     | 21.865     |   7.1 |  1.20
Other   |            | 4.669      |            |       |  0.26

Nlocal:    3275.33 ave 3293 max 3254 min
Histogram: 1 0 0 1 1 0 1 0 1 1
Nghost:    6764 ave 6812 max 6735 min
Histogram: 2 0 0 2 1 0 0 0 0 1
Neighs:    211486 ave 214531 max 208803 min
Histogram: 2 1 0 0 0 0 1 0 1 1

Total # of neighbors = 1268919
Ave neighs/atom = 64.5695
Neighbor list builds = 66172
Dangerous builds not checked
Setting up Verlet run ...
  Unit style    : metal
  Current step  : 440002
  Time step     : 0.001
Per MPI rank memory allocation (min/avg/max) = 5.58 | 5.862 | 6.003 Mbytes
Step Temp Press TotEng PotEng Enthalpy 
  440002    2146.2668   -1007.2082   -76552.822   -82004.535   -76797.352 
  440497    2105.3744   -172.52835   -76764.147   -82111.989   -76805.786 
Loop time of 12.5179 on 6 procs for 495 steps with 19652 atoms

Performance: 3.417 ns/day, 7.025 hours/ns, 39.543 timesteps/s
100.0% CPU use with 6 MPI tasks x no OpenMP threads

MPI task timing breakdown:
Section |  min time  |  avg time  |  max time  |%varavg| %total
---------------------------------------------------------------
Pair    | 6.7688     | 6.8747     | 7.1079     |   4.3 | 54.92
Neigh   | 3.9395     | 4.4356     | 4.846      |  14.1 | 35.43
Comm    | 0.69664    | 1.0462     | 1.32       |  20.8 |  8.36
Output  | 4.6968e-05 | 5.5393e-05 | 8.5115e-05 |   0.0 |  0.00
Modify  | 0.11847    | 0.12778    | 0.13534    |   1.5 |  1.02
Other   |            | 0.03348    |            |       |  0.27

Nlocal:    3275.33 ave 3293 max 3259 min
Histogram: 1 0 2 0 0 1 0 0 1 1
Nghost:    6789.17 ave 6824 max 6753 min
Histogram: 1 1 0 0 1 0 1 0 1 1
Neighs:    212850 ave 217725 max 208243 min
Histogram: 1 0 0 2 1 0 0 0 1 1

Total # of neighbors = 1277099
Ave neighs/atom = 64.9857
Neighbor list builds = 495
Dangerous builds not checked
Setting up Verlet run ...
  Unit style    : metal
  Current step  : 440497
  Time step     : 0.001
Per MPI rank memory allocation (min/avg/max) = 5.58 | 5.862 | 6.003 Mbytes
Step Temp Press TotEng PotEng Enthalpy 
  440497    2105.3744   -172.52835   -76764.147   -82111.989   -76805.786 
  466669    2081.8529    -507.0261   -76862.158   -82150.254   -76984.701 
  506669    2107.8822    193.65715   -76768.905   -82123.118   -76722.158 
Loop time of 1698.88 on 6 procs for 66172 steps with 19652 atoms

Performance: 3.365 ns/day, 7.132 hours/ns, 38.950 timesteps/s
99.7% CPU use with 6 MPI tasks x no OpenMP threads

MPI task timing breakdown:
Section |  min time  |  avg time  |  max time  |%varavg| %total
---------------------------------------------------------------
Pair    | 919.55     | 929.43     | 939.37     |  23.4 | 54.71
Neigh   | 596.72     | 609.65     | 622.36     |  37.6 | 35.89
Comm    | 124.27     | 135.67     | 150.12     |  71.7 |  7.99
Output  | 0.85583    | 0.85584    | 0.85589    |   0.0 |  0.05
Modify  | 16.919     | 18.812     | 22.351     |  55.0 |  1.11
Other   |            | 4.464      |            |       |  0.26

Nlocal:    3275.33 ave 3300 max 3245 min
Histogram: 1 0 1 0 0 1 1 0 1 1
Nghost:    6811 ave 6828 max 6795 min
Histogram: 2 1 0 0 0 0 0 1 0 2
Neighs:    212729 ave 216704 max 209798 min
Histogram: 1 1 0 2 0 0 1 0 0 1

Total # of neighbors = 1276372
Ave neighs/atom = 64.9487
Neighbor list builds = 66172
Dangerous builds not checked
Setting up Verlet run ...
  Unit style    : metal
  Current step  : 506669
  Time step     : 0.001
Per MPI rank memory allocation (min/avg/max) = 5.58 | 5.862 | 6.003 Mbytes
Step Temp Press TotEng PotEng Enthalpy 
  506669    2107.8822    193.65715   -76768.905   -82123.118   -76722.158 
  507164    2047.8354    52.242623   -76943.645   -82145.333   -76931.041 
Loop time of 11.333 on 6 procs for 495 steps with 19652 atoms

Performance: 3.774 ns/day, 6.360 hours/ns, 43.678 timesteps/s
99.9% CPU use with 6 MPI tasks x no OpenMP threads

MPI task timing breakdown:
Section |  min time  |  avg time  |  max time  |%varavg| %total
---------------------------------------------------------------
Pair    | 5.9623     | 6.1244     | 6.2121     |   3.5 | 54.04
Neigh   | 4.0657     | 4.2678     | 4.4274     |   6.0 | 37.66
Comm    | 0.65542    | 0.78552    | 0.92219    |   9.0 |  6.93
Output  | 3.7909e-05 | 4.6889e-05 | 7.391e-05  |   0.0 |  0.00
Modify  | 0.12113    | 0.12379    | 0.12658    |   0.6 |  1.09
Other   |            | 0.03145    |            |       |  0.28

Nlocal:    3275.33 ave 3291 max 3261 min
Histogram: 1 1 0 1 0 1 0 0 0 2
Nghost:    6776 ave 6799 max 6748 min
Histogram: 1 0 0 1 1 0 1 0 1 1
Neighs:    212895 ave 215861 max 209311 min
Histogram: 1 0 1 0 0 0 2 1 0 1

Total # of neighbors = 1277369
Ave neighs/atom = 64.9994
Neighbor list builds = 495
Dangerous builds not checked
Setting up Verlet run ...
  Unit style    : metal
  Current step  : 507164
  Time step     : 0.001
Per MPI rank memory allocation (min/avg/max) = 5.58 | 5.862 | 6.003 Mbytes
Step Temp Press TotEng PotEng Enthalpy 
  507164    2047.8354    52.242623   -76943.645   -82145.333   -76931.041 
  533336    2050.6465   -71.917197   -76979.092   -82187.921   -76996.449 
  573336    2053.2512   -555.42199   -76994.647   -82210.092   -77128.793 
Loop time of 1861.34 on 6 procs for 66172 steps with 19652 atoms

Performance: 3.072 ns/day, 7.814 hours/ns, 35.551 timesteps/s
98.3% CPU use with 6 MPI tasks x no OpenMP threads

MPI task timing breakdown:
Section |  min time  |  avg time  |  max time  |%varavg| %total
---------------------------------------------------------------
Pair    | 1000       | 1012.8     | 1019       |  19.7 | 54.41
Neigh   | 621.2      | 631.21     | 645.89     |  33.7 | 33.91
Comm    | 151.3      | 168.66     | 192.49     | 105.3 |  9.06
Output  | 3.2862     | 3.2862     | 3.2862     |   0.0 |  0.18
Modify  | 40.167     | 40.84      | 41.682     |   8.9 |  2.19
Other   |            | 4.517      |            |       |  0.24

Nlocal:    3275.33 ave 3294 max 3261 min
Histogram: 2 0 0 1 0 1 1 0 0 1
Nghost:    6781.33 ave 6797 max 6747 min
Histogram: 1 0 0 0 0 1 0 1 0 3
Neighs:    212613 ave 215370 max 208948 min
Histogram: 1 0 0 1 1 0 0 1 0 2

Total # of neighbors = 1275676
Ave neighs/atom = 64.9133
Neighbor list builds = 66172
Dangerous builds not checked
Setting up Verlet run ...
  Unit style    : metal
  Current step  : 573336
  Time step     : 0.001
Per MPI rank memory allocation (min/avg/max) = 5.581 | 5.862 | 6.003 Mbytes
Step Temp Press TotEng PotEng Enthalpy 
  573336    2053.2512   -555.42199   -76994.647   -82210.092   -77128.793 
  573831    1998.3897    799.35518   -77215.325   -82291.417   -77023.145 
Loop time of 13.1374 on 6 procs for 495 steps with 19652 atoms

Performance: 3.255 ns/day, 7.372 hours/ns, 37.679 timesteps/s
99.9% CPU use with 6 MPI tasks x no OpenMP threads

MPI task timing breakdown:
Section |  min time  |  avg time  |  max time  |%varavg| %total
---------------------------------------------------------------
Pair    | 6.8806     | 7.1786     | 7.4514     |   7.4 | 54.64
Neigh   | 4.3688     | 4.8905     | 5.4226     |  16.6 | 37.23
Comm    | 0.64801    | 0.89408    | 1.2705     |  21.3 |  6.81
Output  | 4.7922e-05 | 5.6783e-05 | 8.0824e-05 |   0.0 |  0.00
Modify  | 0.13002    | 0.13849    | 0.14805    |   1.9 |  1.05
Other   |            | 0.03569    |            |       |  0.27

Nlocal:    3275.33 ave 3288 max 3258 min
Histogram: 1 0 0 0 1 0 2 1 0 1
Nghost:    6826.17 ave 6849 max 6810 min
Histogram: 2 0 0 1 0 2 0 0 0 1
Neighs:    213625 ave 217587 max 208943 min
Histogram: 1 0 0 1 0 1 1 1 0 1

Total # of neighbors = 1281749
Ave neighs/atom = 65.2223
Neighbor list builds = 495
Dangerous builds not checked
Setting up Verlet run ...
  Unit style    : metal
  Current step  : 573831
  Time step     : 0.001
Per MPI rank memory allocation (min/avg/max) = 5.581 | 5.862 | 6.003 Mbytes
Step Temp Press TotEng PotEng Enthalpy 
  573831    1998.3897    799.35518   -77215.325   -82291.417   -77023.145 
  600003    2008.0779   -815.48795   -77190.115   -82290.816   -77386.933 
  640003    1978.6865    758.82839   -77280.532   -82306.576   -77098.303 
Loop time of 1812.26 on 6 procs for 66172 steps with 19652 atoms

Performance: 3.155 ns/day, 7.608 hours/ns, 36.514 timesteps/s
99.2% CPU use with 6 MPI tasks x no OpenMP threads

MPI task timing breakdown:
Section |  min time  |  avg time  |  max time  |%varavg| %total
---------------------------------------------------------------
Pair    | 964.99     | 981.5      | 994.01     |  27.9 | 54.16
Neigh   | 631.85     | 640.18     | 655.03     |  35.1 | 35.33
Comm    | 143.7      | 150.06     | 154.96     |  33.5 |  8.28
Output  | 0.13552    | 0.13554    | 0.13559    |   0.0 |  0.01
Modify  | 35.092     | 35.701     | 36.539     |   8.4 |  1.97
Other   |            | 4.686      |            |       |  0.26

Nlocal:    3275.33 ave 3297 max 3268 min
Histogram: 2 2 0 1 0 0 0 0 0 1
Nghost:    6806.67 ave 6834 max 6785 min
Histogram: 1 0 1 1 1 0 1 0 0 1
Neighs:    213861 ave 217023 max 210566 min
Histogram: 2 0 1 0 0 0 0 1 0 2

Total # of neighbors = 1283167
Ave neighs/atom = 65.2945
Neighbor list builds = 66172
Dangerous builds not checked
Setting up Verlet run ...
  Unit style    : metal
  Current step  : 640003
  Time step     : 0.001
Per MPI rank memory allocation (min/avg/max) = 5.581 | 5.862 | 6.003 Mbytes
Step Temp Press TotEng PotEng Enthalpy 
  640003    1978.6865    758.82839   -77280.532   -82306.576   -77098.303 
  640498    1956.2125    749.91788   -77426.585   -82395.543   -77246.315 
Loop time of 11.8863 on 6 procs for 495 steps with 19652 atoms

Performance: 3.598 ns/day, 6.670 hours/ns, 41.645 timesteps/s
100.0% CPU use with 6 MPI tasks x no OpenMP threads

MPI task timing breakdown:
Section |  min time  |  avg time  |  max time  |%varavg| %total
---------------------------------------------------------------
Pair    | 6.3667     | 6.4877     | 6.63       |   3.9 | 54.58
Neigh   | 4.0853     | 4.316      | 4.6537     |  10.3 | 36.31
Comm    | 0.70048    | 0.92596    | 1.0503     |  13.8 |  7.79
Output  | 5.6028e-05 | 7.9314e-05 | 0.00018883 |   0.0 |  0.00
Modify  | 0.11698    | 0.12325    | 0.12798    |   1.1 |  1.04
Other   |            | 0.03336    |            |       |  0.28

Nlocal:    3275.33 ave 3310 max 3250 min
Histogram: 1 1 0 1 1 1 0 0 0 1
Nghost:    6799.67 ave 6823 max 6774 min
Histogram: 1 0 1 0 0 1 1 1 0 1
Neighs:    213636 ave 218043 max 208923 min
Histogram: 1 0 1 0 0 1 2 0 0 1

Total # of neighbors = 1281814
Ave neighs/atom = 65.2256
Neighbor list builds = 495
Dangerous builds not checked
Setting up Verlet run ...
  Unit style    : metal
  Current step  : 640498
  Time step     : 0.001
Per MPI rank memory allocation (min/avg/max) = 5.581 | 5.862 | 6.003 Mbytes
Step Temp Press TotEng PotEng Enthalpy 
  640498    1956.2125    749.91788   -77426.585   -82395.543   -77246.315 
  666670    1958.4099   -197.28781   -77486.286   -82460.825   -77533.686 
  706670    1944.4552    322.88005    -77438.73   -82377.824   -77361.165 
Loop time of 2103.54 on 6 procs for 66172 steps with 19652 atoms

Performance: 2.718 ns/day, 8.830 hours/ns, 31.458 timesteps/s
96.2% CPU use with 6 MPI tasks x no OpenMP threads

MPI task timing breakdown:
Section |  min time  |  avg time  |  max time  |%varavg| %total
---------------------------------------------------------------
Pair    | 1107.3     | 1119.4     | 1128.1     |  21.4 | 53.22
Neigh   | 621.06     | 627.59     | 634.77     |  19.6 | 29.84
Comm    | 257.37     | 267.64     | 287.23     |  60.2 | 12.72
Output  | 3.9949     | 3.995      | 3.995      |   0.0 |  0.19
Modify  | 75.644     | 80.106     | 85.119     |  41.1 |  3.81
Other   |            | 4.77       |            |       |  0.23

Nlocal:    3275.33 ave 3293 max 3252 min
Histogram: 2 0 0 0 0 0 0 1 2 1
Nghost:    6802.83 ave 6819 max 6788 min
Histogram: 1 1 1 0 0 0 1 0 1 1
Neighs:    213765 ave 219537 max 209724 min
Histogram: 2 0 0 1 1 0 1 0 0 1

Total # of neighbors = 1282589
Ave neighs/atom = 65.2651
Neighbor list builds = 66172
Dangerous builds not checked
Setting up Verlet run ...
  Unit style    : metal
  Current step  : 706670
  Time step     : 0.001
Per MPI rank memory allocation (min/avg/max) = 5.581 | 5.862 | 6.003 Mbytes
Step Temp Press TotEng PotEng Enthalpy 
  706670    1944.4552    322.88005    -77438.73   -82377.824   -77361.165 
  707165    1900.9686    74.731645   -77678.691   -82507.325   -77660.785 
Loop time of 21.9084 on 6 procs for 495 steps with 19652 atoms

Performance: 1.952 ns/day, 12.294 hours/ns, 22.594 timesteps/s
91.1% CPU use with 6 MPI tasks x no OpenMP threads

MPI task timing breakdown:
Section |  min time  |  avg time  |  max time  |%varavg| %total
---------------------------------------------------------------
Pair    | 10.672     | 10.891     | 11.179     |   6.0 | 49.71
Neigh   | 4.0191     | 4.2397     | 4.5653     |   8.1 | 19.35
Comm    | 2.5081     | 3.0203     | 3.81       |  26.3 | 13.79
Output  | 4.6015e-05 | 5.4002e-05 | 7.7009e-05 |   0.0 |  0.00
Modify  | 3.1696     | 3.7246     | 4.0075     |  20.3 | 17.00
Other   |            | 0.03234    |            |       |  0.15

Nlocal:    3275.33 ave 3297 max 3240 min
Histogram: 1 0 0 0 1 0 1 1 0 2
Nghost:    6822.33 ave 6864 max 6785 min
Histogram: 1 1 0 1 0 1 0 1 0 1
Neighs:    214421 ave 218974 max 207463 min
Histogram: 1 0 0 0 1 0 2 0 1 1

Total # of neighbors = 1286524
Ave neighs/atom = 65.4653
Neighbor list builds = 495
Dangerous builds not checked
Setting up Verlet run ...
  Unit style    : metal
  Current step  : 707165
  Time step     : 0.001
Per MPI rank memory allocation (min/avg/max) = 5.581 | 5.862 | 6.003 Mbytes
Step Temp Press TotEng PotEng Enthalpy 
  707165    1900.9686    74.731645   -77678.691   -82507.325   -77660.785 
  733337    1895.2324    587.59463   -77724.281   -82538.343   -77583.458 
  773337    1902.4152     -595.632   -77650.747   -82483.054   -77793.924 
Loop time of 2803.31 on 6 procs for 66172 steps with 19652 atoms

Performance: 2.039 ns/day, 11.768 hours/ns, 23.605 timesteps/s
92.7% CPU use with 6 MPI tasks x no OpenMP threads

MPI task timing breakdown:
Section |  min time  |  avg time  |  max time  |%varavg| %total
---------------------------------------------------------------
Pair    | 1423.8     | 1457.8     | 1491.8     |  68.1 | 52.00
Neigh   | 651.14     | 666.46     | 687.7      |  54.1 | 23.77
Comm    | 429.07     | 499.07     | 552.51     | 187.3 | 17.80
Output  | 2.8054     | 2.8054     | 2.8055     |   0.0 |  0.10
Modify  | 162.25     | 171.85     | 186.79     |  77.6 |  6.13
Other   |            | 5.327      |            |       |  0.19

Nlocal:    3275.33 ave 3305 max 3262 min
Histogram: 1 3 0 0 1 0 0 0 0 1
Nghost:    6795.17 ave 6830 max 6769 min
Histogram: 2 1 0 0 0 1 0 0 1 1
Neighs:    213706 ave 218178 max 209352 min
Histogram: 1 0 1 1 1 0 0 0 1 1

Total # of neighbors = 1282239
Ave neighs/atom = 65.2473
Neighbor list builds = 66172
Dangerous builds not checked
Setting up Verlet run ...
  Unit style    : metal
  Current step  : 773337
  Time step     : 0.001
Per MPI rank memory allocation (min/avg/max) = 5.581 | 5.862 | 6.003 Mbytes
Step Temp Press TotEng PotEng Enthalpy 
  773337    1902.4152     -595.632   -77650.747   -82483.054   -77793.924 
  773832    1857.5919    242.27702   -77889.369   -82607.822   -77831.389 
Loop time of 13.6657 on 6 procs for 495 steps with 19652 atoms

Performance: 3.130 ns/day, 7.669 hours/ns, 36.222 timesteps/s
99.9% CPU use with 6 MPI tasks x no OpenMP threads

MPI task timing breakdown:
Section |  min time  |  avg time  |  max time  |%varavg| %total
---------------------------------------------------------------
Pair    | 7.3397     | 7.4413     | 7.8197     |   6.2 | 54.45
Neigh   | 4.4771     | 4.754      | 5.0395     |   7.8 | 34.79
Comm    | 0.6276     | 1.2843     | 1.6225     |  27.8 |  9.40
Output  | 4.7922e-05 | 6.0638e-05 | 9.3937e-05 |   0.0 |  0.00
Modify  | 0.13481    | 0.1427     | 0.14714    |   1.3 |  1.04
Other   |            | 0.04346    |            |       |  0.32

Nlocal:    3275.33 ave 3305 max 3240 min
Histogram: 1 0 1 1 0 0 1 0 0 2
Nghost:    6834.17 ave 6898 max 6803 min
Histogram: 2 0 2 0 0 1 0 0 0 1
Neighs:    214610 ave 218996 max 212079 min
Histogram: 2 1 0 0 1 1 0 0 0 1

Total # of neighbors = 1287663
Ave neighs/atom = 65.5233
Neighbor list builds = 495
Dangerous builds not checked
Setting up Verlet run ...
  Unit style    : metal
  Current step  : 773832
  Time step     : 0.001
Per MPI rank memory allocation (min/avg/max) = 5.581 | 5.862 | 6.003 Mbytes
Step Temp Press TotEng PotEng Enthalpy 
  773832    1857.5919    242.27702   -77889.369   -82607.822   -77831.389 
  800004    1832.0738    854.55653   -77976.339   -82629.973   -77772.489 
  840004     1851.092   -665.22764   -77873.474   -82575.416   -78032.927 
Loop time of 2194.26 on 6 procs for 66172 steps with 19652 atoms

Performance: 2.606 ns/day, 9.211 hours/ns, 30.157 timesteps/s
99.3% CPU use with 6 MPI tasks x no OpenMP threads

MPI task timing breakdown:
Section |  min time  |  avg time  |  max time  |%varavg| %total
---------------------------------------------------------------
Pair    | 1168.2     | 1194       | 1221.6     |  53.3 | 54.42
Neigh   | 676.12     | 718.64     | 785.4      | 152.2 | 32.75
Comm    | 152.01     | 246.58     | 315.69     | 366.2 | 11.24
Output  | 0.11819    | 0.11821    | 0.11825    |   0.0 |  0.01
Modify  | 28.025     | 28.825     | 29.512     |  10.8 |  1.31
Other   |            | 6.04       |            |       |  0.28

Nlocal:    3275.33 ave 3287 max 3263 min
Histogram: 1 0 0 2 1 0 0 0 0 2
Nghost:    6812 ave 6849 max 6787 min
Histogram: 1 1 1 1 0 0 1 0 0 1
Neighs:    214216 ave 217521 max 210750 min
Histogram: 1 0 0 2 0 0 1 1 0 1

Total # of neighbors = 1285294
Ave neighs/atom = 65.4027
Neighbor list builds = 66172
Dangerous builds not checked
Setting up Verlet run ...
  Unit style    : metal
  Current step  : 840004
  Time step     : 0.001
Per MPI rank memory allocation (min/avg/max) = 5.581 | 5.862 | 6.003 Mbytes
Step Temp Press TotEng PotEng Enthalpy 
  840004     1851.092   -665.22764   -77873.474   -82575.416   -78032.927 
  840499    1814.9336    147.07776    -78117.99   -82728.087   -78082.875 
Loop time of 14.4465 on 6 procs for 495 steps with 19652 atoms

Performance: 2.960 ns/day, 8.107 hours/ns, 34.264 timesteps/s
99.8% CPU use with 6 MPI tasks x no OpenMP threads

MPI task timing breakdown:
Section |  min time  |  avg time  |  max time  |%varavg| %total
---------------------------------------------------------------
Pair    | 7.7417     | 7.9028     | 8.0852     |   3.7 | 54.70
Neigh   | 4.0688     | 5.0509     | 5.4403     |  20.8 | 34.96
Comm    | 0.88538    | 1.3008     | 2.1196     |  35.6 |  9.00
Output  | 6.3181e-05 | 7.2956e-05 | 0.00010705 |   0.0 |  0.00
Modify  | 0.13369    | 0.15028    | 0.16351    |   2.3 |  1.04
Other   |            | 0.04169    |            |       |  0.29

Nlocal:    3275.33 ave 3295 max 3245 min
Histogram: 1 0 0 1 0 1 0 0 1 2
Nghost:    6811 ave 6826 max 6787 min
Histogram: 1 0 0 0 1 0 1 2 0 1
Neighs:    215072 ave 218411 max 210359 min
Histogram: 1 0 0 1 0 1 1 0 0 2

Total # of neighbors = 1290430
Ave neighs/atom = 65.6641
Neighbor list builds = 495
Dangerous builds not checked
Setting up Verlet run ...
  Unit style    : metal
  Current step  : 840499
  Time step     : 0.001
Per MPI rank memory allocation (min/avg/max) = 5.581 | 5.862 | 6.003 Mbytes
Step Temp Press TotEng PotEng Enthalpy 
  840499    1814.9336    147.07776    -78117.99   -82728.087   -78082.875 
  866671    1788.9063    1035.3314   -78143.414   -82687.399   -77896.447 
  906671    1816.2577   -1537.9527   -78106.249   -82719.709   -78474.875 
Loop time of 2310.82 on 6 procs for 66172 steps with 19652 atoms

Performance: 2.474 ns/day, 9.700 hours/ns, 28.636 timesteps/s
95.8% CPU use with 6 MPI tasks x no OpenMP threads

MPI task timing breakdown:
Section |  min time  |  avg time  |  max time  |%varavg| %total
---------------------------------------------------------------
Pair    | 1257.1     | 1276.3     | 1293.2     |  35.0 | 55.23
Neigh   | 664.72     | 681.57     | 699.39     |  45.6 | 29.49
Comm    | 257.74     | 276.93     | 300.22     |  96.5 | 11.98
Output  | 0.065769   | 0.065783   | 0.065834   |   0.0 |  0.00
Modify  | 67.938     | 70.58      | 71.908     |  16.7 |  3.05
Other   |            | 5.397      |            |       |  0.23

Nlocal:    3275.33 ave 3288 max 3259 min
Histogram: 1 0 0 0 2 0 1 0 1 1
Nghost:    6809.67 ave 6828 max 6796 min
Histogram: 1 1 1 1 0 0 0 1 0 1
Neighs:    214324 ave 216282 max 211784 min
Histogram: 1 0 0 1 0 1 0 2 0 1

Total # of neighbors = 1285946
Ave neighs/atom = 65.4359
Neighbor list builds = 66172
Dangerous builds not checked
Setting up Verlet run ...
  Unit style    : metal
  Current step  : 906671
  Time step     : 0.001
Per MPI rank memory allocation (min/avg/max) = 5.581 | 5.862 | 6.003 Mbytes
Step Temp Press TotEng PotEng Enthalpy 
  906671    1816.2577   -1537.9527   -78106.249   -82719.709   -78474.875 
  907166    1744.9122    773.15608   -78340.233   -82772.469   -78155.965 
Loop time of 13.9196 on 6 procs for 495 steps with 19652 atoms

Performance: 3.072 ns/day, 7.811 hours/ns, 35.561 timesteps/s
98.9% CPU use with 6 MPI tasks x no OpenMP threads

MPI task timing breakdown:
Section |  min time  |  avg time  |  max time  |%varavg| %total
---------------------------------------------------------------
Pair    | 7.0319     | 7.3836     | 7.5669     |   7.4 | 53.04
Neigh   | 4.4806     | 4.8419     | 5.4335     |  16.8 | 34.78
Comm    | 1.232      | 1.4944     | 1.709      |  16.5 | 10.74
Output  | 5.9128e-05 | 7.5181e-05 | 0.00011921 |   0.0 |  0.00
Modify  | 0.15221    | 0.15885    | 0.16639    |   1.4 |  1.14
Other   |            | 0.0408     |            |       |  0.29

Nlocal:    3275.33 ave 3294 max 3259 min
Histogram: 1 0 0 1 2 1 0 0 0 1
Nghost:    6801.67 ave 6820 max 6787 min
Histogram: 2 1 0 0 0 0 1 1 0 1
Neighs:    215540 ave 218859 max 211427 min
Histogram: 1 0 1 0 1 0 0 1 1 1

Total # of neighbors = 1293238
Ave neighs/atom = 65.8069
Neighbor list builds = 495
Dangerous builds not checked
Setting up Verlet run ...
  Unit style    : metal
  Current step  : 907166
  Time step     : 0.001
Per MPI rank memory allocation (min/avg/max) = 5.581 | 5.862 | 6.003 Mbytes
Step Temp Press TotEng PotEng Enthalpy 
  907166    1744.9122    773.15608   -78340.233   -82772.469   -78155.965 
  933338     1745.272   -1277.3419   -78384.772   -82817.921   -78689.706 
  973338    1752.2083    1905.5019   -78436.165   -82886.934   -77983.743 
Loop time of 2019.1 on 6 procs for 66172 steps with 19652 atoms

Performance: 2.832 ns/day, 8.476 hours/ns, 32.773 timesteps/s
99.3% CPU use with 6 MPI tasks x no OpenMP threads

MPI task timing breakdown:
Section |  min time  |  avg time  |  max time  |%varavg| %total
---------------------------------------------------------------
Pair    | 1076.6     | 1103       | 1120.3     |  54.0 | 54.63
Neigh   | 699.4      | 709.5      | 723.44     |  34.0 | 35.14
Comm    | 164.09     | 176.34     | 193.87     |  80.7 |  8.73
Output  | 0.18352    | 0.18354    | 0.18358    |   0.0 |  0.01
Modify  | 23.246     | 24.573     | 25.522     |  19.2 |  1.22
Other   |            | 5.55       |            |       |  0.27

Nlocal:    3275.33 ave 3289 max 3258 min
Histogram: 1 0 0 1 2 0 0 0 0 2
Nghost:    6847.17 ave 6879 max 6817 min
Histogram: 1 0 0 0 2 2 0 0 0 1
Neighs:    216344 ave 220192 max 212187 min
Histogram: 1 0 0 2 0 1 0 0 1 1

Total # of neighbors = 1298067
Ave neighs/atom = 66.0527
Neighbor list builds = 66172
Dangerous builds not checked
Setting up Verlet run ...
  Unit style    : metal
  Current step  : 973338
  Time step     : 0.001
Per MPI rank memory allocation (min/avg/max) = 5.581 | 5.862 | 6.003 Mbytes
Step Temp Press TotEng PotEng Enthalpy 
  973338    1752.2083    1905.5019   -78436.165   -82886.934   -77983.743 
  973833    1711.4151    1043.6251   -78610.636   -82957.787   -78362.953 
Loop time of 14.2217 on 6 procs for 495 steps with 19652 atoms

Performance: 3.007 ns/day, 7.981 hours/ns, 34.806 timesteps/s
100.0% CPU use with 6 MPI tasks x no OpenMP threads

MPI task timing breakdown:
Section |  min time  |  avg time  |  max time  |%varavg| %total
---------------------------------------------------------------
Pair    | 7.6625     | 7.7932     | 7.9174     |   3.6 | 54.80
Neigh   | 4.5494     | 5.0408     | 5.5656     |  14.4 | 35.44
Comm    | 0.73888    | 1.1975     | 1.5759     |  25.3 |  8.42
Output  | 5.4836e-05 | 6.6757e-05 | 0.000103   |   0.0 |  0.00
Modify  | 0.13825    | 0.14947    | 0.15537    |   1.7 |  1.05
Other   |            | 0.0406     |            |       |  0.29

Nlocal:    3275.33 ave 3298 max 3242 min
Histogram: 1 0 0 0 1 0 2 0 0 2
Nghost:    6840.33 ave 6866 max 6799 min
Histogram: 1 0 0 0 1 1 0 1 0 2
Neighs:    216479 ave 218431 max 213358 min
Histogram: 2 0 0 0 0 0 0 1 0 3

Total # of neighbors = 1298874
Ave neighs/atom = 66.0937
Neighbor list builds = 495
Dangerous builds not checked
Setting up Verlet run ...
  Unit style    : metal
  Current step  : 973833
  Time step     : 0.001
Per MPI rank memory allocation (min/avg/max) = 5.581 | 5.862 | 6.003 Mbytes
Step Temp Press TotEng PotEng Enthalpy 
  973833    1711.4151    1043.6251   -78610.636   -82957.787   -78362.953 
 1000005    1692.2512    709.98268   -78686.389   -82984.862    -78517.78 
 1040005    1707.7618    -1422.225   -78567.213   -82905.083   -78906.403 
Loop time of 2023.73 on 6 procs for 66172 steps with 19652 atoms

Performance: 2.825 ns/day, 8.495 hours/ns, 32.698 timesteps/s
99.4% CPU use with 6 MPI tasks x no OpenMP threads

MPI task timing breakdown:
Section |  min time  |  avg time  |  max time  |%varavg| %total
---------------------------------------------------------------
Pair    | 1073.1     | 1091.2     | 1112.7     |  36.0 | 53.92
Neigh   | 726.77     | 735.18     | 742.72     |  22.9 | 36.33
Comm    | 151.09     | 165.44     | 179.56     |  78.8 |  8.17
Output  | 0.057347   | 0.057363   | 0.05742    |   0.0 |  0.00
Modify  | 25.19      | 26.399     | 27.245     |  15.1 |  1.30
Other   |            | 5.492      |            |       |  0.27

Nlocal:    3275.33 ave 3293 max 3255 min
Histogram: 1 0 0 2 0 0 0 2 0 1
Nghost:    6835.67 ave 6879 max 6795 min
Histogram: 1 0 1 0 1 2 0 0 0 1
Neighs:    215484 ave 218645 max 212552 min
Histogram: 2 0 0 0 2 0 0 0 0 2

Total # of neighbors = 1292903
Ave neighs/atom = 65.7899
Neighbor list builds = 66172
Dangerous builds not checked
Setting up Verlet run ...
  Unit style    : metal
  Current step  : 1040005
  Time step     : 0.001
Per MPI rank memory allocation (min/avg/max) = 5.581 | 5.862 | 6.003 Mbytes
Step Temp Press TotEng PotEng Enthalpy 
 1040005    1707.7618    -1422.225   -78567.213   -82905.083   -78906.403 
 1040500    1656.1422    488.00426    -78804.51   -83011.262   -78688.669 
Loop time of 15.6637 on 6 procs for 495 steps with 19652 atoms

Performance: 2.730 ns/day, 8.790 hours/ns, 31.602 timesteps/s
98.2% CPU use with 6 MPI tasks x no OpenMP threads

MPI task timing breakdown:
Section |  min time  |  avg time  |  max time  |%varavg| %total
---------------------------------------------------------------
Pair    | 8.1197     | 8.3388     | 8.5883     |   6.1 | 53.24
Neigh   | 4.953      | 5.3007     | 6.0455     |  15.1 | 33.84
Comm    | 1.213      | 1.7513     | 1.9924     |  20.6 | 11.18
Output  | 4.9829e-05 | 6.0836e-05 | 9.7036e-05 |   0.0 |  0.00
Modify  | 0.22746    | 0.23127    | 0.24029    |   0.9 |  1.48
Other   |            | 0.04162    |            |       |  0.27

Nlocal:    3275.33 ave 3295 max 3253 min
Histogram: 1 1 0 0 0 1 1 1 0 1
Nghost:    6846.17 ave 6870 max 6827 min
Histogram: 1 1 1 0 0 1 1 0 0 1
Neighs:    216420 ave 220515 max 211008 min
Histogram: 1 1 0 0 0 0 1 1 0 2

Total # of neighbors = 1298518
Ave neighs/atom = 66.0756
Neighbor list builds = 495
Dangerous builds not checked
Setting up Verlet run ...
  Unit style    : metal
  Current step  : 1040500
  Time step     : 0.001
Per MPI rank memory allocation (min/avg/max) = 5.581 | 5.862 | 6.003 Mbytes
Step Temp Press TotEng PotEng Enthalpy 
 1040500    1656.1422    488.00426    -78804.51   -83011.262   -78688.669 
 1066672    1630.8478     1359.229   -78912.081   -83054.583   -78589.985 
 1106672    1635.1478    1113.2417   -78929.976     -83083.4   -78666.218 
Loop time of 2148.75 on 6 procs for 66172 steps with 19652 atoms

Performance: 2.661 ns/day, 9.020 hours/ns, 30.796 timesteps/s
97.6% CPU use with 6 MPI tasks x no OpenMP threads

MPI task timing breakdown:
Section |  min time  |  avg time  |  max time  |%varavg| %total
---------------------------------------------------------------
Pair    | 1148.5     | 1170       | 1181.4     |  30.7 | 54.45
Neigh   | 700.4      | 722.83     | 748.32     |  70.9 | 33.64
Comm    | 184.11     | 213.75     | 238.51     | 137.6 |  9.95
Output  | 2.9412     | 2.9412     | 2.9413     |   0.0 |  0.14
Modify  | 32.563     | 33.833     | 34.872     |  13.9 |  1.57
Other   |            | 5.418      |            |       |  0.25

Nlocal:    3275.33 ave 3293 max 3260 min
Histogram: 1 0 0 2 1 0 0 1 0 1
Nghost:    6854.33 ave 6870 max 6830 min
Histogram: 1 0 0 1 0 0 0 2 1 1
Neighs:    216874 ave 221208 max 212122 min
Histogram: 1 1 0 0 0 0 2 1 0 1

Total # of neighbors = 1301244
Ave neighs/atom = 66.2143
Neighbor list builds = 66172
Dangerous builds not checked
Setting up Verlet run ...
  Unit style    : metal
  Current step  : 1106672
  Time step     : 0.001
Per MPI rank memory allocation (min/avg/max) = 5.581 | 5.862 | 6.003 Mbytes
Step Temp Press TotEng PotEng Enthalpy 
 1106672    1635.1478    1113.2417   -78929.976     -83083.4   -78666.218 
 1107167    1604.5563    265.55652   -79052.165   -83127.884   -78989.249 
Loop time of 13.8702 on 6 procs for 495 steps with 19652 atoms

Performance: 3.083 ns/day, 7.784 hours/ns, 35.688 timesteps/s
100.0% CPU use with 6 MPI tasks x no OpenMP threads

MPI task timing breakdown:
Section |  min time  |  avg time  |  max time  |%varavg| %total
---------------------------------------------------------------
Pair    | 7.4001     | 7.5978     | 7.7425     |   5.2 | 54.78
Neigh   | 4.4585     | 5.0963     | 5.6168     |  21.1 | 36.74
Comm    | 0.5188     | 0.97906    | 1.5017     |  35.9 |  7.06
Output  | 6.0081e-05 | 7.3671e-05 | 9.8944e-05 |   0.0 |  0.00
Modify  | 0.13965    | 0.15379    | 0.16452    |   2.3 |  1.11
Other   |            | 0.04312    |            |       |  0.31

Nlocal:    3275.33 ave 3284 max 3262 min
Histogram: 1 0 0 1 0 1 0 0 1 2
Nghost:    6856.5 ave 6880 max 6837 min
Histogram: 1 1 1 0 1 0 0 0 0 2
Neighs:    216817 ave 220375 max 212782 min
Histogram: 1 0 1 1 0 0 1 0 0 2

Total # of neighbors = 1300904
Ave neighs/atom = 66.197
Neighbor list builds = 495
Dangerous builds not checked
Setting up Verlet run ...
  Unit style    : metal
  Current step  : 1107167
  Time step     : 0.001
Per MPI rank memory allocation (min/avg/max) = 5.581 | 5.862 | 6.003 Mbytes
Step Temp Press TotEng PotEng Enthalpy 
 1107167    1604.5563    265.55652   -79052.165   -83127.884   -78989.249 
 1133339    1581.3456    404.09585    -79162.72   -83179.482   -79066.902 
 1173339    1600.4921    424.38149   -79091.932   -83157.328   -78991.418 
Loop time of 2035.2 on 6 procs for 66172 steps with 19652 atoms

Performance: 2.809 ns/day, 8.543 hours/ns, 32.514 timesteps/s
99.5% CPU use with 6 MPI tasks x no OpenMP threads

MPI task timing breakdown:
Section |  min time  |  avg time  |  max time  |%varavg| %total
---------------------------------------------------------------
Pair    | 1095.3     | 1108.6     | 1118.6     |  22.2 | 54.47
Neigh   | 677.8      | 722.8      | 747.16     |  87.6 | 35.51
Comm    | 147.41     | 174.14     | 221.75     | 201.4 |  8.56
Output  | 0.037607   | 0.037623   | 0.03768    |   0.0 |  0.00
Modify  | 22.704     | 24.078     | 25.281     |  19.6 |  1.18
Other   |            | 5.581      |            |       |  0.27

Nlocal:    3275.33 ave 3289 max 3261 min
Histogram: 1 0 0 1 1 0 2 0 0 1
Nghost:    6862.5 ave 6893 max 6834 min
Histogram: 1 0 0 2 0 1 1 0 0 1
Neighs:    216824 ave 219641 max 212401 min
Histogram: 1 0 0 0 0 2 0 2 0 1

Total # of neighbors = 1300942
Ave neighs/atom = 66.199
Neighbor list builds = 66172
Dangerous builds not checked
Setting up Verlet run ...
  Unit style    : metal
  Current step  : 1173339
  Time step     : 0.001
Per MPI rank memory allocation (min/avg/max) = 5.581 | 5.862 | 6.003 Mbytes
Step Temp Press TotEng PotEng Enthalpy 
 1173339    1600.4921    424.38149   -79091.932   -83157.328   -78991.418 
 1173834    1565.0728     674.0112   -79280.021   -83255.448   -79120.432 
Loop time of 15.5181 on 6 procs for 495 steps with 19652 atoms

Performance: 2.756 ns/day, 8.708 hours/ns, 31.898 timesteps/s
98.6% CPU use with 6 MPI tasks x no OpenMP threads

MPI task timing breakdown:
Section |  min time  |  avg time  |  max time  |%varavg| %total
---------------------------------------------------------------
Pair    | 8.405      | 8.5397     | 8.6585     |   2.9 | 55.03
Neigh   | 4.7317     | 5.2795     | 6.0105     |  18.2 | 34.02
Comm    | 0.56959    | 1.1785     | 1.6848     |  35.7 |  7.59
Output  | 7.987e-05  | 0.00010943 | 0.00015593 |   0.0 |  0.00
Modify  | 0.14357    | 0.1521     | 0.164      |   1.9 |  0.98
Other   |            | 0.3682     |            |       |  2.37

Nlocal:    3275.33 ave 3301 max 3255 min
Histogram: 2 1 0 0 0 1 0 0 1 1
Nghost:    6874.67 ave 6892 max 6845 min
Histogram: 1 0 0 0 1 1 0 0 1 2
Neighs:    217057 ave 221074 max 213969 min
Histogram: 1 0 0 2 1 1 0 0 0 1

Total # of neighbors = 1302340
Ave neighs/atom = 66.2701
Neighbor list builds = 495
Dangerous builds not checked
Setting up Verlet run ...
  Unit style    : metal
  Current step  : 1173834
  Time step     : 0.001
Per MPI rank memory allocation (min/avg/max) = 5.581 | 5.862 | 6.003 Mbytes
Step Temp Press TotEng PotEng Enthalpy 
 1173834    1565.0728     674.0112   -79280.021   -83255.448   -79120.432 
 1200006    1546.5183   -295.36497   -79404.695   -83332.992   -79474.569 
 1240006    1545.4488   -906.71687   -79384.409    -83309.99   -79599.056 
Loop time of 2080.85 on 6 procs for 66172 steps with 19652 atoms

Performance: 2.748 ns/day, 8.735 hours/ns, 31.801 timesteps/s
99.6% CPU use with 6 MPI tasks x no OpenMP threads

MPI task timing breakdown:
Section |  min time  |  avg time  |  max time  |%varavg| %total
---------------------------------------------------------------
Pair    | 1115.5     | 1135.9     | 1153.8     |  39.7 | 54.59
Neigh   | 689.78     | 731.07     | 753.62     |  80.8 | 35.13
Comm    | 145.89     | 186.49     | 248.38     | 255.6 |  8.96
Output  | 0.060464   | 0.060482   | 0.060537   |   0.0 |  0.00
Modify  | 21.1       | 21.674     | 22.005     |   6.4 |  1.04
Other   |            | 5.652      |            |       |  0.27

Nlocal:    3275.33 ave 3295 max 3246 min
Histogram: 1 0 0 1 0 0 1 1 0 2
Nghost:    6852.67 ave 6884 max 6804 min
Histogram: 1 0 0 0 1 1 0 0 2 1
Neighs:    217098 ave 222052 max 212270 min
Histogram: 1 0 0 1 1 1 1 0 0 1

Total # of neighbors = 1302587
Ave neighs/atom = 66.2827
Neighbor list builds = 66172
Dangerous builds not checked
Setting up Verlet run ...
  Unit style    : metal
  Current step  : 1240006
  Time step     : 0.001
Per MPI rank memory allocation (min/avg/max) = 5.581 | 5.862 | 6.003 Mbytes
Step Temp Press TotEng PotEng Enthalpy 
 1240006    1545.4488   -906.71687   -79384.409    -83309.99   -79599.056 
 1240501    1510.8461   -288.75869   -79543.419   -83381.106   -79611.675 
Loop time of 14.4855 on 6 procs for 495 steps with 19652 atoms

Performance: 2.952 ns/day, 8.129 hours/ns, 34.172 timesteps/s
99.9% CPU use with 6 MPI tasks x no OpenMP threads

MPI task timing breakdown:
Section |  min time  |  avg time  |  max time  |%varavg| %total
---------------------------------------------------------------
Pair    | 7.8664     | 7.9134     | 7.9529     |   1.2 | 54.63
Neigh   | 4.4114     | 5.2104     | 5.5992     |  17.1 | 35.97
Comm    | 0.78103    | 1.1681     | 1.943      |  34.6 |  8.06
Output  | 4.7922e-05 | 5.6823e-05 | 8.7976e-05 |   0.0 |  0.00
Modify  | 0.13692    | 0.15361    | 0.15878    |   1.9 |  1.06
Other   |            | 0.03997    |            |       |  0.28

Nlocal:    3275.33 ave 3300 max 3252 min
Histogram: 2 0 0 0 1 0 1 1 0 1
Nghost:    6855.67 ave 6895 max 6822 min
Histogram: 1 0 1 1 0 1 1 0 0 1
Neighs:    217436 ave 222084 max 212121 min
Histogram: 1 0 0 0 2 1 0 1 0 1

Total # of neighbors = 1304614
Ave neighs/atom = 66.3858
Neighbor list builds = 495
Dangerous builds not checked
Setting up Verlet run ...
  Unit style    : metal
  Current step  : 1240501
  Time step     : 0.001
Per MPI rank memory allocation (min/avg/max) = 5.581 | 5.862 | 6.003 Mbytes
Step Temp Press TotEng PotEng Enthalpy 
 1240501    1510.8461   -288.75869   -79543.419   -83381.106   -79611.675 
 1266673    1484.9615    213.68723   -79629.069   -83401.007   -79578.575 
 1306673    1485.9003   -618.05532   -79616.921   -83391.243   -79763.248 
Loop time of 2075.58 on 6 procs for 66172 steps with 19652 atoms

Performance: 2.755 ns/day, 8.713 hours/ns, 31.881 timesteps/s
99.1% CPU use with 6 MPI tasks x no OpenMP threads

MPI task timing breakdown:
Section |  min time  |  avg time  |  max time  |%varavg| %total
---------------------------------------------------------------
Pair    | 1115.4     | 1134.6     | 1152.4     |  32.0 | 54.67
Neigh   | 680.9      | 731.74     | 753.6      |  88.3 | 35.25
Comm    | 158.21     | 180.92     | 233.57     | 198.5 |  8.72
Output  | 0.11629    | 0.11631    | 0.11637    |   0.0 |  0.01
Modify  | 21.468     | 22.458     | 23.035     |  11.2 |  1.08
Other   |            | 5.707      |            |       |  0.27

Nlocal:    3275.33 ave 3288 max 3257 min
Histogram: 1 0 0 0 0 1 2 1 0 1
Nghost:    6840.17 ave 6886 max 6818 min
Histogram: 2 1 1 0 1 0 0 0 0 1
Neighs:    216996 ave 221476 max 211014 min
Histogram: 1 0 0 1 0 1 0 1 1 1

Total # of neighbors = 1301973
Ave neighs/atom = 66.2514
Neighbor list builds = 66172
Dangerous builds not checked
Setting up Verlet run ...
  Unit style    : metal
  Current step  : 1306673
  Time step     : 0.001
Per MPI rank memory allocation (min/avg/max) = 5.581 | 5.862 | 6.003 Mbytes
Step Temp Press TotEng PotEng Enthalpy 
 1306673    1485.9003   -618.05532   -79616.921   -83391.243   -79763.248 
 1307168    1477.3118    163.41795   -79799.782   -83552.288   -79761.219 
Loop time of 14.4595 on 6 procs for 495 steps with 19652 atoms

Performance: 2.958 ns/day, 8.114 hours/ns, 34.233 timesteps/s
99.7% CPU use with 6 MPI tasks x no OpenMP threads

MPI task timing breakdown:
Section |  min time  |  avg time  |  max time  |%varavg| %total
---------------------------------------------------------------
Pair    | 7.4417     | 7.7952     | 8.014      |   7.0 | 53.91
Neigh   | 4.6683     | 5.2109     | 5.4993     |  12.2 | 36.04
Comm    | 0.82525    | 1.2547     | 1.5911     |  27.7 |  8.68
Output  | 5.7936e-05 | 6.8665e-05 | 0.000103   |   0.0 |  0.00
Modify  | 0.14799    | 0.1561     | 0.16067    |   1.1 |  1.08
Other   |            | 0.04263    |            |       |  0.29

Nlocal:    3275.33 ave 3295 max 3260 min
Histogram: 2 1 0 0 1 0 0 0 0 2
Nghost:    6853 ave 6879 max 6826 min
Histogram: 2 0 0 0 0 1 0 2 0 1
Neighs:    217766 ave 221891 max 213362 min
Histogram: 1 0 0 0 1 3 0 0 0 1

Total # of neighbors = 1306597
Ave neighs/atom = 66.4867
Neighbor list builds = 495
Dangerous builds not checked
Setting up Verlet run ...
  Unit style    : metal
  Current step  : 1307168
  Time step     : 0.001
Per MPI rank memory allocation (min/avg/max) = 5.581 | 5.862 | 6.003 Mbytes
Step Temp Press TotEng PotEng Enthalpy 
 1307168    1477.3118    163.41795   -79799.782   -83552.288   -79761.219 
 1333340    1444.7835    1134.0737   -79893.974   -83563.855   -79626.939 
 1373340    1441.8739   -1407.4923   -79878.783   -83541.274   -80211.366 
Loop time of 2074.8 on 6 procs for 66172 steps with 19652 atoms

Performance: 2.756 ns/day, 8.710 hours/ns, 31.893 timesteps/s
98.5% CPU use with 6 MPI tasks x no OpenMP threads

MPI task timing breakdown:
Section |  min time  |  avg time  |  max time  |%varavg| %total
---------------------------------------------------------------
Pair    | 1115.9     | 1129.6     | 1142.3     |  26.6 | 54.45
Neigh   | 716.48     | 734.49     | 749.9      |  41.3 | 35.40
Comm    | 158.98     | 178.51     | 210.77     | 141.9 |  8.60
Output  | 0.036153   | 0.036166   | 0.036207   |   0.0 |  0.00
Modify  | 26.044     | 26.561     | 27.07      |   8.0 |  1.28
Other   |            | 5.556      |            |       |  0.27

Nlocal:    3275.33 ave 3294 max 3262 min
Histogram: 2 0 1 0 0 1 1 0 0 1
Nghost:    6876 ave 6905 max 6847 min
Histogram: 1 1 0 0 1 1 0 0 1 1
Neighs:    217469 ave 221661 max 212886 min
Histogram: 1 1 0 0 0 1 1 1 0 1

Total # of neighbors = 1304813
Ave neighs/atom = 66.3959
Neighbor list builds = 66172
Dangerous builds not checked
Setting up Verlet run ...
  Unit style    : metal
  Current step  : 1373340
  Time step     : 0.001
Per MPI rank memory allocation (min/avg/max) = 5.581 | 5.862 | 6.003 Mbytes
Step Temp Press TotEng PotEng Enthalpy 
 1373340    1441.8739   -1407.4923   -79878.783   -83541.274   -80211.366 
 1373835    1416.4524   -290.97364    -80044.61   -83642.528   -80113.143 
Loop time of 13.6005 on 6 procs for 495 steps with 19652 atoms

Performance: 3.145 ns/day, 7.632 hours/ns, 36.396 timesteps/s
99.9% CPU use with 6 MPI tasks x no OpenMP threads

MPI task timing breakdown:
Section |  min time  |  avg time  |  max time  |%varavg| %total
---------------------------------------------------------------
Pair    | 7.2626     | 7.3874     | 7.5306     |   3.2 | 54.32
Neigh   | 4.7775     | 5.1782     | 5.5074     |  11.8 | 38.07
Comm    | 0.58323    | 0.84598    | 1.1652     |  23.8 |  6.22
Output  | 5.0068e-05 | 5.8055e-05 | 7.7963e-05 |   0.0 |  0.00
Modify  | 0.1401     | 0.14902    | 0.15801    |   1.6 |  1.10
Other   |            | 0.03983    |            |       |  0.29

Nlocal:    3275.33 ave 3291 max 3253 min
Histogram: 1 0 0 0 0 2 0 2 0 1
Nghost:    6870 ave 6896 max 6852 min
Histogram: 1 0 1 2 1 0 0 0 0 1
Neighs:    218186 ave 221474 max 213818 min
Histogram: 2 0 0 0 0 1 0 0 2 1

Total # of neighbors = 1309119
Ave neighs/atom = 66.6151
Neighbor list builds = 495
Dangerous builds not checked
Setting up Verlet run ...
  Unit style    : metal
  Current step  : 1373835
  Time step     : 0.001
Per MPI rank memory allocation (min/avg/max) = 5.581 | 5.862 | 6.003 Mbytes
Step Temp Press TotEng PotEng Enthalpy 
 1373835    1416.4524   -290.97364    -80044.61   -83642.528   -80113.143 
 1400007    1397.7316    288.83191   -80142.753   -83693.118   -80074.794 
 1440007    1396.2181   -34.987569   -80178.691   -83725.212    -80186.93 
Loop time of 1961.82 on 6 procs for 66172 steps with 19652 atoms

Performance: 2.914 ns/day, 8.235 hours/ns, 33.730 timesteps/s
99.5% CPU use with 6 MPI tasks x no OpenMP threads

MPI task timing breakdown:
Section |  min time  |  avg time  |  max time  |%varavg| %total
---------------------------------------------------------------
Pair    | 1023.9     | 1046.4     | 1083.7     |  67.2 | 53.34
Neigh   | 724.03     | 737.91     | 747.33     |  26.2 | 37.61
Comm    | 120.34     | 151.38     | 170.67     | 159.0 |  7.72
Output  | 0.040691   | 0.040709   | 0.040758   |   0.0 |  0.00
Modify  | 20.156     | 20.662     | 21.09      |   7.4 |  1.05
Other   |            | 5.423      |            |       |  0.28

Nlocal:    3275.33 ave 3300 max 3260 min
Histogram: 1 1 1 1 0 0 1 0 0 1
Nghost:    6866.67 ave 6884 max 6835 min
Histogram: 1 0 0 1 0 0 1 0 0 3
Neighs:    218190 ave 221253 max 215432 min
Histogram: 1 1 0 1 1 0 0 0 1 1

Total # of neighbors = 1309140
Ave neighs/atom = 66.6161
Neighbor list builds = 66172
Dangerous builds not checked
Setting up Verlet run ...
  Unit style    : metal
  Current step  : 1440007
  Time step     : 0.001
Per MPI rank memory allocation (min/avg/max) = 5.581 | 5.862 | 6.004 Mbytes
Step Temp Press TotEng PotEng Enthalpy 
 1440007    1396.2181   -34.987569   -80178.691   -83725.212    -80186.93 
 1440502    1366.5479   -444.13927   -80283.178   -83754.334   -80387.649 
Loop time of 14.0257 on 6 procs for 495 steps with 19652 atoms

Performance: 3.049 ns/day, 7.871 hours/ns, 35.292 timesteps/s
99.8% CPU use with 6 MPI tasks x no OpenMP threads

MPI task timing breakdown:
Section |  min time  |  avg time  |  max time  |%varavg| %total
---------------------------------------------------------------
Pair    | 7.2792     | 7.4746     | 7.6967     |   5.2 | 53.29
Neigh   | 5.1253     | 5.446      | 5.6187     |   7.9 | 38.83
Comm    | 0.55044    | 0.91417    | 1.2282     |  23.1 |  6.52
Output  | 4.7922e-05 | 5.8611e-05 | 8.7976e-05 |   0.0 |  0.00
Modify  | 0.14113    | 0.15001    | 0.15651    |   1.4 |  1.07
Other   |            | 0.04081    |            |       |  0.29

Nlocal:    3275.33 ave 3302 max 3260 min
Histogram: 1 1 1 1 1 0 0 0 0 1
Nghost:    6877.17 ave 6898 max 6860 min
Histogram: 1 1 0 0 1 1 1 0 0 1
Neighs:    218476 ave 223523 max 215504 min
Histogram: 2 0 1 1 0 1 0 0 0 1

Total # of neighbors = 1310858
Ave neighs/atom = 66.7035
Neighbor list builds = 495
Dangerous builds not checked
Setting up Verlet run ...
  Unit style    : metal
  Current step  : 1440502
  Time step     : 0.001
Per MPI rank memory allocation (min/avg/max) = 5.581 | 5.862 | 6.004 Mbytes
Step Temp Press TotEng PotEng Enthalpy 
 1440502    1366.5479   -444.13927   -80283.178   -83754.334   -80387.649 
 1466674    1353.0071   -1092.2174   -80394.039     -83830.8   -80651.464 
 1506674    1354.0982   -682.56466   -80378.888    -83818.42   -80539.674 
Loop time of 1931.81 on 6 procs for 66172 steps with 19652 atoms

Performance: 2.960 ns/day, 8.109 hours/ns, 34.254 timesteps/s
99.5% CPU use with 6 MPI tasks x no OpenMP threads

MPI task timing breakdown:
Section |  min time  |  avg time  |  max time  |%varavg| %total
---------------------------------------------------------------
Pair    | 999.11     | 1017.7     | 1041.3     |  42.1 | 52.68
Neigh   | 759.69     | 762.94     | 766.53     |   8.9 | 39.49
Comm    | 98.844     | 120.29     | 137.33     | 121.3 |  6.23
Output  | 0.67549    | 0.67551    | 0.67556    |   0.0 |  0.03
Modify  | 24.551     | 24.922     | 25.164     |   5.0 |  1.29
Other   |            | 5.239      |            |       |  0.27

Nlocal:    3275.33 ave 3289 max 3252 min
Histogram: 1 1 0 0 0 0 0 1 0 3
Nghost:    6872.83 ave 6886 max 6855 min
Histogram: 1 0 1 0 1 0 0 1 0 2
Neighs:    218187 ave 222777 max 215454 min
Histogram: 2 1 1 0 0 0 0 0 1 1

Total # of neighbors = 1309120
Ave neighs/atom = 66.6151
Neighbor list builds = 66172
Dangerous builds not checked
Setting up Verlet run ...
  Unit style    : metal
  Current step  : 1506674
  Time step     : 0.001
Per MPI rank memory allocation (min/avg/max) = 5.581 | 5.862 | 6.004 Mbytes
Step Temp Press TotEng PotEng Enthalpy 
 1506674    1354.0982   -682.56466   -80378.888    -83818.42   -80539.674 
 1507169    1308.2447   -71.083799   -80593.655   -83916.716    -80610.35 
Loop time of 13.3769 on 6 procs for 495 steps with 19652 atoms

Performance: 3.197 ns/day, 7.507 hours/ns, 37.004 timesteps/s
99.9% CPU use with 6 MPI tasks x no OpenMP threads

MPI task timing breakdown:
Section |  min time  |  avg time  |  max time  |%varavg| %total
---------------------------------------------------------------
Pair    | 6.9203     | 7.2168     | 7.4927     |   7.8 | 53.95
Neigh   | 4.3366     | 5.0086     | 5.9362     |  22.3 | 37.44
Comm    | 0.32353    | 0.97627    | 1.3917     |  33.9 |  7.30
Output  | 5.1975e-05 | 6.1313e-05 | 9.3937e-05 |   0.0 |  0.00
Modify  | 0.12534    | 0.13895    | 0.15214    |   2.3 |  1.04
Other   |            | 0.03628    |            |       |  0.27

Nlocal:    3275.33 ave 3292 max 3259 min
Histogram: 1 1 0 0 0 2 0 1 0 1
Nghost:    6878.17 ave 6903 max 6860 min
Histogram: 1 1 0 1 1 1 0 0 0 1
Neighs:    218800 ave 223369 max 214973 min
Histogram: 1 1 0 1 1 0 0 1 0 1

Total # of neighbors = 1312803
Ave neighs/atom = 66.8025
Neighbor list builds = 495
Dangerous builds not checked
Setting up Verlet run ...
  Unit style    : metal
  Current step  : 1507169
  Time step     : 0.001
Per MPI rank memory allocation (min/avg/max) = 5.581 | 5.862 | 6.004 Mbytes
Step Temp Press TotEng PotEng Enthalpy 
 1507169    1308.2447   -71.083799   -80593.655   -83916.716    -80610.35 
 1533341    1313.5737   -941.10232   -80572.726   -83909.323   -80793.854 
 1573341    1299.6008   -412.49557    -80628.78   -83929.884   -80725.672 
Loop time of 1950.4 on 6 procs for 66172 steps with 19652 atoms

Performance: 2.931 ns/day, 8.187 hours/ns, 33.927 timesteps/s
99.4% CPU use with 6 MPI tasks x no OpenMP threads

MPI task timing breakdown:
Section |  min time  |  avg time  |  max time  |%varavg| %total
---------------------------------------------------------------
Pair    | 1007.1     | 1022.5     | 1038       |  35.8 | 52.43
Neigh   | 751.59     | 759.82     | 771.07     |  23.1 | 38.96
Comm    | 115.17     | 142.38     | 162.5      | 143.7 |  7.30
Output  | 0.11596    | 0.11597    | 0.11602    |   0.0 |  0.01
Modify  | 20.014     | 20.406     | 20.914     |   7.6 |  1.05
Other   |            | 5.165      |            |       |  0.26

Nlocal:    3275.33 ave 3284 max 3263 min
Histogram: 1 0 0 0 0 2 1 1 0 1
Nghost:    6871.83 ave 6909 max 6849 min
Histogram: 2 0 1 1 0 0 0 1 0 1
Neighs:    218789 ave 221971 max 216017 min
Histogram: 2 0 0 1 0 1 0 0 0 2

Total # of neighbors = 1312733
Ave neighs/atom = 66.799
Neighbor list builds = 66172
Dangerous builds not checked
Setting up Verlet run ...
  Unit style    : metal
  Current step  : 1573341
  Time step     : 0.001
Per MPI rank memory allocation (min/avg/max) = 5.581 | 5.862 | 6.004 Mbytes
Step Temp Press TotEng PotEng Enthalpy 
 1573341    1299.6008   -412.49557    -80628.78   -83929.884   -80725.672 
 1573836    1259.2305   -780.68001    -80842.52    -84041.08   -81025.749 
Loop time of 13.7206 on 6 procs for 495 steps with 19652 atoms

Performance: 3.117 ns/day, 7.700 hours/ns, 36.077 timesteps/s
99.9% CPU use with 6 MPI tasks x no OpenMP threads

MPI task timing breakdown:
Section |  min time  |  avg time  |  max time  |%varavg| %total
---------------------------------------------------------------
Pair    | 7.0948     | 7.2314     | 7.3237     |   2.8 | 52.70
Neigh   | 5.1887     | 5.4519     | 5.6995     |   8.5 | 39.74
Comm    | 0.55448    | 0.85163    | 1.0882     |  19.6 |  6.21
Output  | 6.9857e-05 | 7.4466e-05 | 8.7976e-05 |   0.0 |  0.00
Modify  | 0.13845    | 0.14695    | 0.15473    |   1.4 |  1.07
Other   |            | 0.03858    |            |       |  0.28

Nlocal:    3275.33 ave 3284 max 3258 min
Histogram: 1 0 0 0 0 0 2 1 0 2
Nghost:    6866.67 ave 6894 max 6827 min
Histogram: 1 0 0 0 0 2 1 0 1 1
Neighs:    218945 ave 222940 max 214447 min
Histogram: 1 0 1 0 1 1 0 0 0 2

Total # of neighbors = 1313670
Ave neighs/atom = 66.8466
Neighbor list builds = 495
Dangerous builds not checked
Setting up Verlet run ...
  Unit style    : metal
  Current step  : 1573836
  Time step     : 0.001
Per MPI rank memory allocation (min/avg/max) = 5.581 | 5.862 | 6.004 Mbytes
Step Temp Press TotEng PotEng Enthalpy 
 1573836    1259.2305   -780.68001    -80842.52    -84041.08   -81025.749 
 1600008    1248.3463    362.18666   -80919.827    -84090.74   -80834.993 
 1640008    1265.1824   -768.24922   -80851.246   -84064.925   -81031.712 
Loop time of 1928.2 on 6 procs for 66172 steps with 19652 atoms

Performance: 2.965 ns/day, 8.094 hours/ns, 34.318 timesteps/s
99.6% CPU use with 6 MPI tasks x no OpenMP threads

MPI task timing breakdown:
Section |  min time  |  avg time  |  max time  |%varavg| %total
---------------------------------------------------------------
Pair    | 1003       | 1016.1     | 1028.3     |  27.8 | 52.70
Neigh   | 759.74     | 766.59     | 775.33     |  19.0 | 39.76
Comm    | 107.32     | 118.91     | 133.48     |  96.7 |  6.17
Output  | 0.038856   | 0.038873   | 0.038937   |   0.0 |  0.00
Modify  | 20.854     | 21.398     | 21.732     |   6.9 |  1.11
Other   |            | 5.112      |            |       |  0.27

Nlocal:    3275.33 ave 3314 max 3253 min
Histogram: 1 0 3 0 1 0 0 0 0 1
Nghost:    6897 ave 6938 max 6863 min
Histogram: 1 0 0 1 3 0 0 0 0 1
Neighs:    218735 ave 222762 max 214147 min
Histogram: 2 0 0 0 1 0 0 1 0 2

Total # of neighbors = 1312409
Ave neighs/atom = 66.7825
Neighbor list builds = 66172
Dangerous builds not checked
Setting up Verlet run ...
  Unit style    : metal
  Current step  : 1640008
  Time step     : 0.001
Per MPI rank memory allocation (min/avg/max) = 5.581 | 5.862 | 6.004 Mbytes
Step Temp Press TotEng PotEng Enthalpy 
 1640008    1265.1824   -768.24922   -80851.246   -84064.925   -81031.712 
 1640503    1220.0738   -1084.3211   -81109.792    -84208.89   -81363.921 
Loop time of 14.053 on 6 procs for 495 steps with 19652 atoms

Performance: 3.043 ns/day, 7.886 hours/ns, 35.224 timesteps/s
100.0% CPU use with 6 MPI tasks x no OpenMP threads

MPI task timing breakdown:
Section |  min time  |  avg time  |  max time  |%varavg| %total
---------------------------------------------------------------
Pair    | 7.2174     | 7.3542     | 7.5339     |   4.4 | 52.33
Neigh   | 5.2179     | 5.8089     | 6.2446     |  13.9 | 41.34
Comm    | 0.3884     | 0.6958     | 1.1165     |  29.1 |  4.95
Output  | 4.8876e-05 | 6.1075e-05 | 0.00010204 |   0.0 |  0.00
Modify  | 0.14294    | 0.15295    | 0.16157    |   1.4 |  1.09
Other   |            | 0.04102    |            |       |  0.29

Nlocal:    3275.33 ave 3291 max 3256 min
Histogram: 1 0 1 0 1 0 0 1 1 1
Nghost:    6892.83 ave 6914 max 6858 min
Histogram: 1 0 1 0 0 0 1 0 1 2
Neighs:    219290 ave 222912 max 214042 min
Histogram: 1 0 0 1 0 1 1 0 0 2

Total # of neighbors = 1315738
Ave neighs/atom = 66.9519
Neighbor list builds = 495
Dangerous builds not checked
Setting up Verlet run ...
  Unit style    : metal
  Current step  : 1640503
  Time step     : 0.001
Per MPI rank memory allocation (min/avg/max) = 5.581 | 5.862 | 6.004 Mbytes
Step Temp Press TotEng PotEng Enthalpy 
 1640503    1220.0738   -1084.3211   -81109.792    -84208.89   -81363.921 
 1666675    1205.9323    -869.2718   -81178.714   -84241.892   -81382.202 
 1706675    1203.4512    532.69014   -81146.641   -84203.517   -81022.134 
Loop time of 1933.47 on 6 procs for 66172 steps with 19652 atoms

Performance: 2.957 ns/day, 8.116 hours/ns, 34.224 timesteps/s
99.5% CPU use with 6 MPI tasks x no OpenMP threads

MPI task timing breakdown:
Section |  min time  |  avg time  |  max time  |%varavg| %total
---------------------------------------------------------------
Pair    | 1002.6     | 1023.8     | 1034.9     |  34.0 | 52.95
Neigh   | 729.11     | 763.09     | 782.9      |  63.3 | 39.47
Comm    | 104.05     | 119.2      | 146.15     | 125.4 |  6.16
Output  | 0.038343   | 0.038358   | 0.038405   |   0.0 |  0.00
Modify  | 21.405     | 22.1       | 22.517     |   7.3 |  1.14
Other   |            | 5.288      |            |       |  0.27

Nlocal:    3275.33 ave 3288 max 3264 min
Histogram: 1 0 1 1 0 1 0 1 0 1
Nghost:    6889.33 ave 6920 max 6847 min
Histogram: 1 1 0 0 0 0 0 2 1 1
Neighs:    219896 ave 223833 max 216050 min
Histogram: 2 0 0 1 0 0 1 0 0 2

Total # of neighbors = 1319377
Ave neighs/atom = 67.137
Neighbor list builds = 66172
Dangerous builds not checked
Setting up Verlet run ...
  Unit style    : metal
  Current step  : 1706675
  Time step     : 0.001
Per MPI rank memory allocation (min/avg/max) = 5.581 | 5.862 | 6.004 Mbytes
Step Temp Press TotEng PotEng Enthalpy 
 1706675    1203.4512    532.69014   -81146.641   -84203.517   -81022.134 
 1707170    1164.2597    410.87988   -81371.844    -84329.17   -81275.863 
Loop time of 13.9641 on 6 procs for 495 steps with 19652 atoms

Performance: 3.063 ns/day, 7.836 hours/ns, 35.448 timesteps/s
99.9% CPU use with 6 MPI tasks x no OpenMP threads

MPI task timing breakdown:
Section |  min time  |  avg time  |  max time  |%varavg| %total
---------------------------------------------------------------
Pair    | 6.9918     | 7.2912     | 7.7067     |   7.9 | 52.21
Neigh   | 5.1433     | 5.821      | 6.0998     |  13.0 | 41.69
Comm    | 0.51404    | 0.65509    | 0.93134    |  17.0 |  4.69
Output  | 4.8161e-05 | 5.7578e-05 | 9.6083e-05 |   0.0 |  0.00
Modify  | 0.13857    | 0.15493    | 0.16179    |   2.0 |  1.11
Other   |            | 0.04195    |            |       |  0.30

Nlocal:    3275.33 ave 3284 max 3252 min
Histogram: 1 0 0 0 0 1 0 0 0 4
Nghost:    6901.33 ave 6918 max 6890 min
Histogram: 1 2 1 0 0 0 0 0 1 1
[...]
Loop time of 19.1192 on 6 procs for 495 steps with 19652 atoms

Performance: 2.237 ns/day, 10.729 hours/ns, 25.890 timesteps/s
95.0% CPU use with 6 MPI tasks x no OpenMP threads

MPI task timing breakdown:
Section |  min time  |  avg time  |  max time  |%varavg| %total
---------------------------------------------------------------
Pair    | 9.8144     | 10.216     | 10.658     |  10.3 | 53.43
Neigh   | 4.2562     | 6.0912     | 6.7679     |  34.7 | 31.86
Comm    | 1.6778     | 2.3191     | 3.8439     |  46.6 | 12.13
Output  | 5.4121e-05 | 6.3539e-05 | 0.00010204 |   0.0 |  0.00
Modify  | 0.39785    | 0.4452     | 0.46817    |   3.6 |  2.33
Other   |            | 0.0481     |            |       |  0.25

Nlocal:    3275.33 ave 3286 max 3266 min
Histogram: 1 0 1 0 1 0 2 0 0 1
Nghost:    6946.83 ave 6964 max 6938 min
Histogram: 2 2 0 0 0 0 1 0 0 1
Neighs:    222786 ave 226251 max 218994 min
Histogram: 1 1 0 0 1 1 0 0 0 2

Total # of neighbors = 1336713
Ave neighs/atom = 68.0192
Neighbor list builds = 495
Dangerous builds not checked
Setting up Verlet run ...
  Unit style    : metal
  Current step  : 2707175
  Time step     : 0.001
Per MPI rank memory allocation (min/avg/max) = 5.581 | 5.863 | 6.004 Mbytes
Step Temp Press TotEng PotEng Enthalpy 
 2707175    424.28867      217.701   -86947.255   -88024.987   -86896.993 
 2733347    398.41912    115.79456   -87161.008   -88173.029   -87134.281 
 2773347    402.34055   -554.52436   -87167.162   -88189.144   -87295.242 
Loop time of 2244.28 on 6 procs for 66172 steps with 19652 atoms

Performance: 2.547 ns/day, 9.421 hours/ns, 29.485 timesteps/s
97.6% CPU use with 6 MPI tasks x no OpenMP threads

MPI task timing breakdown:
Section |  min time  |  avg time  |  max time  |%varavg| %total
---------------------------------------------------------------
Pair    | 1168.9     | 1192       | 1214.1     |  40.4 | 53.11
Neigh   | 721.3      | 757.57     | 788.2      |  96.8 | 33.76
Comm    | 220.57     | 247.21     | 292.62     | 148.5 | 11.01
Output  | 1.4589     | 1.4589     | 1.459      |   0.0 |  0.07
Modify  | 38.523     | 40.026     | 41.595     |  18.7 |  1.78
Other   |            | 5.979      |            |       |  0.27

Nlocal:    3275.33 ave 3286 max 3261 min
Histogram: 1 0 1 0 0 0 2 0 0 2
Nghost:    6939 ave 6957 max 6915 min
Histogram: 1 0 1 1 0 0 0 0 1 2
Neighs:    222575 ave 226176 max 219779 min
Histogram: 1 1 0 1 1 0 0 1 0 1

Total # of neighbors = 1335451
Ave neighs/atom = 67.955
Neighbor list builds = 66172
Dangerous builds not checked
Setting up Verlet run ...
  Unit style    : metal
  Current step  : 2773347
  Time step     : 0.001
Per MPI rank memory allocation (min/avg/max) = 5.581 | 5.863 | 6.004 Mbytes
Step Temp Press TotEng PotEng Enthalpy 
 2773347    402.34055   -554.52436   -87167.162   -88189.144   -87295.242 
 2773842    372.28656   -311.74489     -87329.5   -88275.141   -87401.413 
Loop time of 16.4484 on 6 procs for 495 steps with 19652 atoms

Performance: 2.600 ns/day, 9.230 hours/ns, 30.094 timesteps/s
97.3% CPU use with 6 MPI tasks x no OpenMP threads

MPI task timing breakdown:
Section |  min time  |  avg time  |  max time  |%varavg| %total
---------------------------------------------------------------
Pair    | 8.3755     | 8.6898     | 9.0283     |   7.6 | 52.83
Neigh   | 4.1225     | 5.3319     | 6.8927     |  43.0 | 32.42
Comm    | 0.70362    | 1.9941     | 2.9296     |  58.4 | 12.12
Output  | 4.9114e-05 | 5.8333e-05 | 9.3937e-05 |   0.0 |  0.00
Modify  | 0.33806    | 0.39133    | 0.42197    |   4.7 |  2.38
Other   |            | 0.04109    |            |       |  0.25

Nlocal:    3275.33 ave 3294 max 3264 min
Histogram: 2 1 0 0 1 0 1 0 0 1
Nghost:    6950.33 ave 6973 max 6924 min
Histogram: 1 0 1 1 0 0 0 1 1 1
Neighs:    222824 ave 226847 max 219038 min
Histogram: 1 1 0 0 1 0 2 0 0 1

Total # of neighbors = 1336946
Ave neighs/atom = 68.031
Neighbor list builds = 495
Dangerous builds not checked
Setting up Verlet run ...
  Unit style    : metal
  Current step  : 2773842
  Time step     : 0.001
Per MPI rank memory allocation (min/avg/max) = 5.581 | 5.863 | 6.004 Mbytes
Step Temp Press TotEng PotEng Enthalpy 
 2773842    372.28656   -311.74489     -87329.5   -88275.141   -87401.413 
 2800014    350.19598   -69.761489   -87503.013   -88392.542   -87519.083 
 2840014    348.15552    188.36636   -87529.258   -88413.604   -87485.851 
Loop time of 1967.14 on 6 procs for 66172 steps with 19652 atoms

Performance: 2.906 ns/day, 8.258 hours/ns, 33.639 timesteps/s
99.3% CPU use with 6 MPI tasks x no OpenMP threads

MPI task timing breakdown:
Section |  min time  |  avg time  |  max time  |%varavg| %total
---------------------------------------------------------------
Pair    | 1028.1     | 1047.9     | 1069.9     |  44.9 | 53.27
Neigh   | 694.23     | 708.7      | 736.69     |  53.7 | 36.03
Comm    | 158.84     | 181.44     | 207.16     | 132.6 |  9.22
Output  | 0.032632   | 0.032654   | 0.032721   |   0.0 |  0.00
Modify  | 22.952     | 23.619     | 24.36      |  10.4 |  1.20
Other   |            | 5.498      |            |       |  0.28

Nlocal:    3275.33 ave 3292 max 3263 min
Histogram: 1 1 1 0 1 0 0 1 0 1
Nghost:    6947.5 ave 6981 max 6901 min
Histogram: 1 0 0 0 1 1 0 2 0 1
Neighs:    223035 ave 227493 max 219716 min
Histogram: 1 0 2 1 0 0 1 0 0 1

Total # of neighbors = 1338210
Ave neighs/atom = 68.0954
Neighbor list builds = 66172
Dangerous builds not checked
Setting up Verlet run ...
  Unit style    : metal
  Current step  : 2840014
  Time step     : 0.001
Per MPI rank memory allocation (min/avg/max) = 5.581 | 5.863 | 6.004 Mbytes
Step Temp Press TotEng PotEng Enthalpy 
 2840014    348.15552    188.36636   -87529.258   -88413.604   -87485.851 
 2840509    321.97391   -118.28829   -87667.832   -88485.676    -87695.08 
Loop time of 13.7479 on 6 procs for 495 steps with 19652 atoms

Performance: 3.111 ns/day, 7.715 hours/ns, 36.005 timesteps/s
99.8% CPU use with 6 MPI tasks x no OpenMP threads

MPI task timing breakdown:
Section |  min time  |  avg time  |  max time  |%varavg| %total
---------------------------------------------------------------
Pair    | 7.1501     | 7.3518     | 7.7256     |   7.4 | 53.48
Neigh   | 4.2967     | 5.1255     | 5.9263     |  23.9 | 37.28
Comm    | 0.46087    | 1.0814     | 1.5541     |  35.3 |  7.87
Output  | 5.0068e-05 | 6.2227e-05 | 0.00010014 |   0.0 |  0.00
Modify  | 0.13333    | 0.15059    | 0.16778    |   2.8 |  1.10
Other   |            | 0.03856    |            |       |  0.28

Nlocal:    3275.33 ave 3287 max 3268 min
Histogram: 3 0 0 0 0 1 0 1 0 1
Nghost:    6946.83 ave 6965 max 6929 min
Histogram: 1 0 0 0 2 2 0 0 0 1
Neighs:    223073 ave 227203 max 219636 min
Histogram: 2 0 0 1 1 0 0 0 0 2

Total # of neighbors = 1338438
Ave neighs/atom = 68.107
Neighbor list builds = 495
Dangerous builds not checked
Setting up Verlet run ...
  Unit style    : metal
  Current step  : 2840509
  Time step     : 0.001
Per MPI rank memory allocation (min/avg/max) = 5.581 | 5.863 | 6.004 Mbytes
Step Temp Press TotEng PotEng Enthalpy 
 2840509    321.97391   -118.28829   -87667.832   -88485.676    -87695.08 
 2866681     298.8874   -319.51633   -87810.051   -88569.252    -87883.65 
 2906681    302.44012    828.92302   -87802.305   -88570.531   -87611.754 
Loop time of 2049.84 on 6 procs for 66172 steps with 19652 atoms

Performance: 2.789 ns/day, 8.605 hours/ns, 32.282 timesteps/s
98.2% CPU use with 6 MPI tasks x no OpenMP threads

MPI task timing breakdown:
Section |  min time  |  avg time  |  max time  |%varavg| %total
---------------------------------------------------------------
Pair    | 1067.6     | 1091.4     | 1112.4     |  46.4 | 53.24
Neigh   | 681.74     | 726.12     | 759.32     |  89.3 | 35.42
Comm    | 168.24     | 195.1      | 220.15     | 111.3 |  9.52
Output  | 0.58407    | 0.58409    | 0.58415    |   0.0 |  0.03
Modify  | 29.53      | 31.217     | 32.446     |  18.6 |  1.52
Other   |            | 5.441      |            |       |  0.27

Nlocal:    3275.33 ave 3294 max 3257 min
Histogram: 1 0 0 2 1 0 0 1 0 1
Nghost:    6954 ave 6974 max 6935 min
Histogram: 1 0 0 1 1 1 1 0 0 1
Neighs:    223450 ave 227508 max 219179 min
Histogram: 1 0 0 1 2 0 0 1 0 1

Total # of neighbors = 1340700
Ave neighs/atom = 68.2221
Neighbor list builds = 66172
Dangerous builds not checked
Setting up Verlet run ...
  Unit style    : metal
  Current step  : 2906681
  Time step     : 0.001
Per MPI rank memory allocation (min/avg/max) = 5.581 | 5.863 | 6.004 Mbytes
Step Temp Press TotEng PotEng Enthalpy 
 2906681    302.44012    828.92302   -87802.305   -88570.531   -87611.754 
 2907176    274.10451   -358.77367   -87956.823   -88653.073   -88039.329 
Loop time of 15.7163 on 6 procs for 495 steps with 19652 atoms

Performance: 2.721 ns/day, 8.819 hours/ns, 31.496 timesteps/s
97.8% CPU use with 6 MPI tasks x no OpenMP threads

MPI task timing breakdown:
Section |  min time  |  avg time  |  max time  |%varavg| %total
---------------------------------------------------------------
Pair    | 8.2087     | 8.5236     | 8.9218     |   9.7 | 54.23
Neigh   | 4.0726     | 5.493      | 6.7352     |  40.9 | 34.95
Comm    | 0.53597    | 1.4877     | 2.5555     |  57.5 |  9.47
Output  | 4.9114e-05 | 5.7697e-05 | 9.3937e-05 |   0.0 |  0.00
Modify  | 0.14145    | 0.16655    | 0.1878     |   4.0 |  1.06
Other   |            | 0.04535    |            |       |  0.29

Nlocal:    3275.33 ave 3281 max 3261 min
Histogram: 1 0 0 0 0 0 0 2 0 3
Nghost:    6947.83 ave 6971 max 6931 min
Histogram: 1 1 1 0 1 0 0 1 0 1
Neighs:    223420 ave 226741 max 219547 min
Histogram: 1 0 1 0 1 1 0 0 0 2

Total # of neighbors = 1340522
Ave neighs/atom = 68.213
Neighbor list builds = 495
Dangerous builds not checked
Setting up Verlet run ...
  Unit style    : metal
  Current step  : 2907176
  Time step     : 0.001
Per MPI rank memory allocation (min/avg/max) = 5.581 | 5.863 | 6.004 Mbytes
Step Temp Press TotEng PotEng Enthalpy 
 2907176    274.10451   -358.77367   -87956.823   -88653.073   -88039.329 
 2933348    249.48157   -35.691762   -88100.746   -88734.452   -88108.949 
 2973348     248.6361    167.95398   -88107.039   -88738.597   -88068.437 
Loop time of 2102.75 on 6 procs for 66172 steps with 19652 atoms

Performance: 2.719 ns/day, 8.827 hours/ns, 31.469 timesteps/s
97.5% CPU use with 6 MPI tasks x no OpenMP threads

MPI task timing breakdown:
Section |  min time  |  avg time  |  max time  |%varavg| %total
---------------------------------------------------------------
Pair    | 1086.7     | 1114.7     | 1145       |  51.1 | 53.01
Neigh   | 663.6      | 729.74     | 777.46     | 173.7 | 34.70
Comm    | 161.37     | 209.69     | 268.69     | 249.4 |  9.97
Output  | 0.037672   | 0.037694   | 0.037759   |   0.0 |  0.00
Modify  | 40.974     | 42.98      | 44.859     |  19.4 |  2.04
Other   |            | 5.605      |            |       |  0.27

Nlocal:    3275.33 ave 3295 max 3261 min
Histogram: 3 0 0 0 0 0 1 0 1 1
Nghost:    6940.5 ave 6978 max 6920 min
Histogram: 1 2 1 0 0 0 1 0 0 1
Neighs:    223534 ave 227887 max 220013 min
Histogram: 1 1 1 0 0 0 2 0 0 1

Total # of neighbors = 1341204
Ave neighs/atom = 68.2477
Neighbor list builds = 66172
Dangerous builds not checked
Setting up Verlet run ...
  Unit style    : metal
  Current step  : 2973348
  Time step     : 0.001
Per MPI rank memory allocation (min/avg/max) = 5.581 | 5.863 | 6.004 Mbytes
Step Temp Press TotEng PotEng Enthalpy 
 2973348     248.6361    167.95398   -88107.039   -88738.597   -88068.437 
 2973843    224.47856    358.93308   -88238.222   -88808.418   -88155.812 
Loop time of 13.5097 on 6 procs for 495 steps with 19652 atoms

Performance: 3.166 ns/day, 7.581 hours/ns, 36.640 timesteps/s
100.0% CPU use with 6 MPI tasks x no OpenMP threads

MPI task timing breakdown:
Section |  min time  |  avg time  |  max time  |%varavg| %total
---------------------------------------------------------------
Pair    | 6.7893     | 7.1943     | 7.6878     |  12.0 | 53.25
Neigh   | 4.097      | 5.2552     | 5.9984     |  31.0 | 38.90
Comm    | 0.44718    | 0.87275    | 1.5588     |  44.4 |  6.46
Output  | 5.1975e-05 | 6.4373e-05 | 0.00010395 |   0.0 |  0.00
Modify  | 0.1298     | 0.14671    | 0.16069    |   3.0 |  1.09
Other   |            | 0.04067    |            |       |  0.30

Nlocal:    3275.33 ave 3289 max 3251 min
Histogram: 1 0 0 0 1 0 0 1 2 1
Nghost:    6949 ave 6979 max 6930 min
Histogram: 1 1 1 1 0 0 1 0 0 1
Neighs:    223753 ave 227819 max 220727 min
Histogram: 1 2 0 0 1 0 0 1 0 1

Total # of neighbors = 1342517
Ave neighs/atom = 68.3145
Neighbor list builds = 495
Dangerous builds not checked
Setting up Verlet run ...
  Unit style    : metal
  Current step  : 2973843
  Time step     : 0.001
Per MPI rank memory allocation (min/avg/max) = 5.581 | 5.863 | 6.004 Mbytes
Step Temp Press TotEng PotEng Enthalpy 
 2973843    224.47856    358.93308   -88238.222   -88808.418   -88155.812 
 3000015    199.02706    165.40254    -88380.22   -88885.767   -88342.274 
 3040015    201.43772   -423.12412   -88372.997   -88884.667   -88470.176 
Loop time of 2283.58 on 6 procs for 66172 steps with 19652 atoms

Performance: 2.504 ns/day, 9.586 hours/ns, 28.977 timesteps/s
95.6% CPU use with 6 MPI tasks x no OpenMP threads

MPI task timing breakdown:
Section |  min time  |  avg time  |  max time  |%varavg| %total
---------------------------------------------------------------
Pair    | 1187.6     | 1206.8     | 1224.3     |  32.9 | 52.85
Neigh   | 694.23     | 736.97     | 785.81     | 119.1 | 32.27
Comm    | 244.84     | 275.03     | 319.87     | 154.8 | 12.04
Output  | 0.046809   | 0.046828   | 0.046886   |   0.0 |  0.00
Modify  | 57.037     | 59.014     | 59.949     |  12.5 |  2.58
Other   |            | 5.673      |            |       |  0.25

Nlocal:    3275.33 ave 3289 max 3262 min
Histogram: 2 0 0 1 0 1 0 0 0 2
Nghost:    6958.5 ave 6984 max 6938 min
Histogram: 1 1 1 0 0 1 0 0 1 1
Neighs:    223622 ave 227270 max 219867 min
Histogram: 1 0 0 2 0 0 1 1 0 1

Total # of neighbors = 1341733
Ave neighs/atom = 68.2746
Neighbor list builds = 66172
Dangerous builds not checked
Setting up Verlet run ...
  Unit style    : metal
  Current step  : 3040015
  Time step     : 0.001
Per MPI rank memory allocation (min/avg/max) = 5.581 | 5.863 | 6.004 Mbytes
Step Temp Press TotEng PotEng Enthalpy 
 3040015    201.43772   -423.12412   -88372.997   -88884.667   -88470.176 
 3040510    176.30975    519.56458    -88504.59   -88952.433   -88385.491 
Loop time of 16.0584 on 6 procs for 495 steps with 19652 atoms

Performance: 2.663 ns/day, 9.011 hours/ns, 30.825 timesteps/s
97.3% CPU use with 6 MPI tasks x no OpenMP threads

MPI task timing breakdown:
Section |  min time  |  avg time  |  max time  |%varavg| %total
---------------------------------------------------------------
Pair    | 8.1748     | 8.3995     | 8.9687     |   9.2 | 52.31
Neigh   | 4.0165     | 5.7715     | 6.2397     |  33.1 | 35.94
Comm    | 1.0404     | 1.4744     | 2.7004     |  47.3 |  9.18
Output  | 6.6042e-05 | 7.7526e-05 | 0.00011396 |   0.0 |  0.00
Modify  | 0.34053    | 0.36912    | 0.38935    |   3.2 |  2.30
Other   |            | 0.04383    |            |       |  0.27

Nlocal:    3275.33 ave 3289 max 3257 min
Histogram: 1 0 0 0 2 0 1 0 0 2
Nghost:    6952.33 ave 6980 max 6934 min
Histogram: 2 0 0 1 1 1 0 0 0 1
Neighs:    224049 ave 228155 max 220808 min
Histogram: 1 2 0 0 0 1 0 1 0 1

Total # of neighbors = 1344293
Ave neighs/atom = 68.4049
Neighbor list builds = 495
Dangerous builds not checked
Setting up Verlet run ...
  Unit style    : metal
  Current step  : 3040510
  Time step     : 0.001
Per MPI rank memory allocation (min/avg/max) = 5.581 | 5.863 | 6.004 Mbytes
Step Temp Press TotEng PotEng Enthalpy 
 3040510    176.30975    519.56458    -88504.59   -88952.433   -88385.491 
 3066682    149.94973    369.36783     -88646.2   -89027.086   -88561.568 
 3106682     150.9186    141.47193    -88642.22   -89025.567   -88609.801 
Loop time of 1956.86 on 6 procs for 66172 steps with 19652 atoms

Performance: 2.922 ns/day, 8.215 hours/ns, 33.815 timesteps/s
98.3% CPU use with 6 MPI tasks x no OpenMP threads

MPI task timing breakdown:
Section |  min time  |  avg time  |  max time  |%varavg| %total
---------------------------------------------------------------
Pair    | 1020       | 1028.3     | 1038.1     |  21.5 | 52.55
Neigh   | 708.38     | 719.6      | 734.23     |  35.9 | 36.77
Comm    | 151.73     | 172.79     | 185.66     |  84.8 |  8.83
Output  | 0.041333   | 0.04135    | 0.041418   |   0.0 |  0.00
Modify  | 29.998     | 30.605     | 31.054     |   7.6 |  1.56
Other   |            | 5.475      |            |       |  0.28

Nlocal:    3275.33 ave 3288 max 3260 min
Histogram: 1 0 1 0 1 0 0 1 1 1
Nghost:    6957.17 ave 6998 max 6938 min
Histogram: 2 1 0 2 0 0 0 0 0 1
Neighs:    224101 ave 228274 max 221024 min
Histogram: 1 1 1 0 1 0 0 1 0 1

Total # of neighbors = 1344605
Ave neighs/atom = 68.4208
Neighbor list builds = 66172
Dangerous builds not checked
Setting up Verlet run ...
  Unit style    : metal
  Current step  : 3106682
  Time step     : 0.001
Per MPI rank memory allocation (min/avg/max) = 5.581 | 5.863 | 6.004 Mbytes
Step Temp Press TotEng PotEng Enthalpy 
 3106682     150.9186    141.47193    -88642.22   -89025.567   -88609.801 
 3107177    125.49553   -233.81585   -88764.748   -89083.519   -88818.303 
Loop time of 13.1876 on 6 procs for 495 steps with 19652 atoms

Performance: 3.243 ns/day, 7.400 hours/ns, 37.535 timesteps/s
100.0% CPU use with 6 MPI tasks x no OpenMP threads

MPI task timing breakdown:
Section |  min time  |  avg time  |  max time  |%varavg| %total
---------------------------------------------------------------
Pair    | 6.8534     | 7.0835     | 7.2182     |   5.2 | 53.71
Neigh   | 4.4276     | 4.7916     | 5.2808     |  12.0 | 36.33
Comm    | 0.86886    | 1.1345     | 1.3702     |  15.7 |  8.60
Output  | 4.7207e-05 | 5.8889e-05 | 9.203e-05  |   0.0 |  0.00
Modify  | 0.13192    | 0.13771    | 0.14583    |   1.2 |  1.04
Other   |            | 0.04019    |            |       |  0.30

Nlocal:    3275.33 ave 3284 max 3259 min
Histogram: 1 0 0 0 1 0 1 0 0 3
Nghost:    6965.5 ave 6994 max 6956 min
Histogram: 3 1 0 1 0 0 0 0 0 1
Neighs:    224218 ave 227928 max 221074 min
Histogram: 1 1 1 0 0 1 0 0 1 1

Total # of neighbors = 1345306
Ave neighs/atom = 68.4564
Neighbor list builds = 495
Dangerous builds not checked
Setting up Verlet run ...
  Unit style    : metal
  Current step  : 3107177
  Time step     : 0.001
Per MPI rank memory allocation (min/avg/max) = 5.581 | 5.863 | 6.004 Mbytes
Step Temp Press TotEng PotEng Enthalpy 
 3107177    125.49553   -233.81585   -88764.748   -89083.519   -88818.303 
 3133349     100.1396   -106.65204   -88909.264   -89163.627   -88933.676 
 3173349    99.461407   -118.67875    -88911.03   -89163.671   -88938.194 
Loop time of 2450.04 on 6 procs for 66172 steps with 19652 atoms

Performance: 2.334 ns/day, 10.285 hours/ns, 27.009 timesteps/s
93.2% CPU use with 6 MPI tasks x no OpenMP threads

MPI task timing breakdown:
Section |  min time  |  avg time  |  max time  |%varavg| %total
---------------------------------------------------------------
Pair    | 1282.7     | 1297.1     | 1307.9     |  23.9 | 52.94
Neigh   | 705.58     | 738.3      | 762.61     |  64.5 | 30.13
Comm    | 313.75     | 332.44     | 355        |  88.4 | 13.57
Output  | 0.038605   | 0.038622   | 0.038684   |   0.0 |  0.00
Modify  | 74.661     | 76.182     | 77.295     |  11.2 |  3.11
Other   |            | 6.01       |            |       |  0.25

Nlocal:    3275.33 ave 3284 max 3263 min
Histogram: 1 0 1 0 0 1 0 1 0 2
Nghost:    6973 ave 6984 max 6957 min
Histogram: 1 0 1 0 1 0 0 0 1 2
Neighs:    224417 ave 228309 max 221351 min
Histogram: 2 0 1 0 0 1 0 0 1 1

Total # of neighbors = 1346502
Ave neighs/atom = 68.5173
Neighbor list builds = 66172
Dangerous builds not checked
Total wall time: 28:09:38
