LAMMPS (12 Dec 2018)
Lattice spacing in x,y,z = 4 4 4
Created orthogonal box = (0 0 0) to (68 68 68)
  1 by 1 by 1 MPI processor grid
Created 19652 atoms
  Time spent = 0.00377607 secs
Setting atom values ...
  206 settings made for type/fraction
Neighbor list info ...
  update every 1 steps, delay 0 steps, check no
  max neighbors/atom: 2000, page size: 100000
  master list distance cutoff = 8.5
  ghost atom cutoff = 8.5
  binsize = 4.25, bins = 16 16 16
  1 neighbor lists, perpetual/occasional/extra = 1 0 0
  (1) pair eam/alloy, perpetual
      attributes: half, newton on
      pair build: half/bin/atomonly/newton
      stencil: half/bin/3d/newton
      bin: standard
Setting up Verlet run ...
  Unit style    : metal
  Current step  : 0
  Time step     : 0.001
Per MPI rank memory allocation (min/avg/max) = 18.19 | 18.19 | 18.19 Mbytes
Step Temp Press TotEng PotEng Enthalpy 
       0          300   -182490.73   -62801.484   -63563.511   -98615.843 
    1000    169.73093   -169333.67   -62801.471   -63232.603   -96033.717 
Loop time of 158.643 on 1 procs for 1000 steps with 19652 atoms

Performance: 0.545 ns/day, 44.067 hours/ns, 6.303 timesteps/s
99.3% CPU use with 1 MPI tasks x no OpenMP threads

MPI task timing breakdown:
Section |  min time  |  avg time  |  max time  |%varavg| %total
---------------------------------------------------------------
Pair    | 90.831     | 90.831     | 90.831     |   0.0 | 57.26
Neigh   | 65.69      | 65.69      | 65.69      |   0.0 | 41.41
Comm    | 1.286      | 1.286      | 1.286      |   0.0 |  0.81
Output  | 0.00019503 | 0.00019503 | 0.00019503 |   0.0 |  0.00
Modify  | 0.43683    | 0.43683    | 0.43683    |   0.0 |  0.28
Other   |            | 0.3988     |            |       |  0.25

Nlocal:    19652 ave 19652 max 19652 min
Histogram: 1 0 0 0 0 0 0 0 0 0
Nghost:    20073 ave 20073 max 20073 min
Histogram: 1 0 0 0 0 0 0 0 0 0
Neighs:    1.56596e+06 ave 1.56596e+06 max 1.56596e+06 min
Histogram: 1 0 0 0 0 0 0 0 0 0

Total # of neighbors = 1565959
Ave neighs/atom = 79.6845
Neighbor list builds = 1000
Dangerous builds not checked
Setting up Verlet run ...
  Unit style    : metal
  Current step  : 1000
  Time step     : 0.001
Per MPI rank memory allocation (min/avg/max) = 18.19 | 18.19 | 18.19 Mbytes
Step Temp Press TotEng PotEng Enthalpy 
    1000    169.73093   -169333.67   -62801.471   -63232.603   -96033.717 
    2000    297.96972   -209.05375   -68152.581   -68909.451   -68184.074 
Loop time of 197.815 on 1 procs for 1000 steps with 19652 atoms

Performance: 0.437 ns/day, 54.949 hours/ns, 5.055 timesteps/s
99.8% CPU use with 1 MPI tasks x no OpenMP threads

MPI task timing breakdown:
Section |  min time  |  avg time  |  max time  |%varavg| %total
---------------------------------------------------------------
Pair    | 106.24     | 106.24     | 106.24     |   0.0 | 53.71
Neigh   | 88.538     | 88.538     | 88.538     |   0.0 | 44.76
Comm    | 1.1875     | 1.1875     | 1.1875     |   0.0 |  0.60
Output  | 0.00015402 | 0.00015402 | 0.00015402 |   0.0 |  0.00
Modify  | 1.4507     | 1.4507     | 1.4507     |   0.0 |  0.73
Other   |            | 0.3979     |            |       |  0.20

Nlocal:    19652 ave 19652 max 19652 min
Histogram: 1 0 0 0 0 0 0 0 0 0
Nghost:    20102 ave 20102 max 20102 min
Histogram: 1 0 0 0 0 0 0 0 0 0
Neighs:    2.02066e+06 ave 2.02066e+06 max 2.02066e+06 min
Histogram: 1 0 0 0 0 0 0 0 0 0

Total # of neighbors = 2020661
Ave neighs/atom = 102.822
Neighbor list builds = 1000
Dangerous builds not checked
Setting up Verlet run ...
  Unit style    : metal
  Current step  : 2000
  Time step     : 0.001
Per MPI rank memory allocation (min/avg/max) = 19.34 | 19.34 | 19.34 Mbytes
Step Temp Press TotEng PotEng Enthalpy 
    2000    297.96972   -209.05375   -68152.581   -68909.451   -68184.074 
    5000    1109.8471    784.81058   -63704.199   -66523.312   -63579.329 
ERROR: Atom count is inconsistent, cannot write restart file (../write_restart.cpp:256)
Last command: run 8000
