LAMMPS (12 Dec 2018)
Lattice spacing in x,y,z = 4 4 4
Created orthogonal box = (0 0 0) to (68 68 68)
  1 by 1 by 1 MPI processor grid
Created 19652 atoms
  Time spent = 0.00381708 secs
Setting atom values ...
  206 settings made for type/fraction
Neighbor list info ...
  update every 1 steps, delay 0 steps, check no
  max neighbors/atom: 2000, page size: 100000
  master list distance cutoff = 8.5
  ghost atom cutoff = 8.5
  binsize = 4.25, bins = 16 16 16
  1 neighbor lists, perpetual/occasional/extra = 1 0 0
  (1) pair eam/alloy, perpetual
      attributes: half, newton on
      pair build: half/bin/atomonly/newton
      stencil: half/bin/3d/newton
      bin: standard
Setting up Verlet run ...
  Unit style    : metal
  Current step  : 0
  Time step     : 0.001
Per MPI rank memory allocation (min/avg/max) = 18.19 | 18.19 | 18.19 Mbytes
Step Temp Press TotEng PotEng Enthalpy 
       0          300    264566.39   -21465.716   -22227.744    30456.241 
    1000    163.91276    261829.26   -21465.506   -21881.859    29919.282 
Loop time of 156.432 on 1 procs for 1000 steps with 19652 atoms

Performance: 0.552 ns/day, 43.453 hours/ns, 6.393 timesteps/s
99.7% CPU use with 1 MPI tasks x no OpenMP threads

MPI task timing breakdown:
Section |  min time  |  avg time  |  max time  |%varavg| %total
---------------------------------------------------------------
Pair    | 89.635     | 89.635     | 89.635     |   0.0 | 57.30
Neigh   | 64.723     | 64.723     | 64.723     |   0.0 | 41.37
Comm    | 1.2266     | 1.2266     | 1.2266     |   0.0 |  0.78
Output  | 0.00018716 | 0.00018716 | 0.00018716 |   0.0 |  0.00
Modify  | 0.42122    | 0.42122    | 0.42122    |   0.0 |  0.27
Other   |            | 0.4262     |            |       |  0.27

Nlocal:    19652 ave 19652 max 19652 min
Histogram: 1 0 0 0 0 0 0 0 0 0
Nghost:    20102 ave 20102 max 20102 min
Histogram: 1 0 0 0 0 0 0 0 0 0
Neighs:    1.57006e+06 ave 1.57006e+06 max 1.57006e+06 min
Histogram: 1 0 0 0 0 0 0 0 0 0

Total # of neighbors = 1570061
Ave neighs/atom = 79.8932
Neighbor list builds = 1000
Dangerous builds not checked
Setting up Verlet run ...
  Unit style    : metal
  Current step  : 1000
  Time step     : 0.001
Per MPI rank memory allocation (min/avg/max) = 18.19 | 18.19 | 18.19 Mbytes
Step Temp Press TotEng PotEng Enthalpy 
    1000    163.91276    261829.26   -21465.506   -21881.859    29919.282 
    2000      268.414    275.58625   -28726.418   -29408.214   -28648.387 
Loop time of 136.805 on 1 procs for 1000 steps with 19652 atoms

Performance: 0.632 ns/day, 38.001 hours/ns, 7.310 timesteps/s
98.7% CPU use with 1 MPI tasks x no OpenMP threads

MPI task timing breakdown:
Section |  min time  |  avg time  |  max time  |%varavg| %total
---------------------------------------------------------------
Pair    | 73.191     | 73.191     | 73.191     |   0.0 | 53.50
Neigh   | 60.571     | 60.571     | 60.571     |   0.0 | 44.28
Comm    | 1.1027     | 1.1027     | 1.1027     |   0.0 |  0.81
Output  | 0.00017309 | 0.00017309 | 0.00017309 |   0.0 |  0.00
Modify  | 1.5189     | 1.5189     | 1.5189     |   0.0 |  1.11
Other   |            | 0.4213     |            |       |  0.31

Nlocal:    19652 ave 19652 max 19652 min
Histogram: 1 0 0 0 0 0 0 0 0 0
Nghost:    14816 ave 14816 max 14816 min
Histogram: 1 0 0 0 0 0 0 0 0 0
Neighs:    1.12454e+06 ave 1.12454e+06 max 1.12454e+06 min
Histogram: 1 0 0 0 0 0 0 0 0 0

Total # of neighbors = 1124541
Ave neighs/atom = 57.2227
Neighbor list builds = 1000
Dangerous builds not checked
Setting up Verlet run ...
  Unit style    : metal
  Current step  : 2000
  Time step     : 0.001
Per MPI rank memory allocation (min/avg/max) = 18.19 | 18.19 | 18.19 Mbytes
Step Temp Press TotEng PotEng Enthalpy 
    2000      268.414    275.58625   -28726.418   -29408.214   -28648.387 
    5000    1078.8759    50.569072   -23799.253   -26539.696   -23783.621 
   10000    2436.1231    246.87913   -13988.744   -20176.719   -13885.843 
Loop time of 911.907 on 1 procs for 8000 steps with 19652 atoms

Performance: 0.758 ns/day, 31.663 hours/ns, 8.773 timesteps/s
99.3% CPU use with 1 MPI tasks x no OpenMP threads

MPI task timing breakdown:
Section |  min time  |  avg time  |  max time  |%varavg| %total
---------------------------------------------------------------
Pair    | 478.42     | 478.42     | 478.42     |   0.0 | 52.46
Neigh   | 409.78     | 409.78     | 409.78     |   0.0 | 44.94
Comm    | 8.3215     | 8.3215     | 8.3215     |   0.0 |  0.91
Output  | 0.35405    | 0.35405    | 0.35405    |   0.0 |  0.04
Modify  | 11.776     | 11.776     | 11.776     |   0.0 |  1.29
Other   |            | 3.249      |            |       |  0.36

Nlocal:    19652 ave 19652 max 19652 min
Histogram: 1 0 0 0 0 0 0 0 0 0
Nghost:    13866 ave 13866 max 13866 min
Histogram: 1 0 0 0 0 0 0 0 0 0
Neighs:    735460 ave 735460 max 735460 min
Histogram: 1 0 0 0 0 0 0 0 0 0

Total # of neighbors = 735460
Ave neighs/atom = 37.4242
Neighbor list builds = 8000
Dangerous builds not checked
Setting up Verlet run ...
  Unit style    : metal
  Current step  : 10000
  Time step     : 0.001
Per MPI rank memory allocation (min/avg/max) = 18.22 | 18.22 | 18.22 Mbytes
Step Temp Press TotEng PotEng Enthalpy 
   10000    2436.1231    246.87913   -13988.744   -20176.719   -13885.843 
   15000    2442.3618    662.22466   -13739.176   -19942.997    -13458.39 
   20000    2468.5079    167.06917   -13786.587   -20056.822   -13716.316 
   25000    2462.0065   -325.47603   -13648.257   -19901.978   -13787.299 
   30000    2466.2775   -118.64862   -13727.821   -19992.391   -13778.145 
   35000     2468.833   -48.977381   -13603.201   -19874.262   -13624.132 
   40000    2456.1959   -183.77722   -13594.163   -19833.124    -13672.84 
Loop time of 3171.71 on 1 procs for 30000 steps with 19652 atoms

Performance: 0.817 ns/day, 29.368 hours/ns, 9.459 timesteps/s
98.7% CPU use with 1 MPI tasks x no OpenMP threads

MPI task timing breakdown:
Section |  min time  |  avg time  |  max time  |%varavg| %total
---------------------------------------------------------------
Pair    | 1612.7     | 1612.7     | 1612.7     |   0.0 | 50.85
Neigh   | 1468.7     | 1468.7     | 1468.7     |   0.0 | 46.31
Comm    | 32.174     | 32.174     | 32.174     |   0.0 |  1.01
Output  | 0.54204    | 0.54204    | 0.54204    |   0.0 |  0.02
Modify  | 45.487     | 45.487     | 45.487     |   0.0 |  1.43
Other   |            | 12.09      |            |       |  0.38

Nlocal:    19652 ave 19652 max 19652 min
Histogram: 1 0 0 0 0 0 0 0 0 0
Nghost:    13614 ave 13614 max 13614 min
Histogram: 1 0 0 0 0 0 0 0 0 0
Neighs:    716395 ave 716395 max 716395 min
Histogram: 1 0 0 0 0 0 0 0 0 0

Total # of neighbors = 716395
Ave neighs/atom = 36.4541
Neighbor list builds = 30000
Dangerous builds not checked
Setting up Verlet run ...
  Unit style    : metal
  Current step  : 40000
  Time step     : 0.001
Per MPI rank memory allocation (min/avg/max) = 18.22 | 18.22 | 18.22 Mbytes
Step Temp Press TotEng PotEng Enthalpy 
   40000    2456.1959   -183.77722   -13594.163   -19833.124    -13672.84 
   40495    2406.2114   -191.21498    -13888.81   -20000.806   -13969.772 
Loop time of 50.3767 on 1 procs for 495 steps with 19652 atoms

Performance: 0.849 ns/day, 28.270 hours/ns, 9.826 timesteps/s
99.3% CPU use with 1 MPI tasks x no OpenMP threads

MPI task timing breakdown:
Section |  min time  |  avg time  |  max time  |%varavg| %total
---------------------------------------------------------------
Pair    | 25.766     | 25.766     | 25.766     |   0.0 | 51.15
Neigh   | 23.137     | 23.137     | 23.137     |   0.0 | 45.93
Comm    | 0.52556    | 0.52556    | 0.52556    |   0.0 |  1.04
Output  | 0.00013304 | 0.00013304 | 0.00013304 |   0.0 |  0.00
Modify  | 0.74355    | 0.74355    | 0.74355    |   0.0 |  1.48
Other   |            | 0.204      |            |       |  0.41

Nlocal:    19652 ave 19652 max 19652 min
Histogram: 1 0 0 0 0 0 0 0 0 0
Nghost:    13696 ave 13696 max 13696 min
Histogram: 1 0 0 0 0 0 0 0 0 0
Neighs:    724842 ave 724842 max 724842 min
Histogram: 1 0 0 0 0 0 0 0 0 0

Total # of neighbors = 724842
Ave neighs/atom = 36.8839
Neighbor list builds = 495
Dangerous builds not checked
Setting up Verlet run ...
  Unit style    : metal
  Current step  : 40495
  Time step     : 0.001
Per MPI rank memory allocation (min/avg/max) = 18.22 | 18.22 | 18.22 Mbytes
Step Temp Press TotEng PotEng Enthalpy 
   40495    2406.2114   -191.21498    -13888.81   -20000.806   -13969.772 
   45000    2393.7096   -319.01971   -14162.419    -20242.66   -14295.484 
Loop time of 477.582 on 1 procs for 4505 steps with 19652 atoms

Performance: 0.815 ns/day, 29.448 hours/ns, 9.433 timesteps/s
98.3% CPU use with 1 MPI tasks x no OpenMP threads

MPI task timing breakdown:
Section |  min time  |  avg time  |  max time  |%varavg| %total
---------------------------------------------------------------
Pair    | 242.94     | 242.94     | 242.94     |   0.0 | 50.87
Neigh   | 218.56     | 218.56     | 218.56     |   0.0 | 45.76
Comm    | 4.8295     | 4.8295     | 4.8295     |   0.0 |  1.01
Output  | 2.6432     | 2.6432     | 2.6432     |   0.0 |  0.55
Modify  | 6.8035     | 6.8035     | 6.8035     |   0.0 |  1.42
Other   |            | 1.802      |            |       |  0.38

Nlocal:    19652 ave 19652 max 19652 min
Histogram: 1 0 0 0 0 0 0 0 0 0
Nghost:    13858 ave 13858 max 13858 min
Histogram: 1 0 0 0 0 0 0 0 0 0
Neighs:    735182 ave 735182 max 735182 min
Histogram: 1 0 0 0 0 0 0 0 0 0

Total # of neighbors = 735182
Ave neighs/atom = 37.41
Neighbor list builds = 4505
Dangerous builds not checked
Setting up Verlet run ...
  Unit style    : metal
  Current step  : 45000
  Time step     : 0.001
Per MPI rank memory allocation (min/avg/max) = 18.22 | 18.22 | 18.22 Mbytes
Step Temp Press TotEng PotEng Enthalpy 
   45000    2393.7096   -319.01971   -14162.419    -20242.66   -14295.484 
   45495    2350.4391   -161.74279   -14350.195   -20320.524   -14417.264 
Loop time of 47.229 on 1 procs for 495 steps with 19652 atoms

Performance: 0.906 ns/day, 26.503 hours/ns, 10.481 timesteps/s
99.8% CPU use with 1 MPI tasks x no OpenMP threads

MPI task timing breakdown:
Section |  min time  |  avg time  |  max time  |%varavg| %total
---------------------------------------------------------------
Pair    | 23.395     | 23.395     | 23.395     |   0.0 | 49.53
Neigh   | 22.451     | 22.451     | 22.451     |   0.0 | 47.54
Comm    | 0.48243    | 0.48243    | 0.48243    |   0.0 |  1.02
Output  | 0.00016403 | 0.00016403 | 0.00016403 |   0.0 |  0.00
Modify  | 0.71945    | 0.71945    | 0.71945    |   0.0 |  1.52
Other   |            | 0.1811     |            |       |  0.38

Nlocal:    19652 ave 19652 max 19652 min
Histogram: 1 0 0 0 0 0 0 0 0 0
Nghost:    13897 ave 13897 max 13897 min
Histogram: 1 0 0 0 0 0 0 0 0 0
Neighs:    739570 ave 739570 max 739570 min
Histogram: 1 0 0 0 0 0 0 0 0 0

Total # of neighbors = 739570
Ave neighs/atom = 37.6333
Neighbor list builds = 495
Dangerous builds not checked
Setting up Verlet run ...
  Unit style    : metal
  Current step  : 45495
  Time step     : 0.001
Per MPI rank memory allocation (min/avg/max) = 18.22 | 18.22 | 18.22 Mbytes
Step Temp Press TotEng PotEng Enthalpy 
   45495    2350.4391   -161.74279   -14350.195   -20320.524   -14417.264 
   50000    2338.0273    197.41129   -14619.388   -20558.191   -14539.045 
Loop time of 441.376 on 1 procs for 4505 steps with 19652 atoms

Performance: 0.882 ns/day, 27.215 hours/ns, 10.207 timesteps/s
99.2% CPU use with 1 MPI tasks x no OpenMP threads

MPI task timing breakdown:
Section |  min time  |  avg time  |  max time  |%varavg| %total
---------------------------------------------------------------
Pair    | 222.76     | 222.76     | 222.76     |   0.0 | 50.47
Neigh   | 206.13     | 206.13     | 206.13     |   0.0 | 46.70
Comm    | 4.473      | 4.473      | 4.473      |   0.0 |  1.01
Output  | 0.10341    | 0.10341    | 0.10341    |   0.0 |  0.02
Modify  | 6.2318     | 6.2318     | 6.2318     |   0.0 |  1.41
Other   |            | 1.673      |            |       |  0.38

Nlocal:    19652 ave 19652 max 19652 min
Histogram: 1 0 0 0 0 0 0 0 0 0
Nghost:    14065 ave 14065 max 14065 min
Histogram: 1 0 0 0 0 0 0 0 0 0
Neighs:    752915 ave 752915 max 752915 min
Histogram: 1 0 0 0 0 0 0 0 0 0

Total # of neighbors = 752915
Ave neighs/atom = 38.3124
Neighbor list builds = 4505
Dangerous builds not checked
Setting up Verlet run ...
  Unit style    : metal
  Current step  : 50000
  Time step     : 0.001
Per MPI rank memory allocation (min/avg/max) = 18.22 | 18.22 | 18.22 Mbytes
Step Temp Press TotEng PotEng Enthalpy 
   50000    2338.0273    197.41129   -14619.388   -20558.191   -14539.045 
   50495     2305.631   -223.26312   -14764.048   -20620.561   -14855.033 
Loop time of 49.9928 on 1 procs for 495 steps with 19652 atoms

Performance: 0.855 ns/day, 28.054 hours/ns, 9.901 timesteps/s
99.2% CPU use with 1 MPI tasks x no OpenMP threads

MPI task timing breakdown:
Section |  min time  |  avg time  |  max time  |%varavg| %total
---------------------------------------------------------------
Pair    | 25.372     | 25.372     | 25.372     |   0.0 | 50.75
Neigh   | 23.133     | 23.133     | 23.133     |   0.0 | 46.27
Comm    | 0.51427    | 0.51427    | 0.51427    |   0.0 |  1.03
Output  | 0.00018883 | 0.00018883 | 0.00018883 |   0.0 |  0.00
Modify  | 0.76261    | 0.76261    | 0.76261    |   0.0 |  1.53
Other   |            | 0.211      |            |       |  0.42

Nlocal:    19652 ave 19652 max 19652 min
Histogram: 1 0 0 0 0 0 0 0 0 0
Nghost:    13903 ave 13903 max 13903 min
Histogram: 1 0 0 0 0 0 0 0 0 0
Neighs:    752176 ave 752176 max 752176 min
Histogram: 1 0 0 0 0 0 0 0 0 0

Total # of neighbors = 752176
Ave neighs/atom = 38.2748
Neighbor list builds = 495
Dangerous builds not checked
Setting up Verlet run ...
  Unit style    : metal
  Current step  : 50495
  Time step     : 0.001
Per MPI rank memory allocation (min/avg/max) = 18.22 | 18.22 | 18.22 Mbytes
Step Temp Press TotEng PotEng Enthalpy 
   50495     2305.631   -223.26312   -14764.048   -20620.561   -14855.033 
   55000    2289.6242   -175.93015   -14890.991   -20706.845   -14962.268 
Loop time of 481.033 on 1 procs for 4505 steps with 19652 atoms

Performance: 0.809 ns/day, 29.660 hours/ns, 9.365 timesteps/s
98.8% CPU use with 1 MPI tasks x no OpenMP threads

MPI task timing breakdown:
Section |  min time  |  avg time  |  max time  |%varavg| %total
---------------------------------------------------------------
Pair    | 248.22     | 248.22     | 248.22     |   0.0 | 51.60
Neigh   | 219.43     | 219.43     | 219.43     |   0.0 | 45.62
Comm    | 4.7914     | 4.7914     | 4.7914     |   0.0 |  1.00
Output  | 0.061606   | 0.061606   | 0.061606   |   0.0 |  0.01
Modify  | 6.7074     | 6.7074     | 6.7074     |   0.0 |  1.39
Other   |            | 1.818      |            |       |  0.38

Nlocal:    19652 ave 19652 max 19652 min
Histogram: 1 0 0 0 0 0 0 0 0 0
Nghost:    14003 ave 14003 max 14003 min
Histogram: 1 0 0 0 0 0 0 0 0 0
Neighs:    756888 ave 756888 max 756888 min
Histogram: 1 0 0 0 0 0 0 0 0 0

Total # of neighbors = 756888
Ave neighs/atom = 38.5146
Neighbor list builds = 4505
Dangerous builds not checked
Setting up Verlet run ...
  Unit style    : metal
  Current step  : 55000
  Time step     : 0.001
Per MPI rank memory allocation (min/avg/max) = 18.22 | 18.22 | 18.22 Mbytes
Step Temp Press TotEng PotEng Enthalpy 
   55000    2289.6242   -175.93015   -14890.991   -20706.845   -14962.268 
   55495     2256.297   -335.57826   -15067.026   -20798.226   -15202.427 
Loop time of 47.3066 on 1 procs for 495 steps with 19652 atoms

Performance: 0.904 ns/day, 26.547 hours/ns, 10.464 timesteps/s
99.7% CPU use with 1 MPI tasks x no OpenMP threads

MPI task timing breakdown:
Section |  min time  |  avg time  |  max time  |%varavg| %total
---------------------------------------------------------------
Pair    | 24.09      | 24.09      | 24.09      |   0.0 | 50.92
Neigh   | 21.863     | 21.863     | 21.863     |   0.0 | 46.22
Comm    | 0.47825    | 0.47825    | 0.47825    |   0.0 |  1.01
Output  | 0.00016689 | 0.00016689 | 0.00016689 |   0.0 |  0.00
Modify  | 0.68685    | 0.68685    | 0.68685    |   0.0 |  1.45
Other   |            | 0.1882     |            |       |  0.40

Nlocal:    19652 ave 19652 max 19652 min
Histogram: 1 0 0 0 0 0 0 0 0 0
Nghost:    14125 ave 14125 max 14125 min
Histogram: 1 0 0 0 0 0 0 0 0 0
Neighs:    759577 ave 759577 max 759577 min
Histogram: 1 0 0 0 0 0 0 0 0 0

Total # of neighbors = 759577
Ave neighs/atom = 38.6514
Neighbor list builds = 495
Dangerous builds not checked
Setting up Verlet run ...
  Unit style    : metal
  Current step  : 55495
  Time step     : 0.001
Per MPI rank memory allocation (min/avg/max) = 18.22 | 18.22 | 18.22 Mbytes
Step Temp Press TotEng PotEng Enthalpy 
   55495     2256.297   -335.57826   -15067.026   -20798.226   -15202.427 
   60000    2250.9281   -57.933964   -15118.544   -20836.107   -15141.827 
Loop time of 480.96 on 1 procs for 4505 steps with 19652 atoms

Performance: 0.809 ns/day, 29.656 hours/ns, 9.367 timesteps/s
99.2% CPU use with 1 MPI tasks x no OpenMP threads

MPI task timing breakdown:
Section |  min time  |  avg time  |  max time  |%varavg| %total
---------------------------------------------------------------
Pair    | 247.25     | 247.25     | 247.25     |   0.0 | 51.41
Neigh   | 219.64     | 219.64     | 219.64     |   0.0 | 45.67
Comm    | 4.9055     | 4.9055     | 4.9055     |   0.0 |  1.02
Output  | 0.54992    | 0.54992    | 0.54992    |   0.0 |  0.11
Modify  | 6.7457     | 6.7457     | 6.7457     |   0.0 |  1.40
Other   |            | 1.877      |            |       |  0.39

Nlocal:    19652 ave 19652 max 19652 min
Histogram: 1 0 0 0 0 0 0 0 0 0
Nghost:    14168 ave 14168 max 14168 min
Histogram: 1 0 0 0 0 0 0 0 0 0
Neighs:    762237 ave 762237 max 762237 min
Histogram: 1 0 0 0 0 0 0 0 0 0

Total # of neighbors = 762237
Ave neighs/atom = 38.7867
Neighbor list builds = 4505
Dangerous builds not checked
Setting up Verlet run ...
  Unit style    : metal
  Current step  : 60000
  Time step     : 0.001
Per MPI rank memory allocation (min/avg/max) = 18.22 | 18.22 | 18.22 Mbytes
Step Temp Press TotEng PotEng Enthalpy 
   60000    2250.9281   -57.933964   -15118.544   -20836.107   -15141.827 
   60495     2212.498   -124.51032   -15365.295   -20985.242   -15414.855 
Loop time of 53.3755 on 1 procs for 495 steps with 19652 atoms

Performance: 0.801 ns/day, 29.953 hours/ns, 9.274 timesteps/s
96.7% CPU use with 1 MPI tasks x no OpenMP threads

MPI task timing breakdown:
Section |  min time  |  avg time  |  max time  |%varavg| %total
---------------------------------------------------------------
Pair    | 27.215     | 27.215     | 27.215     |   0.0 | 50.99
Neigh   | 24.598     | 24.598     | 24.598     |   0.0 | 46.08
Comm    | 0.54935    | 0.54935    | 0.54935    |   0.0 |  1.03
Output  | 0.00021291 | 0.00021291 | 0.00021291 |   0.0 |  0.00
Modify  | 0.79684    | 0.79684    | 0.79684    |   0.0 |  1.49
Other   |            | 0.2159     |            |       |  0.40

Nlocal:    19652 ave 19652 max 19652 min
Histogram: 1 0 0 0 0 0 0 0 0 0
Nghost:    14210 ave 14210 max 14210 min
Histogram: 1 0 0 0 0 0 0 0 0 0
Neighs:    770660 ave 770660 max 770660 min
Histogram: 1 0 0 0 0 0 0 0 0 0

Total # of neighbors = 770660
Ave neighs/atom = 39.2153
Neighbor list builds = 495
Dangerous builds not checked
Setting up Verlet run ...
  Unit style    : metal
  Current step  : 60495
  Time step     : 0.001
Per MPI rank memory allocation (min/avg/max) = 18.22 | 18.22 | 18.22 Mbytes
Step Temp Press TotEng PotEng Enthalpy 
   60495     2212.498   -124.51032   -15365.295   -20985.242   -15414.855 
   65000    2214.5169    82.727548   -15434.347   -21059.421   -15401.585 
Loop time of 471.148 on 1 procs for 4505 steps with 19652 atoms

Performance: 0.826 ns/day, 29.051 hours/ns, 9.562 timesteps/s
98.9% CPU use with 1 MPI tasks x no OpenMP threads

MPI task timing breakdown:
Section |  min time  |  avg time  |  max time  |%varavg| %total
---------------------------------------------------------------
Pair    | 241.68     | 241.68     | 241.68     |   0.0 | 51.30
Neigh   | 216.03     | 216.03     | 216.03     |   0.0 | 45.85
Comm    | 4.7807     | 4.7807     | 4.7807     |   0.0 |  1.01
Output  | 0.081177   | 0.081177   | 0.081177   |   0.0 |  0.02
Modify  | 6.7049     | 6.7049     | 6.7049     |   0.0 |  1.42
Other   |            | 1.866      |            |       |  0.40

Nlocal:    19652 ave 19652 max 19652 min
Histogram: 1 0 0 0 0 0 0 0 0 0
Nghost:    14296 ave 14296 max 14296 min
Histogram: 1 0 0 0 0 0 0 0 0 0
Neighs:    773803 ave 773803 max 773803 min
Histogram: 1 0 0 0 0 0 0 0 0 0

Total # of neighbors = 773803
Ave neighs/atom = 39.3753
Neighbor list builds = 4505
Dangerous builds not checked
Setting up Verlet run ...
  Unit style    : metal
  Current step  : 65000
  Time step     : 0.001
Per MPI rank memory allocation (min/avg/max) = 18.22 | 18.22 | 18.22 Mbytes
Step Temp Press TotEng PotEng Enthalpy 
   65000    2214.5169    82.727548   -15434.347   -21059.421   -15401.585 
   65495    2186.5569   -245.64309   -15685.465   -21239.518   -15782.004 
Loop time of 49.5567 on 1 procs for 495 steps with 19652 atoms

Performance: 0.863 ns/day, 27.810 hours/ns, 9.989 timesteps/s
99.9% CPU use with 1 MPI tasks x no OpenMP threads

MPI task timing breakdown:
Section |  min time  |  avg time  |  max time  |%varavg| %total
---------------------------------------------------------------
Pair    | 25.406     | 25.406     | 25.406     |   0.0 | 51.27
Neigh   | 22.708     | 22.708     | 22.708     |   0.0 | 45.82
Comm    | 0.51219    | 0.51219    | 0.51219    |   0.0 |  1.03
Output  | 0.00014091 | 0.00014091 | 0.00014091 |   0.0 |  0.00
Modify  | 0.72851    | 0.72851    | 0.72851    |   0.0 |  1.47
Other   |            | 0.2018     |            |       |  0.41

Nlocal:    19652 ave 19652 max 19652 min
Histogram: 1 0 0 0 0 0 0 0 0 0
Nghost:    14193 ave 14193 max 14193 min
Histogram: 1 0 0 0 0 0 0 0 0 0
Neighs:    779576 ave 779576 max 779576 min
Histogram: 1 0 0 0 0 0 0 0 0 0

Total # of neighbors = 779576
Ave neighs/atom = 39.669
Neighbor list builds = 495
Dangerous builds not checked
Setting up Verlet run ...
  Unit style    : metal
  Current step  : 65495
  Time step     : 0.001
Per MPI rank memory allocation (min/avg/max) = 18.22 | 18.22 | 18.22 Mbytes
Step Temp Press TotEng PotEng Enthalpy 
   65495    2186.5569   -245.64309   -15685.465   -21239.518   -15782.004 
   70000    2154.1323   -92.120721   -15853.266   -21324.958   -15889.179 
Loop time of 466.854 on 1 procs for 4505 steps with 19652 atoms

Performance: 0.834 ns/day, 28.786 hours/ns, 9.650 timesteps/s
98.9% CPU use with 1 MPI tasks x no OpenMP threads

MPI task timing breakdown:
Section |  min time  |  avg time  |  max time  |%varavg| %total
---------------------------------------------------------------
Pair    | 239.94     | 239.94     | 239.94     |   0.0 | 51.39
Neigh   | 213.71     | 213.71     | 213.71     |   0.0 | 45.78
Comm    | 4.6978     | 4.6978     | 4.6978     |   0.0 |  1.01
Output  | 0.091862   | 0.091862   | 0.091862   |   0.0 |  0.02
Modify  | 6.6237     | 6.6237     | 6.6237     |   0.0 |  1.42
Other   |            | 1.794      |            |       |  0.38

Nlocal:    19652 ave 19652 max 19652 min
Histogram: 1 0 0 0 0 0 0 0 0 0
Nghost:    14064 ave 14064 max 14064 min
Histogram: 1 0 0 0 0 0 0 0 0 0
Neighs:    785487 ave 785487 max 785487 min
Histogram: 1 0 0 0 0 0 0 0 0 0

Total # of neighbors = 785487
Ave neighs/atom = 39.9698
Neighbor list builds = 4505
Dangerous builds not checked
Setting up Verlet run ...
  Unit style    : metal
  Current step  : 70000
  Time step     : 0.001
Per MPI rank memory allocation (min/avg/max) = 18.22 | 18.22 | 18.22 Mbytes
Step Temp Press TotEng PotEng Enthalpy 
   70000    2154.1323   -92.120721   -15853.266   -21324.958   -15889.179 
   70495    2111.8097   -92.452273   -16107.187   -21471.376   -16142.981 
Loop time of 42.4898 on 1 procs for 495 steps with 19652 atoms

Performance: 1.007 ns/day, 23.844 hours/ns, 11.650 timesteps/s
100.0% CPU use with 1 MPI tasks x no OpenMP threads

MPI task timing breakdown:
Section |  min time  |  avg time  |  max time  |%varavg| %total
---------------------------------------------------------------
Pair    | 20.987     | 20.987     | 20.987     |   0.0 | 49.39
Neigh   | 20.337     | 20.337     | 20.337     |   0.0 | 47.86
Comm    | 0.41721    | 0.41721    | 0.41721    |   0.0 |  0.98
Output  | 0.00016999 | 0.00016999 | 0.00016999 |   0.0 |  0.00
Modify  | 0.59356    | 0.59356    | 0.59356    |   0.0 |  1.40
Other   |            | 0.1552     |            |       |  0.37

Nlocal:    19652 ave 19652 max 19652 min
Histogram: 1 0 0 0 0 0 0 0 0 0
Nghost:    14273 ave 14273 max 14273 min
Histogram: 1 0 0 0 0 0 0 0 0 0
Neighs:    791964 ave 791964 max 791964 min
Histogram: 1 0 0 0 0 0 0 0 0 0

Total # of neighbors = 791964
Ave neighs/atom = 40.2994
Neighbor list builds = 495
Dangerous builds not checked
Setting up Verlet run ...
  Unit style    : metal
  Current step  : 70495
  Time step     : 0.001
Per MPI rank memory allocation (min/avg/max) = 18.22 | 18.22 | 18.22 Mbytes
Step Temp Press TotEng PotEng Enthalpy 
   70495    2111.8097   -92.452273   -16107.187   -21471.376   -16142.981 
   75000    2116.3636    177.06247   -16205.122   -21580.878   -16137.074 
Loop time of 495.959 on 1 procs for 4505 steps with 19652 atoms

Performance: 0.785 ns/day, 30.581 hours/ns, 9.083 timesteps/s
98.0% CPU use with 1 MPI tasks x no OpenMP threads

MPI task timing breakdown:
Section |  min time  |  avg time  |  max time  |%varavg| %total
---------------------------------------------------------------
Pair    | 254.78     | 254.78     | 254.78     |   0.0 | 51.37
Neigh   | 220.14     | 220.14     | 220.14     |   0.0 | 44.39
Comm    | 4.8587     | 4.8587     | 4.8587     |   0.0 |  0.98
Output  | 7.5249     | 7.5249     | 7.5249     |   0.0 |  1.52
Modify  | 6.7901     | 6.7901     | 6.7901     |   0.0 |  1.37
Other   |            | 1.859      |            |       |  0.37

Nlocal:    19652 ave 19652 max 19652 min
Histogram: 1 0 0 0 0 0 0 0 0 0
Nghost:    14334 ave 14334 max 14334 min
Histogram: 1 0 0 0 0 0 0 0 0 0
Neighs:    797497 ave 797497 max 797497 min
Histogram: 1 0 0 0 0 0 0 0 0 0

Total # of neighbors = 797497
Ave neighs/atom = 40.581
Neighbor list builds = 4505
Dangerous builds not checked
Setting up Verlet run ...
  Unit style    : metal
  Current step  : 75000
  Time step     : 0.001
Per MPI rank memory allocation (min/avg/max) = 18.22 | 18.22 | 18.22 Mbytes
Step Temp Press TotEng PotEng Enthalpy 
   75000    2116.3636    177.06247   -16205.122   -21580.878   -16137.074 
   75495      2058.64   -161.20907   -16435.216   -21664.349   -16496.903 
Loop time of 47.7033 on 1 procs for 495 steps with 19652 atoms

Performance: 0.897 ns/day, 26.770 hours/ns, 10.377 timesteps/s
99.9% CPU use with 1 MPI tasks x no OpenMP threads

MPI task timing breakdown:
Section |  min time  |  avg time  |  max time  |%varavg| %total
---------------------------------------------------------------
Pair    | 24.359     | 24.359     | 24.359     |   0.0 | 51.06
Neigh   | 21.985     | 21.985     | 21.985     |   0.0 | 46.09
Comm    | 0.48265    | 0.48265    | 0.48265    |   0.0 |  1.01
Output  | 0.00017095 | 0.00017095 | 0.00017095 |   0.0 |  0.00
Modify  | 0.68365    | 0.68365    | 0.68365    |   0.0 |  1.43
Other   |            | 0.1925     |            |       |  0.40

Nlocal:    19652 ave 19652 max 19652 min
Histogram: 1 0 0 0 0 0 0 0 0 0
Nghost:    14277 ave 14277 max 14277 min
Histogram: 1 0 0 0 0 0 0 0 0 0
Neighs:    800255 ave 800255 max 800255 min
Histogram: 1 0 0 0 0 0 0 0 0 0

Total # of neighbors = 800255
Ave neighs/atom = 40.7213
Neighbor list builds = 495
Dangerous builds not checked
Setting up Verlet run ...
  Unit style    : metal
  Current step  : 75495
  Time step     : 0.001
Per MPI rank memory allocation (min/avg/max) = 18.22 | 18.22 | 18.22 Mbytes
Step Temp Press TotEng PotEng Enthalpy 
   75495      2058.64   -161.20907   -16435.216   -21664.349   -16496.903 
   80000    2051.2903    142.68352   -16560.503   -21770.967   -16506.242 
Loop time of 498.182 on 1 procs for 4505 steps with 19652 atoms

Performance: 0.781 ns/day, 30.718 hours/ns, 9.043 timesteps/s
99.5% CPU use with 1 MPI tasks x no OpenMP threads

MPI task timing breakdown:
Section |  min time  |  avg time  |  max time  |%varavg| %total
---------------------------------------------------------------
Pair    | 254.42     | 254.42     | 254.42     |   0.0 | 51.07
Neigh   | 230.42     | 230.42     | 230.42     |   0.0 | 46.25
Comm    | 4.7827     | 4.7827     | 4.7827     |   0.0 |  0.96
Output  | 0.084014   | 0.084014   | 0.084014   |   0.0 |  0.02
Modify  | 6.6346     | 6.6346     | 6.6346     |   0.0 |  1.33
Other   |            | 1.841      |            |       |  0.37

Nlocal:    19652 ave 19652 max 19652 min
Histogram: 1 0 0 0 0 0 0 0 0 0
Nghost:    14266 ave 14266 max 14266 min
Histogram: 1 0 0 0 0 0 0 0 0 0
Neighs:    805773 ave 805773 max 805773 min
Histogram: 1 0 0 0 0 0 0 0 0 0

Total # of neighbors = 805773
Ave neighs/atom = 41.0021
Neighbor list builds = 4505
Dangerous builds not checked
Setting up Verlet run ...
  Unit style    : metal
  Current step  : 80000
  Time step     : 0.001
Per MPI rank memory allocation (min/avg/max) = 18.22 | 18.22 | 18.22 Mbytes
Step Temp Press TotEng PotEng Enthalpy 
   80000    2051.2903    142.68352   -16560.503   -21770.967   -16506.242 
   80495    2015.2865   -274.28312   -16726.395   -21845.406   -16830.463 
Loop time of 54.9098 on 1 procs for 495 steps with 19652 atoms

Performance: 0.779 ns/day, 30.814 hours/ns, 9.015 timesteps/s
99.7% CPU use with 1 MPI tasks x no OpenMP threads

MPI task timing breakdown:
Section |  min time  |  avg time  |  max time  |%varavg| %total
---------------------------------------------------------------
Pair    | 27.769     | 27.769     | 27.769     |   0.0 | 50.57
Neigh   | 25.665     | 25.665     | 25.665     |   0.0 | 46.74
Comm    | 0.52629    | 0.52629    | 0.52629    |   0.0 |  0.96
Output  | 0.00016713 | 0.00016713 | 0.00016713 |   0.0 |  0.00
Modify  | 0.74772    | 0.74772    | 0.74772    |   0.0 |  1.36
Other   |            | 0.2022     |            |       |  0.37

Nlocal:    19652 ave 19652 max 19652 min
Histogram: 1 0 0 0 0 0 0 0 0 0
Nghost:    14357 ave 14357 max 14357 min
Histogram: 1 0 0 0 0 0 0 0 0 0
Neighs:    807643 ave 807643 max 807643 min
Histogram: 1 0 0 0 0 0 0 0 0 0

Total # of neighbors = 807643
Ave neighs/atom = 41.0972
Neighbor list builds = 495
Dangerous builds not checked
Setting up Verlet run ...
  Unit style    : metal
  Current step  : 80495
  Time step     : 0.001
Per MPI rank memory allocation (min/avg/max) = 18.22 | 18.22 | 18.22 Mbytes
Step Temp Press TotEng PotEng Enthalpy 
   80495    2015.2865   -274.28312   -16726.395   -21845.406   -16830.463 
   85000    1994.2637    337.90582   -16928.823   -21994.434    -16802.06 
Loop time of 515.442 on 1 procs for 4505 steps with 19652 atoms

Performance: 0.755 ns/day, 31.782 hours/ns, 8.740 timesteps/s
98.8% CPU use with 1 MPI tasks x no OpenMP threads

MPI task timing breakdown:
Section |  min time  |  avg time  |  max time  |%varavg| %total
---------------------------------------------------------------
Pair    | 264.48     | 264.48     | 264.48     |   0.0 | 51.31
Neigh   | 237.17     | 237.17     | 237.17     |   0.0 | 46.01
Comm    | 4.9139     | 4.9139     | 4.9139     |   0.0 |  0.95
Output  | 0.084889   | 0.084889   | 0.084889   |   0.0 |  0.02
Modify  | 6.8786     | 6.8786     | 6.8786     |   0.0 |  1.33
Other   |            | 1.91       |            |       |  0.37

Nlocal:    19652 ave 19652 max 19652 min
Histogram: 1 0 0 0 0 0 0 0 0 0
Nghost:    14372 ave 14372 max 14372 min
Histogram: 1 0 0 0 0 0 0 0 0 0
Neighs:    816833 ave 816833 max 816833 min
Histogram: 1 0 0 0 0 0 0 0 0 0

Total # of neighbors = 816833
Ave neighs/atom = 41.5649
Neighbor list builds = 4505
Dangerous builds not checked
Setting up Verlet run ...
  Unit style    : metal
  Current step  : 85000
  Time step     : 0.001
Per MPI rank memory allocation (min/avg/max) = 18.22 | 18.22 | 18.22 Mbytes
Step Temp Press TotEng PotEng Enthalpy 
   85000    1994.2637    337.90582   -16928.823   -21994.434    -16802.06 
   85495    1949.7926   -479.66239   -17052.821   -22005.472   -17233.325 
Loop time of 54.4737 on 1 procs for 495 steps with 19652 atoms

Performance: 0.785 ns/day, 30.569 hours/ns, 9.087 timesteps/s
99.2% CPU use with 1 MPI tasks x no OpenMP threads

MPI task timing breakdown:
Section |  min time  |  avg time  |  max time  |%varavg| %total
---------------------------------------------------------------
Pair    | 27.676     | 27.676     | 27.676     |   0.0 | 50.81
Neigh   | 25.292     | 25.292     | 25.292     |   0.0 | 46.43
Comm    | 0.52441    | 0.52441    | 0.52441    |   0.0 |  0.96
Output  | 0.00016904 | 0.00016904 | 0.00016904 |   0.0 |  0.00
Modify  | 0.76674    | 0.76674    | 0.76674    |   0.0 |  1.41
Other   |            | 0.2144     |            |       |  0.39

Nlocal:    19652 ave 19652 max 19652 min
Histogram: 1 0 0 0 0 0 0 0 0 0
Nghost:    14409 ave 14409 max 14409 min
Histogram: 1 0 0 0 0 0 0 0 0 0
Neighs:    814356 ave 814356 max 814356 min
Histogram: 1 0 0 0 0 0 0 0 0 0

Total # of neighbors = 814356
Ave neighs/atom = 41.4388
Neighbor list builds = 495
Dangerous builds not checked
Setting up Verlet run ...
  Unit style    : metal
  Current step  : 85495
  Time step     : 0.001
Per MPI rank memory allocation (min/avg/max) = 18.22 | 18.22 | 18.22 Mbytes
Step Temp Press TotEng PotEng Enthalpy 
   85495    1949.7926   -479.66239   -17052.821   -22005.472   -17233.325 
   90000    1949.3503    224.00895   -17279.303   -22230.831   -17196.251 
Loop time of 529.627 on 1 procs for 4505 steps with 19652 atoms

Performance: 0.735 ns/day, 32.657 hours/ns, 8.506 timesteps/s
98.4% CPU use with 1 MPI tasks x no OpenMP threads

MPI task timing breakdown:
Section |  min time  |  avg time  |  max time  |%varavg| %total
---------------------------------------------------------------
Pair    | 271.96     | 271.96     | 271.96     |   0.0 | 51.35
Neigh   | 243.41     | 243.41     | 243.41     |   0.0 | 45.96
Comm    | 5.0518     | 5.0518     | 5.0518     |   0.0 |  0.95
Output  | 0.091794   | 0.091794   | 0.091794   |   0.0 |  0.02
Modify  | 7.1299     | 7.1299     | 7.1299     |   0.0 |  1.35
Other   |            | 1.977      |            |       |  0.37

Nlocal:    19652 ave 19652 max 19652 min
Histogram: 1 0 0 0 0 0 0 0 0 0
Nghost:    14538 ave 14538 max 14538 min
Histogram: 1 0 0 0 0 0 0 0 0 0
Neighs:    827230 ave 827230 max 827230 min
Histogram: 1 0 0 0 0 0 0 0 0 0

Total # of neighbors = 827230
Ave neighs/atom = 42.0939
Neighbor list builds = 4505
Dangerous builds not checked
Setting up Verlet run ...
  Unit style    : metal
  Current step  : 90000
  Time step     : 0.001
Per MPI rank memory allocation (min/avg/max) = 18.22 | 18.22 | 18.22 Mbytes
Step Temp Press TotEng PotEng Enthalpy 
   90000    1949.3503    224.00895   -17279.303   -22230.831   -17196.251 
   90495    1912.6317   -937.16648   -17320.348   -22178.607   -17670.908 
Loop time of 54.5955 on 1 procs for 495 steps with 19652 atoms

Performance: 0.783 ns/day, 30.637 hours/ns, 9.067 timesteps/s
99.7% CPU use with 1 MPI tasks x no OpenMP threads

MPI task timing breakdown:
Section |  min time  |  avg time  |  max time  |%varavg| %total
---------------------------------------------------------------
Pair    | 27.69      | 27.69      | 27.69      |   0.0 | 50.72
Neigh   | 25.411     | 25.411     | 25.411     |   0.0 | 46.54
Comm    | 0.52607    | 0.52607    | 0.52607    |   0.0 |  0.96
Output  | 0.00017309 | 0.00017309 | 0.00017309 |   0.0 |  0.00
Modify  | 0.75593    | 0.75593    | 0.75593    |   0.0 |  1.38
Other   |            | 0.2121     |            |       |  0.39

Nlocal:    19652 ave 19652 max 19652 min
Histogram: 1 0 0 0 0 0 0 0 0 0
Nghost:    14476 ave 14476 max 14476 min
Histogram: 1 0 0 0 0 0 0 0 0 0
Neighs:    818994 ave 818994 max 818994 min
Histogram: 1 0 0 0 0 0 0 0 0 0

Total # of neighbors = 818994
Ave neighs/atom = 41.6748
Neighbor list builds = 495
Dangerous builds not checked
Setting up Verlet run ...
  Unit style    : metal
  Current step  : 90495
  Time step     : 0.001
Per MPI rank memory allocation (min/avg/max) = 18.22 | 18.22 | 18.22 Mbytes
Step Temp Press TotEng PotEng Enthalpy 
   90495    1912.6317   -937.16648   -17320.348   -22178.607   -17670.908 
   95000    1905.7233    136.68156   -17481.915   -22322.626   -17431.397 
Loop time of 532.018 on 1 procs for 4505 steps with 19652 atoms

Performance: 0.732 ns/day, 32.804 hours/ns, 8.468 timesteps/s
98.8% CPU use with 1 MPI tasks x no OpenMP threads

MPI task timing breakdown:
Section |  min time  |  avg time  |  max time  |%varavg| %total
---------------------------------------------------------------
Pair    | 275.53     | 275.53     | 275.53     |   0.0 | 51.79
Neigh   | 242.56     | 242.56     | 242.56     |   0.0 | 45.59
Comm    | 4.9937     | 4.9937     | 4.9937     |   0.0 |  0.94
Output  | 0.084996   | 0.084996   | 0.084996   |   0.0 |  0.02
Modify  | 6.9178     | 6.9178     | 6.9178     |   0.0 |  1.30
Other   |            | 1.934      |            |       |  0.36

Nlocal:    19652 ave 19652 max 19652 min
Histogram: 1 0 0 0 0 0 0 0 0 0
Nghost:    14554 ave 14554 max 14554 min
Histogram: 1 0 0 0 0 0 0 0 0 0
Neighs:    829280 ave 829280 max 829280 min
Histogram: 1 0 0 0 0 0 0 0 0 0

Total # of neighbors = 829280
Ave neighs/atom = 42.1982
Neighbor list builds = 4505
Dangerous builds not checked
Setting up Verlet run ...
  Unit style    : metal
  Current step  : 95000
  Time step     : 0.001
Per MPI rank memory allocation (min/avg/max) = 18.22 | 18.22 | 18.22 Mbytes
Step Temp Press TotEng PotEng Enthalpy 
   95000    1905.7233    136.68156   -17481.915   -22322.626   -17431.397 
   95495    1879.4989   -109.99651   -17709.687   -22483.785   -17750.047 
Loop time of 57.0206 on 1 procs for 495 steps with 19652 atoms

Performance: 0.750 ns/day, 31.998 hours/ns, 8.681 timesteps/s
100.0% CPU use with 1 MPI tasks x no OpenMP threads

MPI task timing breakdown:
Section |  min time  |  avg time  |  max time  |%varavg| %total
---------------------------------------------------------------
Pair    | 29.196     | 29.196     | 29.196     |   0.0 | 51.20
Neigh   | 26.302     | 26.302     | 26.302     |   0.0 | 46.13
Comm    | 0.5329     | 0.5329     | 0.5329     |   0.0 |  0.93
Output  | 0.00017381 | 0.00017381 | 0.00017381 |   0.0 |  0.00
Modify  | 0.77897    | 0.77897    | 0.77897    |   0.0 |  1.37
Other   |            | 0.211      |            |       |  0.37

Nlocal:    19652 ave 19652 max 19652 min
Histogram: 1 0 0 0 0 0 0 0 0 0
Nghost:    14587 ave 14587 max 14587 min
Histogram: 1 0 0 0 0 0 0 0 0 0
Neighs:    835408 ave 835408 max 835408 min
Histogram: 1 0 0 0 0 0 0 0 0 0

Total # of neighbors = 835408
Ave neighs/atom = 42.5101
Neighbor list builds = 495
Dangerous builds not checked
Setting up Verlet run ...
  Unit style    : metal
  Current step  : 95495
  Time step     : 0.001
Per MPI rank memory allocation (min/avg/max) = 18.22 | 18.22 | 18.22 Mbytes
Step Temp Press TotEng PotEng Enthalpy 
   95495    1879.4989   -109.99651   -17709.687   -22483.785   -17750.047 
  100000    1844.4653    455.54672   -17847.824   -22532.934   -17681.831 
Loop time of 521.113 on 1 procs for 4505 steps with 19652 atoms

Performance: 0.747 ns/day, 32.132 hours/ns, 8.645 timesteps/s
99.1% CPU use with 1 MPI tasks x no OpenMP threads

MPI task timing breakdown:
Section |  min time  |  avg time  |  max time  |%varavg| %total
---------------------------------------------------------------
Pair    | 271.91     | 271.91     | 271.91     |   0.0 | 52.18
Neigh   | 235.51     | 235.51     | 235.51     |   0.0 | 45.19
Comm    | 4.951      | 4.951      | 4.951      |   0.0 |  0.95
Output  | 0.08415    | 0.08415    | 0.08415    |   0.0 |  0.02
Modify  | 6.7907     | 6.7907     | 6.7907     |   0.0 |  1.30
Other   |            | 1.867      |            |       |  0.36

Nlocal:    19652 ave 19652 max 19652 min
Histogram: 1 0 0 0 0 0 0 0 0 0
Nghost:    14689 ave 14689 max 14689 min
Histogram: 1 0 0 0 0 0 0 0 0 0
Neighs:    840910 ave 840910 max 840910 min
Histogram: 1 0 0 0 0 0 0 0 0 0

Total # of neighbors = 840910
Ave neighs/atom = 42.79
Neighbor list builds = 4505
Dangerous builds not checked
Setting up Verlet run ...
  Unit style    : metal
  Current step  : 100000
  Time step     : 0.001
Per MPI rank memory allocation (min/avg/max) = 18.22 | 18.22 | 18.22 Mbytes
Step Temp Press TotEng PotEng Enthalpy 
  100000    1844.4653    455.54672   -17847.824   -22532.934   -17681.831 
  100495    1820.4009   -569.66327   -17949.898   -22573.882    -18158.59 
Loop time of 58.5649 on 1 procs for 495 steps with 19652 atoms

Performance: 0.730 ns/day, 32.865 hours/ns, 8.452 timesteps/s
99.7% CPU use with 1 MPI tasks x no OpenMP threads

MPI task timing breakdown:
Section |  min time  |  avg time  |  max time  |%varavg| %total
---------------------------------------------------------------
Pair    | 30.55      | 30.55      | 30.55      |   0.0 | 52.16
Neigh   | 26.422     | 26.422     | 26.422     |   0.0 | 45.12
Comm    | 0.57247    | 0.57247    | 0.57247    |   0.0 |  0.98
Output  | 0.00019193 | 0.00019193 | 0.00019193 |   0.0 |  0.00
Modify  | 0.80505    | 0.80505    | 0.80505    |   0.0 |  1.37
Other   |            | 0.2155     |            |       |  0.37

Nlocal:    19652 ave 19652 max 19652 min
Histogram: 1 0 0 0 0 0 0 0 0 0
Nghost:    14627 ave 14627 max 14627 min
Histogram: 1 0 0 0 0 0 0 0 0 0
Neighs:    837014 ave 837014 max 837014 min
Histogram: 1 0 0 0 0 0 0 0 0 0

Total # of neighbors = 837014
Ave neighs/atom = 42.5918
Neighbor list builds = 495
Dangerous builds not checked
Setting up Verlet run ...
  Unit style    : metal
  Current step  : 100495
  Time step     : 0.001
Per MPI rank memory allocation (min/avg/max) = 18.22 | 18.22 | 18.22 Mbytes
Step Temp Press TotEng PotEng Enthalpy 
  100495    1820.4009   -569.66327   -17949.898   -22573.882    -18158.59 
  105000    1794.6742   -175.88858   -18083.121   -22641.757   -18147.076 
Loop time of 505.271 on 1 procs for 4505 steps with 19652 atoms

Performance: 0.770 ns/day, 31.155 hours/ns, 8.916 timesteps/s
99.4% CPU use with 1 MPI tasks x no OpenMP threads

MPI task timing breakdown:
Section |  min time  |  avg time  |  max time  |%varavg| %total
---------------------------------------------------------------
Pair    | 260.54     | 260.54     | 260.54     |   0.0 | 51.57
Neigh   | 231.25     | 231.25     | 231.25     |   0.0 | 45.77
Comm    | 4.8698     | 4.8698     | 4.8698     |   0.0 |  0.96
Output  | 0.082702   | 0.082702   | 0.082702   |   0.0 |  0.02
Modify  | 6.6699     | 6.6699     | 6.6699     |   0.0 |  1.32
Other   |            | 1.852      |            |       |  0.37

Nlocal:    19652 ave 19652 max 19652 min
Histogram: 1 0 0 0 0 0 0 0 0 0
Nghost:    14606 ave 14606 max 14606 min
Histogram: 1 0 0 0 0 0 0 0 0 0
Neighs:    843307 ave 843307 max 843307 min
Histogram: 1 0 0 0 0 0 0 0 0 0

Total # of neighbors = 843307
Ave neighs/atom = 42.912
Neighbor list builds = 4505
Dangerous builds not checked
Setting up Verlet run ...
  Unit style    : metal
  Current step  : 105000
  Time step     : 0.001
Per MPI rank memory allocation (min/avg/max) = 18.22 | 18.22 | 18.22 Mbytes
Step Temp Press TotEng PotEng Enthalpy 
  105000    1794.6742   -175.88858   -18083.121   -22641.757   -18147.076 
  105495    1769.3739   -2.6473004   -18292.777   -22787.148   -18293.732 
Loop time of 57.2998 on 1 procs for 495 steps with 19652 atoms

Performance: 0.746 ns/day, 32.155 hours/ns, 8.639 timesteps/s
96.0% CPU use with 1 MPI tasks x no OpenMP threads

MPI task timing breakdown:
Section |  min time  |  avg time  |  max time  |%varavg| %total
---------------------------------------------------------------
Pair    | 29.397     | 29.397     | 29.397     |   0.0 | 51.30
Neigh   | 26.354     | 26.354     | 26.354     |   0.0 | 45.99
Comm    | 0.56419    | 0.56419    | 0.56419    |   0.0 |  0.98
Output  | 0.00017214 | 0.00017214 | 0.00017214 |   0.0 |  0.00
Modify  | 0.75645    | 0.75645    | 0.75645    |   0.0 |  1.32
Other   |            | 0.228      |            |       |  0.40

Nlocal:    19652 ave 19652 max 19652 min
Histogram: 1 0 0 0 0 0 0 0 0 0
Nghost:    14638 ave 14638 max 14638 min
Histogram: 1 0 0 0 0 0 0 0 0 0
Neighs:    849741 ave 849741 max 849741 min
Histogram: 1 0 0 0 0 0 0 0 0 0

Total # of neighbors = 849741
Ave neighs/atom = 43.2394
Neighbor list builds = 495
Dangerous builds not checked
Setting up Verlet run ...
  Unit style    : metal
  Current step  : 105495
  Time step     : 0.001
Per MPI rank memory allocation (min/avg/max) = 18.22 | 18.22 | 18.22 Mbytes
Step Temp Press TotEng PotEng Enthalpy 
  105495    1769.3739   -2.6473004   -18292.777   -22787.148   -18293.732 
  110000    1746.6403   -133.60007   -18414.246   -22850.872   -18462.294 
Loop time of 523.987 on 1 procs for 4505 steps with 19652 atoms

Performance: 0.743 ns/day, 32.309 hours/ns, 8.598 timesteps/s
98.9% CPU use with 1 MPI tasks x no OpenMP threads

MPI task timing breakdown:
Section |  min time  |  avg time  |  max time  |%varavg| %total
---------------------------------------------------------------
Pair    | 272.85     | 272.85     | 272.85     |   0.0 | 52.07
Neigh   | 237.39     | 237.39     | 237.39     |   0.0 | 45.30
Comm    | 4.9092     | 4.9092     | 4.9092     |   0.0 |  0.94
Output  | 0.08658    | 0.08658    | 0.08658    |   0.0 |  0.02
Modify  | 6.8418     | 6.8418     | 6.8418     |   0.0 |  1.31
Other   |            | 1.912      |            |       |  0.36

Nlocal:    19652 ave 19652 max 19652 min
Histogram: 1 0 0 0 0 0 0 0 0 0
Nghost:    14652 ave 14652 max 14652 min
Histogram: 1 0 0 0 0 0 0 0 0 0
Neighs:    851983 ave 851983 max 851983 min
Histogram: 1 0 0 0 0 0 0 0 0 0

Total # of neighbors = 851983
Ave neighs/atom = 43.3535
Neighbor list builds = 4505
Dangerous builds not checked
Setting up Verlet run ...
  Unit style    : metal
  Current step  : 110000
  Time step     : 0.001
Per MPI rank memory allocation (min/avg/max) = 18.22 | 18.22 | 18.22 Mbytes
Step Temp Press TotEng PotEng Enthalpy 
  110000    1746.6403   -133.60007   -18414.246   -22850.872   -18462.294 
  110495     1705.228    147.12525   -18615.045    -22946.48   -18562.416 
Loop time of 63.7678 on 1 procs for 495 steps with 19652 atoms

Performance: 0.671 ns/day, 35.784 hours/ns, 7.763 timesteps/s
91.9% CPU use with 1 MPI tasks x no OpenMP threads

MPI task timing breakdown:
Section |  min time  |  avg time  |  max time  |%varavg| %total
---------------------------------------------------------------
Pair    | 33.722     | 33.722     | 33.722     |   0.0 | 52.88
Neigh   | 28.359     | 28.359     | 28.359     |   0.0 | 44.47
Comm    | 0.60905    | 0.60905    | 0.60905    |   0.0 |  0.96
Output  | 0.00016999 | 0.00016999 | 0.00016999 |   0.0 |  0.00
Modify  | 0.85245    | 0.85245    | 0.85245    |   0.0 |  1.34
Other   |            | 0.2251     |            |       |  0.35

Nlocal:    19652 ave 19652 max 19652 min
Histogram: 1 0 0 0 0 0 0 0 0 0
Nghost:    14691 ave 14691 max 14691 min
Histogram: 1 0 0 0 0 0 0 0 0 0
Neighs:    857499 ave 857499 max 857499 min
Histogram: 1 0 0 0 0 0 0 0 0 0

Total # of neighbors = 857499
Ave neighs/atom = 43.6342
Neighbor list builds = 495
Dangerous builds not checked
Setting up Verlet run ...
  Unit style    : metal
  Current step  : 110495
  Time step     : 0.001
Per MPI rank memory allocation (min/avg/max) = 18.22 | 18.22 | 18.22 Mbytes
Step Temp Press TotEng PotEng Enthalpy 
  110495     1705.228    147.12525   -18615.045    -22946.48   -18562.416 
  115000    1699.2099   -145.97668   -18747.667   -23063.815   -18799.684 
Loop time of 488.814 on 1 procs for 4505 steps with 19652 atoms

Performance: 0.796 ns/day, 30.140 hours/ns, 9.216 timesteps/s
98.9% CPU use with 1 MPI tasks x no OpenMP threads

MPI task timing breakdown:
Section |  min time  |  avg time  |  max time  |%varavg| %total
---------------------------------------------------------------
Pair    | 250.36     | 250.36     | 250.36     |   0.0 | 51.22
Neigh   | 225.67     | 225.67     | 225.67     |   0.0 | 46.17
Comm    | 4.5497     | 4.5497     | 4.5497     |   0.0 |  0.93
Output  | 0.060682   | 0.060682   | 0.060682   |   0.0 |  0.01
Modify  | 6.4747     | 6.4747     | 6.4747     |   0.0 |  1.32
Other   |            | 1.703      |            |       |  0.35

Nlocal:    19652 ave 19652 max 19652 min
Histogram: 1 0 0 0 0 0 0 0 0 0
Nghost:    14687 ave 14687 max 14687 min
Histogram: 1 0 0 0 0 0 0 0 0 0
Neighs:    860498 ave 860498 max 860498 min
Histogram: 1 0 0 0 0 0 0 0 0 0

Total # of neighbors = 860498
Ave neighs/atom = 43.7868
Neighbor list builds = 4505
Dangerous builds not checked
Setting up Verlet run ...
  Unit style    : metal
  Current step  : 115000
  Time step     : 0.001
Per MPI rank memory allocation (min/avg/max) = 18.22 | 18.22 | 18.22 Mbytes
Step Temp Press TotEng PotEng Enthalpy 
  115000    1699.2099   -145.97668   -18747.667   -23063.815   -18799.684 
  115495    1659.6018   -19.423334   -18942.687   -23158.227   -18949.573 
Loop time of 51.397 on 1 procs for 495 steps with 19652 atoms

Performance: 0.832 ns/day, 28.842 hours/ns, 9.631 timesteps/s
99.6% CPU use with 1 MPI tasks x no OpenMP threads

MPI task timing breakdown:
Section |  min time  |  avg time  |  max time  |%varavg| %total
---------------------------------------------------------------
Pair    | 26.09      | 26.09      | 26.09      |   0.0 | 50.76
Neigh   | 23.939     | 23.939     | 23.939     |   0.0 | 46.58
Comm    | 0.48996    | 0.48996    | 0.48996    |   0.0 |  0.95
Output  | 0.00018907 | 0.00018907 | 0.00018907 |   0.0 |  0.00
Modify  | 0.6973     | 0.6973     | 0.6973     |   0.0 |  1.36
Other   |            | 0.1797     |            |       |  0.35

Nlocal:    19652 ave 19652 max 19652 min
Histogram: 1 0 0 0 0 0 0 0 0 0
Nghost:    14711 ave 14711 max 14711 min
Histogram: 1 0 0 0 0 0 0 0 0 0
Neighs:    864958 ave 864958 max 864958 min
Histogram: 1 0 0 0 0 0 0 0 0 0

Total # of neighbors = 864958
Ave neighs/atom = 44.0137
Neighbor list builds = 495
Dangerous builds not checked
Setting up Verlet run ...
  Unit style    : metal
  Current step  : 115495
  Time step     : 0.001
Per MPI rank memory allocation (min/avg/max) = 18.22 | 18.22 | 18.22 Mbytes
Step Temp Press TotEng PotEng Enthalpy 
  115495    1659.6018   -19.423334   -18942.687   -23158.227   -18949.573 
  120000    1636.7824   -63.704143   -19093.296   -23250.873   -19115.778 
Loop time of 524.217 on 1 procs for 4505 steps with 19652 atoms

Performance: 0.743 ns/day, 32.323 hours/ns, 8.594 timesteps/s
99.1% CPU use with 1 MPI tasks x no OpenMP threads

MPI task timing breakdown:
Section |  min time  |  avg time  |  max time  |%varavg| %total
---------------------------------------------------------------
Pair    | 274.38     | 274.38     | 274.38     |   0.0 | 52.34
Neigh   | 236.27     | 236.27     | 236.27     |   0.0 | 45.07
Comm    | 4.8487     | 4.8487     | 4.8487     |   0.0 |  0.92
Output  | 0.086353   | 0.086353   | 0.086353   |   0.0 |  0.02
Modify  | 6.8074     | 6.8074     | 6.8074     |   0.0 |  1.30
Other   |            | 1.83       |            |       |  0.35

Nlocal:    19652 ave 19652 max 19652 min
Histogram: 1 0 0 0 0 0 0 0 0 0
Nghost:    14846 ave 14846 max 14846 min
Histogram: 1 0 0 0 0 0 0 0 0 0
Neighs:    868778 ave 868778 max 868778 min
Histogram: 1 0 0 0 0 0 0 0 0 0

Total # of neighbors = 868778
Ave neighs/atom = 44.2081
Neighbor list builds = 4505
Dangerous builds not checked
Setting up Verlet run ...
  Unit style    : metal
  Current step  : 120000
  Time step     : 0.001
Per MPI rank memory allocation (min/avg/max) = 18.22 | 18.22 | 18.22 Mbytes
Step Temp Press TotEng PotEng Enthalpy 
  120000    1636.7824   -63.704143   -19093.296   -23250.873   -19115.778 
  120495    1617.9012   -168.87699   -19244.717   -23354.333   -19304.079 
Loop time of 50.8187 on 1 procs for 495 steps with 19652 atoms

Performance: 0.842 ns/day, 28.518 hours/ns, 9.740 timesteps/s
98.9% CPU use with 1 MPI tasks x no OpenMP threads

MPI task timing breakdown:
Section |  min time  |  avg time  |  max time  |%varavg| %total
---------------------------------------------------------------
Pair    | 25.824     | 25.824     | 25.824     |   0.0 | 50.82
Neigh   | 23.619     | 23.619     | 23.619     |   0.0 | 46.48
Comm    | 0.49502    | 0.49502    | 0.49502    |   0.0 |  0.97
Output  | 0.000139   | 0.000139   | 0.000139   |   0.0 |  0.00
Modify  | 0.68324    | 0.68324    | 0.68324    |   0.0 |  1.34
Other   |            | 0.1972     |            |       |  0.39

Nlocal:    19652 ave 19652 max 19652 min
Histogram: 1 0 0 0 0 0 0 0 0 0
Nghost:    14866 ave 14866 max 14866 min
Histogram: 1 0 0 0 0 0 0 0 0 0
Neighs:    871614 ave 871614 max 871614 min
Histogram: 1 0 0 0 0 0 0 0 0 0

Total # of neighbors = 871614
Ave neighs/atom = 44.3524
Neighbor list builds = 495
Dangerous builds not checked
Setting up Verlet run ...
  Unit style    : metal
  Current step  : 120495
  Time step     : 0.001
Per MPI rank memory allocation (min/avg/max) = 18.22 | 18.22 | 18.22 Mbytes
Step Temp Press TotEng PotEng Enthalpy 
  120495    1617.9012   -168.87699   -19244.717   -23354.333   -19304.079 
  125000    1586.0391   -282.68058   -19335.405   -23364.089   -19434.668 
Loop time of 515.669 on 1 procs for 4505 steps with 19652 atoms

Performance: 0.755 ns/day, 31.796 hours/ns, 8.736 timesteps/s
98.3% CPU use with 1 MPI tasks x no OpenMP threads

MPI task timing breakdown:
Section |  min time  |  avg time  |  max time  |%varavg| %total
---------------------------------------------------------------
Pair    | 269.99     | 269.99     | 269.99     |   0.0 | 52.36
Neigh   | 232.51     | 232.51     | 232.51     |   0.0 | 45.09
Comm    | 4.7072     | 4.7072     | 4.7072     |   0.0 |  0.91
Output  | 0.085891   | 0.085891   | 0.085891   |   0.0 |  0.02
Modify  | 6.606      | 6.606      | 6.606      |   0.0 |  1.28
Other   |            | 1.768      |            |       |  0.34

Nlocal:    19652 ave 19652 max 19652 min
Histogram: 1 0 0 0 0 0 0 0 0 0
Nghost:    14739 ave 14739 max 14739 min
Histogram: 1 0 0 0 0 0 0 0 0 0
Neighs:    873295 ave 873295 max 873295 min
Histogram: 1 0 0 0 0 0 0 0 0 0

Total # of neighbors = 873295
Ave neighs/atom = 44.438
Neighbor list builds = 4505
Dangerous builds not checked
Setting up Verlet run ...
  Unit style    : metal
  Current step  : 125000
  Time step     : 0.001
Per MPI rank memory allocation (min/avg/max) = 18.22 | 18.22 | 18.22 Mbytes
Step Temp Press TotEng PotEng Enthalpy 
  125000    1586.0391   -282.68058   -19335.405   -23364.089   -19434.668 
  125495    1561.6889    52.580905   -19558.391   -23525.223   -19540.065 
Loop time of 58.9422 on 1 procs for 495 steps with 19652 atoms

Performance: 0.726 ns/day, 33.076 hours/ns, 8.398 timesteps/s
97.3% CPU use with 1 MPI tasks x no OpenMP threads

MPI task timing breakdown:
Section |  min time  |  avg time  |  max time  |%varavg| %total
---------------------------------------------------------------
Pair    | 31.351     | 31.351     | 31.351     |   0.0 | 53.19
Neigh   | 26.021     | 26.021     | 26.021     |   0.0 | 44.15
Comm    | 0.58266    | 0.58266    | 0.58266    |   0.0 |  0.99
Output  | 0.0001781  | 0.0001781  | 0.0001781  |   0.0 |  0.00
Modify  | 0.78402    | 0.78402    | 0.78402    |   0.0 |  1.33
Other   |            | 0.2036     |            |       |  0.35

Nlocal:    19652 ave 19652 max 19652 min
Histogram: 1 0 0 0 0 0 0 0 0 0
Nghost:    14829 ave 14829 max 14829 min
Histogram: 1 0 0 0 0 0 0 0 0 0
Neighs:    880216 ave 880216 max 880216 min
Histogram: 1 0 0 0 0 0 0 0 0 0

Total # of neighbors = 880216
Ave neighs/atom = 44.7901
Neighbor list builds = 495
Dangerous builds not checked
Setting up Verlet run ...
  Unit style    : metal
  Current step  : 125495
  Time step     : 0.001
Per MPI rank memory allocation (min/avg/max) = 18.22 | 18.22 | 18.22 Mbytes
Step Temp Press TotEng PotEng Enthalpy 
  125495    1561.6889    52.580905   -19558.391   -23525.223   -19540.065 
  130000    1567.5809    604.35123   -19613.075   -23594.874   -19403.503 
Loop time of 532.527 on 1 procs for 4505 steps with 19652 atoms

Performance: 0.731 ns/day, 32.836 hours/ns, 8.460 timesteps/s
99.3% CPU use with 1 MPI tasks x no OpenMP threads

MPI task timing breakdown:
Section |  min time  |  avg time  |  max time  |%varavg| %total
---------------------------------------------------------------
Pair    | 282.74     | 282.74     | 282.74     |   0.0 | 53.09
Neigh   | 236.03     | 236.03     | 236.03     |   0.0 | 44.32
Comm    | 4.9265     | 4.9265     | 4.9265     |   0.0 |  0.93
Output  | 0.073245   | 0.073245   | 0.073245   |   0.0 |  0.01
Modify  | 6.8714     | 6.8714     | 6.8714     |   0.0 |  1.29
Other   |            | 1.886      |            |       |  0.35

Nlocal:    19652 ave 19652 max 19652 min
Histogram: 1 0 0 0 0 0 0 0 0 0
Nghost:    14933 ave 14933 max 14933 min
Histogram: 1 0 0 0 0 0 0 0 0 0
Neighs:    884936 ave 884936 max 884936 min
Histogram: 1 0 0 0 0 0 0 0 0 0

Total # of neighbors = 884936
Ave neighs/atom = 45.0303
Neighbor list builds = 4505
Dangerous builds not checked
Setting up Verlet run ...
  Unit style    : metal
  Current step  : 130000
  Time step     : 0.001
Per MPI rank memory allocation (min/avg/max) = 18.22 | 18.22 | 18.22 Mbytes
Step Temp Press TotEng PotEng Enthalpy 
  130000    1567.5809    604.35123   -19613.075   -23594.874   -19403.503 
  130495    1514.4325    44.626308   -19845.722   -23692.519   -19830.285 
Loop time of 58.0641 on 1 procs for 495 steps with 19652 atoms

Performance: 0.737 ns/day, 32.584 hours/ns, 8.525 timesteps/s
98.3% CPU use with 1 MPI tasks x no OpenMP threads

MPI task timing breakdown:
Section |  min time  |  avg time  |  max time  |%varavg| %total
---------------------------------------------------------------
Pair    | 30.441     | 30.441     | 30.441     |   0.0 | 52.43
Neigh   | 26.11      | 26.11      | 26.11      |   0.0 | 44.97
Comm    | 0.52764    | 0.52764    | 0.52764    |   0.0 |  0.91
Output  | 0.00013494 | 0.00013494 | 0.00013494 |   0.0 |  0.00
Modify  | 0.776      | 0.776      | 0.776      |   0.0 |  1.34
Other   |            | 0.2089     |            |       |  0.36

Nlocal:    19652 ave 19652 max 19652 min
Histogram: 1 0 0 0 0 0 0 0 0 0
Nghost:    14954 ave 14954 max 14954 min
Histogram: 1 0 0 0 0 0 0 0 0 0
Neighs:    886906 ave 886906 max 886906 min
Histogram: 1 0 0 0 0 0 0 0 0 0

Total # of neighbors = 886906
Ave neighs/atom = 45.1306
Neighbor list builds = 495
Dangerous builds not checked
Setting up Verlet run ...
  Unit style    : metal
  Current step  : 130495
  Time step     : 0.001
Per MPI rank memory allocation (min/avg/max) = 18.22 | 18.22 | 18.22 Mbytes
Step Temp Press TotEng PotEng Enthalpy 
  130495    1514.4325    44.626308   -19845.722   -23692.519   -19830.285 
  135000    1489.9139    427.15405   -19994.511   -23779.028   -19847.646 
Loop time of 523.29 on 1 procs for 4505 steps with 19652 atoms

Performance: 0.744 ns/day, 32.266 hours/ns, 8.609 timesteps/s
99.2% CPU use with 1 MPI tasks x no OpenMP threads

MPI task timing breakdown:
Section |  min time  |  avg time  |  max time  |%varavg| %total
---------------------------------------------------------------
Pair    | 275.95     | 275.95     | 275.95     |   0.0 | 52.73
Neigh   | 233.96     | 233.96     | 233.96     |   0.0 | 44.71
Comm    | 4.8835     | 4.8835     | 4.8835     |   0.0 |  0.93
Output  | 0.060502   | 0.060502   | 0.060502   |   0.0 |  0.01
Modify  | 6.6398     | 6.6398     | 6.6398     |   0.0 |  1.27
Other   |            | 1.802      |            |       |  0.34

Nlocal:    19652 ave 19652 max 19652 min
Histogram: 1 0 0 0 0 0 0 0 0 0
Nghost:    14970 ave 14970 max 14970 min
Histogram: 1 0 0 0 0 0 0 0 0 0
Neighs:    892669 ave 892669 max 892669 min
Histogram: 1 0 0 0 0 0 0 0 0 0

Total # of neighbors = 892669
Ave neighs/atom = 45.4238
Neighbor list builds = 4505
Dangerous builds not checked
Setting up Verlet run ...
  Unit style    : metal
  Current step  : 135000
  Time step     : 0.001
Per MPI rank memory allocation (min/avg/max) = 18.22 | 18.22 | 18.22 Mbytes
Step Temp Press TotEng PotEng Enthalpy 
  135000    1489.9139    427.15405   -19994.511   -23779.028   -19847.646 
  135495    1470.1418    23.096204   -20146.856    -23881.15   -20138.934 
Loop time of 52.5012 on 1 procs for 495 steps with 19652 atoms

Performance: 0.815 ns/day, 29.462 hours/ns, 9.428 timesteps/s
98.9% CPU use with 1 MPI tasks x no OpenMP threads

MPI task timing breakdown:
Section |  min time  |  avg time  |  max time  |%varavg| %total
---------------------------------------------------------------
Pair    | 26.78      | 26.78      | 26.78      |   0.0 | 51.01
Neigh   | 24.335     | 24.335     | 24.335     |   0.0 | 46.35
Comm    | 0.48234    | 0.48234    | 0.48234    |   0.0 |  0.92
Output  | 0.00012589 | 0.00012589 | 0.00012589 |   0.0 |  0.00
Modify  | 0.71978    | 0.71978    | 0.71978    |   0.0 |  1.37
Other   |            | 0.1834     |            |       |  0.35

Nlocal:    19652 ave 19652 max 19652 min
Histogram: 1 0 0 0 0 0 0 0 0 0
Nghost:    14959 ave 14959 max 14959 min
Histogram: 1 0 0 0 0 0 0 0 0 0
Neighs:    894445 ave 894445 max 894445 min
Histogram: 1 0 0 0 0 0 0 0 0 0

Total # of neighbors = 894445
Ave neighs/atom = 45.5142
Neighbor list builds = 495
Dangerous builds not checked
Setting up Verlet run ...
  Unit style    : metal
  Current step  : 135495
  Time step     : 0.001
Per MPI rank memory allocation (min/avg/max) = 18.22 | 18.22 | 18.22 Mbytes
Step Temp Press TotEng PotEng Enthalpy 
  135495    1470.1418    23.096204   -20146.856    -23881.15   -20138.934 
  140000    1446.3266    672.01738   -20288.144   -23961.945   -20059.013 
Loop time of 472.373 on 1 procs for 4505 steps with 19652 atoms

Performance: 0.824 ns/day, 29.126 hours/ns, 9.537 timesteps/s
99.1% CPU use with 1 MPI tasks x no OpenMP threads

MPI task timing breakdown:
Section |  min time  |  avg time  |  max time  |%varavg| %total
---------------------------------------------------------------
Pair    | 242.53     | 242.53     | 242.53     |   0.0 | 51.34
Neigh   | 217.75     | 217.75     | 217.75     |   0.0 | 46.10
Comm    | 4.3677     | 4.3677     | 4.3677     |   0.0 |  0.92
Output  | 0.091214   | 0.091214   | 0.091214   |   0.0 |  0.02
Modify  | 6.0705     | 6.0705     | 6.0705     |   0.0 |  1.29
Other   |            | 1.563      |            |       |  0.33

Nlocal:    19652 ave 19652 max 19652 min
Histogram: 1 0 0 0 0 0 0 0 0 0
Nghost:    14994 ave 14994 max 14994 min
Histogram: 1 0 0 0 0 0 0 0 0 0
Neighs:    900289 ave 900289 max 900289 min
Histogram: 1 0 0 0 0 0 0 0 0 0

Total # of neighbors = 900289
Ave neighs/atom = 45.8116
Neighbor list builds = 4505
Dangerous builds not checked
Setting up Verlet run ...
  Unit style    : metal
  Current step  : 140000
  Time step     : 0.001
Per MPI rank memory allocation (min/avg/max) = 18.22 | 18.22 | 18.22 Mbytes
Step Temp Press TotEng PotEng Enthalpy 
  140000    1446.3266    672.01738   -20288.144   -23961.945   -20059.013 
  140495    1412.8802   -73.729144   -20451.979   -24040.824     -20477.1 
Loop time of 54.0056 on 1 procs for 495 steps with 19652 atoms

Performance: 0.792 ns/day, 30.306 hours/ns, 9.166 timesteps/s
98.7% CPU use with 1 MPI tasks x no OpenMP threads

MPI task timing breakdown:
Section |  min time  |  avg time  |  max time  |%varavg| %total
---------------------------------------------------------------
Pair    | 27.71      | 27.71      | 27.71      |   0.0 | 51.31
Neigh   | 24.878     | 24.878     | 24.878     |   0.0 | 46.06
Comm    | 0.51065    | 0.51065    | 0.51065    |   0.0 |  0.95
Output  | 0.0001471  | 0.0001471  | 0.0001471  |   0.0 |  0.00
Modify  | 0.71641    | 0.71641    | 0.71641    |   0.0 |  1.33
Other   |            | 0.1904     |            |       |  0.35

Nlocal:    19652 ave 19652 max 19652 min
Histogram: 1 0 0 0 0 0 0 0 0 0
Nghost:    14985 ave 14985 max 14985 min
Histogram: 1 0 0 0 0 0 0 0 0 0
Neighs:    901057 ave 901057 max 901057 min
Histogram: 1 0 0 0 0 0 0 0 0 0

Total # of neighbors = 901057
Ave neighs/atom = 45.8507
Neighbor list builds = 495
Dangerous builds not checked
Setting up Verlet run ...
  Unit style    : metal
  Current step  : 140495
  Time step     : 0.001
Per MPI rank memory allocation (min/avg/max) = 18.22 | 18.22 | 18.22 Mbytes
Step Temp Press TotEng PotEng Enthalpy 
  140495    1412.8802   -73.729144   -20451.979   -24040.824     -20477.1 
  145000    1409.6244    55.379891   -20475.645   -24056.219   -20456.796 
Loop time of 488.61 on 1 procs for 4505 steps with 19652 atoms

Performance: 0.797 ns/day, 30.128 hours/ns, 9.220 timesteps/s
98.9% CPU use with 1 MPI tasks x no OpenMP threads

MPI task timing breakdown:
Section |  min time  |  avg time  |  max time  |%varavg| %total
---------------------------------------------------------------
Pair    | 251.78     | 251.78     | 251.78     |   0.0 | 51.53
Neigh   | 224.1      | 224.1      | 224.1      |   0.0 | 45.87
Comm    | 4.5431     | 4.5431     | 4.5431     |   0.0 |  0.93
Output  | 0.094616   | 0.094616   | 0.094616   |   0.0 |  0.02
Modify  | 6.4271     | 6.4271     | 6.4271     |   0.0 |  1.32
Other   |            | 1.66       |            |       |  0.34

Nlocal:    19652 ave 19652 max 19652 min
Histogram: 1 0 0 0 0 0 0 0 0 0
Nghost:    15009 ave 15009 max 15009 min
Histogram: 1 0 0 0 0 0 0 0 0 0
Neighs:    901561 ave 901561 max 901561 min
Histogram: 1 0 0 0 0 0 0 0 0 0

Total # of neighbors = 901561
Ave neighs/atom = 45.8763
Neighbor list builds = 4505
Dangerous builds not checked
Setting up Verlet run ...
  Unit style    : metal
  Current step  : 145000
  Time step     : 0.001
Per MPI rank memory allocation (min/avg/max) = 18.22 | 18.22 | 18.22 Mbytes
Step Temp Press TotEng PotEng Enthalpy 
  145000    1409.6244    55.379891   -20475.645   -24056.219   -20456.796 
  145495    1360.1515    304.38016   -20766.237   -24221.146   -20663.577 
Loop time of 50.4873 on 1 procs for 495 steps with 19652 atoms

Performance: 0.847 ns/day, 28.332 hours/ns, 9.804 timesteps/s
96.8% CPU use with 1 MPI tasks x no OpenMP threads

MPI task timing breakdown:
Section |  min time  |  avg time  |  max time  |%varavg| %total
---------------------------------------------------------------
Pair    | 25.887     | 25.887     | 25.887     |   0.0 | 51.27
Neigh   | 23.319     | 23.319     | 23.319     |   0.0 | 46.19
Comm    | 0.47145    | 0.47145    | 0.47145    |   0.0 |  0.93
Output  | 0.00018978 | 0.00018978 | 0.00018978 |   0.0 |  0.00
Modify  | 0.64628    | 0.64628    | 0.64628    |   0.0 |  1.28
Other   |            | 0.1637     |            |       |  0.32

Nlocal:    19652 ave 19652 max 19652 min
Histogram: 1 0 0 0 0 0 0 0 0 0
Nghost:    15047 ave 15047 max 15047 min
Histogram: 1 0 0 0 0 0 0 0 0 0
Neighs:    910012 ave 910012 max 910012 min
Histogram: 1 0 0 0 0 0 0 0 0 0

Total # of neighbors = 910012
Ave neighs/atom = 46.3063
Neighbor list builds = 495
Dangerous builds not checked
Setting up Verlet run ...
  Unit style    : metal
  Current step  : 145495
  Time step     : 0.001
Per MPI rank memory allocation (min/avg/max) = 18.22 | 18.22 | 18.22 Mbytes
Step Temp Press TotEng PotEng Enthalpy 
  145495    1360.1515    304.38016   -20766.237   -24221.146   -20663.577 
  150000    1348.5323   -345.60813   -20899.476   -24324.871   -21015.967 
Loop time of 492.898 on 1 procs for 4505 steps with 19652 atoms

Performance: 0.790 ns/day, 30.392 hours/ns, 9.140 timesteps/s
99.1% CPU use with 1 MPI tasks x no OpenMP threads

MPI task timing breakdown:
Section |  min time  |  avg time  |  max time  |%varavg| %total
---------------------------------------------------------------
Pair    | 258.29     | 258.29     | 258.29     |   0.0 | 52.40
Neigh   | 221.95     | 221.95     | 221.95     |   0.0 | 45.03
Comm    | 4.5434     | 4.5434     | 4.5434     |   0.0 |  0.92
Output  | 0.084683   | 0.084683   | 0.084683   |   0.0 |  0.02
Modify  | 6.3449     | 6.3449     | 6.3449     |   0.0 |  1.29
Other   |            | 1.693      |            |       |  0.34

Nlocal:    19652 ave 19652 max 19652 min
Histogram: 1 0 0 0 0 0 0 0 0 0
Nghost:    15047 ave 15047 max 15047 min
Histogram: 1 0 0 0 0 0 0 0 0 0
Neighs:    910763 ave 910763 max 910763 min
Histogram: 1 0 0 0 0 0 0 0 0 0

Total # of neighbors = 910763
Ave neighs/atom = 46.3445
Neighbor list builds = 4505
Dangerous builds not checked
Setting up Verlet run ...
  Unit style    : metal
  Current step  : 150000
  Time step     : 0.001
Per MPI rank memory allocation (min/avg/max) = 18.22 | 18.22 | 18.22 Mbytes
Step Temp Press TotEng PotEng Enthalpy 
  150000    1348.5323   -345.60813   -20899.476   -24324.871   -21015.967 
  150495    1317.1075   -182.99927   -21086.636   -24432.209   -21148.035 
Loop time of 59.8079 on 1 procs for 495 steps with 19652 atoms

Performance: 0.715 ns/day, 33.562 hours/ns, 8.276 timesteps/s
99.9% CPU use with 1 MPI tasks x no OpenMP threads

MPI task timing breakdown:
Section |  min time  |  avg time  |  max time  |%varavg| %total
---------------------------------------------------------------
Pair    | 31.979     | 31.979     | 31.979     |   0.0 | 53.47
Neigh   | 26.255     | 26.255     | 26.255     |   0.0 | 43.90
Comm    | 0.56699    | 0.56699    | 0.56699    |   0.0 |  0.95
Output  | 0.00018096 | 0.00018096 | 0.00018096 |   0.0 |  0.00
Modify  | 0.7899     | 0.7899     | 0.7899     |   0.0 |  1.32
Other   |            | 0.217      |            |       |  0.36

Nlocal:    19652 ave 19652 max 19652 min
Histogram: 1 0 0 0 0 0 0 0 0 0
Nghost:    15126 ave 15126 max 15126 min
Histogram: 1 0 0 0 0 0 0 0 0 0
Neighs:    915568 ave 915568 max 915568 min
Histogram: 1 0 0 0 0 0 0 0 0 0

Total # of neighbors = 915568
Ave neighs/atom = 46.589
Neighbor list builds = 495
Dangerous builds not checked
Setting up Verlet run ...
  Unit style    : metal
  Current step  : 150495
  Time step     : 0.001
Per MPI rank memory allocation (min/avg/max) = 18.22 | 18.22 | 18.22 Mbytes
Step Temp Press TotEng PotEng Enthalpy 
  150495    1317.1075   -182.99927   -21086.636   -24432.209   -21148.035 
  155000    1289.8274    137.32926   -21192.461    -24468.74   -21146.564 
Loop time of 582.913 on 1 procs for 4505 steps with 19652 atoms

Performance: 0.668 ns/day, 35.942 hours/ns, 7.728 timesteps/s
98.9% CPU use with 1 MPI tasks x no OpenMP threads

MPI task timing breakdown:
Section |  min time  |  avg time  |  max time  |%varavg| %total
---------------------------------------------------------------
Pair    | 316.48     | 316.48     | 316.48     |   0.0 | 54.29
Neigh   | 251.84     | 251.84     | 251.84     |   0.0 | 43.20
Comm    | 5.3089     | 5.3089     | 5.3089     |   0.0 |  0.91
Output  | 0.089234   | 0.089234   | 0.089234   |   0.0 |  0.02
Modify  | 7.2332     | 7.2332     | 7.2332     |   0.0 |  1.24
Other   |            | 1.967      |            |       |  0.34

Nlocal:    19652 ave 19652 max 19652 min
Histogram: 1 0 0 0 0 0 0 0 0 0
Nghost:    15094 ave 15094 max 15094 min
Histogram: 1 0 0 0 0 0 0 0 0 0
Neighs:    919215 ave 919215 max 919215 min
Histogram: 1 0 0 0 0 0 0 0 0 0

Total # of neighbors = 919215
Ave neighs/atom = 46.7746
Neighbor list builds = 4505
Dangerous builds not checked
Setting up Verlet run ...
  Unit style    : metal
  Current step  : 155000
  Time step     : 0.001
Per MPI rank memory allocation (min/avg/max) = 18.22 | 18.22 | 18.22 Mbytes
Step Temp Press TotEng PotEng Enthalpy 
  155000    1289.8274    137.32926   -21192.461    -24468.74   -21146.564 
  155495    1263.0978    75.129521   -21361.856   -24570.239   -21336.829 
Loop time of 61.6536 on 1 procs for 495 steps with 19652 atoms

Performance: 0.694 ns/day, 34.598 hours/ns, 8.029 timesteps/s
100.0% CPU use with 1 MPI tasks x no OpenMP threads

MPI task timing breakdown:
Section |  min time  |  avg time  |  max time  |%varavg| %total
---------------------------------------------------------------
Pair    | 33.197     | 33.197     | 33.197     |   0.0 | 53.84
Neigh   | 27.002     | 27.002     | 27.002     |   0.0 | 43.80
Comm    | 0.5378     | 0.5378     | 0.5378     |   0.0 |  0.87
Output  | 0.0001812  | 0.0001812  | 0.0001812  |   0.0 |  0.00
Modify  | 0.71596    | 0.71596    | 0.71596    |   0.0 |  1.16
Other   |            | 0.2005     |            |       |  0.33

Nlocal:    19652 ave 19652 max 19652 min
Histogram: 1 0 0 0 0 0 0 0 0 0
Nghost:    15098 ave 15098 max 15098 min
Histogram: 1 0 0 0 0 0 0 0 0 0
Neighs:    923144 ave 923144 max 923144 min
Histogram: 1 0 0 0 0 0 0 0 0 0

Total # of neighbors = 923144
Ave neighs/atom = 46.9746
Neighbor list builds = 495
Dangerous builds not checked
Setting up Verlet run ...
  Unit style    : metal
  Current step  : 155495
  Time step     : 0.001
Per MPI rank memory allocation (min/avg/max) = 18.22 | 18.22 | 18.22 Mbytes
Step Temp Press TotEng PotEng Enthalpy 
  155495    1263.0978    75.129521   -21361.856   -24570.239   -21336.829 
  160000    1260.1218    199.29487    -21465.26   -24666.084   -21399.169 
Loop time of 561.692 on 1 procs for 4505 steps with 19652 atoms

Performance: 0.693 ns/day, 34.634 hours/ns, 8.020 timesteps/s
99.4% CPU use with 1 MPI tasks x no OpenMP threads

MPI task timing breakdown:
Section |  min time  |  avg time  |  max time  |%varavg| %total
---------------------------------------------------------------
Pair    | 304.16     | 304.16     | 304.16     |   0.0 | 54.15
Neigh   | 243.33     | 243.33     | 243.33     |   0.0 | 43.32
Comm    | 5.2616     | 5.2616     | 5.2616     |   0.0 |  0.94
Output  | 0.074749   | 0.074749   | 0.074749   |   0.0 |  0.01
Modify  | 6.9684     | 6.9684     | 6.9684     |   0.0 |  1.24
Other   |            | 1.895      |            |       |  0.34

Nlocal:    19652 ave 19652 max 19652 min
Histogram: 1 0 0 0 0 0 0 0 0 0
Nghost:    15173 ave 15173 max 15173 min
Histogram: 1 0 0 0 0 0 0 0 0 0
Neighs:    926602 ave 926602 max 926602 min
Histogram: 1 0 0 0 0 0 0 0 0 0

Total # of neighbors = 926602
Ave neighs/atom = 47.1505
Neighbor list builds = 4505
Dangerous builds not checked
Setting up Verlet run ...
  Unit style    : metal
  Current step  : 160000
  Time step     : 0.001
Per MPI rank memory allocation (min/avg/max) = 18.22 | 18.22 | 18.22 Mbytes
Step Temp Press TotEng PotEng Enthalpy 
  160000    1260.1218    199.29487    -21465.26   -24666.084   -21399.169 
  160495     1208.862    271.57212   -21669.834   -24740.454   -21580.154 
Loop time of 60.8923 on 1 procs for 495 steps with 19652 atoms

Performance: 0.702 ns/day, 34.171 hours/ns, 8.129 timesteps/s
97.5% CPU use with 1 MPI tasks x no OpenMP threads

MPI task timing breakdown:
Section |  min time  |  avg time  |  max time  |%varavg| %total
---------------------------------------------------------------
Pair    | 32.467     | 32.467     | 32.467     |   0.0 | 53.32
Neigh   | 26.848     | 26.848     | 26.848     |   0.0 | 44.09
Comm    | 0.56973    | 0.56973    | 0.56973    |   0.0 |  0.94
Output  | 0.00019097 | 0.00019097 | 0.00019097 |   0.0 |  0.00
Modify  | 0.78496    | 0.78496    | 0.78496    |   0.0 |  1.29
Other   |            | 0.2228     |            |       |  0.37

Nlocal:    19652 ave 19652 max 19652 min
Histogram: 1 0 0 0 0 0 0 0 0 0
Nghost:    15163 ave 15163 max 15163 min
Histogram: 1 0 0 0 0 0 0 0 0 0
Neighs:    930960 ave 930960 max 930960 min
Histogram: 1 0 0 0 0 0 0 0 0 0

Total # of neighbors = 930960
Ave neighs/atom = 47.3723
Neighbor list builds = 495
Dangerous builds not checked
Setting up Verlet run ...
  Unit style    : metal
  Current step  : 160495
  Time step     : 0.001
Per MPI rank memory allocation (min/avg/max) = 18.22 | 18.22 | 18.22 Mbytes
Step Temp Press TotEng PotEng Enthalpy 
  160495     1208.862    271.57212   -21669.834   -24740.454   -21580.154 
  165000    1200.7231   -250.35593   -21792.244    -24842.19   -21874.857 
Loop time of 535.631 on 1 procs for 4505 steps with 19652 atoms

Performance: 0.727 ns/day, 33.027 hours/ns, 8.411 timesteps/s
98.7% CPU use with 1 MPI tasks x no OpenMP threads

MPI task timing breakdown:
Section |  min time  |  avg time  |  max time  |%varavg| %total
---------------------------------------------------------------
Pair    | 287.14     | 287.14     | 287.14     |   0.0 | 53.61
Neigh   | 234.8      | 234.8      | 234.8      |   0.0 | 43.84
Comm    | 4.9685     | 4.9685     | 4.9685     |   0.0 |  0.93
Output  | 0.082302   | 0.082302   | 0.082302   |   0.0 |  0.02
Modify  | 6.7939     | 6.7939     | 6.7939     |   0.0 |  1.27
Other   |            | 1.85       |            |       |  0.35

Nlocal:    19652 ave 19652 max 19652 min
Histogram: 1 0 0 0 0 0 0 0 0 0
Nghost:    15177 ave 15177 max 15177 min
Histogram: 1 0 0 0 0 0 0 0 0 0
Neighs:    932116 ave 932116 max 932116 min
Histogram: 1 0 0 0 0 0 0 0 0 0

Total # of neighbors = 932116
Ave neighs/atom = 47.4311
Neighbor list builds = 4505
Dangerous builds not checked
Setting up Verlet run ...
  Unit style    : metal
  Current step  : 165000
  Time step     : 0.001
Per MPI rank memory allocation (min/avg/max) = 18.22 | 18.22 | 18.22 Mbytes
Step Temp Press TotEng PotEng Enthalpy 
  165000    1200.7231   -250.35593   -21792.244    -24842.19   -21874.857 
  165495     1164.919    57.777541   -21956.975   -24915.975   -21938.001 
Loop time of 62.3862 on 1 procs for 495 steps with 19652 atoms

Performance: 0.686 ns/day, 35.009 hours/ns, 7.934 timesteps/s
100.0% CPU use with 1 MPI tasks x no OpenMP threads

MPI task timing breakdown:
Section |  min time  |  avg time  |  max time  |%varavg| %total
---------------------------------------------------------------
Pair    | 33.837     | 33.837     | 33.837     |   0.0 | 54.24
Neigh   | 26.918     | 26.918     | 26.918     |   0.0 | 43.15
Comm    | 0.59424    | 0.59424    | 0.59424    |   0.0 |  0.95
Output  | 0.00023794 | 0.00023794 | 0.00023794 |   0.0 |  0.00
Modify  | 0.82192    | 0.82192    | 0.82192    |   0.0 |  1.32
Other   |            | 0.2144     |            |       |  0.34

Nlocal:    19652 ave 19652 max 19652 min
Histogram: 1 0 0 0 0 0 0 0 0 0
Nghost:    15244 ave 15244 max 15244 min
Histogram: 1 0 0 0 0 0 0 0 0 0
Neighs:    936710 ave 936710 max 936710 min
Histogram: 1 0 0 0 0 0 0 0 0 0

Total # of neighbors = 936710
Ave neighs/atom = 47.6649
Neighbor list builds = 495
Dangerous builds not checked
Setting up Verlet run ...
  Unit style    : metal
  Current step  : 165495
  Time step     : 0.001
Per MPI rank memory allocation (min/avg/max) = 18.22 | 18.22 | 18.22 Mbytes
Step Temp Press TotEng PotEng Enthalpy 
  165495     1164.919    57.777541   -21956.975   -24915.975   -21938.001 
  170000    1150.0224    210.54324   -22080.146   -25001.308   -22011.284 
Loop time of 575.753 on 1 procs for 4505 steps with 19652 atoms

Performance: 0.676 ns/day, 35.501 hours/ns, 7.825 timesteps/s
99.0% CPU use with 1 MPI tasks x no OpenMP threads

MPI task timing breakdown:
Section |  min time  |  avg time  |  max time  |%varavg| %total
---------------------------------------------------------------
Pair    | 301.48     | 301.48     | 301.48     |   0.0 | 52.36
Neigh   | 260.2      | 260.2      | 260.2      |   0.0 | 45.19
Comm    | 5.0791     | 5.0791     | 5.0791     |   0.0 |  0.88
Output  | 0.14725    | 0.14725    | 0.14725    |   0.0 |  0.03
Modify  | 6.9538     | 6.9538     | 6.9538     |   0.0 |  1.21
Other   |            | 1.898      |            |       |  0.33

Nlocal:    19652 ave 19652 max 19652 min
Histogram: 1 0 0 0 0 0 0 0 0 0
Nghost:    15267 ave 15267 max 15267 min
Histogram: 1 0 0 0 0 0 0 0 0 0
Neighs:    940567 ave 940567 max 940567 min
Histogram: 1 0 0 0 0 0 0 0 0 0

[...]
Setting up Verlet run ...
  Unit style    : metal
  Current step  : 240000
  Time step     : 0.001
Per MPI rank memory allocation (min/avg/max) = 18.22 | 18.22 | 18.22 Mbytes
Step Temp Press TotEng PotEng Enthalpy 
  240000    448.67013   -219.26521   -26660.552   -27800.215   -26725.719 
  240495    419.56087    287.72678   -26820.436   -27886.159   -26735.343 
Loop time of 58.5801 on 1 procs for 495 steps with 19652 atoms

Performance: 0.730 ns/day, 32.873 hours/ns, 8.450 timesteps/s
99.3% CPU use with 1 MPI tasks x no OpenMP threads

MPI task timing breakdown:
Section |  min time  |  avg time  |  max time  |%varavg| %total
---------------------------------------------------------------
Pair    | 30.995     | 30.995     | 30.995     |   0.0 | 52.91
Neigh   | 26.148     | 26.148     | 26.148     |   0.0 | 44.64
Comm    | 0.50737    | 0.50737    | 0.50737    |   0.0 |  0.87
Output  | 0.00017095 | 0.00017095 | 0.00017095 |   0.0 |  0.00
Modify  | 0.7391     | 0.7391     | 0.7391     |   0.0 |  1.26
Other   |            | 0.1902     |            |       |  0.32

Nlocal:    19652 ave 19652 max 19652 min
Histogram: 1 0 0 0 0 0 0 0 0 0
Nghost:    15839 ave 15839 max 15839 min
Histogram: 1 0 0 0 0 0 0 0 0 0
Neighs:    1.06016e+06 ave 1.06016e+06 max 1.06016e+06 min
Histogram: 1 0 0 0 0 0 0 0 0 0

Total # of neighbors = 1060157
Ave neighs/atom = 53.9465
Neighbor list builds = 495
Dangerous builds not checked
Setting up Verlet run ...
  Unit style    : metal
  Current step  : 240495
  Time step     : 0.001
Per MPI rank memory allocation (min/avg/max) = 18.22 | 18.22 | 18.22 Mbytes
Step Temp Press TotEng PotEng Enthalpy 
  240495    419.56087    287.72678   -26820.436   -27886.159   -26735.343 
  245000    398.19962   -177.38956   -26979.558   -27991.022   -27031.933 
Loop time of 566.182 on 1 procs for 4505 steps with 19652 atoms

Performance: 0.687 ns/day, 34.911 hours/ns, 7.957 timesteps/s
98.8% CPU use with 1 MPI tasks x no OpenMP threads

MPI task timing breakdown:
Section |  min time  |  avg time  |  max time  |%varavg| %total
---------------------------------------------------------------
Pair    | 306        | 306        | 306        |   0.0 | 54.05
Neigh   | 246.09     | 246.09     | 246.09     |   0.0 | 43.46
Comm    | 5.0729     | 5.0729     | 5.0729     |   0.0 |  0.90
Output  | 0.082076   | 0.082076   | 0.082076   |   0.0 |  0.01
Modify  | 7.088      | 7.088      | 7.088      |   0.0 |  1.25
Other   |            | 1.845      |            |       |  0.33

Nlocal:    19652 ave 19652 max 19652 min
Histogram: 1 0 0 0 0 0 0 0 0 0
Nghost:    15836 ave 15836 max 15836 min
Histogram: 1 0 0 0 0 0 0 0 0 0
Neighs:    1.06311e+06 ave 1.06311e+06 max 1.06311e+06 min
Histogram: 1 0 0 0 0 0 0 0 0 0

Total # of neighbors = 1063110
Ave neighs/atom = 54.0968
Neighbor list builds = 4505
Dangerous builds not checked
Setting up Verlet run ...
  Unit style    : metal
  Current step  : 245000
  Time step     : 0.001
Per MPI rank memory allocation (min/avg/max) = 18.22 | 18.22 | 18.22 Mbytes
Step Temp Press TotEng PotEng Enthalpy 
  245000    398.19962   -177.38956   -26979.558   -27991.022   -27031.933 
  245495    373.83535     32.92881   -27123.303   -28072.879   -27113.612 
Loop time of 66.12 on 1 procs for 495 steps with 19652 atoms

Performance: 0.647 ns/day, 37.104 hours/ns, 7.486 timesteps/s
97.4% CPU use with 1 MPI tasks x no OpenMP threads

MPI task timing breakdown:
Section |  min time  |  avg time  |  max time  |%varavg| %total
---------------------------------------------------------------
Pair    | 36.053     | 36.053     | 36.053     |   0.0 | 54.53
Neigh   | 28.427     | 28.427     | 28.427     |   0.0 | 42.99
Comm    | 0.59152    | 0.59152    | 0.59152    |   0.0 |  0.89
Output  | 0.000211   | 0.000211   | 0.000211   |   0.0 |  0.00
Modify  | 0.82346    | 0.82346    | 0.82346    |   0.0 |  1.25
Other   |            | 0.2247     |            |       |  0.34

Nlocal:    19652 ave 19652 max 19652 min
Histogram: 1 0 0 0 0 0 0 0 0 0
Nghost:    15902 ave 15902 max 15902 min
Histogram: 1 0 0 0 0 0 0 0 0 0
Neighs:    1.06745e+06 ave 1.06745e+06 max 1.06745e+06 min
Histogram: 1 0 0 0 0 0 0 0 0 0

Total # of neighbors = 1067450
Ave neighs/atom = 54.3176
Neighbor list builds = 495
Dangerous builds not checked
Setting up Verlet run ...
  Unit style    : metal
  Current step  : 245495
  Time step     : 0.001
Per MPI rank memory allocation (min/avg/max) = 18.22 | 18.22 | 18.22 Mbytes
Step Temp Press TotEng PotEng Enthalpy 
  245495    373.83535     32.92881   -27123.303   -28072.879   -27113.612 
  250000    349.87452    338.32195   -27278.376   -28167.089   -27179.202 
Loop time of 565.293 on 1 procs for 4505 steps with 19652 atoms

Performance: 0.689 ns/day, 34.856 hours/ns, 7.969 timesteps/s
98.6% CPU use with 1 MPI tasks x no OpenMP threads

MPI task timing breakdown:
Section |  min time  |  avg time  |  max time  |%varavg| %total
---------------------------------------------------------------
Pair    | 302.48     | 302.48     | 302.48     |   0.0 | 53.51
Neigh   | 248.79     | 248.79     | 248.79     |   0.0 | 44.01
Comm    | 4.9611     | 4.9611     | 4.9611     |   0.0 |  0.88
Output  | 0.082047   | 0.082047   | 0.082047   |   0.0 |  0.01
Modify  | 7.1236     | 7.1236     | 7.1236     |   0.0 |  1.26
Other   |            | 1.855      |            |       |  0.33

Nlocal:    19652 ave 19652 max 19652 min
Histogram: 1 0 0 0 0 0 0 0 0 0
Nghost:    15958 ave 15958 max 15958 min
Histogram: 1 0 0 0 0 0 0 0 0 0
Neighs:    1.07284e+06 ave 1.07284e+06 max 1.07284e+06 min
Histogram: 1 0 0 0 0 0 0 0 0 0

Total # of neighbors = 1072840
Ave neighs/atom = 54.5919
Neighbor list builds = 4505
Dangerous builds not checked
Setting up Verlet run ...
  Unit style    : metal
  Current step  : 250000
  Time step     : 0.001
Per MPI rank memory allocation (min/avg/max) = 18.22 | 18.22 | 18.22 Mbytes
Step Temp Press TotEng PotEng Enthalpy 
  250000    349.87452    338.32195   -27278.376   -28167.089   -27179.202 
  250495    323.01353   -271.77614    -27416.72   -28237.203   -27496.361 
Loop time of 67.5622 on 1 procs for 495 steps with 19652 atoms

Performance: 0.633 ns/day, 37.914 hours/ns, 7.327 timesteps/s
98.1% CPU use with 1 MPI tasks x no OpenMP threads

MPI task timing breakdown:
Section |  min time  |  avg time  |  max time  |%varavg| %total
---------------------------------------------------------------
Pair    | 37.378     | 37.378     | 37.378     |   0.0 | 55.32
Neigh   | 28.443     | 28.443     | 28.443     |   0.0 | 42.10
Comm    | 0.64072    | 0.64072    | 0.64072    |   0.0 |  0.95
Output  | 0.0002079  | 0.0002079  | 0.0002079  |   0.0 |  0.00
Modify  | 0.87529    | 0.87529    | 0.87529    |   0.0 |  1.30
Other   |            | 0.2242     |            |       |  0.33

Nlocal:    19652 ave 19652 max 19652 min
Histogram: 1 0 0 0 0 0 0 0 0 0
Nghost:    15951 ave 15951 max 15951 min
Histogram: 1 0 0 0 0 0 0 0 0 0
Neighs:    1.07346e+06 ave 1.07346e+06 max 1.07346e+06 min
Histogram: 1 0 0 0 0 0 0 0 0 0

Total # of neighbors = 1073462
Ave neighs/atom = 54.6235
Neighbor list builds = 495
Dangerous builds not checked
Setting up Verlet run ...
  Unit style    : metal
  Current step  : 250495
  Time step     : 0.001
Per MPI rank memory allocation (min/avg/max) = 18.22 | 18.22 | 18.22 Mbytes
Step Temp Press TotEng PotEng Enthalpy 
  250495    323.01353   -271.77614    -27416.72   -28237.203   -27496.361 
  255000    301.24966    406.14716   -27558.192   -28323.393   -27439.749 
Loop time of 553.984 on 1 procs for 4505 steps with 19652 atoms

Performance: 0.703 ns/day, 34.159 hours/ns, 8.132 timesteps/s
99.2% CPU use with 1 MPI tasks x no OpenMP threads

MPI task timing breakdown:
Section |  min time  |  avg time  |  max time  |%varavg| %total
---------------------------------------------------------------
Pair    | 297.08     | 297.08     | 297.08     |   0.0 | 53.63
Neigh   | 243.41     | 243.41     | 243.41     |   0.0 | 43.94
Comm    | 4.7921     | 4.7921     | 4.7921     |   0.0 |  0.87
Output  | 0.075812   | 0.075812   | 0.075812   |   0.0 |  0.01
Modify  | 6.8474     | 6.8474     | 6.8474     |   0.0 |  1.24
Other   |            | 1.784      |            |       |  0.32

Nlocal:    19652 ave 19652 max 19652 min
Histogram: 1 0 0 0 0 0 0 0 0 0
Nghost:    15917 ave 15917 max 15917 min
Histogram: 1 0 0 0 0 0 0 0 0 0
Neighs:    1.07997e+06 ave 1.07997e+06 max 1.07997e+06 min
Histogram: 1 0 0 0 0 0 0 0 0 0

Total # of neighbors = 1079968
Ave neighs/atom = 54.9546
Neighbor list builds = 4505
Dangerous builds not checked
Setting up Verlet run ...
  Unit style    : metal
  Current step  : 255000
  Time step     : 0.001
Per MPI rank memory allocation (min/avg/max) = 18.22 | 18.22 | 18.22 Mbytes
Step Temp Press TotEng PotEng Enthalpy 
  255000    301.24966    406.14716   -27558.192   -28323.393   -27439.749 
  255495    274.63791    147.25301   -27705.824   -28403.429   -27662.953 
Loop time of 68.1438 on 1 procs for 495 steps with 19652 atoms

Performance: 0.628 ns/day, 38.240 hours/ns, 7.264 timesteps/s
96.5% CPU use with 1 MPI tasks x no OpenMP threads

MPI task timing breakdown:
Section |  min time  |  avg time  |  max time  |%varavg| %total
---------------------------------------------------------------
Pair    | 37.856     | 37.856     | 37.856     |   0.0 | 55.55
Neigh   | 28.572     | 28.572     | 28.572     |   0.0 | 41.93
Comm    | 0.62647    | 0.62647    | 0.62647    |   0.0 |  0.92
Output  | 0.00017977 | 0.00017977 | 0.00017977 |   0.0 |  0.00
Modify  | 0.87172    | 0.87172    | 0.87172    |   0.0 |  1.28
Other   |            | 0.2169     |            |       |  0.32

Nlocal:    19652 ave 19652 max 19652 min
Histogram: 1 0 0 0 0 0 0 0 0 0
Nghost:    15942 ave 15942 max 15942 min
Histogram: 1 0 0 0 0 0 0 0 0 0
Neighs:    1.08258e+06 ave 1.08258e+06 max 1.08258e+06 min
Histogram: 1 0 0 0 0 0 0 0 0 0

Total # of neighbors = 1082577
Ave neighs/atom = 55.0874
Neighbor list builds = 495
Dangerous builds not checked
Setting up Verlet run ...
  Unit style    : metal
  Current step  : 255495
  Time step     : 0.001
Per MPI rank memory allocation (min/avg/max) = 18.22 | 18.22 | 18.22 Mbytes
Step Temp Press TotEng PotEng Enthalpy 
  255495    274.63791    147.25301   -27705.824   -28403.429   -27662.953 
  260000    251.35494    251.05852   -27846.088   -28484.553   -27773.218 
Loop time of 577.638 on 1 procs for 4505 steps with 19652 atoms

Performance: 0.674 ns/day, 35.617 hours/ns, 7.799 timesteps/s
98.9% CPU use with 1 MPI tasks x no OpenMP threads

MPI task timing breakdown:
Section |  min time  |  avg time  |  max time  |%varavg| %total
---------------------------------------------------------------
Pair    | 317.01     | 317.01     | 317.01     |   0.0 | 54.88
Neigh   | 246.2      | 246.2      | 246.2      |   0.0 | 42.62
Comm    | 5.1969     | 5.1969     | 5.1969     |   0.0 |  0.90
Output  | 0.079894   | 0.079894   | 0.079894   |   0.0 |  0.01
Modify  | 7.2378     | 7.2378     | 7.2378     |   0.0 |  1.25
Other   |            | 1.909      |            |       |  0.33

Nlocal:    19652 ave 19652 max 19652 min
Histogram: 1 0 0 0 0 0 0 0 0 0
Nghost:    15980 ave 15980 max 15980 min
Histogram: 1 0 0 0 0 0 0 0 0 0
Neighs:    1.08621e+06 ave 1.08621e+06 max 1.08621e+06 min
Histogram: 1 0 0 0 0 0 0 0 0 0

Total # of neighbors = 1086213
Ave neighs/atom = 55.2724
Neighbor list builds = 4505
Dangerous builds not checked
Setting up Verlet run ...
  Unit style    : metal
  Current step  : 260000
  Time step     : 0.001
Per MPI rank memory allocation (min/avg/max) = 18.22 | 18.22 | 18.22 Mbytes
Step Temp Press TotEng PotEng Enthalpy 
  260000    251.35494    251.05852   -27846.088   -28484.553   -27773.218 
  260495    225.50335   -73.255874   -27982.237   -28555.036   -28003.479 
Loop time of 56.9344 on 1 procs for 495 steps with 19652 atoms

Performance: 0.751 ns/day, 31.950 hours/ns, 8.694 timesteps/s
99.2% CPU use with 1 MPI tasks x no OpenMP threads

MPI task timing breakdown:
Section |  min time  |  avg time  |  max time  |%varavg| %total
---------------------------------------------------------------
Pair    | 30.413     | 30.413     | 30.413     |   0.0 | 53.42
Neigh   | 25.167     | 25.167     | 25.167     |   0.0 | 44.20
Comm    | 0.49189    | 0.49189    | 0.49189    |   0.0 |  0.86
Output  | 0.00014496 | 0.00014496 | 0.00014496 |   0.0 |  0.00
Modify  | 0.68353    | 0.68353    | 0.68353    |   0.0 |  1.20
Other   |            | 0.179      |            |       |  0.31

Nlocal:    19652 ave 19652 max 19652 min
Histogram: 1 0 0 0 0 0 0 0 0 0
Nghost:    16017 ave 16017 max 16017 min
Histogram: 1 0 0 0 0 0 0 0 0 0
Neighs:    1.08827e+06 ave 1.08827e+06 max 1.08827e+06 min
Histogram: 1 0 0 0 0 0 0 0 0 0

Total # of neighbors = 1088273
Ave neighs/atom = 55.3772
Neighbor list builds = 495
Dangerous builds not checked
Setting up Verlet run ...
  Unit style    : metal
  Current step  : 260495
  Time step     : 0.001
Per MPI rank memory allocation (min/avg/max) = 18.22 | 18.22 | 18.22 Mbytes
Step Temp Press TotEng PotEng Enthalpy 
  260495    225.50335   -73.255874   -27982.237   -28555.036   -28003.479 
  265000    200.36312    322.93261    -28123.14    -28632.08   -28029.839 
Loop time of 525.372 on 1 procs for 4505 steps with 19652 atoms

Performance: 0.741 ns/day, 32.394 hours/ns, 8.575 timesteps/s
98.8% CPU use with 1 MPI tasks x no OpenMP threads

MPI task timing breakdown:
Section |  min time  |  avg time  |  max time  |%varavg| %total
---------------------------------------------------------------
Pair    | 280.69     | 280.69     | 280.69     |   0.0 | 53.43
Neigh   | 232.14     | 232.14     | 232.14     |   0.0 | 44.19
Comm    | 4.5041     | 4.5041     | 4.5041     |   0.0 |  0.86
Output  | 0.078403   | 0.078403   | 0.078403   |   0.0 |  0.01
Modify  | 6.2929     | 6.2929     | 6.2929     |   0.0 |  1.20
Other   |            | 1.665      |            |       |  0.32

Nlocal:    19652 ave 19652 max 19652 min
Histogram: 1 0 0 0 0 0 0 0 0 0
Nghost:    16025 ave 16025 max 16025 min
Histogram: 1 0 0 0 0 0 0 0 0 0
Neighs:    1.09279e+06 ave 1.09279e+06 max 1.09279e+06 min
Histogram: 1 0 0 0 0 0 0 0 0 0

Total # of neighbors = 1092793
Ave neighs/atom = 55.6072
Neighbor list builds = 4505
Dangerous builds not checked
Setting up Verlet run ...
  Unit style    : metal
  Current step  : 265000
  Time step     : 0.001
Per MPI rank memory allocation (min/avg/max) = 18.22 | 18.22 | 18.22 Mbytes
Step Temp Press TotEng PotEng Enthalpy 
  265000    200.36312    322.93261    -28123.14    -28632.08   -28029.839 
  265495    175.46224   -11.791528   -28248.522   -28694.212   -28251.925 
Loop time of 54.069 on 1 procs for 495 steps with 19652 atoms

Performance: 0.791 ns/day, 30.342 hours/ns, 9.155 timesteps/s
99.3% CPU use with 1 MPI tasks x no OpenMP threads

MPI task timing breakdown:
Section |  min time  |  avg time  |  max time  |%varavg| %total
---------------------------------------------------------------
Pair    | 28.404     | 28.404     | 28.404     |   0.0 | 52.53
Neigh   | 24.383     | 24.383     | 24.383     |   0.0 | 45.10
Comm    | 0.44981    | 0.44981    | 0.44981    |   0.0 |  0.83
Output  | 0.00012898 | 0.00012898 | 0.00012898 |   0.0 |  0.00
Modify  | 0.66134    | 0.66134    | 0.66134    |   0.0 |  1.22
Other   |            | 0.1713     |            |       |  0.32

Nlocal:    19652 ave 19652 max 19652 min
Histogram: 1 0 0 0 0 0 0 0 0 0
Nghost:    16035 ave 16035 max 16035 min
Histogram: 1 0 0 0 0 0 0 0 0 0
Neighs:    1.09451e+06 ave 1.09451e+06 max 1.09451e+06 min
Histogram: 1 0 0 0 0 0 0 0 0 0

Total # of neighbors = 1094509
Ave neighs/atom = 55.6945
Neighbor list builds = 495
Dangerous builds not checked
Setting up Verlet run ...
  Unit style    : metal
  Current step  : 265495
  Time step     : 0.001
Per MPI rank memory allocation (min/avg/max) = 18.22 | 18.22 | 18.22 Mbytes
Step Temp Press TotEng PotEng Enthalpy 
  265495    175.46224   -11.791528   -28248.522   -28694.212   -28251.925 
  270000    148.77182    150.45198   -28390.143   -28768.037   -28346.842 
Loop time of 540.843 on 1 procs for 4505 steps with 19652 atoms

Performance: 0.720 ns/day, 33.348 hours/ns, 8.330 timesteps/s
98.4% CPU use with 1 MPI tasks x no OpenMP threads

MPI task timing breakdown:
Section |  min time  |  avg time  |  max time  |%varavg| %total
---------------------------------------------------------------
Pair    | 287.86     | 287.86     | 287.86     |   0.0 | 53.22
Neigh   | 236.28     | 236.28     | 236.28     |   0.0 | 43.69
Comm    | 4.6273     | 4.6273     | 4.6273     |   0.0 |  0.86
Output  | 3.8027     | 3.8027     | 3.8027     |   0.0 |  0.70
Modify  | 6.5749     | 6.5749     | 6.5749     |   0.0 |  1.22
Other   |            | 1.706      |            |       |  0.32

Nlocal:    19652 ave 19652 max 19652 min
Histogram: 1 0 0 0 0 0 0 0 0 0
Nghost:    16035 ave 16035 max 16035 min
Histogram: 1 0 0 0 0 0 0 0 0 0
Neighs:    1.0979e+06 ave 1.0979e+06 max 1.0979e+06 min
Histogram: 1 0 0 0 0 0 0 0 0 0

Total # of neighbors = 1097899
Ave neighs/atom = 55.867
Neighbor list builds = 4505
Dangerous builds not checked
Setting up Verlet run ...
  Unit style    : metal
  Current step  : 270000
  Time step     : 0.001
Per MPI rank memory allocation (min/avg/max) = 18.22 | 18.22 | 18.22 Mbytes
Step Temp Press TotEng PotEng Enthalpy 
  270000    148.77182    150.45198   -28390.143   -28768.037   -28346.842 
  270495    127.35524    -189.2004   -28508.457   -28831.951   -28562.861 
Loop time of 55.221 on 1 procs for 495 steps with 19652 atoms

Performance: 0.774 ns/day, 30.988 hours/ns, 8.964 timesteps/s
99.9% CPU use with 1 MPI tasks x no OpenMP threads

MPI task timing breakdown:
Section |  min time  |  avg time  |  max time  |%varavg| %total
---------------------------------------------------------------
Pair    | 29.303     | 29.303     | 29.303     |   0.0 | 53.07
Neigh   | 24.602     | 24.602     | 24.602     |   0.0 | 44.55
Comm    | 0.47107    | 0.47107    | 0.47107    |   0.0 |  0.85
Output  | 0.00016189 | 0.00016189 | 0.00016189 |   0.0 |  0.00
Modify  | 0.66771    | 0.66771    | 0.66771    |   0.0 |  1.21
Other   |            | 0.1763     |            |       |  0.32

Nlocal:    19652 ave 19652 max 19652 min
Histogram: 1 0 0 0 0 0 0 0 0 0
Nghost:    16050 ave 16050 max 16050 min
Histogram: 1 0 0 0 0 0 0 0 0 0
Neighs:    1.09955e+06 ave 1.09955e+06 max 1.09955e+06 min
Histogram: 1 0 0 0 0 0 0 0 0 0

Total # of neighbors = 1099551
Ave neighs/atom = 55.9511
Neighbor list builds = 495
Dangerous builds not checked
Setting up Verlet run ...
  Unit style    : metal
  Current step  : 270495
  Time step     : 0.001
Per MPI rank memory allocation (min/avg/max) = 18.22 | 18.22 | 18.22 Mbytes
Step Temp Press TotEng PotEng Enthalpy 
  270495    127.35524    -189.2004   -28508.457   -28831.951   -28562.861 
  275000    99.827831   -252.62096   -28651.075   -28904.647   -28723.583 
Loop time of 553.513 on 1 procs for 4505 steps with 19652 atoms

Performance: 0.703 ns/day, 34.130 hours/ns, 8.139 timesteps/s
98.4% CPU use with 1 MPI tasks x no OpenMP threads

MPI task timing breakdown:
Section |  min time  |  avg time  |  max time  |%varavg| %total
---------------------------------------------------------------
Pair    | 300.08     | 300.08     | 300.08     |   0.0 | 54.21
Neigh   | 239.78     | 239.78     | 239.78     |   0.0 | 43.32
Comm    | 4.8962     | 4.8962     | 4.8962     |   0.0 |  0.88
Output  | 0.08345    | 0.08345    | 0.08345    |   0.0 |  0.02
Modify  | 6.8328     | 6.8328     | 6.8328     |   0.0 |  1.23
Other   |            | 1.84       |            |       |  0.33

Nlocal:    19652 ave 19652 max 19652 min
Histogram: 1 0 0 0 0 0 0 0 0 0
Nghost:    16082 ave 16082 max 16082 min
Histogram: 1 0 0 0 0 0 0 0 0 0
Neighs:    1.10214e+06 ave 1.10214e+06 max 1.10214e+06 min
Histogram: 1 0 0 0 0 0 0 0 0 0

Total # of neighbors = 1102138
Ave neighs/atom = 56.0827
Neighbor list builds = 4505
Dangerous builds not checked
Total wall time: 8:49:50
