LAMMPS (12 Dec 2018)
Lattice spacing in x,y,z = 4 4 4
Created orthogonal box = (0 0 0) to (68 68 68)
  1 by 1 by 2 MPI processor grid
Created 19652 atoms
  Time spent = 0.0599949 secs
Setting atom values ...
  206 settings made for type/fraction
Neighbor list info ...
  update every 1 steps, delay 0 steps, check no
  max neighbors/atom: 2000, page size: 100000
  master list distance cutoff = 8.5
  ghost atom cutoff = 8.5
  binsize = 4.25, bins = 16 16 16
  1 neighbor lists, perpetual/occasional/extra = 1 0 0
  (1) pair eam/alloy, perpetual
      attributes: half, newton on
      pair build: half/bin/atomonly/newton
      stencil: half/bin/3d/newton
      bin: standard
Setting up Verlet run ...
  Unit style    : metal
  Current step  : 0
  Time step     : 0.001
Per MPI rank memory allocation (min/avg/max) = 11.15 | 11.15 | 11.15 Mbytes
Step Temp Press TotEng PotEng Enthalpy 
       0          300    264566.39   -21465.716   -22227.744    30456.241 
    1000    163.52365    261819.66   -21465.507   -21880.872    29917.396 
Loop time of 85.6301 on 2 procs for 1000 steps with 19652 atoms

Performance: 1.009 ns/day, 23.786 hours/ns, 11.678 timesteps/s
99.5% CPU use with 2 MPI tasks x no OpenMP threads

MPI task timing breakdown:
Section |  min time  |  avg time  |  max time  |%varavg| %total
---------------------------------------------------------------
Pair    | 49.403     | 49.415     | 49.427     |   0.2 | 57.71
Neigh   | 32.29      | 32.534     | 32.778     |   4.3 | 37.99
Comm    | 3.0191     | 3.2576     | 3.4962     |  13.2 |  3.80
Output  | 6.7949e-05 | 8.8453e-05 | 0.00010896 |   0.0 |  0.00
Modify  | 0.20898    | 0.21341    | 0.21783    |   1.0 |  0.25
Other   |            | 0.2098     |            |       |  0.25

Nlocal:    9826 ave 9827 max 9825 min
Histogram: 1 0 0 0 0 0 0 0 0 1
Nghost:    14211 ave 14212 max 14210 min
Histogram: 1 0 0 0 0 0 0 0 0 1
Neighs:    785054 ave 785306 max 784801 min
Histogram: 1 0 0 0 0 0 0 0 0 1

Total # of neighbors = 1570107
Ave neighs/atom = 79.8955
Neighbor list builds = 1000
Dangerous builds not checked
Setting up Verlet run ...
  Unit style    : metal
  Current step  : 1000
  Time step     : 0.001
Per MPI rank memory allocation (min/avg/max) = 11.15 | 11.15 | 11.15 Mbytes
Step Temp Press TotEng PotEng Enthalpy 
    1000    163.52365    261819.66   -21465.507   -21880.872    29917.396 
    2000    269.56023    253.90181   -28726.265   -29410.972   -28654.372 
Loop time of 74.1641 on 2 procs for 1000 steps with 19652 atoms

Performance: 1.165 ns/day, 20.601 hours/ns, 13.484 timesteps/s
98.9% CPU use with 2 MPI tasks x no OpenMP threads

MPI task timing breakdown:
Section |  min time  |  avg time  |  max time  |%varavg| %total
---------------------------------------------------------------
Pair    | 39.581     | 39.822     | 40.062     |   3.8 | 53.69
Neigh   | 30.697     | 30.749     | 30.8       |   0.9 | 41.46
Comm    | 2.3099     | 2.6004     | 2.891      |  18.0 |  3.51
Output  | 7.7009e-05 | 0.00010192 | 0.00012684 |   0.0 |  0.00
Modify  | 0.7793     | 0.78009    | 0.78089    |   0.1 |  1.05
Other   |            | 0.213      |            |       |  0.29

Nlocal:    9826 ave 9857 max 9795 min
Histogram: 1 0 0 0 0 0 0 0 0 1
Nghost:    10349.5 ave 10382 max 10317 min
Histogram: 1 0 0 0 0 0 0 0 0 1
Neighs:    562254 ave 564075 max 560434 min
Histogram: 1 0 0 0 0 0 0 0 0 1

Total # of neighbors = 1124509
Ave neighs/atom = 57.2211
Neighbor list builds = 1000
Dangerous builds not checked
Setting up Verlet run ...
  Unit style    : metal
  Current step  : 2000
  Time step     : 0.001
Per MPI rank memory allocation (min/avg/max) = 11.15 | 11.15 | 11.15 Mbytes
Step Temp Press TotEng PotEng Enthalpy 
    2000    269.56023    253.90181   -28726.265   -29410.972   -28654.372 
   10000    2444.1167   -79.674492   -14002.081    -20210.36   -14035.255 
Loop time of 560.836 on 2 procs for 8000 steps with 19652 atoms

Performance: 1.232 ns/day, 19.473 hours/ns, 14.264 timesteps/s
96.7% CPU use with 2 MPI tasks x no OpenMP threads

MPI task timing breakdown:
Section |  min time  |  avg time  |  max time  |%varavg| %total
---------------------------------------------------------------
Pair    | 312.12     | 312.9      | 313.68     |   4.4 | 55.79
Neigh   | 210.98     | 215.99     | 221        |  34.1 | 38.51
Comm    | 17.597     | 23.498     | 29.4       | 121.7 |  4.19
Output  | 0.15956    | 0.15958    | 0.1596     |   0.0 |  0.03
Modify  | 6.4835     | 6.5208     | 6.5581     |   1.5 |  1.16
Other   |            | 1.768      |            |       |  0.32

Nlocal:    9826 ave 9839 max 9813 min
Histogram: 1 0 0 0 0 0 0 0 0 1
Nghost:    9635.5 ave 9733 max 9538 min
Histogram: 1 0 0 0 0 0 0 0 0 1
Neighs:    368038 ave 369128 max 366948 min
Histogram: 1 0 0 0 0 0 0 0 0 1

Total # of neighbors = 736076
Ave neighs/atom = 37.4555
Neighbor list builds = 8000
Dangerous builds not checked
Setting up Verlet run ...
  Unit style    : metal
  Current step  : 10000
  Time step     : 0.001
Per MPI rank memory allocation (min/avg/max) = 11.2 | 11.2 | 11.2 Mbytes
Step Temp Press TotEng PotEng Enthalpy 
   10000    2444.1167   -79.674492   -14002.081    -20210.36   -14035.255 
   20000    2444.6914   -555.81185   -13733.185   -19942.924   -13969.916 
   30000    2457.1998   -97.729559   -13712.798    -19954.31   -13754.237 
   40000    2449.2507    178.74023   -13806.133   -20027.453   -13730.731 
Loop time of 1844.64 on 2 procs for 30000 steps with 19652 atoms

Performance: 1.405 ns/day, 17.080 hours/ns, 16.263 timesteps/s
96.1% CPU use with 2 MPI tasks x no OpenMP threads

MPI task timing breakdown:
Section |  min time  |  avg time  |  max time  |%varavg| %total
---------------------------------------------------------------
Pair    | 945.59     | 945.65     | 945.71     |   0.2 | 51.26
Neigh   | 741.47     | 746.33     | 751.19     |  17.8 | 40.46
Comm    | 115.66     | 120.75     | 125.85     |  46.4 |  6.55
Output  | 0.20861    | 0.20865    | 0.2087     |   0.0 |  0.01
Modify  | 25.316     | 25.448     | 25.58      |   2.6 |  1.38
Other   |            | 6.248      |            |       |  0.34

Nlocal:    9826 ave 9843 max 9809 min
Histogram: 1 0 0 0 0 0 0 0 0 1
Nghost:    9654 ave 9668 max 9640 min
Histogram: 1 0 0 0 0 0 0 0 0 1
Neighs:    363632 ave 364365 max 362900 min
Histogram: 1 0 0 0 0 0 0 0 0 1

Total # of neighbors = 727265
Ave neighs/atom = 37.0072
Neighbor list builds = 30000
Dangerous builds not checked
Setting up Verlet run ...
  Unit style    : metal
  Current step  : 40000
  Time step     : 0.001
Per MPI rank memory allocation (min/avg/max) = 11.29 | 11.29 | 11.29 Mbytes
Step Temp Press TotEng PotEng Enthalpy 
   40000    2449.2507    178.74023   -13806.133   -20027.453   -13730.731 
   40495    2408.3186     -155.107    -13916.73   -20034.078   -13982.234 
Loop time of 32.6482 on 2 procs for 495 steps with 19652 atoms

Performance: 1.310 ns/day, 18.321 hours/ns, 15.162 timesteps/s
98.7% CPU use with 2 MPI tasks x no OpenMP threads

MPI task timing breakdown:
Section |  min time  |  avg time  |  max time  |%varavg| %total
---------------------------------------------------------------
Pair    | 17.477     | 17.587     | 17.697     |   2.6 | 53.87
Neigh   | 12.666     | 13.153     | 13.64      |  13.4 | 40.29
Comm    | 0.9689     | 1.3573     | 1.7457     |  33.3 |  4.16
Output  | 6.8903e-05 | 0.00010002 | 0.00013113 |   0.0 |  0.00
Modify  | 0.42214    | 0.42742    | 0.4327     |   0.8 |  1.31
Other   |            | 0.1229     |            |       |  0.38

Nlocal:    9826 ave 9900 max 9752 min
Histogram: 1 0 0 0 0 0 0 0 0 1
Nghost:    9591 ave 9614 max 9568 min
Histogram: 1 0 0 0 0 0 0 0 0 1
Neighs:    362907 ave 368075 max 357739 min
Histogram: 1 0 0 0 0 0 0 0 0 1

Total # of neighbors = 725814
Ave neighs/atom = 36.9333
Neighbor list builds = 495
Dangerous builds not checked
Setting up Verlet run ...
  Unit style    : metal
  Current step  : 40495
  Time step     : 0.001
Per MPI rank memory allocation (min/avg/max) = 11.29 | 11.29 | 11.29 Mbytes
Step Temp Press TotEng PotEng Enthalpy 
   40495    2408.3186     -155.107    -13916.73   -20034.078   -13982.234 
   50000     2433.024      373.969   -14033.894   -20213.997   -13877.946 
Loop time of 642.716 on 2 procs for 9505 steps with 19652 atoms

Performance: 1.278 ns/day, 18.783 hours/ns, 14.789 timesteps/s
99.6% CPU use with 2 MPI tasks x no OpenMP threads

MPI task timing breakdown:
Section |  min time  |  avg time  |  max time  |%varavg| %total
---------------------------------------------------------------
Pair    | 347.53     | 348.06     | 348.59     |   2.8 | 54.16
Neigh   | 257.5      | 260.64     | 263.77     |  19.4 | 40.55
Comm    | 19.535     | 23.251     | 26.967     |  77.1 |  3.62
Output  | 0.53027    | 0.53029    | 0.53031    |   0.0 |  0.08
Modify  | 7.9443     | 8.003      | 8.0618     |   2.1 |  1.25
Other   |            | 2.23       |            |       |  0.35

Nlocal:    9826 ave 9845 max 9807 min
Histogram: 1 0 0 0 0 0 0 0 0 1
Nghost:    9671 ave 9769 max 9573 min
Histogram: 1 0 0 0 0 0 0 0 0 1
Neighs:    367784 ave 367791 max 367776 min
Histogram: 1 0 0 0 0 0 0 0 0 1

Total # of neighbors = 735567
Ave neighs/atom = 37.4296
Neighbor list builds = 9505
Dangerous builds not checked
Setting up Verlet run ...
  Unit style    : metal
  Current step  : 50000
  Time step     : 0.001
Per MPI rank memory allocation (min/avg/max) = 11.3 | 11.3 | 11.3 Mbytes
Step Temp Press TotEng PotEng Enthalpy 
   50000     2433.024      373.969   -14033.894   -20213.997   -13877.946 
   50495    2357.9001    -862.5674   -14300.859   -20290.141   -14660.841 
Loop time of 30.4759 on 2 procs for 495 steps with 19652 atoms

Performance: 1.403 ns/day, 17.102 hours/ns, 16.242 timesteps/s
99.8% CPU use with 2 MPI tasks x no OpenMP threads

MPI task timing breakdown:
Section |  min time  |  avg time  |  max time  |%varavg| %total
---------------------------------------------------------------
Pair    | 16.121     | 16.204     | 16.288     |   2.1 | 53.17
Neigh   | 12.706     | 12.716     | 12.727     |   0.3 | 41.73
Comm    | 0.9184     | 0.99562    | 1.0728     |   7.7 |  3.27
Output  | 7.9155e-05 | 0.00011706 | 0.00015497 |   0.0 |  0.00
Modify  | 0.43526    | 0.43817    | 0.44108    |   0.4 |  1.44
Other   |            | 0.1211     |            |       |  0.40

Nlocal:    9826 ave 9841 max 9811 min
Histogram: 1 0 0 0 0 0 0 0 0 1
Nghost:    9688.5 ave 9694 max 9683 min
Histogram: 1 0 0 0 0 0 0 0 0 1
Neighs:    367201 ave 368313 max 366089 min
Histogram: 1 0 0 0 0 0 0 0 0 1

Total # of neighbors = 734402
Ave neighs/atom = 37.3703
Neighbor list builds = 495
Dangerous builds not checked
Setting up Verlet run ...
  Unit style    : metal
  Current step  : 50495
  Time step     : 0.001
Per MPI rank memory allocation (min/avg/max) = 11.3 | 11.3 | 11.3 Mbytes
Step Temp Press TotEng PotEng Enthalpy 
   50495    2357.9001    -862.5674   -14300.859   -20290.141   -14660.841 
   60000     2367.866    81.003564   -14380.202   -20394.798    -14346.86 
Loop time of 631.577 on 2 procs for 9505 steps with 19652 atoms

Performance: 1.300 ns/day, 18.457 hours/ns, 15.050 timesteps/s
99.1% CPU use with 2 MPI tasks x no OpenMP threads

MPI task timing breakdown:
Section |  min time  |  avg time  |  max time  |%varavg| %total
---------------------------------------------------------------
Pair    | 332.23     | 335.51     | 338.79     |  17.9 | 53.12
Neigh   | 253.45     | 258.25     | 263.06     |  29.9 | 40.89
Comm    | 18.948     | 27.138     | 35.327     | 157.2 |  4.30
Output  | 0.11381    | 0.11384    | 0.11387    |   0.0 |  0.02
Modify  | 8.3075     | 8.3502     | 8.3928     |   1.5 |  1.32
Other   |            | 2.211      |            |       |  0.35

Nlocal:    9826 ave 9853 max 9799 min
Histogram: 1 0 0 0 0 0 0 0 0 1
Nghost:    9640 ave 9675 max 9605 min
Histogram: 1 0 0 0 0 0 0 0 0 1
Neighs:    372212 ave 374804 max 369621 min
Histogram: 1 0 0 0 0 0 0 0 0 1

Total # of neighbors = 744425
Ave neighs/atom = 37.8804
Neighbor list builds = 9505
Dangerous builds not checked
Setting up Verlet run ...
  Unit style    : metal
  Current step  : 60000
  Time step     : 0.001
Per MPI rank memory allocation (min/avg/max) = 11.31 | 11.31 | 11.31 Mbytes
Step Temp Press TotEng PotEng Enthalpy 
   60000     2367.866    81.003564   -14380.202   -20394.798    -14346.86 
   60495    2310.3888   -218.00777   -14670.385   -20538.983   -14759.649 
Loop time of 29.1162 on 2 procs for 495 steps with 19652 atoms

Performance: 1.469 ns/day, 16.339 hours/ns, 17.001 timesteps/s
96.8% CPU use with 2 MPI tasks x no OpenMP threads

MPI task timing breakdown:
Section |  min time  |  avg time  |  max time  |%varavg| %total
---------------------------------------------------------------
Pair    | 14.827     | 14.949     | 15.072     |   3.2 | 51.34
Neigh   | 11.951     | 12.032     | 12.112     |   2.3 | 41.32
Comm    | 1.4671     | 1.5667     | 1.6662     |   8.0 |  5.38
Output  | 7.7963e-05 | 9.3937e-05 | 0.00010991 |   0.0 |  0.00
Modify  | 0.40279    | 0.46017    | 0.51756    |   8.5 |  1.58
Other   |            | 0.1085     |            |       |  0.37

Nlocal:    9826 ave 9848 max 9804 min
Histogram: 1 0 0 0 0 0 0 0 0 1
Nghost:    9728.5 ave 9750 max 9707 min
Histogram: 1 0 0 0 0 0 0 0 0 1
Neighs:    374479 ave 376548 max 372410 min
Histogram: 1 0 0 0 0 0 0 0 0 1

Total # of neighbors = 748958
Ave neighs/atom = 38.111
Neighbor list builds = 495
Dangerous builds not checked
Setting up Verlet run ...
  Unit style    : metal
  Current step  : 60495
  Time step     : 0.001
Per MPI rank memory allocation (min/avg/max) = 11.31 | 11.31 | 11.31 Mbytes
Step Temp Press TotEng PotEng Enthalpy 
   60495    2310.3888   -218.00777   -14670.385   -20538.983   -14759.649 
   70000    2301.4682   -202.71625   -14854.532   -20700.471   -14936.606 
Loop time of 558.082 on 2 procs for 9505 steps with 19652 atoms

Performance: 1.472 ns/day, 16.310 hours/ns, 17.032 timesteps/s
98.8% CPU use with 2 MPI tasks x no OpenMP threads

MPI task timing breakdown:
Section |  min time  |  avg time  |  max time  |%varavg| %total
---------------------------------------------------------------
Pair    | 288.26     | 288.66     | 289.07     |   2.4 | 51.72
Neigh   | 227.65     | 230.67     | 233.68     |  19.9 | 41.33
Comm    | 26.768     | 29.443     | 32.119     |  49.3 |  5.28
Output  | 0.04731    | 0.047323   | 0.047336   |   0.0 |  0.01
Modify  | 7.3338     | 7.3777     | 7.4216     |   1.6 |  1.32
Other   |            | 1.884      |            |       |  0.34

Nlocal:    9826 ave 9846 max 9806 min
Histogram: 1 0 0 0 0 0 0 0 0 1
Nghost:    9737 ave 9797 max 9677 min
Histogram: 1 0 0 0 0 0 0 0 0 1
Neighs:    378259 ave 380014 max 376504 min
Histogram: 1 0 0 0 0 0 0 0 0 1

Total # of neighbors = 756518
Ave neighs/atom = 38.4957
Neighbor list builds = 9505
Dangerous builds not checked
Setting up Verlet run ...
  Unit style    : metal
  Current step  : 70000
  Time step     : 0.001
Per MPI rank memory allocation (min/avg/max) = 11.32 | 11.32 | 11.32 Mbytes
Step Temp Press TotEng PotEng Enthalpy 
   70000    2301.4682   -202.71625   -14854.532   -20700.471   -14936.606 
   70495    2250.5543    120.84558   -15072.887     -20789.5   -15024.316 
Loop time of 27.7731 on 2 procs for 495 steps with 19652 atoms

Performance: 1.540 ns/day, 15.585 hours/ns, 17.823 timesteps/s
99.0% CPU use with 2 MPI tasks x no OpenMP threads

MPI task timing breakdown:
Section |  min time  |  avg time  |  max time  |%varavg| %total
---------------------------------------------------------------
Pair    | 14.413     | 14.419     | 14.425     |   0.2 | 51.92
Neigh   | 11.513     | 11.76      | 12.007     |   7.2 | 42.34
Comm    | 0.82622    | 1.0911     | 1.356      |  25.4 |  3.93
Output  | 7.9155e-05 | 0.00010061 | 0.00012207 |   0.0 |  0.00
Modify  | 0.39268    | 0.40256    | 0.41245    |   1.6 |  1.45
Other   |            | 0.1        |            |       |  0.36

Nlocal:    9826 ave 9850 max 9802 min
Histogram: 1 0 0 0 0 0 0 0 0 1
Nghost:    9772.5 ave 9803 max 9742 min
Histogram: 1 0 0 0 0 0 0 0 0 1
Neighs:    381240 ave 383690 max 378791 min
Histogram: 1 0 0 0 0 0 0 0 0 1

Total # of neighbors = 762481
Ave neighs/atom = 38.7992
Neighbor list builds = 495
Dangerous builds not checked
Setting up Verlet run ...
  Unit style    : metal
  Current step  : 70495
  Time step     : 0.001
Per MPI rank memory allocation (min/avg/max) = 11.32 | 11.32 | 11.32 Mbytes
Step Temp Press TotEng PotEng Enthalpy 
   70495    2250.5543    120.84558   -15072.887     -20789.5   -15024.316 
   80000    2248.8746    331.49437   -15238.618   -20950.964   -15106.802 
Loop time of 575.965 on 2 procs for 9505 steps with 19652 atoms

Performance: 1.426 ns/day, 16.832 hours/ns, 16.503 timesteps/s
98.5% CPU use with 2 MPI tasks x no OpenMP threads

MPI task timing breakdown:
Section |  min time  |  avg time  |  max time  |%varavg| %total
---------------------------------------------------------------
Pair    | 300.74     | 301.42     | 302.11     |   4.0 | 52.33
Neigh   | 234.31     | 237.44     | 240.57     |  20.3 | 41.22
Comm    | 25.028     | 27.529     | 30.029     |  47.7 |  4.78
Output  | 0.053029   | 0.053043   | 0.053056   |   0.0 |  0.01
Modify  | 7.5454     | 7.591      | 7.6366     |   1.7 |  1.32
Other   |            | 1.931      |            |       |  0.34

Nlocal:    9826 ave 9852 max 9800 min
Histogram: 1 0 0 0 0 0 0 0 0 1
Nghost:    9826.5 ave 9832 max 9821 min
Histogram: 1 0 0 0 0 0 0 0 0 1
Neighs:    385374 ave 387000 max 383747 min
Histogram: 1 0 0 0 0 0 0 0 0 1

Total # of neighbors = 770747
Ave neighs/atom = 39.2198
Neighbor list builds = 9505
Dangerous builds not checked
Setting up Verlet run ...
  Unit style    : metal
  Current step  : 80000
  Time step     : 0.001
Per MPI rank memory allocation (min/avg/max) = 11.33 | 11.33 | 11.33 Mbytes
Step Temp Press TotEng PotEng Enthalpy 
   80000    2248.8746    331.49437   -15238.618   -20950.964   -15106.802 
   80495    2215.1704   -422.41371   -15420.082   -21046.816   -15587.902 
Loop time of 26.5833 on 2 procs for 495 steps with 19652 atoms

Performance: 1.609 ns/day, 14.918 hours/ns, 18.621 timesteps/s
99.6% CPU use with 2 MPI tasks x no OpenMP threads

MPI task timing breakdown:
Section |  min time  |  avg time  |  max time  |%varavg| %total
---------------------------------------------------------------
Pair    | 13.587     | 13.595     | 13.602     |   0.2 | 51.14
Neigh   | 11.435     | 11.533     | 11.632     |   2.9 | 43.39
Comm    | 0.85994    | 0.97161    | 1.0833     |  11.3 |  3.65
Output  | 6.485e-05  | 8.6904e-05 | 0.00010896 |   0.0 |  0.00
Modify  | 0.37742    | 0.38373    | 0.39005    |   1.0 |  1.44
Other   |            | 0.09995    |            |       |  0.38

Nlocal:    9826 ave 9835 max 9817 min
Histogram: 1 0 0 0 0 0 0 0 0 1
Nghost:    9842.5 ave 9867 max 9818 min
Histogram: 1 0 0 0 0 0 0 0 0 1
Neighs:    385858 ave 386314 max 385402 min
Histogram: 1 0 0 0 0 0 0 0 0 1

Total # of neighbors = 771716
Ave neighs/atom = 39.2691
Neighbor list builds = 495
Dangerous builds not checked
Setting up Verlet run ...
  Unit style    : metal
  Current step  : 80495
  Time step     : 0.001
Per MPI rank memory allocation (min/avg/max) = 11.33 | 11.33 | 11.33 Mbytes
Step Temp Press TotEng PotEng Enthalpy 
   80495    2215.1704   -422.41371   -15420.082   -21046.816   -15587.902 
   90000    2206.9524    64.897789   -15483.415   -21089.275   -15457.772 
Loop time of 565.917 on 2 procs for 9505 steps with 19652 atoms

Performance: 1.451 ns/day, 16.539 hours/ns, 16.796 timesteps/s
99.2% CPU use with 2 MPI tasks x no OpenMP threads

MPI task timing breakdown:
Section |  min time  |  avg time  |  max time  |%varavg| %total
---------------------------------------------------------------
Pair    | 294.86     | 295.5      | 296.13     |   3.7 | 52.22
Neigh   | 234.94     | 237.07     | 239.21     |  13.9 | 41.89
Comm    | 22.128     | 23.708     | 25.289     |  32.5 |  4.19
Output  | 0.13594    | 0.13596    | 0.13597    |   0.0 |  0.02
Modify  | 7.5049     | 7.5537     | 7.6025     |   1.8 |  1.33
Other   |            | 1.949      |            |       |  0.34

Nlocal:    9826 ave 9852 max 9800 min
Histogram: 1 0 0 0 0 0 0 0 0 1
Nghost:    9860 ave 9872 max 9848 min
Histogram: 1 0 0 0 0 0 0 0 0 1
Neighs:    387806 ave 389791 max 385821 min
Histogram: 1 0 0 0 0 0 0 0 0 1

Total # of neighbors = 775612
Ave neighs/atom = 39.4673
Neighbor list builds = 9505
Dangerous builds not checked
Setting up Verlet run ...
  Unit style    : metal
  Current step  : 90000
  Time step     : 0.001
Per MPI rank memory allocation (min/avg/max) = 11.33 | 11.33 | 11.33 Mbytes
Step Temp Press TotEng PotEng Enthalpy 
   90000    2206.9524    64.897789   -15483.415   -21089.275   -15457.772 
   90495     2166.814    -50.98589   -15728.184   -21232.089   -15748.176 
Loop time of 29.1894 on 2 procs for 495 steps with 19652 atoms

Performance: 1.465 ns/day, 16.380 hours/ns, 16.958 timesteps/s
98.7% CPU use with 2 MPI tasks x no OpenMP threads

MPI task timing breakdown:
Section |  min time  |  avg time  |  max time  |%varavg| %total
---------------------------------------------------------------
Pair    | 15.06      | 15.22      | 15.379     |   4.1 | 52.14
Neigh   | 11.994     | 12.025     | 12.057     |   0.9 | 41.20
Comm    | 1.296      | 1.4305     | 1.565      |  11.2 |  4.90
Output  | 6.9857e-05 | 8.9884e-05 | 0.00010991 |   0.0 |  0.00
Modify  | 0.40201    | 0.40904    | 0.41607    |   1.1 |  1.40
Other   |            | 0.1048     |            |       |  0.36

Nlocal:    9826 ave 9845 max 9807 min
Histogram: 1 0 0 0 0 0 0 0 0 1
Nghost:    9900.5 ave 9924 max 9877 min
Histogram: 1 0 0 0 0 0 0 0 0 1
Neighs:    390650 ave 391622 max 389678 min
Histogram: 1 0 0 0 0 0 0 0 0 1

Total # of neighbors = 781300
Ave neighs/atom = 39.7568
Neighbor list builds = 495
Dangerous builds not checked
Setting up Verlet run ...
  Unit style    : metal
  Current step  : 90495
  Time step     : 0.001
Per MPI rank memory allocation (min/avg/max) = 11.33 | 11.33 | 11.33 Mbytes
Step Temp Press TotEng PotEng Enthalpy 
   90495     2166.814    -50.98589   -15728.184   -21232.089   -15748.176 
  100000    2127.0766    453.15054   -15982.015   -21384.983   -15806.858 
Loop time of 573.478 on 2 procs for 9505 steps with 19652 atoms

Performance: 1.432 ns/day, 16.760 hours/ns, 16.574 timesteps/s
99.0% CPU use with 2 MPI tasks x no OpenMP threads

MPI task timing breakdown:
Section |  min time  |  avg time  |  max time  |%varavg| %total
---------------------------------------------------------------
Pair    | 298.18     | 300.39     | 302.6      |  12.8 | 52.38
Neigh   | 232.77     | 237.84     | 242.92     |  32.9 | 41.47
Comm    | 17.981     | 25.394     | 32.808     | 147.1 |  4.43
Output  | 0.26862    | 0.26864    | 0.26867    |   0.0 |  0.05
Modify  | 7.5175     | 7.5953     | 7.673      |   2.8 |  1.32
Other   |            | 1.986      |            |       |  0.35

Nlocal:    9826 ave 9844 max 9808 min
Histogram: 1 0 0 0 0 0 0 0 0 1
Nghost:    9965.5 ave 9976 max 9955 min
Histogram: 1 0 0 0 0 0 0 0 0 1
Neighs:    396259 ave 397489 max 395029 min
Histogram: 1 0 0 0 0 0 0 0 0 1

Total # of neighbors = 792518
Ave neighs/atom = 40.3276
Neighbor list builds = 9505
Dangerous builds not checked
Setting up Verlet run ...
  Unit style    : metal
  Current step  : 100000
  Time step     : 0.001
Per MPI rank memory allocation (min/avg/max) = 11.33 | 11.33 | 11.34 Mbytes
Step Temp Press TotEng PotEng Enthalpy 
  100000    2127.0766    453.15054   -15982.015   -21384.983   -15806.858 
  100495    2106.2722   -9.5550916   -16080.722   -21430.845   -16084.424 
Loop time of 29.9969 on 2 procs for 495 steps with 19652 atoms

Performance: 1.426 ns/day, 16.833 hours/ns, 16.502 timesteps/s
99.7% CPU use with 2 MPI tasks x no OpenMP threads

MPI task timing breakdown:
Section |  min time  |  avg time  |  max time  |%varavg| %total
---------------------------------------------------------------
Pair    | 15.4       | 15.766     | 16.133     |   9.2 | 52.56
Neigh   | 11.561     | 12.111     | 12.661     |  15.8 | 40.37
Comm    | 0.64728    | 1.5923     | 2.5372     |  74.9 |  5.31
Output  | 8.297e-05  | 0.00012398 | 0.00016499 |   0.0 |  0.00
Modify  | 0.39974    | 0.41617    | 0.43261    |   2.5 |  1.39
Other   |            | 0.1112     |            |       |  0.37

Nlocal:    9826 ave 9839 max 9813 min
Histogram: 1 0 0 0 0 0 0 0 0 1
Nghost:    9929 ave 9953 max 9905 min
Histogram: 1 0 0 0 0 0 0 0 0 1
Neighs:    395648 ave 396598 max 394698 min
Histogram: 1 0 0 0 0 0 0 0 0 1

Total # of neighbors = 791296
Ave neighs/atom = 40.2654
Neighbor list builds = 495
Dangerous builds not checked
Setting up Verlet run ...
  Unit style    : metal
  Current step  : 100495
  Time step     : 0.001
Per MPI rank memory allocation (min/avg/max) = 11.33 | 11.33 | 11.34 Mbytes
Step Temp Press TotEng PotEng Enthalpy 
  100495    2106.2722   -9.5550916   -16080.722   -21430.845   -16084.424 
  110000    2107.3036   -126.46011   -16248.329   -21601.072   -16296.968 
Loop time of 620.125 on 2 procs for 9505 steps with 19652 atoms

Performance: 1.324 ns/day, 18.123 hours/ns, 15.328 timesteps/s
98.8% CPU use with 2 MPI tasks x no OpenMP threads

MPI task timing breakdown:
Section |  min time  |  avg time  |  max time  |%varavg| %total
---------------------------------------------------------------
Pair    | 320.69     | 326.8      | 332.92     |  33.8 | 52.70
Neigh   | 244.58     | 250.29     | 256        |  36.1 | 40.36
Comm    | 20.931     | 32.95      | 44.969     | 209.4 |  5.31
Output  | 0.11819    | 0.11821    | 0.11823    |   0.0 |  0.02
Modify  | 7.7776     | 7.8433     | 7.9091     |   2.3 |  1.26
Other   |            | 2.118      |            |       |  0.34

Nlocal:    9826 ave 9861 max 9791 min
Histogram: 1 0 0 0 0 0 0 0 0 1
Nghost:    9961 ave 9968 max 9954 min
Histogram: 1 0 0 0 0 0 0 0 0 1
Neighs:    398516 ave 401402 max 395631 min
Histogram: 1 0 0 0 0 0 0 0 0 1

Total # of neighbors = 797033
Ave neighs/atom = 40.5573
Neighbor list builds = 9505
Dangerous builds not checked
Setting up Verlet run ...
  Unit style    : metal
  Current step  : 110000
  Time step     : 0.001
Per MPI rank memory allocation (min/avg/max) = 11.35 | 11.35 | 11.35 Mbytes
Step Temp Press TotEng PotEng Enthalpy 
  110000    2107.3036   -126.46011   -16248.329   -21601.072   -16296.968 
  110495    2072.9081   -74.643563    -16404.44   -21669.816   -16432.993 
Loop time of 29.6207 on 2 procs for 495 steps with 19652 atoms

Performance: 1.444 ns/day, 16.622 hours/ns, 16.711 timesteps/s
99.9% CPU use with 2 MPI tasks x no OpenMP threads

MPI task timing breakdown:
Section |  min time  |  avg time  |  max time  |%varavg| %total
---------------------------------------------------------------
Pair    | 15.452     | 15.574     | 15.696     |   3.1 | 52.58
Neigh   | 11.158     | 11.861     | 12.563     |  20.4 | 40.04
Comm    | 0.83535    | 1.6874     | 2.5395     |  65.6 |  5.70
Output  | 7.2002e-05 | 0.00010598 | 0.00013995 |   0.0 |  0.00
Modify  | 0.37753    | 0.39368    | 0.40982    |   2.6 |  1.33
Other   |            | 0.1049     |            |       |  0.35

Nlocal:    9826 ave 9842 max 9810 min
Histogram: 1 0 0 0 0 0 0 0 0 1
Nghost:    10019 ave 10046 max 9992 min
Histogram: 1 0 0 0 0 0 0 0 0 1
Neighs:    400536 ave 403100 max 397971 min
Histogram: 1 0 0 0 0 0 0 0 0 1

Total # of neighbors = 801071
Ave neighs/atom = 40.7628
Neighbor list builds = 495
Dangerous builds not checked
Setting up Verlet run ...
  Unit style    : metal
  Current step  : 110495
  Time step     : 0.001
Per MPI rank memory allocation (min/avg/max) = 11.35 | 11.35 | 11.35 Mbytes
Step Temp Press TotEng PotEng Enthalpy 
  110495    2072.9081   -74.643563    -16404.44   -21669.816   -16432.993 
  120000    2048.2572     235.9754   -16497.485   -21700.244   -16407.641 
Loop time of 639.005 on 2 procs for 9505 steps with 19652 atoms

Performance: 1.285 ns/day, 18.675 hours/ns, 14.875 timesteps/s
98.2% CPU use with 2 MPI tasks x no OpenMP threads

MPI task timing breakdown:
Section |  min time  |  avg time  |  max time  |%varavg| %total
---------------------------------------------------------------
Pair    | 332.43     | 336.47     | 340.5      |  22.0 | 52.65
Neigh   | 253.14     | 261.69     | 270.24     |  52.8 | 40.95
Comm    | 18.044     | 30.91      | 43.776     | 231.4 |  4.84
Output  | 0.13396    | 0.13398    | 0.134      |   0.0 |  0.02
Modify  | 7.6341     | 7.7525     | 7.8709     |   4.3 |  1.21
Other   |            | 2.054      |            |       |  0.32

Nlocal:    9826 ave 9843 max 9809 min
Histogram: 1 0 0 0 0 0 0 0 0 1
Nghost:    10018 ave 10035 max 10001 min
Histogram: 1 0 0 0 0 0 0 0 0 1
Neighs:    402375 ave 406936 max 397814 min
Histogram: 1 0 0 0 0 0 0 0 0 1

Total # of neighbors = 804750
Ave neighs/atom = 40.95
Neighbor list builds = 9505
Dangerous builds not checked
Setting up Verlet run ...
  Unit style    : metal
  Current step  : 120000
  Time step     : 0.001
Per MPI rank memory allocation (min/avg/max) = 11.35 | 11.35 | 11.35 Mbytes
Step Temp Press TotEng PotEng Enthalpy 
  120000    2048.2572     235.9754   -16497.485   -21700.244   -16407.641 
  120495    2015.7303   -491.54255   -16735.223   -21855.362   -16921.701 
Loop time of 31.8989 on 2 procs for 495 steps with 19652 atoms

Performance: 1.341 ns/day, 17.901 hours/ns, 15.518 timesteps/s
99.3% CPU use with 2 MPI tasks x no OpenMP threads

MPI task timing breakdown:
Section |  min time  |  avg time  |  max time  |%varavg| %total
---------------------------------------------------------------
Pair    | 16.499     | 16.657     | 16.815     |   3.9 | 52.22
Neigh   | 12.126     | 13.094     | 14.061     |  26.7 | 41.05
Comm    | 0.82989    | 1.6561     | 2.4824     |  64.2 |  5.19
Output  | 8.0824e-05 | 0.00011444 | 0.00014806 |   0.0 |  0.00
Modify  | 0.38007    | 0.38531    | 0.39055    |   0.8 |  1.21
Other   |            | 0.1064     |            |       |  0.33

Nlocal:    9826 ave 9833 max 9819 min
Histogram: 1 0 0 0 0 0 0 0 0 1
Nghost:    10046 ave 10068 max 10024 min
Histogram: 1 0 0 0 0 0 0 0 0 1
Neighs:    403776 ave 408480 max 399071 min
Histogram: 1 0 0 0 0 0 0 0 0 1

Total # of neighbors = 807551
Ave neighs/atom = 41.0926
Neighbor list builds = 495
Dangerous builds not checked
Setting up Verlet run ...
  Unit style    : metal
  Current step  : 120495
  Time step     : 0.001
Per MPI rank memory allocation (min/avg/max) = 11.35 | 11.35 | 11.35 Mbytes
Step Temp Press TotEng PotEng Enthalpy 
  120495    2015.7303   -491.54255   -16735.223   -21855.362   -16921.701 
  130000    1968.4878   -144.78769   -16974.311    -21974.45    -17028.73 
Loop time of 643.389 on 2 procs for 9505 steps with 19652 atoms

Performance: 1.276 ns/day, 18.803 hours/ns, 14.773 timesteps/s
97.8% CPU use with 2 MPI tasks x no OpenMP threads

MPI task timing breakdown:
Section |  min time  |  avg time  |  max time  |%varavg| %total
---------------------------------------------------------------
Pair    | 327.08     | 332.9      | 338.73     |  31.9 | 51.74
Neigh   | 254.46     | 260.08     | 265.71     |  34.9 | 40.42
Comm    | 28.753     | 40.112     | 51.47      | 179.3 |  6.23
Output  | 0.16384    | 0.16386    | 0.16388    |   0.0 |  0.03
Modify  | 7.9738     | 8.0943     | 8.2149     |   4.2 |  1.26
Other   |            | 2.031      |            |       |  0.32

Nlocal:    9826 ave 9842 max 9810 min
Histogram: 1 0 0 0 0 0 0 0 0 1
Nghost:    10077.5 ave 10088 max 10067 min
Histogram: 1 0 0 0 0 0 0 0 0 1
Neighs:    407753 ave 410749 max 404757 min
Histogram: 1 0 0 0 0 0 0 0 0 1

Total # of neighbors = 815506
Ave neighs/atom = 41.4974
Neighbor list builds = 9505
Dangerous builds not checked
Setting up Verlet run ...
  Unit style    : metal
  Current step  : 130000
  Time step     : 0.001
Per MPI rank memory allocation (min/avg/max) = 11.36 | 11.36 | 11.36 Mbytes
Step Temp Press TotEng PotEng Enthalpy 
  130000    1968.4878   -144.78769   -16974.311    -21974.45    -17028.73 
  130495    1959.1931   -75.061649   -17072.657   -22049.186   -17100.801 
Loop time of 32.4482 on 2 procs for 495 steps with 19652 atoms

Performance: 1.318 ns/day, 18.209 hours/ns, 15.255 timesteps/s
94.5% CPU use with 2 MPI tasks x no OpenMP threads

MPI task timing breakdown:
Section |  min time  |  avg time  |  max time  |%varavg| %total
---------------------------------------------------------------
Pair    | 17.569     | 17.592     | 17.615     |   0.5 | 54.22
Neigh   | 12.398     | 12.657     | 12.915     |   7.3 | 39.01
Comm    | 1.47       | 1.712      | 1.9539     |  18.5 |  5.28
Output  | 9.6083e-05 | 0.00011647 | 0.00013685 |   0.0 |  0.00
Modify  | 0.3834     | 0.38885    | 0.39429    |   0.9 |  1.20
Other   |            | 0.09826    |            |       |  0.30

Nlocal:    9826 ave 9837 max 9815 min
Histogram: 1 0 0 0 0 0 0 0 0 1
Nghost:    10066.5 ave 10071 max 10062 min
Histogram: 1 0 0 0 0 0 0 0 0 1
Neighs:    408492 ave 413311 max 403673 min
Histogram: 1 0 0 0 0 0 0 0 0 1

Total # of neighbors = 816984
Ave neighs/atom = 41.5726
Neighbor list builds = 495
Dangerous builds not checked
Setting up Verlet run ...
  Unit style    : metal
  Current step  : 130495
  Time step     : 0.001
Per MPI rank memory allocation (min/avg/max) = 11.36 | 11.36 | 11.36 Mbytes
Step Temp Press TotEng PotEng Enthalpy 
  130495    1959.1931   -75.061649   -17072.657   -22049.186   -17100.801 
  140000    1953.9219   -598.12048   -17147.811   -22110.951   -17372.053 
Loop time of 633.669 on 2 procs for 9505 steps with 19652 atoms

Performance: 1.296 ns/day, 18.519 hours/ns, 15.000 timesteps/s
98.3% CPU use with 2 MPI tasks x no OpenMP threads

MPI task timing breakdown:
Section |  min time  |  avg time  |  max time  |%varavg| %total
---------------------------------------------------------------
Pair    | 329.42     | 332.37     | 335.32     |  16.2 | 52.45
Neigh   | 263.45     | 263.45     | 263.46     |   0.0 | 41.58
Comm    | 24.882     | 27.822     | 30.762     |  55.7 |  4.39
Output  | 0.059147   | 0.05917    | 0.059193   |   0.0 |  0.01
Modify  | 7.9227     | 7.9272     | 7.9317     |   0.2 |  1.25
Other   |            | 2.037      |            |       |  0.32

Nlocal:    9826 ave 9835 max 9817 min
Histogram: 1 0 0 0 0 0 0 0 0 1
Nghost:    10106.5 ave 10125 max 10088 min
Histogram: 1 0 0 0 0 0 0 0 0 1
Neighs:    408653 ave 413011 max 404295 min
Histogram: 1 0 0 0 0 0 0 0 0 1

Total # of neighbors = 817306
Ave neighs/atom = 41.5889
Neighbor list builds = 9505
Dangerous builds not checked
Setting up Verlet run ...
  Unit style    : metal
  Current step  : 140000
  Time step     : 0.001
Per MPI rank memory allocation (min/avg/max) = 11.36 | 11.36 | 11.36 Mbytes
Step Temp Press TotEng PotEng Enthalpy 
  140000    1953.9219   -598.12048   -17147.811   -22110.951   -17372.053 
  140495    1913.0358    462.08838   -17387.161   -22246.446   -17216.158 
Loop time of 32.1012 on 2 procs for 495 steps with 19652 atoms

Performance: 1.332 ns/day, 18.014 hours/ns, 15.420 timesteps/s
99.9% CPU use with 2 MPI tasks x no OpenMP threads

MPI task timing breakdown:
Section |  min time  |  avg time  |  max time  |%varavg| %total
---------------------------------------------------------------
Pair    | 16.655     | 16.79      | 16.925     |   3.3 | 52.30
Neigh   | 12.562     | 13.328     | 14.094     |  21.0 | 41.52
Comm    | 0.58222    | 1.4972     | 2.4122     |  74.8 |  4.66
Output  | 7.2956e-05 | 0.0001049  | 0.00013685 |   0.0 |  0.00
Modify  | 0.37347    | 0.37938    | 0.38529    |   1.0 |  1.18
Other   |            | 0.107      |            |       |  0.33

Nlocal:    9826 ave 9839 max 9813 min
Histogram: 1 0 0 0 0 0 0 0 0 1
Nghost:    10156.5 ave 10173 max 10140 min
Histogram: 1 0 0 0 0 0 0 0 0 1
Neighs:    414285 ave 419669 max 408901 min
Histogram: 1 0 0 0 0 0 0 0 0 1

Total # of neighbors = 828570
Ave neighs/atom = 42.1621
Neighbor list builds = 495
Dangerous builds not checked
Setting up Verlet run ...
  Unit style    : metal
  Current step  : 140495
  Time step     : 0.001
Per MPI rank memory allocation (min/avg/max) = 11.36 | 11.36 | 11.36 Mbytes
Step Temp Press TotEng PotEng Enthalpy 
  140495    1913.0358    462.08838   -17387.161   -22246.446   -17216.158 
  150000     1917.678    303.40621   -17462.057   -22333.134   -17350.079 
Loop time of 660.538 on 2 procs for 9505 steps with 19652 atoms

Performance: 1.243 ns/day, 19.304 hours/ns, 14.390 timesteps/s
99.2% CPU use with 2 MPI tasks x no OpenMP threads

MPI task timing breakdown:
Section |  min time  |  avg time  |  max time  |%varavg| %total
---------------------------------------------------------------
Pair    | 342.18     | 349.6      | 357.03     |  39.7 | 52.93
Neigh   | 258.91     | 267.76     | 276.61     |  54.1 | 40.54
Comm    | 16.589     | 33.047     | 49.504     | 286.3 |  5.00
Output  | 0.049174   | 0.049194   | 0.049214   |   0.0 |  0.01
Modify  | 7.8453     | 7.9164     | 7.9876     |   2.5 |  1.20
Other   |            | 2.164      |            |       |  0.33

Nlocal:    9826 ave 9839 max 9813 min
Histogram: 1 0 0 0 0 0 0 0 0 1
Nghost:    10130 ave 10140 max 10120 min
Histogram: 1 0 0 0 0 0 0 0 0 1
Neighs:    414907 ave 419873 max 409941 min
Histogram: 1 0 0 0 0 0 0 0 0 1

Total # of neighbors = 829814
Ave neighs/atom = 42.2254
Neighbor list builds = 9505
Dangerous builds not checked
Setting up Verlet run ...
  Unit style    : metal
  Current step  : 150000
  Time step     : 0.001
Per MPI rank memory allocation (min/avg/max) = 11.36 | 11.36 | 11.36 Mbytes
Step Temp Press TotEng PotEng Enthalpy 
  150000     1917.678    303.40621   -17462.057   -22333.134   -17350.079 
  150495    1867.2391   -452.29555   -17659.878   -22402.835   -17826.628 
Loop time of 32.9607 on 2 procs for 495 steps with 19652 atoms

Performance: 1.298 ns/day, 18.496 hours/ns, 15.018 timesteps/s
99.8% CPU use with 2 MPI tasks x no OpenMP threads

MPI task timing breakdown:
Section |  min time  |  avg time  |  max time  |%varavg| %total
---------------------------------------------------------------
Pair    | 17.219     | 17.289     | 17.359     |   1.7 | 52.45
Neigh   | 12.434     | 13.446     | 14.458     |  27.6 | 40.79
Comm    | 0.62523    | 1.7232     | 2.8212     |  83.6 |  5.23
Output  | 7.7009e-05 | 0.00010395 | 0.00013089 |   0.0 |  0.00
Modify  | 0.38394    | 0.3938     | 0.40366    |   1.6 |  1.19
Other   |            | 0.1084     |            |       |  0.33

Nlocal:    9826 ave 9854 max 9798 min
Histogram: 1 0 0 0 0 0 0 0 0 1
Nghost:    10160 ave 10167 max 10153 min
Histogram: 1 0 0 0 0 0 0 0 0 1
Neighs:    415508 ave 421588 max 409427 min
Histogram: 1 0 0 0 0 0 0 0 0 1

Total # of neighbors = 831015
Ave neighs/atom = 42.2865
Neighbor list builds = 495
Dangerous builds not checked
Setting up Verlet run ...
  Unit style    : metal
  Current step  : 150495
  Time step     : 0.001
Per MPI rank memory allocation (min/avg/max) = 11.36 | 11.36 | 11.36 Mbytes
Step Temp Press TotEng PotEng Enthalpy 
  150495    1867.2391   -452.29555   -17659.878   -22402.835   -17826.628 
  160000    1864.0486    84.770892   -17756.801   -22491.654   -17725.788 
Loop time of 662.481 on 2 procs for 9505 steps with 19652 atoms

Performance: 1.240 ns/day, 19.361 hours/ns, 14.348 timesteps/s
98.3% CPU use with 2 MPI tasks x no OpenMP threads

MPI task timing breakdown:
Section |  min time  |  avg time  |  max time  |%varavg| %total
---------------------------------------------------------------
Pair    | 350.93     | 352.71     | 354.49     |   9.5 | 53.24
Neigh   | 272.59     | 274.76     | 276.92     |  13.1 | 41.47
Comm    | 23.937     | 24.203     | 24.468     |   5.4 |  3.65
Output  | 0.15814    | 0.15817    | 0.1582     |   0.0 |  0.02
Modify  | 8.2884     | 8.3891     | 8.4898     |   3.5 |  1.27
Other   |            | 2.266      |            |       |  0.34

Nlocal:    9826 ave 9836 max 9816 min
Histogram: 1 0 0 0 0 0 0 0 0 1
Nghost:    10176 ave 10200 max 10152 min
Histogram: 1 0 0 0 0 0 0 0 0 1
Neighs:    418928 ave 421798 max 416058 min
Histogram: 1 0 0 0 0 0 0 0 0 1

Total # of neighbors = 837856
Ave neighs/atom = 42.6346
Neighbor list builds = 9505
Dangerous builds not checked
Setting up Verlet run ...
  Unit style    : metal
  Current step  : 160000
  Time step     : 0.001
Per MPI rank memory allocation (min/avg/max) = 11.36 | 11.36 | 11.36 Mbytes
Step Temp Press TotEng PotEng Enthalpy 
  160000    1864.0486    84.770892   -17756.801   -22491.654   -17725.788 
  160495    1816.0855   -270.22406   -17986.155   -22599.178   -18084.738 
Loop time of 31.5984 on 2 procs for 495 steps with 19652 atoms

Performance: 1.353 ns/day, 17.732 hours/ns, 15.665 timesteps/s
99.6% CPU use with 2 MPI tasks x no OpenMP threads

MPI task timing breakdown:
Section |  min time  |  avg time  |  max time  |%varavg| %total
---------------------------------------------------------------
Pair    | 16.517     | 16.538     | 16.559     |   0.5 | 52.34
Neigh   | 13.469     | 13.579     | 13.688     |   3.0 | 42.97
Comm    | 0.85843    | 0.94351    | 1.0286     |   8.8 |  2.99
Output  | 7.4863e-05 | 0.00011444 | 0.00015402 |   0.0 |  0.00
Modify  | 0.42104    | 0.42128    | 0.42153    |   0.0 |  1.33
Other   |            | 0.1169     |            |       |  0.37

Nlocal:    9826 ave 9839 max 9813 min
Histogram: 1 0 0 0 0 0 0 0 0 1
Nghost:    10168 ave 10176 max 10160 min
Histogram: 1 0 0 0 0 0 0 0 0 1
Neighs:    419800 ave 424447 max 415154 min
Histogram: 1 0 0 0 0 0 0 0 0 1

Total # of neighbors = 839601
Ave neighs/atom = 42.7234
Neighbor list builds = 495
Dangerous builds not checked
Setting up Verlet run ...
  Unit style    : metal
  Current step  : 160495
  Time step     : 0.001
Per MPI rank memory allocation (min/avg/max) = 11.36 | 11.36 | 11.36 Mbytes
Step Temp Press TotEng PotEng Enthalpy 
  160495    1816.0855   -270.22406   -17986.155   -22599.178   -18084.738 
  170000    1801.1786   -140.38228   -18106.265   -22681.422   -18157.157 
Loop time of 648.85 on 2 procs for 9505 steps with 19652 atoms

Performance: 1.266 ns/day, 18.962 hours/ns, 14.649 timesteps/s
98.5% CPU use with 2 MPI tasks x no OpenMP threads

MPI task timing breakdown:
Section |  min time  |  avg time  |  max time  |%varavg| %total
---------------------------------------------------------------
Pair    | 342.66     | 343.06     | 343.46     |   2.2 | 52.87
Neigh   | 266.97     | 269.38     | 271.79     |  14.7 | 41.52
Comm    | 23.959     | 26.073     | 28.187     |  41.4 |  4.02
Output  | 0.096831   | 0.096853   | 0.096876   |   0.0 |  0.01
Modify  | 8.0456     | 8.1277     | 8.2097     |   2.9 |  1.25
Other   |            | 2.113      |            |       |  0.33

Nlocal:    9826 ave 9878 max 9774 min
Histogram: 1 0 0 0 0 0 0 0 0 1
Nghost:    10198.5 ave 10235 max 10162 min
Histogram: 1 0 0 0 0 0 0 0 0 1
Neighs:    422496 ave 422912 max 422081 min
Histogram: 1 0 0 0 0 0 0 0 0 1

Total # of neighbors = 844993
Ave neighs/atom = 42.9978
Neighbor list builds = 9505
Dangerous builds not checked
Setting up Verlet run ...
  Unit style    : metal
  Current step  : 170000
  Time step     : 0.001
Per MPI rank memory allocation (min/avg/max) = 11.36 | 11.36 | 11.36 Mbytes
Step Temp Press TotEng PotEng Enthalpy 
  170000    1801.1786   -140.38228   -18106.265   -22681.422   -18157.157 
  170495    1770.4996   -149.21782   -18319.535   -22816.766   -18373.372 
Loop time of 32.5598 on 2 procs for 495 steps with 19652 atoms

Performance: 1.314 ns/day, 18.271 hours/ns, 15.203 timesteps/s
99.2% CPU use with 2 MPI tasks x no OpenMP threads

MPI task timing breakdown:
Section |  min time  |  avg time  |  max time  |%varavg| %total
---------------------------------------------------------------
Pair    | 16.805     | 17.056     | 17.307     |   6.1 | 52.38
Neigh   | 13.398     | 13.842     | 14.287     |  12.0 | 42.51
Comm    | 0.93614    | 1.1411     | 1.346      |  19.2 |  3.50
Output  | 7.4148e-05 | 0.00011706 | 0.00015998 |   0.0 |  0.00
Modify  | 0.40324    | 0.40934    | 0.41543    |   1.0 |  1.26
Other   |            | 0.1111     |            |       |  0.34

Nlocal:    9826 ave 9859 max 9793 min
Histogram: 1 0 0 0 0 0 0 0 0 1
Nghost:    10238.5 ave 10254 max 10223 min
Histogram: 1 0 0 0 0 0 0 0 0 1
Neighs:    424904 ave 426104 max 423703 min
Histogram: 1 0 0 0 0 0 0 0 0 1

Total # of neighbors = 849807
Ave neighs/atom = 43.2428
Neighbor list builds = 495
Dangerous builds not checked
Setting up Verlet run ...
  Unit style    : metal
  Current step  : 170495
  Time step     : 0.001
Per MPI rank memory allocation (min/avg/max) = 11.36 | 11.36 | 11.36 Mbytes
Step Temp Press TotEng PotEng Enthalpy 
  170495    1770.4996   -149.21782   -18319.535   -22816.766   -18373.372 
  180000    1748.7279   -469.86839   -18420.771   -22862.699   -18590.345 
Loop time of 635.42 on 2 procs for 9505 steps with 19652 atoms

Performance: 1.292 ns/day, 18.570 hours/ns, 14.959 timesteps/s
98.8% CPU use with 2 MPI tasks x no OpenMP threads

MPI task timing breakdown:
Section |  min time  |  avg time  |  max time  |%varavg| %total
---------------------------------------------------------------
Pair    | 332.18     | 335.37     | 338.56     |  17.4 | 52.78
Neigh   | 262.64     | 264.35     | 266.06     |  10.5 | 41.60
Comm    | 24.002     | 25.467     | 26.932     |  29.0 |  4.01
Output  | 0.17716    | 0.17718    | 0.1772     |   0.0 |  0.03
Modify  | 7.9633     | 7.9824     | 8.0016     |   0.7 |  1.26
Other   |            | 2.077      |            |       |  0.33

Nlocal:    9826 ave 9867 max 9785 min
Histogram: 1 0 0 0 0 0 0 0 0 1
Nghost:    10225 ave 10236 max 10214 min
Histogram: 1 0 0 0 0 0 0 0 0 1
Neighs:    424730 ave 425393 max 424066 min
Histogram: 1 0 0 0 0 0 0 0 0 1

Total # of neighbors = 849459
Ave neighs/atom = 43.2251
Neighbor list builds = 9505
Dangerous builds not checked
Setting up Verlet run ...
  Unit style    : metal
  Current step  : 180000
  Time step     : 0.001
Per MPI rank memory allocation (min/avg/max) = 11.36 | 11.36 | 11.36 Mbytes
Step Temp Press TotEng PotEng Enthalpy 
  180000    1748.7279   -469.86839   -18420.771   -22862.699   -18590.345 
  180495    1715.7893   -543.50399   -18588.425   -22946.686   -18783.252 
Loop time of 30.2413 on 2 procs for 495 steps with 19652 atoms

Performance: 1.414 ns/day, 16.970 hours/ns, 16.368 timesteps/s
98.8% CPU use with 2 MPI tasks x no OpenMP threads

MPI task timing breakdown:
Section |  min time  |  avg time  |  max time  |%varavg| %total
---------------------------------------------------------------
Pair    | 15.477     | 15.769     | 16.06      |   7.3 | 52.14
Neigh   | 12.978     | 13.188     | 13.399     |   5.8 | 43.61
Comm    | 0.71036    | 0.79976    | 0.88916    |  10.0 |  2.64
Output  | 8.297e-05  | 0.00010347 | 0.00012398 |   0.0 |  0.00
Modify  | 0.37226    | 0.37665    | 0.38103    |   0.7 |  1.25
Other   |            | 0.1077     |            |       |  0.36

Nlocal:    9826 ave 9865 max 9787 min
Histogram: 1 0 0 0 0 0 0 0 0 1
Nghost:    10236.5 ave 10256 max 10217 min
Histogram: 1 0 0 0 0 0 0 0 0 1
Neighs:    427548 ave 428632 max 426464 min
Histogram: 1 0 0 0 0 0 0 0 0 1

Total # of neighbors = 855096
Ave neighs/atom = 43.5119
Neighbor list builds = 495
Dangerous builds not checked
Setting up Verlet run ...
  Unit style    : metal
  Current step  : 180495
  Time step     : 0.001
Per MPI rank memory allocation (min/avg/max) = 11.36 | 11.36 | 11.36 Mbytes
Step Temp Press TotEng PotEng Enthalpy 
  180495    1715.7893   -543.50399   -18588.425   -22946.686   -18783.252 
  190000    1703.2007    697.52518    -18732.84   -23059.125   -18485.207 
Loop time of 688.506 on 2 procs for 9505 steps with 19652 atoms

Performance: 1.193 ns/day, 20.121 hours/ns, 13.805 timesteps/s
96.8% CPU use with 2 MPI tasks x no OpenMP threads

MPI task timing breakdown:
Section |  min time  |  avg time  |  max time  |%varavg| %total
---------------------------------------------------------------
Pair    | 365.17     | 366.99     | 368.8      |   9.5 | 53.30
Neigh   | 276.98     | 277.31     | 277.64     |   2.0 | 40.28
Comm    | 31.392     | 33.517     | 35.642     |  36.7 |  4.87
Output  | 0.056098   | 0.056115   | 0.056131   |   0.0 |  0.01
Modify  | 8.351      | 8.3737     | 8.3963     |   0.8 |  1.22
Other   |            | 2.259      |            |       |  0.33

Nlocal:    9826 ave 9832 max 9820 min
Histogram: 1 0 0 0 0 0 0 0 0 1
Nghost:    10300 ave 10308 max 10292 min
Histogram: 1 0 0 0 0 0 0 0 0 1
Neighs:    431578 ave 435947 max 427210 min
Histogram: 1 0 0 0 0 0 0 0 0 1

Total # of neighbors = 863157
Ave neighs/atom = 43.9221
Neighbor list builds = 9505
Dangerous builds not checked
Setting up Verlet run ...
  Unit style    : metal
  Current step  : 190000
  Time step     : 0.001
Per MPI rank memory allocation (min/avg/max) = 11.36 | 11.36 | 11.36 Mbytes
Step Temp Press TotEng PotEng Enthalpy 
  190000    1703.2007    697.52518    -18732.84   -23059.125   -18485.207 
  190495     1655.984   -5.0966751   -18931.675   -23138.026   -18933.484 
Loop time of 34.6942 on 2 procs for 495 steps with 19652 atoms

Performance: 1.233 ns/day, 19.469 hours/ns, 14.268 timesteps/s
97.3% CPU use with 2 MPI tasks x no OpenMP threads

MPI task timing breakdown:
Section |  min time  |  avg time  |  max time  |%varavg| %total
---------------------------------------------------------------
Pair    | 18.166     | 18.471     | 18.777     |   7.1 | 53.24
Neigh   | 14.143     | 14.242     | 14.341     |   2.6 | 41.05
Comm    | 1.2492     | 1.4347     | 1.6203     |  15.5 |  4.14
Output  | 7.1049e-05 | 9.501e-05  | 0.00011897 |   0.0 |  0.00
Modify  | 0.41159    | 0.43495    | 0.45831    |   3.5 |  1.25
Other   |            | 0.1109     |            |       |  0.32

Nlocal:    9826 ave 9837 max 9815 min
Histogram: 1 0 0 0 0 0 0 0 0 1
Nghost:    10289.5 ave 10305 max 10274 min
Histogram: 1 0 0 0 0 0 0 0 0 1
Neighs:    432138 ave 435102 max 429174 min
Histogram: 1 0 0 0 0 0 0 0 0 1

Total # of neighbors = 864276
Ave neighs/atom = 43.979
Neighbor list builds = 495
Dangerous builds not checked
Setting up Verlet run ...
  Unit style    : metal
  Current step  : 190495
  Time step     : 0.001
Per MPI rank memory allocation (min/avg/max) = 11.36 | 11.36 | 11.36 Mbytes
Step Temp Press TotEng PotEng Enthalpy 
  190495     1655.984   -5.0966751   -18931.675   -23138.026   -18933.484 
  200000    1646.6203   -405.50401   -19043.958   -23226.523    -19187.47 
Loop time of 672.159 on 2 procs for 9505 steps with 19652 atoms

Performance: 1.222 ns/day, 19.643 hours/ns, 14.141 timesteps/s
98.2% CPU use with 2 MPI tasks x no OpenMP threads

MPI task timing breakdown:
Section |  min time  |  avg time  |  max time  |%varavg| %total
---------------------------------------------------------------
Pair    | 351.71     | 358.24     | 364.77     |  34.5 | 53.30
Neigh   | 261.99     | 271.32     | 280.65     |  56.6 | 40.37
Comm    | 16.342     | 32.402     | 48.462     | 282.1 |  4.82
Output  | 0.046834   | 0.046851   | 0.046869   |   0.0 |  0.01
Modify  | 7.8907     | 7.9666     | 8.0426     |   2.7 |  1.19
Other   |            | 2.187      |            |       |  0.33

Nlocal:    9826 ave 9841 max 9811 min
Histogram: 1 0 0 0 0 0 0 0 0 1
Nghost:    10288 ave 10303 max 10273 min
Histogram: 1 0 0 0 0 0 0 0 0 1
Neighs:    433124 ave 436956 max 429292 min
Histogram: 1 0 0 0 0 0 0 0 0 1

Total # of neighbors = 866248
Ave neighs/atom = 44.0794
Neighbor list builds = 9505
Dangerous builds not checked
Setting up Verlet run ...
  Unit style    : metal
  Current step  : 200000
  Time step     : 0.001
Per MPI rank memory allocation (min/avg/max) = 11.36 | 11.36 | 11.36 Mbytes
Step Temp Press TotEng PotEng Enthalpy 
  200000    1646.6203   -405.50401   -19043.958   -23226.523    -19187.47 
  200495    1617.4577     192.3793   -19249.957   -23358.447   -19182.389 
Loop time of 32.3827 on 2 procs for 495 steps with 19652 atoms

Performance: 1.321 ns/day, 18.172 hours/ns, 15.286 timesteps/s
99.8% CPU use with 2 MPI tasks x no OpenMP threads

MPI task timing breakdown:
Section |  min time  |  avg time  |  max time  |%varavg| %total
---------------------------------------------------------------
Pair    | 16.962     | 17.133     | 17.304     |   4.1 | 52.91
Neigh   | 12.451     | 13.205     | 13.959     |  20.8 | 40.78
Comm    | 0.61382    | 1.547      | 2.4802     |  75.0 |  4.78
Output  | 7.987e-05  | 0.000108   | 0.00013614 |   0.0 |  0.00
Modify  | 0.38781    | 0.39121    | 0.3946     |   0.5 |  1.21
Other   |            | 0.1063     |            |       |  0.33

Nlocal:    9826 ave 9839 max 9813 min
Histogram: 1 0 0 0 0 0 0 0 0 1
Nghost:    10376.5 ave 10434 max 10319 min
Histogram: 1 0 0 0 0 0 0 0 0 1
Neighs:    436564 ave 439863 max 433265 min
Histogram: 1 0 0 0 0 0 0 0 0 1

Total # of neighbors = 873128
Ave neighs/atom = 44.4295
Neighbor list builds = 495
Dangerous builds not checked
Setting up Verlet run ...
  Unit style    : metal
  Current step  : 200495
  Time step     : 0.001
Per MPI rank memory allocation (min/avg/max) = 11.36 | 11.36 | 11.36 Mbytes
Step Temp Press TotEng PotEng Enthalpy 
  200495    1617.4577     192.3793   -19249.957   -23358.447   -19182.389 
  210000    1608.9921    38.672608     -19367.2   -23454.187    -19353.67 
Loop time of 644.771 on 2 procs for 9505 steps with 19652 atoms

Performance: 1.274 ns/day, 18.843 hours/ns, 14.742 timesteps/s
99.3% CPU use with 2 MPI tasks x no OpenMP threads

MPI task timing breakdown:
Section |  min time  |  avg time  |  max time  |%varavg| %total
---------------------------------------------------------------
Pair    | 339.46     | 343.88     | 348.3      |  23.8 | 53.33
Neigh   | 263.49     | 264.74     | 265.98     |   7.6 | 41.06
Comm    | 20.458     | 26.204     | 31.951     | 112.3 |  4.06
Output  | 0.051488   | 0.051512   | 0.051535   |   0.0 |  0.01
Modify  | 7.7466     | 7.8084     | 7.8702     |   2.2 |  1.21
Other   |            | 2.087      |            |       |  0.32

Nlocal:    9826 ave 9846 max 9806 min
Histogram: 1 0 0 0 0 0 0 0 0 1
Nghost:    10367.5 ave 10381 max 10354 min
Histogram: 1 0 0 0 0 0 0 0 0 1
Neighs:    438379 ave 440436 max 436322 min
Histogram: 1 0 0 0 0 0 0 0 0 1

Total # of neighbors = 876758
Ave neighs/atom = 44.6142
Neighbor list builds = 9505
Dangerous builds not checked
Setting up Verlet run ...
  Unit style    : metal
  Current step  : 210000
  Time step     : 0.001
Per MPI rank memory allocation (min/avg/max) = 11.36 | 11.36 | 11.36 Mbytes
Step Temp Press TotEng PotEng Enthalpy 
  210000    1608.9921    38.672608     -19367.2   -23454.187    -19353.67 
  210495    1566.4068   -202.51445    -19547.47   -23526.286     -19618.1 
Loop time of 32.8138 on 2 procs for 495 steps with 19652 atoms

Performance: 1.303 ns/day, 18.414 hours/ns, 15.085 timesteps/s
99.4% CPU use with 2 MPI tasks x no OpenMP threads

MPI task timing breakdown:
Section |  min time  |  avg time  |  max time  |%varavg| %total
---------------------------------------------------------------
Pair    | 17.336     | 17.514     | 17.691     |   4.2 | 53.37
Neigh   | 13.406     | 13.754     | 14.102     |   9.4 | 41.91
Comm    | 0.82715    | 0.99673    | 1.1663     |  17.0 |  3.04
Output  | 7.2956e-05 | 0.00010049 | 0.00012803 |   0.0 |  0.00
Modify  | 0.42798    | 0.42866    | 0.42933    |   0.1 |  1.31
Other   |            | 0.1209     |            |       |  0.37

Nlocal:    9826 ave 9849 max 9803 min
Histogram: 1 0 0 0 0 0 0 0 0 1
Nghost:    10407 ave 10413 max 10401 min
Histogram: 1 0 0 0 0 0 0 0 0 1
Neighs:    439892 ave 441307 max 438476 min
Histogram: 1 0 0 0 0 0 0 0 0 1

Total # of neighbors = 879783
Ave neighs/atom = 44.7681
Neighbor list builds = 495
Dangerous builds not checked
Setting up Verlet run ...
  Unit style    : metal
  Current step  : 210495
  Time step     : 0.001
Per MPI rank memory allocation (min/avg/max) = 11.36 | 11.36 | 11.36 Mbytes
Step Temp Press TotEng PotEng Enthalpy 
  210495    1566.4068   -202.51445    -19547.47   -23526.286     -19618.1 
  220000    1554.4778    21.052697   -19627.215    -23575.73   -19619.896 
Loop time of 639.351 on 2 procs for 9505 steps with 19652 atoms

Performance: 1.284 ns/day, 18.685 hours/ns, 14.867 timesteps/s
98.4% CPU use with 2 MPI tasks x no OpenMP threads

MPI task timing breakdown:
Section |  min time  |  avg time  |  max time  |%varavg| %total
---------------------------------------------------------------
Pair    | 329.67     | 333.84     | 338.02     |  22.8 | 52.22
Neigh   | 263.59     | 264.41     | 265.23     |   5.0 | 41.36
Comm    | 27.699     | 31.098     | 34.497     |  61.0 |  4.86
Output  | 0.060695   | 0.060711   | 0.060727   |   0.0 |  0.01
Modify  | 7.6737     | 7.7176     | 7.7615     |   1.6 |  1.21
Other   |            | 2.223      |            |       |  0.35

Nlocal:    9826 ave 9847 max 9805 min
Histogram: 1 0 0 0 0 0 0 0 0 1
Nghost:    10344.5 ave 10381 max 10308 min
Histogram: 1 0 0 0 0 0 0 0 0 1
Neighs:    441134 ave 441666 max 440601 min
Histogram: 1 0 0 0 0 0 0 0 0 1

Total # of neighbors = 882267
Ave neighs/atom = 44.8945
Neighbor list builds = 9505
Dangerous builds not checked
Setting up Verlet run ...
  Unit style    : metal
  Current step  : 220000
  Time step     : 0.001
Per MPI rank memory allocation (min/avg/max) = 11.36 | 11.36 | 11.36 Mbytes
Step Temp Press TotEng PotEng Enthalpy 
  220000    1554.4778    21.052697   -19627.215    -23575.73   -19619.896 
  220495    1513.1122   -190.89749   -19805.173   -23648.616   -19871.393 
Loop time of 32.3589 on 2 procs for 495 steps with 19652 atoms

Performance: 1.322 ns/day, 18.159 hours/ns, 15.297 timesteps/s
99.7% CPU use with 2 MPI tasks x no OpenMP threads

MPI task timing breakdown:
Section |  min time  |  avg time  |  max time  |%varavg| %total
---------------------------------------------------------------
Pair    | 17.134     | 17.174     | 17.213     |   1.0 | 53.07
Neigh   | 13.375     | 13.589     | 13.802     |   5.8 | 41.99
Comm    | 0.80756    | 1.0755     | 1.3435     |  25.8 |  3.32
Output  | 8.3923e-05 | 0.00011539 | 0.00014687 |   0.0 |  0.00
Modify  | 0.40266    | 0.4099     | 0.41714    |   1.1 |  1.27
Other   |            | 0.1111     |            |       |  0.34

Nlocal:    9826 ave 9828 max 9824 min
Histogram: 1 0 0 0 0 0 0 0 0 1
Nghost:    10410.5 ave 10421 max 10400 min
Histogram: 1 0 0 0 0 0 0 0 0 1
Neighs:    442294 ave 445180 max 439409 min
Histogram: 1 0 0 0 0 0 0 0 0 1

Total # of neighbors = 884589
Ave neighs/atom = 45.0127
Neighbor list builds = 495
Dangerous builds not checked
Setting up Verlet run ...
  Unit style    : metal
  Current step  : 220495
  Time step     : 0.001
Per MPI rank memory allocation (min/avg/max) = 11.36 | 11.36 | 11.36 Mbytes
Step Temp Press TotEng PotEng Enthalpy 
  220495    1513.1122   -190.89749   -19805.173   -23648.616   -19871.393 
  230000    1499.1117    86.340768   -19962.732   -23770.612   -19933.004 
Loop time of 678.949 on 2 procs for 9505 steps with 19652 atoms

Performance: 1.210 ns/day, 19.842 hours/ns, 14.000 timesteps/s
98.9% CPU use with 2 MPI tasks x no OpenMP threads

MPI task timing breakdown:
Section |  min time  |  avg time  |  max time  |%varavg| %total
---------------------------------------------------------------
Pair    | 368.38     | 368.57     | 368.77     |   1.0 | 54.29
Neigh   | 275.37     | 276.85     | 278.33     |   8.9 | 40.78
Comm    | 21.621     | 22.911     | 24.201     |  26.9 |  3.37
Output  | 0.053191   | 0.053216   | 0.053241   |   0.0 |  0.01
Modify  | 8.2212     | 8.2339     | 8.2466     |   0.4 |  1.21
Other   |            | 2.334      |            |       |  0.34

Nlocal:    9826 ave 9859 max 9793 min
Histogram: 1 0 0 0 0 0 0 0 0 1
Nghost:    10448 ave 10458 max 10438 min
Histogram: 1 0 0 0 0 0 0 0 0 1
Neighs:    445490 ave 446329 max 444652 min
Histogram: 1 0 0 0 0 0 0 0 0 1

Total # of neighbors = 890981
Ave neighs/atom = 45.3379
Neighbor list builds = 9505
Dangerous builds not checked
Setting up Verlet run ...
  Unit style    : metal
  Current step  : 230000
  Time step     : 0.001
Per MPI rank memory allocation (min/avg/max) = 11.36 | 11.36 | 11.36 Mbytes
Step Temp Press TotEng PotEng Enthalpy 
  230000    1499.1117    86.340768   -19962.732   -23770.612   -19933.004 
  230495    1464.7388    100.92717   -20157.625   -23878.195   -20123.012 
Loop time of 33.6397 on 2 procs for 495 steps with 19652 atoms

Performance: 1.271 ns/day, 18.878 hours/ns, 14.715 timesteps/s
99.6% CPU use with 2 MPI tasks x no OpenMP threads

MPI task timing breakdown:
Section |  min time  |  avg time  |  max time  |%varavg| %total
---------------------------------------------------------------
Pair    | 17.787     | 18.185     | 18.582     |   9.3 | 54.06
Neigh   | 13.484     | 13.87      | 14.256     |  10.4 | 41.23
Comm    | 1.0159     | 1.0455     | 1.075      |   2.9 |  3.11
Output  | 7.4148e-05 | 0.00013459 | 0.00019503 |   0.0 |  0.00
Modify  | 0.40388    | 0.418      | 0.43212    |   2.2 |  1.24
Other   |            | 0.1212     |            |       |  0.36

Nlocal:    9826 ave 9858 max 9794 min
Histogram: 1 0 0 0 0 0 0 0 0 1
Nghost:    10453.5 ave 10463 max 10444 min
Histogram: 1 0 0 0 0 0 0 0 0 1
Neighs:    447558 ave 447603 max 447514 min
Histogram: 1 0 0 0 0 0 0 0 0 1

Total # of neighbors = 895117
Ave neighs/atom = 45.5484
Neighbor list builds = 495
Dangerous builds not checked
Setting up Verlet run ...
  Unit style    : metal
  Current step  : 230495
  Time step     : 0.001
Per MPI rank memory allocation (min/avg/max) = 11.36 | 11.36 | 11.36 Mbytes
Step Temp Press TotEng PotEng Enthalpy 
  230495    1464.7388    100.92717   -20157.625   -23878.195   -20123.012 
  240000    1455.0244   -243.37099   -20225.713   -23921.607    -20309.14 
Loop time of 689.051 on 2 procs for 9505 steps with 19652 atoms

Performance: 1.192 ns/day, 20.137 hours/ns, 13.794 timesteps/s
98.8% CPU use with 2 MPI tasks x no OpenMP threads

MPI task timing breakdown:
Section |  min time  |  avg time  |  max time  |%varavg| %total
---------------------------------------------------------------
Pair    | 373.84     | 376.52     | 379.2      |  13.8 | 54.64
Neigh   | 272.31     | 274.59     | 276.86     |  13.7 | 39.85
Comm    | 22         | 27.05      | 32.101     |  97.1 |  3.93
Output  | 0.048459   | 0.048483   | 0.048507   |   0.0 |  0.01
Modify  | 8.5095     | 8.5557     | 8.602      |   1.6 |  1.24
Other   |            | 2.291      |            |       |  0.33

Nlocal:    9826 ave 9836 max 9816 min
Histogram: 1 0 0 0 0 0 0 0 0 1
Nghost:    10470 ave 10506 max 10434 min
Histogram: 1 0 0 0 0 0 0 0 0 1
Neighs:    447762 ave 451580 max 443945 min
Histogram: 1 0 0 0 0 0 0 0 0 1

Total # of neighbors = 895525
Ave neighs/atom = 45.5692
Neighbor list builds = 9505
Dangerous builds not checked
Setting up Verlet run ...
  Unit style    : metal
  Current step  : 240000
  Time step     : 0.001
Per MPI rank memory allocation (min/avg/max) = 11.36 | 11.36 | 11.36 Mbytes
Step Temp Press TotEng PotEng Enthalpy 
  240000    1455.0244   -243.37099   -20225.713   -23921.607    -20309.14 
  240495    1417.6179    105.57297   -20445.743   -24046.622   -20409.807 
Loop time of 33.5008 on 2 procs for 495 steps with 19652 atoms

Performance: 1.277 ns/day, 18.800 hours/ns, 14.776 timesteps/s
99.8% CPU use with 2 MPI tasks x no OpenMP threads

MPI task timing breakdown:
Section |  min time  |  avg time  |  max time  |%varavg| %total
---------------------------------------------------------------
Pair    | 17.497     | 17.904     | 18.312     |   9.6 | 53.44
Neigh   | 13.216     | 13.602     | 13.989     |  10.5 | 40.60
Comm    | 1.4391     | 1.4625     | 1.486      |   1.9 |  4.37
Output  | 7.0095e-05 | 0.00010657 | 0.00014305 |   0.0 |  0.00
Modify  | 0.41308    | 0.41901    | 0.42494    |   0.9 |  1.25
Other   |            | 0.1125     |            |       |  0.34

Nlocal:    9826 ave 9830 max 9822 min
Histogram: 1 0 0 0 0 0 0 0 0 1
Nghost:    10503 ave 10515 max 10491 min
Histogram: 1 0 0 0 0 0 0 0 0 1
Neighs:    450978 ave 454681 max 447275 min
Histogram: 1 0 0 0 0 0 0 0 0 1

Total # of neighbors = 901956
Ave neighs/atom = 45.8964
Neighbor list builds = 495
Dangerous builds not checked
Setting up Verlet run ...
  Unit style    : metal
  Current step  : 240495
  Time step     : 0.001
Per MPI rank memory allocation (min/avg/max) = 11.36 | 11.36 | 11.36 Mbytes
Step Temp Press TotEng PotEng Enthalpy 
  240495    1417.6179    105.57297   -20445.743   -24046.622   -20409.807 
  250000      1405.49    116.82716   -20544.986   -24115.059   -20505.362 
Loop time of 674.061 on 2 procs for 9505 steps with 19652 atoms

Performance: 1.218 ns/day, 19.699 hours/ns, 14.101 timesteps/s
98.1% CPU use with 2 MPI tasks x no OpenMP threads

MPI task timing breakdown:
Section |  min time  |  avg time  |  max time  |%varavg| %total
---------------------------------------------------------------
Pair    | 360.1      | 361.19     | 362.28     |   5.7 | 53.58
Neigh   | 269        | 270.87     | 272.74     |  11.3 | 40.18
Comm    | 30.708     | 31.489     | 32.269     |  13.9 |  4.67
Output  | 0.05553    | 0.055571   | 0.055612   |   0.0 |  0.01
Modify  | 8.1806     | 8.2001     | 8.2197     |   0.7 |  1.22
Other   |            | 2.255      |            |       |  0.33

Nlocal:    9826 ave 9859 max 9793 min
Histogram: 1 0 0 0 0 0 0 0 0 1
Nghost:    10521.5 ave 10526 max 10517 min
Histogram: 1 0 0 0 0 0 0 0 0 1
Neighs:    452504 ave 458804 max 446205 min
Histogram: 1 0 0 0 0 0 0 0 0 1

Total # of neighbors = 905009
Ave neighs/atom = 46.0518
Neighbor list builds = 9505
Dangerous builds not checked
Setting up Verlet run ...
  Unit style    : metal
  Current step  : 250000
  Time step     : 0.001
Per MPI rank memory allocation (min/avg/max) = 11.36 | 11.36 | 11.36 Mbytes
Step Temp Press TotEng PotEng Enthalpy 
  250000      1405.49    116.82716   -20544.986   -24115.059   -20505.362 
  250495    1359.0779    59.436594   -20761.526   -24213.708    -20741.44 
Loop time of 32.6288 on 2 procs for 495 steps with 19652 atoms

Performance: 1.311 ns/day, 18.310 hours/ns, 15.171 timesteps/s
98.4% CPU use with 2 MPI tasks x no OpenMP threads

MPI task timing breakdown:
Section |  min time  |  avg time  |  max time  |%varavg| %total
---------------------------------------------------------------
Pair    | 17.365     | 17.387     | 17.409     |   0.5 | 53.29
Neigh   | 13.356     | 13.639     | 13.922     |   7.7 | 41.80
Comm    | 0.79835    | 1.0821     | 1.3658     |  27.3 |  3.32
Output  | 7.9155e-05 | 0.00013316 | 0.00018716 |   0.0 |  0.00
Modify  | 0.38691    | 0.4015     | 0.41609    |   2.3 |  1.23
Other   |            | 0.1191     |            |       |  0.37

Nlocal:    9826 ave 9844 max 9808 min
Histogram: 1 0 0 0 0 0 0 0 0 1
Nghost:    10548.5 ave 10558 max 10539 min
Histogram: 1 0 0 0 0 0 0 0 0 1
Neighs:    454054 ave 456468 max 451641 min
Histogram: 1 0 0 0 0 0 0 0 0 1

Total # of neighbors = 908109
Ave neighs/atom = 46.2095
Neighbor list builds = 495
Dangerous builds not checked
Setting up Verlet run ...
  Unit style    : metal
  Current step  : 250495
  Time step     : 0.001
Per MPI rank memory allocation (min/avg/max) = 11.36 | 11.36 | 11.36 Mbytes
Step Temp Press TotEng PotEng Enthalpy 
  250495    1359.0779    59.436594   -20761.526   -24213.708    -20741.44 
  260000    1350.8299   -616.22071   -20867.153   -24298.384   -21075.329 
Loop time of 712.016 on 2 procs for 9505 steps with 19652 atoms

Performance: 1.153 ns/day, 20.808 hours/ns, 13.349 timesteps/s
98.7% CPU use with 2 MPI tasks x no OpenMP threads

MPI task timing breakdown:
Section |  min time  |  avg time  |  max time  |%varavg| %total
---------------------------------------------------------------
Pair    | 392.28     | 392.37     | 392.45     |   0.4 | 55.11
Neigh   | 272.4      | 274.06     | 275.72     |  10.0 | 38.49
Comm    | 32.859     | 34.52      | 36.182     |  28.3 |  4.85
Output  | 0.29121    | 0.29125    | 0.29129    |   0.0 |  0.04
Modify  | 8.3151     | 8.3979     | 8.4807     |   2.9 |  1.18
Other   |            | 2.378      |            |       |  0.33

Nlocal:    9826 ave 9860 max 9792 min
Histogram: 1 0 0 0 0 0 0 0 0 1
Nghost:    10482 ave 10549 max 10415 min
Histogram: 1 0 0 0 0 0 0 0 0 1
Neighs:    454320 ave 460336 max 448303 min
Histogram: 1 0 0 0 0 0 0 0 0 1

Total # of neighbors = 908639
Ave neighs/atom = 46.2365
Neighbor list builds = 9505
Dangerous builds not checked
Setting up Verlet run ...
  Unit style    : metal
  Current step  : 260000
  Time step     : 0.001
Per MPI rank memory allocation (min/avg/max) = 11.36 | 11.36 | 11.36 Mbytes
Step Temp Press TotEng PotEng Enthalpy 
  260000    1350.8299   -616.22071   -20867.153   -24298.384   -21075.329 
  260495     1319.744    48.331611   -21085.336   -24437.606   -21069.145 
Loop time of 36.6476 on 2 procs for 495 steps with 19652 atoms

Performance: 1.167 ns/day, 20.565 hours/ns, 13.507 timesteps/s
99.5% CPU use with 2 MPI tasks x no OpenMP threads

MPI task timing breakdown:
Section |  min time  |  avg time  |  max time  |%varavg| %total
---------------------------------------------------------------
Pair    | 19.543     | 20.021     | 20.5       |  10.7 | 54.63
Neigh   | 14.236     | 14.372     | 14.507     |   3.6 | 39.22
Comm    | 1.3473     | 1.703      | 2.0587     |  27.3 |  4.65
Output  | 8.0109e-05 | 0.00012302 | 0.00016594 |   0.0 |  0.00
Modify  | 0.41748    | 0.42641    | 0.43535    |   1.4 |  1.16
Other   |            | 0.125      |            |       |  0.34

Nlocal:    9826 ave 9828 max 9824 min
Histogram: 1 0 0 0 0 0 0 0 0 1
Nghost:    10512 ave 10557 max 10467 min
Histogram: 1 0 0 0 0 0 0 0 0 1
Neighs:    458594 ave 461682 max 455506 min
Histogram: 1 0 0 0 0 0 0 0 0 1

Total # of neighbors = 917188
Ave neighs/atom = 46.6715
Neighbor list builds = 495
Dangerous builds not checked
Setting up Verlet run ...
  Unit style    : metal
  Current step  : 260495
  Time step     : 0.001
Per MPI rank memory allocation (min/avg/max) = 11.36 | 11.36 | 11.36 Mbytes
Step Temp Press TotEng PotEng Enthalpy 
  260495     1319.744    48.331611   -21085.336   -24437.606   -21069.145 
  270000    1290.8816   -470.15371   -21180.468   -24459.424   -21338.142 
Loop time of 697.36 on 2 procs for 9505 steps with 19652 atoms

Performance: 1.178 ns/day, 20.380 hours/ns, 13.630 timesteps/s
98.7% CPU use with 2 MPI tasks x no OpenMP threads

MPI task timing breakdown:
Section |  min time  |  avg time  |  max time  |%varavg| %total
---------------------------------------------------------------
Pair    | 383.33     | 384.08     | 384.84     |   3.9 | 55.08
Neigh   | 268.53     | 270.08     | 271.63     |   9.4 | 38.73
Comm    | 30.283     | 32.661     | 35.039     |  41.6 |  4.68
Output  | 0.05893    | 0.058945   | 0.05896    |   0.0 |  0.01
Modify  | 8.117      | 8.1924     | 8.2678     |   2.6 |  1.17
Other   |            | 2.287      |            |       |  0.33

Nlocal:    9826 ave 9841 max 9811 min
Histogram: 1 0 0 0 0 0 0 0 0 1
Nghost:    10602.5 ave 10609 max 10596 min
Histogram: 1 0 0 0 0 0 0 0 0 1
Neighs:    457920 ave 460478 max 455363 min
Histogram: 1 0 0 0 0 0 0 0 0 1

Total # of neighbors = 915841
Ave neighs/atom = 46.6029
Neighbor list builds = 9505
Dangerous builds not checked
Setting up Verlet run ...
  Unit style    : metal
  Current step  : 270000
  Time step     : 0.001
Per MPI rank memory allocation (min/avg/max) = 11.36 | 11.36 | 11.36 Mbytes
Step Temp Press TotEng PotEng Enthalpy 
  270000    1290.8816   -470.15371   -21180.468   -24459.424   -21338.142 
  270495    1265.1359    9.6311303     -21368.5    -24582.06   -21365.291 
Loop time of 31.6003 on 2 procs for 495 steps with 19652 atoms

Performance: 1.353 ns/day, 17.733 hours/ns, 15.664 timesteps/s
99.7% CPU use with 2 MPI tasks x no OpenMP threads

MPI task timing breakdown:
Section |  min time  |  avg time  |  max time  |%varavg| %total
---------------------------------------------------------------
Pair    | 16.891     | 16.955     | 17.019     |   1.5 | 53.65
Neigh   | 12.465     | 12.59      | 12.715     |   3.5 | 39.84
Comm    | 1.3761     | 1.5707     | 1.7652     |  15.5 |  4.97
Output  | 8.297e-05  | 0.00012946 | 0.00017595 |   0.0 |  0.00
Modify  | 0.37639    | 0.38092    | 0.38545    |   0.7 |  1.21
Other   |            | 0.1038     |            |       |  0.33

Nlocal:    9826 ave 9851 max 9801 min
Histogram: 1 0 0 0 0 0 0 0 0 1
Nghost:    10585.5 ave 10594 max 10577 min
Histogram: 1 0 0 0 0 0 0 0 0 1
Neighs:    461230 ave 463022 max 459437 min
Histogram: 1 0 0 0 0 0 0 0 0 1

Total # of neighbors = 922459
Ave neighs/atom = 46.9397
Neighbor list builds = 495
Dangerous builds not checked
Setting up Verlet run ...
  Unit style    : metal
  Current step  : 270495
  Time step     : 0.001
Per MPI rank memory allocation (min/avg/max) = 11.36 | 11.36 | 11.36 Mbytes
Step Temp Press TotEng PotEng Enthalpy 
  270495    1265.1359    9.6311303     -21368.5    -24582.06   -21365.291 
  280000    1243.8687   -68.060664    -21526.83    -24686.37   -21549.397 
Loop time of 708.382 on 2 procs for 9505 steps with 19652 atoms

Performance: 1.159 ns/day, 20.702 hours/ns, 13.418 timesteps/s
98.3% CPU use with 2 MPI tasks x no OpenMP threads

MPI task timing breakdown:
Section |  min time  |  avg time  |  max time  |%varavg| %total
---------------------------------------------------------------
Pair    | 385.81     | 390.1      | 394.38     |  21.7 | 55.07
Neigh   | 272.05     | 273.21     | 274.37     |   7.0 | 38.57
Comm    | 28.492     | 34.036     | 39.579     |  95.0 |  4.80
Output  | 0.11891    | 0.11893    | 0.11896    |   0.0 |  0.02
Modify  | 8.5971     | 8.6509     | 8.7048     |   1.8 |  1.22
Other   |            | 2.271      |            |       |  0.32

Nlocal:    9826 ave 9856 max 9796 min
Histogram: 1 0 0 0 0 0 0 0 0 1
Nghost:    10602.5 ave 10628 max 10577 min
Histogram: 1 0 0 0 0 0 0 0 0 1
Neighs:    463464 ave 465124 max 461803 min
Histogram: 1 0 0 0 0 0 0 0 0 1

Total # of neighbors = 926927
Ave neighs/atom = 47.1671
Neighbor list builds = 9505
Dangerous builds not checked
Setting up Verlet run ...
  Unit style    : metal
  Current step  : 280000
  Time step     : 0.001
Per MPI rank memory allocation (min/avg/max) = 11.36 | 11.36 | 11.36 Mbytes
Step Temp Press TotEng PotEng Enthalpy 
  280000    1243.8687   -68.060664    -21526.83    -24686.37   -21549.397 
  280495    1218.0789   -244.35673   -21651.071   -24745.102    -21731.99 
Loop time of 57.1612 on 2 procs for 495 steps with 19652 atoms

Performance: 0.748 ns/day, 32.077 hours/ns, 8.660 timesteps/s
63.0% CPU use with 2 MPI tasks x no OpenMP threads

MPI task timing breakdown:
Section |  min time  |  avg time  |  max time  |%varavg| %total
---------------------------------------------------------------
Pair    | 19.338     | 19.761     | 20.184     |   9.5 | 34.57
Neigh   | 13.846     | 13.944     | 14.041     |   2.6 | 24.39
Comm    | 22.573     | 22.907     | 23.24      |   7.0 | 40.07
Output  | 8.1778e-05 | 0.00011182 | 0.00014186 |   0.0 |  0.00
Modify  | 0.42259    | 0.42821    | 0.43383    |   0.9 |  0.75
Other   |            | 0.1213     |            |       |  0.21

Nlocal:    9826 ave 9829 max 9823 min
Histogram: 1 0 0 0 0 0 0 0 0 1
Nghost:    10623 ave 10638 max 10608 min
Histogram: 1 0 0 0 0 0 0 0 0 1
Neighs:    464066 ave 467427 max 460705 min
Histogram: 1 0 0 0 0 0 0 0 0 1

Total # of neighbors = 928132
Ave neighs/atom = 47.2284
Neighbor list builds = 495
Dangerous builds not checked
Setting up Verlet run ...
  Unit style    : metal
  Current step  : 280495
  Time step     : 0.001
Per MPI rank memory allocation (min/avg/max) = 11.36 | 11.36 | 11.36 Mbytes
Step Temp Press TotEng PotEng Enthalpy 
  280495    1218.0789   -244.35673   -21651.071   -24745.102    -21731.99 
  290000    1190.1482    -194.0204   -21797.105   -24820.189   -21861.127 
Loop time of 739.93 on 2 procs for 9505 steps with 19652 atoms

Performance: 1.110 ns/day, 21.624 hours/ns, 12.846 timesteps/s
99.4% CPU use with 2 MPI tasks x no OpenMP threads

MPI task timing breakdown:
Section |  min time  |  avg time  |  max time  |%varavg| %total
---------------------------------------------------------------
Pair    | 411.3      | 414.87     | 418.43     |  17.5 | 56.07
Neigh   | 281.77     | 282.4      | 283.04     |   3.8 | 38.17
Comm    | 27.129     | 31.352     | 35.576     |  75.4 |  4.24
Output  | 0.18254    | 0.18256    | 0.18258    |   0.0 |  0.02
Modify  | 8.6809     | 8.6862     | 8.6914     |   0.2 |  1.17
Other   |            | 2.437      |            |       |  0.33

Nlocal:    9826 ave 9836 max 9816 min
Histogram: 1 0 0 0 0 0 0 0 0 1
Nghost:    10655 ave 10664 max 10646 min
Histogram: 1 0 0 0 0 0 0 0 0 1
Neighs:    465755 ave 469188 max 462322 min
Histogram: 1 0 0 0 0 0 0 0 0 1

Total # of neighbors = 931510
Ave neighs/atom = 47.4003
Neighbor list builds = 9505
Dangerous builds not checked
Setting up Verlet run ...
  Unit style    : metal
  Current step  : 290000
  Time step     : 0.001
Per MPI rank memory allocation (min/avg/max) = 11.36 | 11.36 | 11.36 Mbytes
Step Temp Press TotEng PotEng Enthalpy 
  290000    1190.1482    -194.0204   -21797.105   -24820.189   -21861.127 
  290495    1166.5836    86.299216   -21997.615   -24960.844   -21969.316 
Loop time of 41.1191 on 2 procs for 495 steps with 19652 atoms

Performance: 1.040 ns/day, 23.075 hours/ns, 12.038 timesteps/s
98.1% CPU use with 2 MPI tasks x no OpenMP threads

MPI task timing breakdown:
Section |  min time  |  avg time  |  max time  |%varavg| %total
---------------------------------------------------------------
Pair    | 21.992     | 22.73      | 23.467     |  15.5 | 55.28
Neigh   | 14.611     | 15.374     | 16.136     |  19.4 | 37.39
Comm    | 0.84818    | 2.3801     | 3.9121     |  99.3 |  5.79
Output  | 7.2002e-05 | 9.8586e-05 | 0.00012517 |   0.0 |  0.00
Modify  | 0.47902    | 0.50161    | 0.5242     |   3.2 |  1.22
Other   |            | 0.134      |            |       |  0.33

Nlocal:    9826 ave 9830 max 9822 min
Histogram: 1 0 0 0 0 0 0 0 0 1
Nghost:    10688 ave 10717 max 10659 min
Histogram: 1 0 0 0 0 0 0 0 0 1
Neighs:    469074 ave 469442 max 468705 min
Histogram: 1 0 0 0 0 0 0 0 0 1

Total # of neighbors = 938147
Ave neighs/atom = 47.738
Neighbor list builds = 495
Dangerous builds not checked
Setting up Verlet run ...
  Unit style    : metal
  Current step  : 290495
  Time step     : 0.001
Per MPI rank memory allocation (min/avg/max) = 11.36 | 11.36 | 11.36 Mbytes
Step Temp Press TotEng PotEng Enthalpy 
  290495    1166.5836    86.299216   -21997.615   -24960.844   -21969.316 
  300000    1148.4026    199.43677   -22117.544   -25034.592   -22052.399 
Loop time of 734.543 on 2 procs for 9505 steps with 19652 atoms

Performance: 1.118 ns/day, 21.467 hours/ns, 12.940 timesteps/s
96.5% CPU use with 2 MPI tasks x no OpenMP threads

MPI task timing breakdown:
Section |  min time  |  avg time  |  max time  |%varavg| %total
---------------------------------------------------------------
Pair    | 385.8      | 390.53     | 395.26     |  23.9 | 53.17
Neigh   | 284.37     | 285.99     | 287.61     |   9.6 | 38.93
Comm    | 40.941     | 47.429     | 53.918     |  94.2 |  6.46
Output  | 0.29021    | 0.29023    | 0.29025    |   0.0 |  0.04
Modify  | 8.0187     | 8.0523     | 8.086      |   1.2 |  1.10
Other   |            | 2.249      |            |       |  0.31

Nlocal:    9826 ave 9837 max 9815 min
Histogram: 1 0 0 0 0 0 0 0 0 1
Nghost:    10650.5 ave 10653 max 10648 min
Histogram: 1 0 0 0 0 0 0 0 0 1
Neighs:    471007 ave 472366 max 469648 min
Histogram: 1 0 0 0 0 0 0 0 0 1

Total # of neighbors = 942014
Ave neighs/atom = 47.9348
Neighbor list builds = 9505
Dangerous builds not checked
Setting up Verlet run ...
  Unit style    : metal
  Current step  : 300000
  Time step     : 0.001
Per MPI rank memory allocation (min/avg/max) = 11.36 | 11.36 | 11.36 Mbytes
Step Temp Press TotEng PotEng Enthalpy 
  300000    1148.4026    199.43677   -22117.544   -25034.592   -22052.399 
[...]
Histogram: 1 0 0 0 0 0 0 0 0 1
Neighs:    528738 ave 529776 max 527700 min
Histogram: 1 0 0 0 0 0 0 0 0 1

Total # of neighbors = 1057476
Ave neighs/atom = 53.8101
Neighbor list builds = 9505
Dangerous builds not checked
Setting up Verlet run ...
  Unit style    : metal
  Current step  : 440000
  Time step     : 0.001
Per MPI rank memory allocation (min/avg/max) = 11.36 | 11.36 | 11.36 Mbytes
Step Temp Press TotEng PotEng Enthalpy 
  440000    451.72894      220.147   -26674.672   -27822.105   -26609.403 
  440495    419.24967   -365.25199   -26830.679   -27895.611   -26938.919 
Loop time of 33.4204 on 2 procs for 495 steps with 19652 atoms

Performance: 1.280 ns/day, 18.754 hours/ns, 14.811 timesteps/s
99.9% CPU use with 2 MPI tasks x no OpenMP threads

MPI task timing breakdown:
Section |  min time  |  avg time  |  max time  |%varavg| %total
---------------------------------------------------------------
Pair    | 17.793     | 17.881     | 17.97      |   2.1 | 53.50
Neigh   | 13.511     | 13.732     | 13.954     |   6.0 | 41.09
Comm    | 0.99188    | 1.305      | 1.6181     |  27.4 |  3.90
Output  | 8.8215e-05 | 0.00012863 | 0.00016904 |   0.0 |  0.00
Modify  | 0.38821    | 0.39079    | 0.39338    |   0.4 |  1.17
Other   |            | 0.1107     |            |       |  0.33

Nlocal:    9826 ave 9842 max 9810 min
Histogram: 1 0 0 0 0 0 0 0 0 1
Nghost:    11082 ave 11096 max 11068 min
Histogram: 1 0 0 0 0 0 0 0 0 1
Neighs:    529224 ave 530692 max 527757 min
Histogram: 1 0 0 0 0 0 0 0 0 1

Total # of neighbors = 1058449
Ave neighs/atom = 53.8596
Neighbor list builds = 495
Dangerous builds not checked
Setting up Verlet run ...
  Unit style    : metal
  Current step  : 440495
  Time step     : 0.001
Per MPI rank memory allocation (min/avg/max) = 11.36 | 11.36 | 11.36 Mbytes
Step Temp Press TotEng PotEng Enthalpy 
  440495    419.24967   -365.25199   -26830.679   -27895.611   -26938.919 
  450000    403.92695   -530.92641   -26982.381   -28008.392   -27139.236 
Loop time of 685.952 on 2 procs for 9505 steps with 19652 atoms

Performance: 1.197 ns/day, 20.047 hours/ns, 13.857 timesteps/s
99.0% CPU use with 2 MPI tasks x no OpenMP threads

MPI task timing breakdown:
Section |  min time  |  avg time  |  max time  |%varavg| %total
---------------------------------------------------------------
Pair    | 363.13     | 368.68     | 374.22     |  28.9 | 53.75
Neigh   | 261.4      | 269.82     | 278.23     |  51.2 | 39.33
Comm    | 22.641     | 37.006     | 51.37      | 236.1 |  5.39
Output  | 0.058554   | 0.058574   | 0.058595   |   0.0 |  0.01
Modify  | 7.9609     | 8.1703     | 8.3798     |   7.3 |  1.19
Other   |            | 2.225      |            |       |  0.32

Nlocal:    9826 ave 9828 max 9824 min
Histogram: 1 0 0 0 0 0 0 0 0 1
Nghost:    11114.5 ave 11116 max 11113 min
Histogram: 1 0 0 0 0 0 0 0 0 1
Neighs:    531394 ave 531581 max 531208 min
Histogram: 1 0 0 0 0 0 0 0 0 1

Total # of neighbors = 1062789
Ave neighs/atom = 54.0804
Neighbor list builds = 9505
Dangerous builds not checked
Setting up Verlet run ...
  Unit style    : metal
  Current step  : 450000
  Time step     : 0.001
Per MPI rank memory allocation (min/avg/max) = 11.36 | 11.36 | 11.36 Mbytes
Step Temp Press TotEng PotEng Enthalpy 
  450000    403.92695   -530.92641   -26982.381   -28008.392   -27139.236 
  450495    371.95694    386.72311   -27145.816   -28090.621   -27032.229 
Loop time of 35.8515 on 2 procs for 495 steps with 19652 atoms

Performance: 1.193 ns/day, 20.119 hours/ns, 13.807 timesteps/s
97.4% CPU use with 2 MPI tasks x no OpenMP threads

MPI task timing breakdown:
Section |  min time  |  avg time  |  max time  |%varavg| %total
---------------------------------------------------------------
Pair    | 19.288     | 19.487     | 19.686     |   4.5 | 54.36
Neigh   | 13.3       | 13.944     | 14.588     |  17.2 | 38.89
Comm    | 0.97076    | 1.8331     | 2.6954     |  63.7 |  5.11
Output  | 0.00010419 | 0.0001241  | 0.000144   |   0.0 |  0.00
Modify  | 0.46703    | 0.47834    | 0.48965    |   1.6 |  1.33
Other   |            | 0.1084     |            |       |  0.30

Nlocal:    9826 ave 9853 max 9799 min
Histogram: 1 0 0 0 0 0 0 0 0 1
Nghost:    11165.5 ave 11168 max 11163 min
Histogram: 1 0 0 0 0 0 0 0 0 1
Neighs:    535116 ave 536980 max 533252 min
Histogram: 1 0 0 0 0 0 0 0 0 1

Total # of neighbors = 1070232
Ave neighs/atom = 54.4592
Neighbor list builds = 495
Dangerous builds not checked
Setting up Verlet run ...
  Unit style    : metal
  Current step  : 450495
  Time step     : 0.001
Per MPI rank memory allocation (min/avg/max) = 11.36 | 11.36 | 11.36 Mbytes
Step Temp Press TotEng PotEng Enthalpy 
  450495    371.95694    386.72311   -27145.816   -28090.621   -27032.229 
  460000    349.94493    77.544676    -27305.32   -28194.212   -27282.589 
Loop time of 683.559 on 2 procs for 9505 steps with 19652 atoms

Performance: 1.201 ns/day, 19.977 hours/ns, 13.905 timesteps/s
96.0% CPU use with 2 MPI tasks x no OpenMP threads

MPI task timing breakdown:
Section |  min time  |  avg time  |  max time  |%varavg| %total
---------------------------------------------------------------
Pair    | 351.53     | 353        | 354.47     |   7.8 | 51.64
Neigh   | 260.37     | 262.06     | 263.76     |  10.5 | 38.34
Comm    | 49.231     | 52.49      | 55.748     |  45.0 |  7.68
Output  | 0.24615    | 0.24617    | 0.24619    |   0.0 |  0.04
Modify  | 13.65      | 13.702     | 13.754     |   1.4 |  2.00
Other   |            | 2.054      |            |       |  0.30

Nlocal:    9826 ave 9827 max 9825 min
Histogram: 1 0 0 0 0 0 0 0 0 1
Nghost:    11153.5 ave 11174 max 11133 min
Histogram: 1 0 0 0 0 0 0 0 0 1
Neighs:    536625 ave 536715 max 536535 min
Histogram: 1 0 0 0 0 0 0 0 0 1

Total # of neighbors = 1073250
Ave neighs/atom = 54.6128
Neighbor list builds = 9505
Dangerous builds not checked
Setting up Verlet run ...
  Unit style    : metal
  Current step  : 460000
  Time step     : 0.001
Per MPI rank memory allocation (min/avg/max) = 11.36 | 11.36 | 11.36 Mbytes
Step Temp Press TotEng PotEng Enthalpy 
  460000    349.94493    77.544676    -27305.32   -28194.212   -27282.589 
  460495    322.29671   -18.599845   -27446.681   -28265.344   -27452.122 
Loop time of 36.5574 on 2 procs for 495 steps with 19652 atoms

Performance: 1.170 ns/day, 20.515 hours/ns, 13.540 timesteps/s
99.0% CPU use with 2 MPI tasks x no OpenMP threads

MPI task timing breakdown:
Section |  min time  |  avg time  |  max time  |%varavg| %total
---------------------------------------------------------------
Pair    | 19.314     | 19.875     | 20.435     |  12.6 | 54.37
Neigh   | 14.382     | 14.547     | 14.711     |   4.3 | 39.79
Comm    | 0.83619    | 1.5791     | 2.3221     |  59.1 |  4.32
Output  | 8.7023e-05 | 0.00011396 | 0.00014091 |   0.0 |  0.00
Modify  | 0.42273    | 0.43782    | 0.45291    |   2.3 |  1.20
Other   |            | 0.1191     |            |       |  0.33

Nlocal:    9826 ave 9841 max 9811 min
Histogram: 1 0 0 0 0 0 0 0 0 1
Nghost:    11169 ave 11174 max 11164 min
Histogram: 1 0 0 0 0 0 0 0 0 1
Neighs:    537978 ave 539053 max 536904 min
Histogram: 1 0 0 0 0 0 0 0 0 1

Total # of neighbors = 1075957
Ave neighs/atom = 54.7505
Neighbor list builds = 495
Dangerous builds not checked
Setting up Verlet run ...
  Unit style    : metal
  Current step  : 460495
  Time step     : 0.001
Per MPI rank memory allocation (min/avg/max) = 11.36 | 11.36 | 11.36 Mbytes
Step Temp Press TotEng PotEng Enthalpy 
  460495    322.29671   -18.599845   -27446.681   -28265.344   -27452.122 
  470000    301.76793    144.09053    -27585.23   -28351.748   -27543.216 
Loop time of 672.277 on 2 procs for 9505 steps with 19652 atoms

Performance: 1.222 ns/day, 19.647 hours/ns, 14.139 timesteps/s
99.1% CPU use with 2 MPI tasks x no OpenMP threads

MPI task timing breakdown:
Section |  min time  |  avg time  |  max time  |%varavg| %total
---------------------------------------------------------------
Pair    | 362.36     | 363.94     | 365.52     |   8.3 | 54.14
Neigh   | 259.31     | 267.07     | 274.83     |  47.5 | 39.73
Comm    | 21.784     | 31.323     | 40.863     | 170.5 |  4.66
Output  | 0.058467   | 0.058478   | 0.05849    |   0.0 |  0.01
Modify  | 7.6786     | 7.7501     | 7.8216     |   2.6 |  1.15
Other   |            | 2.136      |            |       |  0.32

Nlocal:    9826 ave 9835 max 9817 min
Histogram: 1 0 0 0 0 0 0 0 0 1
Nghost:    11202.5 ave 11226 max 11179 min
Histogram: 1 0 0 0 0 0 0 0 0 1
Neighs:    540463 ave 541084 max 539842 min
Histogram: 1 0 0 0 0 0 0 0 0 1

Total # of neighbors = 1080926
Ave neighs/atom = 55.0034
Neighbor list builds = 9505
Dangerous builds not checked
Setting up Verlet run ...
  Unit style    : metal
  Current step  : 470000
  Time step     : 0.001
Per MPI rank memory allocation (min/avg/max) = 11.36 | 11.36 | 11.36 Mbytes
Step Temp Press TotEng PotEng Enthalpy 
  470000    301.76793    144.09053    -27585.23   -28351.748   -27543.216 
  470495    274.49292     116.6495   -27727.758   -28424.995    -27693.82 
Loop time of 34.8815 on 2 procs for 495 steps with 19652 atoms

Performance: 1.226 ns/day, 19.574 hours/ns, 14.191 timesteps/s
98.2% CPU use with 2 MPI tasks x no OpenMP threads

MPI task timing breakdown:
Section |  min time  |  avg time  |  max time  |%varavg| %total
---------------------------------------------------------------
Pair    | 18.397     | 18.738     | 19.078     |   7.9 | 53.72
Neigh   | 13.886     | 13.948     | 14.01      |   1.7 | 39.99
Comm    | 1.2636     | 1.6614     | 2.0593     |  30.9 |  4.76
Output  | 8.893e-05  | 0.00013053 | 0.00017214 |   0.0 |  0.00
Modify  | 0.41053    | 0.41702    | 0.42351    |   1.0 |  1.20
Other   |            | 0.1168     |            |       |  0.33

Nlocal:    9826 ave 9826 max 9826 min
Histogram: 2 0 0 0 0 0 0 0 0 0
Nghost:    11175 ave 11191 max 11159 min
Histogram: 1 0 0 0 0 0 0 0 0 1
Neighs:    541829 ave 542129 max 541529 min
Histogram: 1 0 0 0 0 0 0 0 0 1

Total # of neighbors = 1083658
Ave neighs/atom = 55.1424
Neighbor list builds = 495
Dangerous builds not checked
Setting up Verlet run ...
  Unit style    : metal
  Current step  : 470495
  Time step     : 0.001
Per MPI rank memory allocation (min/avg/max) = 11.36 | 11.36 | 11.36 Mbytes
Step Temp Press TotEng PotEng Enthalpy 
  470495    274.49292     116.6495   -27727.758   -28424.995    -27693.82 
  480000    250.88511   -411.37413   -27863.787   -28501.058   -27983.392 
Loop time of 677.667 on 2 procs for 9505 steps with 19652 atoms

Performance: 1.212 ns/day, 19.804 hours/ns, 14.026 timesteps/s
97.9% CPU use with 2 MPI tasks x no OpenMP threads

MPI task timing breakdown:
Section |  min time  |  avg time  |  max time  |%varavg| %total
---------------------------------------------------------------
Pair    | 368.24     | 369.99     | 371.74     |   9.1 | 54.60
Neigh   | 258        | 266.95     | 275.9      |  54.8 | 39.39
Comm    | 19.677     | 30.644     | 41.611     | 198.1 |  4.52
Output  | 0.061643   | 0.061663   | 0.061682   |   0.0 |  0.01
Modify  | 7.7497     | 7.8606     | 7.9715     |   4.0 |  1.16
Other   |            | 2.162      |            |       |  0.32

Nlocal:    9826 ave 9833 max 9819 min
Histogram: 1 0 0 0 0 0 0 0 0 1
Nghost:    11184 ave 11206 max 11162 min
Histogram: 1 0 0 0 0 0 0 0 0 1
Neighs:    542621 ave 542933 max 542309 min
Histogram: 1 0 0 0 0 0 0 0 0 1

Total # of neighbors = 1085242
Ave neighs/atom = 55.223
Neighbor list builds = 9505
Dangerous builds not checked
Setting up Verlet run ...
  Unit style    : metal
  Current step  : 480000
  Time step     : 0.001
Per MPI rank memory allocation (min/avg/max) = 11.36 | 11.36 | 11.36 Mbytes
Step Temp Press TotEng PotEng Enthalpy 
  480000    250.88511   -411.37413   -27863.787   -28501.058   -27983.392 
  480495    223.98938   -229.39419   -28003.662   -28572.615   -28070.157 
Loop time of 34.3953 on 2 procs for 495 steps with 19652 atoms

Performance: 1.243 ns/day, 19.302 hours/ns, 14.392 timesteps/s
98.7% CPU use with 2 MPI tasks x no OpenMP threads

MPI task timing breakdown:
Section |  min time  |  avg time  |  max time  |%varavg| %total
---------------------------------------------------------------
Pair    | 18.47      | 18.521     | 18.572     |   1.2 | 53.85
Neigh   | 13.214     | 13.789     | 14.364     |  15.5 | 40.09
Comm    | 0.9375     | 1.5802     | 2.2229     |  51.1 |  4.59
Output  | 8.0109e-05 | 9.8586e-05 | 0.00011706 |   0.0 |  0.00
Modify  | 0.38872    | 0.39395    | 0.39918    |   0.8 |  1.15
Other   |            | 0.111      |            |       |  0.32

Nlocal:    9826 ave 9846 max 9806 min
Histogram: 1 0 0 0 0 0 0 0 0 1
Nghost:    11205.5 ave 11210 max 11201 min
Histogram: 1 0 0 0 0 0 0 0 0 1
Neighs:    544456 ave 545648 max 543263 min
Histogram: 1 0 0 0 0 0 0 0 0 1

Total # of neighbors = 1088911
Ave neighs/atom = 55.4097
Neighbor list builds = 495
Dangerous builds not checked
Setting up Verlet run ...
  Unit style    : metal
  Current step  : 480495
  Time step     : 0.001
Per MPI rank memory allocation (min/avg/max) = 11.36 | 11.36 | 11.36 Mbytes
Step Temp Press TotEng PotEng Enthalpy 
  480495    223.98938   -229.39419   -28003.662   -28572.615   -28070.157 
  490000    198.51682   -139.68661   -28146.137   -28650.388   -28186.523 
Loop time of 670.552 on 2 procs for 9505 steps with 19652 atoms

Performance: 1.225 ns/day, 19.596 hours/ns, 14.175 timesteps/s
99.3% CPU use with 2 MPI tasks x no OpenMP threads

MPI task timing breakdown:
Section |  min time  |  avg time  |  max time  |%varavg| %total
---------------------------------------------------------------
Pair    | 358.05     | 361.92     | 365.8      |  20.4 | 53.97
Neigh   | 253.83     | 265.6      | 277.38     |  72.3 | 39.61
Comm    | 17.055     | 33.006     | 48.957     | 277.6 |  4.92
Output  | 0.11914    | 0.11916    | 0.11918    |   0.0 |  0.02
Modify  | 7.6075     | 7.7457     | 7.8839     |   5.0 |  1.16
Other   |            | 2.158      |            |       |  0.32

Nlocal:    9826 ave 9828 max 9824 min
Histogram: 1 0 0 0 0 0 0 0 0 1
Nghost:    11247 ave 11256 max 11238 min
Histogram: 1 0 0 0 0 0 0 0 0 1
Neighs:    546202 ave 546570 max 545834 min
Histogram: 1 0 0 0 0 0 0 0 0 1

Total # of neighbors = 1092404
Ave neighs/atom = 55.5874
Neighbor list builds = 9505
Dangerous builds not checked
Setting up Verlet run ...
  Unit style    : metal
  Current step  : 490000
  Time step     : 0.001
Per MPI rank memory allocation (min/avg/max) = 11.36 | 11.36 | 11.36 Mbytes
Step Temp Press TotEng PotEng Enthalpy 
  490000    198.51682   -139.68661   -28146.137   -28650.388   -28186.523 
  490495    174.25773    39.239861   -28269.725   -28712.356   -28258.409 
Loop time of 33.8341 on 2 procs for 495 steps with 19652 atoms

Performance: 1.264 ns/day, 18.987 hours/ns, 14.630 timesteps/s
99.5% CPU use with 2 MPI tasks x no OpenMP threads

MPI task timing breakdown:
Section |  min time  |  avg time  |  max time  |%varavg| %total
---------------------------------------------------------------
Pair    | 18.1       | 18.245     | 18.39      |   3.4 | 53.92
Neigh   | 13.406     | 13.74      | 14.073     |   9.0 | 40.61
Comm    | 0.85075    | 1.3403     | 1.8299     |  42.3 |  3.96
Output  | 8.0109e-05 | 0.00011408 | 0.00014806 |   0.0 |  0.00
Modify  | 0.39093    | 0.39536    | 0.39979    |   0.7 |  1.17
Other   |            | 0.1141     |            |       |  0.34

Nlocal:    9826 ave 9833 max 9819 min
Histogram: 1 0 0 0 0 0 0 0 0 1
Nghost:    11253 ave 11271 max 11235 min
Histogram: 1 0 0 0 0 0 0 0 0 1
Neighs:    547948 ave 548691 max 547204 min
Histogram: 1 0 0 0 0 0 0 0 0 1

Total # of neighbors = 1095895
Ave neighs/atom = 55.7651
Neighbor list builds = 495
Dangerous builds not checked
Setting up Verlet run ...
  Unit style    : metal
  Current step  : 490495
  Time step     : 0.001
Per MPI rank memory allocation (min/avg/max) = 11.36 | 11.36 | 11.36 Mbytes
Step Temp Press TotEng PotEng Enthalpy 
  490495    174.25773    39.239861   -28269.725   -28712.356   -28258.409 
  500000     149.7686    115.86815   -28410.183   -28790.609   -28376.847 
Loop time of 731.538 on 2 procs for 9505 steps with 19652 atoms

Performance: 1.123 ns/day, 21.379 hours/ns, 12.993 timesteps/s
92.9% CPU use with 2 MPI tasks x no OpenMP threads

MPI task timing breakdown:
Section |  min time  |  avg time  |  max time  |%varavg| %total
---------------------------------------------------------------
Pair    | 357.3      | 357.86     | 358.42     |   3.0 | 48.92
Neigh   | 252.57     | 258.11     | 263.65     |  34.5 | 35.28
Comm    | 94.676     | 100.95     | 107.22     |  62.4 | 13.80
Output  | 0.061528   | 0.061542   | 0.061555   |   0.0 |  0.01
Modify  | 12.428     | 12.513     | 12.598     |   2.4 |  1.71
Other   |            | 2.044      |            |       |  0.28

Nlocal:    9826 ave 9843 max 9809 min
Histogram: 1 0 0 0 0 0 0 0 0 1
Nghost:    11260 ave 11265 max 11255 min
Histogram: 1 0 0 0 0 0 0 0 0 1
Neighs:    549699 ave 550963 max 548435 min
Histogram: 1 0 0 0 0 0 0 0 0 1

Total # of neighbors = 1099398
Ave neighs/atom = 55.9433
Neighbor list builds = 9505
Dangerous builds not checked
Setting up Verlet run ...
  Unit style    : metal
  Current step  : 500000
  Time step     : 0.001
Per MPI rank memory allocation (min/avg/max) = 11.36 | 11.36 | 11.36 Mbytes
Step Temp Press TotEng PotEng Enthalpy 
  500000     149.7686    115.86815   -28410.183   -28790.609   -28376.847 
  500495    128.76314   -210.46962   -28527.469   -28854.539   -28587.964 
Loop time of 31.161 on 2 procs for 495 steps with 19652 atoms

Performance: 1.372 ns/day, 17.487 hours/ns, 15.885 timesteps/s
99.8% CPU use with 2 MPI tasks x no OpenMP threads

MPI task timing breakdown:
Section |  min time  |  avg time  |  max time  |%varavg| %total
---------------------------------------------------------------
Pair    | 16.61      | 16.703     | 16.795     |   2.3 | 53.60
Neigh   | 12.622     | 12.908     | 13.194     |   8.0 | 41.42
Comm    | 0.88435    | 1.0882     | 1.2921     |  19.5 |  3.49
Output  | 6.2943e-05 | 9.0957e-05 | 0.00011897 |   0.0 |  0.00
Modify  | 0.35433    | 0.36283    | 0.37132    |   1.4 |  1.16
Other   |            | 0.09859    |            |       |  0.32

Nlocal:    9826 ave 9835 max 9817 min
Histogram: 1 0 0 0 0 0 0 0 0 1
Nghost:    11262.5 ave 11281 max 11244 min
Histogram: 1 0 0 0 0 0 0 0 0 1
Neighs:    550636 ave 551609 max 549664 min
Histogram: 1 0 0 0 0 0 0 0 0 1

Total # of neighbors = 1101273
Ave neighs/atom = 56.0387
Neighbor list builds = 495
Dangerous builds not checked
Setting up Verlet run ...
  Unit style    : metal
  Current step  : 500495
  Time step     : 0.001
Per MPI rank memory allocation (min/avg/max) = 11.36 | 11.36 | 11.36 Mbytes
Step Temp Press TotEng PotEng Enthalpy 
  500495    128.76314   -210.46962   -28527.469   -28854.539   -28587.964 
  510000    100.37744   -89.041056   -28671.782    -28926.75   -28697.309 
Loop time of 618.533 on 2 procs for 9505 steps with 19652 atoms

Performance: 1.328 ns/day, 18.076 hours/ns, 15.367 timesteps/s
99.3% CPU use with 2 MPI tasks x no OpenMP threads

MPI task timing breakdown:
Section |  min time  |  avg time  |  max time  |%varavg| %total
---------------------------------------------------------------
Pair    | 332.45     | 332.52     | 332.6      |   0.4 | 53.76
Neigh   | 249.32     | 251.6      | 253.89     |  14.4 | 40.68
Comm    | 22.991     | 25.249     | 27.507     |  44.9 |  4.08
Output  | 0.061432   | 0.061444   | 0.061457   |   0.0 |  0.01
Modify  | 7.1958     | 7.2254     | 7.255      |   1.1 |  1.17
Other   |            | 1.871      |            |       |  0.30

Nlocal:    9826 ave 9836 max 9816 min
Histogram: 1 0 0 0 0 0 0 0 0 1
Nghost:    11287.5 ave 11301 max 11274 min
Histogram: 1 0 0 0 0 0 0 0 0 1
Neighs:    552139 ave 553190 max 551088 min
Histogram: 1 0 0 0 0 0 0 0 0 1

Total # of neighbors = 1104278
Ave neighs/atom = 56.1916
Neighbor list builds = 9505
Dangerous builds not checked
Total wall time: 9:53:02
