LAMMPS (12 Dec 2018)
Lattice spacing in x,y,z = 4 4 4
Created orthogonal box = (0 0 0) to (68 68 68)
  1 by 1 by 2 MPI processor grid
Created 19652 atoms
  Time spent = 0.00166321 secs
Setting atom values ...
  19480 settings made for type/fraction
Neighbor list info ...
  update every 1 steps, delay 0 steps, check no
  max neighbors/atom: 2000, page size: 100000
  master list distance cutoff = 8.5
  ghost atom cutoff = 8.5
  binsize = 4.25, bins = 16 16 16
  1 neighbor lists, perpetual/occasional/extra = 1 0 0
  (1) pair eam/alloy, perpetual
      attributes: half, newton on
      pair build: half/bin/atomonly/newton
      stencil: half/bin/3d/newton
      bin: standard
Setting up Verlet run ...
  Unit style    : metal
  Current step  : 0
  Time step     : 0.001
Per MPI rank memory allocation (min/avg/max) = 11.15 | 11.15 | 11.15 Mbytes
Step Temp Press TotEng PotEng Enthalpy 
       0          300    24374.552   -65178.202    -65940.23   -60394.622 
    1000    210.98815    34837.053   -65178.134   -65714.063   -58341.256 
Loop time of 109.261 on 2 procs for 1000 steps with 19652 atoms

Performance: 0.791 ns/day, 30.350 hours/ns, 9.152 timesteps/s
92.4% CPU use with 2 MPI tasks x no OpenMP threads

MPI task timing breakdown:
Section |  min time  |  avg time  |  max time  |%varavg| %total
---------------------------------------------------------------
Pair    | 63.422     | 63.465     | 63.508     |   0.5 | 58.09
Neigh   | 39.776     | 39.846     | 39.917     |   1.1 | 36.47
Comm    | 5.2871     | 5.4026     | 5.518      |   5.0 |  4.94
Output  | 0.00015402 | 0.00023603 | 0.00031805 |   0.0 |  0.00
Modify  | 0.27127    | 0.27222    | 0.27318    |   0.2 |  0.25
Other   |            | 0.2751     |            |       |  0.25

Nlocal:    9826 ave 9830 max 9822 min
Histogram: 1 0 0 0 0 0 0 0 0 1
Nghost:    14211 ave 14215 max 14207 min
Histogram: 1 0 0 0 0 0 0 0 0 1
Neighs:    784588 ave 784781 max 784396 min
Histogram: 1 0 0 0 0 0 0 0 0 1

Total # of neighbors = 1569177
Ave neighs/atom = 79.8482
Neighbor list builds = 1000
Dangerous builds not checked
Setting up Verlet run ...
  Unit style    : metal
  Current step  : 1000
  Time step     : 0.001
Per MPI rank memory allocation (min/avg/max) = 11.15 | 11.15 | 11.15 Mbytes
Step Temp Press TotEng PotEng Enthalpy 
    1000    210.98815    34837.053   -65178.134   -65714.063   -58341.256 
    2000    304.92254   -81.349282   -64706.076   -65480.607   -64722.868 
Loop time of 104.471 on 2 procs for 1000 steps with 19652 atoms

Performance: 0.827 ns/day, 29.020 hours/ns, 9.572 timesteps/s
94.1% CPU use with 2 MPI tasks x no OpenMP threads

MPI task timing breakdown:
Section |  min time  |  avg time  |  max time  |%varavg| %total
---------------------------------------------------------------
Pair    | 59.098     | 59.573     | 60.049     |   6.2 | 57.02
Neigh   | 38.683     | 39.028     | 39.373     |   5.5 | 37.36
Comm    | 4.4061     | 4.5451     | 4.6842     |   6.5 |  4.35
Output  | 0.000103   | 0.00021946 | 0.00033593 |   0.0 |  0.00
Modify  | 1.0427     | 1.0467     | 1.0506     |   0.4 |  1.00
Other   |            | 0.2785     |            |       |  0.27

Nlocal:    9826 ave 9845 max 9807 min
Histogram: 1 0 0 0 0 0 0 0 0 1
Nghost:    14193.5 ave 14218 max 14169 min
Histogram: 1 0 0 0 0 0 0 0 0 1
Neighs:    728314 ave 729563 max 727066 min
Histogram: 1 0 0 0 0 0 0 0 0 1

Total # of neighbors = 1456629
Ave neighs/atom = 74.1212
Neighbor list builds = 1000
Dangerous builds not checked
Setting up Verlet run ...
  Unit style    : metal
  Current step  : 2000
  Time step     : 0.001
Per MPI rank memory allocation (min/avg/max) = 11.15 | 11.15 | 11.15 Mbytes
Step Temp Press TotEng PotEng Enthalpy 
    2000    304.92254   -81.349282   -64706.076   -65480.607   -64722.868 
   10000      2439.19   -550.52164   -51034.732   -57230.496   -51190.804 
Loop time of 893.198 on 2 procs for 8000 steps with 19652 atoms

Performance: 0.774 ns/day, 31.014 hours/ns, 8.957 timesteps/s
88.9% CPU use with 2 MPI tasks x no OpenMP threads

MPI task timing breakdown:
Section |  min time  |  avg time  |  max time  |%varavg| %total
---------------------------------------------------------------
Pair    | 499.01     | 499.61     | 500.2      |   2.7 | 55.93
Neigh   | 330.16     | 331.58     | 333.01     |   7.8 | 37.12
Comm    | 47.816     | 49.885     | 51.954     |  29.3 |  5.58
Output  | 0.040972   | 0.04101    | 0.041049   |   0.0 |  0.00
Modify  | 9.7748     | 9.787      | 9.7993     |   0.4 |  1.10
Other   |            | 2.293      |            |       |  0.26

Nlocal:    9826 ave 9837 max 9815 min
Histogram: 1 0 0 0 0 0 0 0 0 1
Nghost:    11265 ave 11292 max 11238 min
Histogram: 1 0 0 0 0 0 0 0 0 1
Neighs:    543356 ave 544713 max 541999 min
Histogram: 1 0 0 0 0 0 0 0 0 1

Total # of neighbors = 1086712
Ave neighs/atom = 55.2978
Neighbor list builds = 8000
Dangerous builds not checked
Setting up Verlet run ...
  Unit style    : metal
  Current step  : 10000
  Time step     : 0.001
Per MPI rank memory allocation (min/avg/max) = 11.2 | 11.2 | 11.2 Mbytes
Step Temp Press TotEng PotEng Enthalpy 
   10000      2439.19   -550.52164   -51034.732   -57230.496   -51190.804 
   20000    2459.1297     471.9452   -51014.645   -57261.058   -50881.265 
   30000    2430.8712   -78.716137   -50991.233   -57165.867   -51013.582 
   40000    2427.7317   -878.33342   -50933.842   -57100.502   -51184.216 
Loop time of 2978.08 on 2 procs for 30000 steps with 19652 atoms

Performance: 0.870 ns/day, 27.575 hours/ns, 10.074 timesteps/s
90.8% CPU use with 2 MPI tasks x no OpenMP threads

MPI task timing breakdown:
Section |  min time  |  avg time  |  max time  |%varavg| %total
---------------------------------------------------------------
Pair    | 1653.1     | 1655.6     | 1658.1     |   6.2 | 55.59
Neigh   | 1113.6     | 1116       | 1118.3     |   7.0 | 37.47
Comm    | 158.86     | 164.38     | 169.89     |  43.0 |  5.52
Output  | 0.12941    | 0.12951    | 0.12961    |   0.0 |  0.00
Modify  | 33.421     | 34.052     | 34.682     |  10.8 |  1.14
Other   |            | 7.959      |            |       |  0.27

Nlocal:    9826 ave 9829 max 9823 min
Histogram: 1 0 0 0 0 0 0 0 0 1
Nghost:    11290 ave 11310 max 11270 min
Histogram: 1 0 0 0 0 0 0 0 0 1
Neighs:    540313 ave 540489 max 540137 min
Histogram: 1 0 0 0 0 0 0 0 0 1

Total # of neighbors = 1080626
Ave neighs/atom = 54.9881
Neighbor list builds = 30000
Dangerous builds not checked
Setting up Verlet run ...
  Unit style    : metal
  Current step  : 40000
  Time step     : 0.001
Per MPI rank memory allocation (min/avg/max) = 11.29 | 11.29 | 11.29 Mbytes
Step Temp Press TotEng PotEng Enthalpy 
   40000    2427.7317   -878.33342   -50933.842   -57100.502   -51184.216 
   40495    2402.6245    1102.0336   -51230.451   -57333.336   -50920.615 
Loop time of 43.1301 on 2 procs for 495 steps with 19652 atoms

Performance: 0.992 ns/day, 24.203 hours/ns, 11.477 timesteps/s
94.8% CPU use with 2 MPI tasks x no OpenMP threads

MPI task timing breakdown:
Section |  min time  |  avg time  |  max time  |%varavg| %total
---------------------------------------------------------------
Pair    | 22.899     | 22.991     | 23.083     |   1.9 | 53.31
Neigh   | 16.07      | 16.417     | 16.765     |   8.6 | 38.06
Comm    | 2.8871     | 3.1434     | 3.3997     |  14.5 |  7.29
Output  | 9.2983e-05 | 0.0001235  | 0.00015402 |   0.0 |  0.00
Modify  | 0.45589    | 0.45714    | 0.45839    |   0.2 |  1.06
Other   |            | 0.1214     |            |       |  0.28

Nlocal:    9826 ave 9845 max 9807 min
Histogram: 1 0 0 0 0 0 0 0 0 1
Nghost:    11335.5 ave 11380 max 11291 min
Histogram: 1 0 0 0 0 0 0 0 0 1
Neighs:    547836 ave 548669 max 547003 min
Histogram: 1 0 0 0 0 0 0 0 0 1

Total # of neighbors = 1095672
Ave neighs/atom = 55.7537
Neighbor list builds = 495
Dangerous builds not checked
Setting up Verlet run ...
  Unit style    : metal
  Current step  : 40495
  Time step     : 0.001
Per MPI rank memory allocation (min/avg/max) = 11.29 | 11.29 | 11.29 Mbytes
Step Temp Press TotEng PotEng Enthalpy 
   40495    2402.6245    1102.0336   -51230.451   -57333.336   -50920.615 
   50000    2387.0031    -342.6279   -51355.525   -57418.731   -51451.921 
Loop time of 936.098 on 2 procs for 9505 steps with 19652 atoms

Performance: 0.877 ns/day, 27.357 hours/ns, 10.154 timesteps/s
91.1% CPU use with 2 MPI tasks x no OpenMP threads

MPI task timing breakdown:
Section |  min time  |  avg time  |  max time  |%varavg| %total
---------------------------------------------------------------
Pair    | 519.75     | 520.77     | 521.8      |   4.5 | 55.63
Neigh   | 348.31     | 350.27     | 352.23     |  10.5 | 37.42
Comm    | 48.706     | 49.93      | 51.154     |  17.3 |  5.33
Output  | 0.037407   | 0.037502   | 0.037597   |   0.0 |  0.00
Modify  | 12.222     | 12.496     | 12.77      |   7.7 |  1.33
Other   |            | 2.593      |            |       |  0.28

Nlocal:    9826 ave 9841 max 9811 min
Histogram: 1 0 0 0 0 0 0 0 0 1
Nghost:    11336 ave 11349 max 11323 min
Histogram: 1 0 0 0 0 0 0 0 0 1
Neighs:    547426 ave 548322 max 546529 min
Histogram: 1 0 0 0 0 0 0 0 0 1

Total # of neighbors = 1094851
Ave neighs/atom = 55.7119
Neighbor list builds = 9505
Dangerous builds not checked
Setting up Verlet run ...
  Unit style    : metal
  Current step  : 50000
  Time step     : 0.001
Per MPI rank memory allocation (min/avg/max) = 11.3 | 11.3 | 11.3 Mbytes
Step Temp Press TotEng PotEng Enthalpy 
   50000    2387.0031    -342.6279   -51355.525   -57418.731   -51451.921 
   50495    2355.7289   -311.53171   -51465.062   -57448.829   -51552.598 
Loop time of 46.4262 on 2 procs for 495 steps with 19652 atoms

Performance: 0.921 ns/day, 26.053 hours/ns, 10.662 timesteps/s
91.9% CPU use with 2 MPI tasks x no OpenMP threads

MPI task timing breakdown:
Section |  min time  |  avg time  |  max time  |%varavg| %total
---------------------------------------------------------------
Pair    | 25.636     | 25.683     | 25.729     |   0.9 | 55.32
Neigh   | 17.23      | 17.498     | 17.766     |   6.4 | 37.69
Comm    | 2.3417     | 2.5656     | 2.7896     |  14.0 |  5.53
Output  | 0.000108   | 0.00022793 | 0.00034785 |   0.0 |  0.00
Modify  | 0.5444     | 0.5472     | 0.55001    |   0.4 |  1.18
Other   |            | 0.1326     |            |       |  0.29

Nlocal:    9826 ave 9828 max 9824 min
Histogram: 1 0 0 0 0 0 0 0 0 1
Nghost:    11330.5 ave 11349 max 11312 min
Histogram: 1 0 0 0 0 0 0 0 0 1
Neighs:    548338 ave 548617 max 548060 min
Histogram: 1 0 0 0 0 0 0 0 0 1

Total # of neighbors = 1096677
Ave neighs/atom = 55.8049
Neighbor list builds = 495
Dangerous builds not checked
Setting up Verlet run ...
  Unit style    : metal
  Current step  : 50495
  Time step     : 0.001
Per MPI rank memory allocation (min/avg/max) = 11.3 | 11.3 | 11.3 Mbytes
Step Temp Press TotEng PotEng Enthalpy 
   50495    2355.7289   -311.53171   -51465.062   -57448.829   -51552.598 
   60000    2328.0793    101.01115   -51525.324   -57438.857   -51496.981 
Loop time of 917.931 on 2 procs for 9505 steps with 19652 atoms

Performance: 0.895 ns/day, 26.826 hours/ns, 10.355 timesteps/s
92.3% CPU use with 2 MPI tasks x no OpenMP threads

MPI task timing breakdown:
Section |  min time  |  avg time  |  max time  |%varavg| %total
---------------------------------------------------------------
Pair    | 509.57     | 510.25     | 510.94     |   3.0 | 55.59
Neigh   | 345.75     | 346.25     | 346.75     |   2.7 | 37.72
Comm    | 47.461     | 47.701     | 47.941     |   3.5 |  5.20
Output  | 0.038304   | 0.038482   | 0.038659   |   0.1 |  0.00
Modify  | 11.124     | 11.164     | 11.205     |   1.2 |  1.22
Other   |            | 2.527      |            |       |  0.28

Nlocal:    9826 ave 9841 max 9811 min
Histogram: 1 0 0 0 0 0 0 0 0 1
Nghost:    11359.5 ave 11370 max 11349 min
Histogram: 1 0 0 0 0 0 0 0 0 1
Neighs:    548863 ave 549569 max 548157 min
Histogram: 1 0 0 0 0 0 0 0 0 1

Total # of neighbors = 1097726
Ave neighs/atom = 55.8582
Neighbor list builds = 9505
Dangerous builds not checked
Setting up Verlet run ...
  Unit style    : metal
  Current step  : 60000
  Time step     : 0.001
Per MPI rank memory allocation (min/avg/max) = 11.31 | 11.31 | 11.31 Mbytes
Step Temp Press TotEng PotEng Enthalpy 
   60000    2328.0793    101.01115   -51525.324   -57438.857   -51496.981 
   60495    2320.2765   -422.97536   -51725.415   -57619.129   -51843.454 
Loop time of 38.2988 on 2 procs for 495 steps with 19652 atoms

Performance: 1.117 ns/day, 21.492 hours/ns, 12.925 timesteps/s
99.8% CPU use with 2 MPI tasks x no OpenMP threads

MPI task timing breakdown:
Section |  min time  |  avg time  |  max time  |%varavg| %total
---------------------------------------------------------------
Pair    | 20.727     | 20.752     | 20.778     |   0.6 | 54.19
Neigh   | 15.676     | 15.681     | 15.686     |   0.1 | 40.94
Comm    | 1.3093     | 1.3298     | 1.3503     |   1.8 |  3.47
Output  | 8.7023e-05 | 0.00013053 | 0.00017405 |   0.0 |  0.00
Modify  | 0.42141    | 0.42163    | 0.42186    |   0.0 |  1.10
Other   |            | 0.1139     |            |       |  0.30

Nlocal:    9826 ave 9846 max 9806 min
Histogram: 1 0 0 0 0 0 0 0 0 1
Nghost:    11436.5 ave 11441 max 11432 min
Histogram: 1 0 0 0 0 0 0 0 0 1
Neighs:    552234 ave 555543 max 548924 min
Histogram: 1 0 0 0 0 0 0 0 0 1

Total # of neighbors = 1104467
Ave neighs/atom = 56.2013
Neighbor list builds = 495
Dangerous builds not checked
Setting up Verlet run ...
  Unit style    : metal
  Current step  : 60495
  Time step     : 0.001
Per MPI rank memory allocation (min/avg/max) = 11.31 | 11.31 | 11.31 Mbytes
Step Temp Press TotEng PotEng Enthalpy 
   60495    2320.2765   -422.97536   -51725.415   -57619.129   -51843.454 
   70000    2286.0394    -373.1747   -51828.121    -57634.87   -51932.146 
Loop time of 823.814 on 2 procs for 9505 steps with 19652 atoms

Performance: 0.997 ns/day, 24.075 hours/ns, 11.538 timesteps/s
98.9% CPU use with 2 MPI tasks x no OpenMP threads

MPI task timing breakdown:
Section |  min time  |  avg time  |  max time  |%varavg| %total
---------------------------------------------------------------
Pair    | 440.69     | 441.27     | 441.85     |   2.8 | 53.56
Neigh   | 335.17     | 337.58     | 339.99     |  13.1 | 40.98
Comm    | 30.019     | 33.031     | 36.044     |  52.4 |  4.01
Output  | 0.049903   | 0.049926   | 0.049949   |   0.0 |  0.01
Modify  | 9.6359     | 9.6541     | 9.6724     |   0.6 |  1.17
Other   |            | 2.232      |            |       |  0.27

Nlocal:    9826 ave 9887 max 9765 min
Histogram: 1 0 0 0 0 0 0 0 0 1
Nghost:    11439 ave 11448 max 11430 min
Histogram: 1 0 0 0 0 0 0 0 0 1
Neighs:    552624 ave 564711 max 540536 min
Histogram: 1 0 0 0 0 0 0 0 0 1

Total # of neighbors = 1105247
Ave neighs/atom = 56.2409
Neighbor list builds = 9505
Dangerous builds not checked
Setting up Verlet run ...
  Unit style    : metal
  Current step  : 70000
  Time step     : 0.001
Per MPI rank memory allocation (min/avg/max) = 11.32 | 11.32 | 11.32 Mbytes
Step Temp Press TotEng PotEng Enthalpy 
   70000    2286.0394    -373.1747   -51828.121    -57634.87   -51932.146 
   70495    2254.9452    183.15937   -52044.428   -57772.194   -51993.717 
Loop time of 39.3893 on 2 procs for 495 steps with 19652 atoms

Performance: 1.086 ns/day, 22.104 hours/ns, 12.567 timesteps/s
99.8% CPU use with 2 MPI tasks x no OpenMP threads

MPI task timing breakdown:
Section |  min time  |  avg time  |  max time  |%varavg| %total
---------------------------------------------------------------
Pair    | 20.756     | 20.775     | 20.795     |   0.4 | 52.74
Neigh   | 16.305     | 16.712     | 17.12      |  10.0 | 42.43
Comm    | 0.94118    | 1.377      | 1.8129     |  37.1 |  3.50
Output  | 9.8944e-05 | 0.00013149 | 0.00016403 |   0.0 |  0.00
Modify  | 0.40834    | 0.41543    | 0.42252    |   1.1 |  1.05
Other   |            | 0.1093     |            |       |  0.28

Nlocal:    9826 ave 9851 max 9801 min
Histogram: 1 0 0 0 0 0 0 0 0 1
Nghost:    11399 ave 11414 max 11384 min
Histogram: 1 0 0 0 0 0 0 0 0 1
Neighs:    556446 ave 564933 max 547958 min
Histogram: 1 0 0 0 0 0 0 0 0 1

Total # of neighbors = 1112891
Ave neighs/atom = 56.6299
Neighbor list builds = 495
Dangerous builds not checked
Setting up Verlet run ...
  Unit style    : metal
  Current step  : 70495
  Time step     : 0.001
Per MPI rank memory allocation (min/avg/max) = 11.32 | 11.32 | 11.32 Mbytes
Step Temp Press TotEng PotEng Enthalpy 
   70495    2254.9452    183.15937   -52044.428   -57772.194   -51993.717 
   80000    2224.4625   -165.94727   -52080.743    -57731.08   -52126.751 
Loop time of 814.193 on 2 procs for 9505 steps with 19652 atoms

Performance: 1.009 ns/day, 23.794 hours/ns, 11.674 timesteps/s
98.9% CPU use with 2 MPI tasks x no OpenMP threads

MPI task timing breakdown:
Section |  min time  |  avg time  |  max time  |%varavg| %total
---------------------------------------------------------------
Pair    | 434.63     | 436.82     | 439.02     |  10.5 | 53.65
Neigh   | 334.38     | 337.17     | 339.95     |  15.2 | 41.41
Comm    | 24.775     | 29.788     | 34.801     |  91.8 |  3.66
Output  | 0.037408   | 0.037435   | 0.037463   |   0.0 |  0.00
Modify  | 8.1804     | 8.1974     | 8.2145     |   0.6 |  1.01
Other   |            | 2.181      |            |       |  0.27

Nlocal:    9826 ave 9836 max 9816 min
Histogram: 1 0 0 0 0 0 0 0 0 1
Nghost:    11440.5 ave 11482 max 11399 min
Histogram: 1 0 0 0 0 0 0 0 0 1
Neighs:    555594 ave 562094 max 549093 min
Histogram: 1 0 0 0 0 0 0 0 0 1

Total # of neighbors = 1111187
Ave neighs/atom = 56.5432
Neighbor list builds = 9505
Dangerous builds not checked
Setting up Verlet run ...
  Unit style    : metal
  Current step  : 80000
  Time step     : 0.001
Per MPI rank memory allocation (min/avg/max) = 11.33 | 11.33 | 11.33 Mbytes
Step Temp Press TotEng PotEng Enthalpy 
   80000    2224.4625   -165.94727   -52080.743    -57731.08   -52126.751 
   80495    2209.0247    329.63673   -52286.151   -57897.275   -52195.343 
Loop time of 40.3239 on 2 procs for 495 steps with 19652 atoms

Performance: 1.061 ns/day, 22.628 hours/ns, 12.276 timesteps/s
99.6% CPU use with 2 MPI tasks x no OpenMP threads

MPI task timing breakdown:
Section |  min time  |  avg time  |  max time  |%varavg| %total
---------------------------------------------------------------
Pair    | 21.427     | 21.486     | 21.545     |   1.3 | 53.28
Neigh   | 16.313     | 16.658     | 17.002     |   8.4 | 41.31
Comm    | 1.237      | 1.6489     | 2.0607     |  32.1 |  4.09
Output  | 0.00010109 | 0.00014353 | 0.00018597 |   0.0 |  0.00
Modify  | 0.41228    | 0.41743    | 0.42258    |   0.8 |  1.04
Other   |            | 0.1139     |            |       |  0.28

Nlocal:    9826 ave 9843 max 9809 min
Histogram: 1 0 0 0 0 0 0 0 0 1
Nghost:    11479 ave 11480 max 11478 min
Histogram: 1 0 0 0 0 0 0 0 0 1
Neighs:    559167 ave 563804 max 554530 min
Histogram: 1 0 0 0 0 0 0 0 0 1

Total # of neighbors = 1118334
Ave neighs/atom = 56.9069
Neighbor list builds = 495
Dangerous builds not checked
Setting up Verlet run ...
  Unit style    : metal
  Current step  : 80495
  Time step     : 0.001
Per MPI rank memory allocation (min/avg/max) = 11.33 | 11.33 | 11.33 Mbytes
Step Temp Press TotEng PotEng Enthalpy 
   80495    2209.0247    329.63673   -52286.151   -57897.275   -52195.343 
   90000    2207.0925   -77.765143   -52286.841   -57893.057   -52308.279 
Loop time of 820.177 on 2 procs for 9505 steps with 19652 atoms

Performance: 1.001 ns/day, 23.969 hours/ns, 11.589 timesteps/s
98.2% CPU use with 2 MPI tasks x no OpenMP threads

MPI task timing breakdown:
Section |  min time  |  avg time  |  max time  |%varavg| %total
---------------------------------------------------------------
Pair    | 434.27     | 437.32     | 440.37     |  14.6 | 53.32
Neigh   | 330.37     | 333.15     | 335.92     |  15.2 | 40.62
Comm    | 33.024     | 38.903     | 44.782     |  94.3 |  4.74
Output  | 0.035627   | 0.035716   | 0.035805   |   0.0 |  0.00
Modify  | 8.555      | 8.5991     | 8.6433     |   1.5 |  1.05
Other   |            | 2.168      |            |       |  0.26

Nlocal:    9826 ave 9836 max 9816 min
Histogram: 1 0 0 0 0 0 0 0 0 1
Nghost:    11460.5 ave 11473 max 11448 min
Histogram: 1 0 0 0 0 0 0 0 0 1
Neighs:    559148 ave 563820 max 554477 min
Histogram: 1 0 0 0 0 0 0 0 0 1

Total # of neighbors = 1118297
Ave neighs/atom = 56.905
Neighbor list builds = 9505
Dangerous builds not checked
Setting up Verlet run ...
  Unit style    : metal
  Current step  : 90000
  Time step     : 0.001
Per MPI rank memory allocation (min/avg/max) = 11.33 | 11.33 | 11.33 Mbytes
Step Temp Press TotEng PotEng Enthalpy 
   90000    2207.0925   -77.765143   -52286.841   -57893.057   -52308.279 
   90495    2167.1155    633.94495   -52549.443   -58054.114   -52375.989 
Loop time of 38.943 on 2 procs for 495 steps with 19652 atoms

Performance: 1.098 ns/day, 21.854 hours/ns, 12.711 timesteps/s
99.7% CPU use with 2 MPI tasks x no OpenMP threads

MPI task timing breakdown:
Section |  min time  |  avg time  |  max time  |%varavg| %total
---------------------------------------------------------------
Pair    | 20.362     | 20.554     | 20.746     |   4.2 | 52.78
Neigh   | 16.359     | 16.552     | 16.744     |   4.7 | 42.50
Comm    | 1.3098     | 1.315      | 1.3202     |   0.5 |  3.38
Output  | 8.297e-05  | 0.00016749 | 0.00025201 |   0.0 |  0.00
Modify  | 0.40885    | 0.41189    | 0.41493    |   0.5 |  1.06
Other   |            | 0.11       |            |       |  0.28

Nlocal:    9826 ave 9850 max 9802 min
Histogram: 1 0 0 0 0 0 0 0 0 1
Nghost:    11453 ave 11479 max 11427 min
Histogram: 1 0 0 0 0 0 0 0 0 1
Neighs:    563324 ave 570542 max 556107 min
Histogram: 1 0 0 0 0 0 0 0 0 1

Total # of neighbors = 1126649
Ave neighs/atom = 57.33
Neighbor list builds = 495
Dangerous builds not checked
Setting up Verlet run ...
  Unit style    : metal
  Current step  : 90495
  Time step     : 0.001
Per MPI rank memory allocation (min/avg/max) = 11.33 | 11.33 | 11.33 Mbytes
Step Temp Press TotEng PotEng Enthalpy 
   90495    2167.1155    633.94495   -52549.443   -58054.114   -52375.989 
  100000    2133.5267    159.36768   -52635.302   -58054.654   -52591.689 
Loop time of 804.967 on 2 procs for 9505 steps with 19652 atoms

Performance: 1.020 ns/day, 23.525 hours/ns, 11.808 timesteps/s
98.5% CPU use with 2 MPI tasks x no OpenMP threads

MPI task timing breakdown:
Section |  min time  |  avg time  |  max time  |%varavg| %total
---------------------------------------------------------------
Pair    | 430.6      | 432.27     | 433.93     |   8.0 | 53.70
Neigh   | 327.68     | 329.59     | 331.5      |  10.5 | 40.94
Comm    | 29.426     | 33.027     | 36.627     |  62.7 |  4.10
Output  | 0.036879   | 0.036895   | 0.03691    |   0.0 |  0.00
Modify  | 7.9265     | 7.9542     | 7.9819     |   1.0 |  0.99
Other   |            | 2.088      |            |       |  0.26

Nlocal:    9826 ave 9839 max 9813 min
Histogram: 1 0 0 0 0 0 0 0 0 1
Nghost:    11456.5 ave 11461 max 11452 min
Histogram: 1 0 0 0 0 0 0 0 0 1
Neighs:    563272 ave 570502 max 556042 min
Histogram: 1 0 0 0 0 0 0 0 0 1

Total # of neighbors = 1126544
Ave neighs/atom = 57.3246
Neighbor list builds = 9505
Dangerous builds not checked
Setting up Verlet run ...
  Unit style    : metal
  Current step  : 100000
  Time step     : 0.001
Per MPI rank memory allocation (min/avg/max) = 11.34 | 11.34 | 11.34 Mbytes
Step Temp Press TotEng PotEng Enthalpy 
  100000    2133.5267    159.36768   -52635.302   -58054.654   -52591.689 
  100495    2125.7441   -1069.7005   -52800.433   -58200.016   -53092.304 
Loop time of 40.8864 on 2 procs for 495 steps with 19652 atoms

Performance: 1.046 ns/day, 22.944 hours/ns, 12.107 timesteps/s
96.3% CPU use with 2 MPI tasks x no OpenMP threads

MPI task timing breakdown:
Section |  min time  |  avg time  |  max time  |%varavg| %total
---------------------------------------------------------------
Pair    | 21.289     | 21.405     | 21.52      |   2.5 | 52.35
Neigh   | 16.236     | 16.377     | 16.519     |   3.5 | 40.06
Comm    | 1.8572     | 2.3524     | 2.8477     |  32.3 |  5.75
Output  | 8.3923e-05 | 0.00011599 | 0.00014806 |   0.0 |  0.00
Modify  | 0.4075     | 0.6452     | 0.88289    |  29.6 |  1.58
Other   |            | 0.1065     |            |       |  0.26

Nlocal:    9826 ave 9869 max 9783 min
Histogram: 1 0 0 0 0 0 0 0 0 1
Nghost:    11522.5 ave 11535 max 11510 min
Histogram: 1 0 0 0 0 0 0 0 0 1
Neighs:    564830 ave 574767 max 554894 min
Histogram: 1 0 0 0 0 0 0 0 0 1

Total # of neighbors = 1129661
Ave neighs/atom = 57.4833
Neighbor list builds = 495
Dangerous builds not checked
Setting up Verlet run ...
  Unit style    : metal
  Current step  : 100495
  Time step     : 0.001
Per MPI rank memory allocation (min/avg/max) = 11.34 | 11.34 | 11.34 Mbytes
Step Temp Press TotEng PotEng Enthalpy 
  100495    2125.7441   -1069.7005   -52800.433   -58200.016   -53092.304 
  110000    2105.7763   -337.55487   -52865.744   -58214.608   -52957.662 
Loop time of 804.827 on 2 procs for 9505 steps with 19652 atoms

Performance: 1.020 ns/day, 23.521 hours/ns, 11.810 timesteps/s
98.8% CPU use with 2 MPI tasks x no OpenMP threads

MPI task timing breakdown:
Section |  min time  |  avg time  |  max time  |%varavg| %total
---------------------------------------------------------------
Pair    | 428.48     | 429.7      | 430.92     |   5.9 | 53.39
Neigh   | 326.88     | 330.75     | 334.62     |  21.3 | 41.10
Comm    | 29.082     | 34.245     | 39.407     |  88.2 |  4.25
Output  | 0.037338   | 0.037357   | 0.037376   |   0.0 |  0.00
Modify  | 7.9303     | 7.9931     | 8.056      |   2.2 |  0.99
Other   |            | 2.101      |            |       |  0.26

Nlocal:    9826 ave 9841 max 9811 min
Histogram: 1 0 0 0 0 0 0 0 0 1
Nghost:    11502.5 ave 11506 max 11499 min
Histogram: 1 0 0 0 0 0 0 0 0 1
Neighs:    565888 ave 569499 max 562278 min
Histogram: 1 0 0 0 0 0 0 0 0 1

Total # of neighbors = 1131777
Ave neighs/atom = 57.5909
Neighbor list builds = 9505
Dangerous builds not checked
Setting up Verlet run ...
  Unit style    : metal
  Current step  : 110000
  Time step     : 0.001
Per MPI rank memory allocation (min/avg/max) = 11.34 | 11.34 | 11.34 Mbytes
Step Temp Press TotEng PotEng Enthalpy 
  110000    2105.7763   -337.55487   -52865.744   -58214.608   -52957.662 
  110495    2054.7333    564.73766   -53081.769   -58300.979   -52928.993 
Loop time of 40.2352 on 2 procs for 495 steps with 19652 atoms

Performance: 1.063 ns/day, 22.579 hours/ns, 12.303 timesteps/s
98.9% CPU use with 2 MPI tasks x no OpenMP threads

MPI task timing breakdown:
Section |  min time  |  avg time  |  max time  |%varavg| %total
---------------------------------------------------------------
Pair    | 21.059     | 21.198     | 21.338     |   3.0 | 52.69
Neigh   | 16.602     | 16.644     | 16.685     |   1.0 | 41.37
Comm    | 1.7724     | 1.8706     | 1.9689     |   7.2 |  4.65
Output  | 9.7036e-05 | 0.00012505 | 0.00015306 |   0.0 |  0.00
Modify  | 0.41239    | 0.41284    | 0.4133     |   0.1 |  1.03
Other   |            | 0.1099     |            |       |  0.27

Nlocal:    9826 ave 9846 max 9806 min
Histogram: 1 0 0 0 0 0 0 0 0 1
Nghost:    11501.5 ave 11513 max 11490 min
Histogram: 1 0 0 0 0 0 0 0 0 1
Neighs:    569750 ave 573384 max 566115 min
Histogram: 1 0 0 0 0 0 0 0 0 1

Total # of neighbors = 1139499
Ave neighs/atom = 57.9839
Neighbor list builds = 495
Dangerous builds not checked
Setting up Verlet run ...
  Unit style    : metal
  Current step  : 110495
  Time step     : 0.001
Per MPI rank memory allocation (min/avg/max) = 11.34 | 11.34 | 11.34 Mbytes
Step Temp Press TotEng PotEng Enthalpy 
  110495    2054.7333    564.73766   -53081.769   -58300.979   -52928.993 
  120000    2056.6964    784.64144   -53214.432   -58438.629   -53003.284 
Loop time of 809.337 on 2 procs for 9505 steps with 19652 atoms

Performance: 1.015 ns/day, 23.652 hours/ns, 11.744 timesteps/s
98.9% CPU use with 2 MPI tasks x no OpenMP threads

MPI task timing breakdown:
Section |  min time  |  avg time  |  max time  |%varavg| %total
---------------------------------------------------------------
Pair    | 434.49     | 435.56     | 436.63     |   5.1 | 53.82
Neigh   | 326.99     | 330.38     | 333.78     |  18.7 | 40.82
Comm    | 28.655     | 33.166     | 37.677     |  78.3 |  4.10
Output  | 0.033829   | 0.033909   | 0.033989   |   0.0 |  0.00
Modify  | 8.0391     | 8.0775     | 8.1158     |   1.3 |  1.00
Other   |            | 2.116      |            |       |  0.26

Nlocal:    9826 ave 9841 max 9811 min
Histogram: 1 0 0 0 0 0 0 0 0 1
Nghost:    11609 ave 11636 max 11582 min
Histogram: 1 0 0 0 0 0 0 0 0 1
Neighs:    572978 ave 580594 max 565362 min
Histogram: 1 0 0 0 0 0 0 0 0 1

Total # of neighbors = 1145956
Ave neighs/atom = 58.3124
Neighbor list builds = 9505
Dangerous builds not checked
Setting up Verlet run ...
  Unit style    : metal
  Current step  : 120000
  Time step     : 0.001
Per MPI rank memory allocation (min/avg/max) = 11.34 | 11.34 | 11.34 Mbytes
Step Temp Press TotEng PotEng Enthalpy 
  120000    2056.6964    784.64144   -53214.432   -58438.629   -53003.284 
  120495    2021.4747    416.88027   -53308.894   -58443.624   -53196.714 
Loop time of 40.6295 on 2 procs for 495 steps with 19652 atoms

Performance: 1.053 ns/day, 22.800 hours/ns, 12.183 timesteps/s
99.4% CPU use with 2 MPI tasks x no OpenMP threads

MPI task timing breakdown:
Section |  min time  |  avg time  |  max time  |%varavg| %total
---------------------------------------------------------------
Pair    | 21.709     | 21.74      | 21.771     |   0.7 | 53.51
Neigh   | 16.736     | 16.799     | 16.862     |   1.5 | 41.35
Comm    | 1.3105     | 1.4831     | 1.6557     |  14.2 |  3.65
Output  | 9.2983e-05 | 0.00017548 | 0.00025797 |   0.0 |  0.00
Modify  | 0.41693    | 0.49527    | 0.57361    |  11.1 |  1.22
Other   |            | 0.1122     |            |       |  0.28

Nlocal:    9826 ave 9842 max 9810 min
Histogram: 1 0 0 0 0 0 0 0 0 1
Nghost:    11548.5 ave 11589 max 11508 min
Histogram: 1 0 0 0 0 0 0 0 0 1
Neighs:    572940 ave 580582 max 565297 min
Histogram: 1 0 0 0 0 0 0 0 0 1

Total # of neighbors = 1145879
Ave neighs/atom = 58.3085
Neighbor list builds = 495
Dangerous builds not checked
Setting up Verlet run ...
  Unit style    : metal
  Current step  : 120495
  Time step     : 0.001
Per MPI rank memory allocation (min/avg/max) = 11.34 | 11.34 | 11.34 Mbytes
Step Temp Press TotEng PotEng Enthalpy 
  120495    2021.4747    416.88027   -53308.894   -58443.624   -53196.714 
  130000    1997.5391   -51.216644   -53423.183   -58497.114   -53436.956 
Loop time of 829.496 on 2 procs for 9505 steps with 19652 atoms

Performance: 0.990 ns/day, 24.242 hours/ns, 11.459 timesteps/s
98.3% CPU use with 2 MPI tasks x no OpenMP threads

MPI task timing breakdown:
Section |  min time  |  avg time  |  max time  |%varavg| %total
---------------------------------------------------------------
Pair    | 443.18     | 444.55     | 445.92     |   6.5 | 53.59
Neigh   | 330.6      | 332.45     | 334.3      |  10.1 | 40.08
Comm    | 38.518     | 41.762     | 45.005     |  50.2 |  5.03
Output  | 0.038505   | 0.038535   | 0.038565   |   0.0 |  0.00
Modify  | 8.5277     | 8.5522     | 8.5767     |   0.8 |  1.03
Other   |            | 2.149      |            |       |  0.26

Nlocal:    9826 ave 9828 max 9824 min
Histogram: 1 0 0 0 0 0 0 0 0 1
Nghost:    11590.5 ave 11638 max 11543 min
Histogram: 1 0 0 0 0 0 0 0 0 1
Neighs:    573074 ave 578501 max 567647 min
Histogram: 1 0 0 0 0 0 0 0 0 1

Total # of neighbors = 1146148
Ave neighs/atom = 58.3222
Neighbor list builds = 9505
Dangerous builds not checked
Setting up Verlet run ...
  Unit style    : metal
  Current step  : 130000
  Time step     : 0.001
Per MPI rank memory allocation (min/avg/max) = 11.34 | 11.34 | 11.34 Mbytes
Step Temp Press TotEng PotEng Enthalpy 
  130000    1997.5391   -51.216644   -53423.183   -58497.114   -53436.956 
  130495    1962.9669    537.62149   -53653.628   -58639.743   -53510.053 
Loop time of 43.6262 on 2 procs for 495 steps with 19652 atoms

Performance: 0.980 ns/day, 24.482 hours/ns, 11.346 timesteps/s
93.9% CPU use with 2 MPI tasks x no OpenMP threads

MPI task timing breakdown:
Section |  min time  |  avg time  |  max time  |%varavg| %total
---------------------------------------------------------------
Pair    | 22.615     | 22.631     | 22.648     |   0.4 | 51.88
Neigh   | 16.284     | 16.611     | 16.938     |   8.0 | 38.08
Comm    | 3.5082     | 3.8561     | 4.2041     |  17.7 |  8.84
Output  | 8.6069e-05 | 0.00011659 | 0.0001471  |   0.0 |  0.00
Modify  | 0.41468    | 0.41773    | 0.42079    |   0.5 |  0.96
Other   |            | 0.11       |            |       |  0.25

Nlocal:    9826 ave 9834 max 9818 min
Histogram: 1 0 0 0 0 0 0 0 0 1
Nghost:    11579 ave 11597 max 11561 min
Histogram: 1 0 0 0 0 0 0 0 0 1
Neighs:    577298 ave 583489 max 571107 min
Histogram: 1 0 0 0 0 0 0 0 0 1

Total # of neighbors = 1154596
Ave neighs/atom = 58.7521
Neighbor list builds = 495
Dangerous builds not checked
Setting up Verlet run ...
  Unit style    : metal
  Current step  : 130495
  Time step     : 0.001
Per MPI rank memory allocation (min/avg/max) = 11.34 | 11.34 | 11.34 Mbytes
Step Temp Press TotEng PotEng Enthalpy 
  130495    1962.9669    537.62149   -53653.628   -58639.743   -53510.053 
  140000    1977.7468    702.50954    -53643.08   -58666.737   -53455.665 
Loop time of 833.766 on 2 procs for 9505 steps with 19652 atoms

Performance: 0.985 ns/day, 24.366 hours/ns, 11.400 timesteps/s
98.3% CPU use with 2 MPI tasks x no OpenMP threads

MPI task timing breakdown:
Section |  min time  |  avg time  |  max time  |%varavg| %total
---------------------------------------------------------------
Pair    | 446.75     | 449.45     | 452.14     |  12.7 | 53.91
Neigh   | 341.54     | 343.29     | 345.04     |   9.4 | 41.17
Comm    | 25.905     | 30.392     | 34.879     |  81.4 |  3.65
Output  | 0.038448   | 0.038478   | 0.038507   |   0.0 |  0.00
Modify  | 8.3788     | 8.4139     | 8.449      |   1.2 |  1.01
Other   |            | 2.185      |            |       |  0.26

Nlocal:    9826 ave 9843 max 9809 min
Histogram: 1 0 0 0 0 0 0 0 0 1
Nghost:    11588 ave 11605 max 11571 min
Histogram: 1 0 0 0 0 0 0 0 0 1
Neighs:    577904 ave 585408 max 570399 min
Histogram: 1 0 0 0 0 0 0 0 0 1

Total # of neighbors = 1155807
Ave neighs/atom = 58.8137
Neighbor list builds = 9505
Dangerous builds not checked
Setting up Verlet run ...
  Unit style    : metal
  Current step  : 140000
  Time step     : 0.001
Per MPI rank memory allocation (min/avg/max) = 11.34 | 11.34 | 11.34 Mbytes
Step Temp Press TotEng PotEng Enthalpy 
  140000    1977.7468    702.50954    -53643.08   -58666.737   -53455.665 
  140495    1911.4216    107.37084   -53934.653   -58789.838   -53906.142 
Loop time of 39.9558 on 2 procs for 495 steps with 19652 atoms

Performance: 1.070 ns/day, 22.422 hours/ns, 12.389 timesteps/s
99.4% CPU use with 2 MPI tasks x no OpenMP threads

MPI task timing breakdown:
Section |  min time  |  avg time  |  max time  |%varavg| %total
---------------------------------------------------------------
Pair    | 21.597     | 21.661     | 21.724     |   1.4 | 54.21
Neigh   | 16.697     | 16.736     | 16.775     |   1.0 | 41.89
Comm    | 0.94437    | 1.0421     | 1.1398     |   9.6 |  2.61
Output  | 0.00011706 | 0.00016749 | 0.00021791 |   0.0 |  0.00
Modify  | 0.40199    | 0.40601    | 0.41004    |   0.6 |  1.02
Other   |            | 0.111      |            |       |  0.28

Nlocal:    9826 ave 9841 max 9811 min
Histogram: 1 0 0 0 0 0 0 0 0 1
Nghost:    11599.5 ave 11615 max 11584 min
Histogram: 1 0 0 0 0 0 0 0 0 1
Neighs:    580900 ave 585186 max 576614 min
Histogram: 1 0 0 0 0 0 0 0 0 1

Total # of neighbors = 1161800
Ave neighs/atom = 59.1187
Neighbor list builds = 495
Dangerous builds not checked
Setting up Verlet run ...
  Unit style    : metal
  Current step  : 140495
  Time step     : 0.001
Per MPI rank memory allocation (min/avg/max) = 11.34 | 11.34 | 11.34 Mbytes
Step Temp Press TotEng PotEng Enthalpy 
  140495    1911.4216    107.37084   -53934.653   -58789.838   -53906.142 
  150000    1911.1176   -933.19924   -53968.885   -58823.298   -54217.148 
Loop time of 838.603 on 2 procs for 9505 steps with 19652 atoms

Performance: 0.979 ns/day, 24.508 hours/ns, 11.334 timesteps/s
97.5% CPU use with 2 MPI tasks x no OpenMP threads

MPI task timing breakdown:
Section |  min time  |  avg time  |  max time  |%varavg| %total
---------------------------------------------------------------
Pair    | 446.94     | 451.17     | 455.4      |  19.9 | 53.80
Neigh   | 342.63     | 342.72     | 342.8      |   0.4 | 40.87
Comm    | 28.755     | 33.118     | 37.482     |  75.8 |  3.95
Output  | 0.035094   | 0.035113   | 0.035132   |   0.0 |  0.00
Modify  | 9.3328     | 9.3911     | 9.4493     |   1.9 |  1.12
Other   |            | 2.175      |            |       |  0.26

Nlocal:    9826 ave 9832 max 9820 min
Histogram: 1 0 0 0 0 0 0 0 0 1
Nghost:    11627 ave 11629 max 11625 min
Histogram: 1 0 0 0 0 0 0 0 0 1
Neighs:    579740 ave 585690 max 573790 min
Histogram: 1 0 0 0 0 0 0 0 0 1

Total # of neighbors = 1159480
Ave neighs/atom = 59.0006
Neighbor list builds = 9505
Dangerous builds not checked
Setting up Verlet run ...
  Unit style    : metal
  Current step  : 150000
  Time step     : 0.001
Per MPI rank memory allocation (min/avg/max) = 11.35 | 11.35 | 11.35 Mbytes
Step Temp Press TotEng PotEng Enthalpy 
  150000    1911.1176   -933.19924   -53968.885   -58823.298   -54217.148 
  150495    1870.1238    715.21235   -54213.941   -58964.225   -54025.529 
Loop time of 40.7278 on 2 procs for 495 steps with 19652 atoms

Performance: 1.050 ns/day, 22.855 hours/ns, 12.154 timesteps/s
99.8% CPU use with 2 MPI tasks x no OpenMP threads

MPI task timing breakdown:
Section |  min time  |  avg time  |  max time  |%varavg| %total
---------------------------------------------------------------
Pair    | 21.689     | 21.971     | 22.253     |   6.0 | 53.95
Neigh   | 16.686     | 16.748     | 16.809     |   1.5 | 41.12
Comm    | 1.1343     | 1.48       | 1.8257     |  28.4 |  3.63
Output  | 7.7009e-05 | 0.00013745 | 0.00019789 |   0.0 |  0.00
Modify  | 0.41735    | 0.41751    | 0.41767    |   0.0 |  1.03
Other   |            | 0.1115     |            |       |  0.27

Nlocal:    9826 ave 9851 max 9801 min
Histogram: 1 0 0 0 0 0 0 0 0 1
Nghost:    11653.5 ave 11657 max 11650 min
Histogram: 1 0 0 0 0 0 0 0 0 1
Neighs:    585656 ave 588824 max 582488 min
Histogram: 1 0 0 0 0 0 0 0 0 1

Total # of neighbors = 1171312
Ave neighs/atom = 59.6027
Neighbor list builds = 495
Dangerous builds not checked
Setting up Verlet run ...
  Unit style    : metal
  Current step  : 150495
  Time step     : 0.001
Per MPI rank memory allocation (min/avg/max) = 11.35 | 11.35 | 11.35 Mbytes
Step Temp Press TotEng PotEng Enthalpy 
  150495    1870.1238    715.21235   -54213.941   -58964.225   -54025.529 
  160000    1839.2283   -429.01187   -54253.875   -58925.683   -54367.226 
Loop time of 818.097 on 2 procs for 9505 steps with 19652 atoms

Performance: 1.004 ns/day, 23.908 hours/ns, 11.618 timesteps/s
98.6% CPU use with 2 MPI tasks x no OpenMP threads

MPI task timing breakdown:
Section |  min time  |  avg time  |  max time  |%varavg| %total
---------------------------------------------------------------
Pair    | 440.1      | 442.63     | 445.15     |  12.0 | 54.10
Neigh   | 332.68     | 333.59     | 334.51     |   5.0 | 40.78
Comm    | 28.181     | 31.645     | 35.11      |  61.6 |  3.87
Output  | 0.027496   | 0.02752    | 0.027545   |   0.0 |  0.00
Modify  | 8.0433     | 8.0724     | 8.1014     |   1.0 |  0.99
Other   |            | 2.133      |            |       |  0.26

Nlocal:    9826 ave 9828 max 9824 min
Histogram: 1 0 0 0 0 0 0 0 0 1
Nghost:    11666.5 ave 11690 max 11643 min
Histogram: 1 0 0 0 0 0 0 0 0 1
Neighs:    583690 ave 588560 max 578821 min
Histogram: 1 0 0 0 0 0 0 0 0 1

Total # of neighbors = 1167381
Ave neighs/atom = 59.4027
Neighbor list builds = 9505
Dangerous builds not checked
Setting up Verlet run ...
  Unit style    : metal
  Current step  : 160000
  Time step     : 0.001
Per MPI rank memory allocation (min/avg/max) = 11.35 | 11.35 | 11.35 Mbytes
Step Temp Press TotEng PotEng Enthalpy 
  160000    1839.2283   -429.01187   -54253.875   -58925.683   -54367.226 
  160495    1801.8299   -6.4571811   -54516.219   -59093.031   -54517.914 
Loop time of 40.9251 on 2 procs for 495 steps with 19652 atoms

Performance: 1.045 ns/day, 22.966 hours/ns, 12.095 timesteps/s
98.6% CPU use with 2 MPI tasks x no OpenMP threads

MPI task timing breakdown:
Section |  min time  |  avg time  |  max time  |%varavg| %total
---------------------------------------------------------------
Pair    | 21.772     | 21.888     | 22.005     |   2.5 | 53.48
Neigh   | 16.508     | 16.772     | 17.035     |   6.4 | 40.98
Comm    | 1.3556     | 1.7428     | 2.13       |  29.3 |  4.26
Output  | 0.0001049  | 0.00014794 | 0.00019097 |   0.0 |  0.00
Modify  | 0.40547    | 0.41187    | 0.41827    |   1.0 |  1.01
Other   |            | 0.1104     |            |       |  0.27

Nlocal:    9826 ave 9846 max 9806 min
Histogram: 1 0 0 0 0 0 0 0 0 1
Nghost:    11705 ave 11734 max 11676 min
Histogram: 1 0 0 0 0 0 0 0 0 1
Neighs:    587584 ave 594868 max 580301 min
Histogram: 1 0 0 0 0 0 0 0 0 1

Total # of neighbors = 1175169
Ave neighs/atom = 59.799
Neighbor list builds = 495
Dangerous builds not checked
Setting up Verlet run ...
  Unit style    : metal
  Current step  : 160495
  Time step     : 0.001
Per MPI rank memory allocation (min/avg/max) = 11.35 | 11.35 | 11.35 Mbytes
Step Temp Press TotEng PotEng Enthalpy 
  160495    1801.8299   -6.4571811   -54516.219   -59093.031   -54517.914 
  170000     1807.247    769.03748   -54576.409   -59166.981   -54375.536 
Loop time of 801.125 on 2 procs for 9505 steps with 19652 atoms

Performance: 1.025 ns/day, 23.412 hours/ns, 11.865 timesteps/s
98.2% CPU use with 2 MPI tasks x no OpenMP threads

MPI task timing breakdown:
Section |  min time  |  avg time  |  max time  |%varavg| %total
---------------------------------------------------------------
Pair    | 428.69     | 430.63     | 432.58     |   9.4 | 53.75
Neigh   | 324.06     | 325.59     | 327.12     |   8.5 | 40.64
Comm    | 30.671     | 34.188     | 37.706     |  60.2 |  4.27
Output  | 0.034915   | 0.03493    | 0.034944   |   0.0 |  0.00
Modify  | 8.586      | 8.628      | 8.6699     |   1.4 |  1.08
Other   |            | 2.054      |            |       |  0.26

Nlocal:    9826 ave 9833 max 9819 min
Histogram: 1 0 0 0 0 0 0 0 0 1
Nghost:    11690 ave 11705 max 11675 min
Histogram: 1 0 0 0 0 0 0 0 0 1
Neighs:    590591 ave 597243 max 583939 min
Histogram: 1 0 0 0 0 0 0 0 0 1

Total # of neighbors = 1181182
Ave neighs/atom = 60.1049
Neighbor list builds = 9505
Dangerous builds not checked
Setting up Verlet run ...
  Unit style    : metal
  Current step  : 170000
  Time step     : 0.001
Per MPI rank memory allocation (min/avg/max) = 11.35 | 11.35 | 11.35 Mbytes
Step Temp Press TotEng PotEng Enthalpy 
  170000     1807.247    769.03748   -54576.409   -59166.981   -54375.536 
  170495    1761.2384   -428.55498   -54766.016   -59239.722   -54877.886 
Loop time of 39.2691 on 2 procs for 495 steps with 19652 atoms

Performance: 1.089 ns/day, 22.037 hours/ns, 12.605 timesteps/s
99.5% CPU use with 2 MPI tasks x no OpenMP threads

MPI task timing breakdown:
Section |  min time  |  avg time  |  max time  |%varavg| %total
---------------------------------------------------------------
Pair    | 20.999     | 21.011     | 21.022     |   0.2 | 53.50
Neigh   | 16.37      | 16.519     | 16.668     |   3.7 | 42.07
Comm    | 1.0787     | 1.2188     | 1.3588     |  12.7 |  3.10
Output  | 8.1062e-05 | 0.00010252 | 0.00012398 |   0.0 |  0.00
Modify  | 0.41081    | 0.41378    | 0.41675    |   0.5 |  1.05
Other   |            | 0.1069     |            |       |  0.27

Nlocal:    9826 ave 9832 max 9820 min
Histogram: 1 0 0 0 0 0 0 0 0 1
Nghost:    11699.5 ave 11740 max 11659 min
Histogram: 1 0 0 0 0 0 0 0 0 1
Neighs:    591108 ave 597745 max 584470 min
Histogram: 1 0 0 0 0 0 0 0 0 1

Total # of neighbors = 1182215
Ave neighs/atom = 60.1575
Neighbor list builds = 495
Dangerous builds not checked
Setting up Verlet run ...
  Unit style    : metal
  Current step  : 170495
  Time step     : 0.001
Per MPI rank memory allocation (min/avg/max) = 11.35 | 11.35 | 11.35 Mbytes
Step Temp Press TotEng PotEng Enthalpy 
  170495    1761.2384   -428.55498   -54766.016   -59239.722   -54877.886 
  180000     1758.776   -483.23157   -54820.305   -59287.756   -54946.239 
Loop time of 790.892 on 2 procs for 9505 steps with 19652 atoms

Performance: 1.038 ns/day, 23.113 hours/ns, 12.018 timesteps/s
98.7% CPU use with 2 MPI tasks x no OpenMP threads

MPI task timing breakdown:
Section |  min time  |  avg time  |  max time  |%varavg| %total
---------------------------------------------------------------
Pair    | 422.4      | 424.1      | 425.8      |   8.3 | 53.62
Neigh   | 323.11     | 324.13     | 325.15     |   5.7 | 40.98
Comm    | 29.367     | 32.125     | 34.883     |  48.7 |  4.06
Output  | 0.034909   | 0.034922   | 0.034935   |   0.0 |  0.00
Modify  | 8.4217     | 8.4621     | 8.5025     |   1.4 |  1.07
Other   |            | 2.042      |            |       |  0.26

Nlocal:    9826 ave 9834 max 9818 min
Histogram: 1 0 0 0 0 0 0 0 0 1
Nghost:    11762.5 ave 11767 max 11758 min
Histogram: 1 0 0 0 0 0 0 0 0 1
Neighs:    592012 ave 596664 max 587360 min
Histogram: 1 0 0 0 0 0 0 0 0 1

Total # of neighbors = 1184024
Ave neighs/atom = 60.2495
Neighbor list builds = 9505
Dangerous builds not checked
Setting up Verlet run ...
  Unit style    : metal
  Current step  : 180000
  Time step     : 0.001
Per MPI rank memory allocation (min/avg/max) = 11.35 | 11.35 | 11.35 Mbytes
Step Temp Press TotEng PotEng Enthalpy 
  180000     1758.776   -483.23157   -54820.305   -59287.756   -54946.239 
  180495    1716.6424    691.57616   -55053.941    -59414.37   -54875.097 
Loop time of 40.7579 on 2 procs for 495 steps with 19652 atoms

Performance: 1.049 ns/day, 22.872 hours/ns, 12.145 timesteps/s
99.1% CPU use with 2 MPI tasks x no OpenMP threads

MPI task timing breakdown:
Section |  min time  |  avg time  |  max time  |%varavg| %total
---------------------------------------------------------------
Pair    | 21.345     | 21.62      | 21.894     |   5.9 | 53.04
Neigh   | 16.669     | 16.731     | 16.792     |   1.5 | 41.05
Comm    | 1.5471     | 1.8859     | 2.2247     |  24.7 |  4.63
Output  | 0.00013614 | 0.00016057 | 0.00018501 |   0.0 |  0.00
Modify  | 0.41047    | 0.41272    | 0.41497    |   0.3 |  1.01
Other   |            | 0.1086     |            |       |  0.27

Nlocal:    9826 ave 9827 max 9825 min
Histogram: 1 0 0 0 0 0 0 0 0 1
Nghost:    11730 ave 11766 max 11694 min
Histogram: 1 0 0 0 0 0 0 0 0 1
Neighs:    596738 ave 602626 max 590849 min
Histogram: 1 0 0 0 0 0 0 0 0 1

Total # of neighbors = 1193475
Ave neighs/atom = 60.7305
Neighbor list builds = 495
Dangerous builds not checked
Setting up Verlet run ...
  Unit style    : metal
  Current step  : 180495
  Time step     : 0.001
Per MPI rank memory allocation (min/avg/max) = 11.35 | 11.35 | 11.35 Mbytes
Step Temp Press TotEng PotEng Enthalpy 
  180495    1716.6424    691.57616   -55053.941    -59414.37   -54875.097 
  190000    1706.5844   -684.45279   -55126.122   -59461.001   -55303.364 
Loop time of 818.99 on 2 procs for 9505 steps with 19652 atoms

Performance: 1.003 ns/day, 23.934 hours/ns, 11.606 timesteps/s
98.7% CPU use with 2 MPI tasks x no OpenMP threads

MPI task timing breakdown:
Section |  min time  |  avg time  |  max time  |%varavg| %total
---------------------------------------------------------------
Pair    | 440.95     | 443.75     | 446.54     |  13.3 | 54.18
Neigh   | 332.23     | 333.24     | 334.25     |   5.5 | 40.69
Comm    | 27.66      | 31.493     | 35.326     |  68.3 |  3.85
Output  | 0.036412   | 0.036488   | 0.036563   |   0.0 |  0.00
Modify  | 8.3022     | 8.3313     | 8.3604     |   1.0 |  1.02
Other   |            | 2.14       |            |       |  0.26

Nlocal:    9826 ave 9829 max 9823 min
Histogram: 1 0 0 0 0 0 0 0 0 1
Nghost:    11736.5 ave 11753 max 11720 min
Histogram: 1 0 0 0 0 0 0 0 0 1
Neighs:    595885 ave 600503 max 591267 min
Histogram: 1 0 0 0 0 0 0 0 0 1

Total # of neighbors = 1191770
Ave neighs/atom = 60.6437
Neighbor list builds = 9505
Dangerous builds not checked
Setting up Verlet run ...
  Unit style    : metal
  Current step  : 190000
  Time step     : 0.001
Per MPI rank memory allocation (min/avg/max) = 11.35 | 11.35 | 11.35 Mbytes
Step Temp Press TotEng PotEng Enthalpy 
  190000    1706.5844   -684.45279   -55126.122   -59461.001   -55303.364 
  190495    1661.5404    435.35797   -55350.377    -59570.84    -55238.37 
Loop time of 45.8167 on 2 procs for 495 steps with 19652 atoms

Performance: 0.933 ns/day, 25.711 hours/ns, 10.804 timesteps/s
97.1% CPU use with 2 MPI tasks x no OpenMP threads

MPI task timing breakdown:
Section |  min time  |  avg time  |  max time  |%varavg| %total
---------------------------------------------------------------
Pair    | 24.86      | 25.021     | 25.182     |   3.2 | 54.61
Neigh   | 16.741     | 17.55      | 18.359     |  19.3 | 38.30
Comm    | 1.6875     | 2.6733     | 3.6592     |  60.3 |  5.83
Output  | 9.6083e-05 | 0.00013006 | 0.00016403 |   0.0 |  0.00
Modify  | 0.44532    | 0.454      | 0.46268    |   1.3 |  0.99
Other   |            | 0.1181     |            |       |  0.26

Nlocal:    9826 ave 9836 max 9816 min
Histogram: 1 0 0 0 0 0 0 0 0 1
Nghost:    11792 ave 11819 max 11765 min
Histogram: 1 0 0 0 0 0 0 0 0 1
Neighs:    599704 ave 607390 max 592018 min
Histogram: 1 0 0 0 0 0 0 0 0 1

Total # of neighbors = 1199408
Ave neighs/atom = 61.0324
Neighbor list builds = 495
Dangerous builds not checked
Setting up Verlet run ...
  Unit style    : metal
  Current step  : 190495
  Time step     : 0.001
Per MPI rank memory allocation (min/avg/max) = 11.35 | 11.35 | 11.35 Mbytes
Step Temp Press TotEng PotEng Enthalpy 
  190495    1661.5404    435.35797   -55350.377    -59570.84    -55238.37 
  200000    1656.3115    673.15291   -55452.896   -59660.078   -55280.416 
Loop time of 777.268 on 2 procs for 9505 steps with 19652 atoms

Performance: 1.057 ns/day, 22.715 hours/ns, 12.229 timesteps/s
97.7% CPU use with 2 MPI tasks x no OpenMP threads

MPI task timing breakdown:
Section |  min time  |  avg time  |  max time  |%varavg| %total
---------------------------------------------------------------
Pair    | 416.32     | 418.12     | 419.93     |   8.8 | 53.79
Neigh   | 306.05     | 309.41     | 312.78     |  19.1 | 39.81
Comm    | 38.543     | 40.163     | 41.784     |  25.6 |  5.17
Output  | 0.035304   | 0.035336   | 0.035367   |   0.0 |  0.00
Modify  | 7.5479     | 7.5756     | 7.6033     |   1.0 |  0.97
Other   |            | 1.959      |            |       |  0.25

Nlocal:    9826 ave 9859 max 9793 min
Histogram: 1 0 0 0 0 0 0 0 0 1
Nghost:    11816.5 ave 11840 max 11793 min
Histogram: 1 0 0 0 0 0 0 0 0 1
Neighs:    602624 ave 611643 max 593604 min
Histogram: 1 0 0 0 0 0 0 0 0 1

Total # of neighbors = 1205247
Ave neighs/atom = 61.3295
Neighbor list builds = 9505
Dangerous builds not checked
Setting up Verlet run ...
  Unit style    : metal
  Current step  : 200000
  Time step     : 0.001
Per MPI rank memory allocation (min/avg/max) = 11.35 | 11.35 | 11.35 Mbytes
Step Temp Press TotEng PotEng Enthalpy 
  200000    1656.3115    673.15291   -55452.896   -59660.078   -55280.416 
  200495    1611.4949    662.00705   -55620.787    -59714.13   -55451.657 
Loop time of 37.8357 on 2 procs for 495 steps with 19652 atoms

Performance: 1.130 ns/day, 21.232 hours/ns, 13.083 timesteps/s
99.6% CPU use with 2 MPI tasks x no OpenMP threads

MPI task timing breakdown:
Section |  min time  |  avg time  |  max time  |%varavg| %total
---------------------------------------------------------------
Pair    | 20.165     | 20.287     | 20.409     |   2.7 | 53.62
Neigh   | 15.513     | 15.523     | 15.532     |   0.2 | 41.03
Comm    | 1.3994     | 1.5296     | 1.6597     |  10.5 |  4.04
Output  | 5.6982e-05 | 8.7023e-05 | 0.00011706 |   0.0 |  0.00
Modify  | 0.39423    | 0.3956     | 0.39696    |   0.2 |  1.05
Other   |            | 0.1013     |            |       |  0.27

Nlocal:    9826 ave 9840 max 9812 min
Histogram: 1 0 0 0 0 0 0 0 0 1
Nghost:    11787.5 ave 11791 max 11784 min
Histogram: 1 0 0 0 0 0 0 0 0 1
Neighs:    604102 ave 611269 max 596934 min
Histogram: 1 0 0 0 0 0 0 0 0 1

Total # of neighbors = 1208203
Ave neighs/atom = 61.4799
Neighbor list builds = 495
Dangerous builds not checked
Setting up Verlet run ...
  Unit style    : metal
  Current step  : 200495
  Time step     : 0.001
Per MPI rank memory allocation (min/avg/max) = 11.35 | 11.35 | 11.35 Mbytes
Step Temp Press TotEng PotEng Enthalpy 
  200495    1611.4949    662.00705   -55620.787    -59714.13   -55451.657 
  210000    1606.0008    696.65383   -55678.442    -59757.83   -55500.791 
Loop time of 762.796 on 2 procs for 9505 steps with 19652 atoms

Performance: 1.077 ns/day, 22.292 hours/ns, 12.461 timesteps/s
97.8% CPU use with 2 MPI tasks x no OpenMP threads

MPI task timing breakdown:
Section |  min time  |  avg time  |  max time  |%varavg| %total
---------------------------------------------------------------
Pair    | 410.06     | 412.47     | 414.89     |  11.9 | 54.07
Neigh   | 297.2      | 302.83     | 308.46     |  32.3 | 39.70
Comm    | 34.722     | 38.005     | 41.289     |  53.3 |  4.98
Output  | 0.037671   | 0.037703   | 0.037735   |   0.0 |  0.00
Modify  | 7.4839     | 7.5054     | 7.5269     |   0.8 |  0.98
Other   |            | 1.942      |            |       |  0.25

Nlocal:    9826 ave 9833 max 9819 min
Histogram: 1 0 0 0 0 0 0 0 0 1
Nghost:    11796.5 ave 11806 max 11787 min
Histogram: 1 0 0 0 0 0 0 0 0 1
Neighs:    605638 ave 611545 max 599732 min
Histogram: 1 0 0 0 0 0 0 0 0 1

Total # of neighbors = 1211277
Ave neighs/atom = 61.6363
Neighbor list builds = 9505
Dangerous builds not checked
Setting up Verlet run ...
  Unit style    : metal
  Current step  : 210000
  Time step     : 0.001
Per MPI rank memory allocation (min/avg/max) = 11.35 | 11.35 | 11.35 Mbytes
Step Temp Press TotEng PotEng Enthalpy 
  210000    1606.0008    696.65383   -55678.442    -59757.83   -55500.791 
  210495    1560.6248    434.65535   -55916.142   -59880.272    -55805.71 
Loop time of 37.155 on 2 procs for 495 steps with 19652 atoms

Performance: 1.151 ns/day, 20.850 hours/ns, 13.323 timesteps/s
99.9% CPU use with 2 MPI tasks x no OpenMP threads

MPI task timing breakdown:
Section |  min time  |  avg time  |  max time  |%varavg| %total
---------------------------------------------------------------
Pair    | 19.967     | 19.968     | 19.969     |   0.0 | 53.74
Neigh   | 13.638     | 14.803     | 15.969     |  30.3 | 39.84
Comm    | 0.72212    | 1.9108     | 3.0996     |  86.0 |  5.14
Output  | 7.7009e-05 | 0.00011349 | 0.00014997 |   0.0 |  0.00
Modify  | 0.35636    | 0.37436    | 0.39235    |   2.9 |  1.01
Other   |            | 0.09811    |            |       |  0.26

Nlocal:    9826 ave 9833 max 9819 min
Histogram: 1 0 0 0 0 0 0 0 0 1
Nghost:    11831.5 ave 11844 max 11819 min
Histogram: 1 0 0 0 0 0 0 0 0 1
Neighs:    607550 ave 614012 max 601087 min
Histogram: 1 0 0 0 0 0 0 0 0 1

Total # of neighbors = 1215099
Ave neighs/atom = 61.8308
Neighbor list builds = 495
Dangerous builds not checked
Setting up Verlet run ...
  Unit style    : metal
  Current step  : 210495
  Time step     : 0.001
Per MPI rank memory allocation (min/avg/max) = 11.35 | 11.35 | 11.35 Mbytes
Step Temp Press TotEng PotEng Enthalpy 
  210495    1560.6248    434.65535   -55916.142   -59880.272    -55805.71 
  220000    1539.7669   -259.21903    -56051.32   -59962.469   -56117.035 
Loop time of 771.753 on 2 procs for 9505 steps with 19652 atoms

Performance: 1.064 ns/day, 22.554 hours/ns, 12.316 timesteps/s
97.3% CPU use with 2 MPI tasks x no OpenMP threads

MPI task timing breakdown:
Section |  min time  |  avg time  |  max time  |%varavg| %total
---------------------------------------------------------------
Pair    | 413.84     | 415.53     | 417.22     |   8.3 | 53.84
Neigh   | 298.55     | 301.65     | 304.76     |  17.9 | 39.09
Comm    | 40.151     | 45.097     | 50.043     |  73.6 |  5.84
Output  | 0.034074   | 0.03409    | 0.034106   |   0.0 |  0.00
Modify  | 7.3779     | 7.5036     | 7.6293     |   4.6 |  0.97
Other   |            | 1.932      |            |       |  0.25

Nlocal:    9826 ave 9843 max 9809 min
Histogram: 1 0 0 0 0 0 0 0 0 1
Nghost:    11858.5 ave 11860 max 11857 min
Histogram: 1 0 0 0 0 0 0 0 0 1
Neighs:    609011 ave 616350 max 601672 min
Histogram: 1 0 0 0 0 0 0 0 0 1

Total # of neighbors = 1218022
Ave neighs/atom = 61.9795
Neighbor list builds = 9505
Dangerous builds not checked
Setting up Verlet run ...
  Unit style    : metal
  Current step  : 220000
  Time step     : 0.001
Per MPI rank memory allocation (min/avg/max) = 11.35 | 11.35 | 11.35 Mbytes
Step Temp Press TotEng PotEng Enthalpy 
  220000    1539.7669   -259.21903    -56051.32   -59962.469   -56117.035 
  220495     1508.913   -111.59637   -56196.878   -60029.654   -56225.085 
Loop time of 44.9158 on 2 procs for 495 steps with 19652 atoms

Performance: 0.952 ns/day, 25.205 hours/ns, 11.021 timesteps/s
93.2% CPU use with 2 MPI tasks x no OpenMP threads

MPI task timing breakdown:
Section |  min time  |  avg time  |  max time  |%varavg| %total
---------------------------------------------------------------
Pair    | 24.406     | 24.463     | 24.519     |   1.1 | 54.46
Neigh   | 15.88      | 16.934     | 17.987     |  25.6 | 37.70
Comm    | 1.8407     | 2.9743     | 4.1079     |  65.7 |  6.62
Output  | 8.5115e-05 | 0.00012302 | 0.00016093 |   0.0 |  0.00
Modify  | 0.4168     | 0.43584    | 0.45489    |   2.9 |  0.97
Other   |            | 0.109      |            |       |  0.24

Nlocal:    9826 ave 9842 max 9810 min
Histogram: 1 0 0 0 0 0 0 0 0 1
Nghost:    11889.5 ave 11897 max 11882 min
Histogram: 1 0 0 0 0 0 0 0 0 1
Neighs:    610807 ave 615108 max 606506 min
Histogram: 1 0 0 0 0 0 0 0 0 1

Total # of neighbors = 1221614
Ave neighs/atom = 62.1623
Neighbor list builds = 495
Dangerous builds not checked
Setting up Verlet run ...
  Unit style    : metal
  Current step  : 220495
  Time step     : 0.001
Per MPI rank memory allocation (min/avg/max) = 11.35 | 11.35 | 11.35 Mbytes
Step Temp Press TotEng PotEng Enthalpy 
  220495     1508.913   -111.59637   -56196.878   -60029.654   -56225.085 
  230000    1487.2918   -803.03646   -56332.236   -60110.093   -56534.891 
Loop time of 805.886 on 2 procs for 9505 steps with 19652 atoms

Performance: 1.019 ns/day, 23.552 hours/ns, 11.794 timesteps/s
97.2% CPU use with 2 MPI tasks x no OpenMP threads

MPI task timing breakdown:
Section |  min time  |  avg time  |  max time  |%varavg| %total
---------------------------------------------------------------
Pair    | 429.19     | 432.53     | 435.87     |  16.1 | 53.67
Neigh   | 310.32     | 317.08     | 323.84     |  38.0 | 39.35
Comm    | 34.483     | 44.693     | 54.903     | 152.7 |  5.55
Output  | 0.02549    | 0.025498   | 0.025506   |   0.0 |  0.00
Modify  | 9.4976     | 9.5747     | 9.6519     |   2.5 |  1.19
Other   |            | 1.982      |            |       |  0.25

Nlocal:    9826 ave 9839 max 9813 min
Histogram: 1 0 0 0 0 0 0 0 0 1
Nghost:    11925.5 ave 11978 max 11873 min
Histogram: 1 0 0 0 0 0 0 0 0 1
Neighs:    611916 ave 617812 max 606021 min
Histogram: 1 0 0 0 0 0 0 0 0 1

Total # of neighbors = 1223833
Ave neighs/atom = 62.2752
Neighbor list builds = 9505
Dangerous builds not checked
Setting up Verlet run ...
  Unit style    : metal
  Current step  : 230000
  Time step     : 0.001
Per MPI rank memory allocation (min/avg/max) = 11.35 | 11.35 | 11.35 Mbytes
Step Temp Press TotEng PotEng Enthalpy 
  230000    1487.2918   -803.03646   -56332.236   -60110.093   -56534.891 
  230495    1470.5016   -558.93533   -56490.233   -60225.441   -56630.572 
Loop time of 36.9301 on 2 procs for 495 steps with 19652 atoms

Performance: 1.158 ns/day, 20.724 hours/ns, 13.404 timesteps/s
97.3% CPU use with 2 MPI tasks x no OpenMP threads

MPI task timing breakdown:
Section |  min time  |  avg time  |  max time  |%varavg| %total
---------------------------------------------------------------
Pair    | 18.859     | 19.257     | 19.654     |   9.1 | 52.14
Neigh   | 14.952     | 14.987     | 15.022     |   0.9 | 40.58
Comm    | 1.8611     | 2.2248     | 2.5885     |  24.4 |  6.02
Output  | 8.2016e-05 | 0.00017202 | 0.00026202 |   0.0 |  0.00
Modify  | 0.36691    | 0.36779    | 0.36867    |   0.1 |  1.00
Other   |            | 0.09364    |            |       |  0.25

Nlocal:    9826 ave 9844 max 9808 min
Histogram: 1 0 0 0 0 0 0 0 0 1
Nghost:    11883.5 ave 11890 max 11877 min
Histogram: 1 0 0 0 0 0 0 0 0 1
Neighs:    614970 ave 622886 max 607054 min
Histogram: 1 0 0 0 0 0 0 0 0 1

Total # of neighbors = 1229940
Ave neighs/atom = 62.586
Neighbor list builds = 495
Dangerous builds not checked
Setting up Verlet run ...
  Unit style    : metal
  Current step  : 230495
  Time step     : 0.001
Per MPI rank memory allocation (min/avg/max) = 11.35 | 11.35 | 11.35 Mbytes
Step Temp Press TotEng PotEng Enthalpy 
  230495    1470.5016   -558.93533   -56490.233   -60225.441   -56630.572 
  240000    1452.3654    221.96503   -56589.501   -60278.642   -56533.987 
Loop time of 778.983 on 2 procs for 9505 steps with 19652 atoms

Performance: 1.054 ns/day, 22.765 hours/ns, 12.202 timesteps/s
97.2% CPU use with 2 MPI tasks x no OpenMP threads

MPI task timing breakdown:
Section |  min time  |  avg time  |  max time  |%varavg| %total
---------------------------------------------------------------
Pair    | 417.89     | 421.65     | 425.42     |  18.3 | 54.13
Neigh   | 302.73     | 305.43     | 308.13     |  15.4 | 39.21
Comm    | 35.825     | 42.191     | 48.558     |  98.0 |  5.42
Output  | 0.035703   | 0.035734   | 0.035765   |   0.0 |  0.00
Modify  | 7.647      | 7.7618     | 7.8766     |   4.1 |  1.00
Other   |            | 1.913      |            |       |  0.25

Nlocal:    9826 ave 9836 max 9816 min
Histogram: 1 0 0 0 0 0 0 0 0 1
Nghost:    11902.5 ave 11927 max 11878 min
Histogram: 1 0 0 0 0 0 0 0 0 1
Neighs:    617779 ave 623896 max 611662 min
Histogram: 1 0 0 0 0 0 0 0 0 1

Total # of neighbors = 1235558
Ave neighs/atom = 62.8719
Neighbor list builds = 9505
Dangerous builds not checked
Setting up Verlet run ...
  Unit style    : metal
  Current step  : 240000
  Time step     : 0.001
Per MPI rank memory allocation (min/avg/max) = 11.35 | 11.35 | 11.35 Mbytes
Step Temp Press TotEng PotEng Enthalpy 
  240000    1452.3654    221.96503   -56589.501   -60278.642   -56533.987 
  240495    1408.6569    746.97343   -56780.017   -60358.133   -56593.953 
Loop time of 40.8601 on 2 procs for 495 steps with 19652 atoms

Performance: 1.047 ns/day, 22.929 hours/ns, 12.115 timesteps/s
94.2% CPU use with 2 MPI tasks x no OpenMP threads

MPI task timing breakdown:
Section |  min time  |  avg time  |  max time  |%varavg| %total
---------------------------------------------------------------
Pair    | 21.414     | 21.472     | 21.53      |   1.3 | 52.55
Neigh   | 15.46      | 15.744     | 16.028     |   7.2 | 38.53
Comm    | 2.9274     | 3.1538     | 3.3803     |  12.8 |  7.72
Output  | 0.00012589 | 0.00018847 | 0.00025105 |   0.0 |  0.00
Modify  | 0.38993    | 0.39032    | 0.39072    |   0.1 |  0.96
Other   |            | 0.1004     |            |       |  0.25

Nlocal:    9826 ave 9852 max 9800 min
Histogram: 1 0 0 0 0 0 0 0 0 1
Nghost:    11923.5 ave 11929 max 11918 min
Histogram: 1 0 0 0 0 0 0 0 0 1
Neighs:    620052 ave 622331 max 617773 min
Histogram: 1 0 0 0 0 0 0 0 0 1

Total # of neighbors = 1240104
Ave neighs/atom = 63.1032
Neighbor list builds = 495
Dangerous builds not checked
Setting up Verlet run ...
  Unit style    : metal
  Current step  : 240495
  Time step     : 0.001
Per MPI rank memory allocation (min/avg/max) = 11.35 | 11.35 | 11.35 Mbytes
Step Temp Press TotEng PotEng Enthalpy 
  240495    1408.6569    746.97343   -56780.017   -60358.133   -56593.953 
  250000    1396.0793    761.05028   -56899.938   -60446.107   -56711.028 
Loop time of 761.763 on 2 procs for 9505 steps with 19652 atoms

Performance: 1.078 ns/day, 22.262 hours/ns, 12.478 timesteps/s
97.4% CPU use with 2 MPI tasks x no OpenMP threads

MPI task timing breakdown:
Section |  min time  |  avg time  |  max time  |%varavg| %total
---------------------------------------------------------------
Pair    | 407.52     | 410.91     | 414.29     |  16.7 | 53.94
Neigh   | 298.98     | 300.79     | 302.6      |  10.4 | 39.49
Comm    | 35.302     | 40.329     | 45.356     |  79.2 |  5.29
Output  | 0.02551    | 0.025527   | 0.025544   |   0.0 |  0.00
Modify  | 7.6514     | 7.8296     | 8.0077     |   6.4 |  1.03
Other   |            | 1.882      |            |       |  0.25

Nlocal:    9826 ave 9838 max 9814 min
Histogram: 1 0 0 0 0 0 0 0 0 1
Nghost:    11956.5 ave 11966 max 11947 min
Histogram: 1 0 0 0 0 0 0 0 0 1
Neighs:    622306 ave 630169 max 614443 min
Histogram: 1 0 0 0 0 0 0 0 0 1

Total # of neighbors = 1244612
Ave neighs/atom = 63.3326
Neighbor list builds = 9505
Dangerous builds not checked
Setting up Verlet run ...
  Unit style    : metal
  Current step  : 250000
  Time step     : 0.001
Per MPI rank memory allocation (min/avg/max) = 11.35 | 11.35 | 11.35 Mbytes
Step Temp Press TotEng PotEng Enthalpy 
  250000    1396.0793    761.05028   -56899.938   -60446.107   -56711.028 
  250495    1369.3364    795.68968   -57080.324   -60558.563   -56883.699 
Loop time of 36.8447 on 2 procs for 495 steps with 19652 atoms

Performance: 1.161 ns/day, 20.676 hours/ns, 13.435 timesteps/s
96.5% CPU use with 2 MPI tasks x no OpenMP threads

MPI task timing breakdown:
Section |  min time  |  avg time  |  max time  |%varavg| %total
---------------------------------------------------------------
Pair    | 19.323     | 19.402     | 19.482     |   1.8 | 52.66
Neigh   | 14.103     | 14.525     | 14.946     |  11.1 | 39.42
Comm    | 1.9596     | 2.4681     | 2.9765     |  32.4 |  6.70
Output  | 8.1062e-05 | 0.00011849 | 0.00015593 |   0.0 |  0.00
Modify  | 0.35254    | 0.35791    | 0.36329    |   0.9 |  0.97
Other   |            | 0.09161    |            |       |  0.25

Nlocal:    9826 ave 9830 max 9822 min
Histogram: 1 0 0 0 0 0 0 0 0 1
Nghost:    11945 ave 11951 max 11939 min
Histogram: 1 0 0 0 0 0 0 0 0 1
Neighs:    625244 ave 631388 max 619099 min
Histogram: 1 0 0 0 0 0 0 0 0 1

Total # of neighbors = 1250487
Ave neighs/atom = 63.6315
Neighbor list builds = 495
Dangerous builds not checked
Setting up Verlet run ...
  Unit style    : metal
  Current step  : 250495
  Time step     : 0.001
Per MPI rank memory allocation (min/avg/max) = 11.35 | 11.35 | 11.35 Mbytes
Step Temp Press TotEng PotEng Enthalpy 
  250495    1369.3364    795.68968   -57080.324   -60558.563   -56883.699 
  260000    1340.9815    29.224138   -57195.984   -60602.199   -57188.764 
Loop time of 756.1 on 2 procs for 9505 steps with 19652 atoms

Performance: 1.086 ns/day, 22.097 hours/ns, 12.571 timesteps/s
97.3% CPU use with 2 MPI tasks x no OpenMP threads

MPI task timing breakdown:
Section |  min time  |  avg time  |  max time  |%varavg| %total
---------------------------------------------------------------
Pair    | 397.47     | 402.36     | 407.25     |  24.4 | 53.22
Neigh   | 294.98     | 295.24     | 295.5      |   1.5 | 39.05
Comm    | 42.02      | 47.272     | 52.524     |  76.4 |  6.25
Output  | 0.028285   | 0.028312   | 0.028339   |   0.0 |  0.00
Modify  | 9.2654     | 9.3392     | 9.413      |   2.4 |  1.24
Other   |            | 1.859      |            |       |  0.25

Nlocal:    9826 ave 9826 max 9826 min
Histogram: 2 0 0 0 0 0 0 0 0 0
Nghost:    11959 ave 11971 max 11947 min
Histogram: 1 0 0 0 0 0 0 0 0 1
Neighs:    625462 ave 631055 max 619870 min
Histogram: 1 0 0 0 0 0 0 0 0 1

Total # of neighbors = 1250925
Ave neighs/atom = 63.6538
Neighbor list builds = 9505
Dangerous builds not checked
Setting up Verlet run ...
  Unit style    : metal
  Current step  : 260000
  Time step     : 0.001
Per MPI rank memory allocation (min/avg/max) = 11.35 | 11.35 | 11.35 Mbytes
Step Temp Press TotEng PotEng Enthalpy 
  260000    1340.9815    29.224138   -57195.984   -60602.199   -57188.764 
  260495    1310.5325    220.71648   -57372.473   -60701.345   -57318.207 
Loop time of 38.4684 on 2 procs for 495 steps with 19652 atoms

Performance: 1.112 ns/day, 21.587 hours/ns, 12.868 timesteps/s
96.3% CPU use with 2 MPI tasks x no OpenMP threads

MPI task timing breakdown:
Section |  min time  |  avg time  |  max time  |%varavg| %total
---------------------------------------------------------------
Pair    | 19.83      | 19.967     | 20.104     |   3.1 | 51.90
Neigh   | 14.747     | 14.99      | 15.234     |   6.3 | 38.97
Comm    | 2.9333     | 3.047      | 3.1607     |   6.5 |  7.92
Output  | 7.7009e-05 | 0.00011051 | 0.000144   |   0.0 |  0.00
Modify  | 0.36483    | 0.36981    | 0.37479    |   0.8 |  0.96
Other   |            | 0.09418    |            |       |  0.24

Nlocal:    9826 ave 9844 max 9808 min
Histogram: 1 0 0 0 0 0 0 0 0 1
Nghost:    12051.5 ave 12076 max 12027 min
Histogram: 1 0 0 0 0 0 0 0 0 1
Neighs:    628597 ave 636518 max 620676 min
Histogram: 1 0 0 0 0 0 0 0 0 1

Total # of neighbors = 1257194
Ave neighs/atom = 63.9728
Neighbor list builds = 495
Dangerous builds not checked
Setting up Verlet run ...
  Unit style    : metal
  Current step  : 260495
  Time step     : 0.001
Per MPI rank memory allocation (min/avg/max) = 11.35 | 11.35 | 11.35 Mbytes
Step Temp Press TotEng PotEng Enthalpy 
  260495    1310.5325    220.71648   -57372.473   -60701.345   -57318.207 
  270000    1309.2326   -421.38524   -57421.282   -60746.852   -57524.893 
Loop time of 691.776 on 2 procs for 9505 steps with 19652 atoms

Performance: 1.187 ns/day, 20.217 hours/ns, 13.740 timesteps/s
97.7% CPU use with 2 MPI tasks x no OpenMP threads

MPI task timing breakdown:
Section |  min time  |  avg time  |  max time  |%varavg| %total
---------------------------------------------------------------
Pair    | 366.72     | 369.33     | 371.95     |  13.6 | 53.39
Neigh   | 275.61     | 276.85     | 278.1      |   7.5 | 40.02
Comm    | 33.323     | 37.198     | 41.073     |  63.5 |  5.38
Output  | 0.034872   | 0.034881   | 0.03489    |   0.0 |  0.01
Modify  | 6.6442     | 6.6566     | 6.6689     |   0.5 |  0.96
Other   |            | 1.7        |            |       |  0.25

Nlocal:    9826 ave 9836 max 9816 min
Histogram: 1 0 0 0 0 0 0 0 0 1
Nghost:    11953 ave 11968 max 11938 min
Histogram: 1 0 0 0 0 0 0 0 0 1
Neighs:    628590 ave 635409 max 621772 min
Histogram: 1 0 0 0 0 0 0 0 0 1

Total # of neighbors = 1257181
Ave neighs/atom = 63.9722
Neighbor list builds = 9505
Dangerous builds not checked
Setting up Verlet run ...
  Unit style    : metal
  Current step  : 270000
  Time step     : 0.001
Per MPI rank memory allocation (min/avg/max) = 11.35 | 11.35 | 11.35 Mbytes
Step Temp Press TotEng PotEng Enthalpy 
  270000    1309.2326   -421.38524   -57421.282   -60746.852   -57524.893 
  270495     1262.872   -99.089932   -57674.366   -60882.176   -57698.586 
Loop time of 39.6135 on 2 procs for 495 steps with 19652 atoms

Performance: 1.080 ns/day, 22.230 hours/ns, 12.496 timesteps/s
97.7% CPU use with 2 MPI tasks x no OpenMP threads

MPI task timing breakdown:
Section |  min time  |  avg time  |  max time  |%varavg| %total
---------------------------------------------------------------
Pair    | 20.499     | 20.573     | 20.647     |   1.6 | 51.93
Neigh   | 15.166     | 15.482     | 15.798     |   8.0 | 39.08
Comm    | 2.6786     | 3.0765     | 3.4745     |  22.7 |  7.77
Output  | 9.5129e-05 | 0.00012398 | 0.00015283 |   0.0 |  0.00
Modify  | 0.37817    | 0.38407    | 0.38996    |   1.0 |  0.97
Other   |            | 0.09802    |            |       |  0.25

Nlocal:    9826 ave 9828 max 9824 min
Histogram: 1 0 0 0 0 0 0 0 0 1
Nghost:    12008.5 ave 12013 max 12004 min
Histogram: 1 0 0 0 0 0 0 0 0 1
Neighs:    632464 ave 639209 max 625720 min
Histogram: 1 0 0 0 0 0 0 0 0 1

Total # of neighbors = 1264929
Ave neighs/atom = 64.3664
Neighbor list builds = 495
Dangerous builds not checked
Setting up Verlet run ...
  Unit style    : metal
  Current step  : 270495
  Time step     : 0.001
Per MPI rank memory allocation (min/avg/max) = 11.35 | 11.35 | 11.35 Mbytes
Step Temp Press TotEng PotEng Enthalpy 
  270495     1262.872   -99.089932   -57674.366   -60882.176   -57698.586 
  280000     1241.694    35.180397    -57759.26   -60913.276   -57750.676 
Loop time of 737.828 on 2 procs for 9505 steps with 19652 atoms

Performance: 1.113 ns/day, 21.563 hours/ns, 12.882 timesteps/s
97.8% CPU use with 2 MPI tasks x no OpenMP threads

MPI task timing breakdown:
Section |  min time  |  avg time  |  max time  |%varavg| %total
---------------------------------------------------------------
Pair    | 395.71     | 398.22     | 400.73     |  12.6 | 53.97
Neigh   | 290.25     | 291.03     | 291.81     |   4.6 | 39.44
Comm    | 36.213     | 39.52      | 42.826     |  52.6 |  5.36
Output  | 0.035816   | 0.035836   | 0.035856   |   0.0 |  0.00
Modify  | 7.188      | 7.2054     | 7.2227     |   0.6 |  0.98
Other   |            | 1.815      |            |       |  0.25

Nlocal:    9826 ave 9833 max 9819 min
Histogram: 1 0 0 0 0 0 0 0 0 1
Nghost:    11998 ave 12008 max 11988 min
Histogram: 1 0 0 0 0 0 0 0 0 1
Neighs:    633740 ave 641207 max 626272 min
Histogram: 1 0 0 0 0 0 0 0 0 1

Total # of neighbors = 1267479
Ave neighs/atom = 64.4962
Neighbor list builds = 9505
Dangerous builds not checked
Setting up Verlet run ...
  Unit style    : metal
  Current step  : 280000
  Time step     : 0.001
Per MPI rank memory allocation (min/avg/max) = 11.35 | 11.35 | 11.35 Mbytes
Step Temp Press TotEng PotEng Enthalpy 
  280000     1241.694    35.180397    -57759.26   -60913.276   -57750.676 
  280495    1216.7744    98.178376   -57971.815   -61062.533   -57947.979 
Loop time of 34.5401 on 2 procs for 495 steps with 19652 atoms

Performance: 1.238 ns/day, 19.383 hours/ns, 14.331 timesteps/s
98.7% CPU use with 2 MPI tasks x no OpenMP threads

MPI task timing breakdown:
Section |  min time  |  avg time  |  max time  |%varavg| %total
---------------------------------------------------------------
Pair    | 18.489     | 18.509     | 18.53      |   0.5 | 53.59
Neigh   | 14.059     | 14.154     | 14.249     |   2.5 | 40.98
Comm    | 1.3603     | 1.4378     | 1.5153     |   6.5 |  4.16
Output  | 7.391e-05  | 0.00010538 | 0.00013685 |   0.0 |  0.00
Modify  | 0.3476     | 0.34987    | 0.35214    |   0.4 |  1.01
Other   |            | 0.08938    |            |       |  0.26

Nlocal:    9826 ave 9828 max 9824 min
Histogram: 1 0 0 0 0 0 0 0 0 1
Nghost:    12058.5 ave 12072 max 12045 min
Histogram: 1 0 0 0 0 0 0 0 0 1
Neighs:    636824 ave 642365 max 631283 min
Histogram: 1 0 0 0 0 0 0 0 0 1

Total # of neighbors = 1273648
Ave neighs/atom = 64.8101
Neighbor list builds = 495
Dangerous builds not checked
Setting up Verlet run ...
  Unit style    : metal
  Current step  : 280495
  Time step     : 0.001
Per MPI rank memory allocation (min/avg/max) = 11.35 | 11.35 | 11.35 Mbytes
Step Temp Press TotEng PotEng Enthalpy 
  280495    1216.7744    98.178376   -57971.815   -61062.533   -57947.979 
  290000     1200.732   -186.87994   -58043.189   -61093.158   -58088.492 
Loop time of 742.545 on 2 procs for 9505 steps with 19652 atoms

Performance: 1.106 ns/day, 21.700 hours/ns, 12.801 timesteps/s
97.0% CPU use with 2 MPI tasks x no OpenMP threads

MPI task timing breakdown:
Section |  min time  |  avg time  |  max time  |%varavg| %total
---------------------------------------------------------------
Pair    | 400.29     | 402.49     | 404.7      |  11.0 | 54.20
Neigh   | 282.63     | 289.75     | 296.88     |  41.9 | 39.02
Comm    | 31.832     | 41.332     | 50.833     | 147.8 |  5.57
Output  | 0.03576    | 0.035777   | 0.035795   |   0.0 |  0.00
Modify  | 6.9963     | 7.1267     | 7.2572     |   4.9 |  0.96
Other   |            | 1.805      |            |       |  0.24

Nlocal:    9826 ave 9831 max 9821 min
Histogram: 1 0 0 0 0 0 0 0 0 1
Nghost:    12007.5 ave 12018 max 11997 min
Histogram: 1 0 0 0 0 0 0 0 0 1
Neighs:    637816 ave 644736 max 630897 min
Histogram: 1 0 0 0 0 0 0 0 0 1

Total # of neighbors = 1275633
Ave neighs/atom = 64.9111
Neighbor list builds = 9505
Dangerous builds not checked
Setting up Verlet run ...
  Unit style    : metal
  Current step  : 290000
  Time step     : 0.001
Per MPI rank memory allocation (min/avg/max) = 11.35 | 11.35 | 11.35 Mbytes
Step Temp Press TotEng PotEng Enthalpy 
  290000     1200.732   -186.87994   -58043.189   -61093.158   -58088.492 
  290495    1157.5301    112.50962   -58284.553   -61224.785   -58257.439 
Loop time of 41.9283 on 2 procs for 495 steps with 19652 atoms

Performance: 1.020 ns/day, 23.529 hours/ns, 11.806 timesteps/s
97.9% CPU use with 2 MPI tasks x no OpenMP threads

MPI task timing breakdown:
Section |  min time  |  avg time  |  max time  |%varavg| %total
---------------------------------------------------------------
Pair    | 22.606     | 22.724     | 22.843     |   2.5 | 54.20
Neigh   | 16.723     | 16.73      | 16.738     |   0.2 | 39.90
Comm    | 1.8344     | 1.9483     | 2.0621     |   8.2 |  4.65
Output  | 7.6056e-05 | 0.00010252 | 0.00012898 |   0.0 |  0.00
Modify  | 0.41535    | 0.41756    | 0.41977    |   0.3 |  1.00
Other   |            | 0.1076     |            |       |  0.26

Nlocal:    9826 ave 9828 max 9824 min
Histogram: 1 0 0 0 0 0 0 0 0 1
Nghost:    12073.5 ave 12102 max 12045 min
Histogram: 1 0 0 0 0 0 0 0 0 1
Neighs:    641844 ave 647786 max 635901 min
Histogram: 1 0 0 0 0 0 0 0 0 1

Total # of neighbors = 1283687
Ave neighs/atom = 65.3209
Neighbor list builds = 495
Dangerous builds not checked
Setting up Verlet run ...
  Unit style    : metal
  Current step  : 290495
  Time step     : 0.001
Per MPI rank memory allocation (min/avg/max) = 11.35 | 11.35 | 11.35 Mbytes
Step Temp Press TotEng PotEng Enthalpy 
  290495    1157.5301    112.50962   -58284.553   -61224.785   -58257.439 
  300000    1153.2393    322.59875    -58368.35   -61297.683   -58290.807 
Loop time of 821.415 on 2 procs for 9505 steps with 19652 atoms

Performance: 1.000 ns/day, 24.005 hours/ns, 11.571 timesteps/s
97.9% CPU use with 2 MPI tasks x no OpenMP threads

MPI task timing breakdown:
Section |  min time  |  avg time  |  max time  |%varavg| %total
---------------------------------------------------------------
Pair    | 448.62     | 451.15     | 453.68     |  11.9 | 54.92
Neigh   | 324.31     | 325.64     | 326.96     |   7.3 | 39.64
Comm    | 30.163     | 34.009     | 37.855     |  65.9 |  4.14
Output  | 0.038311   | 0.038394   | 0.038478   |   0.0 |  0.00
Modify  | 8.5146     | 8.5156     | 8.5166     |   0.0 |  1.04
Other   |            | 2.069      |            |       |  0.25

Nlocal:    9826 ave 9856 max 9796 min
Histogram: 1 0 0 0 0 0 0 0 0 1
Nghost:    12134 ave 12139 max 12129 min
Histogram: 1 0 0 0 0 0 0 0 0 1
Neighs:    643330 ave 652859 max 633801 min
Histogram: 1 0 0 0 0 0 0 0 0 1

Total # of neighbors = 1286660
Ave neighs/atom = 65.4722
Neighbor list builds = 9505
Dangerous builds not checked
Setting up Verlet run ...
  Unit style    : metal
  Current step  : 300000
  Time step     : 0.001
Per MPI rank memory allocation (min/avg/max) = 11.35 | 11.35 | 11.35 Mbytes
Step Temp Press TotEng PotEng Enthalpy 
[...]
Histogram: 1 0 0 0 0 0 0 0 0 1
Neighs:    714026 ave 714135 max 713917 min
Histogram: 1 0 0 0 0 0 0 0 0 1

Total # of neighbors = 1428052
Ave neighs/atom = 72.667
Neighbor list builds = 9505
Dangerous builds not checked
Setting up Verlet run ...
  Unit style    : metal
  Current step  : 440000
  Time step     : 0.001
Per MPI rank memory allocation (min/avg/max) = 11.35 | 11.35 | 11.35 Mbytes
Step Temp Press TotEng PotEng Enthalpy 
  440000    446.87511    265.83958   -62989.969   -64125.072   -62932.272 
  440495    418.57953    457.20384   -63129.107   -64192.337   -63030.108 
Loop time of 58.0971 on 2 procs for 495 steps with 19652 atoms

Performance: 0.736 ns/day, 32.602 hours/ns, 8.520 timesteps/s
86.4% CPU use with 2 MPI tasks x no OpenMP threads

MPI task timing breakdown:
Section |  min time  |  avg time  |  max time  |%varavg| %total
---------------------------------------------------------------
Pair    | 31.973     | 32.215     | 32.458     |   4.3 | 55.45
Neigh   | 21.03      | 21.496     | 21.962     |  10.0 | 37.00
Comm    | 3.3982     | 3.6517     | 3.9052     |  13.3 |  6.29
Output  | 0.0060191  | 0.0080775  | 0.010136   |   2.3 |  0.01
Modify  | 0.56503    | 0.58771    | 0.61038    |   3.0 |  1.01
Other   |            | 0.1382     |            |       |  0.24

Nlocal:    9826 ave 9828 max 9824 min
Histogram: 1 0 0 0 0 0 0 0 0 1
Nghost:    12688.5 ave 12740 max 12637 min
Histogram: 1 0 0 0 0 0 0 0 0 1
Neighs:    715716 ave 716099 max 715333 min
Histogram: 1 0 0 0 0 0 0 0 0 1

Total # of neighbors = 1431432
Ave neighs/atom = 72.839
Neighbor list builds = 495
Dangerous builds not checked
Setting up Verlet run ...
  Unit style    : metal
  Current step  : 440495
  Time step     : 0.001
Per MPI rank memory allocation (min/avg/max) = 11.35 | 11.35 | 11.35 Mbytes
Step Temp Press TotEng PotEng Enthalpy 
  440495    418.57953    457.20384   -63129.107   -64192.337   -63030.108 
  450000    401.33445   -121.38027   -63295.406   -64314.832   -63321.604 
Loop time of 1069.68 on 2 procs for 9505 steps with 19652 atoms

Performance: 0.768 ns/day, 31.261 hours/ns, 8.886 timesteps/s
87.6% CPU use with 2 MPI tasks x no OpenMP threads

MPI task timing breakdown:
Section |  min time  |  avg time  |  max time  |%varavg| %total
---------------------------------------------------------------
Pair    | 588.63     | 588.8      | 588.98     |   0.7 | 55.04
Neigh   | 404.48     | 406.7      | 408.92     |  11.0 | 38.02
Comm    | 57.394     | 59.92      | 62.447     |  32.6 |  5.60
Output  | 0.066776   | 0.066801   | 0.066825   |   0.0 |  0.01
Modify  | 11.483     | 11.547     | 11.61      |   1.9 |  1.08
Other   |            | 2.644      |            |       |  0.25

Nlocal:    9826 ave 9829 max 9823 min
Histogram: 1 0 0 0 0 0 0 0 0 1
Nghost:    12698 ave 12741 max 12655 min
Histogram: 1 0 0 0 0 0 0 0 0 1
Neighs:    717880 ave 718274 max 717487 min
Histogram: 1 0 0 0 0 0 0 0 0 1

Total # of neighbors = 1435761
Ave neighs/atom = 73.0593
Neighbor list builds = 9505
Dangerous builds not checked
Setting up Verlet run ...
  Unit style    : metal
  Current step  : 450000
  Time step     : 0.001
Per MPI rank memory allocation (min/avg/max) = 11.35 | 11.35 | 11.35 Mbytes
Step Temp Press TotEng PotEng Enthalpy 
  450000    401.33445   -121.38027   -63295.406   -64314.832   -63321.604 
  450495    370.98109    190.05965   -63457.818   -64400.144   -63416.931 
Loop time of 55.9671 on 2 procs for 495 steps with 19652 atoms

Performance: 0.764 ns/day, 31.407 hours/ns, 8.844 timesteps/s
86.8% CPU use with 2 MPI tasks x no OpenMP threads

MPI task timing breakdown:
Section |  min time  |  avg time  |  max time  |%varavg| %total
---------------------------------------------------------------
Pair    | 30.645     | 30.766     | 30.887     |   2.2 | 54.97
Neigh   | 21.059     | 21.286     | 21.513     |   4.9 | 38.03
Comm    | 2.8781     | 3.224      | 3.5699     |  19.3 |  5.76
Output  | 0.00010991 | 0.00022089 | 0.00033188 |   0.0 |  0.00
Modify  | 0.53909    | 0.54356    | 0.54804    |   0.6 |  0.97
Other   |            | 0.1477     |            |       |  0.26

Nlocal:    9826 ave 9827 max 9825 min
Histogram: 1 0 0 0 0 0 0 0 0 1
Nghost:    12719.5 ave 12751 max 12688 min
Histogram: 1 0 0 0 0 0 0 0 0 1
Neighs:    719902 ave 720015 max 719790 min
Histogram: 1 0 0 0 0 0 0 0 0 1

Total # of neighbors = 1439805
Ave neighs/atom = 73.2651
Neighbor list builds = 495
Dangerous builds not checked
Setting up Verlet run ...
  Unit style    : metal
  Current step  : 450495
  Time step     : 0.001
Per MPI rank memory allocation (min/avg/max) = 11.35 | 11.35 | 11.35 Mbytes
Step Temp Press TotEng PotEng Enthalpy 
  450495    370.98109    190.05965   -63457.818   -64400.144   -63416.931 
  460000    354.04031    366.62973   -63614.456   -64513.751   -63535.888 
Loop time of 1036.31 on 2 procs for 9505 steps with 19652 atoms

Performance: 0.792 ns/day, 30.286 hours/ns, 9.172 timesteps/s
89.3% CPU use with 2 MPI tasks x no OpenMP threads

MPI task timing breakdown:
Section |  min time  |  avg time  |  max time  |%varavg| %total
---------------------------------------------------------------
Pair    | 570.94     | 572.05     | 573.16     |   4.6 | 55.20
Neigh   | 395.12     | 395.74     | 396.36     |   3.1 | 38.19
Comm    | 53.264     | 55.026     | 56.787     |  23.7 |  5.31
Output  | 0.037661   | 0.037753   | 0.037844   |   0.0 |  0.00
Modify  | 10.84      | 10.881     | 10.923     |   1.3 |  1.05
Other   |            | 2.583      |            |       |  0.25

Nlocal:    9826 ave 9832 max 9820 min
Histogram: 1 0 0 0 0 0 0 0 0 1
Nghost:    12737.5 ave 12742 max 12733 min
Histogram: 1 0 0 0 0 0 0 0 0 1
Neighs:    722922 ave 723686 max 722158 min
Histogram: 1 0 0 0 0 0 0 0 0 1

Total # of neighbors = 1445844
Ave neighs/atom = 73.5724
Neighbor list builds = 9505
Dangerous builds not checked
Setting up Verlet run ...
  Unit style    : metal
  Current step  : 460000
  Time step     : 0.001
Per MPI rank memory allocation (min/avg/max) = 11.35 | 11.35 | 11.35 Mbytes
Step Temp Press TotEng PotEng Enthalpy 
  460000    354.04031    366.62973   -63614.456   -64513.751   -63535.888 
  460495    324.26852    99.510143   -63772.585   -64596.257    -63751.31 
Loop time of 54.5737 on 2 procs for 495 steps with 19652 atoms

Performance: 0.784 ns/day, 30.625 hours/ns, 9.070 timesteps/s
87.4% CPU use with 2 MPI tasks x no OpenMP threads

MPI task timing breakdown:
Section |  min time  |  avg time  |  max time  |%varavg| %total
---------------------------------------------------------------
Pair    | 29.936     | 30.288     | 30.64      |   6.4 | 55.50
Neigh   | 20.487     | 21         | 21.512     |  11.2 | 38.48
Comm    | 2.4395     | 2.605      | 2.7705     |  10.3 |  4.77
Output  | 9.4891e-05 | 0.00012136 | 0.00014782 |   0.0 |  0.00
Modify  | 0.53719    | 0.53742    | 0.53766    |   0.0 |  0.98
Other   |            | 0.1436     |            |       |  0.26

Nlocal:    9826 ave 9832 max 9820 min
Histogram: 1 0 0 0 0 0 0 0 0 1
Nghost:    12734 ave 12763 max 12705 min
Histogram: 1 0 0 0 0 0 0 0 0 1
Neighs:    724344 ave 724547 max 724141 min
Histogram: 1 0 0 0 0 0 0 0 0 1

Total # of neighbors = 1448688
Ave neighs/atom = 73.7171
Neighbor list builds = 495
Dangerous builds not checked
Setting up Verlet run ...
  Unit style    : metal
  Current step  : 460495
  Time step     : 0.001
Per MPI rank memory allocation (min/avg/max) = 11.35 | 11.35 | 11.35 Mbytes
Step Temp Press TotEng PotEng Enthalpy 
  460495    324.26852    99.510143   -63772.585   -64596.257    -63751.31 
  470000    300.08915   -360.77001   -63931.057    -64693.31   -64007.995 
Loop time of 998.124 on 2 procs for 9505 steps with 19652 atoms

Performance: 0.823 ns/day, 29.170 hours/ns, 9.523 timesteps/s
91.8% CPU use with 2 MPI tasks x no OpenMP threads

MPI task timing breakdown:
Section |  min time  |  avg time  |  max time  |%varavg| %total
---------------------------------------------------------------
Pair    | 548.25     | 548.61     | 548.97     |   1.5 | 54.96
Neigh   | 385.7      | 386.55     | 387.4      |   4.3 | 38.73
Comm    | 49.105     | 49.628     | 50.15      |   7.4 |  4.97
Output  | 0.03728    | 0.037318   | 0.037356   |   0.0 |  0.00
Modify  | 10.651     | 10.682     | 10.713     |   0.9 |  1.07
Other   |            | 2.618      |            |       |  0.26

Nlocal:    9826 ave 9830 max 9822 min
Histogram: 1 0 0 0 0 0 0 0 0 1
Nghost:    12762 ave 12778 max 12746 min
Histogram: 1 0 0 0 0 0 0 0 0 1
Neighs:    726098 ave 727286 max 724909 min
Histogram: 1 0 0 0 0 0 0 0 0 1

Total # of neighbors = 1452195
Ave neighs/atom = 73.8955
Neighbor list builds = 9505
Dangerous builds not checked
Setting up Verlet run ...
  Unit style    : metal
  Current step  : 470000
  Time step     : 0.001
Per MPI rank memory allocation (min/avg/max) = 11.35 | 11.35 | 11.35 Mbytes
Step Temp Press TotEng PotEng Enthalpy 
  470000    300.08915   -360.77001   -63931.057    -64693.31   -64007.995 
  470495    274.67329    271.64012    -64075.15   -64772.846   -64017.414 
Loop time of 48.7873 on 2 procs for 495 steps with 19652 atoms

Performance: 0.877 ns/day, 27.378 hours/ns, 10.146 timesteps/s
94.1% CPU use with 2 MPI tasks x no OpenMP threads

MPI task timing breakdown:
Section |  min time  |  avg time  |  max time  |%varavg| %total
---------------------------------------------------------------
Pair    | 26.416     | 26.425     | 26.434     |   0.2 | 54.16
Neigh   | 19.331     | 19.481     | 19.631     |   3.4 | 39.93
Comm    | 2.0668     | 2.2299     | 2.3931     |  10.9 |  4.57
Output  | 8.5831e-05 | 0.0001719  | 0.00025797 |   0.0 |  0.00
Modify  | 0.52211    | 0.52253    | 0.52295    |   0.1 |  1.07
Other   |            | 0.1286     |            |       |  0.26

Nlocal:    9826 ave 9830 max 9822 min
Histogram: 1 0 0 0 0 0 0 0 0 1
Nghost:    12789 ave 12800 max 12778 min
Histogram: 1 0 0 0 0 0 0 0 0 1
Neighs:    728274 ave 728649 max 727900 min
Histogram: 1 0 0 0 0 0 0 0 0 1

Total # of neighbors = 1456549
Ave neighs/atom = 74.1171
Neighbor list builds = 495
Dangerous builds not checked
Setting up Verlet run ...
  Unit style    : metal
  Current step  : 470495
  Time step     : 0.001
Per MPI rank memory allocation (min/avg/max) = 11.35 | 11.35 | 11.35 Mbytes
Step Temp Press TotEng PotEng Enthalpy 
  470495    274.67329    271.64012    -64075.15   -64772.846   -64017.414 
  480000    249.22342   -270.40884   -64229.619   -64862.669   -64286.979 
Loop time of 1042.54 on 2 procs for 9505 steps with 19652 atoms

Performance: 0.788 ns/day, 30.468 hours/ns, 9.117 timesteps/s
88.6% CPU use with 2 MPI tasks x no OpenMP threads

MPI task timing breakdown:
Section |  min time  |  avg time  |  max time  |%varavg| %total
---------------------------------------------------------------
Pair    | 574.27     | 575.81     | 577.36     |   6.4 | 55.23
Neigh   | 394.51     | 395.34     | 396.17     |   4.2 | 37.92
Comm    | 54.734     | 57.257     | 59.781     |  33.3 |  5.49
Output  | 0.038315   | 0.038392   | 0.038468   |   0.0 |  0.00
Modify  | 11.285     | 11.421     | 11.556     |   4.0 |  1.10
Other   |            | 2.675      |            |       |  0.26

Nlocal:    9826 ave 9826 max 9826 min
Histogram: 2 0 0 0 0 0 0 0 0 0
Nghost:    12818 ave 12820 max 12816 min
Histogram: 1 0 0 0 0 0 0 0 0 1
Neighs:    729548 ave 730086 max 729011 min
Histogram: 1 0 0 0 0 0 0 0 0 1

Total # of neighbors = 1459097
Ave neighs/atom = 74.2467
Neighbor list builds = 9505
Dangerous builds not checked
Setting up Verlet run ...
  Unit style    : metal
  Current step  : 480000
  Time step     : 0.001
Per MPI rank memory allocation (min/avg/max) = 11.35 | 11.35 | 11.35 Mbytes
Step Temp Press TotEng PotEng Enthalpy 
  480000    249.22342   -270.40884   -64229.619   -64862.669   -64286.979 
  480495    224.70238     351.3435   -64361.192   -64931.956   -64286.885 
Loop time of 49.5373 on 2 procs for 495 steps with 19652 atoms

Performance: 0.863 ns/day, 27.799 hours/ns, 9.992 timesteps/s
94.3% CPU use with 2 MPI tasks x no OpenMP threads

MPI task timing breakdown:
Section |  min time  |  avg time  |  max time  |%varavg| %total
---------------------------------------------------------------
Pair    | 26.743     | 27.139     | 27.535     |   7.6 | 54.78
Neigh   | 19.141     | 19.286     | 19.43      |   3.3 | 38.93
Comm    | 2.2423     | 2.4829     | 2.7235     |  15.3 |  5.01
Output  | 8.7976e-05 | 0.00012648 | 0.00016499 |   0.0 |  0.00
Modify  | 0.4935     | 0.49845    | 0.50339    |   0.7 |  1.01
Other   |            | 0.1311     |            |       |  0.26

Nlocal:    9826 ave 9831 max 9821 min
Histogram: 1 0 0 0 0 0 0 0 0 1
Nghost:    12798 ave 12819 max 12777 min
Histogram: 1 0 0 0 0 0 0 0 0 1
Neighs:    731524 ave 732072 max 730975 min
Histogram: 1 0 0 0 0 0 0 0 0 1

Total # of neighbors = 1463047
Ave neighs/atom = 74.4477
Neighbor list builds = 495
Dangerous builds not checked
Setting up Verlet run ...
  Unit style    : metal
  Current step  : 480495
  Time step     : 0.001
Per MPI rank memory allocation (min/avg/max) = 11.35 | 11.35 | 11.35 Mbytes
Step Temp Press TotEng PotEng Enthalpy 
  480495    224.70238     351.3435   -64361.192   -64931.956   -64286.885 
  490000    200.42503    242.35833   -64505.726   -65014.824   -64454.582 
Loop time of 1090.28 on 2 procs for 9505 steps with 19652 atoms

Performance: 0.753 ns/day, 31.863 hours/ns, 8.718 timesteps/s
87.1% CPU use with 2 MPI tasks x no OpenMP threads

MPI task timing breakdown:
Section |  min time  |  avg time  |  max time  |%varavg| %total
---------------------------------------------------------------
Pair    | 600.69     | 601.94     | 603.18     |   5.1 | 55.21
Neigh   | 403.03     | 404.35     | 405.68     |   6.6 | 37.09
Comm    | 68.881     | 68.963     | 69.045     |   1.0 |  6.33
Output  | 0.69105    | 0.69107    | 0.69109    |   0.0 |  0.06
Modify  | 11.486     | 11.511     | 11.536     |   0.7 |  1.06
Other   |            | 2.825      |            |       |  0.26

Nlocal:    9826 ave 9831 max 9821 min
Histogram: 1 0 0 0 0 0 0 0 0 1
Nghost:    12832 ave 12851 max 12813 min
Histogram: 1 0 0 0 0 0 0 0 0 1
Neighs:    732876 ave 734017 max 731734 min
Histogram: 1 0 0 0 0 0 0 0 0 1

Total # of neighbors = 1465751
Ave neighs/atom = 74.5853
Neighbor list builds = 9505
Dangerous builds not checked
Setting up Verlet run ...
  Unit style    : metal
  Current step  : 490000
  Time step     : 0.001
Per MPI rank memory allocation (min/avg/max) = 11.35 | 11.35 | 11.35 Mbytes
Step Temp Press TotEng PotEng Enthalpy 
  490000    200.42503    242.35833   -64505.726   -65014.824   -64454.582 
  490495    175.56657       148.73   -64635.413   -65081.368   -64604.086 
Loop time of 65.7576 on 2 procs for 495 steps with 19652 atoms

Performance: 0.650 ns/day, 36.901 hours/ns, 7.528 timesteps/s
79.6% CPU use with 2 MPI tasks x no OpenMP threads

MPI task timing breakdown:
Section |  min time  |  avg time  |  max time  |%varavg| %total
---------------------------------------------------------------
Pair    | 33.877     | 34.087     | 34.296     |   3.6 | 51.84
Neigh   | 21.277     | 22.186     | 23.095     |  19.3 | 33.74
Comm    | 7.8808     | 8.6076     | 9.3344     |  24.8 | 13.09
Output  | 0.00015807 | 0.00021303 | 0.00026798 |   0.0 |  0.00
Modify  | 0.70146    | 0.71957    | 0.73769    |   2.1 |  1.09
Other   |            | 0.1577     |            |       |  0.24

Nlocal:    9826 ave 9828 max 9824 min
Histogram: 1 0 0 0 0 0 0 0 0 1
Nghost:    12812.5 ave 12818 max 12807 min
Histogram: 1 0 0 0 0 0 0 0 0 1
Neighs:    734109 ave 734496 max 733722 min
Histogram: 1 0 0 0 0 0 0 0 0 1

Total # of neighbors = 1468218
Ave neighs/atom = 74.7109
Neighbor list builds = 495
Dangerous builds not checked
Setting up Verlet run ...
  Unit style    : metal
  Current step  : 490495
  Time step     : 0.001
Per MPI rank memory allocation (min/avg/max) = 11.35 | 11.35 | 11.35 Mbytes
Step Temp Press TotEng PotEng Enthalpy 
  490495    175.56657       148.73   -64635.413   -65081.368   -64604.086 
  500000    150.72641    -170.8813   -64777.327   -65160.185   -64813.253 
Loop time of 1069.55 on 2 procs for 9505 steps with 19652 atoms

Performance: 0.768 ns/day, 31.257 hours/ns, 8.887 timesteps/s
88.5% CPU use with 2 MPI tasks x no OpenMP threads

MPI task timing breakdown:
Section |  min time  |  avg time  |  max time  |%varavg| %total
---------------------------------------------------------------
Pair    | 593.63     | 595.04     | 596.44     |   5.8 | 55.63
Neigh   | 398.57     | 400.37     | 402.18     |   9.0 | 37.43
Comm    | 56.185     | 59.467     | 62.748     |  42.6 |  5.56
Output  | 0.099272   | 0.099307   | 0.099342   |   0.0 |  0.01
Modify  | 11.574     | 11.649     | 11.724     |   2.2 |  1.09
Other   |            | 2.92       |            |       |  0.27

Nlocal:    9826 ave 9827 max 9825 min
Histogram: 1 0 0 0 0 0 0 0 0 1
Nghost:    12850 ave 12861 max 12839 min
Histogram: 1 0 0 0 0 0 0 0 0 1
Neighs:    735402 ave 735799 max 735006 min
Histogram: 1 0 0 0 0 0 0 0 0 1

Total # of neighbors = 1470805
Ave neighs/atom = 74.8425
Neighbor list builds = 9505
Dangerous builds not checked
Setting up Verlet run ...
  Unit style    : metal
  Current step  : 500000
  Time step     : 0.001
Per MPI rank memory allocation (min/avg/max) = 11.35 | 11.35 | 11.35 Mbytes
Step Temp Press TotEng PotEng Enthalpy 
  500000    150.72641    -170.8813   -64777.327   -65160.185   -64813.253 
  500495    128.05982    253.24217   -64897.676    -65222.96   -64844.572 
Loop time of 57.4909 on 2 procs for 495 steps with 19652 atoms

Performance: 0.744 ns/day, 32.262 hours/ns, 8.610 timesteps/s
87.3% CPU use with 2 MPI tasks x no OpenMP threads

MPI task timing breakdown:
Section |  min time  |  avg time  |  max time  |%varavg| %total
---------------------------------------------------------------
Pair    | 31.901     | 31.983     | 32.066     |   1.5 | 55.63
Neigh   | 21.537     | 21.586     | 21.635     |   1.1 | 37.55
Comm    | 3.002      | 3.1658     | 3.3295     |   9.2 |  5.51
Output  | 0.00017095 | 0.00035942 | 0.00054789 |   0.0 |  0.00
Modify  | 0.57268    | 0.60426    | 0.63584    |   4.1 |  1.05
Other   |            | 0.151      |            |       |  0.26

Nlocal:    9826 ave 9826 max 9826 min
Histogram: 2 0 0 0 0 0 0 0 0 0
Nghost:    12901 ave 12920 max 12882 min
Histogram: 1 0 0 0 0 0 0 0 0 1
Neighs:    736946 ave 737609 max 736283 min
Histogram: 1 0 0 0 0 0 0 0 0 1

Total # of neighbors = 1473892
Ave neighs/atom = 74.9996
Neighbor list builds = 495
Dangerous builds not checked
Setting up Verlet run ...
  Unit style    : metal
  Current step  : 500495
  Time step     : 0.001
Per MPI rank memory allocation (min/avg/max) = 11.35 | 11.35 | 11.35 Mbytes
Step Temp Press TotEng PotEng Enthalpy 
  500495    128.05982    253.24217   -64897.676    -65222.96   -64844.572 
  510000    99.843125    227.65737   -65044.349    -65297.96    -64996.71 
Loop time of 1051.48 on 2 procs for 9505 steps with 19652 atoms

Performance: 0.781 ns/day, 30.729 hours/ns, 9.040 timesteps/s
90.0% CPU use with 2 MPI tasks x no OpenMP threads

MPI task timing breakdown:
Section |  min time  |  avg time  |  max time  |%varavg| %total
---------------------------------------------------------------
Pair    | 583.45     | 584        | 584.54     |   2.3 | 55.54
Neigh   | 393.25     | 393.84     | 394.44     |   3.0 | 37.46
Comm    | 58.757     | 58.762     | 58.766     |   0.1 |  5.59
Output  | 0.040477   | 0.04054    | 0.040603   |   0.0 |  0.00
Modify  | 11.774     | 11.841     | 11.909     |   2.0 |  1.13
Other   |            | 2.995      |            |       |  0.28

Nlocal:    9826 ave 9830 max 9822 min
Histogram: 1 0 0 0 0 0 0 0 0 1
Nghost:    12856 ave 12861 max 12851 min
Histogram: 1 0 0 0 0 0 0 0 0 1
Neighs:    738304 ave 739091 max 737517 min
Histogram: 1 0 0 0 0 0 0 0 0 1

Total # of neighbors = 1476608
Ave neighs/atom = 75.1378
Neighbor list builds = 9505
Dangerous builds not checked
Total wall time: 12:55:40
