LAMMPS (12 Dec 2018)
Lattice spacing in x,y,z = 4 4 4
Created orthogonal box = (0 0 0) to (68 68 68)
  1 by 1 by 1 MPI processor grid
Created 19652 atoms
  Time spent = 0.00420904 secs
Setting atom values ...
  417 settings made for type/fraction
Neighbor list info ...
  update every 1 steps, delay 0 steps, check no
  max neighbors/atom: 2000, page size: 100000
  master list distance cutoff = 8.5
  ghost atom cutoff = 8.5
  binsize = 4.25, bins = 16 16 16
  1 neighbor lists, perpetual/occasional/extra = 1 0 0
  (1) pair eam/alloy, perpetual
      attributes: half, newton on
      pair build: half/bin/atomonly/newton
      stencil: half/bin/3d/newton
      bin: standard
Setting up Verlet run ...
  Unit style    : metal
  Current step  : 0
  Time step     : 0.001
Per MPI rank memory allocation (min/avg/max) = 18.19 | 18.19 | 18.19 Mbytes
Step Temp Press TotEng PotEng Enthalpy 
       0          300      1200412   -19364.497   -20126.524       216220 
    1000    164.11597    1203531.3   -19364.374   -19781.243     216832.3 
Loop time of 150.158 on 1 procs for 1000 steps with 19652 atoms

Performance: 0.575 ns/day, 41.711 hours/ns, 6.660 timesteps/s
99.4% CPU use with 1 MPI tasks x no OpenMP threads

MPI task timing breakdown:
Section |  min time  |  avg time  |  max time  |%varavg| %total
---------------------------------------------------------------
Pair    | 85.711     | 85.711     | 85.711     |   0.0 | 57.08
Neigh   | 62.454     | 62.454     | 62.454     |   0.0 | 41.59
Comm    | 1.2003     | 1.2003     | 1.2003     |   0.0 |  0.80
Output  | 0.00019002 | 0.00019002 | 0.00019002 |   0.0 |  0.00
Modify  | 0.40627    | 0.40627    | 0.40627    |   0.0 |  0.27
Other   |            | 0.3867     |            |       |  0.26

Nlocal:    19652 ave 19652 max 19652 min
Histogram: 1 0 0 0 0 0 0 0 0 0
Nghost:    20102 ave 20102 max 20102 min
Histogram: 1 0 0 0 0 0 0 0 0 0
Neighs:    1.59098e+06 ave 1.59098e+06 max 1.59098e+06 min
Histogram: 1 0 0 0 0 0 0 0 0 0

Total # of neighbors = 1590975
Ave neighs/atom = 80.9574
Neighbor list builds = 1000
Dangerous builds not checked
Setting up Verlet run ...
  Unit style    : metal
  Current step  : 1000
  Time step     : 0.001
Per MPI rank memory allocation (min/avg/max) = 18.19 | 18.19 | 18.19 Mbytes
Step Temp Press TotEng PotEng Enthalpy 
    1000    164.11597    1203531.3   -19364.374   -19781.243     216832.3 
    2000    180.81631    1498.5615   -86293.726   -86753.016   -85612.513 
Loop time of 107.787 on 1 procs for 1000 steps with 19652 atoms

Performance: 0.802 ns/day, 29.941 hours/ns, 9.278 timesteps/s
99.2% CPU use with 1 MPI tasks x no OpenMP threads

MPI task timing breakdown:
Section |  min time  |  avg time  |  max time  |%varavg| %total
---------------------------------------------------------------
Pair    | 57.344     | 57.344     | 57.344     |   0.0 | 53.20
Neigh   | 47.423     | 47.423     | 47.423     |   0.0 | 44.00
Comm    | 1.1062     | 1.1062     | 1.1062     |   0.0 |  1.03
Output  | 0.00018907 | 0.00018907 | 0.00018907 |   0.0 |  0.00
Modify  | 1.5085     | 1.5085     | 1.5085     |   0.0 |  1.40
Other   |            | 0.4057     |            |       |  0.38

Nlocal:    19652 ave 19652 max 19652 min
Histogram: 1 0 0 0 0 0 0 0 0 0
Nghost:    14808 ave 14808 max 14808 min
Histogram: 1 0 0 0 0 0 0 0 0 0
Neighs:    710697 ave 710697 max 710697 min
Histogram: 1 0 0 0 0 0 0 0 0 0

Total # of neighbors = 710697
Ave neighs/atom = 36.1641
Neighbor list builds = 1000
Dangerous builds not checked
Setting up Verlet run ...
  Unit style    : metal
  Current step  : 2000
  Time step     : 0.001
Per MPI rank memory allocation (min/avg/max) = 18.21 | 18.21 | 18.21 Mbytes
Step Temp Press TotEng PotEng Enthalpy 
    2000    180.81631    1498.5615   -86293.726   -86753.016   -85612.513 
    5000    1100.5347    114.80016   -80645.821    -83441.28   -80589.916 
   10000    2429.2857   -35.153777   -73879.802   -80050.409   -73898.053 
Loop time of 696.643 on 1 procs for 8000 steps with 19652 atoms

Performance: 0.992 ns/day, 24.189 hours/ns, 11.484 timesteps/s
99.0% CPU use with 1 MPI tasks x no OpenMP threads

MPI task timing breakdown:
Section |  min time  |  avg time  |  max time  |%varavg| %total
---------------------------------------------------------------
Pair    | 341.72     | 341.72     | 341.72     |   0.0 | 49.05
Neigh   | 330.78     | 330.78     | 330.78     |   0.0 | 47.48
Comm    | 8.4054     | 8.4054     | 8.4054     |   0.0 |  1.21
Output  | 0.15098    | 0.15098    | 0.15098    |   0.0 |  0.02
Modify  | 12.309     | 12.309     | 12.309     |   0.0 |  1.77
Other   |            | 3.274      |            |       |  0.47

Nlocal:    19652 ave 19652 max 19652 min
Histogram: 1 0 0 0 0 0 0 0 0 0
Nghost:    12703 ave 12703 max 12703 min
Histogram: 1 0 0 0 0 0 0 0 0 0
Neighs:    589144 ave 589144 max 589144 min
Histogram: 1 0 0 0 0 0 0 0 0 0

Total # of neighbors = 589144
Ave neighs/atom = 29.9788
Neighbor list builds = 8000
Dangerous builds not checked
Setting up Verlet run ...
  Unit style    : metal
  Current step  : 10000
  Time step     : 0.001
Per MPI rank memory allocation (min/avg/max) = 18.24 | 18.24 | 18.24 Mbytes
Step Temp Press TotEng PotEng Enthalpy 
   10000    2429.2857   -35.153777   -73879.802   -80050.409   -73898.053 
   15000    2436.4052   -215.47787   -73868.255   -80056.946   -73980.194 
   20000    2460.3904    546.53439   -73746.263   -79995.879   -73462.679 
   25000    2432.9017   -645.79359   -73831.756   -80011.548   -74168.236 
   30000    2442.9792   -18.196268   -73844.237   -80049.626   -73853.686 
   35000    2444.6606   -112.19412   -73834.678   -80044.339   -73892.982 
   40000    2459.1495      -582.14   -73725.405   -79971.869   -74028.917 
Loop time of 2531.27 on 1 procs for 30000 steps with 19652 atoms

Performance: 1.024 ns/day, 23.438 hours/ns, 11.852 timesteps/s
99.1% CPU use with 1 MPI tasks x no OpenMP threads

MPI task timing breakdown:
Section |  min time  |  avg time  |  max time  |%varavg| %total
---------------------------------------------------------------
Pair    | 1243.5     | 1243.5     | 1243.5     |   0.0 | 49.13
Neigh   | 1199.8     | 1199.8     | 1199.8     |   0.0 | 47.40
Comm    | 30.259     | 30.259     | 30.259     |   0.0 |  1.20
Output  | 0.4979     | 0.4979     | 0.4979     |   0.0 |  0.02
Modify  | 45.696     | 45.696     | 45.696     |   0.0 |  1.81
Other   |            | 11.47      |            |       |  0.45

Nlocal:    19652 ave 19652 max 19652 min
Histogram: 1 0 0 0 0 0 0 0 0 0
Nghost:    12690 ave 12690 max 12690 min
Histogram: 1 0 0 0 0 0 0 0 0 0
Neighs:    586513 ave 586513 max 586513 min
Histogram: 1 0 0 0 0 0 0 0 0 0

Total # of neighbors = 586513
Ave neighs/atom = 29.845
Neighbor list builds = 30000
Dangerous builds not checked
Setting up Verlet run ...
  Unit style    : metal
  Current step  : 40000
  Time step     : 0.001
Per MPI rank memory allocation (min/avg/max) = 18.24 | 18.24 | 18.24 Mbytes
Step Temp Press TotEng PotEng Enthalpy 
   40000    2459.1495      -582.14   -73725.405   -79971.869   -74028.917 
   40495    2417.1074     171.9636   -73998.258   -80137.931   -73909.166 
Loop time of 38.672 on 1 procs for 495 steps with 19652 atoms

Performance: 1.106 ns/day, 21.701 hours/ns, 12.800 timesteps/s
99.6% CPU use with 1 MPI tasks x no OpenMP threads

MPI task timing breakdown:
Section |  min time  |  avg time  |  max time  |%varavg| %total
---------------------------------------------------------------
Pair    | 18.501     | 18.501     | 18.501     |   0.0 | 47.84
Neigh   | 18.783     | 18.783     | 18.783     |   0.0 | 48.57
Comm    | 0.46669    | 0.46669    | 0.46669    |   0.0 |  1.21
Output  | 0.00016999 | 0.00016999 | 0.00016999 |   0.0 |  0.00
Modify  | 0.7393     | 0.7393     | 0.7393     |   0.0 |  1.91
Other   |            | 0.182      |            |       |  0.47

Nlocal:    19652 ave 19652 max 19652 min
Histogram: 1 0 0 0 0 0 0 0 0 0
Nghost:    12723 ave 12723 max 12723 min
Histogram: 1 0 0 0 0 0 0 0 0 0
Neighs:    590630 ave 590630 max 590630 min
Histogram: 1 0 0 0 0 0 0 0 0 0

Total # of neighbors = 590630
Ave neighs/atom = 30.0544
Neighbor list builds = 495
Dangerous builds not checked
Setting up Verlet run ...
  Unit style    : metal
  Current step  : 40495
  Time step     : 0.001
Per MPI rank memory allocation (min/avg/max) = 18.24 | 18.24 | 18.24 Mbytes
Step Temp Press TotEng PotEng Enthalpy 
   40495    2417.1074     171.9636   -73998.258   -80137.931   -73909.166 
   45000    2394.8338   -659.19367   -74062.003   -80145.099   -74404.423 
Loop time of 354.159 on 1 procs for 4505 steps with 19652 atoms

Performance: 1.099 ns/day, 21.837 hours/ns, 12.720 timesteps/s
99.5% CPU use with 1 MPI tasks x no OpenMP threads

MPI task timing breakdown:
Section |  min time  |  avg time  |  max time  |%varavg| %total
---------------------------------------------------------------
Pair    | 169.91     | 169.91     | 169.91     |   0.0 | 47.98
Neigh   | 171.85     | 171.85     | 171.85     |   0.0 | 48.52
Comm    | 4.2561     | 4.2561     | 4.2561     |   0.0 |  1.20
Output  | 0.062282   | 0.062282   | 0.062282   |   0.0 |  0.02
Modify  | 6.4763     | 6.4763     | 6.4763     |   0.0 |  1.83
Other   |            | 1.607      |            |       |  0.45

Nlocal:    19652 ave 19652 max 19652 min
Histogram: 1 0 0 0 0 0 0 0 0 0
Nghost:    12662 ave 12662 max 12662 min
Histogram: 1 0 0 0 0 0 0 0 0 0
Neighs:    588826 ave 588826 max 588826 min
Histogram: 1 0 0 0 0 0 0 0 0 0

Total # of neighbors = 588826
Ave neighs/atom = 29.9627
Neighbor list builds = 4505
Dangerous builds not checked
Setting up Verlet run ...
  Unit style    : metal
  Current step  : 45000
  Time step     : 0.001
Per MPI rank memory allocation (min/avg/max) = 18.24 | 18.24 | 18.24 Mbytes
Step Temp Press TotEng PotEng Enthalpy 
   45000    2394.8338   -659.19367   -74062.003   -80145.099   -74404.423 
   45495    2367.2663   -164.38182   -74270.187   -80283.259   -74355.225 
Loop time of 40.7835 on 1 procs for 495 steps with 19652 atoms

Performance: 1.049 ns/day, 22.886 hours/ns, 12.137 timesteps/s
99.9% CPU use with 1 MPI tasks x no OpenMP threads

MPI task timing breakdown:
Section |  min time  |  avg time  |  max time  |%varavg| %total
---------------------------------------------------------------
Pair    | 19.664     | 19.664     | 19.664     |   0.0 | 48.22
Neigh   | 19.682     | 19.682     | 19.682     |   0.0 | 48.26
Comm    | 0.49       | 0.49       | 0.49       |   0.0 |  1.20
Output  | 0.00016284 | 0.00016284 | 0.00016284 |   0.0 |  0.00
Modify  | 0.75922    | 0.75922    | 0.75922    |   0.0 |  1.86
Other   |            | 0.1874     |            |       |  0.46

Nlocal:    19652 ave 19652 max 19652 min
Histogram: 1 0 0 0 0 0 0 0 0 0
Nghost:    12659 ave 12659 max 12659 min
Histogram: 1 0 0 0 0 0 0 0 0 0
Neighs:    591491 ave 591491 max 591491 min
Histogram: 1 0 0 0 0 0 0 0 0 0

Total # of neighbors = 591491
Ave neighs/atom = 30.0983
Neighbor list builds = 495
Dangerous builds not checked
Setting up Verlet run ...
  Unit style    : metal
  Current step  : 45495
  Time step     : 0.001
Per MPI rank memory allocation (min/avg/max) = 18.24 | 18.24 | 18.24 Mbytes
Step Temp Press TotEng PotEng Enthalpy 
   45495    2367.2663   -164.38182   -74270.187   -80283.259   -74355.225 
   50000    2364.8943    172.92427   -74299.186   -80306.233   -74209.862 
Loop time of 359.411 on 1 procs for 4505 steps with 19652 atoms

Performance: 1.083 ns/day, 22.161 hours/ns, 12.534 timesteps/s
98.9% CPU use with 1 MPI tasks x no OpenMP threads

MPI task timing breakdown:
Section |  min time  |  avg time  |  max time  |%varavg| %total
---------------------------------------------------------------
Pair    | 172.05     | 172.05     | 172.05     |   0.0 | 47.87
Neigh   | 174.66     | 174.66     | 174.66     |   0.0 | 48.60
Comm    | 4.3037     | 4.3037     | 4.3037     |   0.0 |  1.20
Output  | 0.083341   | 0.083341   | 0.083341   |   0.0 |  0.02
Modify  | 6.6703     | 6.6703     | 6.6703     |   0.0 |  1.86
Other   |            | 1.643      |            |       |  0.46

Nlocal:    19652 ave 19652 max 19652 min
Histogram: 1 0 0 0 0 0 0 0 0 0
Nghost:    12721 ave 12721 max 12721 min
Histogram: 1 0 0 0 0 0 0 0 0 0
Neighs:    592021 ave 592021 max 592021 min
Histogram: 1 0 0 0 0 0 0 0 0 0

Total # of neighbors = 592021
Ave neighs/atom = 30.1252
Neighbor list builds = 4505
Dangerous builds not checked
Setting up Verlet run ...
  Unit style    : metal
  Current step  : 50000
  Time step     : 0.001
Per MPI rank memory allocation (min/avg/max) = 18.24 | 18.24 | 18.24 Mbytes
Step Temp Press TotEng PotEng Enthalpy 
   50000    2364.8943    172.92427   -74299.186   -80306.233   -74209.862 
   50495    2308.0035    98.923283   -74451.909   -80314.448   -74400.843 
Loop time of 36.6184 on 1 procs for 495 steps with 19652 atoms

Performance: 1.168 ns/day, 20.549 hours/ns, 13.518 timesteps/s
99.3% CPU use with 1 MPI tasks x no OpenMP threads

MPI task timing breakdown:
Section |  min time  |  avg time  |  max time  |%varavg| %total
---------------------------------------------------------------
Pair    | 17.354     | 17.354     | 17.354     |   0.0 | 47.39
Neigh   | 17.983     | 17.983     | 17.983     |   0.0 | 49.11
Comm    | 0.43362    | 0.43362    | 0.43362    |   0.0 |  1.18
Output  | 0.00015903 | 0.00015903 | 0.00015903 |   0.0 |  0.00
Modify  | 0.67826    | 0.67826    | 0.67826    |   0.0 |  1.85
Other   |            | 0.1687     |            |       |  0.46

Nlocal:    19652 ave 19652 max 19652 min
Histogram: 1 0 0 0 0 0 0 0 0 0
Nghost:    12709 ave 12709 max 12709 min
Histogram: 1 0 0 0 0 0 0 0 0 0
Neighs:    592518 ave 592518 max 592518 min
Histogram: 1 0 0 0 0 0 0 0 0 0

Total # of neighbors = 592518
Ave neighs/atom = 30.1505
Neighbor list builds = 495
Dangerous builds not checked
Setting up Verlet run ...
  Unit style    : metal
  Current step  : 50495
  Time step     : 0.001
Per MPI rank memory allocation (min/avg/max) = 18.24 | 18.24 | 18.24 Mbytes
Step Temp Press TotEng PotEng Enthalpy 
   50495    2308.0035    98.923283   -74451.909   -80314.448   -74400.843 
   55000    2256.9742    243.52485   -74646.998   -80379.918   -74521.532 
Loop time of 363.765 on 1 procs for 4505 steps with 19652 atoms

Performance: 1.070 ns/day, 22.430 hours/ns, 12.384 timesteps/s
98.9% CPU use with 1 MPI tasks x no OpenMP threads

MPI task timing breakdown:
Section |  min time  |  avg time  |  max time  |%varavg| %total
---------------------------------------------------------------
Pair    | 176.69     | 176.69     | 176.69     |   0.0 | 48.57
Neigh   | 174.2      | 174.2      | 174.2      |   0.0 | 47.89
Comm    | 4.3914     | 4.3914     | 4.3914     |   0.0 |  1.21
Output  | 0.08189    | 0.08189    | 0.08189    |   0.0 |  0.02
Modify  | 6.7138     | 6.7138     | 6.7138     |   0.0 |  1.85
Other   |            | 1.691      |            |       |  0.46

Nlocal:    19652 ave 19652 max 19652 min
Histogram: 1 0 0 0 0 0 0 0 0 0
Nghost:    12679 ave 12679 max 12679 min
Histogram: 1 0 0 0 0 0 0 0 0 0
Neighs:    594102 ave 594102 max 594102 min
Histogram: 1 0 0 0 0 0 0 0 0 0

Total # of neighbors = 594102
Ave neighs/atom = 30.2311
Neighbor list builds = 4505
Dangerous builds not checked
Setting up Verlet run ...
  Unit style    : metal
  Current step  : 55000
  Time step     : 0.001
Per MPI rank memory allocation (min/avg/max) = 18.24 | 18.24 | 18.24 Mbytes
Step Temp Press TotEng PotEng Enthalpy 
   55000    2256.9742    243.52485   -74646.998   -80379.918   -74521.532 
   55495     2252.453    248.83737   -74722.708   -80444.144   -74594.654 
Loop time of 43.3664 on 1 procs for 495 steps with 19652 atoms

Performance: 0.986 ns/day, 24.336 hours/ns, 11.414 timesteps/s
99.8% CPU use with 1 MPI tasks x no OpenMP threads

MPI task timing breakdown:
Section |  min time  |  avg time  |  max time  |%varavg| %total
---------------------------------------------------------------
Pair    | 21.935     | 21.935     | 21.935     |   0.0 | 50.58
Neigh   | 19.901     | 19.901     | 19.901     |   0.0 | 45.89
Comm    | 0.53286    | 0.53286    | 0.53286    |   0.0 |  1.23
Output  | 0.00019693 | 0.00019693 | 0.00019693 |   0.0 |  0.00
Modify  | 0.79337    | 0.79337    | 0.79337    |   0.0 |  1.83
Other   |            | 0.2043     |            |       |  0.47

Nlocal:    19652 ave 19652 max 19652 min
Histogram: 1 0 0 0 0 0 0 0 0 0
Nghost:    12630 ave 12630 max 12630 min
Histogram: 1 0 0 0 0 0 0 0 0 0
Neighs:    594730 ave 594730 max 594730 min
Histogram: 1 0 0 0 0 0 0 0 0 0

Total # of neighbors = 594730
Ave neighs/atom = 30.2631
Neighbor list builds = 495
Dangerous builds not checked
Setting up Verlet run ...
  Unit style    : metal
  Current step  : 55495
  Time step     : 0.001
Per MPI rank memory allocation (min/avg/max) = 18.24 | 18.24 | 18.24 Mbytes
Step Temp Press TotEng PotEng Enthalpy 
   55495     2252.453    248.83737   -74722.708   -80444.144   -74594.654 
   60000    2245.3955    880.45265   -74819.183   -80522.693   -74367.792 
Loop time of 414.547 on 1 procs for 4505 steps with 19652 atoms

Performance: 0.939 ns/day, 25.561 hours/ns, 10.867 timesteps/s
97.8% CPU use with 1 MPI tasks x no OpenMP threads

MPI task timing breakdown:
Section |  min time  |  avg time  |  max time  |%varavg| %total
---------------------------------------------------------------
Pair    | 207.27     | 207.27     | 207.27     |   0.0 | 50.00
Neigh   | 192.37     | 192.37     | 192.37     |   0.0 | 46.41
Comm    | 5.2114     | 5.2114     | 5.2114     |   0.0 |  1.26
Output  | 0.088766   | 0.088766   | 0.088766   |   0.0 |  0.02
Modify  | 7.7259     | 7.7259     | 7.7259     |   0.0 |  1.86
Other   |            | 1.881      |            |       |  0.45

Nlocal:    19652 ave 19652 max 19652 min
Histogram: 1 0 0 0 0 0 0 0 0 0
Nghost:    12745 ave 12745 max 12745 min
Histogram: 1 0 0 0 0 0 0 0 0 0
Neighs:    596252 ave 596252 max 596252 min
Histogram: 1 0 0 0 0 0 0 0 0 0

Total # of neighbors = 596252
Ave neighs/atom = 30.3405
Neighbor list builds = 4505
Dangerous builds not checked
Setting up Verlet run ...
  Unit style    : metal
  Current step  : 60000
  Time step     : 0.001
Per MPI rank memory allocation (min/avg/max) = 18.24 | 18.24 | 18.24 Mbytes
Step Temp Press TotEng PotEng Enthalpy 
   60000    2245.3955    880.45265   -74819.183   -80522.693   -74367.792 
   60495    2211.1103    593.07566   -74968.899   -80585.321   -74664.913 
Loop time of 39.9669 on 1 procs for 495 steps with 19652 atoms

Performance: 1.070 ns/day, 22.428 hours/ns, 12.385 timesteps/s
100.0% CPU use with 1 MPI tasks x no OpenMP threads

MPI task timing breakdown:
Section |  min time  |  avg time  |  max time  |%varavg| %total
---------------------------------------------------------------
Pair    | 19.149     | 19.149     | 19.149     |   0.0 | 47.91
Neigh   | 19.276     | 19.276     | 19.276     |   0.0 | 48.23
Comm    | 0.51323    | 0.51323    | 0.51323    |   0.0 |  1.28
Output  | 0.00019693 | 0.00019693 | 0.00019693 |   0.0 |  0.00
Modify  | 0.81263    | 0.81263    | 0.81263    |   0.0 |  2.03
Other   |            | 0.2155     |            |       |  0.54

Nlocal:    19652 ave 19652 max 19652 min
Histogram: 1 0 0 0 0 0 0 0 0 0
Nghost:    12716 ave 12716 max 12716 min
Histogram: 1 0 0 0 0 0 0 0 0 0
Neighs:    596755 ave 596755 max 596755 min
Histogram: 1 0 0 0 0 0 0 0 0 0

Total # of neighbors = 596755
Ave neighs/atom = 30.3661
Neighbor list builds = 495
Dangerous builds not checked
Setting up Verlet run ...
  Unit style    : metal
  Current step  : 60495
  Time step     : 0.001
Per MPI rank memory allocation (min/avg/max) = 18.24 | 18.24 | 18.24 Mbytes
Step Temp Press TotEng PotEng Enthalpy 
   60495    2211.1103    593.07566   -74968.899   -80585.321   -74664.913 
   65000    2191.4721   -242.10007   -75065.089   -80631.628   -75189.388 
Loop time of 405.63 on 1 procs for 4505 steps with 19652 atoms

Performance: 0.960 ns/day, 25.011 hours/ns, 11.106 timesteps/s
99.6% CPU use with 1 MPI tasks x no OpenMP threads

MPI task timing breakdown:
Section |  min time  |  avg time  |  max time  |%varavg| %total
---------------------------------------------------------------
Pair    | 201.32     | 201.32     | 201.32     |   0.0 | 49.63
Neigh   | 189.73     | 189.73     | 189.73     |   0.0 | 46.77
Comm    | 4.9491     | 4.9491     | 4.9491     |   0.0 |  1.22
Output  | 0.26625    | 0.26625    | 0.26625    |   0.0 |  0.07
Modify  | 7.4543     | 7.4543     | 7.4543     |   0.0 |  1.84
Other   |            | 1.913      |            |       |  0.47

Nlocal:    19652 ave 19652 max 19652 min
Histogram: 1 0 0 0 0 0 0 0 0 0
Nghost:    12684 ave 12684 max 12684 min
Histogram: 1 0 0 0 0 0 0 0 0 0
Neighs:    595608 ave 595608 max 595608 min
Histogram: 1 0 0 0 0 0 0 0 0 0

Total # of neighbors = 595608
Ave neighs/atom = 30.3078
Neighbor list builds = 4505
Dangerous builds not checked
Setting up Verlet run ...
  Unit style    : metal
  Current step  : 65000
  Time step     : 0.001
Per MPI rank memory allocation (min/avg/max) = 18.24 | 18.24 | 18.24 Mbytes
Step Temp Press TotEng PotEng Enthalpy 
   65000    2191.4721   -242.10007   -75065.089   -80631.628   -75189.388 
   65495     2139.435    28.199919   -75183.531   -80617.891   -75169.072 
Loop time of 45.541 on 1 procs for 495 steps with 19652 atoms

Performance: 0.939 ns/day, 25.556 hours/ns, 10.869 timesteps/s
94.1% CPU use with 1 MPI tasks x no OpenMP threads

MPI task timing breakdown:
Section |  min time  |  avg time  |  max time  |%varavg| %total
---------------------------------------------------------------
Pair    | 22.444     | 22.444     | 22.444     |   0.0 | 49.28
Neigh   | 21.44      | 21.44      | 21.44      |   0.0 | 47.08
Comm    | 0.5612     | 0.5612     | 0.5612     |   0.0 |  1.23
Output  | 0.0001719  | 0.0001719  | 0.0001719  |   0.0 |  0.00
Modify  | 0.8714     | 0.8714     | 0.8714     |   0.0 |  1.91
Other   |            | 0.2239     |            |       |  0.49

Nlocal:    19652 ave 19652 max 19652 min
Histogram: 1 0 0 0 0 0 0 0 0 0
Nghost:    12746 ave 12746 max 12746 min
Histogram: 1 0 0 0 0 0 0 0 0 0
Neighs:    596507 ave 596507 max 596507 min
Histogram: 1 0 0 0 0 0 0 0 0 0

Total # of neighbors = 596507
Ave neighs/atom = 30.3535
Neighbor list builds = 495
Dangerous builds not checked
Setting up Verlet run ...
  Unit style    : metal
  Current step  : 65495
  Time step     : 0.001
Per MPI rank memory allocation (min/avg/max) = 18.24 | 18.24 | 18.24 Mbytes
Step Temp Press TotEng PotEng Enthalpy 
   65495     2139.435    28.199919   -75183.531   -80617.891   -75169.072 
   70000    2156.9455   -431.24289   -75196.665   -80675.503    -75418.04 
Loop time of 403.136 on 1 procs for 4505 steps with 19652 atoms

Performance: 0.966 ns/day, 24.857 hours/ns, 11.175 timesteps/s
98.6% CPU use with 1 MPI tasks x no OpenMP threads

MPI task timing breakdown:
Section |  min time  |  avg time  |  max time  |%varavg| %total
---------------------------------------------------------------
Pair    | 198.73     | 198.73     | 198.73     |   0.0 | 49.30
Neigh   | 189.7      | 189.7      | 189.7      |   0.0 | 47.06
Comm    | 5.1732     | 5.1732     | 5.1732     |   0.0 |  1.28
Output  | 0.091443   | 0.091443   | 0.091443   |   0.0 |  0.02
Modify  | 7.6867     | 7.6867     | 7.6867     |   0.0 |  1.91
Other   |            | 1.756      |            |       |  0.44

Nlocal:    19652 ave 19652 max 19652 min
Histogram: 1 0 0 0 0 0 0 0 0 0
Nghost:    12731 ave 12731 max 12731 min
Histogram: 1 0 0 0 0 0 0 0 0 0
Neighs:    596180 ave 596180 max 596180 min
Histogram: 1 0 0 0 0 0 0 0 0 0

Total # of neighbors = 596180
Ave neighs/atom = 30.3369
Neighbor list builds = 4505
Dangerous builds not checked
Setting up Verlet run ...
  Unit style    : metal
  Current step  : 70000
  Time step     : 0.001
Per MPI rank memory allocation (min/avg/max) = 18.24 | 18.24 | 18.24 Mbytes
Step Temp Press TotEng PotEng Enthalpy 
   70000    2156.9455   -431.24289   -75196.665   -80675.503    -75418.04 
   70495    2107.5879    57.268833   -75435.547   -80789.012   -75406.264 
Loop time of 42.5708 on 1 procs for 495 steps with 19652 atoms

Performance: 1.005 ns/day, 23.889 hours/ns, 11.628 timesteps/s
97.4% CPU use with 1 MPI tasks x no OpenMP threads

MPI task timing breakdown:
Section |  min time  |  avg time  |  max time  |%varavg| %total
---------------------------------------------------------------
Pair    | 20.721     | 20.721     | 20.721     |   0.0 | 48.67
Neigh   | 20.294     | 20.294     | 20.294     |   0.0 | 47.67
Comm    | 0.52298    | 0.52298    | 0.52298    |   0.0 |  1.23
Output  | 0.00018811 | 0.00018811 | 0.00018811 |   0.0 |  0.00
Modify  | 0.82538    | 0.82538    | 0.82538    |   0.0 |  1.94
Other   |            | 0.2076     |            |       |  0.49

Nlocal:    19652 ave 19652 max 19652 min
Histogram: 1 0 0 0 0 0 0 0 0 0
Nghost:    12808 ave 12808 max 12808 min
Histogram: 1 0 0 0 0 0 0 0 0 0
Neighs:    598658 ave 598658 max 598658 min
Histogram: 1 0 0 0 0 0 0 0 0 0

Total # of neighbors = 598658
Ave neighs/atom = 30.463
Neighbor list builds = 495
Dangerous builds not checked
Setting up Verlet run ...
  Unit style    : metal
  Current step  : 70495
  Time step     : 0.001
Per MPI rank memory allocation (min/avg/max) = 18.24 | 18.24 | 18.24 Mbytes
Step Temp Press TotEng PotEng Enthalpy 
   70495    2107.5879    57.268833   -75435.547   -80789.012   -75406.264 
   75000    2093.9297   -587.88539   -75462.174   -80780.946   -75763.284 
Loop time of 439.207 on 1 procs for 4505 steps with 19652 atoms

Performance: 0.886 ns/day, 27.081 hours/ns, 10.257 timesteps/s
96.7% CPU use with 1 MPI tasks x no OpenMP threads

MPI task timing breakdown:
Section |  min time  |  avg time  |  max time  |%varavg| %total
---------------------------------------------------------------
Pair    | 221.35     | 221.35     | 221.35     |   0.0 | 50.40
Neigh   | 202.44     | 202.44     | 202.44     |   0.0 | 46.09
Comm    | 5.3381     | 5.3381     | 5.3381     |   0.0 |  1.22
Output  | 0.085379   | 0.085379   | 0.085379   |   0.0 |  0.02
Modify  | 8.0187     | 8.0187     | 8.0187     |   0.0 |  1.83
Other   |            | 1.982      |            |       |  0.45

Nlocal:    19652 ave 19652 max 19652 min
Histogram: 1 0 0 0 0 0 0 0 0 0
Nghost:    12801 ave 12801 max 12801 min
Histogram: 1 0 0 0 0 0 0 0 0 0
Neighs:    597171 ave 597171 max 597171 min
Histogram: 1 0 0 0 0 0 0 0 0 0

Total # of neighbors = 597171
Ave neighs/atom = 30.3873
Neighbor list builds = 4505
Dangerous builds not checked
Setting up Verlet run ...
  Unit style    : metal
  Current step  : 75000
  Time step     : 0.001
Per MPI rank memory allocation (min/avg/max) = 18.24 | 18.24 | 18.24 Mbytes
Step Temp Press TotEng PotEng Enthalpy 
   75000    2093.9297   -587.88539   -75462.174   -80780.946   -75763.284 
   75495    2049.2912   -239.26628   -75684.144    -80889.53   -75806.358 
Loop time of 44.9615 on 1 procs for 495 steps with 19652 atoms

Performance: 0.951 ns/day, 25.231 hours/ns, 11.009 timesteps/s
99.4% CPU use with 1 MPI tasks x no OpenMP threads

MPI task timing breakdown:
Section |  min time  |  avg time  |  max time  |%varavg| %total
---------------------------------------------------------------
Pair    | 22.613     | 22.613     | 22.613     |   0.0 | 50.29
Neigh   | 20.718     | 20.718     | 20.718     |   0.0 | 46.08
Comm    | 0.57416    | 0.57416    | 0.57416    |   0.0 |  1.28
Output  | 0.00025916 | 0.00025916 | 0.00025916 |   0.0 |  0.00
Modify  | 0.84124    | 0.84124    | 0.84124    |   0.0 |  1.87
Other   |            | 0.2151     |            |       |  0.48

Nlocal:    19652 ave 19652 max 19652 min
Histogram: 1 0 0 0 0 0 0 0 0 0
Nghost:    12751 ave 12751 max 12751 min
Histogram: 1 0 0 0 0 0 0 0 0 0
Neighs:    599047 ave 599047 max 599047 min
Histogram: 1 0 0 0 0 0 0 0 0 0

Total # of neighbors = 599047
Ave neighs/atom = 30.4827
Neighbor list builds = 495
Dangerous builds not checked
Setting up Verlet run ...
  Unit style    : metal
  Current step  : 75495
  Time step     : 0.001
Per MPI rank memory allocation (min/avg/max) = 18.24 | 18.24 | 18.24 Mbytes
Step Temp Press TotEng PotEng Enthalpy 
   75495    2049.2912   -239.26628   -75684.144    -80889.53   -75806.358 
   80000    2055.8377    504.27193   -75738.738   -80960.753   -75482.194 
Loop time of 440.567 on 1 procs for 4505 steps with 19652 atoms

Performance: 0.883 ns/day, 27.165 hours/ns, 10.225 timesteps/s
96.2% CPU use with 1 MPI tasks x no OpenMP threads

MPI task timing breakdown:
Section |  min time  |  avg time  |  max time  |%varavg| %total
---------------------------------------------------------------
Pair    | 215.75     | 215.75     | 215.75     |   0.0 | 48.97
Neigh   | 201.25     | 201.25     | 201.25     |   0.0 | 45.68
Comm    | 5.3487     | 5.3487     | 5.3487     |   0.0 |  1.21
Output  | 8.3491     | 8.3491     | 8.3491     |   0.0 |  1.90
Modify  | 7.941      | 7.941      | 7.941      |   0.0 |  1.80
Other   |            | 1.927      |            |       |  0.44

Nlocal:    19652 ave 19652 max 19652 min
Histogram: 1 0 0 0 0 0 0 0 0 0
Nghost:    12840 ave 12840 max 12840 min
Histogram: 1 0 0 0 0 0 0 0 0 0
Neighs:    601468 ave 601468 max 601468 min
Histogram: 1 0 0 0 0 0 0 0 0 0

Total # of neighbors = 601468
Ave neighs/atom = 30.6059
Neighbor list builds = 4505
Dangerous builds not checked
Setting up Verlet run ...
  Unit style    : metal
  Current step  : 80000
  Time step     : 0.001
Per MPI rank memory allocation (min/avg/max) = 18.24 | 18.24 | 18.24 Mbytes
Step Temp Press TotEng PotEng Enthalpy 
   80000    2055.8377    504.27193   -75738.738   -80960.753   -75482.194 
   80495    2014.5276    458.60027   -75881.988   -80999.072   -75648.812 
Loop time of 40.5146 on 1 procs for 495 steps with 19652 atoms

Performance: 1.056 ns/day, 22.735 hours/ns, 12.218 timesteps/s
98.9% CPU use with 1 MPI tasks x no OpenMP threads

MPI task timing breakdown:
Section |  min time  |  avg time  |  max time  |%varavg| %total
---------------------------------------------------------------
Pair    | 19.078     | 19.078     | 19.078     |   0.0 | 47.09
Neigh   | 19.962     | 19.962     | 19.962     |   0.0 | 49.27
Comm    | 0.52315    | 0.52315    | 0.52315    |   0.0 |  1.29
Output  | 0.00015903 | 0.00015903 | 0.00015903 |   0.0 |  0.00
Modify  | 0.77437    | 0.77437    | 0.77437    |   0.0 |  1.91
Other   |            | 0.1768     |            |       |  0.44

Nlocal:    19652 ave 19652 max 19652 min
Histogram: 1 0 0 0 0 0 0 0 0 0
Nghost:    12790 ave 12790 max 12790 min
Histogram: 1 0 0 0 0 0 0 0 0 0
Neighs:    601750 ave 601750 max 601750 min
Histogram: 1 0 0 0 0 0 0 0 0 0

Total # of neighbors = 601750
Ave neighs/atom = 30.6203
Neighbor list builds = 495
Dangerous builds not checked
Setting up Verlet run ...
  Unit style    : metal
  Current step  : 80495
  Time step     : 0.001
Per MPI rank memory allocation (min/avg/max) = 18.24 | 18.24 | 18.24 Mbytes
Step Temp Press TotEng PotEng Enthalpy 
   80495    2014.5276    458.60027   -75881.988   -80999.072   -75648.812 
   85000    1996.9392    631.71261   -75979.331   -81051.739   -75658.752 
Loop time of 418.062 on 1 procs for 4505 steps with 19652 atoms

Performance: 0.931 ns/day, 25.778 hours/ns, 10.776 timesteps/s
98.0% CPU use with 1 MPI tasks x no OpenMP threads

MPI task timing breakdown:
Section |  min time  |  avg time  |  max time  |%varavg| %total
---------------------------------------------------------------
Pair    | 202.21     | 202.21     | 202.21     |   0.0 | 48.37
Neigh   | 201.29     | 201.29     | 201.29     |   0.0 | 48.15
Comm    | 5.0855     | 5.0855     | 5.0855     |   0.0 |  1.22
Output  | 0.086694   | 0.086694   | 0.086694   |   0.0 |  0.02
Modify  | 7.5456     | 7.5456     | 7.5456     |   0.0 |  1.80
Other   |            | 1.838      |            |       |  0.44

Nlocal:    19652 ave 19652 max 19652 min
Histogram: 1 0 0 0 0 0 0 0 0 0
Nghost:    12856 ave 12856 max 12856 min
Histogram: 1 0 0 0 0 0 0 0 0 0
Neighs:    602298 ave 602298 max 602298 min
Histogram: 1 0 0 0 0 0 0 0 0 0

Total # of neighbors = 602298
Ave neighs/atom = 30.6482
Neighbor list builds = 4505
Dangerous builds not checked
Setting up Verlet run ...
  Unit style    : metal
  Current step  : 85000
  Time step     : 0.001
Per MPI rank memory allocation (min/avg/max) = 18.24 | 18.24 | 18.24 Mbytes
Step Temp Press TotEng PotEng Enthalpy 
   85000    1996.9392    631.71261   -75979.331   -81051.739   -75658.752 
   85495    1943.4763    226.17772   -76213.587   -81150.194   -76098.917 
Loop time of 43.1262 on 1 procs for 495 steps with 19652 atoms

Performance: 0.992 ns/day, 24.201 hours/ns, 11.478 timesteps/s
99.9% CPU use with 1 MPI tasks x no OpenMP threads

MPI task timing breakdown:
Section |  min time  |  avg time  |  max time  |%varavg| %total
---------------------------------------------------------------
Pair    | 20.759     | 20.759     | 20.759     |   0.0 | 48.14
Neigh   | 20.819     | 20.819     | 20.819     |   0.0 | 48.27
Comm    | 0.53993    | 0.53993    | 0.53993    |   0.0 |  1.25
Output  | 0.00016308 | 0.00016308 | 0.00016308 |   0.0 |  0.00
Modify  | 0.81268    | 0.81268    | 0.81268    |   0.0 |  1.88
Other   |            | 0.1956     |            |       |  0.45

Nlocal:    19652 ave 19652 max 19652 min
Histogram: 1 0 0 0 0 0 0 0 0 0
Nghost:    12788 ave 12788 max 12788 min
Histogram: 1 0 0 0 0 0 0 0 0 0
Neighs:    603195 ave 603195 max 603195 min
Histogram: 1 0 0 0 0 0 0 0 0 0

Total # of neighbors = 603195
Ave neighs/atom = 30.6938
Neighbor list builds = 495
Dangerous builds not checked
Setting up Verlet run ...
  Unit style    : metal
  Current step  : 85495
  Time step     : 0.001
Per MPI rank memory allocation (min/avg/max) = 18.24 | 18.24 | 18.24 Mbytes
Step Temp Press TotEng PotEng Enthalpy 
   85495    1943.4763    226.17772   -76213.587   -81150.194   -76098.917 
   90000    1947.1571   -445.30059   -76200.236   -81146.192    -76426.78 
Loop time of 413.88 on 1 procs for 4505 steps with 19652 atoms

Performance: 0.940 ns/day, 25.520 hours/ns, 10.885 timesteps/s
98.6% CPU use with 1 MPI tasks x no OpenMP threads

MPI task timing breakdown:
Section |  min time  |  avg time  |  max time  |%varavg| %total
---------------------------------------------------------------
Pair    | 202.02     | 202.02     | 202.02     |   0.0 | 48.81
Neigh   | 197.35     | 197.35     | 197.35     |   0.0 | 47.68
Comm    | 5.1108     | 5.1108     | 5.1108     |   0.0 |  1.23
Output  | 0.22138    | 0.22138    | 0.22138    |   0.0 |  0.05
Modify  | 7.4743     | 7.4743     | 7.4743     |   0.0 |  1.81
Other   |            | 1.71       |            |       |  0.41

Nlocal:    19652 ave 19652 max 19652 min
Histogram: 1 0 0 0 0 0 0 0 0 0
Nghost:    12784 ave 12784 max 12784 min
Histogram: 1 0 0 0 0 0 0 0 0 0
Neighs:    601397 ave 601397 max 601397 min
Histogram: 1 0 0 0 0 0 0 0 0 0

Total # of neighbors = 601397
Ave neighs/atom = 30.6023
Neighbor list builds = 4505
Dangerous builds not checked
Setting up Verlet run ...
  Unit style    : metal
  Current step  : 90000
  Time step     : 0.001
Per MPI rank memory allocation (min/avg/max) = 18.24 | 18.24 | 18.24 Mbytes
Step Temp Press TotEng PotEng Enthalpy 
   90000    1947.1571   -445.30059   -76200.236   -81146.192    -76426.78 
   90495    1900.4355     183.2179   -76389.712   -81216.992   -76296.889 
Loop time of 43.6456 on 1 procs for 495 steps with 19652 atoms

Performance: 0.980 ns/day, 24.492 hours/ns, 11.341 timesteps/s
98.3% CPU use with 1 MPI tasks x no OpenMP threads

MPI task timing breakdown:
Section |  min time  |  avg time  |  max time  |%varavg| %total
---------------------------------------------------------------
Pair    | 21.159     | 21.159     | 21.159     |   0.0 | 48.48
Neigh   | 20.892     | 20.892     | 20.892     |   0.0 | 47.87
Comm    | 0.5524     | 0.5524     | 0.5524     |   0.0 |  1.27
Output  | 0.00016809 | 0.00016809 | 0.00016809 |   0.0 |  0.00
Modify  | 0.83818    | 0.83818    | 0.83818    |   0.0 |  1.92
Other   |            | 0.2042     |            |       |  0.47

Nlocal:    19652 ave 19652 max 19652 min
Histogram: 1 0 0 0 0 0 0 0 0 0
Nghost:    12854 ave 12854 max 12854 min
Histogram: 1 0 0 0 0 0 0 0 0 0
Neighs:    603741 ave 603741 max 603741 min
Histogram: 1 0 0 0 0 0 0 0 0 0

Total # of neighbors = 603741
Ave neighs/atom = 30.7216
Neighbor list builds = 495
Dangerous builds not checked
Setting up Verlet run ...
  Unit style    : metal
  Current step  : 90495
  Time step     : 0.001
Per MPI rank memory allocation (min/avg/max) = 18.24 | 18.24 | 18.24 Mbytes
Step Temp Press TotEng PotEng Enthalpy 
   90495    1900.4355     183.2179   -76389.712   -81216.992   -76296.889 
   95000    1909.9194    27.986302   -76441.454   -81292.823   -76427.282 
Loop time of 400.862 on 1 procs for 4505 steps with 19652 atoms

Performance: 0.971 ns/day, 24.717 hours/ns, 11.238 timesteps/s
99.1% CPU use with 1 MPI tasks x no OpenMP threads

MPI task timing breakdown:
Section |  min time  |  avg time  |  max time  |%varavg| %total
---------------------------------------------------------------
Pair    | 190.9      | 190.9      | 190.9      |   0.0 | 47.62
Neigh   | 195.88     | 195.88     | 195.88     |   0.0 | 48.87
Comm    | 4.8479     | 4.8479     | 4.8479     |   0.0 |  1.21
Output  | 0.082901   | 0.082901   | 0.082901   |   0.0 |  0.02
Modify  | 7.2914     | 7.2914     | 7.2914     |   0.0 |  1.82
Other   |            | 1.854      |            |       |  0.46

Nlocal:    19652 ave 19652 max 19652 min
Histogram: 1 0 0 0 0 0 0 0 0 0
Nghost:    12804 ave 12804 max 12804 min
Histogram: 1 0 0 0 0 0 0 0 0 0
Neighs:    603451 ave 603451 max 603451 min
Histogram: 1 0 0 0 0 0 0 0 0 0

Total # of neighbors = 603451
Ave neighs/atom = 30.7068
Neighbor list builds = 4505
Dangerous builds not checked
Setting up Verlet run ...
  Unit style    : metal
  Current step  : 95000
  Time step     : 0.001
Per MPI rank memory allocation (min/avg/max) = 18.24 | 18.24 | 18.24 Mbytes
Step Temp Press TotEng PotEng Enthalpy 
   95000    1909.9194    27.986302   -76441.454   -81292.823   -76427.282 
   95495    1843.2602   -229.74485   -76652.685   -81334.734   -76768.961 
Loop time of 44.2235 on 1 procs for 495 steps with 19652 atoms

Performance: 0.967 ns/day, 24.817 hours/ns, 11.193 timesteps/s
98.6% CPU use with 1 MPI tasks x no OpenMP threads

MPI task timing breakdown:
Section |  min time  |  avg time  |  max time  |%varavg| %total
---------------------------------------------------------------
Pair    | 21.174     | 21.174     | 21.174     |   0.0 | 47.88
Neigh   | 21.495     | 21.495     | 21.495     |   0.0 | 48.61
Comm    | 0.53654    | 0.53654    | 0.53654    |   0.0 |  1.21
Output  | 0.00019693 | 0.00019693 | 0.00019693 |   0.0 |  0.00
Modify  | 0.81197    | 0.81197    | 0.81197    |   0.0 |  1.84
Other   |            | 0.2061     |            |       |  0.47

Nlocal:    19652 ave 19652 max 19652 min
Histogram: 1 0 0 0 0 0 0 0 0 0
Nghost:    12753 ave 12753 max 12753 min
Histogram: 1 0 0 0 0 0 0 0 0 0
Neighs:    604024 ave 604024 max 604024 min
Histogram: 1 0 0 0 0 0 0 0 0 0

Total # of neighbors = 604024
Ave neighs/atom = 30.736
Neighbor list builds = 495
Dangerous builds not checked
Setting up Verlet run ...
  Unit style    : metal
  Current step  : 95495
  Time step     : 0.001
Per MPI rank memory allocation (min/avg/max) = 18.24 | 18.24 | 18.24 Mbytes
Step Temp Press TotEng PotEng Enthalpy 
   95495    1843.2602   -229.74485   -76652.685   -81334.734   -76768.961 
  100000    1852.8302    474.56211    -76668.33   -81374.687   -76428.809 
Loop time of 386.805 on 1 procs for 4505 steps with 19652 atoms

Performance: 1.006 ns/day, 23.850 hours/ns, 11.647 timesteps/s
99.1% CPU use with 1 MPI tasks x no OpenMP threads

MPI task timing breakdown:
Section |  min time  |  avg time  |  max time  |%varavg| %total
---------------------------------------------------------------
Pair    | 182.63     | 182.63     | 182.63     |   0.0 | 47.22
Neigh   | 190.4      | 190.4      | 190.4      |   0.0 | 49.22
Comm    | 4.8317     | 4.8317     | 4.8317     |   0.0 |  1.25
Output  | 0.079632   | 0.079632   | 0.079632   |   0.0 |  0.02
Modify  | 7.1922     | 7.1922     | 7.1922     |   0.0 |  1.86
Other   |            | 1.674      |            |       |  0.43

Nlocal:    19652 ave 19652 max 19652 min
Histogram: 1 0 0 0 0 0 0 0 0 0
Nghost:    12831 ave 12831 max 12831 min
Histogram: 1 0 0 0 0 0 0 0 0 0
Neighs:    606167 ave 606167 max 606167 min
Histogram: 1 0 0 0 0 0 0 0 0 0

Total # of neighbors = 606167
Ave neighs/atom = 30.8451
Neighbor list builds = 4505
Dangerous builds not checked
Setting up Verlet run ...
  Unit style    : metal
  Current step  : 100000
  Time step     : 0.001
Per MPI rank memory allocation (min/avg/max) = 18.24 | 18.24 | 18.24 Mbytes
Step Temp Press TotEng PotEng Enthalpy 
  100000    1852.8302    474.56211    -76668.33   -81374.687   -76428.809 
  100495    1811.8303    465.00079    -76897.78   -81499.994   -76663.636 
Loop time of 40.6188 on 1 procs for 495 steps with 19652 atoms

Performance: 1.053 ns/day, 22.794 hours/ns, 12.186 timesteps/s
99.8% CPU use with 1 MPI tasks x no OpenMP threads

MPI task timing breakdown:
Section |  min time  |  avg time  |  max time  |%varavg| %total
---------------------------------------------------------------
Pair    | 19.009     | 19.009     | 19.009     |   0.0 | 46.80
Neigh   | 20.185     | 20.185     | 20.185     |   0.0 | 49.69
Comm    | 0.5003     | 0.5003     | 0.5003     |   0.0 |  1.23
Output  | 0.00016403 | 0.00016403 | 0.00016403 |   0.0 |  0.00
Modify  | 0.74974    | 0.74974    | 0.74974    |   0.0 |  1.85
Other   |            | 0.174      |            |       |  0.43

Nlocal:    19652 ave 19652 max 19652 min
Histogram: 1 0 0 0 0 0 0 0 0 0
Nghost:    12857 ave 12857 max 12857 min
Histogram: 1 0 0 0 0 0 0 0 0 0
Neighs:    607563 ave 607563 max 607563 min
Histogram: 1 0 0 0 0 0 0 0 0 0

Total # of neighbors = 607563
Ave neighs/atom = 30.9161
Neighbor list builds = 495
Dangerous builds not checked
Setting up Verlet run ...
  Unit style    : metal
  Current step  : 100495
  Time step     : 0.001
Per MPI rank memory allocation (min/avg/max) = 18.24 | 18.24 | 18.24 Mbytes
Step Temp Press TotEng PotEng Enthalpy 
  100495    1811.8303    465.00079    -76897.78   -81499.994   -76663.636 
  105000      1808.58    332.08321   -76957.855   -81551.813   -76790.678 
Loop time of 398.86 on 1 procs for 4505 steps with 19652 atoms

Performance: 0.976 ns/day, 24.594 hours/ns, 11.295 timesteps/s
98.6% CPU use with 1 MPI tasks x no OpenMP threads

MPI task timing breakdown:
Section |  min time  |  avg time  |  max time  |%varavg| %total
---------------------------------------------------------------
Pair    | 191.53     | 191.53     | 191.53     |   0.0 | 48.02
Neigh   | 193.48     | 193.48     | 193.48     |   0.0 | 48.51
Comm    | 4.8106     | 4.8106     | 4.8106     |   0.0 |  1.21
Output  | 0.10058    | 0.10058    | 0.10058    |   0.0 |  0.03
Modify  | 7.1762     | 7.1762     | 7.1762     |   0.0 |  1.80
Other   |            | 1.756      |            |       |  0.44

Nlocal:    19652 ave 19652 max 19652 min
Histogram: 1 0 0 0 0 0 0 0 0 0
Nghost:    12844 ave 12844 max 12844 min
Histogram: 1 0 0 0 0 0 0 0 0 0
Neighs:    607538 ave 607538 max 607538 min
Histogram: 1 0 0 0 0 0 0 0 0 0

Total # of neighbors = 607538
Ave neighs/atom = 30.9148
Neighbor list builds = 4505
Dangerous builds not checked
Setting up Verlet run ...
  Unit style    : metal
  Current step  : 105000
  Time step     : 0.001
Per MPI rank memory allocation (min/avg/max) = 18.24 | 18.24 | 18.24 Mbytes
Step Temp Press TotEng PotEng Enthalpy 
  105000      1808.58    332.08321   -76957.855   -81551.813   -76790.678 
  105495    1771.7881    324.56396    -77095.51   -81596.013   -76932.288 
Loop time of 44.0078 on 1 procs for 495 steps with 19652 atoms

Performance: 0.972 ns/day, 24.696 hours/ns, 11.248 timesteps/s
99.0% CPU use with 1 MPI tasks x no OpenMP threads

MPI task timing breakdown:
Section |  min time  |  avg time  |  max time  |%varavg| %total
---------------------------------------------------------------
Pair    | 21.294     | 21.294     | 21.294     |   0.0 | 48.39
Neigh   | 21.124     | 21.124     | 21.124     |   0.0 | 48.00
Comm    | 0.53758    | 0.53758    | 0.53758    |   0.0 |  1.22
Output  | 0.00015593 | 0.00015593 | 0.00015593 |   0.0 |  0.00
Modify  | 0.84087    | 0.84087    | 0.84087    |   0.0 |  1.91
Other   |            | 0.2116     |            |       |  0.48

Nlocal:    19652 ave 19652 max 19652 min
Histogram: 1 0 0 0 0 0 0 0 0 0
Nghost:    12881 ave 12881 max 12881 min
Histogram: 1 0 0 0 0 0 0 0 0 0
Neighs:    608115 ave 608115 max 608115 min
Histogram: 1 0 0 0 0 0 0 0 0 0

Total # of neighbors = 608115
Ave neighs/atom = 30.9442
Neighbor list builds = 495
Dangerous builds not checked
Setting up Verlet run ...
  Unit style    : metal
  Current step  : 105495
  Time step     : 0.001
Per MPI rank memory allocation (min/avg/max) = 18.24 | 18.24 | 18.24 Mbytes
Step Temp Press TotEng PotEng Enthalpy 
  105495    1771.7881    324.56396    -77095.51   -81596.013   -76932.288 
  110000    1749.3992   -452.41728   -77192.707    -81636.34    -77420.69 
Loop time of 417.425 on 1 procs for 4505 steps with 19652 atoms

Performance: 0.932 ns/day, 25.738 hours/ns, 10.792 timesteps/s
99.3% CPU use with 1 MPI tasks x no OpenMP threads

MPI task timing breakdown:
Section |  min time  |  avg time  |  max time  |%varavg| %total
---------------------------------------------------------------
Pair    | 204.37     | 204.37     | 204.37     |   0.0 | 48.96
Neigh   | 198.48     | 198.48     | 198.48     |   0.0 | 47.55
Comm    | 5.0639     | 5.0639     | 5.0639     |   0.0 |  1.21
Output  | 0.081642   | 0.081642   | 0.081642   |   0.0 |  0.02
Modify  | 7.5337     | 7.5337     | 7.5337     |   0.0 |  1.80
Other   |            | 1.9        |            |       |  0.46

Nlocal:    19652 ave 19652 max 19652 min
Histogram: 1 0 0 0 0 0 0 0 0 0
Nghost:    12828 ave 12828 max 12828 min
Histogram: 1 0 0 0 0 0 0 0 0 0
Neighs:    606898 ave 606898 max 606898 min
Histogram: 1 0 0 0 0 0 0 0 0 0

Total # of neighbors = 606898
Ave neighs/atom = 30.8823
Neighbor list builds = 4505
Dangerous builds not checked
Setting up Verlet run ...
  Unit style    : metal
  Current step  : 110000
  Time step     : 0.001
Per MPI rank memory allocation (min/avg/max) = 18.24 | 18.24 | 18.24 Mbytes
Step Temp Press TotEng PotEng Enthalpy 
  110000    1749.3992   -452.41728   -77192.707    -81636.34    -77420.69 
  110495    1705.0767   -477.83159   -77375.357   -81706.407   -77615.613 
Loop time of 48.7719 on 1 procs for 495 steps with 19652 atoms

Performance: 0.877 ns/day, 27.369 hours/ns, 10.149 timesteps/s
90.8% CPU use with 1 MPI tasks x no OpenMP threads

MPI task timing breakdown:
Section |  min time  |  avg time  |  max time  |%varavg| %total
---------------------------------------------------------------
Pair    | 23.027     | 23.027     | 23.027     |   0.0 | 47.21
Neigh   | 23.031     | 23.031     | 23.031     |   0.0 | 47.22
Comm    | 0.5756     | 0.5756     | 0.5756     |   0.0 |  1.18
Output  | 1.0184     | 1.0184     | 1.0184     |   0.0 |  2.09
Modify  | 0.89673    | 0.89673    | 0.89673    |   0.0 |  1.84
Other   |            | 0.2237     |            |       |  0.46

Nlocal:    19652 ave 19652 max 19652 min
Histogram: 1 0 0 0 0 0 0 0 0 0
Nghost:    12810 ave 12810 max 12810 min
Histogram: 1 0 0 0 0 0 0 0 0 0
Neighs:    607935 ave 607935 max 607935 min
Histogram: 1 0 0 0 0 0 0 0 0 0

Total # of neighbors = 607935
Ave neighs/atom = 30.935
Neighbor list builds = 495
Dangerous builds not checked
Setting up Verlet run ...
  Unit style    : metal
  Current step  : 110495
  Time step     : 0.001
Per MPI rank memory allocation (min/avg/max) = 18.24 | 18.24 | 18.24 Mbytes
Step Temp Press TotEng PotEng Enthalpy 
  110495    1705.0767   -477.83159   -77375.357   -81706.407   -77615.613 
  115000    1697.4513    4.1637965   -77437.124   -81748.805   -77435.035 
Loop time of 416.779 on 1 procs for 4505 steps with 19652 atoms

Performance: 0.934 ns/day, 25.699 hours/ns, 10.809 timesteps/s
99.5% CPU use with 1 MPI tasks x no OpenMP threads

MPI task timing breakdown:
Section |  min time  |  avg time  |  max time  |%varavg| %total
---------------------------------------------------------------
Pair    | 200.83     | 200.83     | 200.83     |   0.0 | 48.19
Neigh   | 201.55     | 201.55     | 201.55     |   0.0 | 48.36
Comm    | 4.9464     | 4.9464     | 4.9464     |   0.0 |  1.19
Output  | 0.080326   | 0.080326   | 0.080326   |   0.0 |  0.02
Modify  | 7.4958     | 7.4958     | 7.4958     |   0.0 |  1.80
Other   |            | 1.882      |            |       |  0.45

Nlocal:    19652 ave 19652 max 19652 min
Histogram: 1 0 0 0 0 0 0 0 0 0
Nghost:    12896 ave 12896 max 12896 min
Histogram: 1 0 0 0 0 0 0 0 0 0
Neighs:    609401 ave 609401 max 609401 min
Histogram: 1 0 0 0 0 0 0 0 0 0

Total # of neighbors = 609401
Ave neighs/atom = 31.0096
Neighbor list builds = 4505
Dangerous builds not checked
Setting up Verlet run ...
  Unit style    : metal
  Current step  : 115000
  Time step     : 0.001
Per MPI rank memory allocation (min/avg/max) = 18.24 | 18.24 | 18.24 Mbytes
Step Temp Press TotEng PotEng Enthalpy 
  115000    1697.4513    4.1637965   -77437.124   -81748.805   -77435.035 
  115495    1661.0405   -35.671573   -77627.196    -81846.39   -77645.065 
Loop time of 43.6425 on 1 procs for 495 steps with 19652 atoms

Performance: 0.980 ns/day, 24.491 hours/ns, 11.342 timesteps/s
98.5% CPU use with 1 MPI tasks x no OpenMP threads

MPI task timing breakdown:
Section |  min time  |  avg time  |  max time  |%varavg| %total
---------------------------------------------------------------
Pair    | 20.641     | 20.641     | 20.641     |   0.0 | 47.30
Neigh   | 21.484     | 21.484     | 21.484     |   0.0 | 49.23
Comm    | 0.53876    | 0.53876    | 0.53876    |   0.0 |  1.23
Output  | 0.00013304 | 0.00013304 | 0.00013304 |   0.0 |  0.00
Modify  | 0.79143    | 0.79143    | 0.79143    |   0.0 |  1.81
Other   |            | 0.1869     |            |       |  0.43

Nlocal:    19652 ave 19652 max 19652 min
Histogram: 1 0 0 0 0 0 0 0 0 0
Nghost:    12872 ave 12872 max 12872 min
Histogram: 1 0 0 0 0 0 0 0 0 0
Neighs:    610533 ave 610533 max 610533 min
Histogram: 1 0 0 0 0 0 0 0 0 0

Total # of neighbors = 610533
Ave neighs/atom = 31.0672
Neighbor list builds = 495
Dangerous builds not checked
Setting up Verlet run ...
  Unit style    : metal
  Current step  : 115495
  Time step     : 0.001
Per MPI rank memory allocation (min/avg/max) = 18.24 | 18.24 | 18.24 Mbytes
Step Temp Press TotEng PotEng Enthalpy 
  115495    1661.0405   -35.671573   -77627.196    -81846.39   -77645.065 
  120000     1666.547    450.73747   -77685.348    -81918.53   -77460.203 
Loop time of 367.069 on 1 procs for 4505 steps with 19652 atoms

Performance: 1.060 ns/day, 22.633 hours/ns, 12.273 timesteps/s
99.3% CPU use with 1 MPI tasks x no OpenMP threads

MPI task timing breakdown:
Section |  min time  |  avg time  |  max time  |%varavg| %total
---------------------------------------------------------------
Pair    | 173.32     | 173.32     | 173.32     |   0.0 | 47.22
Neigh   | 181.13     | 181.13     | 181.13     |   0.0 | 49.34
Comm    | 4.4839     | 4.4839     | 4.4839     |   0.0 |  1.22
Output  | 0.083496   | 0.083496   | 0.083496   |   0.0 |  0.02
Modify  | 6.5276     | 6.5276     | 6.5276     |   0.0 |  1.78
Other   |            | 1.526      |            |       |  0.42

Nlocal:    19652 ave 19652 max 19652 min
Histogram: 1 0 0 0 0 0 0 0 0 0
Nghost:    12956 ave 12956 max 12956 min
Histogram: 1 0 0 0 0 0 0 0 0 0
Neighs:    612181 ave 612181 max 612181 min
Histogram: 1 0 0 0 0 0 0 0 0 0

Total # of neighbors = 612181
Ave neighs/atom = 31.1511
Neighbor list builds = 4505
Dangerous builds not checked
Setting up Verlet run ...
  Unit style    : metal
  Current step  : 120000
  Time step     : 0.001
Per MPI rank memory allocation (min/avg/max) = 18.24 | 18.24 | 18.24 Mbytes
Step Temp Press TotEng PotEng Enthalpy 
  120000     1666.547    450.73747   -77685.348    -81918.53   -77460.203 
  120495    1621.3048    467.48014   -77858.518    -81976.78   -77625.312 
Loop time of 44.2772 on 1 procs for 495 steps with 19652 atoms

Performance: 0.966 ns/day, 24.847 hours/ns, 11.180 timesteps/s
99.2% CPU use with 1 MPI tasks x no OpenMP threads

MPI task timing breakdown:
Section |  min time  |  avg time  |  max time  |%varavg| %total
---------------------------------------------------------------
Pair    | 21.058     | 21.058     | 21.058     |   0.0 | 47.56
Neigh   | 21.727     | 21.727     | 21.727     |   0.0 | 49.07
Comm    | 0.53605    | 0.53605    | 0.53605    |   0.0 |  1.21
Output  | 0.00016904 | 0.00016904 | 0.00016904 |   0.0 |  0.00
Modify  | 0.76812    | 0.76812    | 0.76812    |   0.0 |  1.73
Other   |            | 0.1886     |            |       |  0.43

Nlocal:    19652 ave 19652 max 19652 min
Histogram: 1 0 0 0 0 0 0 0 0 0
Nghost:    12924 ave 12924 max 12924 min
Histogram: 1 0 0 0 0 0 0 0 0 0
Neighs:    612807 ave 612807 max 612807 min
Histogram: 1 0 0 0 0 0 0 0 0 0

Total # of neighbors = 612807
Ave neighs/atom = 31.1829
Neighbor list builds = 495
Dangerous builds not checked
Setting up Verlet run ...
  Unit style    : metal
  Current step  : 120495
  Time step     : 0.001
Per MPI rank memory allocation (min/avg/max) = 18.24 | 18.24 | 18.24 Mbytes
Step Temp Press TotEng PotEng Enthalpy 
  120495    1621.3048    467.48014   -77858.518    -81976.78   -77625.312 
  125000     1594.579   -502.51308   -77905.734    -81956.11   -78157.195 
Loop time of 420.653 on 1 procs for 4505 steps with 19652 atoms

Performance: 0.925 ns/day, 25.937 hours/ns, 10.710 timesteps/s
99.9% CPU use with 1 MPI tasks x no OpenMP threads

MPI task timing breakdown:
Section |  min time  |  avg time  |  max time  |%varavg| %total
---------------------------------------------------------------
Pair    | 207        | 207        | 207        |   0.0 | 49.21
Neigh   | 199        | 199        | 199        |   0.0 | 47.31
Comm    | 5.1574     | 5.1574     | 5.1574     |   0.0 |  1.23
Output  | 0.082571   | 0.082571   | 0.082571   |   0.0 |  0.02
Modify  | 7.5167     | 7.5167     | 7.5167     |   0.0 |  1.79
Other   |            | 1.895      |            |       |  0.45

Nlocal:    19652 ave 19652 max 19652 min
Histogram: 1 0 0 0 0 0 0 0 0 0
Nghost:    12914 ave 12914 max 12914 min
Histogram: 1 0 0 0 0 0 0 0 0 0
Neighs:    611134 ave 611134 max 611134 min
Histogram: 1 0 0 0 0 0 0 0 0 0

Total # of neighbors = 611134
Ave neighs/atom = 31.0978
Neighbor list builds = 4505
Dangerous builds not checked
Setting up Verlet run ...
  Unit style    : metal
  Current step  : 125000
  Time step     : 0.001
Per MPI rank memory allocation (min/avg/max) = 18.24 | 18.24 | 18.24 Mbytes
Step Temp Press TotEng PotEng Enthalpy 
  125000     1594.579   -502.51308   -77905.734    -81956.11   -78157.195 
  125495    1555.4075    38.103664    -78094.07   -82044.947   -78075.056 
Loop time of 41.691 on 1 procs for 495 steps with 19652 atoms

Performance: 1.026 ns/day, 23.396 hours/ns, 11.873 timesteps/s
100.0% CPU use with 1 MPI tasks x no OpenMP threads

MPI task timing breakdown:
Section |  min time  |  avg time  |  max time  |%varavg| %total
---------------------------------------------------------------
Pair    | 19.883     | 19.883     | 19.883     |   0.0 | 47.69
Neigh   | 20.319     | 20.319     | 20.319     |   0.0 | 48.74
Comm    | 0.50876    | 0.50876    | 0.50876    |   0.0 |  1.22
Output  | 0.00016809 | 0.00016809 | 0.00016809 |   0.0 |  0.00
Modify  | 0.77255    | 0.77255    | 0.77255    |   0.0 |  1.85
Other   |            | 0.2074     |            |       |  0.50

Nlocal:    19652 ave 19652 max 19652 min
Histogram: 1 0 0 0 0 0 0 0 0 0
Nghost:    12883 ave 12883 max 12883 min
Histogram: 1 0 0 0 0 0 0 0 0 0
Neighs:    612817 ave 612817 max 612817 min
Histogram: 1 0 0 0 0 0 0 0 0 0

Total # of neighbors = 612817
Ave neighs/atom = 31.1834
Neighbor list builds = 495
Dangerous builds not checked
Setting up Verlet run ...
  Unit style    : metal
  Current step  : 125495
  Time step     : 0.001
Per MPI rank memory allocation (min/avg/max) = 18.24 | 18.24 | 18.24 Mbytes
Step Temp Press TotEng PotEng Enthalpy 
  125495    1555.4075    38.103664    -78094.07   -82044.947   -78075.056 
  130000     1541.171   -221.89733   -78165.522   -82080.237   -78276.223 
Loop time of 385.062 on 1 procs for 4505 steps with 19652 atoms

Performance: 1.011 ns/day, 23.743 hours/ns, 11.699 timesteps/s
99.7% CPU use with 1 MPI tasks x no OpenMP threads

MPI task timing breakdown:
Section |  min time  |  avg time  |  max time  |%varavg| %total
---------------------------------------------------------------
Pair    | 183.76     | 183.76     | 183.76     |   0.0 | 47.72
Neigh   | 187.84     | 187.84     | 187.84     |   0.0 | 48.78
Comm    | 4.6288     | 4.6288     | 4.6288     |   0.0 |  1.20
Output  | 0.085466   | 0.085466   | 0.085466   |   0.0 |  0.02
Modify  | 6.9552     | 6.9552     | 6.9552     |   0.0 |  1.81
Other   |            | 1.795      |            |       |  0.47

Nlocal:    19652 ave 19652 max 19652 min
Histogram: 1 0 0 0 0 0 0 0 0 0
Nghost:    12885 ave 12885 max 12885 min
Histogram: 1 0 0 0 0 0 0 0 0 0
Neighs:    612992 ave 612992 max 612992 min
Histogram: 1 0 0 0 0 0 0 0 0 0

Total # of neighbors = 612992
Ave neighs/atom = 31.1923
Neighbor list builds = 4505
Dangerous builds not checked
Setting up Verlet run ...
  Unit style    : metal
  Current step  : 130000
  Time step     : 0.001
Per MPI rank memory allocation (min/avg/max) = 18.24 | 18.24 | 18.24 Mbytes
Step Temp Press TotEng PotEng Enthalpy 
  130000     1541.171   -221.89733   -78165.522   -82080.237   -78276.223 
  130495    1511.0637   -147.53429   -78336.692   -82174.932   -78410.158 
Loop time of 38.4932 on 1 procs for 495 steps with 19652 atoms

Performance: 1.111 ns/day, 21.601 hours/ns, 12.859 timesteps/s
100.0% CPU use with 1 MPI tasks x no OpenMP threads

MPI task timing breakdown:
Section |  min time  |  avg time  |  max time  |%varavg| %total
---------------------------------------------------------------
Pair    | 18.036     | 18.036     | 18.036     |   0.0 | 46.86
Neigh   | 19.081     | 19.081     | 19.081     |   0.0 | 49.57
Comm    | 0.47616    | 0.47616    | 0.47616    |   0.0 |  1.24
Output  | 0.0001452  | 0.0001452  | 0.0001452  |   0.0 |  0.00
Modify  | 0.71811    | 0.71811    | 0.71811    |   0.0 |  1.87
Other   |            | 0.1814     |            |       |  0.47

Nlocal:    19652 ave 19652 max 19652 min
Histogram: 1 0 0 0 0 0 0 0 0 0
Nghost:    12910 ave 12910 max 12910 min
Histogram: 1 0 0 0 0 0 0 0 0 0
Neighs:    614131 ave 614131 max 614131 min
Histogram: 1 0 0 0 0 0 0 0 0 0

Total # of neighbors = 614131
Ave neighs/atom = 31.2503
Neighbor list builds = 495
Dangerous builds not checked
Setting up Verlet run ...
  Unit style    : metal
  Current step  : 130495
  Time step     : 0.001
Per MPI rank memory allocation (min/avg/max) = 18.24 | 18.24 | 18.24 Mbytes
Step Temp Press TotEng PotEng Enthalpy 
  130495    1511.0637   -147.53429   -78336.692   -82174.932   -78410.158 
  135000    1505.4989    383.17766   -78410.428   -82234.532   -78220.113 
Loop time of 407.81 on 1 procs for 4505 steps with 19652 atoms

Performance: 0.954 ns/day, 25.146 hours/ns, 11.047 timesteps/s
99.8% CPU use with 1 MPI tasks x no OpenMP threads

MPI task timing breakdown:
Section |  min time  |  avg time  |  max time  |%varavg| %total
---------------------------------------------------------------
Pair    | 195.89     | 195.89     | 195.89     |   0.0 | 48.03
Neigh   | 197.5      | 197.5      | 197.5      |   0.0 | 48.43
Comm    | 5.1171     | 5.1171     | 5.1171     |   0.0 |  1.25
Output  | 0.061969   | 0.061969   | 0.061969   |   0.0 |  0.02
Modify  | 7.5291     | 7.5291     | 7.5291     |   0.0 |  1.85
Other   |            | 1.711      |            |       |  0.42

Nlocal:    19652 ave 19652 max 19652 min
Histogram: 1 0 0 0 0 0 0 0 0 0
Nghost:    12944 ave 12944 max 12944 min
Histogram: 1 0 0 0 0 0 0 0 0 0
Neighs:    615176 ave 615176 max 615176 min
Histogram: 1 0 0 0 0 0 0 0 0 0

Total # of neighbors = 615176
Ave neighs/atom = 31.3035
Neighbor list builds = 4505
Dangerous builds not checked
Setting up Verlet run ...
  Unit style    : metal
  Current step  : 135000
  Time step     : 0.001
Per MPI rank memory allocation (min/avg/max) = 18.24 | 18.24 | 18.24 Mbytes
Step Temp Press TotEng PotEng Enthalpy 
  135000    1505.4989    383.17766   -78410.428   -82234.532   -78220.113 
  135495    1462.0254    475.95058   -78611.985   -82325.663   -78376.167 
Loop time of 45.5714 on 1 procs for 495 steps with 19652 atoms

Performance: 0.938 ns/day, 25.573 hours/ns, 10.862 timesteps/s
99.3% CPU use with 1 MPI tasks x no OpenMP threads

MPI task timing breakdown:
Section |  min time  |  avg time  |  max time  |%varavg| %total
---------------------------------------------------------------
Pair    | 21.744     | 21.744     | 21.744     |   0.0 | 47.71
Neigh   | 22.245     | 22.245     | 22.245     |   0.0 | 48.81
Comm    | 0.56322    | 0.56322    | 0.56322    |   0.0 |  1.24
Output  | 0.00013494 | 0.00013494 | 0.00013494 |   0.0 |  0.00
Modify  | 0.83325    | 0.83325    | 0.83325    |   0.0 |  1.83
Other   |            | 0.1861     |            |       |  0.41

Nlocal:    19652 ave 19652 max 19652 min
Histogram: 1 0 0 0 0 0 0 0 0 0
Nghost:    13021 ave 13021 max 13021 min
Histogram: 1 0 0 0 0 0 0 0 0 0
Neighs:    616246 ave 616246 max 616246 min
Histogram: 1 0 0 0 0 0 0 0 0 0

Total # of neighbors = 616246
Ave neighs/atom = 31.3579
Neighbor list builds = 495
Dangerous builds not checked
Setting up Verlet run ...
  Unit style    : metal
  Current step  : 135495
  Time step     : 0.001
Per MPI rank memory allocation (min/avg/max) = 18.24 | 18.24 | 18.24 Mbytes
Step Temp Press TotEng PotEng Enthalpy 
  135495    1462.0254    475.95058   -78611.985   -82325.663   -78376.167 
  140000    1453.4016    214.79706   -78625.698    -82317.47   -78519.176 
Loop time of 407.435 on 1 procs for 4505 steps with 19652 atoms

Performance: 0.955 ns/day, 25.122 hours/ns, 11.057 timesteps/s
98.7% CPU use with 1 MPI tasks x no OpenMP threads

MPI task timing breakdown:
Section |  min time  |  avg time  |  max time  |%varavg| %total
---------------------------------------------------------------
Pair    | 195.32     | 195.32     | 195.32     |   0.0 | 47.94
Neigh   | 197.71     | 197.71     | 197.71     |   0.0 | 48.52
Comm    | 5.0095     | 5.0095     | 5.0095     |   0.0 |  1.23
Output  | 0.11122    | 0.11122    | 0.11122    |   0.0 |  0.03
Modify  | 7.4466     | 7.4466     | 7.4466     |   0.0 |  1.83
Other   |            | 1.838      |            |       |  0.45

Nlocal:    19652 ave 19652 max 19652 min
Histogram: 1 0 0 0 0 0 0 0 0 0
Nghost:    12945 ave 12945 max 12945 min
Histogram: 1 0 0 0 0 0 0 0 0 0
Neighs:    616247 ave 616247 max 616247 min
Histogram: 1 0 0 0 0 0 0 0 0 0

Total # of neighbors = 616247
Ave neighs/atom = 31.358
Neighbor list builds = 4505
Dangerous builds not checked
Setting up Verlet run ...
  Unit style    : metal
  Current step  : 140000
  Time step     : 0.001
Per MPI rank memory allocation (min/avg/max) = 18.24 | 18.24 | 18.24 Mbytes
Step Temp Press TotEng PotEng Enthalpy 
  140000    1453.4016    214.79706   -78625.698    -82317.47   -78519.176 
  140495    1419.8756     90.86519   -78861.784   -82468.397     -78816.8 
Loop time of 41.814 on 1 procs for 495 steps with 19652 atoms

Performance: 1.023 ns/day, 23.465 hours/ns, 11.838 timesteps/s
98.4% CPU use with 1 MPI tasks x no OpenMP threads

MPI task timing breakdown:
Section |  min time  |  avg time  |  max time  |%varavg| %total
---------------------------------------------------------------
Pair    | 19.875     | 19.875     | 19.875     |   0.0 | 47.53
Neigh   | 20.445     | 20.445     | 20.445     |   0.0 | 48.89
Comm    | 0.50643    | 0.50643    | 0.50643    |   0.0 |  1.21
Output  | 0.00016594 | 0.00016594 | 0.00016594 |   0.0 |  0.00
Modify  | 0.77819    | 0.77819    | 0.77819    |   0.0 |  1.86
Other   |            | 0.2098     |            |       |  0.50

Nlocal:    19652 ave 19652 max 19652 min
Histogram: 1 0 0 0 0 0 0 0 0 0
Nghost:    12892 ave 12892 max 12892 min
Histogram: 1 0 0 0 0 0 0 0 0 0
Neighs:    617136 ave 617136 max 617136 min
Histogram: 1 0 0 0 0 0 0 0 0 0

Total # of neighbors = 617136
Ave neighs/atom = 31.4032
Neighbor list builds = 495
Dangerous builds not checked
Setting up Verlet run ...
  Unit style    : metal
  Current step  : 140495
  Time step     : 0.001
Per MPI rank memory allocation (min/avg/max) = 18.24 | 18.24 | 18.24 Mbytes
Step Temp Press TotEng PotEng Enthalpy 
  140495    1419.8756     90.86519   -78861.784   -82468.397     -78816.8 
  145000    1413.7053    263.25132   -78923.855   -82514.796   -78793.761 
Loop time of 404.96 on 1 procs for 4505 steps with 19652 atoms

Performance: 0.961 ns/day, 24.970 hours/ns, 11.125 timesteps/s
98.5% CPU use with 1 MPI tasks x no OpenMP threads

MPI task timing breakdown:
Section |  min time  |  avg time  |  max time  |%varavg| %total
---------------------------------------------------------------
Pair    | 195.1      | 195.1      | 195.1      |   0.0 | 48.18
Neigh   | 195.28     | 195.28     | 195.28     |   0.0 | 48.22
Comm    | 5.0087     | 5.0087     | 5.0087     |   0.0 |  1.24
Output  | 0.082008   | 0.082008   | 0.082008   |   0.0 |  0.02
Modify  | 7.5724     | 7.5724     | 7.5724     |   0.0 |  1.87
Other   |            | 1.908      |            |       |  0.47

Nlocal:    19652 ave 19652 max 19652 min
Histogram: 1 0 0 0 0 0 0 0 0 0
Nghost:    12929 ave 12929 max 12929 min
Histogram: 1 0 0 0 0 0 0 0 0 0
Neighs:    618282 ave 618282 max 618282 min
Histogram: 1 0 0 0 0 0 0 0 0 0

Total # of neighbors = 618282
Ave neighs/atom = 31.4615
Neighbor list builds = 4505
Dangerous builds not checked
Setting up Verlet run ...
  Unit style    : metal
  Current step  : 145000
  Time step     : 0.001
Per MPI rank memory allocation (min/avg/max) = 18.24 | 18.24 | 18.24 Mbytes
Step Temp Press TotEng PotEng Enthalpy 
  145000    1413.7053    263.25132   -78923.855   -82514.796   -78793.761 
  145495    1356.7917    259.75854   -79094.118   -82540.492   -78965.813 
Loop time of 42.7526 on 1 procs for 495 steps with 19652 atoms

Performance: 1.000 ns/day, 23.991 hours/ns, 11.578 timesteps/s
99.8% CPU use with 1 MPI tasks x no OpenMP threads

MPI task timing breakdown:
Section |  min time  |  avg time  |  max time  |%varavg| %total
---------------------------------------------------------------
Pair    | 20.073     | 20.073     | 20.073     |   0.0 | 46.95
Neigh   | 21.157     | 21.157     | 21.157     |   0.0 | 49.49
Comm    | 0.51414    | 0.51414    | 0.51414    |   0.0 |  1.20
Output  | 0.00017715 | 0.00017715 | 0.00017715 |   0.0 |  0.00
Modify  | 0.80104    | 0.80104    | 0.80104    |   0.0 |  1.87
Other   |            | 0.2066     |            |       |  0.48

Nlocal:    19652 ave 19652 max 19652 min
Histogram: 1 0 0 0 0 0 0 0 0 0
Nghost:    12978 ave 12978 max 12978 min
Histogram: 1 0 0 0 0 0 0 0 0 0
Neighs:    618842 ave 618842 max 618842 min
Histogram: 1 0 0 0 0 0 0 0 0 0

Total # of neighbors = 618842
Ave neighs/atom = 31.49
Neighbor list builds = 495
Dangerous builds not checked
Setting up Verlet run ...
  Unit style    : metal
  Current step  : 145495
  Time step     : 0.001
Per MPI rank memory allocation (min/avg/max) = 18.24 | 18.24 | 18.24 Mbytes
Step Temp Press TotEng PotEng Enthalpy 
  145495    1356.7917    259.75854   -79094.118   -82540.492   -78965.813 
  150000    1347.2151    133.74352   -79200.894   -82622.943   -79134.895 
Loop time of 407.539 on 1 procs for 4505 steps with 19652 atoms

Performance: 0.955 ns/day, 25.129 hours/ns, 11.054 timesteps/s
99.4% CPU use with 1 MPI tasks x no OpenMP threads

MPI task timing breakdown:
Section |  min time  |  avg time  |  max time  |%varavg| %total
---------------------------------------------------------------
Pair    | 198.74     | 198.74     | 198.74     |   0.0 | 48.77
Neigh   | 193.93     | 193.93     | 193.93     |   0.0 | 47.58
Comm    | 5.0616     | 5.0616     | 5.0616     |   0.0 |  1.24
Output  | 0.31356    | 0.31356    | 0.31356    |   0.0 |  0.08
Modify  | 7.5925     | 7.5925     | 7.5925     |   0.0 |  1.86
Other   |            | 1.904      |            |       |  0.47

Nlocal:    19652 ave 19652 max 19652 min
Histogram: 1 0 0 0 0 0 0 0 0 0
Nghost:    12982 ave 12982 max 12982 min
Histogram: 1 0 0 0 0 0 0 0 0 0
Neighs:    618900 ave 618900 max 618900 min
Histogram: 1 0 0 0 0 0 0 0 0 0

Total # of neighbors = 618900
Ave neighs/atom = 31.493
Neighbor list builds = 4505
Dangerous builds not checked
Setting up Verlet run ...
  Unit style    : metal
  Current step  : 150000
  Time step     : 0.001
Per MPI rank memory allocation (min/avg/max) = 18.24 | 18.24 | 18.24 Mbytes
Step Temp Press TotEng PotEng Enthalpy 
  150000    1347.2151    133.74352   -79200.894   -82622.943   -79134.895 
  150495    1308.3012    123.06178   -79366.409   -82689.613   -79305.773 
Loop time of 42.593 on 1 procs for 495 steps with 19652 atoms

Performance: 1.004 ns/day, 23.902 hours/ns, 11.622 timesteps/s
98.1% CPU use with 1 MPI tasks x no OpenMP threads

MPI task timing breakdown:
Section |  min time  |  avg time  |  max time  |%varavg| %total
---------------------------------------------------------------
Pair    | 20.291     | 20.291     | 20.291     |   0.0 | 47.64
Neigh   | 20.746     | 20.746     | 20.746     |   0.0 | 48.71
Comm    | 0.53238    | 0.53238    | 0.53238    |   0.0 |  1.25
Output  | 0.00019503 | 0.00019503 | 0.00019503 |   0.0 |  0.00
Modify  | 0.81474    | 0.81474    | 0.81474    |   0.0 |  1.91
Other   |            | 0.2091     |            |       |  0.49

Nlocal:    19652 ave 19652 max 19652 min
Histogram: 1 0 0 0 0 0 0 0 0 0
Nghost:    12933 ave 12933 max 12933 min
Histogram: 1 0 0 0 0 0 0 0 0 0
Neighs:    619812 ave 619812 max 619812 min
Histogram: 1 0 0 0 0 0 0 0 0 0

Total # of neighbors = 619812
Ave neighs/atom = 31.5394
Neighbor list builds = 495
Dangerous builds not checked
Setting up Verlet run ...
  Unit style    : metal
  Current step  : 150495
  Time step     : 0.001
Per MPI rank memory allocation (min/avg/max) = 18.24 | 18.24 | 18.24 Mbytes
Step Temp Press TotEng PotEng Enthalpy 
  150495    1308.3012    123.06178   -79366.409   -82689.613   -79305.773 
  155000    1308.2459    670.78347   -79431.121   -82754.185   -79101.477 
Loop time of 414.339 on 1 procs for 4505 steps with 19652 atoms

Performance: 0.939 ns/day, 25.548 hours/ns, 10.873 timesteps/s
98.9% CPU use with 1 MPI tasks x no OpenMP threads

MPI task timing breakdown:
Section |  min time  |  avg time  |  max time  |%varavg| %total
---------------------------------------------------------------
Pair    | 201.8      | 201.8      | 201.8      |   0.0 | 48.70
Neigh   | 197.82     | 197.82     | 197.82     |   0.0 | 47.74
Comm    | 5.0726     | 5.0726     | 5.0726     |   0.0 |  1.22
Output  | 0.084151   | 0.084151   | 0.084151   |   0.0 |  0.02
Modify  | 7.6613     | 7.6613     | 7.6613     |   0.0 |  1.85
Other   |            | 1.901      |            |       |  0.46

Nlocal:    19652 ave 19652 max 19652 min
Histogram: 1 0 0 0 0 0 0 0 0 0
Nghost:    12969 ave 12969 max 12969 min
Histogram: 1 0 0 0 0 0 0 0 0 0
Neighs:    621745 ave 621745 max 621745 min
Histogram: 1 0 0 0 0 0 0 0 0 0

Total # of neighbors = 621745
Ave neighs/atom = 31.6377
Neighbor list builds = 4505
Dangerous builds not checked
Setting up Verlet run ...
  Unit style    : metal
  Current step  : 155000
  Time step     : 0.001
Per MPI rank memory allocation (min/avg/max) = 18.24 | 18.24 | 18.24 Mbytes
Step Temp Press TotEng PotEng Enthalpy 
  155000    1308.2459    670.78347   -79431.121   -82754.185   -79101.477 
  155495    1266.7428    371.37319   -79628.999   -82846.641   -79446.611 
Loop time of 46.2075 on 1 procs for 495 steps with 19652 atoms

Performance: 0.926 ns/day, 25.930 hours/ns, 10.713 timesteps/s
98.8% CPU use with 1 MPI tasks x no OpenMP threads

MPI task timing breakdown:
Section |  min time  |  avg time  |  max time  |%varavg| %total
---------------------------------------------------------------
Pair    | 22.457     | 22.457     | 22.457     |   0.0 | 48.60
Neigh   | 22.108     | 22.108     | 22.108     |   0.0 | 47.84
Comm    | 0.56382    | 0.56382    | 0.56382    |   0.0 |  1.22
Output  | 0.00021601 | 0.00021601 | 0.00021601 |   0.0 |  0.00
Modify  | 0.87029    | 0.87029    | 0.87029    |   0.0 |  1.88
Other   |            | 0.2085     |            |       |  0.45

Nlocal:    19652 ave 19652 max 19652 min
Histogram: 1 0 0 0 0 0 0 0 0 0
Nghost:    12969 ave 12969 max 12969 min
Histogram: 1 0 0 0 0 0 0 0 0 0
Neighs:    622057 ave 622057 max 622057 min
Histogram: 1 0 0 0 0 0 0 0 0 0

Total # of neighbors = 622057
Ave neighs/atom = 31.6536
Neighbor list builds = 495
Dangerous builds not checked
Setting up Verlet run ...
  Unit style    : metal
  Current step  : 155495
  Time step     : 0.001
Per MPI rank memory allocation (min/avg/max) = 18.24 | 18.24 | 18.24 Mbytes
Step Temp Press TotEng PotEng Enthalpy 
  155495    1266.7428    371.37319   -79628.999   -82846.641   -79446.611 
  160000     1250.378    601.22234   -79703.695   -82879.769   -79408.735 
Loop time of 408.602 on 1 procs for 4505 steps with 19652 atoms

Performance: 0.953 ns/day, 25.194 hours/ns, 11.025 timesteps/s
99.6% CPU use with 1 MPI tasks x no OpenMP threads

MPI task timing breakdown:
Section |  min time  |  avg time  |  max time  |%varavg| %total
---------------------------------------------------------------
Pair    | 199.67     | 199.67     | 199.67     |   0.0 | 48.87
Neigh   | 194.31     | 194.31     | 194.31     |   0.0 | 47.55
Comm    | 5.0698     | 5.0698     | 5.0698     |   0.0 |  1.24
Output  | 0.085541   | 0.085541   | 0.085541   |   0.0 |  0.02
Modify  | 7.5416     | 7.5416     | 7.5416     |   0.0 |  1.85
Other   |            | 1.924      |            |       |  0.47

Nlocal:    19652 ave 19652 max 19652 min
Histogram: 1 0 0 0 0 0 0 0 0 0
Nghost:    13001 ave 13001 max 13001 min
Histogram: 1 0 0 0 0 0 0 0 0 0
Neighs:    622193 ave 622193 max 622193 min
Histogram: 1 0 0 0 0 0 0 0 0 0

Total # of neighbors = 622193
Ave neighs/atom = 31.6605
Neighbor list builds = 4505
Dangerous builds not checked
Setting up Verlet run ...
  Unit style    : metal
  Current step  : 160000
  Time step     : 0.001
Per MPI rank memory allocation (min/avg/max) = 18.24 | 18.24 | 18.24 Mbytes
Step Temp Press TotEng PotEng Enthalpy 
  160000     1250.378    601.22234   -79703.695   -82879.769   -79408.735 
  160495    1216.6693    455.52667   -79861.562   -82952.013   -79638.412 
Loop time of 41.0448 on 1 procs for 495 steps with 19652 atoms

Performance: 1.042 ns/day, 23.033 hours/ns, 12.060 timesteps/s
100.0% CPU use with 1 MPI tasks x no OpenMP threads

MPI task timing breakdown:
Section |  min time  |  avg time  |  max time  |%varavg| %total
---------------------------------------------------------------
Pair    | 19.102     | 19.102     | 19.102     |   0.0 | 46.54
Neigh   | 20.406     | 20.406     | 20.406     |   0.0 | 49.72
Comm    | 0.51312    | 0.51312    | 0.51312    |   0.0 |  1.25
Output  | 0.000175   | 0.000175   | 0.000175   |   0.0 |  0.00
Modify  | 0.81298    | 0.81298    | 0.81298    |   0.0 |  1.98
Other   |            | 0.2109     |            |       |  0.51

Nlocal:    19652 ave 19652 max 19652 min
Histogram: 1 0 0 0 0 0 0 0 0 0
Nghost:    12999 ave 12999 max 12999 min
Histogram: 1 0 0 0 0 0 0 0 0 0
Neighs:    623222 ave 623222 max 623222 min
Histogram: 1 0 0 0 0 0 0 0 0 0

Total # of neighbors = 623222
Ave neighs/atom = 31.7129
Neighbor list builds = 495
Dangerous builds not checked
Setting up Verlet run ...
  Unit style    : metal
  Current step  : 160495
  Time step     : 0.001
Per MPI rank memory allocation (min/avg/max) = 18.24 | 18.24 | 18.24 Mbytes
Step Temp Press TotEng PotEng Enthalpy 
  160495    1216.6693    455.52667   -79861.562   -82952.013   -79638.412 
  165000    1198.6838   -330.23642   -79963.055   -83007.821   -80125.159 
Loop time of 421.468 on 1 procs for 4505 steps with 19652 atoms

Performance: 0.924 ns/day, 25.988 hours/ns, 10.689 timesteps/s
99.3% CPU use with 1 MPI tasks x no OpenMP threads

MPI task timing breakdown:
Section |  min time  |  avg time  |  max time  |%varavg| %total
---------------------------------------------------------------
Pair    | 206.3      | 206.3      | 206.3      |   0.0 | 48.95
Neigh   | 200.39     | 200.39     | 200.39     |   0.0 | 47.55
Comm    | 5.1644     | 5.1644     | 5.1644     |   0.0 |  1.23
Output  | 0.096943   | 0.096943   | 0.096943   |   0.0 |  0.02
Modify  | 7.5909     | 7.5909     | 7.5909     |   0.0 |  1.80
Other   |            | 1.924      |            |       |  0.46

Nlocal:    19652 ave 19652 max 19652 min
Histogram: 1 0 0 0 0 0 0 0 0 0
Nghost:    12987 ave 12987 max 12987 min
Histogram: 1 0 0 0 0 0 0 0 0 0
Neighs:    622075 ave 622075 max 622075 min
Histogram: 1 0 0 0 0 0 0 0 0 0

Total # of neighbors = 622075
Ave neighs/atom = 31.6545
Neighbor list builds = 4505
Dangerous builds not checked
Setting up Verlet run ...
  Unit style    : metal
  Current step  : 165000
  Time step     : 0.001
Per MPI rank memory allocation (min/avg/max) = 18.24 | 18.24 | 18.24 Mbytes
Step Temp Press TotEng PotEng Enthalpy 
  165000    1198.6838   -330.23642   -79963.055   -83007.821   -80125.159 
  165495    1152.5525   -236.33292   -80140.804   -83068.392   -80256.612 
Loop time of 44.5411 on 1 procs for 495 steps with 19652 atoms

Performance: 0.960 ns/day, 24.995 hours/ns, 11.113 timesteps/s
98.3% CPU use with 1 MPI tasks x no OpenMP threads

MPI task timing breakdown:
Section |  min time  |  avg time  |  max time  |%varavg| %total
---------------------------------------------------------------
Pair    | 21.174     | 21.174     | 21.174     |   0.0 | 47.54
Neigh   | 21.782     | 21.782     | 21.782     |   0.0 | 48.90
Comm    | 0.59477    | 0.59477    | 0.59477    |   0.0 |  1.34
Output  | 0.000175   | 0.000175   | 0.000175   |   0.0 |  0.00
Modify  | 0.80778    | 0.80778    | 0.80778    |   0.0 |  1.81
Other   |            | 0.1829     |            |       |  0.41

Nlocal:    19652 ave 19652 max 19652 min
Histogram: 1 0 0 0 0 0 0 0 0 0
Nghost:    12968 ave 12968 max 12968 min
Histogram: 1 0 0 0 0 0 0 0 0 0
Neighs:    622929 ave 622929 max 622929 min
Histogram: 1 0 0 0 0 0 0 0 0 0

Total # of neighbors = 622929
Ave neighs/atom = 31.698
Neighbor list builds = 495
Dangerous builds not checked
Setting up Verlet run ...
  Unit style    : metal
  Current step  : 165495
  Time step     : 0.001
Per MPI rank memory allocation (min/avg/max) = 18.24 | 18.24 | 18.24 Mbytes
Step Temp Press TotEng PotEng Enthalpy 
  165495    1152.5525   -236.33292   -80140.804   -83068.392   -80256.612 
  170000    1158.1664    450.84321   -80190.086   -83131.934   -79969.887 
Loop time of 432.58 on 1 procs for 4505 steps with 19652 atoms

Performance: 0.900 ns/day, 26.673 hours/ns, 10.414 timesteps/s
99.0% CPU use with 1 MPI tasks x no OpenMP threads

MPI task timing breakdown:
Section |  min time  |  avg time  |  max time  |%varavg| %total
---------------------------------------------------------------
Pair    | 217.34     | 217.34     | 217.34     |   0.0 | 50.24
Neigh   | 199.42     | 199.42     | 199.42     |   0.0 | 46.10
Comm    | 5.709      | 5.709      | 5.709      |   0.0 |  1.32
Output  | 0.083166   | 0.083166   | 0.083166   |   0.0 |  0.02
Modify  | 8.1938     | 8.1938     | 8.1938     |   0.0 |  1.89
Other   |            | 1.838      |            |       |  0.42

Nlocal:    19652 ave 19652 max 19652 min
Histogram: 1 0 0 0 0 0 0 0 0 0
Nghost:    12954 ave 12954 max 12954 min
Histogram: 1 0 0 0 0 0 0 0 0 0
Neighs:    625054 ave 625054 max 625054 min
Histogram: 1 0 0 0 0 0 0 0 0 0
[...]
Histogram: 1 0 0 0 0 0 0 0 0 0
Neighs:    641545 ave 641545 max 641545 min
Histogram: 1 0 0 0 0 0 0 0 0 0

Total # of neighbors = 641545
Ave neighs/atom = 32.6453
Neighbor list builds = 4505
Dangerous builds not checked
Setting up Verlet run ...
  Unit style    : metal
  Current step  : 240000
  Time step     : 0.001
Per MPI rank memory allocation (min/avg/max) = 18.24 | 18.24 | 18.24 Mbytes
Step Temp Press TotEng PotEng Enthalpy 
  240000    448.43806   -301.97619   -84143.051   -85282.124   -84285.769 
  240495    423.03449   -373.88508   -84283.187   -85357.733   -84459.696 
Loop time of 43.3098 on 1 procs for 495 steps with 19652 atoms

Performance: 0.987 ns/day, 24.304 hours/ns, 11.429 timesteps/s
99.5% CPU use with 1 MPI tasks x no OpenMP threads

MPI task timing breakdown:
Section |  min time  |  avg time  |  max time  |%varavg| %total
---------------------------------------------------------------
Pair    | 20.899     | 20.899     | 20.899     |   0.0 | 48.26
Neigh   | 20.927     | 20.927     | 20.927     |   0.0 | 48.32
Comm    | 0.53198    | 0.53198    | 0.53198    |   0.0 |  1.23
Output  | 0.00016809 | 0.00016809 | 0.00016809 |   0.0 |  0.00
Modify  | 0.75297    | 0.75297    | 0.75297    |   0.0 |  1.74
Other   |            | 0.1985     |            |       |  0.46

Nlocal:    19652 ave 19652 max 19652 min
Histogram: 1 0 0 0 0 0 0 0 0 0
Nghost:    13136 ave 13136 max 13136 min
Histogram: 1 0 0 0 0 0 0 0 0 0
Neighs:    641881 ave 641881 max 641881 min
Histogram: 1 0 0 0 0 0 0 0 0 0

Total # of neighbors = 641881
Ave neighs/atom = 32.6624
Neighbor list builds = 495
Dangerous builds not checked
Setting up Verlet run ...
  Unit style    : metal
  Current step  : 240495
  Time step     : 0.001
Per MPI rank memory allocation (min/avg/max) = 18.24 | 18.24 | 18.24 Mbytes
Step Temp Press TotEng PotEng Enthalpy 
  240495    423.03449   -373.88508   -84283.187   -85357.733   -84459.696 
  245000     393.8971   -198.30342    -84467.44   -85467.974   -84560.843 
Loop time of 409.404 on 1 procs for 4505 steps with 19652 atoms

Performance: 0.951 ns/day, 25.244 hours/ns, 11.004 timesteps/s
98.2% CPU use with 1 MPI tasks x no OpenMP threads

MPI task timing breakdown:
Section |  min time  |  avg time  |  max time  |%varavg| %total
---------------------------------------------------------------
Pair    | 198.11     | 198.11     | 198.11     |   0.0 | 48.39
Neigh   | 196.8      | 196.8      | 196.8      |   0.0 | 48.07
Comm    | 5.1632     | 5.1632     | 5.1632     |   0.0 |  1.26
Output  | 0.093119   | 0.093119   | 0.093119   |   0.0 |  0.02
Modify  | 7.3385     | 7.3385     | 7.3385     |   0.0 |  1.79
Other   |            | 1.895      |            |       |  0.46

Nlocal:    19652 ave 19652 max 19652 min
Histogram: 1 0 0 0 0 0 0 0 0 0
Nghost:    13201 ave 13201 max 13201 min
Histogram: 1 0 0 0 0 0 0 0 0 0
Neighs:    643187 ave 643187 max 643187 min
Histogram: 1 0 0 0 0 0 0 0 0 0

Total # of neighbors = 643187
Ave neighs/atom = 32.7288
Neighbor list builds = 4505
Dangerous builds not checked
Setting up Verlet run ...
  Unit style    : metal
  Current step  : 245000
  Time step     : 0.001
Per MPI rank memory allocation (min/avg/max) = 18.24 | 18.24 | 18.24 Mbytes
Step Temp Press TotEng PotEng Enthalpy 
  245000     393.8971   -198.30342    -84467.44   -85467.974   -84560.843 
  245495    371.69665   -84.228291    -84596.53   -85540.673   -84636.147 
Loop time of 39.0936 on 1 procs for 495 steps with 19652 atoms

Performance: 1.094 ns/day, 21.938 hours/ns, 12.662 timesteps/s
99.2% CPU use with 1 MPI tasks x no OpenMP threads

MPI task timing breakdown:
Section |  min time  |  avg time  |  max time  |%varavg| %total
---------------------------------------------------------------
Pair    | 18.52      | 18.52      | 18.52      |   0.0 | 47.37
Neigh   | 19.176     | 19.176     | 19.176     |   0.0 | 49.05
Comm    | 0.4951     | 0.4951     | 0.4951     |   0.0 |  1.27
Output  | 0.00012994 | 0.00012994 | 0.00012994 |   0.0 |  0.00
Modify  | 0.73211    | 0.73211    | 0.73211    |   0.0 |  1.87
Other   |            | 0.1705     |            |       |  0.44

Nlocal:    19652 ave 19652 max 19652 min
Histogram: 1 0 0 0 0 0 0 0 0 0
Nghost:    13194 ave 13194 max 13194 min
Histogram: 1 0 0 0 0 0 0 0 0 0
Neighs:    644174 ave 644174 max 644174 min
Histogram: 1 0 0 0 0 0 0 0 0 0

Total # of neighbors = 644174
Ave neighs/atom = 32.7791
Neighbor list builds = 495
Dangerous builds not checked
Setting up Verlet run ...
  Unit style    : metal
  Current step  : 245495
  Time step     : 0.001
Per MPI rank memory allocation (min/avg/max) = 18.24 | 18.24 | 18.24 Mbytes
Step Temp Press TotEng PotEng Enthalpy 
  245495    371.69665   -84.228291    -84596.53   -85540.673   -84636.147 
  250000    348.98742     127.6883    -84761.02    -85647.48   -84701.092 
Loop time of 375.36 on 1 procs for 4505 steps with 19652 atoms

Performance: 1.037 ns/day, 23.145 hours/ns, 12.002 timesteps/s
99.1% CPU use with 1 MPI tasks x no OpenMP threads

MPI task timing breakdown:
Section |  min time  |  avg time  |  max time  |%varavg| %total
---------------------------------------------------------------
Pair    | 179.42     | 179.42     | 179.42     |   0.0 | 47.80
Neigh   | 182.05     | 182.05     | 182.05     |   0.0 | 48.50
Comm    | 5.0111     | 5.0111     | 5.0111     |   0.0 |  1.34
Output  | 0.079423   | 0.079423   | 0.079423   |   0.0 |  0.02
Modify  | 7.1906     | 7.1906     | 7.1906     |   0.0 |  1.92
Other   |            | 1.613      |            |       |  0.43

Nlocal:    19652 ave 19652 max 19652 min
Histogram: 1 0 0 0 0 0 0 0 0 0
Nghost:    13261 ave 13261 max 13261 min
Histogram: 1 0 0 0 0 0 0 0 0 0
Neighs:    644875 ave 644875 max 644875 min
Histogram: 1 0 0 0 0 0 0 0 0 0

Total # of neighbors = 644875
Ave neighs/atom = 32.8147
Neighbor list builds = 4505
Dangerous builds not checked
Setting up Verlet run ...
  Unit style    : metal
  Current step  : 250000
  Time step     : 0.001
Per MPI rank memory allocation (min/avg/max) = 18.24 | 18.24 | 18.24 Mbytes
Step Temp Press TotEng PotEng Enthalpy 
  250000    348.98742     127.6883    -84761.02    -85647.48   -84701.092 
  250495    321.12869    165.96118   -84900.665   -85716.361   -84822.882 
Loop time of 43.6377 on 1 procs for 495 steps with 19652 atoms

Performance: 0.980 ns/day, 24.488 hours/ns, 11.343 timesteps/s
97.2% CPU use with 1 MPI tasks x no OpenMP threads

MPI task timing breakdown:
Section |  min time  |  avg time  |  max time  |%varavg| %total
---------------------------------------------------------------
Pair    | 20.782     | 20.782     | 20.782     |   0.0 | 47.62
Neigh   | 21.244     | 21.244     | 21.244     |   0.0 | 48.68
Comm    | 0.55939    | 0.55939    | 0.55939    |   0.0 |  1.28
Output  | 0.00013518 | 0.00013518 | 0.00013518 |   0.0 |  0.00
Modify  | 0.85411    | 0.85411    | 0.85411    |   0.0 |  1.96
Other   |            | 0.1976     |            |       |  0.45

Nlocal:    19652 ave 19652 max 19652 min
Histogram: 1 0 0 0 0 0 0 0 0 0
Nghost:    13263 ave 13263 max 13263 min
Histogram: 1 0 0 0 0 0 0 0 0 0
Neighs:    645732 ave 645732 max 645732 min
Histogram: 1 0 0 0 0 0 0 0 0 0

Total # of neighbors = 645732
Ave neighs/atom = 32.8583
Neighbor list builds = 495
Dangerous builds not checked
Setting up Verlet run ...
  Unit style    : metal
  Current step  : 250495
  Time step     : 0.001
Per MPI rank memory allocation (min/avg/max) = 18.24 | 18.24 | 18.24 Mbytes
Step Temp Press TotEng PotEng Enthalpy 
  250495    321.12869    165.96118   -84900.665   -85716.361   -84822.882 
  255000     301.1466   -212.57746   -85086.062   -85851.002   -85185.592 
Loop time of 395.381 on 1 procs for 4505 steps with 19652 atoms

Performance: 0.984 ns/day, 24.379 hours/ns, 11.394 timesteps/s
98.0% CPU use with 1 MPI tasks x no OpenMP threads

MPI task timing breakdown:
Section |  min time  |  avg time  |  max time  |%varavg| %total
---------------------------------------------------------------
Pair    | 191.8      | 191.8      | 191.8      |   0.0 | 48.51
Neigh   | 188.91     | 188.91     | 188.91     |   0.0 | 47.78
Comm    | 5.2396     | 5.2396     | 5.2396     |   0.0 |  1.33
Output  | 0.091907   | 0.091907   | 0.091907   |   0.0 |  0.02
Modify  | 7.6517     | 7.6517     | 7.6517     |   0.0 |  1.94
Other   |            | 1.696      |            |       |  0.43

Nlocal:    19652 ave 19652 max 19652 min
Histogram: 1 0 0 0 0 0 0 0 0 0
Nghost:    13196 ave 13196 max 13196 min
Histogram: 1 0 0 0 0 0 0 0 0 0
Neighs:    646063 ave 646063 max 646063 min
Histogram: 1 0 0 0 0 0 0 0 0 0

Total # of neighbors = 646063
Ave neighs/atom = 32.8752
Neighbor list builds = 4505
Dangerous builds not checked
Setting up Verlet run ...
  Unit style    : metal
  Current step  : 255000
  Time step     : 0.001
Per MPI rank memory allocation (min/avg/max) = 18.24 | 18.24 | 18.24 Mbytes
Step Temp Press TotEng PotEng Enthalpy 
  255000     301.1466   -212.57746   -85086.062   -85851.002   -85185.592 
  255495    271.86864     112.8067    -85218.23   -85908.801   -85165.533 
Loop time of 43.2435 on 1 procs for 495 steps with 19652 atoms

Performance: 0.989 ns/day, 24.267 hours/ns, 11.447 timesteps/s
99.1% CPU use with 1 MPI tasks x no OpenMP threads

MPI task timing breakdown:
Section |  min time  |  avg time  |  max time  |%varavg| %total
---------------------------------------------------------------
Pair    | 20.765     | 20.765     | 20.765     |   0.0 | 48.02
Neigh   | 20.855     | 20.855     | 20.855     |   0.0 | 48.23
Comm    | 0.55459    | 0.55459    | 0.55459    |   0.0 |  1.28
Output  | 0.00018406 | 0.00018406 | 0.00018406 |   0.0 |  0.00
Modify  | 0.85469    | 0.85469    | 0.85469    |   0.0 |  1.98
Other   |            | 0.2147     |            |       |  0.50

Nlocal:    19652 ave 19652 max 19652 min
Histogram: 1 0 0 0 0 0 0 0 0 0
Nghost:    13211 ave 13211 max 13211 min
Histogram: 1 0 0 0 0 0 0 0 0 0
Neighs:    646888 ave 646888 max 646888 min
Histogram: 1 0 0 0 0 0 0 0 0 0

Total # of neighbors = 646888
Ave neighs/atom = 32.9172
Neighbor list builds = 495
Dangerous builds not checked
Setting up Verlet run ...
  Unit style    : metal
  Current step  : 255495
  Time step     : 0.001
Per MPI rank memory allocation (min/avg/max) = 18.24 | 18.24 | 18.24 Mbytes
Step Temp Press TotEng PotEng Enthalpy 
  255495    271.86864     112.8067    -85218.23   -85908.801   -85165.533 
  260000    249.66102    117.44983   -85393.502   -86027.664   -85338.725 
Loop time of 410.695 on 1 procs for 4505 steps with 19652 atoms

Performance: 0.948 ns/day, 25.323 hours/ns, 10.969 timesteps/s
99.0% CPU use with 1 MPI tasks x no OpenMP threads

MPI task timing breakdown:
Section |  min time  |  avg time  |  max time  |%varavg| %total
---------------------------------------------------------------
Pair    | 200.32     | 200.32     | 200.32     |   0.0 | 48.78
Neigh   | 195.3      | 195.3      | 195.3      |   0.0 | 47.55
Comm    | 5.3035     | 5.3035     | 5.3035     |   0.0 |  1.29
Output  | 0.084201   | 0.084201   | 0.084201   |   0.0 |  0.02
Modify  | 7.7583     | 7.7583     | 7.7583     |   0.0 |  1.89
Other   |            | 1.928      |            |       |  0.47

Nlocal:    19652 ave 19652 max 19652 min
Histogram: 1 0 0 0 0 0 0 0 0 0
Nghost:    13278 ave 13278 max 13278 min
Histogram: 1 0 0 0 0 0 0 0 0 0
Neighs:    647567 ave 647567 max 647567 min
Histogram: 1 0 0 0 0 0 0 0 0 0

Total # of neighbors = 647567
Ave neighs/atom = 32.9517
Neighbor list builds = 4505
Dangerous builds not checked
Setting up Verlet run ...
  Unit style    : metal
  Current step  : 260000
  Time step     : 0.001
Per MPI rank memory allocation (min/avg/max) = 18.24 | 18.24 | 18.24 Mbytes
Step Temp Press TotEng PotEng Enthalpy 
  260000    249.66102    117.44983   -85393.502   -86027.664   -85338.725 
  260495     223.4698   -194.47797   -85524.064   -86091.698   -85614.742 
Loop time of 44.4895 on 1 procs for 495 steps with 19652 atoms

Performance: 0.961 ns/day, 24.966 hours/ns, 11.126 timesteps/s
99.5% CPU use with 1 MPI tasks x no OpenMP threads

MPI task timing breakdown:
Section |  min time  |  avg time  |  max time  |%varavg| %total
---------------------------------------------------------------
Pair    | 21.893     | 21.893     | 21.893     |   0.0 | 49.21
Neigh   | 20.922     | 20.922     | 20.922     |   0.0 | 47.03
Comm    | 0.59698    | 0.59698    | 0.59698    |   0.0 |  1.34
Output  | 0.00020885 | 0.00020885 | 0.00020885 |   0.0 |  0.00
Modify  | 0.86047    | 0.86047    | 0.86047    |   0.0 |  1.93
Other   |            | 0.2173     |            |       |  0.49

Nlocal:    19652 ave 19652 max 19652 min
Histogram: 1 0 0 0 0 0 0 0 0 0
Nghost:    13246 ave 13246 max 13246 min
Histogram: 1 0 0 0 0 0 0 0 0 0
Neighs:    647965 ave 647965 max 647965 min
Histogram: 1 0 0 0 0 0 0 0 0 0

Total # of neighbors = 647965
Ave neighs/atom = 32.972
Neighbor list builds = 495
Dangerous builds not checked
Setting up Verlet run ...
  Unit style    : metal
  Current step  : 260495
  Time step     : 0.001
Per MPI rank memory allocation (min/avg/max) = 18.24 | 18.24 | 18.24 Mbytes
Step Temp Press TotEng PotEng Enthalpy 
  260495     223.4698   -194.47797   -85524.064   -86091.698   -85614.742 
  265000    199.24561   -134.91759    -85694.74   -86200.842    -85757.54 
Loop time of 417.498 on 1 procs for 4505 steps with 19652 atoms

Performance: 0.932 ns/day, 25.743 hours/ns, 10.790 timesteps/s
99.4% CPU use with 1 MPI tasks x no OpenMP threads

MPI task timing breakdown:
Section |  min time  |  avg time  |  max time  |%varavg| %total
---------------------------------------------------------------
Pair    | 210.09     | 210.09     | 210.09     |   0.0 | 50.32
Neigh   | 190.65     | 190.65     | 190.65     |   0.0 | 45.67
Comm    | 5.8687     | 5.8687     | 5.8687     |   0.0 |  1.41
Output  | 0.091839   | 0.091839   | 0.091839   |   0.0 |  0.02
Modify  | 8.7693     | 8.7693     | 8.7693     |   0.0 |  2.10
Other   |            | 2.02       |            |       |  0.48

Nlocal:    19652 ave 19652 max 19652 min
Histogram: 1 0 0 0 0 0 0 0 0 0
Nghost:    13274 ave 13274 max 13274 min
Histogram: 1 0 0 0 0 0 0 0 0 0
Neighs:    648843 ave 648843 max 648843 min
Histogram: 1 0 0 0 0 0 0 0 0 0

Total # of neighbors = 648843
Ave neighs/atom = 33.0166
Neighbor list builds = 4505
Dangerous builds not checked
Setting up Verlet run ...
  Unit style    : metal
  Current step  : 265000
  Time step     : 0.001
Per MPI rank memory allocation (min/avg/max) = 18.24 | 18.24 | 18.24 Mbytes
Step Temp Press TotEng PotEng Enthalpy 
  265000    199.24561   -134.91759    -85694.74   -86200.842    -85757.54 
  265495    174.75282   -117.20696   -85816.051   -86259.939   -85870.551 
Loop time of 44.58 on 1 procs for 495 steps with 19652 atoms

Performance: 0.959 ns/day, 25.017 hours/ns, 11.104 timesteps/s
96.2% CPU use with 1 MPI tasks x no OpenMP threads

MPI task timing breakdown:
Section |  min time  |  avg time  |  max time  |%varavg| %total
---------------------------------------------------------------
Pair    | 21.366     | 21.366     | 21.366     |   0.0 | 47.93
Neigh   | 21.46      | 21.46      | 21.46      |   0.0 | 48.14
Comm    | 0.58939    | 0.58939    | 0.58939    |   0.0 |  1.32
Output  | 0.0001812  | 0.0001812  | 0.0001812  |   0.0 |  0.00
Modify  | 0.92403    | 0.92403    | 0.92403    |   0.0 |  2.07
Other   |            | 0.2403     |            |       |  0.54

Nlocal:    19652 ave 19652 max 19652 min
Histogram: 1 0 0 0 0 0 0 0 0 0
Nghost:    13273 ave 13273 max 13273 min
Histogram: 1 0 0 0 0 0 0 0 0 0
Neighs:    649117 ave 649117 max 649117 min
Histogram: 1 0 0 0 0 0 0 0 0 0

Total # of neighbors = 649117
Ave neighs/atom = 33.0306
Neighbor list builds = 495
Dangerous builds not checked
Setting up Verlet run ...
  Unit style    : metal
  Current step  : 265495
  Time step     : 0.001
Per MPI rank memory allocation (min/avg/max) = 18.24 | 18.24 | 18.24 Mbytes
Step Temp Press TotEng PotEng Enthalpy 
  265495    174.75282   -117.20696   -85816.051   -86259.939   -85870.551 
  270000    149.41953    79.650815   -85981.876   -86361.415   -85944.914 
Loop time of 391.874 on 1 procs for 4505 steps with 19652 atoms

Performance: 0.993 ns/day, 24.163 hours/ns, 11.496 timesteps/s
99.4% CPU use with 1 MPI tasks x no OpenMP threads

MPI task timing breakdown:
Section |  min time  |  avg time  |  max time  |%varavg| %total
---------------------------------------------------------------
Pair    | 188.22     | 188.22     | 188.22     |   0.0 | 48.03
Neigh   | 188.42     | 188.42     | 188.42     |   0.0 | 48.08
Comm    | 5.1777     | 5.1777     | 5.1777     |   0.0 |  1.32
Output  | 0.19728    | 0.19728    | 0.19728    |   0.0 |  0.05
Modify  | 7.9166     | 7.9166     | 7.9166     |   0.0 |  2.02
Other   |            | 1.946      |            |       |  0.50

Nlocal:    19652 ave 19652 max 19652 min
Histogram: 1 0 0 0 0 0 0 0 0 0
Nghost:    13255 ave 13255 max 13255 min
Histogram: 1 0 0 0 0 0 0 0 0 0
Neighs:    650139 ave 650139 max 650139 min
Histogram: 1 0 0 0 0 0 0 0 0 0

Total # of neighbors = 650139
Ave neighs/atom = 33.0826
Neighbor list builds = 4505
Dangerous builds not checked
Setting up Verlet run ...
  Unit style    : metal
  Current step  : 270000
  Time step     : 0.001
Per MPI rank memory allocation (min/avg/max) = 18.24 | 18.24 | 18.24 Mbytes
Step Temp Press TotEng PotEng Enthalpy 
  270000    149.41953    79.650815   -85981.876   -86361.415   -85944.914 
  270495    126.18531   -45.796629   -86096.469   -86416.991   -86117.707 
Loop time of 44.2948 on 1 procs for 495 steps with 19652 atoms

Performance: 0.966 ns/day, 24.857 hours/ns, 11.175 timesteps/s
99.0% CPU use with 1 MPI tasks x no OpenMP threads

MPI task timing breakdown:
Section |  min time  |  avg time  |  max time  |%varavg| %total
---------------------------------------------------------------
Pair    | 21.594     | 21.594     | 21.594     |   0.0 | 48.75
Neigh   | 20.976     | 20.976     | 20.976     |   0.0 | 47.36
Comm    | 0.60596    | 0.60596    | 0.60596    |   0.0 |  1.37
Output  | 0.00020194 | 0.00020194 | 0.00020194 |   0.0 |  0.00
Modify  | 0.89094    | 0.89094    | 0.89094    |   0.0 |  2.01
Other   |            | 0.2275     |            |       |  0.51

Nlocal:    19652 ave 19652 max 19652 min
Histogram: 1 0 0 0 0 0 0 0 0 0
Nghost:    13296 ave 13296 max 13296 min
Histogram: 1 0 0 0 0 0 0 0 0 0
Neighs:    650613 ave 650613 max 650613 min
Histogram: 1 0 0 0 0 0 0 0 0 0

Total # of neighbors = 650613
Ave neighs/atom = 33.1067
Neighbor list builds = 495
Dangerous builds not checked
Setting up Verlet run ...
  Unit style    : metal
  Current step  : 270495
  Time step     : 0.001
Per MPI rank memory allocation (min/avg/max) = 18.24 | 18.24 | 18.24 Mbytes
Step Temp Press TotEng PotEng Enthalpy 
  270495    126.18531   -45.796629   -86096.469   -86416.991   -86117.707 
  275000    100.76825    147.79486   -86258.856   -86514.816   -86190.433 
Loop time of 401.552 on 1 procs for 4505 steps with 19652 atoms

Performance: 0.969 ns/day, 24.760 hours/ns, 11.219 timesteps/s
99.2% CPU use with 1 MPI tasks x no OpenMP threads

MPI task timing breakdown:
Section |  min time  |  avg time  |  max time  |%varavg| %total
---------------------------------------------------------------
Pair    | 193.71     | 193.71     | 193.71     |   0.0 | 48.24
Neigh   | 192.41     | 192.41     | 192.41     |   0.0 | 47.92
Comm    | 5.3119     | 5.3119     | 5.3119     |   0.0 |  1.32
Output  | 0.21741    | 0.21741    | 0.21741    |   0.0 |  0.05
Modify  | 7.9595     | 7.9595     | 7.9595     |   0.0 |  1.98
Other   |            | 1.943      |            |       |  0.48

Nlocal:    19652 ave 19652 max 19652 min
Histogram: 1 0 0 0 0 0 0 0 0 0
Nghost:    13278 ave 13278 max 13278 min
Histogram: 1 0 0 0 0 0 0 0 0 0
Neighs:    651865 ave 651865 max 651865 min
Histogram: 1 0 0 0 0 0 0 0 0 0

Total # of neighbors = 651865
Ave neighs/atom = 33.1704
Neighbor list builds = 4505
Dangerous builds not checked
Total wall time: 6:46:32
