LAMMPS (12 Dec 2018)
Lattice spacing in x,y,z = 4 4 4
Created orthogonal box = (0 0 0) to (68 68 68)
  1 by 2 by 3 MPI processor grid
Created 19652 atoms
  Time spent = 0.104871 secs
Setting atom values ...
  19281 settings made for type/fraction
Neighbor list info ...
  update every 1 steps, delay 0 steps, check no
  max neighbors/atom: 2000, page size: 100000
  master list distance cutoff = 8.5
  ghost atom cutoff = 8.5
  binsize = 4.25, bins = 16 16 16
  1 neighbor lists, perpetual/occasional/extra = 1 0 0
  (1) pair eam/alloy, perpetual
      attributes: half, newton on
      pair build: half/bin/atomonly/newton
      stencil: half/bin/3d/newton
      bin: standard
Setting up Verlet run ...
  Unit style    : metal
  Current step  : 0
  Time step     : 0.001
Per MPI rank memory allocation (min/avg/max) = 5.546 | 5.705 | 5.983 Mbytes
Step Temp Press TotEng PotEng Enthalpy 
       0          300   -166746.06   -61341.629   -62103.656   -94066.049 
    1000    402.80532   -79541.986   -61341.629   -62364.791   -76951.985 
Loop time of 49.7852 on 6 procs for 1000 steps with 19652 atoms

Performance: 1.735 ns/day, 13.829 hours/ns, 20.086 timesteps/s
89.5% CPU use with 6 MPI tasks x no OpenMP threads

MPI task timing breakdown:
Section |  min time  |  avg time  |  max time  |%varavg| %total
---------------------------------------------------------------
Pair    | 26.846     | 27.348     | 27.772     |   6.2 | 54.93
Neigh   | 11.672     | 13.162     | 14.372     |  23.4 | 26.44
Comm    | 8.3753     | 9.1027     | 10.427     |  21.9 | 18.28
Output  | 0.00011396 | 0.00012636 | 0.00016904 |   0.0 |  0.00
Modify  | 0.072752   | 0.084734   | 0.10321    |   3.3 |  0.17
Other   |            | 0.08756    |            |       |  0.18

Nlocal:    3275.33 ave 3387 max 3173 min
Histogram: 1 1 1 0 0 0 1 0 1 1
Nghost:    7512.83 ave 7650 max 7346 min
Histogram: 1 1 0 0 0 0 1 2 0 1
Neighs:    262813 ave 273912 max 248932 min
Histogram: 1 0 1 1 0 0 0 0 1 2

Total # of neighbors = 1576879
Ave neighs/atom = 80.2401
Neighbor list builds = 1000
Dangerous builds not checked
Setting up Verlet run ...
  Unit style    : metal
  Current step  : 1000
  Time step     : 0.001
Per MPI rank memory allocation (min/avg/max) = 5.554 | 5.841 | 5.987 Mbytes
Step Temp Press TotEng PotEng Enthalpy 
    1000    402.80532   -79541.986   -61341.629   -62364.791   -76951.985 
    2000     403.5307   -1480.2383   -65414.096   -66439.101   -65639.673 
Loop time of 38.5384 on 6 procs for 1000 steps with 19652 atoms

Performance: 2.242 ns/day, 10.705 hours/ns, 25.948 timesteps/s
96.6% CPU use with 6 MPI tasks x no OpenMP threads

MPI task timing breakdown:
Section |  min time  |  avg time  |  max time  |%varavg| %total
---------------------------------------------------------------
Pair    | 20.324     | 20.805     | 21.189     |   5.8 | 53.98
Neigh   | 14.457     | 14.974     | 15.304     |   8.2 | 38.86
Comm    | 1.6673     | 2.3257     | 2.9636     |  30.4 |  6.03
Output  | 4.7922e-05 | 5.8532e-05 | 9.1791e-05 |   0.0 |  0.00
Modify  | 0.32272    | 0.34538    | 0.37005    |   2.7 |  0.90
Other   |            | 0.08804    |            |       |  0.23

Nlocal:    3275.33 ave 3408 max 3205 min
Histogram: 3 0 0 1 0 1 0 0 0 1
Nghost:    8268.83 ave 8486 max 8076 min
Histogram: 1 0 1 1 1 0 0 1 0 1
Neighs:    334565 ave 358653 max 325233 min
Histogram: 2 2 1 0 0 0 0 0 0 1

Total # of neighbors = 2007392
Ave neighs/atom = 102.147
Neighbor list builds = 1000
Dangerous builds not checked
Setting up Verlet run ...
  Unit style    : metal
  Current step  : 2000
  Time step     : 0.001
Per MPI rank memory allocation (min/avg/max) = 5.946 | 5.972 | 5.99 Mbytes
Step Temp Press TotEng PotEng Enthalpy 
    2000     403.5307   -1480.2383   -65414.096   -66439.101   -65639.673 
   10000    2461.3261    1129.2851    -52539.46   -58791.453   -52330.285 
Loop time of 370.007 on 6 procs for 8000 steps with 19652 atoms

Performance: 1.868 ns/day, 12.847 hours/ns, 21.621 timesteps/s
96.4% CPU use with 6 MPI tasks x no OpenMP threads

MPI task timing breakdown:
Section |  min time  |  avg time  |  max time  |%varavg| %total
---------------------------------------------------------------
Pair    | 195.43     | 200.06     | 209.03     |  32.1 | 54.07
Neigh   | 113.86     | 125.28     | 143.74     |  85.3 | 33.86
Comm    | 11.973     | 39.686     | 50.527     | 207.5 | 10.73
Output  | 5.2929e-05 | 6.4969e-05 | 0.00010204 |   0.0 |  0.00
Modify  | 4.0784     | 4.2747     | 4.4934     |   6.1 |  1.16
Other   |            | 0.7144     |            |       |  0.19

Nlocal:    3275.33 ave 3291 max 3253 min
Histogram: 1 0 0 1 0 0 0 3 0 1
Nghost:    7653 ave 7676 max 7602 min
Histogram: 1 0 0 0 0 0 1 1 1 2
Neighs:    276718 ave 279531 max 272116 min
Histogram: 1 0 0 0 0 2 0 1 1 1

Total # of neighbors = 1660305
Ave neighs/atom = 84.4853
Neighbor list builds = 8000
Dangerous builds not checked
Setting up Verlet run ...
  Unit style    : metal
  Current step  : 10000
  Time step     : 0.001
Per MPI rank memory allocation (min/avg/max) = 5.947 | 5.973 | 5.99 Mbytes
Step Temp Press TotEng PotEng Enthalpy 
   10000    2461.3261    1129.2851    -52539.46   -58791.453   -52330.285 
   40000    2457.0156    784.97857   -52466.893   -58707.936   -52320.989 
Loop time of 1210.54 on 6 procs for 30000 steps with 19652 atoms

Performance: 2.141 ns/day, 11.209 hours/ns, 24.782 timesteps/s
96.8% CPU use with 6 MPI tasks x no OpenMP threads

MPI task timing breakdown:
Section |  min time  |  avg time  |  max time  |%varavg| %total
---------------------------------------------------------------
Pair    | 628.59     | 651.52     | 667.04     |  52.6 | 53.82
Neigh   | 403.95     | 459.45     | 503.97     | 170.7 | 37.95
Comm    | 55.527     | 84.702     | 133.36     | 298.3 |  7.00
Output  | 9.203e-05  | 0.00010228 | 0.00013185 |   0.0 |  0.00
Modify  | 11.775     | 12.3       | 12.62      |   8.9 |  1.02
Other   |            | 2.576      |            |       |  0.21

Nlocal:    3275.33 ave 3302 max 3248 min
Histogram: 1 0 2 0 0 0 0 1 1 1
Nghost:    7640 ave 7673 max 7596 min
Histogram: 1 0 0 0 2 1 0 0 0 2
Neighs:    275822 ave 282449 max 270768 min
Histogram: 1 1 0 1 0 1 1 0 0 1

Total # of neighbors = 1654933
Ave neighs/atom = 84.2119
Neighbor list builds = 30000
Dangerous builds not checked
Setting up Verlet run ...
  Unit style    : metal
  Current step  : 40000
  Time step     : 0.001
Per MPI rank memory allocation (min/avg/max) = 5.947 | 5.973 | 5.99 Mbytes
Step Temp Press TotEng PotEng Enthalpy 
   40000    2457.0156    784.97857   -52466.893   -58707.936   -52320.989 
   40495    2431.6107    328.37138    -52702.73   -58879.242   -52642.032 
Loop time of 18.4778 on 6 procs for 495 steps with 19652 atoms

Performance: 2.315 ns/day, 10.369 hours/ns, 26.789 timesteps/s
97.1% CPU use with 6 MPI tasks x no OpenMP threads

MPI task timing breakdown:
Section |  min time  |  avg time  |  max time  |%varavg| %total
---------------------------------------------------------------
Pair    | 9.7439     | 9.8769     | 10.039     |   3.2 | 53.45
Neigh   | 6.5571     | 7.3885     | 7.8285     |  14.8 | 39.99
Comm    | 0.67017    | 0.97575    | 1.7252     |  35.3 |  5.28
Output  | 5.0068e-05 | 6.0042e-05 | 9.203e-05  |   0.0 |  0.00
Modify  | 0.18572    | 0.19276    | 0.19644    |   0.8 |  1.04
Other   |            | 0.04377    |            |       |  0.24

Nlocal:    3275.33 ave 3296 max 3241 min
Histogram: 1 0 1 0 0 1 0 0 0 3
Nghost:    7685.17 ave 7699 max 7666 min
Histogram: 1 0 1 0 0 0 1 2 0 1
Neighs:    277228 ave 280974 max 271705 min
Histogram: 2 0 0 0 0 0 0 1 1 2

Total # of neighbors = 1663369
Ave neighs/atom = 84.6412
Neighbor list builds = 495
Dangerous builds not checked
Setting up Verlet run ...
  Unit style    : metal
  Current step  : 40495
  Time step     : 0.001
Per MPI rank memory allocation (min/avg/max) = 5.947 | 5.973 | 5.99 Mbytes
Step Temp Press TotEng PotEng Enthalpy 
   40495    2431.6107    328.37138    -52702.73   -58879.242   -52642.032 
   66667    2409.1406   -117.28541    -52708.16   -58827.597   -52729.885 
  106667    2385.8195    925.17792   -52767.683   -58827.882     -52596.6 
Loop time of 2663.55 on 6 procs for 66172 steps with 19652 atoms

Performance: 2.146 ns/day, 11.181 hours/ns, 24.844 timesteps/s
95.7% CPU use with 6 MPI tasks x no OpenMP threads

MPI task timing breakdown:
Section |  min time  |  avg time  |  max time  |%varavg| %total
---------------------------------------------------------------
Pair    | 1406.3     | 1426.6     | 1435.8     |  27.3 | 53.56
Neigh   | 943.93     | 978.15     | 1008.4     |  77.8 | 36.72
Comm    | 176.41     | 210.34     | 233.14     | 125.9 |  7.90
Output  | 0.21765    | 0.21766    | 0.21772    |   0.0 |  0.01
Modify  | 38.499     | 42.413     | 44.732     |  41.2 |  1.59
Other   |            | 5.846      |            |       |  0.22

Nlocal:    3275.33 ave 3304 max 3257 min
Histogram: 1 0 2 2 0 0 0 0 0 1
Nghost:    7684.17 ave 7704 max 7672 min
Histogram: 2 1 0 1 0 0 0 1 0 1
Neighs:    277179 ave 280592 max 273911 min
Histogram: 1 1 0 1 1 0 0 0 0 2

Total # of neighbors = 1663072
Ave neighs/atom = 84.6261
Neighbor list builds = 66172
Dangerous builds not checked
Setting up Verlet run ...
  Unit style    : metal
  Current step  : 106667
  Time step     : 0.001
Per MPI rank memory allocation (min/avg/max) = 5.967 | 5.993 | 6.007 Mbytes
Step Temp Press TotEng PotEng Enthalpy 
  106667    2385.8195    925.17792   -52767.683   -58827.882     -52596.6 
  107162    2366.6899   -319.51827   -52902.065   -58913.673   -52961.099 
Loop time of 17.445 on 6 procs for 495 steps with 19652 atoms

Performance: 2.452 ns/day, 9.790 hours/ns, 28.375 timesteps/s
97.1% CPU use with 6 MPI tasks x no OpenMP threads

MPI task timing breakdown:
Section |  min time  |  avg time  |  max time  |%varavg| %total
---------------------------------------------------------------
Pair    | 9.1427     | 9.4725     | 9.6273     |   5.3 | 54.30
Neigh   | 6.3427     | 6.7333     | 7.318      |  14.1 | 38.60
Comm    | 0.59724    | 0.99021    | 1.2781     |  26.6 |  5.68
Output  | 5.1022e-05 | 6.1353e-05 | 9.7036e-05 |   0.0 |  0.00
Modify  | 0.18895    | 0.20613    | 0.23506    |   3.6 |  1.18
Other   |            | 0.04282    |            |       |  0.25

Nlocal:    3275.33 ave 3293 max 3263 min
Histogram: 1 0 0 3 1 0 0 0 0 1
Nghost:    7687.17 ave 7747 max 7652 min
Histogram: 2 0 1 1 0 0 1 0 0 1
Neighs:    277332 ave 280451 max 275411 min
Histogram: 1 2 1 0 0 0 0 1 0 1

Total # of neighbors = 1663994
Ave neighs/atom = 84.673
Neighbor list builds = 495
Dangerous builds not checked
Setting up Verlet run ...
  Unit style    : metal
  Current step  : 107162
  Time step     : 0.001
Per MPI rank memory allocation (min/avg/max) = 5.967 | 5.993 | 6.007 Mbytes
Step Temp Press TotEng PotEng Enthalpy 
  107162    2366.6899   -319.51827   -52902.065   -58913.673   -52961.099 
  133334    2329.1892   -720.05682     -53044.4   -58960.753   -53177.245 
  173334    2350.6129   -332.64719   -52997.996   -58968.767   -53059.314 
Loop time of 2589.55 on 6 procs for 66172 steps with 19652 atoms

Performance: 2.208 ns/day, 10.870 hours/ns, 25.553 timesteps/s
96.1% CPU use with 6 MPI tasks x no OpenMP threads

MPI task timing breakdown:
Section |  min time  |  avg time  |  max time  |%varavg| %total
---------------------------------------------------------------
Pair    | 1359       | 1398.3     | 1430.1     |  59.6 | 54.00
Neigh   | 925.93     | 975.76     | 1033       | 116.2 | 37.68
Comm    | 138.41     | 175.05     | 224.63     | 208.7 |  6.76
Output  | 0.027949   | 0.027964   | 0.028015   |   0.0 |  0.00
Modify  | 33.34      | 34.504     | 35.508     |  15.4 |  1.33
Other   |            | 5.875      |            |       |  0.23

Nlocal:    3275.33 ave 3308 max 3253 min
Histogram: 1 0 1 1 2 0 0 0 0 1
Nghost:    7708 ave 7738 max 7677 min
Histogram: 1 0 1 1 0 1 0 0 1 1
Neighs:    278009 ave 281829 max 275342 min
Histogram: 1 1 1 1 0 0 1 0 0 1

Total # of neighbors = 1668052
Ave neighs/atom = 84.8795
Neighbor list builds = 66172
Dangerous builds not checked
Setting up Verlet run ...
  Unit style    : metal
  Current step  : 173334
  Time step     : 0.001
Per MPI rank memory allocation (min/avg/max) = 5.967 | 5.993 | 6.007 Mbytes
Step Temp Press TotEng PotEng Enthalpy 
  173334    2350.6129   -332.64719   -52997.996   -58968.767   -53059.314 
  173829    2302.8879    1028.2855    -53249.76   -59099.305   -53061.176 
Loop time of 19.0835 on 6 procs for 495 steps with 19652 atoms

Performance: 2.241 ns/day, 10.709 hours/ns, 25.939 timesteps/s
95.3% CPU use with 6 MPI tasks x no OpenMP threads

MPI task timing breakdown:
Section |  min time  |  avg time  |  max time  |%varavg| %total
---------------------------------------------------------------
Pair    | 10.155     | 10.419     | 10.675     |   6.6 | 54.59
Neigh   | 6.4403     | 7.124      | 7.8493     |  20.2 | 37.33
Comm    | 0.78596    | 1.3047     | 1.7279     |  29.2 |  6.84
Output  | 5.6028e-05 | 6.4532e-05 | 8.4162e-05 |   0.0 |  0.00
Modify  | 0.17035    | 0.18888    | 0.20411    |   2.8 |  0.99
Other   |            | 0.04731    |            |       |  0.25

Nlocal:    3275.33 ave 3296 max 3255 min
Histogram: 1 0 1 0 1 1 1 0 0 1
Nghost:    7706.83 ave 7735 max 7694 min
Histogram: 2 1 1 0 1 0 0 0 0 1
Neighs:    279350 ave 282681 max 276869 min
Histogram: 2 0 1 0 0 1 1 0 0 1

Total # of neighbors = 1676098
Ave neighs/atom = 85.2889
Neighbor list builds = 495
Dangerous builds not checked
Setting up Verlet run ...
  Unit style    : metal
  Current step  : 173829
  Time step     : 0.001
Per MPI rank memory allocation (min/avg/max) = 5.967 | 5.993 | 6.007 Mbytes
Step Temp Press TotEng PotEng Enthalpy 
  173829    2302.8879    1028.2855    -53249.76   -59099.305   -53061.176 
  200001    2311.9931     198.5698   -53236.359   -59109.033    -53199.91 
  240001    2279.9416    28.484231   -53374.779   -59166.039   -53369.561 
Loop time of 2427.24 on 6 procs for 66172 steps with 19652 atoms

Performance: 2.355 ns/day, 10.189 hours/ns, 27.262 timesteps/s
96.4% CPU use with 6 MPI tasks x no OpenMP threads

MPI task timing breakdown:
Section |  min time  |  avg time  |  max time  |%varavg| %total
---------------------------------------------------------------
Pair    | 1288.5     | 1309.1     | 1328.4     |  37.5 | 53.93
Neigh   | 894.98     | 926.73     | 958.56     |  69.6 | 38.18
Comm    | 113.64     | 158.23     | 172.09     | 162.0 |  6.52
Output  | 0.051081   | 0.051097   | 0.051142   |   0.0 |  0.00
Modify  | 26.165     | 27.312     | 28.389     |  13.8 |  1.13
Other   |            | 5.83       |            |       |  0.24

Nlocal:    3275.33 ave 3299 max 3251 min
Histogram: 2 0 0 1 0 0 0 1 1 1
Nghost:    7718.5 ave 7741 max 7677 min
Histogram: 1 0 1 0 0 0 0 0 2 2
Neighs:    279674 ave 284348 max 275252 min
Histogram: 1 0 1 1 0 1 0 1 0 1

Total # of neighbors = 1678041
Ave neighs/atom = 85.3878
Neighbor list builds = 66172
Dangerous builds not checked
Setting up Verlet run ...
  Unit style    : metal
  Current step  : 240001
  Time step     : 0.001
Per MPI rank memory allocation (min/avg/max) = 5.967 | 5.993 | 6.007 Mbytes
Step Temp Press TotEng PotEng Enthalpy 
  240001    2279.9416    28.484231   -53374.779   -59166.039   -53369.561 
  240496    2247.2843    210.75851   -53516.599   -59224.906   -53478.043 
Loop time of 22.5669 on 6 procs for 495 steps with 19652 atoms

Performance: 1.895 ns/day, 12.664 hours/ns, 21.935 timesteps/s
92.5% CPU use with 6 MPI tasks x no OpenMP threads

MPI task timing breakdown:
Section |  min time  |  avg time  |  max time  |%varavg| %total
---------------------------------------------------------------
Pair    | 12.01      | 12.57      | 12.799     |   7.6 | 55.70
Neigh   | 6.3096     | 7.159      | 9.3541     |  38.0 | 31.72
Comm    | 0.86205    | 2.5451     | 3.1788     |  50.2 | 11.28
Output  | 6.1035e-05 | 6.8863e-05 | 9.3937e-05 |   0.0 |  0.00
Modify  | 0.23236    | 0.24473    | 0.26955    |   2.4 |  1.08
Other   |            | 0.04822    |            |       |  0.21

Nlocal:    3275.33 ave 3299 max 3237 min
Histogram: 1 0 0 1 0 0 1 0 1 2
Nghost:    7748.83 ave 7781 max 7730 min
Histogram: 3 0 0 0 1 0 1 0 0 1
Neighs:    280075 ave 283252 max 276068 min
Histogram: 1 0 1 0 0 0 2 1 0 1

Total # of neighbors = 1680451
Ave neighs/atom = 85.5104
Neighbor list builds = 495
Dangerous builds not checked
Setting up Verlet run ...
  Unit style    : metal
  Current step  : 240496
  Time step     : 0.001
Per MPI rank memory allocation (min/avg/max) = 5.967 | 5.993 | 6.007 Mbytes
Step Temp Press TotEng PotEng Enthalpy 
  240496    2247.2843    210.75851   -53516.599   -59224.906   -53478.043 
  266668    2219.9349   -1269.3161   -53684.067   -59322.904   -53915.802 
  306668     2275.949    1930.1848   -53572.778   -59353.896   -53221.724 
Loop time of 2511.81 on 6 procs for 66172 steps with 19652 atoms

Performance: 2.276 ns/day, 10.544 hours/ns, 26.344 timesteps/s
96.4% CPU use with 6 MPI tasks x no OpenMP threads

MPI task timing breakdown:
Section |  min time  |  avg time  |  max time  |%varavg| %total
---------------------------------------------------------------
Pair    | 1336.4     | 1358.7     | 1375.8     |  38.5 | 54.09
Neigh   | 935.18     | 953.14     | 979.97     |  60.5 | 37.95
Comm    | 150.27     | 164.78     | 182.94     |  80.3 |  6.56
Output  | 0.076797   | 0.076816   | 0.076879   |   0.0 |  0.00
Modify  | 28.689     | 29.043     | 29.323     |   3.7 |  1.16
Other   |            | 6.081      |            |       |  0.24

Nlocal:    3275.33 ave 3295 max 3254 min
Histogram: 1 0 1 0 2 0 0 0 0 2
Nghost:    7736.17 ave 7782 max 7689 min
Histogram: 1 1 0 1 0 1 0 0 0 2
Neighs:    281754 ave 284780 max 278587 min
Histogram: 1 0 1 1 0 0 0 2 0 1

Total # of neighbors = 1690526
Ave neighs/atom = 86.0231
Neighbor list builds = 66172
Dangerous builds not checked
Setting up Verlet run ...
  Unit style    : metal
  Current step  : 306668
  Time step     : 0.001
Per MPI rank memory allocation (min/avg/max) = 5.967 | 5.993 | 6.007 Mbytes
Step Temp Press TotEng PotEng Enthalpy 
  306668     2275.949    1930.1848   -53572.778   -59353.896   -53221.724 
  307163    2202.7663    122.51441   -53785.388   -59380.616   -53763.091 
Loop time of 17.3986 on 6 procs for 495 steps with 19652 atoms

Performance: 2.458 ns/day, 9.764 hours/ns, 28.451 timesteps/s
96.7% CPU use with 6 MPI tasks x no OpenMP threads

MPI task timing breakdown:
Section |  min time  |  avg time  |  max time  |%varavg| %total
---------------------------------------------------------------
Pair    | 9.0818     | 9.279      | 9.4355     |   4.0 | 53.33
Neigh   | 6.2257     | 6.6119     | 7.1295     |  14.7 | 38.00
Comm    | 0.63408    | 1.0493     | 1.3739     |  29.4 |  6.03
Output  | 5.1022e-05 | 6.1234e-05 | 9.0122e-05 |   0.0 |  0.00
Modify  | 0.40533    | 0.41441    | 0.42875    |   1.3 |  2.38
Other   |            | 0.04389    |            |       |  0.25

Nlocal:    3275.33 ave 3293 max 3248 min
Histogram: 1 0 0 1 1 0 0 0 1 2
Nghost:    7760.17 ave 7797 max 7710 min
Histogram: 1 0 0 1 0 2 0 0 0 2
Neighs:    281450 ave 284273 max 279310 min
Histogram: 1 1 1 0 0 1 1 0 0 1

Total # of neighbors = 1688700
Ave neighs/atom = 85.9302
Neighbor list builds = 495
Dangerous builds not checked
Setting up Verlet run ...
  Unit style    : metal
  Current step  : 307163
  Time step     : 0.001
Per MPI rank memory allocation (min/avg/max) = 5.967 | 5.993 | 6.007 Mbytes
Step Temp Press TotEng PotEng Enthalpy 
  307163    2202.7663    122.51441   -53785.388   -59380.616   -53763.091 
  333335    2213.1003   -1143.3699   -53840.723     -59462.2   -54048.796 
  373335    2200.0477   -299.12486   -53886.822   -59475.144   -53941.151 
Loop time of 2546 on 6 procs for 66172 steps with 19652 atoms

Performance: 2.246 ns/day, 10.688 hours/ns, 25.991 timesteps/s
95.7% CPU use with 6 MPI tasks x no OpenMP threads

MPI task timing breakdown:
Section |  min time  |  avg time  |  max time  |%varavg| %total
---------------------------------------------------------------
Pair    | 1375.5     | 1385.2     | 1395       |  18.2 | 54.41
Neigh   | 902.34     | 936.55     | 961.11     |  61.6 | 36.79
Comm    | 171.06     | 188.69     | 221.26     | 118.5 |  7.41
Output  | 0.22498    | 0.225      | 0.22506    |   0.0 |  0.01
Modify  | 28.308     | 29.396     | 30.631     |  16.6 |  1.15
Other   |            | 5.91       |            |       |  0.23

Nlocal:    3275.33 ave 3305 max 3261 min
Histogram: 2 2 0 0 0 0 0 1 0 1
Nghost:    7765.33 ave 7785 max 7751 min
Histogram: 1 2 0 0 1 0 0 0 1 1
Neighs:    282177 ave 286960 max 278109 min
Histogram: 1 1 1 0 1 0 0 0 0 2

Total # of neighbors = 1693060
Ave neighs/atom = 86.152
Neighbor list builds = 66172
Dangerous builds not checked
Setting up Verlet run ...
  Unit style    : metal
  Current step  : 373335
  Time step     : 0.001
Per MPI rank memory allocation (min/avg/max) = 5.967 | 5.993 | 6.007 Mbytes
Step Temp Press TotEng PotEng Enthalpy 
  373335    2200.0477   -299.12486   -53886.822   -59475.144   -53941.151 
  373830    2153.4731    658.85651   -54063.137   -59533.155   -53943.881 
Loop time of 18.0393 on 6 procs for 495 steps with 19652 atoms

Performance: 2.371 ns/day, 10.123 hours/ns, 27.440 timesteps/s
96.3% CPU use with 6 MPI tasks x no OpenMP threads

MPI task timing breakdown:
Section |  min time  |  avg time  |  max time  |%varavg| %total
---------------------------------------------------------------
Pair    | 9.5499     | 9.7532     | 9.9402     |   4.7 | 54.07
Neigh   | 6.5159     | 6.9865     | 7.4197     |  12.0 | 38.73
Comm    | 0.70784    | 1.0635     | 1.3593     |  24.4 |  5.90
Output  | 5.0068e-05 | 6.179e-05  | 9.3222e-05 |   0.0 |  0.00
Modify  | 0.18191    | 0.19177    | 0.19868    |   1.3 |  1.06
Other   |            | 0.0442     |            |       |  0.25

Nlocal:    3275.33 ave 3307 max 3256 min
Histogram: 2 1 0 1 0 0 1 0 0 1
Nghost:    7747.5 ave 7803 max 7707 min
Histogram: 1 0 2 0 1 1 0 0 0 1
Neighs:    283072 ave 289584 max 278307 min
Histogram: 1 1 0 2 0 0 1 0 0 1

Total # of neighbors = 1698433
Ave neighs/atom = 86.4255
Neighbor list builds = 495
Dangerous builds not checked
Setting up Verlet run ...
  Unit style    : metal
  Current step  : 373830
  Time step     : 0.001
Per MPI rank memory allocation (min/avg/max) = 5.967 | 5.993 | 6.007 Mbytes
Step Temp Press TotEng PotEng Enthalpy 
  373830    2153.4731    658.85651   -54063.137   -59533.155   -53943.881 
  400002     2145.369    1317.4663   -54195.656   -59645.088   -53958.049 
  440002    2159.2639   -124.36393   -54156.255   -59640.982   -54178.734 
Loop time of 2578.92 on 6 procs for 66172 steps with 19652 atoms

Performance: 2.217 ns/day, 10.826 hours/ns, 25.659 timesteps/s
95.7% CPU use with 6 MPI tasks x no OpenMP threads

MPI task timing breakdown:
Section |  min time  |  avg time  |  max time  |%varavg| %total
---------------------------------------------------------------
Pair    | 1354.6     | 1377.5     | 1399.2     |  39.5 | 53.42
Neigh   | 943.62     | 978.77     | 1027.2     |  99.8 | 37.95
Comm    | 141.09     | 179.1      | 218.53     | 199.0 |  6.94
Output  | 0.12075    | 0.12077    | 0.12083    |   0.0 |  0.00
Modify  | 31.928     | 37.334     | 40.12      |  55.1 |  1.45
Other   |            | 6.045      |            |       |  0.23

Nlocal:    3275.33 ave 3310 max 3254 min
Histogram: 2 0 1 0 1 1 0 0 0 1
Nghost:    7772.5 ave 7807 max 7749 min
Histogram: 2 0 1 0 0 1 1 0 0 1
Neighs:    283332 ave 289623 max 278230 min
Histogram: 1 1 0 2 0 0 0 1 0 1

Total # of neighbors = 1699995
Ave neighs/atom = 86.5049
Neighbor list builds = 66172
Dangerous builds not checked
Setting up Verlet run ...
  Unit style    : metal
  Current step  : 440002
  Time step     : 0.001
Per MPI rank memory allocation (min/avg/max) = 5.967 | 5.993 | 6.007 Mbytes
Step Temp Press TotEng PotEng Enthalpy 
  440002    2159.2639   -124.36393   -54156.255   -59640.982   -54178.734 
  440497    2131.5902    890.60834   -54370.668   -59785.101   -54210.469 
Loop time of 18.7875 on 6 procs for 495 steps with 19652 atoms

Performance: 2.276 ns/day, 10.543 hours/ns, 26.347 timesteps/s
96.3% CPU use with 6 MPI tasks x no OpenMP threads

MPI task timing breakdown:
Section |  min time  |  avg time  |  max time  |%varavg| %total
---------------------------------------------------------------
Pair    | 9.8599     | 10.103     | 10.334     |   5.4 | 53.77
Neigh   | 6.51       | 7.025      | 7.5363     |  14.8 | 37.39
Comm    | 0.84894    | 1.4156     | 1.7572     |  30.7 |  7.53
Output  | 5.1022e-05 | 6.2585e-05 | 0.00010085 |   0.0 |  0.00
Modify  | 0.17069    | 0.19409    | 0.20606    |   2.6 |  1.03
Other   |            | 0.0498     |            |       |  0.27

Nlocal:    3275.33 ave 3297 max 3254 min
Histogram: 1 0 0 2 0 1 1 0 0 1
Nghost:    7789 ave 7796 max 7771 min
Histogram: 1 0 0 0 0 0 1 0 2 2
Neighs:    284741 ave 289023 max 280987 min
Histogram: 1 1 1 0 0 0 1 1 0 1

Total # of neighbors = 1708446
Ave neighs/atom = 86.935
Neighbor list builds = 495
Dangerous builds not checked
Setting up Verlet run ...
  Unit style    : metal
  Current step  : 440497
  Time step     : 0.001
Per MPI rank memory allocation (min/avg/max) = 5.967 | 5.993 | 6.007 Mbytes
Step Temp Press TotEng PotEng Enthalpy 
  440497    2131.5902    890.60834   -54370.668   -59785.101   -54210.469 
  466669    2108.3226   -235.92191   -54454.549    -59809.88   -54496.959 
  506669     2105.963   -865.73124   -54397.608   -59746.946   -54553.642 
Loop time of 2637.1 on 6 procs for 66172 steps with 19652 atoms

Performance: 2.168 ns/day, 11.070 hours/ns, 25.093 timesteps/s
95.6% CPU use with 6 MPI tasks x no OpenMP threads

MPI task timing breakdown:
Section |  min time  |  avg time  |  max time  |%varavg| %total
---------------------------------------------------------------
Pair    | 1414.6     | 1428.7     | 1443.9     |  27.9 | 54.18
Neigh   | 943.83     | 968.55     | 990.08     |  56.4 | 36.73
Comm    | 176.41     | 200.43     | 232.65     | 138.2 |  7.60
Output  | 0.03914    | 0.039155   | 0.039219   |   0.0 |  0.00
Modify  | 32.475     | 33.09      | 33.691     |   7.2 |  1.25
Other   |            | 6.253      |            |       |  0.24

Nlocal:    3275.33 ave 3296 max 3258 min
Histogram: 1 0 0 2 1 0 1 0 0 1
Nghost:    7772.33 ave 7792 max 7754 min
Histogram: 1 1 1 0 0 0 1 1 0 1
Neighs:    284175 ave 288957 max 280697 min
Histogram: 1 0 1 1 2 0 0 0 0 1

Total # of neighbors = 1705052
Ave neighs/atom = 86.7623
Neighbor list builds = 66172
Dangerous builds not checked
Setting up Verlet run ...
  Unit style    : metal
  Current step  : 506669
  Time step     : 0.001
Per MPI rank memory allocation (min/avg/max) = 5.967 | 5.993 | 6.007 Mbytes
Step Temp Press TotEng PotEng Enthalpy 
  506669     2105.963   -865.73124   -54397.608   -59746.946   -54553.642 
  507164    2073.5219    29.963866   -54682.456   -59949.391   -54677.094 
Loop time of 17.9532 on 6 procs for 495 steps with 19652 atoms

Performance: 2.382 ns/day, 10.075 hours/ns, 27.572 timesteps/s
97.1% CPU use with 6 MPI tasks x no OpenMP threads

MPI task timing breakdown:
Section |  min time  |  avg time  |  max time  |%varavg| %total
---------------------------------------------------------------
Pair    | 9.5539     | 9.7223     | 9.8923     |   4.2 | 54.15
Neigh   | 6.2004     | 6.8325     | 7.2687     |  16.2 | 38.06
Comm    | 0.78188    | 1.1601     | 1.6156     |  32.5 |  6.46
Output  | 4.8161e-05 | 6.1234e-05 | 0.00010014 |   0.0 |  0.00
Modify  | 0.17836    | 0.19202    | 0.21258    |   2.4 |  1.07
Other   |            | 0.04626    |            |       |  0.26

Nlocal:    3275.33 ave 3292 max 3244 min
Histogram: 1 0 0 0 0 1 1 0 2 1
Nghost:    7787.17 ave 7814 max 7772 min
Histogram: 2 1 0 0 1 1 0 0 0 1
Neighs:    286220 ave 289693 max 282321 min
Histogram: 1 0 0 0 0 4 0 0 0 1

Total # of neighbors = 1717318
Ave neighs/atom = 87.3864
Neighbor list builds = 495
Dangerous builds not checked
Setting up Verlet run ...
  Unit style    : metal
  Current step  : 507164
  Time step     : 0.001
Per MPI rank memory allocation (min/avg/max) = 5.967 | 5.993 | 6.007 Mbytes
Step Temp Press TotEng PotEng Enthalpy 
  507164    2073.5219    29.963866   -54682.456   -59949.391   -54677.094 
  533336    2045.8667   -1989.5636    -54786.54   -59983.228   -55143.009 
  573336    2068.9971      -105.86   -54626.877   -59882.318   -54645.859 
Loop time of 2495.74 on 6 procs for 66172 steps with 19652 atoms

Performance: 2.291 ns/day, 10.477 hours/ns, 26.514 timesteps/s
96.6% CPU use with 6 MPI tasks x no OpenMP threads

MPI task timing breakdown:
Section |  min time  |  avg time  |  max time  |%varavg| %total
---------------------------------------------------------------
Pair    | 1330.8     | 1359.3     | 1379.3     |  51.0 | 54.46
Neigh   | 889.04     | 958.77     | 1027.4     | 149.2 | 38.42
Comm    | 98.33      | 146.06     | 203.72     | 269.8 |  5.85
Output  | 0.078805   | 0.078823   | 0.078877   |   0.0 |  0.00
Modify  | 24.252     | 25.415     | 26.519     |  14.0 |  1.02
Other   |            | 6.136      |            |       |  0.25

Nlocal:    3275.33 ave 3301 max 3228 min
Histogram: 1 0 0 0 0 1 1 1 1 1
Nghost:    7809 ave 7839 max 7759 min
Histogram: 1 0 0 0 0 2 0 1 0 2
Neighs:    285588 ave 290890 max 277870 min
Histogram: 1 0 0 0 1 1 1 0 1 1

Total # of neighbors = 1713530
Ave neighs/atom = 87.1937
Neighbor list builds = 66172
Dangerous builds not checked
Setting up Verlet run ...
  Unit style    : metal
  Current step  : 573336
  Time step     : 0.001
Per MPI rank memory allocation (min/avg/max) = 5.967 | 5.993 | 6.007 Mbytes
Step Temp Press TotEng PotEng Enthalpy 
  573336    2068.9971      -105.86   -54626.877   -59882.318   -54645.859 
  573831    2013.0843    688.91986   -54959.109   -60072.526   -54836.369 
Loop time of 18.0832 on 6 procs for 495 steps with 19652 atoms

Performance: 2.365 ns/day, 10.148 hours/ns, 27.374 timesteps/s
97.1% CPU use with 6 MPI tasks x no OpenMP threads

MPI task timing breakdown:
Section |  min time  |  avg time  |  max time  |%varavg| %total
---------------------------------------------------------------
Pair    | 9.5084     | 9.8051     | 9.9321     |   4.4 | 54.22
Neigh   | 6.2606     | 6.8677     | 7.4163     |  16.6 | 37.98
Comm    | 0.82255    | 1.1677     | 1.7699     |  34.5 |  6.46
Output  | 4.9114e-05 | 5.9644e-05 | 9.4175e-05 |   0.0 |  0.00
Modify  | 0.18229    | 0.19643    | 0.21066    |   2.3 |  1.09
Other   |            | 0.04619    |            |       |  0.26

Nlocal:    3275.33 ave 3303 max 3256 min
Histogram: 2 1 0 0 1 0 0 0 1 1
Nghost:    7800 ave 7815 max 7782 min
Histogram: 1 0 1 0 1 1 0 0 0 2
Neighs:    287428 ave 292767 max 283278 min
Histogram: 1 0 0 3 0 1 0 0 0 1

Total # of neighbors = 1724568
Ave neighs/atom = 87.7553
Neighbor list builds = 495
Dangerous builds not checked
Setting up Verlet run ...
  Unit style    : metal
  Current step  : 573831
  Time step     : 0.001
Per MPI rank memory allocation (min/avg/max) = 5.967 | 5.993 | 6.007 Mbytes
Step Temp Press TotEng PotEng Enthalpy 
  573831    2013.0843    688.91986   -54959.109   -60072.526   -54836.369 
  600003    2002.2212    1011.2456   -55018.825   -60104.649   -54838.856 
  640003    2000.6116   -579.78957   -55065.477   -60147.213   -55168.715 
Loop time of 2606.47 on 6 procs for 66172 steps with 19652 atoms

Performance: 2.193 ns/day, 10.941 hours/ns, 25.388 timesteps/s
96.4% CPU use with 6 MPI tasks x no OpenMP threads

MPI task timing breakdown:
Section |  min time  |  avg time  |  max time  |%varavg| %total
---------------------------------------------------------------
Pair    | 1405.9     | 1427.5     | 1447.7     |  34.2 | 54.77
Neigh   | 915.15     | 964.68     | 1025.7     | 107.3 | 37.01
Comm    | 138.07     | 176.45     | 231.02     | 236.2 |  6.77
Output  | 0.10825    | 0.10826    | 0.10832    |   0.0 |  0.00
Modify  | 29.942     | 31.453     | 32.803     |  19.9 |  1.21
Other   |            | 6.253      |            |       |  0.24

Nlocal:    3275.33 ave 3291 max 3253 min
Histogram: 1 0 0 0 0 2 1 0 1 1
Nghost:    7821 ave 7841 max 7783 min
Histogram: 1 0 0 0 0 0 2 1 1 1
Neighs:    287494 ave 291919 max 283192 min
Histogram: 1 0 1 0 1 1 1 0 0 1

Total # of neighbors = 1724964
Ave neighs/atom = 87.7755
Neighbor list builds = 66172
Dangerous builds not checked
Setting up Verlet run ...
  Unit style    : metal
  Current step  : 640003
  Time step     : 0.001
Per MPI rank memory allocation (min/avg/max) = 5.967 | 5.993 | 6.007 Mbytes
Step Temp Press TotEng PotEng Enthalpy 
  640003    2000.6116   -579.78957   -55065.477   -60147.213   -55168.715 
  640498    1961.1828   -373.92174   -55257.924   -60239.507   -55324.302 
Loop time of 18.2691 on 6 procs for 495 steps with 19652 atoms

Performance: 2.341 ns/day, 10.252 hours/ns, 27.095 timesteps/s
97.1% CPU use with 6 MPI tasks x no OpenMP threads

MPI task timing breakdown:
Section |  min time  |  avg time  |  max time  |%varavg| %total
---------------------------------------------------------------
Pair    | 9.6394     | 9.8668     | 10.013     |   3.7 | 54.01
Neigh   | 7.0017     | 7.2415     | 7.4833     |   8.2 | 39.64
Comm    | 0.52283    | 0.92004    | 1.1406     |  22.8 |  5.04
Output  | 4.9114e-05 | 6.0717e-05 | 0.00010014 |   0.0 |  0.00
Modify  | 0.18339    | 0.19491    | 0.20288    |   1.9 |  1.07
Other   |            | 0.04588    |            |       |  0.25

Nlocal:    3275.33 ave 3290 max 3254 min
Histogram: 1 1 0 0 0 0 1 0 1 2
Nghost:    7833.17 ave 7863 max 7801 min
Histogram: 2 0 1 0 0 0 0 1 0 2
Neighs:    288347 ave 291462 max 285107 min
Histogram: 1 0 1 1 1 0 0 0 0 2

Total # of neighbors = 1730081
Ave neighs/atom = 88.0359
Neighbor list builds = 495
Dangerous builds not checked
Setting up Verlet run ...
  Unit style    : metal
  Current step  : 640498
  Time step     : 0.001
Per MPI rank memory allocation (min/avg/max) = 5.967 | 5.993 | 6.007 Mbytes
Step Temp Press TotEng PotEng Enthalpy 
  640498    1961.1828   -373.92174   -55257.924   -60239.507   -55324.302 
  666670    1950.8783   -1204.2018     -55285.5   -60240.909   -55499.429 
  706670    1959.4753    478.92598   -55353.783   -60331.029   -55269.107 
Loop time of 2709.46 on 6 procs for 66172 steps with 19652 atoms

Performance: 2.110 ns/day, 11.374 hours/ns, 24.423 timesteps/s
95.5% CPU use with 6 MPI tasks x no OpenMP threads

MPI task timing breakdown:
Section |  min time  |  avg time  |  max time  |%varavg| %total
---------------------------------------------------------------
Pair    | 1458.4     | 1469.8     | 1481.6     |  20.6 | 54.25
Neigh   | 944.8      | 994.6      | 1026.5     |  81.5 | 36.71
Comm    | 155.63     | 199.67     | 244.08     | 201.0 |  7.37
Output  | 0.12903    | 0.12905    | 0.12911    |   0.0 |  0.00
Modify  | 38.352     | 38.988     | 39.881     |   7.8 |  1.44
Other   |            | 6.286      |            |       |  0.23

Nlocal:    3275.33 ave 3293 max 3249 min
Histogram: 1 0 0 0 1 0 2 0 0 2
Nghost:    7844.67 ave 7862 max 7832 min
Histogram: 2 1 0 0 0 1 0 0 1 1
Neighs:    289435 ave 293457 max 285124 min
Histogram: 1 0 1 1 0 0 0 2 0 1

Total # of neighbors = 1736610
Ave neighs/atom = 88.3681
Neighbor list builds = 66172
Dangerous builds not checked
Setting up Verlet run ...
  Unit style    : metal
  Current step  : 706670
  Time step     : 0.001
Per MPI rank memory allocation (min/avg/max) = 5.967 | 5.993 | 6.007 Mbytes
Step Temp Press TotEng PotEng Enthalpy 
  706670    1959.4753    478.92598   -55353.783   -60331.029   -55269.107 
  707165    1915.8279    318.78675    -55512.14   -60378.517   -55455.835 
Loop time of 18.0926 on 6 procs for 495 steps with 19652 atoms

Performance: 2.364 ns/day, 10.153 hours/ns, 27.359 timesteps/s
97.1% CPU use with 6 MPI tasks x no OpenMP threads

MPI task timing breakdown:
Section |  min time  |  avg time  |  max time  |%varavg| %total
---------------------------------------------------------------
Pair    | 9.4393     | 9.8002     | 10.008     |   7.0 | 54.17
Neigh   | 6.3537     | 7.0879     | 7.3702     |  13.4 | 39.18
Comm    | 0.49164    | 0.9835     | 1.6128     |  35.2 |  5.44
Output  | 4.9114e-05 | 6.0717e-05 | 0.00010395 |   0.0 |  0.00
Modify  | 0.1615     | 0.1751     | 0.1826     |   1.6 |  0.97
Other   |            | 0.04587    |            |       |  0.25

Nlocal:    3275.33 ave 3281 max 3263 min
Histogram: 1 0 0 0 0 0 2 0 1 2
Nghost:    7848.33 ave 7870 max 7820 min
Histogram: 1 0 0 0 1 1 1 0 1 1
Neighs:    289801 ave 291989 max 286350 min
Histogram: 1 0 0 1 0 1 0 0 2 1

Total # of neighbors = 1738804
Ave neighs/atom = 88.4797
Neighbor list builds = 495
Dangerous builds not checked
Setting up Verlet run ...
  Unit style    : metal
  Current step  : 707165
  Time step     : 0.001
Per MPI rank memory allocation (min/avg/max) = 5.967 | 5.993 | 6.007 Mbytes
Step Temp Press TotEng PotEng Enthalpy 
  707165    1915.8279    318.78675    -55512.14   -60378.517   -55455.835 
  733337     1902.826   -368.29534   -55614.458    -60447.81   -55679.406 
  773337    1905.6018   -133.35553    -55626.51   -60466.912   -55650.016 
Loop time of 2569.55 on 6 procs for 66172 steps with 19652 atoms

Performance: 2.225 ns/day, 10.786 hours/ns, 25.752 timesteps/s
96.0% CPU use with 6 MPI tasks x no OpenMP threads

MPI task timing breakdown:
Section |  min time  |  avg time  |  max time  |%varavg| %total
---------------------------------------------------------------
Pair    | 1382.3     | 1418.6     | 1432.9     |  44.8 | 55.21
Neigh   | 896.76     | 947.63     | 979.75     |  96.9 | 36.88
Comm    | 129.95     | 170.2      | 207.8      | 216.6 |  6.62
Output  | 0.038157   | 0.038181   | 0.038257   |   0.0 |  0.00
Modify  | 25.63      | 26.894     | 27.565     |  13.2 |  1.05
Other   |            | 6.189      |            |       |  0.24

Nlocal:    3275.33 ave 3293 max 3254 min
Histogram: 1 0 2 0 0 0 0 0 0 3
Nghost:    7857.67 ave 7879 max 7835 min
Histogram: 2 0 0 0 1 0 0 1 1 1
Neighs:    290445 ave 293677 max 287115 min
Histogram: 2 0 0 1 0 0 0 0 2 1

Total # of neighbors = 1742668
Ave neighs/atom = 88.6764
Neighbor list builds = 66172
Dangerous builds not checked
Setting up Verlet run ...
  Unit style    : metal
  Current step  : 773337
  Time step     : 0.001
Per MPI rank memory allocation (min/avg/max) = 5.967 | 5.993 | 6.007 Mbytes
Step Temp Press TotEng PotEng Enthalpy 
  773337    1905.6018   -133.35553    -55626.51   -60466.912   -55650.016 
  773832    1855.5911    1488.5041   -55831.128   -60544.498   -55569.857 
Loop time of 19.0987 on 6 procs for 495 steps with 19652 atoms

Performance: 2.239 ns/day, 10.718 hours/ns, 25.918 timesteps/s
96.8% CPU use with 6 MPI tasks x no OpenMP threads

MPI task timing breakdown:
Section |  min time  |  avg time  |  max time  |%varavg| %total
---------------------------------------------------------------
Pair    | 10.339     | 10.45      | 10.602     |   2.8 | 54.72
Neigh   | 7.2048     | 7.4507     | 7.5945     |   5.4 | 39.01
Comm    | 0.70862    | 0.93958    | 1.1949     |  16.0 |  4.92
Output  | 5.3883e-05 | 6.3062e-05 | 9.7036e-05 |   0.0 |  0.00
Modify  | 0.19483    | 0.21002    | 0.22818    |   2.8 |  1.10
Other   |            | 0.04815    |            |       |  0.25

Nlocal:    3275.33 ave 3294 max 3241 min
Histogram: 1 0 0 0 0 0 3 0 0 2
Nghost:    7897.5 ave 7951 max 7866 min
Histogram: 1 1 1 1 0 1 0 0 0 1
Neighs:    291767 ave 294131 max 286525 min
Histogram: 1 0 0 0 1 0 0 0 2 2

Total # of neighbors = 1750602
Ave neighs/atom = 89.0801
Neighbor list builds = 495
Dangerous builds not checked
Setting up Verlet run ...
  Unit style    : metal
  Current step  : 773832
  Time step     : 0.001
Per MPI rank memory allocation (min/avg/max) = 5.967 | 5.993 | 6.007 Mbytes
Step Temp Press TotEng PotEng Enthalpy 
  773832    1855.5911    1488.5041   -55831.128   -60544.498   -55569.857 
  800004    1845.2858    992.60411    -55878.43   -60565.624   -55704.141 
  840004    1843.3388    1076.5923   -55985.012   -60667.261   -55796.592 
Loop time of 2658.67 on 6 procs for 66172 steps with 19652 atoms

Performance: 2.150 ns/day, 11.161 hours/ns, 24.889 timesteps/s
96.6% CPU use with 6 MPI tasks x no OpenMP threads

MPI task timing breakdown:
Section |  min time  |  avg time  |  max time  |%varavg| %total
---------------------------------------------------------------
Pair    | 1419.3     | 1441.2     | 1477       |  55.0 | 54.21
Neigh   | 995.99     | 1013.4     | 1028.2     |  40.6 | 38.12
Comm    | 148.86     | 166.06     | 193.73     | 110.0 |  6.25
Output  | 0.037533   | 0.037547   | 0.0376     |   0.0 |  0.00
Modify  | 30.205     | 31.495     | 32.489     |  13.5 |  1.18
Other   |            | 6.488      |            |       |  0.24

Nlocal:    3275.33 ave 3290 max 3262 min
Histogram: 1 1 0 1 0 1 0 0 1 1
Nghost:    7876.5 ave 7893 max 7857 min
Histogram: 1 0 0 1 1 0 1 0 1 1
Neighs:    292439 ave 294533 max 290100 min
Histogram: 1 1 0 0 0 2 0 0 1 1

Total # of neighbors = 1754635
Ave neighs/atom = 89.2853
Neighbor list builds = 66172
Dangerous builds not checked
Setting up Verlet run ...
  Unit style    : metal
  Current step  : 840004
  Time step     : 0.001
Per MPI rank memory allocation (min/avg/max) = 5.967 | 5.993 | 6.007 Mbytes
Step Temp Press TotEng PotEng Enthalpy 
  840004    1843.3388    1076.5923   -55985.012   -60667.261   -55796.592 
  840499    1817.2549   -320.49355   -56138.711   -60754.704   -56194.731 
Loop time of 18.8518 on 6 procs for 495 steps with 19652 atoms

Performance: 2.269 ns/day, 10.579 hours/ns, 26.257 timesteps/s
97.1% CPU use with 6 MPI tasks x no OpenMP threads

MPI task timing breakdown:
Section |  min time  |  avg time  |  max time  |%varavg| %total
---------------------------------------------------------------
Pair    | 9.8988     | 10.163     | 10.747     |   9.0 | 53.91
Neigh   | 6.5155     | 7.2534     | 7.5935     |  13.1 | 38.48
Comm    | 0.63744    | 1.1788     | 1.9441     |  37.0 |  6.25
Output  | 6.0081e-05 | 6.9141e-05 | 9.9897e-05 |   0.0 |  0.00
Modify  | 0.19536    | 0.20792    | 0.22353    |   2.0 |  1.10
Other   |            | 0.04909    |            |       |  0.26

Nlocal:    3275.33 ave 3293 max 3261 min
Histogram: 2 0 0 1 0 0 2 0 0 1
Nghost:    7884.83 ave 7910 max 7864 min
Histogram: 1 1 0 2 0 0 0 0 0 2
Neighs:    292769 ave 295961 max 290022 min
Histogram: 1 0 0 1 2 1 0 0 0 1

Total # of neighbors = 1756612
Ave neighs/atom = 89.3859
Neighbor list builds = 495
Dangerous builds not checked
Setting up Verlet run ...
  Unit style    : metal
  Current step  : 840499
  Time step     : 0.001
Per MPI rank memory allocation (min/avg/max) = 5.967 | 5.993 | 6.007 Mbytes
Step Temp Press TotEng PotEng Enthalpy 
  840499    1817.2549   -320.49355   -56138.711   -60754.704   -56194.731 
  866671    1807.3323    1783.8764   -56220.397   -60811.186   -55909.716 
  906671    1794.5412   -520.85212   -56195.642    -60753.94    -56286.77 
Loop time of 2594.24 on 6 procs for 66172 steps with 19652 atoms

Performance: 2.204 ns/day, 10.890 hours/ns, 25.507 timesteps/s
96.5% CPU use with 6 MPI tasks x no OpenMP threads

MPI task timing breakdown:
Section |  min time  |  avg time  |  max time  |%varavg| %total
---------------------------------------------------------------
Pair    | 1393.6     | 1413.9     | 1439       |  38.5 | 54.50
Neigh   | 944.98     | 975.59     | 1007.4     |  68.8 | 37.61
Comm    | 135.14     | 170.05     | 221.09     | 226.6 |  6.56
Output  | 0.099802   | 0.09982    | 0.099885   |   0.0 |  0.00
Modify  | 27.522     | 28.271     | 29.536     |  13.1 |  1.09
Other   |            | 6.337      |            |       |  0.24

Nlocal:    3275.33 ave 3310 max 3247 min
Histogram: 2 0 0 1 1 0 0 0 1 1
Nghost:    7876.33 ave 7906 max 7846 min
Histogram: 1 0 1 0 1 1 0 0 1 1
Neighs:    292468 ave 298479 max 288228 min
Histogram: 1 1 2 0 0 0 0 1 0 1

Total # of neighbors = 1754810
Ave neighs/atom = 89.2942
Neighbor list builds = 66172
Dangerous builds not checked
Setting up Verlet run ...
  Unit style    : metal
  Current step  : 906671
  Time step     : 0.001
Per MPI rank memory allocation (min/avg/max) = 5.967 | 5.993 | 6.007 Mbytes
Step Temp Press TotEng PotEng Enthalpy 
  906671    1794.5412   -520.85212   -56195.642    -60753.94    -56286.77 
  907166    1759.9176    80.337514   -56438.313   -60908.664   -56424.338 
Loop time of 17.5772 on 6 procs for 495 steps with 19652 atoms

Performance: 2.433 ns/day, 9.864 hours/ns, 28.161 timesteps/s
97.1% CPU use with 6 MPI tasks x no OpenMP threads

MPI task timing breakdown:
Section |  min time  |  avg time  |  max time  |%varavg| %total
---------------------------------------------------------------
Pair    | 9.2493     | 9.602      | 9.8306     |   6.7 | 54.63
Neigh   | 6.3339     | 6.7624     | 7.3323     |  16.2 | 38.47
Comm    | 0.53602    | 0.99488    | 1.3701     |  32.2 |  5.66
Output  | 5.9843e-05 | 7.0969e-05 | 0.00010896 |   0.0 |  0.00
Modify  | 0.15636    | 0.17256    | 0.19       |   2.5 |  0.98
Other   |            | 0.04537    |            |       |  0.26

Nlocal:    3275.33 ave 3304 max 3247 min
Histogram: 1 0 1 0 2 0 0 0 1 1
Nghost:    7925.67 ave 7944 max 7906 min
Histogram: 1 1 0 0 1 0 1 0 1 1
Neighs:    294199 ave 299335 max 289292 min
Histogram: 1 0 1 1 0 1 0 0 1 1

Total # of neighbors = 1765196
Ave neighs/atom = 89.8227
Neighbor list builds = 495
Dangerous builds not checked
Setting up Verlet run ...
  Unit style    : metal
  Current step  : 907166
  Time step     : 0.001
Per MPI rank memory allocation (min/avg/max) = 5.967 | 5.993 | 6.007 Mbytes
Step Temp Press TotEng PotEng Enthalpy 
  907166    1759.9176    80.337514   -56438.313   -60908.664   -56424.338 
  933338      1753.85    156.56211   -56550.813   -61005.752   -56523.661 
  973338    1749.5168   -1217.7181   -56548.811   -60992.743   -56760.485 
Loop time of 2541.78 on 6 procs for 66172 steps with 19652 atoms

Performance: 2.249 ns/day, 10.670 hours/ns, 26.034 timesteps/s
96.5% CPU use with 6 MPI tasks x no OpenMP threads

MPI task timing breakdown:
Section |  min time  |  avg time  |  max time  |%varavg| %total
---------------------------------------------------------------
Pair    | 1359.1     | 1396.4     | 1431.7     |  56.9 | 54.94
Neigh   | 918.93     | 962.93     | 1020.1     | 116.1 | 37.88
Comm    | 117.67     | 146.82     | 182.2      | 177.6 |  5.78
Output  | 0.032385   | 0.032402   | 0.032459   |   0.0 |  0.00
Modify  | 27.316     | 29.347     | 30.679     |  23.4 |  1.15
Other   |            | 6.227      |            |       |  0.24

Nlocal:    3275.33 ave 3309 max 3257 min
Histogram: 2 0 1 1 1 0 0 0 0 1
Nghost:    7896 ave 7923 max 7871 min
Histogram: 2 0 0 0 0 2 0 1 0 1
Neighs:    294261 ave 297734 max 291202 min
Histogram: 1 1 0 1 1 0 0 1 0 1

Total # of neighbors = 1765564
Ave neighs/atom = 89.8414
Neighbor list builds = 66172
Dangerous builds not checked
Setting up Verlet run ...
  Unit style    : metal
  Current step  : 973338
  Time step     : 0.001
Per MPI rank memory allocation (min/avg/max) = 5.967 | 5.993 | 6.007 Mbytes
Step Temp Press TotEng PotEng Enthalpy 
  973338    1749.5168   -1217.7181   -56548.811   -60992.743   -56760.485 
  973833    1706.7034   -559.21844   -56730.358    -61065.54   -56827.275 
Loop time of 18.2016 on 6 procs for 495 steps with 19652 atoms

Performance: 2.350 ns/day, 10.214 hours/ns, 27.195 timesteps/s
97.0% CPU use with 6 MPI tasks x no OpenMP threads

MPI task timing breakdown:
Section |  min time  |  avg time  |  max time  |%varavg| %total
---------------------------------------------------------------
Pair    | 9.8777     | 9.9641     | 10.182     |   3.5 | 54.74
Neigh   | 6.3482     | 7.1359     | 7.512      |  14.2 | 39.20
Comm    | 0.55846    | 0.86361    | 1.4324     |  30.2 |  4.74
Output  | 5.4836e-05 | 6.4015e-05 | 9.9182e-05 |   0.0 |  0.00
Modify  | 0.18368    | 0.18958    | 0.19647    |   1.0 |  1.04
Other   |            | 0.04833    |            |       |  0.27

Nlocal:    3275.33 ave 3286 max 3264 min
Histogram: 1 0 0 1 1 0 2 0 0 1
Nghost:    7940.67 ave 7990 max 7909 min
Histogram: 1 1 2 0 0 0 1 0 0 1
Neighs:    295142 ave 298504 max 292180 min
Histogram: 1 0 0 1 1 2 0 0 0 1

Total # of neighbors = 1770851
Ave neighs/atom = 90.1105
Neighbor list builds = 495
Dangerous builds not checked
Setting up Verlet run ...
  Unit style    : metal
  Current step  : 973833
  Time step     : 0.001
Per MPI rank memory allocation (min/avg/max) = 5.967 | 5.993 | 6.007 Mbytes
Step Temp Press TotEng PotEng Enthalpy 
  973833    1706.7034   -559.21844   -56730.358    -61065.54   -56827.275 
 1000005    1717.7198   -126.22911   -56784.186   -61147.351   -56806.016 
 1040005    1702.6468   -686.43013   -56788.309   -61113.187   -56907.188 
Loop time of 2532.05 on 6 procs for 66172 steps with 19652 atoms

Performance: 2.258 ns/day, 10.629 hours/ns, 26.134 timesteps/s
96.7% CPU use with 6 MPI tasks x no OpenMP threads

MPI task timing breakdown:
Section |  min time  |  avg time  |  max time  |%varavg| %total
---------------------------------------------------------------
Pair    | 1385.2     | 1399.4     | 1417.9     |  31.3 | 55.27
Neigh   | 901.87     | 950.49     | 1009.2     | 133.3 | 37.54
Comm    | 104.79     | 149.22     | 190.79     | 267.0 |  5.89
Output  | 0.028114   | 0.028131   | 0.028192   |   0.0 |  0.00
Modify  | 25.497     | 26.71      | 27.826     |  14.1 |  1.05
Other   |            | 6.206      |            |       |  0.25

Nlocal:    3275.33 ave 3290 max 3264 min
Histogram: 1 1 0 1 0 1 1 0 0 1
Nghost:    7878.83 ave 7899 max 7864 min
Histogram: 1 0 1 1 1 1 0 0 0 1
Neighs:    295333 ave 297689 max 293699 min
Histogram: 2 0 0 1 0 2 0 0 0 1

Total # of neighbors = 1771997
Ave neighs/atom = 90.1688
Neighbor list builds = 66172
Dangerous builds not checked
Setting up Verlet run ...
  Unit style    : metal
  Current step  : 1040005
  Time step     : 0.001
Per MPI rank memory allocation (min/avg/max) = 5.967 | 5.993 | 6.007 Mbytes
Step Temp Press TotEng PotEng Enthalpy 
 1040005    1702.6468   -686.43013   -56788.309   -61113.187   -56907.188 
 1040500    1678.6501    -23.39145   -56999.322   -61263.246   -57003.352 
Loop time of 17.9645 on 6 procs for 495 steps with 19652 atoms

Performance: 2.381 ns/day, 10.081 hours/ns, 27.554 timesteps/s
97.1% CPU use with 6 MPI tasks x no OpenMP threads

MPI task timing breakdown:
Section |  min time  |  avg time  |  max time  |%varavg| %total
---------------------------------------------------------------
Pair    | 9.7689     | 9.9508     | 10.153     |   4.1 | 55.39
Neigh   | 6.2947     | 6.6191     | 7.5186     |  17.1 | 36.85
Comm    | 0.45114    | 1.1763     | 1.486      |  31.6 |  6.55
Output  | 4.7922e-05 | 5.9048e-05 | 9.799e-05  |   0.0 |  0.00
Modify  | 0.16267    | 0.17079    | 0.17908    |   1.4 |  0.95
Other   |            | 0.0475     |            |       |  0.26

Nlocal:    3275.33 ave 3306 max 3250 min
Histogram: 1 0 1 1 1 0 0 1 0 1
Nghost:    7946.33 ave 7994 max 7900 min
Histogram: 1 0 1 0 1 1 0 1 0 1
Neighs:    296864 ave 300319 max 292306 min
Histogram: 1 0 0 1 0 1 1 0 1 1

Total # of neighbors = 1781187
Ave neighs/atom = 90.6364
Neighbor list builds = 495
Dangerous builds not checked
Setting up Verlet run ...
  Unit style    : metal
  Current step  : 1040500
  Time step     : 0.001
Per MPI rank memory allocation (min/avg/max) = 5.967 | 5.993 | 6.007 Mbytes
Step Temp Press TotEng PotEng Enthalpy 
 1040500    1678.6501    -23.39145   -56999.322   -61263.246   -57003.352 
 1066672    1651.8671   -1255.5004   -57146.304   -61342.196   -57362.387 
 1106672    1639.5776   -595.31337   -57149.943    -61314.62   -57252.411 
Loop time of 2598.05 on 6 procs for 66172 steps with 19652 atoms

Performance: 2.201 ns/day, 10.906 hours/ns, 25.470 timesteps/s
96.4% CPU use with 6 MPI tasks x no OpenMP threads

MPI task timing breakdown:
Section |  min time  |  avg time  |  max time  |%varavg| %total
---------------------------------------------------------------
Pair    | 1417.9     | 1429.6     | 1438.8     |  16.5 | 55.03
Neigh   | 914.98     | 957.44     | 1000.7     |  90.6 | 36.85
Comm    | 129.41     | 172.18     | 213.98     | 209.9 |  6.63
Output  | 0.033548   | 0.033561   | 0.03361    |   0.0 |  0.00
Modify  | 31.246     | 32.729     | 33.63      |  17.5 |  1.26
Other   |            | 6.079      |            |       |  0.23

Nlocal:    3275.33 ave 3301 max 3252 min
Histogram: 1 0 0 1 2 1 0 0 0 1
Nghost:    7929.17 ave 7967 max 7881 min
Histogram: 1 0 0 1 0 1 0 2 0 1
Neighs:    297030 ave 299548 max 292937 min
Histogram: 1 0 0 0 0 2 0 1 1 1

Total # of neighbors = 1782182
Ave neighs/atom = 90.6871
Neighbor list builds = 66172
Dangerous builds not checked
Setting up Verlet run ...
  Unit style    : metal
  Current step  : 1106672
  Time step     : 0.001
Per MPI rank memory allocation (min/avg/max) = 5.967 | 5.993 | 6.007 Mbytes
Step Temp Press TotEng PotEng Enthalpy 
 1106672    1639.5776   -595.31337   -57149.943    -61314.62   -57252.411 
 1107167    1616.4539    1114.8915   -57330.318   -61436.258   -57139.335 
Loop time of 16.3242 on 6 procs for 495 steps with 19652 atoms

Performance: 2.620 ns/day, 9.161 hours/ns, 30.323 timesteps/s
97.1% CPU use with 6 MPI tasks x no OpenMP threads

MPI task timing breakdown:
Section |  min time  |  avg time  |  max time  |%varavg| %total
---------------------------------------------------------------
Pair    | 8.8681     | 8.9765     | 9.2194     |   3.9 | 54.99
Neigh   | 6.2024     | 6.3446     | 6.7837     |   8.0 | 38.87
Comm    | 0.47907    | 0.80275    | 1.0269     |  23.3 |  4.92
Output  | 5.3883e-05 | 6.3618e-05 | 9.7036e-05 |   0.0 |  0.00
Modify  | 0.14682    | 0.15709    | 0.16749    |   1.9 |  0.96
Other   |            | 0.04321    |            |       |  0.26

Nlocal:    3275.33 ave 3296 max 3247 min
Histogram: 1 1 0 0 0 0 0 2 1 1
Nghost:    7955.83 ave 7971 max 7938 min
Histogram: 1 0 0 1 1 0 0 2 0 1
Neighs:    298479 ave 302345 max 294311 min
Histogram: 1 0 1 0 1 1 0 0 0 2

Total # of neighbors = 1790875
Ave neighs/atom = 91.1294
Neighbor list builds = 495
Dangerous builds not checked
Setting up Verlet run ...
  Unit style    : metal
  Current step  : 1107167
  Time step     : 0.001
Per MPI rank memory allocation (min/avg/max) = 5.967 | 5.993 | 6.007 Mbytes
Step Temp Press TotEng PotEng Enthalpy 
 1107167    1616.4539    1114.8915   -57330.318   -61436.258   -57139.335 
 1133339    1613.7959    1111.9272   -57393.633   -61492.821   -57203.451 
 1173339    1590.2692    1364.0691   -57436.534   -61475.963   -57203.212 
Loop time of 2729.45 on 6 procs for 66172 steps with 19652 atoms

Performance: 2.095 ns/day, 11.458 hours/ns, 24.244 timesteps/s
96.0% CPU use with 6 MPI tasks x no OpenMP threads

MPI task timing breakdown:
Section |  min time  |  avg time  |  max time  |%varavg| %total
---------------------------------------------------------------
Pair    | 1494.3     | 1513.3     | 1532.9     |  33.2 | 55.44
Neigh   | 917.7      | 961.18     | 1036.6     | 118.3 | 35.22
Comm    | 139.48     | 207.78     | 245.41     | 232.6 |  7.61
Output  | 0.61044    | 0.61046    | 0.61052    |   0.0 |  0.02
Modify  | 38.03      | 40.445     | 43.992     |  38.7 |  1.48
Other   |            | 6.11       |            |       |  0.22

Nlocal:    3275.33 ave 3293 max 3260 min
Histogram: 3 0 0 0 0 0 1 0 0 2
Nghost:    7979.33 ave 8001 max 7964 min
Histogram: 2 0 0 1 0 2 0 0 0 1
Neighs:    298964 ave 302436 max 294708 min
Histogram: 1 0 1 0 0 1 1 0 0 2

Total # of neighbors = 1793785
Ave neighs/atom = 91.2775
Neighbor list builds = 66172
Dangerous builds not checked
Setting up Verlet run ...
  Unit style    : metal
  Current step  : 1173339
  Time step     : 0.001
Per MPI rank memory allocation (min/avg/max) = 5.967 | 5.993 | 6.007 Mbytes
Step Temp Press TotEng PotEng Enthalpy 
 1173339    1590.2692    1364.0691   -57436.534   -61475.963   -57203.212 
 1173834    1567.3107    776.86687     -57621.7   -61602.812   -57489.304 
Loop time of 18.34 on 6 procs for 495 steps with 19652 atoms

Performance: 2.332 ns/day, 10.292 hours/ns, 26.990 timesteps/s
96.9% CPU use with 6 MPI tasks x no OpenMP threads

MPI task timing breakdown:
Section |  min time  |  avg time  |  max time  |%varavg| %total
---------------------------------------------------------------
Pair    | 9.9757     | 10.133     | 10.316     |   3.5 | 55.25
Neigh   | 6.3054     | 6.9263     | 7.4238     |  15.3 | 37.77
Comm    | 0.46388    | 1.0659     | 1.75       |  41.1 |  5.81
Output  | 5.5075e-05 | 6.481e-05  | 0.00010681 |   0.0 |  0.00
Modify  | 0.16182    | 0.16844    | 0.17698    |   1.4 |  0.92
Other   |            | 0.04681    |            |       |  0.26

Nlocal:    3275.33 ave 3296 max 3250 min
Histogram: 1 0 0 2 0 0 1 0 0 2
Nghost:    7969 ave 8019 max 7923 min
Histogram: 1 1 0 1 1 0 0 0 0 2
Neighs:    300034 ave 303550 max 295969 min
Histogram: 1 0 1 0 1 0 0 2 0 1

Total # of neighbors = 1800202
Ave neighs/atom = 91.604
Neighbor list builds = 495
Dangerous builds not checked
Setting up Verlet run ...
  Unit style    : metal
  Current step  : 1173834
  Time step     : 0.001
Per MPI rank memory allocation (min/avg/max) = 5.967 | 5.993 | 6.007 Mbytes
Step Temp Press TotEng PotEng Enthalpy 
 1173834    1567.3107    776.86687     -57621.7   -61602.812   -57489.304 
 1200006     1567.941    228.20832   -57677.645   -61660.358    -57638.77 
 1240006    1542.6788   -1360.8175    -57722.63   -61641.175   -57954.895 
Loop time of 2680.05 on 6 procs for 66172 steps with 19652 atoms

Performance: 2.133 ns/day, 11.250 hours/ns, 24.691 timesteps/s
96.6% CPU use with 6 MPI tasks x no OpenMP threads

MPI task timing breakdown:
Section |  min time  |  avg time  |  max time  |%varavg| %total
---------------------------------------------------------------
Pair    | 1464       | 1489.5     | 1524.8     |  55.7 | 55.58
Neigh   | 898.01     | 984.57     | 1046.3     | 186.0 | 36.74
Comm    | 114.02     | 173.35     | 225.98     | 335.4 |  6.47
Output  | 0.026613   | 0.026628   | 0.02669    |   0.0 |  0.00
Modify  | 24.928     | 26.374     | 27.688     |  16.7 |  0.98
Other   |            | 6.22       |            |       |  0.23

Nlocal:    3275.33 ave 3292 max 3255 min
Histogram: 2 0 0 0 0 1 0 1 0 2
Nghost:    7974.5 ave 8004 max 7947 min
Histogram: 1 0 1 0 1 1 1 0 0 1
Neighs:    299483 ave 302182 max 295550 min
Histogram: 1 0 0 0 1 0 2 1 0 1

Total # of neighbors = 1796896
Ave neighs/atom = 91.4358
Neighbor list builds = 66172
Dangerous builds not checked
Setting up Verlet run ...
  Unit style    : metal
  Current step  : 1240006
  Time step     : 0.001
Per MPI rank memory allocation (min/avg/max) = 5.967 | 5.993 | 6.007 Mbytes
Step Temp Press TotEng PotEng Enthalpy 
 1240006    1542.6788   -1360.8175    -57722.63   -61641.175   -57954.895 
 1240501    1509.4634   -375.55431    -57959.95   -61794.124    -58023.73 
Loop time of 17.8946 on 6 procs for 495 steps with 19652 atoms

Performance: 2.390 ns/day, 10.042 hours/ns, 27.662 timesteps/s
97.1% CPU use with 6 MPI tasks x no OpenMP threads

MPI task timing breakdown:
Section |  min time  |  avg time  |  max time  |%varavg| %total
---------------------------------------------------------------
Pair    | 9.708      | 9.9766     | 10.226     |   6.5 | 55.75
Neigh   | 6.4244     | 6.8785     | 7.5965     |  18.2 | 38.44
Comm    | 0.37959    | 0.83336    | 1.158      |  32.6 |  4.66
Output  | 5.0068e-05 | 6.0598e-05 | 9.9897e-05 |   0.0 |  0.00
Modify  | 0.15074    | 0.16197    | 0.17048    |   1.7 |  0.91
Other   |            | 0.04418    |            |       |  0.25

Nlocal:    3275.33 ave 3303 max 3262 min
Histogram: 2 1 1 0 1 0 0 0 0 1
Nghost:    8001.5 ave 8041 max 7965 min
Histogram: 2 0 0 0 0 2 0 1 0 1
Neighs:    301024 ave 303043 max 298950 min
Histogram: 2 0 0 1 0 0 0 1 1 1

Total # of neighbors = 1806145
Ave neighs/atom = 91.9064
Neighbor list builds = 495
Dangerous builds not checked
Setting up Verlet run ...
  Unit style    : metal
  Current step  : 1240501
  Time step     : 0.001
Per MPI rank memory allocation (min/avg/max) = 5.967 | 5.993 | 6.007 Mbytes
Step Temp Press TotEng PotEng Enthalpy 
 1240501    1509.4634   -375.55431    -57959.95   -61794.124    -58023.73 
 1266673    1488.7569   -1917.4334   -58033.536   -61815.114    -58359.38 
 1306673    1502.4075   -1006.0045   -58057.843   -61874.095    -58228.52 
Loop time of 2618.11 on 6 procs for 66172 steps with 19652 atoms

Performance: 2.184 ns/day, 10.990 hours/ns, 25.275 timesteps/s
96.3% CPU use with 6 MPI tasks x no OpenMP threads

MPI task timing breakdown:
Section |  min time  |  avg time  |  max time  |%varavg| %total
---------------------------------------------------------------
Pair    | 1429.2     | 1450.8     | 1481.6     |  43.0 | 55.41
Neigh   | 901.31     | 983.17     | 1027.7     | 136.2 | 37.55
Comm    | 112.58     | 151.57     | 203.91     | 247.9 |  5.79
Output  | 0.052395   | 0.052413   | 0.052475   |   0.0 |  0.00
Modify  | 25.005     | 26.261     | 27.278     |  15.6 |  1.00
Other   |            | 6.255      |            |       |  0.24

Nlocal:    3275.33 ave 3288 max 3262 min
Histogram: 1 0 0 1 1 0 2 0 0 1
Nghost:    7997.5 ave 8026 max 7945 min
Histogram: 1 0 0 0 1 0 0 2 0 2
Neighs:    301232 ave 302785 max 300039 min
Histogram: 1 1 0 1 1 0 1 0 0 1

Total # of neighbors = 1807393
Ave neighs/atom = 91.9699
Neighbor list builds = 66172
Dangerous builds not checked
Setting up Verlet run ...
  Unit style    : metal
  Current step  : 1306673
  Time step     : 0.001
Per MPI rank memory allocation (min/avg/max) = 5.967 | 5.993 | 6.007 Mbytes
Step Temp Press TotEng PotEng Enthalpy 
 1306673    1502.4075   -1006.0045   -58057.843   -61874.095    -58228.52 
 1307168    1457.8145    580.32398   -58250.539    -61953.52   -58152.497 
Loop time of 17.9612 on 6 procs for 495 steps with 19652 atoms

Performance: 2.381 ns/day, 10.079 hours/ns, 27.559 timesteps/s
97.1% CPU use with 6 MPI tasks x no OpenMP threads

MPI task timing breakdown:
Section |  min time  |  avg time  |  max time  |%varavg| %total
---------------------------------------------------------------
Pair    | 9.8423     | 9.971      | 10.202     |   4.5 | 55.51
Neigh   | 6.3683     | 7.0598     | 7.4773     |  14.5 | 39.31
Comm    | 0.41692    | 0.71999    | 1.2663     |  35.9 |  4.01
Output  | 5.3883e-05 | 6.6797e-05 | 9.9897e-05 |   0.0 |  0.00
Modify  | 0.14826    | 0.16426    | 0.17593    |   2.7 |  0.91
Other   |            | 0.04603    |            |       |  0.26

Nlocal:    3275.33 ave 3289 max 3261 min
Histogram: 1 1 0 0 0 2 0 1 0 1
Nghost:    8006.33 ave 8046 max 7973 min
Histogram: 1 1 1 0 0 0 2 0 0 1
Neighs:    302479 ave 304692 max 299194 min
Histogram: 1 1 0 0 0 1 0 0 0 3

Total # of neighbors = 1814873
Ave neighs/atom = 92.3505
Neighbor list builds = 495
Dangerous builds not checked
Setting up Verlet run ...
  Unit style    : metal
  Current step  : 1307168
  Time step     : 0.001
Per MPI rank memory allocation (min/avg/max) = 5.967 | 5.993 | 6.007 Mbytes
Step Temp Press TotEng PotEng Enthalpy 
 1307168    1457.8145    580.32398   -58250.539    -61953.52   -58152.497 
 1333340    1447.0345   -730.23138   -58320.971    -61996.57   -58444.297 
 1373340    1439.6152   -877.00825   -58368.221   -62024.974   -58516.232 
Loop time of 2619.54 on 6 procs for 66172 steps with 19652 atoms

Performance: 2.183 ns/day, 10.996 hours/ns, 25.261 timesteps/s
96.0% CPU use with 6 MPI tasks x no OpenMP threads

MPI task timing breakdown:
Section |  min time  |  avg time  |  max time  |%varavg| %total
---------------------------------------------------------------
Pair    | 1435.4     | 1457       | 1479.6     |  45.5 | 55.62
Neigh   | 910.29     | 974.82     | 1005.8     | 102.5 | 37.21
Comm    | 133.77     | 152.87     | 194.8      | 161.7 |  5.84
Output  | 0.037875   | 0.037891   | 0.037941   |   0.0 |  0.00
Modify  | 27.372     | 28.627     | 29.798     |  16.8 |  1.09
Other   |            | 6.188      |            |       |  0.24

Nlocal:    3275.33 ave 3298 max 3244 min
Histogram: 1 0 1 0 0 1 1 0 0 2
Nghost:    8010.83 ave 8039 max 7975 min
Histogram: 2 0 0 0 0 0 1 1 1 1
Neighs:    302677 ave 305792 max 297544 min
Histogram: 1 0 0 0 1 0 2 0 0 2

Total # of neighbors = 1816062
Ave neighs/atom = 92.4111
Neighbor list builds = 66172
Dangerous builds not checked
Setting up Verlet run ...
  Unit style    : metal
  Current step  : 1373340
  Time step     : 0.001
Per MPI rank memory allocation (min/avg/max) = 5.967 | 5.993 | 6.007 Mbytes
Step Temp Press TotEng PotEng Enthalpy 
 1373340    1439.6152   -877.00825   -58368.221   -62024.974   -58516.232 
 1373835     1413.852   -287.89866   -58545.903   -62137.216   -58594.324 
Loop time of 18.9894 on 6 procs for 495 steps with 19652 atoms

Performance: 2.252 ns/day, 10.656 hours/ns, 26.067 timesteps/s
96.4% CPU use with 6 MPI tasks x no OpenMP threads

MPI task timing breakdown:
Section |  min time  |  avg time  |  max time  |%varavg| %total
---------------------------------------------------------------
Pair    | 10.394     | 10.555     | 10.737     |   3.8 | 55.58
Neigh   | 6.4189     | 7.0264     | 7.6534     |  13.9 | 37.00
Comm    | 0.68202    | 1.1554     | 1.7788     |  34.2 |  6.08
Output  | 5.3883e-05 | 5.9843e-05 | 8.297e-05  |   0.0 |  0.00
Modify  | 0.19397    | 0.20745    | 0.21623    |   1.6 |  1.09
Other   |            | 0.04509    |            |       |  0.24

Nlocal:    3275.33 ave 3293 max 3257 min
Histogram: 1 0 1 1 0 0 1 1 0 1
Nghost:    8039 ave 8067 max 8018 min
Histogram: 1 0 1 0 3 0 0 0 0 1
Neighs:    303708 ave 307865 max 300531 min
Histogram: 1 0 0 2 2 0 0 0 0 1

Total # of neighbors = 1822246
Ave neighs/atom = 92.7257
Neighbor list builds = 495
Dangerous builds not checked
Setting up Verlet run ...
  Unit style    : metal
  Current step  : 1373835
  Time step     : 0.001
Per MPI rank memory allocation (min/avg/max) = 5.967 | 5.993 | 6.007 Mbytes
Step Temp Press TotEng PotEng Enthalpy 
 1373835     1413.852   -287.89866   -58545.903   -62137.216   -58594.324 
 1400007    1405.2448   -758.19818   -58651.275   -62220.725   -58778.561 
 1440007    1396.5282    1047.9476    -58693.74   -62241.049   -58518.241 
Loop time of 2570.17 on 6 procs for 66172 steps with 19652 atoms

Performance: 2.224 ns/day, 10.789 hours/ns, 25.746 timesteps/s
96.1% CPU use with 6 MPI tasks x no OpenMP threads

MPI task timing breakdown:
Section |  min time  |  avg time  |  max time  |%varavg| %total
---------------------------------------------------------------
Pair    | 1404.9     | 1416.8     | 1436.2     |  27.0 | 55.13
Neigh   | 928.72     | 949.6      | 968.63     |  53.9 | 36.95
Comm    | 148.19     | 166.91     | 195.81     | 117.2 |  6.49
Output  | 0.038979   | 0.038992   | 0.039041   |   0.0 |  0.00
Modify  | 29.996     | 30.771     | 32.246     |  14.1 |  1.20
Other   |            | 6.048      |            |       |  0.24

Nlocal:    3275.33 ave 3311 max 3256 min
Histogram: 1 1 1 2 0 0 0 0 0 1
Nghost:    8046 ave 8063 max 8026 min
Histogram: 1 0 0 0 2 1 0 1 0 1
Neighs:    305057 ave 310397 max 300794 min
Histogram: 1 1 0 0 2 1 0 0 0 1

Total # of neighbors = 1830342
Ave neighs/atom = 93.1377
Neighbor list builds = 66172
Dangerous builds not checked
Setting up Verlet run ...
  Unit style    : metal
  Current step  : 1440007
  Time step     : 0.001
Per MPI rank memory allocation (min/avg/max) = 5.967 | 5.993 | 6.007 Mbytes
Step Temp Press TotEng PotEng Enthalpy 
 1440007    1396.5282    1047.9476    -58693.74   -62241.049   -58518.241 
 1440502    1376.7561    189.44523   -58864.177   -62361.262   -58832.526 
Loop time of 18.102 on 6 procs for 495 steps with 19652 atoms

Performance: 2.363 ns/day, 10.158 hours/ns, 27.345 timesteps/s
97.1% CPU use with 6 MPI tasks x no OpenMP threads

MPI task timing breakdown:
Section |  min time  |  avg time  |  max time  |%varavg| %total
---------------------------------------------------------------
Pair    | 9.9205     | 10.015     | 10.205     |   3.3 | 55.33
Neigh   | 6.7482     | 7.1355     | 7.5373     |  12.2 | 39.42
Comm    | 0.43111    | 0.74115    | 1.0302     |  27.6 |  4.09
Output  | 4.7922e-05 | 5.6863e-05 | 8.5831e-05 |   0.0 |  0.00
Modify  | 0.15393    | 0.16458    | 0.1725     |   1.6 |  0.91
Other   |            | 0.0453     |            |       |  0.25

Nlocal:    3275.33 ave 3303 max 3254 min
Histogram: 3 0 0 0 0 0 0 2 0 1
Nghost:    8023.17 ave 8059 max 7992 min
Histogram: 2 0 0 0 0 2 0 1 0 1
Neighs:    305625 ave 310493 max 302287 min
Histogram: 2 0 1 1 0 0 0 0 1 1

Total # of neighbors = 1833749
Ave neighs/atom = 93.3111
Neighbor list builds = 495
Dangerous builds not checked
Setting up Verlet run ...
  Unit style    : metal
  Current step  : 1440502
  Time step     : 0.001
Per MPI rank memory allocation (min/avg/max) = 5.967 | 5.993 | 6.007 Mbytes
Step Temp Press TotEng PotEng Enthalpy 
 1440502    1376.7561    189.44523   -58864.177   -62361.262   -58832.526 
 1466674    1356.2004    1114.9644   -58988.209   -62433.081   -58802.346 
 1506674    1347.1763   -451.06394   -58950.924   -62372.875   -59026.305 
Loop time of 2570.5 on 6 procs for 66172 steps with 19652 atoms

Performance: 2.224 ns/day, 10.790 hours/ns, 25.743 timesteps/s
96.3% CPU use with 6 MPI tasks x no OpenMP threads

MPI task timing breakdown:
Section |  min time  |  avg time  |  max time  |%varavg| %total
---------------------------------------------------------------
Pair    | 1408       | 1431.3     | 1447.2     |  34.3 | 55.68
Neigh   | 893.12     | 944.94     | 1023.6     | 142.8 | 36.76
Comm    | 105.29     | 161.73     | 210.01     | 265.6 |  6.29
Output  | 0.034145   | 0.034159   | 0.034217   |   0.0 |  0.00
Modify  | 25.435     | 26.576     | 27.619     |  14.2 |  1.03
Other   |            | 5.953      |            |       |  0.23

Nlocal:    3275.33 ave 3288 max 3266 min
Histogram: 1 0 2 0 1 0 1 0 0 1
Nghost:    8095.5 ave 8116 max 8074 min
Histogram: 2 0 0 0 0 2 0 0 0 2
Neighs:    305603 ave 307381 max 302709 min
Histogram: 1 0 0 0 1 1 0 1 0 2

Total # of neighbors = 1833618
Ave neighs/atom = 93.3044
Neighbor list builds = 66172
Dangerous builds not checked
Setting up Verlet run ...
  Unit style    : metal
  Current step  : 1506674
  Time step     : 0.001
Per MPI rank memory allocation (min/avg/max) = 5.967 | 5.993 | 6.007 Mbytes
Step Temp Press TotEng PotEng Enthalpy 
 1506674    1347.1763   -451.06394   -58950.924   -62372.875   -59026.305 
 1507169    1318.4879   -977.24111   -59178.077   -62527.156   -59340.861 
Loop time of 17.9697 on 6 procs for 495 steps with 19652 atoms

Performance: 2.380 ns/day, 10.084 hours/ns, 27.546 timesteps/s
97.1% CPU use with 6 MPI tasks x no OpenMP threads

MPI task timing breakdown:
Section |  min time  |  avg time  |  max time  |%varavg| %total
---------------------------------------------------------------
Pair    | 9.7052     | 9.9476     | 10.057     |   3.9 | 55.36
Neigh   | 6.2543     | 6.856      | 7.3264     |  17.0 | 38.15
Comm    | 0.48462    | 0.95045    | 1.4479     |  39.8 |  5.29
Output  | 5.0068e-05 | 5.7817e-05 | 8.893e-05  |   0.0 |  0.00
Modify  | 0.16373    | 0.17109    | 0.18148    |   1.7 |  0.95
Other   |            | 0.04446    |            |       |  0.25

Nlocal:    3275.33 ave 3292 max 3257 min
Histogram: 1 0 0 0 2 0 2 0 0 1
Nghost:    8057.5 ave 8097 max 8034 min
Histogram: 2 0 1 1 0 1 0 0 0 1
Neighs:    306426 ave 309263 max 301841 min
Histogram: 1 0 0 0 0 1 0 3 0 1

Total # of neighbors = 1838558
Ave neighs/atom = 93.5558
Neighbor list builds = 495
Dangerous builds not checked
Setting up Verlet run ...
  Unit style    : metal
  Current step  : 1507169
  Time step     : 0.001
Per MPI rank memory allocation (min/avg/max) = 5.967 | 5.993 | 6.007 Mbytes
Step Temp Press TotEng PotEng Enthalpy 
 1507169    1318.4879   -977.24111   -59178.077   -62527.156   -59340.861 
 1533341    1309.8319    1218.8052   -59287.423   -62614.515   -59085.309 
 1573341    1310.2874   -1055.0513   -59294.985   -62623.234    -59470.33 
Loop time of 2577.82 on 6 procs for 66172 steps with 19652 atoms

Performance: 2.218 ns/day, 10.821 hours/ns, 25.670 timesteps/s
96.5% CPU use with 6 MPI tasks x no OpenMP threads

MPI task timing breakdown:
Section |  min time  |  avg time  |  max time  |%varavg| %total
---------------------------------------------------------------
Pair    | 1399.9     | 1424.5     | 1448       |  44.7 | 55.26
Neigh   | 936.51     | 980.94     | 1015.8     |  91.5 | 38.05
Comm    | 119.82     | 141.19     | 172.95     | 161.7 |  5.48
Output  | 0.052637   | 0.05265    | 0.052693   |   0.0 |  0.00
Modify  | 24.29      | 25.089     | 25.777     |  10.6 |  0.97
Other   |            | 6.066      |            |       |  0.24

Nlocal:    3275.33 ave 3297 max 3261 min
Histogram: 2 1 0 0 1 0 1 0 0 1
Nghost:    8065.5 ave 8102 max 8041 min
Histogram: 1 0 1 3 0 0 0 0 0 1
Neighs:    307205 ave 310115 max 303203 min
Histogram: 1 0 1 0 1 0 0 0 2 1

Total # of neighbors = 1843228
Ave neighs/atom = 93.7934
Neighbor list builds = 66172
Dangerous builds not checked
Setting up Verlet run ...
  Unit style    : metal
  Current step  : 1573341
  Time step     : 0.001
Per MPI rank memory allocation (min/avg/max) = 5.967 | 5.993 | 6.007 Mbytes
Step Temp Press TotEng PotEng Enthalpy 
 1573341    1310.2874   -1055.0513   -59294.985   -62623.234    -59470.33 
 1573836     1258.849    195.43389   -59500.661   -62698.252   -59468.299 
Loop time of 18.4306 on 6 procs for 495 steps with 19652 atoms

Performance: 2.320 ns/day, 10.343 hours/ns, 26.858 timesteps/s
97.0% CPU use with 6 MPI tasks x no OpenMP threads

MPI task timing breakdown:
Section |  min time  |  avg time  |  max time  |%varavg| %total
---------------------------------------------------------------
Pair    | 9.9346     | 10.178     | 10.387     |   4.1 | 55.22
Neigh   | 6.3537     | 6.9582     | 7.3774     |  16.9 | 37.75
Comm    | 0.60018    | 1.047      | 1.6279     |  36.9 |  5.68
Output  | 4.8876e-05 | 5.6267e-05 | 8.6069e-05 |   0.0 |  0.00
Modify  | 0.18591    | 0.2024     | 0.21438    |   2.2 |  1.10
Other   |            | 0.04466    |            |       |  0.24

Nlocal:    3275.33 ave 3298 max 3253 min
Histogram: 1 0 0 0 2 2 0 0 0 1
Nghost:    8081 ave 8128 max 8059 min
Histogram: 1 2 1 1 0 0 0 0 0 1
Neighs:    308285 ave 310040 max 306336 min
Histogram: 2 0 0 1 0 0 0 0 1 2

Total # of neighbors = 1849711
Ave neighs/atom = 94.1233
Neighbor list builds = 495
Dangerous builds not checked
Setting up Verlet run ...
  Unit style    : metal
  Current step  : 1573836
  Time step     : 0.001
Per MPI rank memory allocation (min/avg/max) = 5.967 | 5.993 | 6.007 Mbytes
Step Temp Press TotEng PotEng Enthalpy 
 1573836     1258.849    195.43389   -59500.661   -62698.252   -59468.299 
 1600008    1253.0821   -1585.5061   -59632.728    -62815.67   -59895.026 
 1640008    1246.7976    875.74222   -59649.196   -62816.175   -59504.712 
Loop time of 2537 on 6 procs for 66172 steps with 19652 atoms

Performance: 2.254 ns/day, 10.650 hours/ns, 26.083 timesteps/s
96.4% CPU use with 6 MPI tasks x no OpenMP threads

MPI task timing breakdown:
Section |  min time  |  avg time  |  max time  |%varavg| %total
---------------------------------------------------------------
Pair    | 1394.2     | 1413.5     | 1429.1     |  27.5 | 55.72
Neigh   | 916.13     | 931.09     | 960.37     |  46.6 | 36.70
Comm    | 149.48     | 158.7      | 167.89     |  52.1 |  6.26
Output  | 0.038578   | 0.03859    | 0.03864    |   0.0 |  0.00
Modify  | 26.707     | 27.728     | 28.396     |  11.2 |  1.09
Other   |            | 5.929      |            |       |  0.23

Nlocal:    3275.33 ave 3294 max 3262 min
Histogram: 1 1 0 2 0 0 0 1 0 1
Nghost:    8087.83 ave 8124 max 8039 min
Histogram: 1 0 0 0 2 0 0 2 0 1
Neighs:    309261 ave 312146 max 306732 min
Histogram: 2 0 0 1 0 0 0 2 0 1

Total # of neighbors = 1855566
Ave neighs/atom = 94.4212
Neighbor list builds = 66172
Dangerous builds not checked
Setting up Verlet run ...
  Unit style    : metal
  Current step  : 1640008
  Time step     : 0.001
Per MPI rank memory allocation (min/avg/max) = 5.967 | 5.993 | 6.007 Mbytes
Step Temp Press TotEng PotEng Enthalpy 
 1640008    1246.7976    875.74222   -59649.196   -62816.175   -59504.712 
 1640503    1210.1341    991.79365   -59837.106   -62910.957   -59673.871 
Loop time of 18.4414 on 6 procs for 495 steps with 19652 atoms

Performance: 2.319 ns/day, 10.349 hours/ns, 26.842 timesteps/s
97.1% CPU use with 6 MPI tasks x no OpenMP threads

MPI task timing breakdown:
Section |  min time  |  avg time  |  max time  |%varavg| %total
---------------------------------------------------------------
Pair    | 10.018     | 10.262     | 10.469     |   5.4 | 55.65
Neigh   | 6.4518     | 7.0182     | 7.602      |  14.8 | 38.06
Comm    | 0.59349    | 0.94015    | 1.2991     |  24.7 |  5.10
Output  | 0.00010109 | 0.00020993 | 0.00029516 |   0.0 |  0.00
Modify  | 0.1686     | 0.17505    | 0.18228    |   1.2 |  0.95
Other   |            | 0.04587    |            |       |  0.25

Nlocal:    3275.33 ave 3286 max 3265 min
Histogram: 1 1 1 0 0 1 0 0 0 2
Nghost:    8111 ave 8121 max 8098 min
Histogram: 1 0 0 1 1 1 0 0 0 2
Neighs:    309958 ave 313280 max 306484 min
Histogram: 1 1 0 0 0 2 0 0 1 1

Total # of neighbors = 1859745
Ave neighs/atom = 94.6339
Neighbor list builds = 495
Dangerous builds not checked
Setting up Verlet run ...
  Unit style    : metal
  Current step  : 1640503
  Time step     : 0.001
Per MPI rank memory allocation (min/avg/max) = 5.967 | 5.993 | 6.007 Mbytes
Step Temp Press TotEng PotEng Enthalpy 
 1640503    1210.1341    991.79365   -59837.106   -62910.957   -59673.871 
 1666675    1200.6928    147.34164   -59974.578   -63024.448   -59950.381 
 1706675    1210.1348   -387.44132   -59935.419   -63009.271   -59999.106 
Loop time of 2500.33 on 6 procs for 66172 steps with 19652 atoms

Performance: 2.287 ns/day, 10.496 hours/ns, 26.465 timesteps/s
96.9% CPU use with 6 MPI tasks x no OpenMP threads

MPI task timing breakdown:
Section |  min time  |  avg time  |  max time  |%varavg| %total
---------------------------------------------------------------
Pair    | 1372.8     | 1391.1     | 1400.2     |  24.4 | 55.64
Neigh   | 905.3      | 944.62     | 1003.2     | 104.1 | 37.78
Comm    | 95.131     | 135.29     | 174.34     | 224.7 |  5.41
Output  | 0.033548   | 0.03356    | 0.033615   |   0.0 |  0.00
Modify  | 22.697     | 23.238     | 23.968     |   9.4 |  0.93
Other   |            | 6.019      |            |       |  0.24

Nlocal:    3275.33 ave 3296 max 3262 min
Histogram: 1 2 0 0 0 2 0 0 0 1
Nghost:    8126.33 ave 8143 max 8100 min
Histogram: 1 0 1 0 0 0 1 0 1 2
Neighs:    310279 ave 313213 max 308032 min
Histogram: 1 1 0 1 1 0 1 0 0 1

Total # of neighbors = 1861674
Ave neighs/atom = 94.732
Neighbor list builds = 66172
Dangerous builds not checked
Setting up Verlet run ...
  Unit style    : metal
  Current step  : 1706675
  Time step     : 0.001
Per MPI rank memory allocation (min/avg/max) = 5.967 | 5.993 | 6.007 Mbytes
Step Temp Press TotEng PotEng Enthalpy 
 1706675    1210.1348   -387.44132   -59935.419   -63009.271   -59999.106 
 1707170    1171.6031   -1003.5095   -60162.559   -63138.538   -60327.003 
Loop time of 17.9308 on 6 procs for 495 steps with 19652 atoms

Performance: 2.385 ns/day, 10.062 hours/ns, 27.606 timesteps/s
97.1% CPU use with 6 MPI tasks x no OpenMP threads

MPI task timing breakdown:
Section |  min time  |  avg time  |  max time  |%varavg| %total
---------------------------------------------------------------
Pair    | 9.8461     | 9.9607     | 10.045     |   2.0 | 55.55
Neigh   | 6.3099     | 6.8018     | 7.2569     |  14.5 | 37.93
Comm    | 0.51822    | 0.95864    | 1.4049     |  36.4 |  5.35
Output  | 5.0068e-05 | 5.9009e-05 | 8.9884e-05 |   0.0 |  0.00
Modify  | 0.15455    | 0.16435    | 0.17303    |   1.5 |  0.92
Other   |            | 0.04524    |            |       |  0.25

Nlocal:    3275.33 ave 3293 max 3256 min
Histogram: 2 0 0 0 0 1 1 0 0 2
Nghost:    8098.67 ave 8131 max 8048 min
[...]
Loop time of 19.0923 on 6 procs for 495 steps with 19652 atoms

Performance: 2.240 ns/day, 10.714 hours/ns, 25.927 timesteps/s
100.0% CPU use with 6 MPI tasks x no OpenMP threads

MPI task timing breakdown:
Section |  min time  |  avg time  |  max time  |%varavg| %total
---------------------------------------------------------------
Pair    | 10.245     | 10.605     | 10.935     |   7.6 | 55.54
Neigh   | 6.9985     | 7.5819     | 8.1851     |  14.3 | 39.71
Comm    | 0.38598    | 0.71197    | 1.0846     |  25.8 |  3.73
Output  | 6.8188e-05 | 9.2308e-05 | 0.00013208 |   0.0 |  0.00
Modify  | 0.14371    | 0.14883    | 0.15859    |   1.3 |  0.78
Other   |            | 0.0449     |            |       |  0.24

Nlocal:    3275.33 ave 3285 max 3262 min
Histogram: 2 0 0 0 0 1 0 0 0 3
Nghost:    8463.67 ave 8505 max 8415 min
Histogram: 1 0 0 1 1 1 0 0 1 1
Neighs:    338728 ave 344486 max 333792 min
Histogram: 1 1 1 0 0 1 0 1 0 1

Total # of neighbors = 2032365
Ave neighs/atom = 103.418
Neighbor list builds = 495
Dangerous builds not checked
Setting up Verlet run ...
  Unit style    : metal
  Current step  : 2707175
  Time step     : 0.001
Per MPI rank memory allocation (min/avg/max) = 5.967 | 5.994 | 6.01 Mbytes
Step Temp Press TotEng PotEng Enthalpy 
 2707175    426.38617    517.11709   -65716.981   -66800.041   -65639.272 
 2733347    403.12993    611.88695   -65845.844   -66869.831   -65754.022 
 2773347    399.05357   -526.90197   -65878.737   -66892.369   -65957.841 
Loop time of 2705.53 on 6 procs for 66172 steps with 19652 atoms

Performance: 2.113 ns/day, 11.357 hours/ns, 24.458 timesteps/s
99.1% CPU use with 6 MPI tasks x no OpenMP threads

MPI task timing breakdown:
Section |  min time  |  avg time  |  max time  |%varavg| %total
---------------------------------------------------------------
Pair    | 1486.5     | 1500.2     | 1511.5     |  23.3 | 55.45
Neigh   | 1006.8     | 1030.5     | 1050       |  40.8 | 38.09
Comm    | 111.8      | 143.01     | 157.31     | 124.8 |  5.29
Output  | 0.066297   | 0.066311   | 0.066368   |   0.0 |  0.00
Modify  | 25.232     | 25.699     | 26.073     |   5.4 |  0.95
Other   |            | 6.051      |            |       |  0.22

Nlocal:    3275.33 ave 3290 max 3257 min
Histogram: 1 0 0 0 1 2 0 0 1 1
Nghost:    8468.83 ave 8511 max 8437 min
Histogram: 2 0 0 0 1 2 0 0 0 1
Neighs:    339163 ave 345957 max 334735 min
Histogram: 1 2 0 1 0 0 0 1 0 1

Total # of neighbors = 2034978
Ave neighs/atom = 103.551
Neighbor list builds = 66172
Dangerous builds not checked
Setting up Verlet run ...
  Unit style    : metal
  Current step  : 2773347
  Time step     : 0.001
Per MPI rank memory allocation (min/avg/max) = 5.967 | 5.994 | 6.01 Mbytes
Step Temp Press TotEng PotEng Enthalpy 
 2773347    399.05357   -526.90197   -65878.737   -66892.369   -65957.841 
 2773842    370.91008   -499.08039   -66026.161   -66968.307   -66100.963 
Loop time of 20.1618 on 6 procs for 495 steps with 19652 atoms

Performance: 2.121 ns/day, 11.314 hours/ns, 24.551 timesteps/s
99.3% CPU use with 6 MPI tasks x no OpenMP threads

MPI task timing breakdown:
Section |  min time  |  avg time  |  max time  |%varavg| %total
---------------------------------------------------------------
Pair    | 10.802     | 11.002     | 11.375     |   5.8 | 54.57
Neigh   | 7.5501     | 8.0105     | 8.3972     |  10.6 | 39.73
Comm    | 0.74704    | 0.9457     | 1.4008     |  23.1 |  4.69
Output  | 5.6028e-05 | 7.0731e-05 | 0.00013089 |   0.0 |  0.00
Modify  | 0.1519     | 0.1596     | 0.1642     |   1.2 |  0.79
Other   |            | 0.04416    |            |       |  0.22

Nlocal:    3275.33 ave 3282 max 3264 min
Histogram: 1 0 0 1 0 0 1 0 2 1
Nghost:    8484 ave 8518 max 8455 min
Histogram: 1 1 0 0 1 1 1 0 0 1
Neighs:    339808 ave 346053 max 335526 min
Histogram: 1 2 1 0 0 0 0 0 1 1

Total # of neighbors = 2038850
Ave neighs/atom = 103.748
Neighbor list builds = 495
Dangerous builds not checked
Setting up Verlet run ...
  Unit style    : metal
  Current step  : 2773842
  Time step     : 0.001
Per MPI rank memory allocation (min/avg/max) = 5.967 | 5.994 | 6.01 Mbytes
Step Temp Press TotEng PotEng Enthalpy 
 2773842    370.91008   -499.08039   -66026.161   -66968.307   -66100.963 
 2800014    351.64086   -800.93984   -66149.093   -67042.293   -66269.003 
 2840014    349.35321    770.71181   -66178.011     -67065.4   -66062.813 
Loop time of 2720.11 on 6 procs for 66172 steps with 19652 atoms

Performance: 2.102 ns/day, 11.418 hours/ns, 24.327 timesteps/s
98.9% CPU use with 6 MPI tasks x no OpenMP threads

MPI task timing breakdown:
Section |  min time  |  avg time  |  max time  |%varavg| %total
---------------------------------------------------------------
Pair    | 1482.3     | 1510.3     | 1528.3     |  39.7 | 55.52
Neigh   | 1020.1     | 1029.7     | 1036.9     |  21.2 | 37.85
Comm    | 129.05     | 148.5      | 173.57     | 129.6 |  5.46
Output  | 0.043078   | 0.04309    | 0.043148   |   0.0 |  0.00
Modify  | 24.8       | 25.478     | 26.108     |   9.2 |  0.94
Other   |            | 6.084      |            |       |  0.22

Nlocal:    3275.33 ave 3290 max 3263 min
Histogram: 2 0 0 0 2 0 0 0 1 1
Nghost:    8478.33 ave 8526 max 8448 min
Histogram: 1 1 1 1 0 0 1 0 0 1
Neighs:    340951 ave 346675 max 337162 min
Histogram: 2 1 1 0 0 0 0 0 1 1

Total # of neighbors = 2045705
Ave neighs/atom = 104.097
Neighbor list builds = 66172
Dangerous builds not checked
Setting up Verlet run ...
  Unit style    : metal
  Current step  : 2840014
  Time step     : 0.001
Per MPI rank memory allocation (min/avg/max) = 5.967 | 5.994 | 6.01 Mbytes
Step Temp Press TotEng PotEng Enthalpy 
 2840014    349.35321    770.71181   -66178.011     -67065.4   -66062.813 
 2840509    320.77423   -1140.6149   -66320.925   -67135.721   -66491.434 
Loop time of 20.0598 on 6 procs for 495 steps with 19652 atoms

Performance: 2.132 ns/day, 11.257 hours/ns, 24.676 timesteps/s
99.0% CPU use with 6 MPI tasks x no OpenMP threads

MPI task timing breakdown:
Section |  min time  |  avg time  |  max time  |%varavg| %total
---------------------------------------------------------------
Pair    | 10.942     | 11.295     | 11.612     |   6.5 | 56.31
Neigh   | 7.1528     | 7.4873     | 7.803      |   7.8 | 37.32
Comm    | 0.82118    | 1.0793     | 1.3122     |  16.7 |  5.38
Output  | 5.6028e-05 | 6.6082e-05 | 0.00010586 |   0.0 |  0.00
Modify  | 0.14516    | 0.15197    | 0.16231    |   1.5 |  0.76
Other   |            | 0.04596    |            |       |  0.23

Nlocal:    3275.33 ave 3300 max 3264 min
Histogram: 2 1 1 0 1 0 0 0 0 1
Nghost:    8466.67 ave 8481 max 8427 min
Histogram: 1 0 0 0 0 0 0 2 0 3
Neighs:    340803 ave 345704 max 336012 min
Histogram: 1 0 1 0 1 1 0 0 1 1

Total # of neighbors = 2044819
Ave neighs/atom = 104.051
Neighbor list builds = 495
Dangerous builds not checked
Setting up Verlet run ...
  Unit style    : metal
  Current step  : 2840509
  Time step     : 0.001
Per MPI rank memory allocation (min/avg/max) = 5.967 | 5.994 | 6.01 Mbytes
Step Temp Press TotEng PotEng Enthalpy 
 2840509    320.77423   -1140.6149   -66320.925   -67135.721   -66491.434 
 2866681    300.78048    1414.9706   -66438.232   -67202.242   -66227.435 
 2906681    298.65017   -755.00564   -66460.251    -67218.85   -66572.886 
Loop time of 2617.13 on 6 procs for 66172 steps with 19652 atoms

Performance: 2.185 ns/day, 10.986 hours/ns, 25.284 timesteps/s
99.5% CPU use with 6 MPI tasks x no OpenMP threads

MPI task timing breakdown:
Section |  min time  |  avg time  |  max time  |%varavg| %total
---------------------------------------------------------------
Pair    | 1439.2     | 1465.7     | 1492.1     |  49.5 | 56.00
Neigh   | 948.2      | 964.63     | 977.9      |  35.9 | 36.86
Comm    | 139.5      | 159.14     | 175.46     |  99.1 |  6.08
Output  | 0.037518   | 0.037535   | 0.037602   |   0.0 |  0.00
Modify  | 21.25      | 21.783     | 22.58      |  11.3 |  0.83
Other   |            | 5.819      |            |       |  0.22

Nlocal:    3275.33 ave 3296 max 3259 min
Histogram: 1 0 2 0 1 0 0 1 0 1
Nghost:    8487 ave 8516 max 8431 min
Histogram: 1 0 0 0 1 1 0 0 0 3
Neighs:    341660 ave 347214 max 338342 min
Histogram: 1 1 2 0 0 0 1 0 0 1

Total # of neighbors = 2049959
Ave neighs/atom = 104.313
Neighbor list builds = 66172
Dangerous builds not checked
Setting up Verlet run ...
  Unit style    : metal
  Current step  : 2906681
  Time step     : 0.001
Per MPI rank memory allocation (min/avg/max) = 5.967 | 5.995 | 6.01 Mbytes
Step Temp Press TotEng PotEng Enthalpy 
 2906681    298.65017   -755.00564   -66460.251    -67218.85   -66572.886 
 2907176    273.85374    403.21517   -66600.561   -67296.175   -66540.565 
Loop time of 18.6031 on 6 procs for 495 steps with 19652 atoms

Performance: 2.299 ns/day, 10.439 hours/ns, 26.609 timesteps/s
99.9% CPU use with 6 MPI tasks x no OpenMP threads

MPI task timing breakdown:
Section |  min time  |  avg time  |  max time  |%varavg| %total
---------------------------------------------------------------
Pair    | 10.138     | 10.536     | 10.884     |   7.8 | 56.64
Neigh   | 5.5808     | 6.5003     | 7.3902     |  27.2 | 34.94
Comm    | 0.66777    | 1.3942     | 2.1036     |  40.8 |  7.49
Output  | 4.7922e-05 | 5.6028e-05 | 9.0122e-05 |   0.0 |  0.00
Modify  | 0.11873    | 0.13079    | 0.13957    |   1.9 |  0.70
Other   |            | 0.04146    |            |       |  0.22

Nlocal:    3275.33 ave 3289 max 3267 min
Histogram: 2 1 0 0 1 1 0 0 0 1
Nghost:    8493.5 ave 8527 max 8460 min
Histogram: 1 1 0 1 0 1 0 0 0 2
Neighs:    342557 ave 346865 max 337491 min
Histogram: 1 0 0 1 2 0 0 0 0 2

Total # of neighbors = 2055343
Ave neighs/atom = 104.587
Neighbor list builds = 495
Dangerous builds not checked
Setting up Verlet run ...
  Unit style    : metal
  Current step  : 2907176
  Time step     : 0.001
Per MPI rank memory allocation (min/avg/max) = 5.967 | 5.995 | 6.01 Mbytes
Step Temp Press TotEng PotEng Enthalpy 
 2907176    273.85374    403.21517   -66600.561   -67296.175   -66540.565 
 2933348    249.29287   -358.93745   -66728.096   -67361.322   -66781.468 
 2973348    250.57319   -224.93252   -66720.171   -67356.649   -66753.622 
Loop time of 2468.67 on 6 procs for 66172 steps with 19652 atoms

Performance: 2.316 ns/day, 10.363 hours/ns, 26.805 timesteps/s
99.9% CPU use with 6 MPI tasks x no OpenMP threads

MPI task timing breakdown:
Section |  min time  |  avg time  |  max time  |%varavg| %total
---------------------------------------------------------------
Pair    | 1381.4     | 1407.9     | 1434.2     |  43.7 | 57.03
Neigh   | 815.33     | 852.11     | 885.28     |  89.5 | 34.52
Comm    | 167.98     | 185.29     | 218.73     | 127.6 |  7.51
Output  | 0.034959   | 0.034971   | 0.035024   |   0.0 |  0.00
Modify  | 17.256     | 17.999     | 18.485     |   9.0 |  0.73
Other   |            | 5.325      |            |       |  0.22

Nlocal:    3275.33 ave 3293 max 3263 min
Histogram: 2 1 0 1 0 0 0 0 0 2
Nghost:    8498.33 ave 8538 max 8444 min
Histogram: 1 0 0 0 2 0 1 0 0 2
Neighs:    342815 ave 347213 max 339013 min
Histogram: 1 0 1 2 0 0 0 0 1 1

Total # of neighbors = 2056889
Ave neighs/atom = 104.666
Neighbor list builds = 66172
Dangerous builds not checked
Setting up Verlet run ...
  Unit style    : metal
  Current step  : 2973348
  Time step     : 0.001
Per MPI rank memory allocation (min/avg/max) = 5.967 | 5.995 | 6.01 Mbytes
Step Temp Press TotEng PotEng Enthalpy 
 2973348    250.57319   -224.93252   -66720.171   -67356.649   -66753.622 
 2973843    224.62429    282.74363   -66861.994    -67432.56   -66820.032 
Loop time of 18.4273 on 6 procs for 495 steps with 19652 atoms

Performance: 2.321 ns/day, 10.341 hours/ns, 26.862 timesteps/s
100.0% CPU use with 6 MPI tasks x no OpenMP threads

MPI task timing breakdown:
Section |  min time  |  avg time  |  max time  |%varavg| %total
---------------------------------------------------------------
Pair    | 10.281     | 10.5       | 10.717     |   4.2 | 56.98
Neigh   | 5.5845     | 6.327      | 6.9686     |  18.2 | 34.33
Comm    | 0.81465    | 1.4336     | 2.0853     |  31.9 |  7.78
Output  | 4.7207e-05 | 5.6505e-05 | 8.893e-05  |   0.0 |  0.00
Modify  | 0.12088    | 0.12864    | 0.13357    |   1.4 |  0.70
Other   |            | 0.03843    |            |       |  0.21

Nlocal:    3275.33 ave 3291 max 3261 min
Histogram: 1 0 2 1 0 0 0 0 0 2
Nghost:    8502.17 ave 8551 max 8460 min
Histogram: 2 0 1 0 0 0 1 0 1 1
Neighs:    343700 ave 349069 max 339942 min
Histogram: 1 1 1 1 0 0 0 1 0 1

Total # of neighbors = 2062197
Ave neighs/atom = 104.936
Neighbor list builds = 495
Dangerous builds not checked
Setting up Verlet run ...
  Unit style    : metal
  Current step  : 2973843
  Time step     : 0.001
Per MPI rank memory allocation (min/avg/max) = 5.967 | 5.995 | 6.01 Mbytes
Step Temp Press TotEng PotEng Enthalpy 
 2973843    224.62429    282.74363   -66861.994    -67432.56   -66820.032 
 3000015    198.52655    1211.7814   -67000.597   -67504.872   -66821.139 
 3040015    199.15602    725.43995   -66993.176    -67499.05   -66885.682 
Loop time of 2423.95 on 6 procs for 66172 steps with 19652 atoms

Performance: 2.359 ns/day, 10.175 hours/ns, 27.299 timesteps/s
99.9% CPU use with 6 MPI tasks x no OpenMP threads

MPI task timing breakdown:
Section |  min time  |  avg time  |  max time  |%varavg| %total
---------------------------------------------------------------
Pair    | 1359.2     | 1380.3     | 1396.3     |  40.6 | 56.94
Neigh   | 826.67     | 844.39     | 870.97     |  51.9 | 34.84
Comm    | 159.71     | 176.78     | 192.52     |  98.4 |  7.29
Output  | 0.037988   | 0.03802    | 0.038169   |   0.0 |  0.00
Modify  | 17.166     | 17.422     | 17.587     |   3.3 |  0.72
Other   |            | 5.071      |            |       |  0.21

Nlocal:    3275.33 ave 3289 max 3267 min
Histogram: 3 0 1 0 0 0 0 0 0 2
Nghost:    8507.17 ave 8537 max 8477 min
Histogram: 2 0 0 1 0 0 1 0 0 2
Neighs:    344228 ave 350189 max 340348 min
Histogram: 1 1 2 0 0 0 0 1 0 1

Total # of neighbors = 2065368
Ave neighs/atom = 105.097
Neighbor list builds = 66172
Dangerous builds not checked
Setting up Verlet run ...
  Unit style    : metal
  Current step  : 3040015
  Time step     : 0.001
Per MPI rank memory allocation (min/avg/max) = 5.967 | 5.995 | 6.01 Mbytes
Step Temp Press TotEng PotEng Enthalpy 
 3040015    199.15602    725.43995   -66993.176    -67499.05   -66885.682 
 3040510    177.26295   -10.635333   -67120.966    -67571.23   -67122.541 
Loop time of 17.1367 on 6 procs for 495 steps with 19652 atoms

Performance: 2.496 ns/day, 9.617 hours/ns, 28.885 timesteps/s
100.0% CPU use with 6 MPI tasks x no OpenMP threads

MPI task timing breakdown:
Section |  min time  |  avg time  |  max time  |%varavg| %total
---------------------------------------------------------------
Pair    | 9.3151     | 9.7421     | 10.021     |   7.8 | 56.85
Neigh   | 5.3658     | 6.0284     | 6.9844     |  21.6 | 35.18
Comm    | 0.67003    | 1.2077     | 1.6018     |  28.1 |  7.05
Output  | 3.6001e-05 | 4.2478e-05 | 7.391e-05  |   0.0 |  0.00
Modify  | 0.11483    | 0.12257    | 0.12991    |   1.4 |  0.72
Other   |            | 0.03591    |            |       |  0.21

Nlocal:    3275.33 ave 3293 max 3265 min
Histogram: 2 1 0 1 0 0 1 0 0 1
Nghost:    8512 ave 8555 max 8456 min
Histogram: 1 0 0 1 0 0 2 1 0 1
Neighs:    344664 ave 350284 max 339638 min
Histogram: 1 0 1 1 1 0 0 1 0 1

Total # of neighbors = 2067983
Ave neighs/atom = 105.23
Neighbor list builds = 495
Dangerous builds not checked
Setting up Verlet run ...
  Unit style    : metal
  Current step  : 3040510
  Time step     : 0.001
Per MPI rank memory allocation (min/avg/max) = 5.967 | 5.995 | 6.01 Mbytes
Step Temp Press TotEng PotEng Enthalpy 
 3040510    177.26295   -10.635333   -67120.966    -67571.23   -67122.541 
 3066682    149.40989   -157.57148   -67259.597   -67639.112   -67282.893 
 3106682     149.1502   -107.54208   -67260.138   -67638.993   -67276.039 
Loop time of 2795.85 on 6 procs for 66172 steps with 19652 atoms

Performance: 2.045 ns/day, 11.736 hours/ns, 23.668 timesteps/s
97.0% CPU use with 6 MPI tasks x no OpenMP threads

MPI task timing breakdown:
Section |  min time  |  avg time  |  max time  |%varavg| %total
---------------------------------------------------------------
Pair    | 1515.4     | 1535       | 1547.8     |  34.2 | 54.90
Neigh   | 835.07     | 842.43     | 850.13     |  19.5 | 30.13
Comm    | 303.03     | 317.17     | 331.78     |  58.0 | 11.34
Output  | 0.06469    | 0.064704   | 0.064749   |   0.0 |  0.00
Modify  | 72.222     | 96.233     | 109.52     | 171.0 |  3.44
Other   |            | 4.968      |            |       |  0.18

Nlocal:    3275.33 ave 3292 max 3263 min
Histogram: 1 1 1 1 0 0 0 0 1 1
Nghost:    8514.17 ave 8553 max 8463 min
Histogram: 1 0 1 0 0 1 0 1 0 2
Neighs:    345051 ave 350778 max 340634 min
Histogram: 1 1 1 0 1 0 0 1 0 1

Total # of neighbors = 2070307
Ave neighs/atom = 105.348
Neighbor list builds = 66172
Dangerous builds not checked
Setting up Verlet run ...
  Unit style    : metal
  Current step  : 3106682
  Time step     : 0.001
Per MPI rank memory allocation (min/avg/max) = 5.967 | 5.995 | 6.01 Mbytes
Step Temp Press TotEng PotEng Enthalpy 
 3106682     149.1502   -107.54208   -67260.138   -67638.993   -67276.039 
 3107177    127.23417     41.05386   -67376.703    -67699.89   -67370.642 
Loop time of 20.9606 on 6 procs for 495 steps with 19652 atoms

Performance: 2.040 ns/day, 11.762 hours/ns, 23.616 timesteps/s
97.7% CPU use with 6 MPI tasks x no OpenMP threads

MPI task timing breakdown:
Section |  min time  |  avg time  |  max time  |%varavg| %total
---------------------------------------------------------------
Pair    | 12.82      | 13.122     | 13.377     |   5.5 | 62.60
Neigh   | 5.4586     | 6.2878     | 7.0893     |  19.7 | 30.00
Comm    | 0.86979    | 1.3829     | 1.9675     |  27.9 |  6.60
Output  | 3.314e-05  | 3.8465e-05 | 6.3181e-05 |   0.0 |  0.00
Modify  | 0.1211     | 0.13013    | 0.13708    |   1.4 |  0.62
Other   |            | 0.03815    |            |       |  0.18

Nlocal:    3275.33 ave 3297 max 3265 min
Histogram: 3 1 0 0 0 0 1 0 0 1
Nghost:    8531.67 ave 8567 max 8490 min
Histogram: 1 0 1 0 0 1 1 0 1 1
Neighs:    345744 ave 350412 max 341631 min
Histogram: 1 0 1 1 1 0 0 0 1 1

Total # of neighbors = 2074464
Ave neighs/atom = 105.56
Neighbor list builds = 495
Dangerous builds not checked
Setting up Verlet run ...
  Unit style    : metal
  Current step  : 3107177
  Time step     : 0.001
Per MPI rank memory allocation (min/avg/max) = 5.967 | 5.995 | 6.01 Mbytes
Step Temp Press TotEng PotEng Enthalpy 
 3107177    127.23417     41.05386   -67376.703    -67699.89   -67370.642 
 3133349    99.292904    549.91395   -67518.858   -67771.071   -67437.824 
 3173349    99.508982    566.75875   -67521.162   -67773.924   -67437.638 
Loop time of 2645.91 on 6 procs for 66172 steps with 19652 atoms

Performance: 2.161 ns/day, 11.107 hours/ns, 25.009 timesteps/s
99.4% CPU use with 6 MPI tasks x no OpenMP threads

MPI task timing breakdown:
Section |  min time  |  avg time  |  max time  |%varavg| %total
---------------------------------------------------------------
Pair    | 1472.8     | 1491.6     | 1505.3     |  28.1 | 56.37
Neigh   | 880.02     | 913.84     | 943.72     |  72.1 | 34.54
Comm    | 171.33     | 206.8      | 237.4      | 153.4 |  7.82
Output  | 0.032102   | 0.032117   | 0.032174   |   0.0 |  0.00
Modify  | 27.65      | 28.086     | 28.5       |   5.5 |  1.06
Other   |            | 5.556      |            |       |  0.21

Nlocal:    3275.33 ave 3293 max 3263 min
Histogram: 2 1 0 1 0 0 0 0 0 2
Nghost:    8521.67 ave 8561 max 8471 min
Histogram: 1 0 1 0 0 0 1 1 1 1
Neighs:    346460 ave 352407 max 342984 min
Histogram: 1 2 0 1 0 0 1 0 0 1

Total # of neighbors = 2078760
Ave neighs/atom = 105.779
Neighbor list builds = 66172
Dangerous builds not checked
Total wall time: 35:21:16
