LAMMPS (12 Dec 2018)
Lattice spacing in x,y,z = 4 4 4
Created orthogonal box = (0 0 0) to (68 68 68)
  1 by 1 by 1 MPI processor grid
Created 19652 atoms
  Time spent = 0.00297689 secs
Setting atom values ...
  0 settings made for type/fraction
Neighbor list info ...
  update every 1 steps, delay 0 steps, check no
  max neighbors/atom: 2000, page size: 100000
  master list distance cutoff = 8.5
  ghost atom cutoff = 8.5
  binsize = 4.25, bins = 16 16 16
  1 neighbor lists, perpetual/occasional/extra = 1 0 0
  (1) pair eam/alloy, perpetual
      attributes: half, newton on
      pair build: half/bin/atomonly/newton
      stencil: half/bin/3d/newton
      bin: standard
Setting up Verlet run ...
  Unit style    : metal
  Current step  : 0
  Time step     : 0.001
Per MPI rank memory allocation (min/avg/max) = 18.19 | 18.19 | 18.19 Mbytes
Step Temp Press TotEng PotEng Enthalpy Volume 
       0          300    269835.24   -20946.227   -21708.254    32009.758       314432 
    1000    152.40124    268456.59   -20945.989   -21333.102    31739.433       314432 
Loop time of 197.193 on 1 procs for 1000 steps with 19652 atoms

Performance: 0.438 ns/day, 54.776 hours/ns, 5.071 timesteps/s
97.9% CPU use with 1 MPI tasks x no OpenMP threads

MPI task timing breakdown:
Section |  min time  |  avg time  |  max time  |%varavg| %total
---------------------------------------------------------------
Pair    | 114.17     | 114.17     | 114.17     |   0.0 | 57.90
Neigh   | 80.319     | 80.319     | 80.319     |   0.0 | 40.73
Comm    | 1.5374     | 1.5374     | 1.5374     |   0.0 |  0.78
Output  | 0.068059   | 0.068059   | 0.068059   |   0.0 |  0.03
Modify  | 0.59427    | 0.59427    | 0.59427    |   0.0 |  0.30
Other   |            | 0.5024     |            |       |  0.25

Nlocal:    19652 ave 19652 max 19652 min
Histogram: 1 0 0 0 0 0 0 0 0 0
Nghost:    20102 ave 20102 max 20102 min
Histogram: 1 0 0 0 0 0 0 0 0 0
Neighs:    1.57572e+06 ave 1.57572e+06 max 1.57572e+06 min
Histogram: 1 0 0 0 0 0 0 0 0 0

Total # of neighbors = 1575720
Ave neighs/atom = 80.1812
Neighbor list builds = 1000
Dangerous builds not checked
Setting up Verlet run ...
  Unit style    : metal
  Current step  : 1000
  Time step     : 0.001
Per MPI rank memory allocation (min/avg/max) = 18.19 | 18.19 | 18.19 Mbytes
Step Temp Press TotEng PotEng Enthalpy Volume 
    1000    152.40124    268456.59   -20945.989   -21333.102    31739.433       314432 
    2000     254.7532     327.9226   -28379.186   -29026.283   -28286.022    455184.54 
Loop time of 170.076 on 1 procs for 1000 steps with 19652 atoms

Performance: 0.508 ns/day, 47.243 hours/ns, 5.880 timesteps/s
97.2% CPU use with 1 MPI tasks x no OpenMP threads

MPI task timing breakdown:
Section |  min time  |  avg time  |  max time  |%varavg| %total
---------------------------------------------------------------
Pair    | 89.944     | 89.944     | 89.944     |   0.0 | 52.88
Neigh   | 76.019     | 76.019     | 76.019     |   0.0 | 44.70
Comm    | 1.3787     | 1.3787     | 1.3787     |   0.0 |  0.81
Output  | 0.067394   | 0.067394   | 0.067394   |   0.0 |  0.04
Modify  | 2.1455     | 2.1455     | 2.1455     |   0.0 |  1.26
Other   |            | 0.5207     |            |       |  0.31

Nlocal:    19652 ave 19652 max 19652 min
Histogram: 1 0 0 0 0 0 0 0 0 0
Nghost:    14808 ave 14808 max 14808 min
Histogram: 1 0 0 0 0 0 0 0 0 0
Neighs:    1.11798e+06 ave 1.11798e+06 max 1.11798e+06 min
Histogram: 1 0 0 0 0 0 0 0 0 0

Total # of neighbors = 1117977
Ave neighs/atom = 56.8887
Neighbor list builds = 1000
Dangerous builds not checked
Setting up Verlet run ...
  Unit style    : metal
  Current step  : 2000
  Time step     : 0.001
Per MPI rank memory allocation (min/avg/max) = 18.19 | 18.19 | 18.19 Mbytes
Step Temp Press TotEng PotEng Enthalpy Volume 
    2000     254.7532     327.9226   -28379.186   -29026.283   -28286.022    455184.54 
    3000    452.34553    94.293426   -27268.183   -28417.182   -27240.843    464539.59 
    4000    790.92258     73.27803   -25224.625   -27233.641   -25202.486    484058.45 
    5000    1072.2199    6.0450109    -23134.91   -25858.446   -23132.995    507447.36 
    6000    1361.3389    281.62203   -20600.101   -24058.026   -20504.352    544727.62 
    7000    1623.2922   -102.64656   -18971.607   -23094.917   -19008.004    568107.22 
    8000    1897.1387    223.05044   -17443.714   -22262.619    -17361.64    589542.66 
    9000    2181.2738    168.24024   -15861.833   -21402.467    -15797.08    616651.33 
   10000    2436.4506    459.87258   -14165.467   -20354.274   -13978.273    652175.74 
Loop time of 1029.62 on 1 procs for 8000 steps with 19652 atoms

Performance: 0.671 ns/day, 35.751 hours/ns, 7.770 timesteps/s
98.9% CPU use with 1 MPI tasks x no OpenMP threads

MPI task timing breakdown:
Section |  min time  |  avg time  |  max time  |%varavg| %total
---------------------------------------------------------------
Pair    | 535.59     | 535.59     | 535.59     |   0.0 | 52.02
Neigh   | 463.59     | 463.59     | 463.59     |   0.0 | 45.02
Comm    | 10.285     | 10.285     | 10.285     |   0.0 |  1.00
Output  | 0.46468    | 0.46468    | 0.46468    |   0.0 |  0.05
Modify  | 16.004     | 16.004     | 16.004     |   0.0 |  1.55
Other   |            | 3.691      |            |       |  0.36

Nlocal:    19652 ave 19652 max 19652 min
Histogram: 1 0 0 0 0 0 0 0 0 0
Nghost:    13979 ave 13979 max 13979 min
Histogram: 1 0 0 0 0 0 0 0 0 0
Neighs:    752600 ave 752600 max 752600 min
Histogram: 1 0 0 0 0 0 0 0 0 0

Total # of neighbors = 752600
Ave neighs/atom = 38.2964
Neighbor list builds = 8000
Dangerous builds not checked
Setting up Verlet run ...
  Unit style    : metal
  Current step  : 10000
  Time step     : 0.001
Per MPI rank memory allocation (min/avg/max) = 18.22 | 18.22 | 18.22 Mbytes
Step Temp Press TotEng PotEng Enthalpy Volume 
   10000    2436.4506    459.87258   -14165.467   -20354.274   -13978.273    652175.74 
   11000    2440.2212   -6.8907462   -14058.449   -20256.833   -14061.281    658508.64 
   12000      2441.68   -327.29943    -14073.84    -20275.93   -14208.249    657946.72 
   13000    2455.9793    90.202747    -14059.57   -20297.981   -14022.557    657417.98 
   14000    2456.5956   -210.00927   -14113.318   -20353.294   -14199.235    655471.81 
   15000    2441.8346   -364.58665    -13975.04   -20177.522   -14125.531    661332.71 
   16000     2435.876   -569.38704   -14042.705   -20230.052   -14277.196    659824.18 
   17000    2453.0127    527.15409   -14049.732   -20280.608   -13834.048    655529.63 
   18000     2434.295   -570.18938   -13966.915   -20150.246   -14203.191    663912.73 
   19000    2452.0529    78.971134   -14146.367   -20374.805   -14114.161    653388.25 
   20000    2449.1989   -325.60177   -13986.407   -20207.595   -14120.585    660242.16 
   21000    2466.1149    299.70441    -13972.76   -20236.917   -13849.633    658220.67 
   22000    2482.9281    501.47707   -13977.891   -20284.755   -13772.504    656195.62 
   23000    2459.4842   -371.74422    -13952.11   -20199.424   -14105.834    662530.04 
   24000    2456.2685    49.872704   -14073.851   -20312.997   -14053.423    656252.83 
   25000    2453.9741   -384.56494   -13877.104   -20110.422   -14036.624    664591.44 
   26000    2465.6948    100.83527   -14031.908   -20294.998   -13990.554    657078.02 
   27000    2442.8854    336.64498   -14091.989    -20297.14   -13954.565    654033.85 
   28000    2459.8278   -245.42919    -13945.87   -20194.056   -14047.123    660987.99 
   29000    2440.9081   -160.65131   -14111.117   -20311.245    -14176.94    656455.91 
   30000    2434.7532   -252.66083   -14067.308   -20251.803   -14171.214    658895.67 
   31000    2456.0791   -301.19251   -13913.891   -20152.556   -14038.732    664087.26 
   32000     2430.601     -109.214   -14164.408   -20338.356    -14209.04    654747.35 
   33000     2441.608   -235.66129   -13919.791   -20121.698   -14017.472       664096 
   34000    2444.7057    297.42674   -14025.067   -20234.842    -13902.94    657875.24 
   35000    2433.3136   -53.343838   -14088.237   -20269.075   -14110.174    658863.18 
   36000    2437.5873    470.62067   -14111.098   -20302.792   -13918.638    655207.25 
   37000    2457.1341   -666.78494   -13955.563   -20196.907   -14231.531    663107.99 
   38000    2460.2592    109.18368    -14111.75   -20361.032   -14067.181     654017.2 
   39000    2455.9427    40.951452   -13988.917   -20227.235   -13972.059    659533.56 
   40000     2426.912    33.488875   -14130.455   -20295.033   -14116.746    655851.96 
Loop time of 3583.8 on 1 procs for 30000 steps with 19652 atoms

Performance: 0.723 ns/day, 33.183 hours/ns, 8.371 timesteps/s
98.3% CPU use with 1 MPI tasks x no OpenMP threads

MPI task timing breakdown:
Section |  min time  |  avg time  |  max time  |%varavg| %total
---------------------------------------------------------------
Pair    | 1797.8     | 1797.8     | 1797.8     |   0.0 | 50.16
Neigh   | 1668.1     | 1668.1     | 1668.1     |   0.0 | 46.55
Comm    | 40.37      | 40.37      | 40.37      |   0.0 |  1.13
Output  | 1.9434     | 1.9434     | 1.9434     |   0.0 |  0.05
Modify  | 61.128     | 61.128     | 61.128     |   0.0 |  1.71
Other   |            | 14.46      |            |       |  0.40

Nlocal:    19652 ave 19652 max 19652 min
Histogram: 1 0 0 0 0 0 0 0 0 0
Nghost:    13934 ave 13934 max 13934 min
Histogram: 1 0 0 0 0 0 0 0 0 0
Neighs:    748055 ave 748055 max 748055 min
Histogram: 1 0 0 0 0 0 0 0 0 0

Total # of neighbors = 748055
Ave neighs/atom = 38.0651
Neighbor list builds = 30000
Dangerous builds not checked
Setting up Verlet run ...
  Unit style    : metal
  Current step  : 40000
  Time step     : 0.001
Per MPI rank memory allocation (min/avg/max) = 18.22 | 18.22 | 18.22 Mbytes
Step Temp Press TotEng PotEng Enthalpy Volume 
   40000     2426.912    33.488875   -14130.455   -20295.033   -14116.746    655851.96 
   40495    2405.0396   -362.55202   -14210.967   -20319.987   -14359.667    657130.75 
Loop time of 60.5088 on 1 procs for 495 steps with 19652 atoms

Performance: 0.707 ns/day, 33.956 hours/ns, 8.181 timesteps/s
98.7% CPU use with 1 MPI tasks x no OpenMP threads

MPI task timing breakdown:
Section |  min time  |  avg time  |  max time  |%varavg| %total
---------------------------------------------------------------
Pair    | 30.678     | 30.678     | 30.678     |   0.0 | 50.70
Neigh   | 27.825     | 27.825     | 27.825     |   0.0 | 45.98
Comm    | 0.69852    | 0.69852    | 0.69852    |   0.0 |  1.15
Output  | 0.00021696 | 0.00021696 | 0.00021696 |   0.0 |  0.00
Modify  | 1.0461     | 1.0461     | 1.0461     |   0.0 |  1.73
Other   |            | 0.2611     |            |       |  0.43

Nlocal:    19652 ave 19652 max 19652 min
Histogram: 1 0 0 0 0 0 0 0 0 0
Nghost:    13897 ave 13897 max 13897 min
Histogram: 1 0 0 0 0 0 0 0 0 0
Neighs:    746754 ave 746754 max 746754 min
Histogram: 1 0 0 0 0 0 0 0 0 0

Total # of neighbors = 746754
Ave neighs/atom = 37.9989
Neighbor list builds = 495
Dangerous builds not checked
Setting up Verlet run ...
  Unit style    : metal
  Current step  : 40495
  Time step     : 0.001
Per MPI rank memory allocation (min/avg/max) = 18.22 | 18.22 | 18.22 Mbytes
Step Temp Press TotEng PotEng Enthalpy Volume 
   40495    2405.0396   -362.55202   -14210.967   -20319.987   -14359.667    657130.75 
   41000     2422.787    12.296126   -14382.161   -20536.261   -14377.182    648833.16 
Loop time of 61.5445 on 1 procs for 505 steps with 19652 atoms

Performance: 0.709 ns/day, 33.853 hours/ns, 8.205 timesteps/s
99.5% CPU use with 1 MPI tasks x no OpenMP threads

MPI task timing breakdown:
Section |  min time  |  avg time  |  max time  |%varavg| %total
---------------------------------------------------------------
Pair    | 30.942     | 30.942     | 30.942     |   0.0 | 50.28
Neigh   | 28.51      | 28.51      | 28.51      |   0.0 | 46.32
Comm    | 0.7015     | 0.7015     | 0.7015     |   0.0 |  1.14
Output  | 0.048015   | 0.048015   | 0.048015   |   0.0 |  0.08
Modify  | 1.0834     | 1.0834     | 1.0834     |   0.0 |  1.76
Other   |            | 0.2604     |            |       |  0.42

Nlocal:    19652 ave 19652 max 19652 min
Histogram: 1 0 0 0 0 0 0 0 0 0
Nghost:    13941 ave 13941 max 13941 min
Histogram: 1 0 0 0 0 0 0 0 0 0
Neighs:    756037 ave 756037 max 756037 min
Histogram: 1 0 0 0 0 0 0 0 0 0

Total # of neighbors = 756037
Ave neighs/atom = 38.4712
Neighbor list builds = 505
Dangerous builds not checked
Setting up Verlet run ...
  Unit style    : metal
  Current step  : 41000
  Time step     : 0.001
Per MPI rank memory allocation (min/avg/max) = 18.22 | 18.22 | 18.22 Mbytes
Step Temp Press TotEng PotEng Enthalpy Volume 
   41000     2422.787    12.296126   -14382.161   -20536.261   -14377.182    648833.16 
   41495    2367.5032    5.0422831   -14556.245   -20569.919   -14554.209    647049.63 
Loop time of 58.5267 on 1 procs for 495 steps with 19652 atoms

Performance: 0.731 ns/day, 32.843 hours/ns, 8.458 timesteps/s
99.2% CPU use with 1 MPI tasks x no OpenMP threads

MPI task timing breakdown:
Section |  min time  |  avg time  |  max time  |%varavg| %total
---------------------------------------------------------------
Pair    | 29.377     | 29.377     | 29.377     |   0.0 | 50.19
Neigh   | 27.218     | 27.218     | 27.218     |   0.0 | 46.51
Comm    | 0.65284    | 0.65284    | 0.65284    |   0.0 |  1.12
Output  | 0.00019002 | 0.00019002 | 0.00019002 |   0.0 |  0.00
Modify  | 1.0292     | 1.0292     | 1.0292     |   0.0 |  1.76
Other   |            | 0.249      |            |       |  0.43

Nlocal:    19652 ave 19652 max 19652 min
Histogram: 1 0 0 0 0 0 0 0 0 0
Nghost:    13988 ave 13988 max 13988 min
Histogram: 1 0 0 0 0 0 0 0 0 0
Neighs:    758312 ave 758312 max 758312 min
Histogram: 1 0 0 0 0 0 0 0 0 0

Total # of neighbors = 758312
Ave neighs/atom = 38.587
Neighbor list builds = 495
Dangerous builds not checked
Setting up Verlet run ...
  Unit style    : metal
  Current step  : 41495
  Time step     : 0.001
Per MPI rank memory allocation (min/avg/max) = 18.22 | 18.22 | 18.22 Mbytes
Step Temp Press TotEng PotEng Enthalpy Volume 
   41495    2367.5032    5.0422831   -14556.245   -20569.919   -14554.209    647049.63 
   42000     2361.002    496.57767   -14597.424   -20594.584    -14398.02    643365.22 
Loop time of 55.7571 on 1 procs for 505 steps with 19652 atoms

Performance: 0.783 ns/day, 30.669 hours/ns, 9.057 timesteps/s
98.6% CPU use with 1 MPI tasks x no OpenMP threads

MPI task timing breakdown:
Section |  min time  |  avg time  |  max time  |%varavg| %total
---------------------------------------------------------------
Pair    | 27.898     | 27.898     | 27.898     |   0.0 | 50.03
Neigh   | 25.925     | 25.925     | 25.925     |   0.0 | 46.50
Comm    | 0.63785    | 0.63785    | 0.63785    |   0.0 |  1.14
Output  | 0.070347   | 0.070347   | 0.070347   |   0.0 |  0.13
Modify  | 0.98541    | 0.98541    | 0.98541    |   0.0 |  1.77
Other   |            | 0.2412     |            |       |  0.43

Nlocal:    19652 ave 19652 max 19652 min
Histogram: 1 0 0 0 0 0 0 0 0 0
Nghost:    14065 ave 14065 max 14065 min
Histogram: 1 0 0 0 0 0 0 0 0 0
Neighs:    763415 ave 763415 max 763415 min
Histogram: 1 0 0 0 0 0 0 0 0 0

Total # of neighbors = 763415
Ave neighs/atom = 38.8467
Neighbor list builds = 505
Dangerous builds not checked
Setting up Verlet run ...
  Unit style    : metal
  Current step  : 42000
  Time step     : 0.001
Per MPI rank memory allocation (min/avg/max) = 18.22 | 18.22 | 18.22 Mbytes
Step Temp Press TotEng PotEng Enthalpy Volume 
   42000     2361.002    496.57767   -14597.424   -20594.584    -14398.02    643365.22 
   42495    2316.4728   -720.87033   -14855.423   -20739.474   -15144.679    642889.76 
Loop time of 57.9527 on 1 procs for 495 steps with 19652 atoms

Performance: 0.738 ns/day, 32.521 hours/ns, 8.541 timesteps/s
98.4% CPU use with 1 MPI tasks x no OpenMP threads

MPI task timing breakdown:
Section |  min time  |  avg time  |  max time  |%varavg| %total
---------------------------------------------------------------
Pair    | 28.906     | 28.906     | 28.906     |   0.0 | 49.88
Neigh   | 27.1       | 27.1       | 27.1       |   0.0 | 46.76
Comm    | 0.66296    | 0.66296    | 0.66296    |   0.0 |  1.14
Output  | 0.00014305 | 0.00014305 | 0.00014305 |   0.0 |  0.00
Modify  | 1.0326     | 1.0326     | 1.0326     |   0.0 |  1.78
Other   |            | 0.2515     |            |       |  0.43

Nlocal:    19652 ave 19652 max 19652 min
Histogram: 1 0 0 0 0 0 0 0 0 0
Nghost:    14027 ave 14027 max 14027 min
Histogram: 1 0 0 0 0 0 0 0 0 0
Neighs:    763570 ave 763570 max 763570 min
Histogram: 1 0 0 0 0 0 0 0 0 0

Total # of neighbors = 763570
Ave neighs/atom = 38.8546
Neighbor list builds = 495
Dangerous builds not checked
Setting up Verlet run ...
  Unit style    : metal
  Current step  : 42495
  Time step     : 0.001
Per MPI rank memory allocation (min/avg/max) = 18.22 | 18.22 | 18.22 Mbytes
Step Temp Press TotEng PotEng Enthalpy Volume 
   42495    2316.4728   -720.87033   -14855.423   -20739.474   -15144.679    642889.76 
   43000    2306.3104    633.65387   -15026.375   -20884.614   -14775.965    633156.69 
Loop time of 60.1374 on 1 procs for 505 steps with 19652 atoms

Performance: 0.726 ns/day, 33.079 hours/ns, 8.397 timesteps/s
98.5% CPU use with 1 MPI tasks x no OpenMP threads

MPI task timing breakdown:
Section |  min time  |  avg time  |  max time  |%varavg| %total
---------------------------------------------------------------
Pair    | 30.112     | 30.112     | 30.112     |   0.0 | 50.07
Neigh   | 27.932     | 27.932     | 27.932     |   0.0 | 46.45
Comm    | 0.69026    | 0.69026    | 0.69026    |   0.0 |  1.15
Output  | 0.067439   | 0.067439   | 0.067439   |   0.0 |  0.11
Modify  | 1.0828     | 1.0828     | 1.0828     |   0.0 |  1.80
Other   |            | 0.2531     |            |       |  0.42

Nlocal:    19652 ave 19652 max 19652 min
Histogram: 1 0 0 0 0 0 0 0 0 0
Nghost:    14098 ave 14098 max 14098 min
Histogram: 1 0 0 0 0 0 0 0 0 0
Neighs:    775703 ave 775703 max 775703 min
Histogram: 1 0 0 0 0 0 0 0 0 0

Total # of neighbors = 775703
Ave neighs/atom = 39.472
Neighbor list builds = 505
Dangerous builds not checked
Setting up Verlet run ...
  Unit style    : metal
  Current step  : 43000
  Time step     : 0.001
Per MPI rank memory allocation (min/avg/max) = 18.22 | 18.22 | 18.22 Mbytes
Step Temp Press TotEng PotEng Enthalpy Volume 
   43000    2306.3104    633.65387   -15026.375   -20884.614   -14775.965    633156.69 
   43495    2271.4935   -421.83024   -15213.824   -20983.624   -15380.561    633293.52 
Loop time of 56.9247 on 1 procs for 495 steps with 19652 atoms

Performance: 0.751 ns/day, 31.944 hours/ns, 8.696 timesteps/s
97.4% CPU use with 1 MPI tasks x no OpenMP threads

MPI task timing breakdown:
Section |  min time  |  avg time  |  max time  |%varavg| %total
---------------------------------------------------------------
Pair    | 28.838     | 28.838     | 28.838     |   0.0 | 50.66
Neigh   | 26.155     | 26.155     | 26.155     |   0.0 | 45.95
Comm    | 0.66934    | 0.66934    | 0.66934    |   0.0 |  1.18
Output  | 0.00020099 | 0.00020099 | 0.00020099 |   0.0 |  0.00
Modify  | 1.023      | 1.023      | 1.023      |   0.0 |  1.80
Other   |            | 0.2401     |            |       |  0.42

Nlocal:    19652 ave 19652 max 19652 min
Histogram: 1 0 0 0 0 0 0 0 0 0
Nghost:    14097 ave 14097 max 14097 min
Histogram: 1 0 0 0 0 0 0 0 0 0
Neighs:    774926 ave 774926 max 774926 min
Histogram: 1 0 0 0 0 0 0 0 0 0

Total # of neighbors = 774926
Ave neighs/atom = 39.4324
Neighbor list builds = 495
Dangerous builds not checked
Setting up Verlet run ...
  Unit style    : metal
  Current step  : 43495
  Time step     : 0.001
Per MPI rank memory allocation (min/avg/max) = 18.22 | 18.22 | 18.22 Mbytes
Step Temp Press TotEng PotEng Enthalpy Volume 
   43495    2271.4935   -421.83024   -15213.824   -20983.624   -15380.561    633293.52 
   44000    2289.1146    688.06413   -15215.645   -21030.205    -14946.19    627434.29 
Loop time of 57.1995 on 1 procs for 505 steps with 19652 atoms

Performance: 0.763 ns/day, 31.463 hours/ns, 8.829 timesteps/s
99.4% CPU use with 1 MPI tasks x no OpenMP threads

MPI task timing breakdown:
Section |  min time  |  avg time  |  max time  |%varavg| %total
---------------------------------------------------------------
Pair    | 28.816     | 28.816     | 28.816     |   0.0 | 50.38
Neigh   | 26.379     | 26.379     | 26.379     |   0.0 | 46.12
Comm    | 0.68389    | 0.68389    | 0.68389    |   0.0 |  1.20
Output  | 0.064334   | 0.064334   | 0.064334   |   0.0 |  0.11
Modify  | 1.0176     | 1.0176     | 1.0176     |   0.0 |  1.78
Other   |            | 0.2388     |            |       |  0.42

Nlocal:    19652 ave 19652 max 19652 min
Histogram: 1 0 0 0 0 0 0 0 0 0
Nghost:    14179 ave 14179 max 14179 min
Histogram: 1 0 0 0 0 0 0 0 0 0
Neighs:    782056 ave 782056 max 782056 min
Histogram: 1 0 0 0 0 0 0 0 0 0

Total # of neighbors = 782056
Ave neighs/atom = 39.7952
Neighbor list builds = 505
Dangerous builds not checked
Setting up Verlet run ...
  Unit style    : metal
  Current step  : 44000
  Time step     : 0.001
Per MPI rank memory allocation (min/avg/max) = 18.22 | 18.22 | 18.22 Mbytes
Step Temp Press TotEng PotEng Enthalpy Volume 
   44000    2289.1146    688.06413   -15215.645   -21030.205    -14946.19    627434.29 
   44495    2198.9416   -496.60444   -15464.437   -21049.949   -15659.893    630592.41 
Loop time of 57.6864 on 1 procs for 495 steps with 19652 atoms

Performance: 0.741 ns/day, 32.372 hours/ns, 8.581 timesteps/s
99.9% CPU use with 1 MPI tasks x no OpenMP threads

MPI task timing breakdown:
Section |  min time  |  avg time  |  max time  |%varavg| %total
---------------------------------------------------------------
Pair    | 29.067     | 29.067     | 29.067     |   0.0 | 50.39
Neigh   | 26.668     | 26.668     | 26.668     |   0.0 | 46.23
Comm    | 0.68172    | 0.68172    | 0.68172    |   0.0 |  1.18
Output  | 0.00021887 | 0.00021887 | 0.00021887 |   0.0 |  0.00
Modify  | 1.0285     | 1.0285     | 1.0285     |   0.0 |  1.78
Other   |            | 0.241      |            |       |  0.42

Nlocal:    19652 ave 19652 max 19652 min
Histogram: 1 0 0 0 0 0 0 0 0 0
Nghost:    14117 ave 14117 max 14117 min
Histogram: 1 0 0 0 0 0 0 0 0 0
Neighs:    778456 ave 778456 max 778456 min
Histogram: 1 0 0 0 0 0 0 0 0 0

Total # of neighbors = 778456
Ave neighs/atom = 39.612
Neighbor list builds = 495
Dangerous builds not checked
Setting up Verlet run ...
  Unit style    : metal
  Current step  : 44495
  Time step     : 0.001
Per MPI rank memory allocation (min/avg/max) = 18.22 | 18.22 | 18.22 Mbytes
Step Temp Press TotEng PotEng Enthalpy Volume 
   44495    2198.9416   -496.60444   -15464.437   -21049.949   -15659.893    630592.41 
   45000    2202.8375    429.95515   -15625.485   -21220.893    -15458.56    622027.71 
Loop time of 57.2942 on 1 procs for 505 steps with 19652 atoms

Performance: 0.762 ns/day, 31.515 hours/ns, 8.814 timesteps/s
98.5% CPU use with 1 MPI tasks x no OpenMP threads

MPI task timing breakdown:
Section |  min time  |  avg time  |  max time  |%varavg| %total
---------------------------------------------------------------
Pair    | 28.89      | 28.89      | 28.89      |   0.0 | 50.42
Neigh   | 26.38      | 26.38      | 26.38      |   0.0 | 46.04
Comm    | 0.67329    | 0.67329    | 0.67329    |   0.0 |  1.18
Output  | 0.067855   | 0.067855   | 0.067855   |   0.0 |  0.12
Modify  | 1.0467     | 1.0467     | 1.0467     |   0.0 |  1.83
Other   |            | 0.237      |            |       |  0.41

Nlocal:    19652 ave 19652 max 19652 min
Histogram: 1 0 0 0 0 0 0 0 0 0
Nghost:    14250 ave 14250 max 14250 min
Histogram: 1 0 0 0 0 0 0 0 0 0
Neighs:    789161 ave 789161 max 789161 min
Histogram: 1 0 0 0 0 0 0 0 0 0

Total # of neighbors = 789161
Ave neighs/atom = 40.1568
Neighbor list builds = 505
Dangerous builds not checked
Setting up Verlet run ...
  Unit style    : metal
  Current step  : 45000
  Time step     : 0.001
Per MPI rank memory allocation (min/avg/max) = 18.22 | 18.22 | 18.22 Mbytes
Step Temp Press TotEng PotEng Enthalpy Volume 
   45000    2202.8375    429.95515   -15625.485   -21220.893    -15458.56    622027.71 
   45495    2154.0534    266.32431   -15817.351   -21288.843   -15714.256    620211.49 
Loop time of 53.4315 on 1 procs for 495 steps with 19652 atoms

Performance: 0.800 ns/day, 29.984 hours/ns, 9.264 timesteps/s
100.1% CPU use with 1 MPI tasks x no OpenMP threads

MPI task timing breakdown:
Section |  min time  |  avg time  |  max time  |%varavg| %total
---------------------------------------------------------------
Pair    | 27.085     | 27.085     | 27.085     |   0.0 | 50.69
Neigh   | 24.537     | 24.537     | 24.537     |   0.0 | 45.92
Comm    | 0.62896    | 0.62896    | 0.62896    |   0.0 |  1.18
Output  | 0.00019813 | 0.00019813 | 0.00019813 |   0.0 |  0.00
Modify  | 0.95685    | 0.95685    | 0.95685    |   0.0 |  1.79
Other   |            | 0.2239     |            |       |  0.42

Nlocal:    19652 ave 19652 max 19652 min
Histogram: 1 0 0 0 0 0 0 0 0 0
Nghost:    14311 ave 14311 max 14311 min
Histogram: 1 0 0 0 0 0 0 0 0 0
Neighs:    791480 ave 791480 max 791480 min
Histogram: 1 0 0 0 0 0 0 0 0 0

Total # of neighbors = 791480
Ave neighs/atom = 40.2748
Neighbor list builds = 495
Dangerous builds not checked
Setting up Verlet run ...
  Unit style    : metal
  Current step  : 45495
  Time step     : 0.001
Per MPI rank memory allocation (min/avg/max) = 18.22 | 18.22 | 18.22 Mbytes
Step Temp Press TotEng PotEng Enthalpy Volume 
   45495    2154.0534    266.32431   -15817.351   -21288.843   -15714.256    620211.49 
   46000     2150.987    218.72961   -15978.951   -21442.653   -15894.919    615527.69 
Loop time of 50.743 on 1 procs for 505 steps with 19652 atoms

Performance: 0.860 ns/day, 27.911 hours/ns, 9.952 timesteps/s
100.0% CPU use with 1 MPI tasks x no OpenMP threads

MPI task timing breakdown:
Section |  min time  |  avg time  |  max time  |%varavg| %total
---------------------------------------------------------------
Pair    | 25.797     | 25.797     | 25.797     |   0.0 | 50.84
Neigh   | 23.174     | 23.174     | 23.174     |   0.0 | 45.67
Comm    | 0.59189    | 0.59189    | 0.59189    |   0.0 |  1.17
Output  | 0.0676     | 0.0676     | 0.0676     |   0.0 |  0.13
Modify  | 0.90129    | 0.90129    | 0.90129    |   0.0 |  1.78
Other   |            | 0.2109     |            |       |  0.42

Nlocal:    19652 ave 19652 max 19652 min
Histogram: 1 0 0 0 0 0 0 0 0 0
Nghost:    14353 ave 14353 max 14353 min
Histogram: 1 0 0 0 0 0 0 0 0 0
Neighs:    796417 ave 796417 max 796417 min
Histogram: 1 0 0 0 0 0 0 0 0 0

Total # of neighbors = 796417
Ave neighs/atom = 40.526
Neighbor list builds = 505
Dangerous builds not checked
Setting up Verlet run ...
  Unit style    : metal
  Current step  : 46000
  Time step     : 0.001
Per MPI rank memory allocation (min/avg/max) = 18.22 | 18.22 | 18.22 Mbytes
Step Temp Press TotEng PotEng Enthalpy Volume 
   46000     2150.987    218.72961   -15978.951   -21442.653   -15894.919    615527.69 
   46495    2116.1913   -432.86824   -16111.252   -21486.571   -16277.607    615729.35 
Loop time of 59.1066 on 1 procs for 495 steps with 19652 atoms

Performance: 0.724 ns/day, 33.169 hours/ns, 8.375 timesteps/s
98.3% CPU use with 1 MPI tasks x no OpenMP threads

MPI task timing breakdown:
Section |  min time  |  avg time  |  max time  |%varavg| %total
---------------------------------------------------------------
Pair    | 30.114     | 30.114     | 30.114     |   0.0 | 50.95
Neigh   | 26.995     | 26.995     | 26.995     |   0.0 | 45.67
Comm    | 0.69957    | 0.69957    | 0.69957    |   0.0 |  1.18
Output  | 0.00017715 | 0.00017715 | 0.00017715 |   0.0 |  0.00
Modify  | 1.0532     | 1.0532     | 1.0532     |   0.0 |  1.78
Other   |            | 0.2444     |            |       |  0.41

Nlocal:    19652 ave 19652 max 19652 min
Histogram: 1 0 0 0 0 0 0 0 0 0
Nghost:    14321 ave 14321 max 14321 min
Histogram: 1 0 0 0 0 0 0 0 0 0
Neighs:    796765 ave 796765 max 796765 min
Histogram: 1 0 0 0 0 0 0 0 0 0

Total # of neighbors = 796765
Ave neighs/atom = 40.5437
Neighbor list builds = 495
Dangerous builds not checked
Setting up Verlet run ...
  Unit style    : metal
  Current step  : 46495
  Time step     : 0.001
Per MPI rank memory allocation (min/avg/max) = 18.22 | 18.22 | 18.22 Mbytes
Step Temp Press TotEng PotEng Enthalpy Volume 
   46495    2116.1913   -432.86824   -16111.252   -21486.571   -16277.607    615729.35 
   47000    2101.9968    404.56148   -16283.178   -21622.441   -16129.445    608825.55 
Loop time of 60.0721 on 1 procs for 505 steps with 19652 atoms

Performance: 0.726 ns/day, 33.043 hours/ns, 8.407 timesteps/s
99.6% CPU use with 1 MPI tasks x no OpenMP threads

MPI task timing breakdown:
Section |  min time  |  avg time  |  max time  |%varavg| %total
---------------------------------------------------------------
Pair    | 29.821     | 29.821     | 29.821     |   0.0 | 49.64
Neigh   | 28.221     | 28.221     | 28.221     |   0.0 | 46.98
Comm    | 0.6799     | 0.6799     | 0.6799     |   0.0 |  1.13
Output  | 0.068219   | 0.068219   | 0.068219   |   0.0 |  0.11
Modify  | 1.0301     | 1.0301     | 1.0301     |   0.0 |  1.71
Other   |            | 0.2519     |            |       |  0.42

Nlocal:    19652 ave 19652 max 19652 min
Histogram: 1 0 0 0 0 0 0 0 0 0
Nghost:    14383 ave 14383 max 14383 min
Histogram: 1 0 0 0 0 0 0 0 0 0
Neighs:    805905 ave 805905 max 805905 min
Histogram: 1 0 0 0 0 0 0 0 0 0

Total # of neighbors = 805905
Ave neighs/atom = 41.0088
Neighbor list builds = 505
Dangerous builds not checked
Setting up Verlet run ...
  Unit style    : metal
  Current step  : 47000
  Time step     : 0.001
Per MPI rank memory allocation (min/avg/max) = 18.22 | 18.22 | 18.22 Mbytes
Step Temp Press TotEng PotEng Enthalpy Volume 
   47000    2101.9968    404.56148   -16283.178   -21622.441   -16129.445    608825.55 
   47495    2057.0373   -511.30663   -16484.619   -21709.682   -16679.178    609649.04 
Loop time of 60.705 on 1 procs for 495 steps with 19652 atoms

Performance: 0.705 ns/day, 34.066 hours/ns, 8.154 timesteps/s
95.6% CPU use with 1 MPI tasks x no OpenMP threads

MPI task timing breakdown:
Section |  min time  |  avg time  |  max time  |%varavg| %total
---------------------------------------------------------------
Pair    | 29.808     | 29.808     | 29.808     |   0.0 | 49.10
Neigh   | 28.993     | 28.993     | 28.993     |   0.0 | 47.76
Comm    | 0.65778    | 0.65778    | 0.65778    |   0.0 |  1.08
Output  | 0.00015903 | 0.00015903 | 0.00015903 |   0.0 |  0.00
Modify  | 1.0136     | 1.0136     | 1.0136     |   0.0 |  1.67
Other   |            | 0.2332     |            |       |  0.38

Nlocal:    19652 ave 19652 max 19652 min
Histogram: 1 0 0 0 0 0 0 0 0 0
Nghost:    14263 ave 14263 max 14263 min
Histogram: 1 0 0 0 0 0 0 0 0 0
Neighs:    804879 ave 804879 max 804879 min
Histogram: 1 0 0 0 0 0 0 0 0 0

Total # of neighbors = 804879
Ave neighs/atom = 40.9566
Neighbor list builds = 495
Dangerous builds not checked
Setting up Verlet run ...
  Unit style    : metal
  Current step  : 47495
  Time step     : 0.001
Per MPI rank memory allocation (min/avg/max) = 18.22 | 18.22 | 18.22 Mbytes
Step Temp Press TotEng PotEng Enthalpy Volume 
   47495    2057.0373   -511.30663   -16484.619   -21709.682   -16679.178    609649.04 
   48000    2047.6833    612.93766   -16569.377   -21770.679   -16338.639    603133.12 
Loop time of 63.1282 on 1 procs for 505 steps with 19652 atoms

Performance: 0.691 ns/day, 34.724 hours/ns, 8.000 timesteps/s
96.9% CPU use with 1 MPI tasks x no OpenMP threads

MPI task timing breakdown:
Section |  min time  |  avg time  |  max time  |%varavg| %total
---------------------------------------------------------------
Pair    | 31.238     | 31.238     | 31.238     |   0.0 | 49.48
Neigh   | 29.745     | 29.745     | 29.745     |   0.0 | 47.12
Comm    | 0.68538    | 0.68538    | 0.68538    |   0.0 |  1.09
Output  | 0.1502     | 0.1502     | 0.1502     |   0.0 |  0.24
Modify  | 1.0535     | 1.0535     | 1.0535     |   0.0 |  1.67
Other   |            | 0.2555     |            |       |  0.40

Nlocal:    19652 ave 19652 max 19652 min
Histogram: 1 0 0 0 0 0 0 0 0 0
Nghost:    14451 ave 14451 max 14451 min
Histogram: 1 0 0 0 0 0 0 0 0 0
Neighs:    813723 ave 813723 max 813723 min
Histogram: 1 0 0 0 0 0 0 0 0 0

Total # of neighbors = 813723
Ave neighs/atom = 41.4066
Neighbor list builds = 505
Dangerous builds not checked
Setting up Verlet run ...
  Unit style    : metal
  Current step  : 48000
  Time step     : 0.001
Per MPI rank memory allocation (min/avg/max) = 18.22 | 18.22 | 18.22 Mbytes
Step Temp Press TotEng PotEng Enthalpy Volume 
   48000    2047.6833    612.93766   -16569.377   -21770.679   -16338.639    603133.12 
   48495      1997.75   -404.00178    -16728.93   -21803.396   -16881.514    605115.41 
Loop time of 61.4192 on 1 procs for 495 steps with 19652 atoms

Performance: 0.696 ns/day, 34.466 hours/ns, 8.059 timesteps/s
97.7% CPU use with 1 MPI tasks x no OpenMP threads

MPI task timing breakdown:
Section |  min time  |  avg time  |  max time  |%varavg| %total
---------------------------------------------------------------
Pair    | 30.095     | 30.095     | 30.095     |   0.0 | 49.00
Neigh   | 29.43      | 29.43      | 29.43      |   0.0 | 47.92
Comm    | 0.63798    | 0.63798    | 0.63798    |   0.0 |  1.04
Output  | 0.00018811 | 0.00018811 | 0.00018811 |   0.0 |  0.00
Modify  | 1.014      | 1.014      | 1.014      |   0.0 |  1.65
Other   |            | 0.2414     |            |       |  0.39

Nlocal:    19652 ave 19652 max 19652 min
Histogram: 1 0 0 0 0 0 0 0 0 0
Nghost:    14389 ave 14389 max 14389 min
Histogram: 1 0 0 0 0 0 0 0 0 0
Neighs:    810731 ave 810731 max 810731 min
Histogram: 1 0 0 0 0 0 0 0 0 0

Total # of neighbors = 810731
Ave neighs/atom = 41.2544
Neighbor list builds = 495
Dangerous builds not checked
Setting up Verlet run ...
  Unit style    : metal
  Current step  : 48495
  Time step     : 0.001
Per MPI rank memory allocation (min/avg/max) = 18.22 | 18.22 | 18.22 Mbytes
Step Temp Press TotEng PotEng Enthalpy Volume 
   48495      1997.75   -404.00178    -16728.93   -21803.396   -16881.514    605115.41 
   49000    1992.1908    331.51944   -16903.184    -21963.53   -16779.276    598823.97 
Loop time of 61.8778 on 1 procs for 505 steps with 19652 atoms

Performance: 0.705 ns/day, 34.036 hours/ns, 8.161 timesteps/s
100.1% CPU use with 1 MPI tasks x no OpenMP threads

MPI task timing breakdown:
Section |  min time  |  avg time  |  max time  |%varavg| %total
---------------------------------------------------------------
Pair    | 30.504     | 30.504     | 30.504     |   0.0 | 49.30
Neigh   | 29.349     | 29.349     | 29.349     |   0.0 | 47.43
Comm    | 0.66856    | 0.66856    | 0.66856    |   0.0 |  1.08
Output  | 0.068028   | 0.068028   | 0.068028   |   0.0 |  0.11
Modify  | 1.0437     | 1.0437     | 1.0437     |   0.0 |  1.69
Other   |            | 0.2453     |            |       |  0.40

Nlocal:    19652 ave 19652 max 19652 min
Histogram: 1 0 0 0 0 0 0 0 0 0
Nghost:    14458 ave 14458 max 14458 min
Histogram: 1 0 0 0 0 0 0 0 0 0
Neighs:    819575 ave 819575 max 819575 min
Histogram: 1 0 0 0 0 0 0 0 0 0

Total # of neighbors = 819575
Ave neighs/atom = 41.7044
Neighbor list builds = 505
Dangerous builds not checked
Setting up Verlet run ...
  Unit style    : metal
  Current step  : 49000
  Time step     : 0.001
Per MPI rank memory allocation (min/avg/max) = 18.22 | 18.22 | 18.22 Mbytes
Step Temp Press TotEng PotEng Enthalpy Volume 
   49000    1992.1908    331.51944   -16903.184    -21963.53   -16779.276    598823.97 
   49495    1955.5943    -371.3489   -17025.898   -21993.285   -17164.918    599801.24 
Loop time of 63.258 on 1 procs for 495 steps with 19652 atoms

Performance: 0.676 ns/day, 35.498 hours/ns, 7.825 timesteps/s
98.3% CPU use with 1 MPI tasks x no OpenMP threads

MPI task timing breakdown:
Section |  min time  |  avg time  |  max time  |%varavg| %total
---------------------------------------------------------------
Pair    | 31.059     | 31.059     | 31.059     |   0.0 | 49.10
Neigh   | 30.194     | 30.194     | 30.194     |   0.0 | 47.73
Comm    | 0.69085    | 0.69085    | 0.69085    |   0.0 |  1.09
Output  | 0.00020099 | 0.00020099 | 0.00020099 |   0.0 |  0.00
Modify  | 1.0496     | 1.0496     | 1.0496     |   0.0 |  1.66
Other   |            | 0.2638     |            |       |  0.42

Nlocal:    19652 ave 19652 max 19652 min
Histogram: 1 0 0 0 0 0 0 0 0 0
Nghost:    14441 ave 14441 max 14441 min
Histogram: 1 0 0 0 0 0 0 0 0 0
Neighs:    818230 ave 818230 max 818230 min
Histogram: 1 0 0 0 0 0 0 0 0 0

Total # of neighbors = 818230
Ave neighs/atom = 41.636
Neighbor list builds = 495
Dangerous builds not checked
Setting up Verlet run ...
  Unit style    : metal
  Current step  : 49495
  Time step     : 0.001
Per MPI rank memory allocation (min/avg/max) = 18.22 | 18.22 | 18.22 Mbytes
Step Temp Press TotEng PotEng Enthalpy Volume 
   49495    1955.5943    -371.3489   -17025.898   -21993.285   -17164.918    599801.24 
   50000    1961.9933    627.21926    -17126.04   -22109.682    -16893.66    593594.71 
Loop time of 65.1041 on 1 procs for 505 steps with 19652 atoms

Performance: 0.670 ns/day, 35.811 hours/ns, 7.757 timesteps/s
97.4% CPU use with 1 MPI tasks x no OpenMP threads

MPI task timing breakdown:
Section |  min time  |  avg time  |  max time  |%varavg| %total
---------------------------------------------------------------
Pair    | 32.026     | 32.026     | 32.026     |   0.0 | 49.19
Neigh   | 30.984     | 30.984     | 30.984     |   0.0 | 47.59
Comm    | 0.68973    | 0.68973    | 0.68973    |   0.0 |  1.06
Output  | 0.068434   | 0.068434   | 0.068434   |   0.0 |  0.11
Modify  | 1.0804     | 1.0804     | 1.0804     |   0.0 |  1.66
Other   |            | 0.2553     |            |       |  0.39

Nlocal:    19652 ave 19652 max 19652 min
Histogram: 1 0 0 0 0 0 0 0 0 0
Nghost:    14482 ave 14482 max 14482 min
Histogram: 1 0 0 0 0 0 0 0 0 0
Neighs:    826695 ave 826695 max 826695 min
Histogram: 1 0 0 0 0 0 0 0 0 0

Total # of neighbors = 826695
Ave neighs/atom = 42.0667
Neighbor list builds = 505
Dangerous builds not checked
Setting up Verlet run ...
  Unit style    : metal
  Current step  : 50000
  Time step     : 0.001
Per MPI rank memory allocation (min/avg/max) = 18.22 | 18.22 | 18.22 Mbytes
Step Temp Press TotEng PotEng Enthalpy Volume 
   50000    1961.9933    627.21926    -17126.04   -22109.682    -16893.66    593594.71 
   50495    1895.3765   -389.98968   -17337.696   -22152.125   -17482.459    594723.47 
Loop time of 64.1953 on 1 procs for 495 steps with 19652 atoms

Performance: 0.666 ns/day, 36.024 hours/ns, 7.711 timesteps/s
96.2% CPU use with 1 MPI tasks x no OpenMP threads

MPI task timing breakdown:
Section |  min time  |  avg time  |  max time  |%varavg| %total
---------------------------------------------------------------
Pair    | 31.706     | 31.706     | 31.706     |   0.0 | 49.39
Neigh   | 30.497     | 30.497     | 30.497     |   0.0 | 47.51
Comm    | 0.66657    | 0.66657    | 0.66657    |   0.0 |  1.04
Output  | 0.00020099 | 0.00020099 | 0.00020099 |   0.0 |  0.00
Modify  | 1.0742     | 1.0742     | 1.0742     |   0.0 |  1.67
Other   |            | 0.2511     |            |       |  0.39

Nlocal:    19652 ave 19652 max 19652 min
Histogram: 1 0 0 0 0 0 0 0 0 0
Nghost:    14457 ave 14457 max 14457 min
Histogram: 1 0 0 0 0 0 0 0 0 0
Neighs:    825351 ave 825351 max 825351 min
Histogram: 1 0 0 0 0 0 0 0 0 0

Total # of neighbors = 825351
Ave neighs/atom = 41.9983
Neighbor list builds = 495
Dangerous builds not checked
Setting up Verlet run ...
  Unit style    : metal
  Current step  : 50495
  Time step     : 0.001
Per MPI rank memory allocation (min/avg/max) = 18.22 | 18.22 | 18.22 Mbytes
Step Temp Press TotEng PotEng Enthalpy Volume 
   50495    1895.3765   -389.98968   -17337.696   -22152.125   -17482.459    594723.47 
   51000    1901.6378    602.21893   -17462.688   -22293.021   -17241.486     588498.3 
Loop time of 65.0251 on 1 procs for 505 steps with 19652 atoms

Performance: 0.671 ns/day, 35.767 hours/ns, 7.766 timesteps/s
98.9% CPU use with 1 MPI tasks x no OpenMP threads

MPI task timing breakdown:
Section |  min time  |  avg time  |  max time  |%varavg| %total
---------------------------------------------------------------
Pair    | 32.095     | 32.095     | 32.095     |   0.0 | 49.36
Neigh   | 30.718     | 30.718     | 30.718     |   0.0 | 47.24
Comm    | 0.68394    | 0.68394    | 0.68394    |   0.0 |  1.05
Output  | 0.19455    | 0.19455    | 0.19455    |   0.0 |  0.30
Modify  | 1.079      | 1.079      | 1.079      |   0.0 |  1.66
Other   |            | 0.2541     |            |       |  0.39

Nlocal:    19652 ave 19652 max 19652 min
Histogram: 1 0 0 0 0 0 0 0 0 0
Nghost:    14526 ave 14526 max 14526 min
Histogram: 1 0 0 0 0 0 0 0 0 0
Neighs:    834583 ave 834583 max 834583 min
Histogram: 1 0 0 0 0 0 0 0 0 0

Total # of neighbors = 834583
Ave neighs/atom = 42.4681
Neighbor list builds = 505
Dangerous builds not checked
Setting up Verlet run ...
  Unit style    : metal
  Current step  : 51000
  Time step     : 0.001
Per MPI rank memory allocation (min/avg/max) = 18.22 | 18.22 | 18.22 Mbytes
Step Temp Press TotEng PotEng Enthalpy Volume 
   51000    1901.6378    602.21893   -17462.688   -22293.021   -17241.486     588498.3 
   51495    1880.5097   -402.01049   -17531.442   -22308.108   -17679.643    590644.62 
Loop time of 65.1863 on 1 procs for 495 steps with 19652 atoms

Performance: 0.656 ns/day, 36.580 hours/ns, 7.594 timesteps/s
98.5% CPU use with 1 MPI tasks x no OpenMP threads

MPI task timing breakdown:
Section |  min time  |  avg time  |  max time  |%varavg| %total
---------------------------------------------------------------
Pair    | 32.153     | 32.153     | 32.153     |   0.0 | 49.33
Neigh   | 31.012     | 31.012     | 31.012     |   0.0 | 47.58
Comm    | 0.69472    | 0.69472    | 0.69472    |   0.0 |  1.07
Output  | 0.00019193 | 0.00019193 | 0.00019193 |   0.0 |  0.00
Modify  | 1.0767     | 1.0767     | 1.0767     |   0.0 |  1.65
Other   |            | 0.2491     |            |       |  0.38

Nlocal:    19652 ave 19652 max 19652 min
Histogram: 1 0 0 0 0 0 0 0 0 0
Nghost:    14469 ave 14469 max 14469 min
Histogram: 1 0 0 0 0 0 0 0 0 0
Neighs:    830642 ave 830642 max 830642 min
Histogram: 1 0 0 0 0 0 0 0 0 0

Total # of neighbors = 830642
Ave neighs/atom = 42.2676
Neighbor list builds = 495
Dangerous builds not checked
Setting up Verlet run ...
  Unit style    : metal
  Current step  : 51495
  Time step     : 0.001
Per MPI rank memory allocation (min/avg/max) = 18.22 | 18.22 | 18.22 Mbytes
Step Temp Press TotEng PotEng Enthalpy Volume 
   51495    1880.5097   -402.01049   -17531.442   -22308.108   -17679.643    590644.62 
   52000    1855.5778    227.43724   -17753.271   -22466.608   -17670.337    584230.08 
Loop time of 64.7553 on 1 procs for 505 steps with 19652 atoms

Performance: 0.674 ns/day, 35.619 hours/ns, 7.799 timesteps/s
98.9% CPU use with 1 MPI tasks x no OpenMP threads

MPI task timing breakdown:
Section |  min time  |  avg time  |  max time  |%varavg| %total
---------------------------------------------------------------
Pair    | 31.978     | 31.978     | 31.978     |   0.0 | 49.38
Neigh   | 30.706     | 30.706     | 30.706     |   0.0 | 47.42
Comm    | 0.68269    | 0.68269    | 0.68269    |   0.0 |  1.05
Output  | 0.066518   | 0.066518   | 0.066518   |   0.0 |  0.10
Modify  | 1.0738     | 1.0738     | 1.0738     |   0.0 |  1.66
Other   |            | 0.2488     |            |       |  0.38

Nlocal:    19652 ave 19652 max 19652 min
Histogram: 1 0 0 0 0 0 0 0 0 0
Nghost:    14628 ave 14628 max 14628 min
Histogram: 1 0 0 0 0 0 0 0 0 0
Neighs:    839929 ave 839929 max 839929 min
Histogram: 1 0 0 0 0 0 0 0 0 0

Total # of neighbors = 839929
Ave neighs/atom = 42.7401
Neighbor list builds = 505
Dangerous builds not checked
Setting up Verlet run ...
  Unit style    : metal
  Current step  : 52000
  Time step     : 0.001
Per MPI rank memory allocation (min/avg/max) = 18.22 | 18.22 | 18.22 Mbytes
Step Temp Press TotEng PotEng Enthalpy Volume 
   52000    1855.5778    227.43724   -17753.271   -22466.608   -17670.337    584230.08 
   52495    1830.8378   -497.84276   -17877.275    -22527.77    -18059.01    584868.04 
Loop time of 59.6934 on 1 procs for 495 steps with 19652 atoms

Performance: 0.716 ns/day, 33.498 hours/ns, 8.292 timesteps/s
97.6% CPU use with 1 MPI tasks x no OpenMP threads

MPI task timing breakdown:
Section |  min time  |  avg time  |  max time  |%varavg| %total
---------------------------------------------------------------
Pair    | 29.725     | 29.725     | 29.725     |   0.0 | 49.80
Neigh   | 28.17      | 28.17      | 28.17      |   0.0 | 47.19
Comm    | 0.60872    | 0.60872    | 0.60872    |   0.0 |  1.02
Output  | 0.00017691 | 0.00017691 | 0.00017691 |   0.0 |  0.00
Modify  | 0.96929    | 0.96929    | 0.96929    |   0.0 |  1.62
Other   |            | 0.2206     |            |       |  0.37

Nlocal:    19652 ave 19652 max 19652 min
Histogram: 1 0 0 0 0 0 0 0 0 0
Nghost:    14608 ave 14608 max 14608 min
Histogram: 1 0 0 0 0 0 0 0 0 0
Neighs:    838933 ave 838933 max 838933 min
Histogram: 1 0 0 0 0 0 0 0 0 0

Total # of neighbors = 838933
Ave neighs/atom = 42.6894
Neighbor list builds = 495
Dangerous builds not checked
Setting up Verlet run ...
  Unit style    : metal
  Current step  : 52495
  Time step     : 0.001
Per MPI rank memory allocation (min/avg/max) = 18.22 | 18.22 | 18.22 Mbytes
Step Temp Press TotEng PotEng Enthalpy Volume 
   52495    1830.8378   -497.84276   -17877.275    -22527.77    -18059.01    584868.04 
   53000    1782.6144    344.75115   -18070.992   -22598.994   -17946.204    579929.17 
Loop time of 59.3844 on 1 procs for 505 steps with 19652 atoms

Performance: 0.735 ns/day, 32.665 hours/ns, 8.504 timesteps/s
98.9% CPU use with 1 MPI tasks x no OpenMP threads

MPI task timing breakdown:
Section |  min time  |  avg time  |  max time  |%varavg| %total
---------------------------------------------------------------
Pair    | 29.654     | 29.654     | 29.654     |   0.0 | 49.94
Neigh   | 27.871     | 27.871     | 27.871     |   0.0 | 46.93
Comm    | 0.60808    | 0.60808    | 0.60808    |   0.0 |  1.02
Output  | 0.066985   | 0.066985   | 0.066985   |   0.0 |  0.11
Modify  | 0.96504    | 0.96504    | 0.96504    |   0.0 |  1.63
Other   |            | 0.2192     |            |       |  0.37

Nlocal:    19652 ave 19652 max 19652 min
Histogram: 1 0 0 0 0 0 0 0 0 0
Nghost:    14624 ave 14624 max 14624 min
Histogram: 1 0 0 0 0 0 0 0 0 0
Neighs:    846153 ave 846153 max 846153 min
Histogram: 1 0 0 0 0 0 0 0 0 0

Total # of neighbors = 846153
Ave neighs/atom = 43.0568
Neighbor list builds = 505
Dangerous builds not checked
Setting up Verlet run ...
  Unit style    : metal
  Current step  : 53000
  Time step     : 0.001
Per MPI rank memory allocation (min/avg/max) = 18.22 | 18.22 | 18.22 Mbytes
Step Temp Press TotEng PotEng Enthalpy Volume 
   53000    1782.6144    344.75115   -18070.992   -22598.994   -17946.204    579929.17 
   53495    1761.1557   -512.20616   -18181.984    -22655.48   -18367.899    581539.86 
Loop time of 56.472 on 1 procs for 495 steps with 19652 atoms

Performance: 0.757 ns/day, 31.690 hours/ns, 8.765 timesteps/s
98.0% CPU use with 1 MPI tasks x no OpenMP threads

MPI task timing breakdown:
Section |  min time  |  avg time  |  max time  |%varavg| %total
---------------------------------------------------------------
Pair    | 28.275     | 28.275     | 28.275     |   0.0 | 50.07
Neigh   | 26.494     | 26.494     | 26.494     |   0.0 | 46.92
Comm    | 0.56072    | 0.56072    | 0.56072    |   0.0 |  0.99
Output  | 0.00019288 | 0.00019288 | 0.00019288 |   0.0 |  0.00
Modify  | 0.93662    | 0.93662    | 0.93662    |   0.0 |  1.66
Other   |            | 0.2054     |            |       |  0.36

Nlocal:    19652 ave 19652 max 19652 min
Histogram: 1 0 0 0 0 0 0 0 0 0
Nghost:    14565 ave 14565 max 14565 min
Histogram: 1 0 0 0 0 0 0 0 0 0
Neighs:    843807 ave 843807 max 843807 min
Histogram: 1 0 0 0 0 0 0 0 0 0

Total # of neighbors = 843807
Ave neighs/atom = 42.9375
Neighbor list builds = 495
Dangerous builds not checked
Setting up Verlet run ...
  Unit style    : metal
  Current step  : 53495
  Time step     : 0.001
Per MPI rank memory allocation (min/avg/max) = 18.22 | 18.22 | 18.22 Mbytes
Step Temp Press TotEng PotEng Enthalpy Volume 
   53495    1761.1557   -512.20616   -18181.984    -22655.48   -18367.899    581539.86 
   54000    1742.0794     1035.318    -18338.63    -22763.67   -17967.175    574834.08 
Loop time of 65.3668 on 1 procs for 505 steps with 19652 atoms

Performance: 0.667 ns/day, 35.955 hours/ns, 7.726 timesteps/s
94.9% CPU use with 1 MPI tasks x no OpenMP threads

MPI task timing breakdown:
Section |  min time  |  avg time  |  max time  |%varavg| %total
---------------------------------------------------------------
Pair    | 32.566     | 32.566     | 32.566     |   0.0 | 49.82
Neigh   | 30.742     | 30.742     | 30.742     |   0.0 | 47.03
Comm    | 0.6574     | 0.6574     | 0.6574     |   0.0 |  1.01
Output  | 0.068281   | 0.068281   | 0.068281   |   0.0 |  0.10
Modify  | 1.079      | 1.079      | 1.079      |   0.0 |  1.65
Other   |            | 0.2535     |            |       |  0.39

Nlocal:    19652 ave 19652 max 19652 min
Histogram: 1 0 0 0 0 0 0 0 0 0
Nghost:    14678 ave 14678 max 14678 min
Histogram: 1 0 0 0 0 0 0 0 0 0
Neighs:    854502 ave 854502 max 854502 min
Histogram: 1 0 0 0 0 0 0 0 0 0

Total # of neighbors = 854502
Ave neighs/atom = 43.4817
Neighbor list builds = 505
Dangerous builds not checked
Setting up Verlet run ...
  Unit style    : metal
  Current step  : 54000
  Time step     : 0.001
Per MPI rank memory allocation (min/avg/max) = 18.22 | 18.22 | 18.22 Mbytes
Step Temp Press TotEng PotEng Enthalpy Volume 
   54000    1742.0794     1035.318    -18338.63    -22763.67   -17967.175    574834.08 
   54495    1731.6021    41.963774   -18458.913   -22857.341   -18443.853    575016.66 
Loop time of 62.5881 on 1 procs for 495 steps with 19652 atoms

Performance: 0.683 ns/day, 35.122 hours/ns, 7.909 timesteps/s
98.7% CPU use with 1 MPI tasks x no OpenMP threads

MPI task timing breakdown:
Section |  min time  |  avg time  |  max time  |%varavg| %total
---------------------------------------------------------------
Pair    | 31.245     | 31.245     | 31.245     |   0.0 | 49.92
Neigh   | 29.401     | 29.401     | 29.401     |   0.0 | 46.97
Comm    | 0.65645    | 0.65645    | 0.65645    |   0.0 |  1.05
Output  | 0.00019503 | 0.00019503 | 0.00019503 |   0.0 |  0.00
Modify  | 1.0435     | 1.0435     | 1.0435     |   0.0 |  1.67
Other   |            | 0.242      |            |       |  0.39

Nlocal:    19652 ave 19652 max 19652 min
Histogram: 1 0 0 0 0 0 0 0 0 0
Nghost:    14779 ave 14779 max 14779 min
Histogram: 1 0 0 0 0 0 0 0 0 0
Neighs:    854035 ave 854035 max 854035 min
Histogram: 1 0 0 0 0 0 0 0 0 0

Total # of neighbors = 854035
Ave neighs/atom = 43.4579
Neighbor list builds = 495
Dangerous builds not checked
Setting up Verlet run ...
  Unit style    : metal
  Current step  : 54495
  Time step     : 0.001
Per MPI rank memory allocation (min/avg/max) = 18.22 | 18.22 | 18.22 Mbytes
Step Temp Press TotEng PotEng Enthalpy Volume 
   54495    1731.6021    41.963774   -18458.913   -22857.341   -18443.853    575016.66 
   55000    1698.0265    349.86435   -18584.048    -22897.19   -18458.978    572747.29 
Loop time of 60.1605 on 1 procs for 505 steps with 19652 atoms

Performance: 0.725 ns/day, 33.092 hours/ns, 8.394 timesteps/s
99.9% CPU use with 1 MPI tasks x no OpenMP threads

MPI task timing breakdown:
Section |  min time  |  avg time  |  max time  |%varavg| %total
---------------------------------------------------------------
Pair    | 30.309     | 30.309     | 30.309     |   0.0 | 50.38
Neigh   | 27.942     | 27.942     | 27.942     |   0.0 | 46.45
Comm    | 0.62909    | 0.62909    | 0.62909    |   0.0 |  1.05
Output  | 0.067421   | 0.067421   | 0.067421   |   0.0 |  0.11
Modify  | 0.98214    | 0.98214    | 0.98214    |   0.0 |  1.63
Other   |            | 0.2306     |            |       |  0.38

Nlocal:    19652 ave 19652 max 19652 min
Histogram: 1 0 0 0 0 0 0 0 0 0
Nghost:    14695 ave 14695 max 14695 min
Histogram: 1 0 0 0 0 0 0 0 0 0
Neighs:    856973 ave 856973 max 856973 min
Histogram: 1 0 0 0 0 0 0 0 0 0

Total # of neighbors = 856973
Ave neighs/atom = 43.6074
Neighbor list builds = 505
Dangerous builds not checked
Setting up Verlet run ...
  Unit style    : metal
  Current step  : 55000
  Time step     : 0.001
Per MPI rank memory allocation (min/avg/max) = 18.22 | 18.22 | 18.22 Mbytes
Step Temp Press TotEng PotEng Enthalpy Volume 
   55000    1698.0265    349.86435   -18584.048    -22897.19   -18458.978    572747.29 
   55495    1660.8392    43.211146    -18747.44   -22966.123    -18732.03    571363.11 
Loop time of 63.484 on 1 procs for 495 steps with 19652 atoms

Performance: 0.674 ns/day, 35.625 hours/ns, 7.797 timesteps/s
100.1% CPU use with 1 MPI tasks x no OpenMP threads

MPI task timing breakdown:
Section |  min time  |  avg time  |  max time  |%varavg| %total
---------------------------------------------------------------
Pair    | 31.756     | 31.756     | 31.756     |   0.0 | 50.02
Neigh   | 29.787     | 29.787     | 29.787     |   0.0 | 46.92
Comm    | 0.66073    | 0.66073    | 0.66073    |   0.0 |  1.04
Output  | 0.00020313 | 0.00020313 | 0.00020313 |   0.0 |  0.00
Modify  | 1.0381     | 1.0381     | 1.0381     |   0.0 |  1.64
Other   |            | 0.242      |            |       |  0.38

Nlocal:    19652 ave 19652 max 19652 min
Histogram: 1 0 0 0 0 0 0 0 0 0
Nghost:    14686 ave 14686 max 14686 min
Histogram: 1 0 0 0 0 0 0 0 0 0
Neighs:    859471 ave 859471 max 859471 min
Histogram: 1 0 0 0 0 0 0 0 0 0

Total # of neighbors = 859471
Ave neighs/atom = 43.7345
Neighbor list builds = 495
Dangerous builds not checked
Setting up Verlet run ...
  Unit style    : metal
  Current step  : 55495
  Time step     : 0.001
Per MPI rank memory allocation (min/avg/max) = 18.22 | 18.22 | 18.22 Mbytes
Step Temp Press TotEng PotEng Enthalpy Volume 
   55495    1660.8392    43.211146    -18747.44   -22966.123    -18732.03    571363.11 
   56000    1650.8422    174.99693   -18884.586   -23077.875   -18822.464    568753.38 
Loop time of 59.2811 on 1 procs for 505 steps with 19652 atoms

Performance: 0.736 ns/day, 32.608 hours/ns, 8.519 timesteps/s
97.0% CPU use with 1 MPI tasks x no OpenMP threads

MPI task timing breakdown:
Section |  min time  |  avg time  |  max time  |%varavg| %total
---------------------------------------------------------------
Pair    | 29.854     | 29.854     | 29.854     |   0.0 | 50.36
Neigh   | 27.599     | 27.599     | 27.599     |   0.0 | 46.56
Comm    | 0.58484    | 0.58484    | 0.58484    |   0.0 |  0.99
Output  | 0.043468   | 0.043468   | 0.043468   |   0.0 |  0.07
Modify  | 0.96465    | 0.96465    | 0.96465    |   0.0 |  1.63
Other   |            | 0.2353     |            |       |  0.40

Nlocal:    19652 ave 19652 max 19652 min
Histogram: 1 0 0 0 0 0 0 0 0 0
Nghost:    14682 ave 14682 max 14682 min
Histogram: 1 0 0 0 0 0 0 0 0 0
Neighs:    863313 ave 863313 max 863313 min
Histogram: 1 0 0 0 0 0 0 0 0 0

Total # of neighbors = 863313
Ave neighs/atom = 43.93
Neighbor list builds = 505
Dangerous builds not checked
Setting up Verlet run ...
  Unit style    : metal
  Current step  : 56000
  Time step     : 0.001
Per MPI rank memory allocation (min/avg/max) = 18.22 | 18.22 | 18.22 Mbytes
Step Temp Press TotEng PotEng Enthalpy Volume 
   56000    1650.8422    174.99693   -18884.586   -23077.875   -18822.464    568753.38 
   56495    1620.1703     4.260241    -19063.01   -23178.391   -19061.503    566888.78 
Loop time of 60.9153 on 1 procs for 495 steps with 19652 atoms

Performance: 0.702 ns/day, 34.184 hours/ns, 8.126 timesteps/s
100.1% CPU use with 1 MPI tasks x no OpenMP threads

MPI task timing breakdown:
Section |  min time  |  avg time  |  max time  |%varavg| %total
---------------------------------------------------------------
Pair    | 30.692     | 30.692     | 30.692     |   0.0 | 50.39
Neigh   | 28.389     | 28.389     | 28.389     |   0.0 | 46.60
Comm    | 0.61647    | 0.61647    | 0.61647    |   0.0 |  1.01
Output  | 0.00019813 | 0.00019813 | 0.00019813 |   0.0 |  0.00
Modify  | 0.98917    | 0.98917    | 0.98917    |   0.0 |  1.62
Other   |            | 0.2281     |            |       |  0.37

Nlocal:    19652 ave 19652 max 19652 min
Histogram: 1 0 0 0 0 0 0 0 0 0
Nghost:    14808 ave 14808 max 14808 min
Histogram: 1 0 0 0 0 0 0 0 0 0
Neighs:    866300 ave 866300 max 866300 min
Histogram: 1 0 0 0 0 0 0 0 0 0

Total # of neighbors = 866300
Ave neighs/atom = 44.082
Neighbor list builds = 495
Dangerous builds not checked
Setting up Verlet run ...
  Unit style    : metal
  Current step  : 56495
  Time step     : 0.001
Per MPI rank memory allocation (min/avg/max) = 18.22 | 18.22 | 18.22 Mbytes
Step Temp Press TotEng PotEng Enthalpy Volume 
   56495    1620.1703     4.260241    -19063.01   -23178.391   -19061.503    566888.78 
   57000    1610.8306    514.60847   -19135.592   -23227.248   -18954.588    563536.67 
Loop time of 63.4429 on 1 procs for 505 steps with 19652 atoms

Performance: 0.688 ns/day, 34.897 hours/ns, 7.960 timesteps/s
100.1% CPU use with 1 MPI tasks x no OpenMP threads

MPI task timing breakdown:
Section |  min time  |  avg time  |  max time  |%varavg| %total
---------------------------------------------------------------
Pair    | 31.793     | 31.793     | 31.793     |   0.0 | 50.11
Neigh   | 29.675     | 29.675     | 29.675     |   0.0 | 46.77
Comm    | 0.63832    | 0.63832    | 0.63832    |   0.0 |  1.01
Output  | 0.067308   | 0.067308   | 0.067308   |   0.0 |  0.11
Modify  | 1.0291     | 1.0291     | 1.0291     |   0.0 |  1.62
Other   |            | 0.2407     |            |       |  0.38

Nlocal:    19652 ave 19652 max 19652 min
Histogram: 1 0 0 0 0 0 0 0 0 0
Nghost:    14791 ave 14791 max 14791 min
Histogram: 1 0 0 0 0 0 0 0 0 0
Neighs:    871472 ave 871472 max 871472 min
Histogram: 1 0 0 0 0 0 0 0 0 0

Total # of neighbors = 871472
Ave neighs/atom = 44.3452
Neighbor list builds = 505
Dangerous builds not checked
Setting up Verlet run ...
  Unit style    : metal
  Current step  : 57000
  Time step     : 0.001
Per MPI rank memory allocation (min/avg/max) = 18.22 | 18.22 | 18.22 Mbytes
Step Temp Press TotEng PotEng Enthalpy Volume 
   57000    1610.8306    514.60847   -19135.592   -23227.248   -18954.588    563536.67 
   57495    1563.4608   -366.82671   -19297.743   -23269.075   -19427.135    565141.81 
Loop time of 60.991 on 1 procs for 495 steps with 19652 atoms

Performance: 0.701 ns/day, 34.226 hours/ns, 8.116 timesteps/s
100.1% CPU use with 1 MPI tasks x no OpenMP threads

MPI task timing breakdown:
Section |  min time  |  avg time  |  max time  |%varavg| %total
---------------------------------------------------------------
Pair    | 30.714     | 30.714     | 30.714     |   0.0 | 50.36
Neigh   | 28.452     | 28.452     | 28.452     |   0.0 | 46.65
Comm    | 0.61053    | 0.61053    | 0.61053    |   0.0 |  1.00
Output  | 0.00019693 | 0.00019693 | 0.00019693 |   0.0 |  0.00
Modify  | 0.98473    | 0.98473    | 0.98473    |   0.0 |  1.61
Other   |            | 0.23       |            |       |  0.38

Nlocal:    19652 ave 19652 max 19652 min
Histogram: 1 0 0 0 0 0 0 0 0 0
Nghost:    14760 ave 14760 max 14760 min
Histogram: 1 0 0 0 0 0 0 0 0 0
Neighs:    869560 ave 869560 max 869560 min
Histogram: 1 0 0 0 0 0 0 0 0 0

Total # of neighbors = 869560
Ave neighs/atom = 44.2479
Neighbor list builds = 495
Dangerous builds not checked
Setting up Verlet run ...
  Unit style    : metal
  Current step  : 57495
  Time step     : 0.001
Per MPI rank memory allocation (min/avg/max) = 18.22 | 18.22 | 18.22 Mbytes
Step Temp Press TotEng PotEng Enthalpy Volume 
   57495    1563.4608   -366.82671   -19297.743   -23269.075   -19427.135    565141.81 
   58000    1554.3693    129.42115   -19435.268   -23383.507   -19389.942    561107.08 
Loop time of 56.4993 on 1 procs for 505 steps with 19652 atoms

Performance: 0.772 ns/day, 31.078 hours/ns, 8.938 timesteps/s
100.1% CPU use with 1 MPI tasks x no OpenMP threads

MPI task timing breakdown:
Section |  min time  |  avg time  |  max time  |%varavg| %total
---------------------------------------------------------------
Pair    | 28.597     | 28.597     | 28.597     |   0.0 | 50.61
Neigh   | 26.167     | 26.167     | 26.167     |   0.0 | 46.31
Comm    | 0.55835    | 0.55835    | 0.55835    |   0.0 |  0.99
Output  | 0.067549   | 0.067549   | 0.067549   |   0.0 |  0.12
Modify  | 0.90093    | 0.90093    | 0.90093    |   0.0 |  1.59
Other   |            | 0.208      |            |       |  0.37

Nlocal:    19652 ave 19652 max 19652 min
Histogram: 1 0 0 0 0 0 0 0 0 0
Nghost:    14810 ave 14810 max 14810 min
Histogram: 1 0 0 0 0 0 0 0 0 0
Neighs:    875667 ave 875667 max 875667 min
Histogram: 1 0 0 0 0 0 0 0 0 0

Total # of neighbors = 875667
Ave neighs/atom = 44.5587
Neighbor list builds = 505
Dangerous builds not checked
Setting up Verlet run ...
  Unit style    : metal
  Current step  : 58000
  Time step     : 0.001
Per MPI rank memory allocation (min/avg/max) = 18.22 | 18.22 | 18.22 Mbytes
Step Temp Press TotEng PotEng Enthalpy Volume 
   58000    1554.3693    129.42115   -19435.268   -23383.507   -19389.942    561107.08 
   58495    1505.5439    247.54381   -19634.012   -23458.231   -19547.674    558804.18 
Loop time of 59.2741 on 1 procs for 495 steps with 19652 atoms

Performance: 0.722 ns/day, 33.263 hours/ns, 8.351 timesteps/s
99.7% CPU use with 1 MPI tasks x no OpenMP threads

MPI task timing breakdown:
Section |  min time  |  avg time  |  max time  |%varavg| %total
---------------------------------------------------------------
Pair    | 30.027     | 30.027     | 30.027     |   0.0 | 50.66
Neigh   | 27.486     | 27.486     | 27.486     |   0.0 | 46.37
Comm    | 0.58804    | 0.58804    | 0.58804    |   0.0 |  0.99
Output  | 0.0001359  | 0.0001359  | 0.0001359  |   0.0 |  0.00
Modify  | 0.95301    | 0.95301    | 0.95301    |   0.0 |  1.61
Other   |            | 0.2205     |            |       |  0.37

Nlocal:    19652 ave 19652 max 19652 min
Histogram: 1 0 0 0 0 0 0 0 0 0
Nghost:    14887 ave 14887 max 14887 min
Histogram: 1 0 0 0 0 0 0 0 0 0
Neighs:    879073 ave 879073 max 879073 min
Histogram: 1 0 0 0 0 0 0 0 0 0

Total # of neighbors = 879073
Ave neighs/atom = 44.732
Neighbor list builds = 495
Dangerous builds not checked
Setting up Verlet run ...
  Unit style    : metal
  Current step  : 58495
  Time step     : 0.001
Per MPI rank memory allocation (min/avg/max) = 18.22 | 18.22 | 18.22 Mbytes
Step Temp Press TotEng PotEng Enthalpy Volume 
   58495    1505.5439    247.54381   -19634.012   -23458.231   -19547.674    558804.18 
   59000    1500.6657     293.2055   -19721.219   -23533.047   -19619.299    556929.24 
Loop time of 59.2343 on 1 procs for 505 steps with 19652 atoms

Performance: 0.737 ns/day, 32.582 hours/ns, 8.525 timesteps/s
99.9% CPU use with 1 MPI tasks x no OpenMP threads

MPI task timing breakdown:
Section |  min time  |  avg time  |  max time  |%varavg| %total
---------------------------------------------------------------
Pair    | 30.069     | 30.069     | 30.069     |   0.0 | 50.76
Neigh   | 27.336     | 27.336     | 27.336     |   0.0 | 46.15
Comm    | 0.58939    | 0.58939    | 0.58939    |   0.0 |  1.00
Output  | 0.066905   | 0.066905   | 0.066905   |   0.0 |  0.11
Modify  | 0.95139    | 0.95139    | 0.95139    |   0.0 |  1.61
Other   |            | 0.2212     |            |       |  0.37

Nlocal:    19652 ave 19652 max 19652 min
Histogram: 1 0 0 0 0 0 0 0 0 0
Nghost:    14912 ave 14912 max 14912 min
Histogram: 1 0 0 0 0 0 0 0 0 0
Neighs:    882164 ave 882164 max 882164 min
Histogram: 1 0 0 0 0 0 0 0 0 0

Total # of neighbors = 882164
Ave neighs/atom = 44.8893
Neighbor list builds = 505
Dangerous builds not checked
Setting up Verlet run ...
  Unit style    : metal
  Current step  : 59000
  Time step     : 0.001
Per MPI rank memory allocation (min/avg/max) = 18.22 | 18.22 | 18.22 Mbytes
Step Temp Press TotEng PotEng Enthalpy Volume 
   59000    1500.6657     293.2055   -19721.219   -23533.047   -19619.299    556929.24 
   59495    1475.8084    49.045459    -19873.64   -23622.328   -19856.624       555863 
Loop time of 56.642 on 1 procs for 495 steps with 19652 atoms

Performance: 0.755 ns/day, 31.786 hours/ns, 8.739 timesteps/s
96.9% CPU use with 1 MPI tasks x no OpenMP threads

MPI task timing breakdown:
Section |  min time  |  avg time  |  max time  |%varavg| %total
---------------------------------------------------------------
Pair    | 28.888     | 28.888     | 28.888     |   0.0 | 51.00
Neigh   | 26.084     | 26.084     | 26.084     |   0.0 | 46.05
Comm    | 0.56462    | 0.56462    | 0.56462    |   0.0 |  1.00
Output  | 0.00020003 | 0.00020003 | 0.00020003 |   0.0 |  0.00
Modify  | 0.89329    | 0.89329    | 0.89329    |   0.0 |  1.58
Other   |            | 0.2115     |            |       |  0.37

Nlocal:    19652 ave 19652 max 19652 min
Histogram: 1 0 0 0 0 0 0 0 0 0
Nghost:    14915 ave 14915 max 14915 min
Histogram: 1 0 0 0 0 0 0 0 0 0
Neighs:    884034 ave 884034 max 884034 min
Histogram: 1 0 0 0 0 0 0 0 0 0

Total # of neighbors = 884034
Ave neighs/atom = 44.9844
Neighbor list builds = 495
Dangerous builds not checked
Setting up Verlet run ...
  Unit style    : metal
  Current step  : 59495
  Time step     : 0.001
Per MPI rank memory allocation (min/avg/max) = 18.22 | 18.22 | 18.22 Mbytes
Step Temp Press TotEng PotEng Enthalpy Volume 
   59495    1475.8084    49.045459    -19873.64   -23622.328   -19856.624       555863 
   60000    1449.6433    354.58885   -20014.573   -23696.799   -19892.096    553403.21 
Loop time of 58.4781 on 1 procs for 505 steps with 19652 atoms

Performance: 0.746 ns/day, 32.166 hours/ns, 8.636 timesteps/s
98.9% CPU use with 1 MPI tasks x no OpenMP threads

MPI task timing breakdown:
Section |  min time  |  avg time  |  max time  |%varavg| %total
---------------------------------------------------------------
Pair    | 29.653     | 29.653     | 29.653     |   0.0 | 50.71
Neigh   | 27.027     | 27.027     | 27.027     |   0.0 | 46.22
Comm    | 0.57754    | 0.57754    | 0.57754    |   0.0 |  0.99
Output  | 0.065975   | 0.065975   | 0.065975   |   0.0 |  0.11
Modify  | 0.92655    | 0.92655    | 0.92655    |   0.0 |  1.58
Other   |            | 0.2277     |            |       |  0.39

Nlocal:    19652 ave 19652 max 19652 min
Histogram: 1 0 0 0 0 0 0 0 0 0
Nghost:    14873 ave 14873 max 14873 min
Histogram: 1 0 0 0 0 0 0 0 0 0
Neighs:    888150 ave 888150 max 888150 min
Histogram: 1 0 0 0 0 0 0 0 0 0

Total # of neighbors = 888150
Ave neighs/atom = 45.1939
Neighbor list builds = 505
Dangerous builds not checked
Setting up Verlet run ...
  Unit style    : metal
  Current step  : 60000
  Time step     : 0.001
Per MPI rank memory allocation (min/avg/max) = 18.22 | 18.22 | 18.22 Mbytes
Step Temp Press TotEng PotEng Enthalpy Volume 
   60000    1449.6433    354.58885   -20014.573   -23696.799   -19892.096    553403.21 
   60495    1416.4439    227.19248   -20185.403   -23783.299   -20107.287    550877.89 
Loop time of 66.4215 on 1 procs for 495 steps with 19652 atoms

Performance: 0.644 ns/day, 37.274 hours/ns, 7.452 timesteps/s
97.8% CPU use with 1 MPI tasks x no OpenMP threads

MPI task timing breakdown:
Section |  min time  |  avg time  |  max time  |%varavg| %total
---------------------------------------------------------------
Pair    | 33.743     | 33.743     | 33.743     |   0.0 | 50.80
Neigh   | 30.686     | 30.686     | 30.686     |   0.0 | 46.20
Comm    | 0.6721     | 0.6721     | 0.6721     |   0.0 |  1.01
Output  | 0.00020409 | 0.00020409 | 0.00020409 |   0.0 |  0.00
Modify  | 1.0677     | 1.0677     | 1.0677     |   0.0 |  1.61
Other   |            | 0.2526     |            |       |  0.38

Nlocal:    19652 ave 19652 max 19652 min
Histogram: 1 0 0 0 0 0 0 0 0 0
Nghost:    14905 ave 14905 max 14905 min
Histogram: 1 0 0 0 0 0 0 0 0 0
Neighs:    892059 ave 892059 max 892059 min
Histogram: 1 0 0 0 0 0 0 0 0 0

Total # of neighbors = 892059
Ave neighs/atom = 45.3928
Neighbor list builds = 495
Dangerous builds not checked
Setting up Verlet run ...
  Unit style    : metal
  Current step  : 60495
  Time step     : 0.001
Per MPI rank memory allocation (min/avg/max) = 18.22 | 18.22 | 18.22 Mbytes
Step Temp Press TotEng PotEng Enthalpy Volume 
   60495    1416.4439    227.19248   -20185.403   -23783.299   -20107.287    550877.89 
   61000    1390.7942    576.86791   -20270.335   -23803.079   -20072.449    549601.54 
Loop time of 62.8806 on 1 procs for 505 steps with 19652 atoms

Performance: 0.694 ns/day, 34.588 hours/ns, 8.031 timesteps/s
99.3% CPU use with 1 MPI tasks x no OpenMP threads

MPI task timing breakdown:
Section |  min time  |  avg time  |  max time  |%varavg| %total
---------------------------------------------------------------
Pair    | 32.244     | 32.244     | 32.244     |   0.0 | 51.28
Neigh   | 28.672     | 28.672     | 28.672     |   0.0 | 45.60
Comm    | 0.6517     | 0.6517     | 0.6517     |   0.0 |  1.04
Output  | 0.067872   | 0.067872   | 0.067872   |   0.0 |  0.11
Modify  | 1.0056     | 1.0056     | 1.0056     |   0.0 |  1.60
Other   |            | 0.2389     |            |       |  0.38

Nlocal:    19652 ave 19652 max 19652 min
Histogram: 1 0 0 0 0 0 0 0 0 0
Nghost:    14974 ave 14974 max 14974 min
Histogram: 1 0 0 0 0 0 0 0 0 0
Neighs:    894435 ave 894435 max 894435 min
Histogram: 1 0 0 0 0 0 0 0 0 0

Total # of neighbors = 894435
Ave neighs/atom = 45.5137
Neighbor list builds = 505
Dangerous builds not checked
Setting up Verlet run ...
  Unit style    : metal
  Current step  : 61000
  Time step     : 0.001
Per MPI rank memory allocation (min/avg/max) = 18.22 | 18.22 | 18.22 Mbytes
Step Temp Press TotEng PotEng Enthalpy Volume 
   61000    1390.7942    576.86791   -20270.335   -23803.079   -20072.449    549601.54 
   61495    1358.1309    264.38704   -20472.069   -23921.846   -20381.666    547838.91 
Loop time of 65.2496 on 1 procs for 495 steps with 19652 atoms

Performance: 0.655 ns/day, 36.616 hours/ns, 7.586 timesteps/s
98.2% CPU use with 1 MPI tasks x no OpenMP threads

MPI task timing breakdown:
Section |  min time  |  avg time  |  max time  |%varavg| %total
---------------------------------------------------------------
Pair    | 33.448     | 33.448     | 33.448     |   0.0 | 51.26
Neigh   | 29.808     | 29.808     | 29.808     |   0.0 | 45.68
Comm    | 0.68426    | 0.68426    | 0.68426    |   0.0 |  1.05
Output  | 0.00019598 | 0.00019598 | 0.00019598 |   0.0 |  0.00
Modify  | 1.0527     | 1.0527     | 1.0527     |   0.0 |  1.61
Other   |            | 0.2558     |            |       |  0.39

Nlocal:    19652 ave 19652 max 19652 min
Histogram: 1 0 0 0 0 0 0 0 0 0
Nghost:    14890 ave 14890 max 14890 min
Histogram: 1 0 0 0 0 0 0 0 0 0
Neighs:    897549 ave 897549 max 897549 min
Histogram: 1 0 0 0 0 0 0 0 0 0

Total # of neighbors = 897549
Ave neighs/atom = 45.6721
Neighbor list builds = 495
Dangerous builds not checked
Setting up Verlet run ...
  Unit style    : metal
  Current step  : 61495
  Time step     : 0.001
Per MPI rank memory allocation (min/avg/max) = 18.22 | 18.22 | 18.22 Mbytes
Step Temp Press TotEng PotEng Enthalpy Volume 
   61495    1358.1309    264.38704   -20472.069   -23921.846   -20381.666    547838.91 
   62000     1350.518   -55.158832    -20599.39   -24029.829     -20618.2    546380.41 
Loop time of 66.9088 on 1 procs for 505 steps with 19652 atoms

Performance: 0.652 ns/day, 36.804 hours/ns, 7.548 timesteps/s
99.1% CPU use with 1 MPI tasks x no OpenMP threads

MPI task timing breakdown:
Section |  min time  |  avg time  |  max time  |%varavg| %total
---------------------------------------------------------------
Pair    | 34.252     | 34.252     | 34.252     |   0.0 | 51.19
Neigh   | 30.582     | 30.582     | 30.582     |   0.0 | 45.71
Comm    | 0.69003    | 0.69003    | 0.69003    |   0.0 |  1.03
Output  | 0.068407   | 0.068407   | 0.068407   |   0.0 |  0.10
Modify  | 1.0671     | 1.0671     | 1.0671     |   0.0 |  1.59
Other   |            | 0.2497     |            |       |  0.37

Nlocal:    19652 ave 19652 max 19652 min
Histogram: 1 0 0 0 0 0 0 0 0 0
Nghost:    14897 ave 14897 max 14897 min
Histogram: 1 0 0 0 0 0 0 0 0 0
Neighs:    899647 ave 899647 max 899647 min
Histogram: 1 0 0 0 0 0 0 0 0 0

Total # of neighbors = 899647
Ave neighs/atom = 45.7789
Neighbor list builds = 505
Dangerous builds not checked
Setting up Verlet run ...
  Unit style    : metal
  Current step  : 62000
  Time step     : 0.001
Per MPI rank memory allocation (min/avg/max) = 18.22 | 18.22 | 18.22 Mbytes
Step Temp Press TotEng PotEng Enthalpy Volume 
   62000     1350.518   -55.158832    -20599.39   -24029.829     -20618.2    546380.41 
   62495    1311.3063    262.53106   -20760.448   -24091.286   -20671.306    544020.21 
Loop time of 64.1933 on 1 procs for 495 steps with 19652 atoms

Performance: 0.666 ns/day, 36.023 hours/ns, 7.711 timesteps/s
99.8% CPU use with 1 MPI tasks x no OpenMP threads

MPI task timing breakdown:
Section |  min time  |  avg time  |  max time  |%varavg| %total
---------------------------------------------------------------
Pair    | 33.087     | 33.087     | 33.087     |   0.0 | 51.54
Neigh   | 29.153     | 29.153     | 29.153     |   0.0 | 45.41
Comm    | 0.67034    | 0.67034    | 0.67034    |   0.0 |  1.04
Output  | 0.00018883 | 0.00018883 | 0.00018883 |   0.0 |  0.00
Modify  | 1.0402     | 1.0402     | 1.0402     |   0.0 |  1.62
Other   |            | 0.2433     |            |       |  0.38

Nlocal:    19652 ave 19652 max 19652 min
Histogram: 1 0 0 0 0 0 0 0 0 0
Nghost:    14985 ave 14985 max 14985 min
Histogram: 1 0 0 0 0 0 0 0 0 0
Neighs:    903924 ave 903924 max 903924 min
Histogram: 1 0 0 0 0 0 0 0 0 0

Total # of neighbors = 903924
Ave neighs/atom = 45.9965
Neighbor list builds = 495
Dangerous builds not checked
Setting up Verlet run ...
  Unit style    : metal
  Current step  : 62495
  Time step     : 0.001
Per MPI rank memory allocation (min/avg/max) = 18.22 | 18.22 | 18.22 Mbytes
Step Temp Press TotEng PotEng Enthalpy Volume 
   62495    1311.3063    262.53106   -20760.448   -24091.286   -20671.306    544020.21 
   63000    1295.1426    246.75375   -20897.152   -24186.932   -20813.703    541833.81 
Loop time of 64.7384 on 1 procs for 505 steps with 19652 atoms

Performance: 0.674 ns/day, 35.610 hours/ns, 7.801 timesteps/s
98.3% CPU use with 1 MPI tasks x no OpenMP threads

MPI task timing breakdown:
Section |  min time  |  avg time  |  max time  |%varavg| %total
---------------------------------------------------------------
Pair    | 33.374     | 33.374     | 33.374     |   0.0 | 51.55
Neigh   | 29.354     | 29.354     | 29.354     |   0.0 | 45.34
Comm    | 0.66866    | 0.66866    | 0.66866    |   0.0 |  1.03
Output  | 0.065321   | 0.065321   | 0.065321   |   0.0 |  0.10
Modify  | 1.0348     | 1.0348     | 1.0348     |   0.0 |  1.60
Other   |            | 0.2418     |            |       |  0.37

Nlocal:    19652 ave 19652 max 19652 min
Histogram: 1 0 0 0 0 0 0 0 0 0
Nghost:    15082 ave 15082 max 15082 min
Histogram: 1 0 0 0 0 0 0 0 0 0
Neighs:    907670 ave 907670 max 907670 min
Histogram: 1 0 0 0 0 0 0 0 0 0

Total # of neighbors = 907670
Ave neighs/atom = 46.1872
Neighbor list builds = 505
Dangerous builds not checked
Setting up Verlet run ...
  Unit style    : metal
  Current step  : 63000
  Time step     : 0.001
Per MPI rank memory allocation (min/avg/max) = 18.22 | 18.22 | 18.22 Mbytes
Step Temp Press TotEng PotEng Enthalpy Volume 
   63000    1295.1426    246.75375   -20897.152   -24186.932   -20813.703    541833.81 
   63495    1264.4169   -210.49011   -21016.548   -24228.282   -21087.748    541942.97 
Loop time of 65.1744 on 1 procs for 495 steps with 19652 atoms

Performance: 0.656 ns/day, 36.574 hours/ns, 7.595 timesteps/s
98.3% CPU use with 1 MPI tasks x no OpenMP threads

MPI task timing breakdown:
Section |  min time  |  avg time  |  max time  |%varavg| %total
---------------------------------------------------------------
Pair    | 33.616     | 33.616     | 33.616     |   0.0 | 51.58
Neigh   | 29.59      | 29.59      | 29.59      |   0.0 | 45.40
Comm    | 0.66912    | 0.66912    | 0.66912    |   0.0 |  1.03
Output  | 0.00019407 | 0.00019407 | 0.00019407 |   0.0 |  0.00
Modify  | 1.0532     | 1.0532     | 1.0532     |   0.0 |  1.62
Other   |            | 0.2464     |            |       |  0.38

Nlocal:    19652 ave 19652 max 19652 min
Histogram: 1 0 0 0 0 0 0 0 0 0
Nghost:    15058 ave 15058 max 15058 min
Histogram: 1 0 0 0 0 0 0 0 0 0
Neighs:    907857 ave 907857 max 907857 min
Histogram: 1 0 0 0 0 0 0 0 0 0

Total # of neighbors = 907857
Ave neighs/atom = 46.1967
Neighbor list builds = 495
Dangerous builds not checked
Setting up Verlet run ...
  Unit style    : metal
  Current step  : 63495
  Time step     : 0.001
Per MPI rank memory allocation (min/avg/max) = 18.22 | 18.22 | 18.22 Mbytes
Step Temp Press TotEng PotEng Enthalpy Volume 
   63495    1264.4169   -210.49011   -21016.548   -24228.282   -21087.748    541942.97 
   64000    1249.2321    173.40515    -21177.65   -24350.813   -21119.357    538591.87 
Loop time of 62.4857 on 1 procs for 505 steps with 19652 atoms

Performance: 0.698 ns/day, 34.371 hours/ns, 8.082 timesteps/s
98.5% CPU use with 1 MPI tasks x no OpenMP threads

MPI task timing breakdown:
Section |  min time  |  avg time  |  max time  |%varavg| %total
---------------------------------------------------------------
Pair    | 32.165     | 32.165     | 32.165     |   0.0 | 51.48
Neigh   | 28.441     | 28.441     | 28.441     |   0.0 | 45.52
Comm    | 0.6177     | 0.6177     | 0.6177     |   0.0 |  0.99
Output  | 0.04176    | 0.04176    | 0.04176    |   0.0 |  0.07
Modify  | 0.99041    | 0.99041    | 0.99041    |   0.0 |  1.59
Other   |            | 0.2304     |            |       |  0.37

Nlocal:    19652 ave 19652 max 19652 min
Histogram: 1 0 0 0 0 0 0 0 0 0
Nghost:    15076 ave 15076 max 15076 min
Histogram: 1 0 0 0 0 0 0 0 0 0
Neighs:    914026 ave 914026 max 914026 min
Histogram: 1 0 0 0 0 0 0 0 0 0

Total # of neighbors = 914026
Ave neighs/atom = 46.5106
Neighbor list builds = 505
Dangerous builds not checked
Setting up Verlet run ...
  Unit style    : metal
  Current step  : 64000
  Time step     : 0.001
Per MPI rank memory allocation (min/avg/max) = 18.22 | 18.22 | 18.22 Mbytes
Step Temp Press TotEng PotEng Enthalpy Volume 
   64000    1249.2321    173.40515    -21177.65   -24350.813   -21119.357    538591.87 
   64495    1218.6433    119.06025   -21321.076   -24416.541   -21281.131    537524.76 
Loop time of 63.8303 on 1 procs for 495 steps with 19652 atoms

Performance: 0.670 ns/day, 35.819 hours/ns, 7.755 timesteps/s
99.4% CPU use with 1 MPI tasks x no OpenMP threads

MPI task timing breakdown:
Section |  min time  |  avg time  |  max time  |%varavg| %total
---------------------------------------------------------------
Pair    | 32.788     | 32.788     | 32.788     |   0.0 | 51.37
Neigh   | 29.175     | 29.175     | 29.175     |   0.0 | 45.71
Comm    | 0.62354    | 0.62354    | 0.62354    |   0.0 |  0.98
Output  | 0.00019312 | 0.00019312 | 0.00019312 |   0.0 |  0.00
Modify  | 1.0089     | 1.0089     | 1.0089     |   0.0 |  1.58
Other   |            | 0.2345     |            |       |  0.37

Nlocal:    19652 ave 19652 max 19652 min
Histogram: 1 0 0 0 0 0 0 0 0 0
[...]

Performance: 0.606 ns/day, 39.599 hours/ns, 7.015 timesteps/s
98.8% CPU use with 1 MPI tasks x no OpenMP threads

MPI task timing breakdown:
Section |  min time  |  avg time  |  max time  |%varavg| %total
---------------------------------------------------------------
Pair    | 37.039     | 37.039     | 37.039     |   0.0 | 52.49
Neigh   | 31.598     | 31.598     | 31.598     |   0.0 | 44.78
Comm    | 0.6439     | 0.6439     | 0.6439     |   0.0 |  0.91
Output  | 0.00014997 | 0.00014997 | 0.00014997 |   0.0 |  0.00
Modify  | 1.0273     | 1.0273     | 1.0273     |   0.0 |  1.46
Other   |            | 0.2565     |            |       |  0.36

Nlocal:    19652 ave 19652 max 19652 min
Histogram: 1 0 0 0 0 0 0 0 0 0
Nghost:    15721 ave 15721 max 15721 min
Histogram: 1 0 0 0 0 0 0 0 0 0
Neighs:    1.03466e+06 ave 1.03466e+06 max 1.03466e+06 min
Histogram: 1 0 0 0 0 0 0 0 0 0

Total # of neighbors = 1034665
Ave neighs/atom = 52.6493
Neighbor list builds = 495
Dangerous builds not checked
Setting up Verlet run ...
  Unit style    : metal
  Current step  : 80495
  Time step     : 0.001
Per MPI rank memory allocation (min/avg/max) = 18.22 | 18.22 | 18.22 Mbytes
Step Temp Press TotEng PotEng Enthalpy Volume 
   80495     423.3005   -263.25434   -26174.478     -27249.7   -26254.076    484436.25 
   81000     402.2178    171.51417   -26333.842   -27355.512   -26282.266    481794.13 
Loop time of 67.2108 on 1 procs for 505 steps with 19652 atoms

Performance: 0.649 ns/day, 36.970 hours/ns, 7.514 timesteps/s
100.0% CPU use with 1 MPI tasks x no OpenMP threads

MPI task timing breakdown:
Section |  min time  |  avg time  |  max time  |%varavg| %total
---------------------------------------------------------------
Pair    | 35.442     | 35.442     | 35.442     |   0.0 | 52.73
Neigh   | 29.882     | 29.882     | 29.882     |   0.0 | 44.46
Comm    | 0.61021    | 0.61021    | 0.61021    |   0.0 |  0.91
Output  | 0.068645   | 0.068645   | 0.068645   |   0.0 |  0.10
Modify  | 0.9675     | 0.9675     | 0.9675     |   0.0 |  1.44
Other   |            | 0.2403     |            |       |  0.36

Nlocal:    19652 ave 19652 max 19652 min
Histogram: 1 0 0 0 0 0 0 0 0 0
Nghost:    15722 ave 15722 max 15722 min
Histogram: 1 0 0 0 0 0 0 0 0 0
Neighs:    1.04153e+06 ave 1.04153e+06 max 1.04153e+06 min
Histogram: 1 0 0 0 0 0 0 0 0 0

Total # of neighbors = 1041534
Ave neighs/atom = 52.9989
Neighbor list builds = 505
Dangerous builds not checked
Setting up Verlet run ...
  Unit style    : metal
  Current step  : 81000
  Time step     : 0.001
Per MPI rank memory allocation (min/avg/max) = 18.22 | 18.22 | 18.22 Mbytes
Step Temp Press TotEng PotEng Enthalpy Volume 
   81000     402.2178    171.51417   -26333.842   -27355.512   -26282.266    481794.13 
   81495    373.55746    -244.6595    -26487.37    -27436.24    -26560.84    481126.22 
Loop time of 71.3459 on 1 procs for 495 steps with 19652 atoms

Performance: 0.599 ns/day, 40.037 hours/ns, 6.938 timesteps/s
98.1% CPU use with 1 MPI tasks x no OpenMP threads

MPI task timing breakdown:
Section |  min time  |  avg time  |  max time  |%varavg| %total
---------------------------------------------------------------
Pair    | 37.58      | 37.58      | 37.58      |   0.0 | 52.67
Neigh   | 31.832     | 31.832     | 31.832     |   0.0 | 44.62
Comm    | 0.64609    | 0.64609    | 0.64609    |   0.0 |  0.91
Output  | 0.00019503 | 0.00019503 | 0.00019503 |   0.0 |  0.00
Modify  | 1.0344     | 1.0344     | 1.0344     |   0.0 |  1.45
Other   |            | 0.2531     |            |       |  0.35

Nlocal:    19652 ave 19652 max 19652 min
Histogram: 1 0 0 0 0 0 0 0 0 0
Nghost:    15735 ave 15735 max 15735 min
Histogram: 1 0 0 0 0 0 0 0 0 0
Neighs:    1.04368e+06 ave 1.04368e+06 max 1.04368e+06 min
Histogram: 1 0 0 0 0 0 0 0 0 0

Total # of neighbors = 1043678
Ave neighs/atom = 53.108
Neighbor list builds = 495
Dangerous builds not checked
Setting up Verlet run ...
  Unit style    : metal
  Current step  : 81495
  Time step     : 0.001
Per MPI rank memory allocation (min/avg/max) = 18.22 | 18.22 | 18.22 Mbytes
Step Temp Press TotEng PotEng Enthalpy Volume 
   81495    373.55746    -244.6595    -26487.37    -27436.24    -26560.84    481126.22 
   82000     350.1783    81.130519   -26644.107   -27533.592   -26619.864    478767.95 
Loop time of 68.2837 on 1 procs for 505 steps with 19652 atoms

Performance: 0.639 ns/day, 37.560 hours/ns, 7.396 timesteps/s
98.6% CPU use with 1 MPI tasks x no OpenMP threads

MPI task timing breakdown:
Section |  min time  |  avg time  |  max time  |%varavg| %total
---------------------------------------------------------------
Pair    | 36.263     | 36.263     | 36.263     |   0.0 | 53.11
Neigh   | 30.118     | 30.118     | 30.118     |   0.0 | 44.11
Comm    | 0.62102    | 0.62102    | 0.62102    |   0.0 |  0.91
Output  | 0.068783   | 0.068783   | 0.068783   |   0.0 |  0.10
Modify  | 0.96431    | 0.96431    | 0.96431    |   0.0 |  1.41
Other   |            | 0.2485     |            |       |  0.36

Nlocal:    19652 ave 19652 max 19652 min
Histogram: 1 0 0 0 0 0 0 0 0 0
Nghost:    15814 ave 15814 max 15814 min
Histogram: 1 0 0 0 0 0 0 0 0 0
Neighs:    1.04979e+06 ave 1.04979e+06 max 1.04979e+06 min
Histogram: 1 0 0 0 0 0 0 0 0 0

Total # of neighbors = 1049786
Ave neighs/atom = 53.4188
Neighbor list builds = 505
Dangerous builds not checked
Setting up Verlet run ...
  Unit style    : metal
  Current step  : 82000
  Time step     : 0.001
Per MPI rank memory allocation (min/avg/max) = 18.22 | 18.22 | 18.22 Mbytes
Step Temp Press TotEng PotEng Enthalpy Volume 
   82000     350.1783    81.130519   -26644.107   -27533.592   -26619.864    478767.95 
   82495    324.13491   -10.496523   -26792.239   -27615.571   -26795.368    477587.35 
Loop time of 66.8536 on 1 procs for 495 steps with 19652 atoms

Performance: 0.640 ns/day, 37.516 hours/ns, 7.404 timesteps/s
98.6% CPU use with 1 MPI tasks x no OpenMP threads

MPI task timing breakdown:
Section |  min time  |  avg time  |  max time  |%varavg| %total
---------------------------------------------------------------
Pair    | 35.514     | 35.514     | 35.514     |   0.0 | 53.12
Neigh   | 29.549     | 29.549     | 29.549     |   0.0 | 44.20
Comm    | 0.60031    | 0.60031    | 0.60031    |   0.0 |  0.90
Output  | 0.00020194 | 0.00020194 | 0.00020194 |   0.0 |  0.00
Modify  | 0.95508    | 0.95508    | 0.95508    |   0.0 |  1.43
Other   |            | 0.2348     |            |       |  0.35

Nlocal:    19652 ave 19652 max 19652 min
Histogram: 1 0 0 0 0 0 0 0 0 0
Nghost:    15780 ave 15780 max 15780 min
Histogram: 1 0 0 0 0 0 0 0 0 0
Neighs:    1.05345e+06 ave 1.05345e+06 max 1.05345e+06 min
Histogram: 1 0 0 0 0 0 0 0 0 0

Total # of neighbors = 1053451
Ave neighs/atom = 53.6053
Neighbor list builds = 495
Dangerous builds not checked
Setting up Verlet run ...
  Unit style    : metal
  Current step  : 82495
  Time step     : 0.001
Per MPI rank memory allocation (min/avg/max) = 18.22 | 18.22 | 18.22 Mbytes
Step Temp Press TotEng PotEng Enthalpy Volume 
   82495    324.13491   -10.496523   -26792.239   -27615.571   -26795.368    477587.35 
   83000    300.66726    248.14079   -26943.307    -27707.03   -26869.657    475543.52 
Loop time of 69.0019 on 1 procs for 505 steps with 19652 atoms

Performance: 0.632 ns/day, 37.955 hours/ns, 7.319 timesteps/s
99.5% CPU use with 1 MPI tasks x no OpenMP threads

MPI task timing breakdown:
Section |  min time  |  avg time  |  max time  |%varavg| %total
---------------------------------------------------------------
Pair    | 36.49      | 36.49      | 36.49      |   0.0 | 52.88
Neigh   | 30.611     | 30.611     | 30.611     |   0.0 | 44.36
Comm    | 0.62874    | 0.62874    | 0.62874    |   0.0 |  0.91
Output  | 0.041686   | 0.041686   | 0.041686   |   0.0 |  0.06
Modify  | 0.99154    | 0.99154    | 0.99154    |   0.0 |  1.44
Other   |            | 0.2387     |            |       |  0.35

Nlocal:    19652 ave 19652 max 19652 min
Histogram: 1 0 0 0 0 0 0 0 0 0
Nghost:    15803 ave 15803 max 15803 min
Histogram: 1 0 0 0 0 0 0 0 0 0
Neighs:    1.05888e+06 ave 1.05888e+06 max 1.05888e+06 min
Histogram: 1 0 0 0 0 0 0 0 0 0

Total # of neighbors = 1058878
Ave neighs/atom = 53.8814
Neighbor list builds = 505
Dangerous builds not checked
Setting up Verlet run ...
  Unit style    : metal
  Current step  : 83000
  Time step     : 0.001
Per MPI rank memory allocation (min/avg/max) = 18.22 | 18.22 | 18.22 Mbytes
Step Temp Press TotEng PotEng Enthalpy Volume 
   83000    300.66726    248.14079   -26943.307    -27707.03   -26869.657    475543.52 
   83495    274.38137    164.44947   -27085.786    -27782.74   -27037.101    474322.01 
Loop time of 63.0548 on 1 procs for 495 steps with 19652 atoms

Performance: 0.678 ns/day, 35.384 hours/ns, 7.850 timesteps/s
98.5% CPU use with 1 MPI tasks x no OpenMP threads

MPI task timing breakdown:
Section |  min time  |  avg time  |  max time  |%varavg| %total
---------------------------------------------------------------
Pair    | 33.592     | 33.592     | 33.592     |   0.0 | 53.27
Neigh   | 27.803     | 27.803     | 27.803     |   0.0 | 44.09
Comm    | 0.55036    | 0.55036    | 0.55036    |   0.0 |  0.87
Output  | 0.00019097 | 0.00019097 | 0.00019097 |   0.0 |  0.00
Modify  | 0.88631    | 0.88631    | 0.88631    |   0.0 |  1.41
Other   |            | 0.223      |            |       |  0.35

Nlocal:    19652 ave 19652 max 19652 min
Histogram: 1 0 0 0 0 0 0 0 0 0
Nghost:    15864 ave 15864 max 15864 min
Histogram: 1 0 0 0 0 0 0 0 0 0
Neighs:    1.06242e+06 ave 1.06242e+06 max 1.06242e+06 min
Histogram: 1 0 0 0 0 0 0 0 0 0

Total # of neighbors = 1062423
Ave neighs/atom = 54.0618
Neighbor list builds = 495
Dangerous builds not checked
Setting up Verlet run ...
  Unit style    : metal
  Current step  : 83495
  Time step     : 0.001
Per MPI rank memory allocation (min/avg/max) = 18.22 | 18.22 | 18.22 Mbytes
Step Temp Press TotEng PotEng Enthalpy Volume 
   83495    274.38137    164.44947   -27085.786    -27782.74   -27037.101    474322.01 
   84000    250.78465    26.690979   -27233.545    -27870.56   -27225.664    473041.69 
Loop time of 67.5539 on 1 procs for 505 steps with 19652 atoms

Performance: 0.646 ns/day, 37.158 hours/ns, 7.476 timesteps/s
98.4% CPU use with 1 MPI tasks x no OpenMP threads

MPI task timing breakdown:
Section |  min time  |  avg time  |  max time  |%varavg| %total
---------------------------------------------------------------
Pair    | 35.823     | 35.823     | 35.823     |   0.0 | 53.03
Neigh   | 29.925     | 29.925     | 29.925     |   0.0 | 44.30
Comm    | 0.59383    | 0.59383    | 0.59383    |   0.0 |  0.88
Output  | 0.041617   | 0.041617   | 0.041617   |   0.0 |  0.06
Modify  | 0.94983    | 0.94983    | 0.94983    |   0.0 |  1.41
Other   |            | 0.2213     |            |       |  0.33

Nlocal:    19652 ave 19652 max 19652 min
Histogram: 1 0 0 0 0 0 0 0 0 0
Nghost:    15862 ave 15862 max 15862 min
Histogram: 1 0 0 0 0 0 0 0 0 0
Neighs:    1.06637e+06 ave 1.06637e+06 max 1.06637e+06 min
Histogram: 1 0 0 0 0 0 0 0 0 0

Total # of neighbors = 1066370
Ave neighs/atom = 54.2627
Neighbor list builds = 505
Dangerous builds not checked
Setting up Verlet run ...
  Unit style    : metal
  Current step  : 84000
  Time step     : 0.001
Per MPI rank memory allocation (min/avg/max) = 18.22 | 18.22 | 18.22 Mbytes
Step Temp Press TotEng PotEng Enthalpy Volume 
   84000    250.78465    26.690979   -27233.545    -27870.56   -27225.664    473041.69 
   84495    226.97644    22.339403   -27373.695   -27950.236   -27367.119    471630.26 
Loop time of 64.4872 on 1 procs for 495 steps with 19652 atoms

Performance: 0.663 ns/day, 36.188 hours/ns, 7.676 timesteps/s
99.8% CPU use with 1 MPI tasks x no OpenMP threads

MPI task timing breakdown:
Section |  min time  |  avg time  |  max time  |%varavg| %total
---------------------------------------------------------------
Pair    | 34.241     | 34.241     | 34.241     |   0.0 | 53.10
Neigh   | 28.564     | 28.564     | 28.564     |   0.0 | 44.29
Comm    | 0.56044    | 0.56044    | 0.56044    |   0.0 |  0.87
Output  | 0.00013304 | 0.00013304 | 0.00013304 |   0.0 |  0.00
Modify  | 0.91023    | 0.91023    | 0.91023    |   0.0 |  1.41
Other   |            | 0.2116     |            |       |  0.33

Nlocal:    19652 ave 19652 max 19652 min
Histogram: 1 0 0 0 0 0 0 0 0 0
Nghost:    15845 ave 15845 max 15845 min
Histogram: 1 0 0 0 0 0 0 0 0 0
Neighs:    1.07027e+06 ave 1.07027e+06 max 1.07027e+06 min
Histogram: 1 0 0 0 0 0 0 0 0 0

Total # of neighbors = 1070271
Ave neighs/atom = 54.4612
Neighbor list builds = 495
Dangerous builds not checked
Setting up Verlet run ...
  Unit style    : metal
  Current step  : 84495
  Time step     : 0.001
Per MPI rank memory allocation (min/avg/max) = 18.22 | 18.22 | 18.22 Mbytes
Step Temp Press TotEng PotEng Enthalpy Volume 
   84495    226.97644    22.339403   -27373.695   -27950.236   -27367.119    471630.26 
   85000    200.99648    147.97259   -27517.479   -28028.028   -27474.057    470150.89 
Loop time of 69.0079 on 1 procs for 505 steps with 19652 atoms

Performance: 0.632 ns/day, 37.958 hours/ns, 7.318 timesteps/s
98.8% CPU use with 1 MPI tasks x no OpenMP threads

MPI task timing breakdown:
Section |  min time  |  avg time  |  max time  |%varavg| %total
---------------------------------------------------------------
Pair    | 36.586     | 36.586     | 36.586     |   0.0 | 53.02
Neigh   | 30.54      | 30.54      | 30.54      |   0.0 | 44.26
Comm    | 0.60154    | 0.60154    | 0.60154    |   0.0 |  0.87
Output  | 0.067381   | 0.067381   | 0.067381   |   0.0 |  0.10
Modify  | 0.97846    | 0.97846    | 0.97846    |   0.0 |  1.42
Other   |            | 0.2342     |            |       |  0.34

Nlocal:    19652 ave 19652 max 19652 min
Histogram: 1 0 0 0 0 0 0 0 0 0
Nghost:    15887 ave 15887 max 15887 min
Histogram: 1 0 0 0 0 0 0 0 0 0
Neighs:    1.07475e+06 ave 1.07475e+06 max 1.07475e+06 min
Histogram: 1 0 0 0 0 0 0 0 0 0

Total # of neighbors = 1074746
Ave neighs/atom = 54.6889
Neighbor list builds = 505
Dangerous builds not checked
Setting up Verlet run ...
  Unit style    : metal
  Current step  : 85000
  Time step     : 0.001
Per MPI rank memory allocation (min/avg/max) = 18.22 | 18.22 | 18.22 Mbytes
Step Temp Press TotEng PotEng Enthalpy Volume 
   85000    200.99648    147.97259   -27517.479   -28028.028   -27474.057    470150.89 
   85495    174.26177    165.52611   -27652.278   -28094.919   -27603.827    468974.19 
Loop time of 70.6564 on 1 procs for 495 steps with 19652 atoms

Performance: 0.605 ns/day, 39.650 hours/ns, 7.006 timesteps/s
97.0% CPU use with 1 MPI tasks x no OpenMP threads

MPI task timing breakdown:
Section |  min time  |  avg time  |  max time  |%varavg| %total
---------------------------------------------------------------
Pair    | 37.695     | 37.695     | 37.695     |   0.0 | 53.35
Neigh   | 31.083     | 31.083     | 31.083     |   0.0 | 43.99
Comm    | 0.63712    | 0.63712    | 0.63712    |   0.0 |  0.90
Output  | 0.00014615 | 0.00014615 | 0.00014615 |   0.0 |  0.00
Modify  | 1.0067     | 1.0067     | 1.0067     |   0.0 |  1.42
Other   |            | 0.2338     |            |       |  0.33

Nlocal:    19652 ave 19652 max 19652 min
Histogram: 1 0 0 0 0 0 0 0 0 0
Nghost:    15928 ave 15928 max 15928 min
Histogram: 1 0 0 0 0 0 0 0 0 0
Neighs:    1.07774e+06 ave 1.07774e+06 max 1.07774e+06 min
Histogram: 1 0 0 0 0 0 0 0 0 0

Total # of neighbors = 1077736
Ave neighs/atom = 54.841
Neighbor list builds = 495
Dangerous builds not checked
Setting up Verlet run ...
  Unit style    : metal
  Current step  : 85495
  Time step     : 0.001
Per MPI rank memory allocation (min/avg/max) = 18.22 | 18.22 | 18.22 Mbytes
Step Temp Press TotEng PotEng Enthalpy Volume 
   85495    174.26177    165.52611   -27652.278   -28094.919   -27603.827    468974.19 
   86000    152.15631   -158.16104   -27790.733   -28177.224   -27836.941     468086.9 
Loop time of 72.1602 on 1 procs for 505 steps with 19652 atoms

Performance: 0.605 ns/day, 39.692 hours/ns, 6.998 timesteps/s
98.5% CPU use with 1 MPI tasks x no OpenMP threads

MPI task timing breakdown:
Section |  min time  |  avg time  |  max time  |%varavg| %total
---------------------------------------------------------------
Pair    | 38.646     | 38.646     | 38.646     |   0.0 | 53.56
Neigh   | 31.52      | 31.52      | 31.52      |   0.0 | 43.68
Comm    | 0.64686    | 0.64686    | 0.64686    |   0.0 |  0.90
Output  | 0.067423   | 0.067423   | 0.067423   |   0.0 |  0.09
Modify  | 1.0355     | 1.0355     | 1.0355     |   0.0 |  1.44
Other   |            | 0.2445     |            |       |  0.34

Nlocal:    19652 ave 19652 max 19652 min
Histogram: 1 0 0 0 0 0 0 0 0 0
Nghost:    15892 ave 15892 max 15892 min
Histogram: 1 0 0 0 0 0 0 0 0 0
Neighs:    1.08096e+06 ave 1.08096e+06 max 1.08096e+06 min
Histogram: 1 0 0 0 0 0 0 0 0 0

Total # of neighbors = 1080962
Ave neighs/atom = 55.0052
Neighbor list builds = 505
Dangerous builds not checked
Setting up Verlet run ...
  Unit style    : metal
  Current step  : 86000
  Time step     : 0.001
Per MPI rank memory allocation (min/avg/max) = 18.22 | 18.22 | 18.22 Mbytes
Step Temp Press TotEng PotEng Enthalpy Volume 
   86000    152.15631   -158.16104   -27790.733   -28177.224   -27836.941     468086.9 
   86495    128.32183    152.34827   -27920.225   -28246.175   -27875.866    466503.16 
Loop time of 63.2097 on 1 procs for 495 steps with 19652 atoms

Performance: 0.677 ns/day, 35.471 hours/ns, 7.831 timesteps/s
99.8% CPU use with 1 MPI tasks x no OpenMP threads

MPI task timing breakdown:
Section |  min time  |  avg time  |  max time  |%varavg| %total
---------------------------------------------------------------
Pair    | 33.854     | 33.854     | 33.854     |   0.0 | 53.56
Neigh   | 27.683     | 27.683     | 27.683     |   0.0 | 43.80
Comm    | 0.56833    | 0.56833    | 0.56833    |   0.0 |  0.90
Output  | 0.00013995 | 0.00013995 | 0.00013995 |   0.0 |  0.00
Modify  | 0.89429    | 0.89429    | 0.89429    |   0.0 |  1.41
Other   |            | 0.2097     |            |       |  0.33

Nlocal:    19652 ave 19652 max 19652 min
Histogram: 1 0 0 0 0 0 0 0 0 0
Nghost:    15910 ave 15910 max 15910 min
Histogram: 1 0 0 0 0 0 0 0 0 0
Neighs:    1.08485e+06 ave 1.08485e+06 max 1.08485e+06 min
Histogram: 1 0 0 0 0 0 0 0 0 0

Total # of neighbors = 1084849
Ave neighs/atom = 55.203
Neighbor list builds = 495
Dangerous builds not checked
Setting up Verlet run ...
  Unit style    : metal
  Current step  : 86495
  Time step     : 0.001
Per MPI rank memory allocation (min/avg/max) = 18.22 | 18.22 | 18.22 Mbytes
Step Temp Press TotEng PotEng Enthalpy Volume 
   86495    128.32183    152.34827   -27920.225   -28246.175   -27875.866    466503.16 
   87000    103.50519     132.6532    -28054.08   -28316.992   -28015.538    465504.56 
Loop time of 63.0779 on 1 procs for 505 steps with 19652 atoms

Performance: 0.692 ns/day, 34.696 hours/ns, 8.006 timesteps/s
97.7% CPU use with 1 MPI tasks x no OpenMP threads

MPI task timing breakdown:
Section |  min time  |  avg time  |  max time  |%varavg| %total
---------------------------------------------------------------
Pair    | 33.957     | 33.957     | 33.957     |   0.0 | 53.83
Neigh   | 27.416     | 27.416     | 27.416     |   0.0 | 43.46
Comm    | 0.55919    | 0.55919    | 0.55919    |   0.0 |  0.89
Output  | 0.041056   | 0.041056   | 0.041056   |   0.0 |  0.07
Modify  | 0.8964     | 0.8964     | 0.8964     |   0.0 |  1.42
Other   |            | 0.2084     |            |       |  0.33

Nlocal:    19652 ave 19652 max 19652 min
Histogram: 1 0 0 0 0 0 0 0 0 0
Nghost:    15951 ave 15951 max 15951 min
Histogram: 1 0 0 0 0 0 0 0 0 0
Neighs:    1.0873e+06 ave 1.0873e+06 max 1.0873e+06 min
Histogram: 1 0 0 0 0 0 0 0 0 0

Total # of neighbors = 1087295
Ave neighs/atom = 55.3274
Neighbor list builds = 505
Dangerous builds not checked
Total wall time: 3:03:01
