LAMMPS (12 Dec 2018)
Lattice spacing in x,y,z = 4 4 4
Created orthogonal box = (0 0 0) to (68 68 68)
  1 by 1 by 2 MPI processor grid
Created 19652 atoms
  Time spent = 0.0016408 secs
Setting atom values ...
  417 settings made for type/fraction
Neighbor list info ...
  update every 1 steps, delay 0 steps, check no
  max neighbors/atom: 2000, page size: 100000
  master list distance cutoff = 8.5
  ghost atom cutoff = 8.5
  binsize = 4.25, bins = 16 16 16
  1 neighbor lists, perpetual/occasional/extra = 1 0 0
  (1) pair eam/alloy, perpetual
      attributes: half, newton on
      pair build: half/bin/atomonly/newton
      stencil: half/bin/3d/newton
      bin: standard
Setting up Verlet run ...
  Unit style    : metal
  Current step  : 0
  Time step     : 0.001
Per MPI rank memory allocation (min/avg/max) = 11.15 | 11.15 | 11.15 Mbytes
Step Temp Press TotEng PotEng Enthalpy 
       0          300   -111089.58    -76248.48   -77010.508   -98050.147 
    1000    183.49426   -94037.024   -76248.444   -76714.536   -94703.495 
Loop time of 97.8638 on 2 procs for 1000 steps with 19652 atoms

Performance: 0.883 ns/day, 27.184 hours/ns, 10.218 timesteps/s
98.7% CPU use with 2 MPI tasks x no OpenMP threads

MPI task timing breakdown:
Section |  min time  |  avg time  |  max time  |%varavg| %total
---------------------------------------------------------------
Pair    | 56.854     | 57.162     | 57.47      |   4.1 | 58.41
Neigh   | 33.765     | 35.414     | 37.063     |  27.7 | 36.19
Comm    | 3.4334     | 4.7919     | 6.1505     |  62.1 |  4.90
Output  | 0.00018811 | 0.00020754 | 0.00022697 |   0.0 |  0.00
Modify  | 0.24419    | 0.2521     | 0.26001    |   1.6 |  0.26
Other   |            | 0.2444     |            |       |  0.25

Nlocal:    9826 ave 9844 max 9808 min
Histogram: 1 0 0 0 0 0 0 0 0 1
Nghost:    14207 ave 14223 max 14191 min
Histogram: 1 0 0 0 0 0 0 0 0 1
Neighs:    784564 ave 786216 max 782911 min
Histogram: 1 0 0 0 0 0 0 0 0 1

Total # of neighbors = 1569127
Ave neighs/atom = 79.8457
Neighbor list builds = 1000
Dangerous builds not checked
Setting up Verlet run ...
  Unit style    : metal
  Current step  : 1000
  Time step     : 0.001
Per MPI rank memory allocation (min/avg/max) = 11.15 | 11.15 | 11.15 Mbytes
Step Temp Press TotEng PotEng Enthalpy 
    1000    183.49426   -94037.024   -76248.444   -76714.536   -94703.495 
    2000    301.30438   -86.629987   -76453.273   -77218.613   -76469.272 
Loop time of 109.449 on 2 procs for 1000 steps with 19652 atoms

Performance: 0.789 ns/day, 30.402 hours/ns, 9.137 timesteps/s
98.8% CPU use with 2 MPI tasks x no OpenMP threads

MPI task timing breakdown:
Section |  min time  |  avg time  |  max time  |%varavg| %total
---------------------------------------------------------------
Pair    | 60.858     | 61.78      | 62.702     |  11.7 | 56.45
Neigh   | 39.928     | 41.714     | 43.501     |  27.7 | 38.11
Comm    | 3.996      | 4.8855     | 5.7751     |  40.2 |  4.46
Output  | 0.0001111  | 0.00016654 | 0.00022197 |   0.0 |  0.00
Modify  | 0.80679    | 0.82794    | 0.84909    |   2.3 |  0.76
Other   |            | 0.2413     |            |       |  0.22

Nlocal:    9826 ave 9853 max 9799 min
Histogram: 1 0 0 0 0 0 0 0 0 1
Nghost:    14211 ave 14238 max 14184 min
Histogram: 1 0 0 0 0 0 0 0 0 1
Neighs:    855025 ave 867838 max 842212 min
Histogram: 1 0 0 0 0 0 0 0 0 1

Total # of neighbors = 1710050
Ave neighs/atom = 87.0166
Neighbor list builds = 1000
Dangerous builds not checked
Setting up Verlet run ...
  Unit style    : metal
  Current step  : 2000
  Time step     : 0.001
Per MPI rank memory allocation (min/avg/max) = 11.15 | 11.15 | 11.15 Mbytes
Step Temp Press TotEng PotEng Enthalpy 
    2000    301.30438   -86.629987   -76453.273   -77218.613   -76469.272 
   10000    2431.4936   -2031.2342   -60800.872   -66977.087   -61255.771 
Loop time of 785.792 on 2 procs for 8000 steps with 19652 atoms

Performance: 0.880 ns/day, 27.284 hours/ns, 10.181 timesteps/s
98.8% CPU use with 2 MPI tasks x no OpenMP threads

MPI task timing breakdown:
Section |  min time  |  avg time  |  max time  |%varavg| %total
---------------------------------------------------------------
Pair    | 439.33     | 440.4      | 441.48     |   5.1 | 56.05
Neigh   | 290.72     | 298.97     | 307.21     |  47.7 | 38.05
Comm    | 28.711     | 38.173     | 47.634     | 153.1 |  4.86
Output  | 0.029593   | 0.029602   | 0.02961    |   0.0 |  0.00
Modify  | 6.3168     | 6.414      | 6.5111     |   3.8 |  0.82
Other   |            | 1.808      |            |       |  0.23

Nlocal:    9826 ave 9856 max 9796 min
Histogram: 1 0 0 0 0 0 0 0 0 1
Nghost:    12524 ave 12528 max 12520 min
Histogram: 1 0 0 0 0 0 0 0 0 1
Neighs:    689392 ave 693221 max 685563 min
Histogram: 1 0 0 0 0 0 0 0 0 1

Total # of neighbors = 1378784
Ave neighs/atom = 70.16
Neighbor list builds = 8000
Dangerous builds not checked
Setting up Verlet run ...
  Unit style    : metal
  Current step  : 10000
  Time step     : 0.001
Per MPI rank memory allocation (min/avg/max) = 11.17 | 11.17 | 11.17 Mbytes
Step Temp Press TotEng PotEng Enthalpy 
   10000    2431.4936   -2031.2342   -60800.872   -66977.087   -61255.771 
   20000    2477.7983    1385.1177   -60639.659   -66933.492   -60330.173 
   30000     2453.649   -1246.1508   -60681.029   -66913.521   -60960.404 
   40000     2441.228     1281.021   -60604.562   -66805.504   -60317.239 
Loop time of 2735.73 on 2 procs for 30000 steps with 19652 atoms

Performance: 0.947 ns/day, 25.331 hours/ns, 10.966 timesteps/s
97.8% CPU use with 2 MPI tasks x no OpenMP threads

MPI task timing breakdown:
Section |  min time  |  avg time  |  max time  |%varavg| %total
---------------------------------------------------------------
Pair    | 1490.2     | 1491.3     | 1492.4     |   2.9 | 54.51
Neigh   | 1050.9     | 1066.1     | 1081.4     |  46.7 | 38.97
Comm    | 129.6      | 146.12     | 162.64     | 136.7 |  5.34
Output  | 0.099112   | 0.099216   | 0.099321   |   0.0 |  0.00
Modify  | 25.461     | 25.548     | 25.634     |   1.7 |  0.93
Other   |            | 6.543      |            |       |  0.24

Nlocal:    9826 ave 9837 max 9815 min
Histogram: 1 0 0 0 0 0 0 0 0 1
Nghost:    12408.5 ave 12409 max 12408 min
Histogram: 1 0 0 0 0 0 0 0 0 1
Neighs:    688174 ave 690268 max 686080 min
Histogram: 1 0 0 0 0 0 0 0 0 1

Total # of neighbors = 1376348
Ave neighs/atom = 70.036
Neighbor list builds = 30000
Dangerous builds not checked
Setting up Verlet run ...
  Unit style    : metal
  Current step  : 40000
  Time step     : 0.001
Per MPI rank memory allocation (min/avg/max) = 11.22 | 11.22 | 11.22 Mbytes
Step Temp Press TotEng PotEng Enthalpy 
   40000     2441.228     1281.021   -60604.562   -66805.504   -60317.239 
   40495    2409.4853    1117.9941   -60829.193   -66949.505   -60579.351 
Loop time of 43.7119 on 2 procs for 495 steps with 19652 atoms

Performance: 0.978 ns/day, 24.530 hours/ns, 11.324 timesteps/s
99.1% CPU use with 2 MPI tasks x no OpenMP threads

MPI task timing breakdown:
Section |  min time  |  avg time  |  max time  |%varavg| %total
---------------------------------------------------------------
Pair    | 23.578     | 23.965     | 24.351     |   7.9 | 54.82
Neigh   | 15.359     | 17.006     | 18.654     |  40.0 | 38.91
Comm    | 0.95266    | 2.245      | 3.5374     |  86.3 |  5.14
Output  | 9.7036e-05 | 0.00014257 | 0.00018811 |   0.0 |  0.00
Modify  | 0.36964    | 0.39339    | 0.41714    |   3.8 |  0.90
Other   |            | 0.1025     |            |       |  0.23

Nlocal:    9826 ave 9866 max 9786 min
Histogram: 1 0 0 0 0 0 0 0 0 1
Nghost:    12444 ave 12482 max 12406 min
Histogram: 1 0 0 0 0 0 0 0 0 1
Neighs:    690727 ave 695619 max 685835 min
Histogram: 1 0 0 0 0 0 0 0 0 1

Total # of neighbors = 1381454
Ave neighs/atom = 70.2958
Neighbor list builds = 495
Dangerous builds not checked
Setting up Verlet run ...
  Unit style    : metal
  Current step  : 40495
  Time step     : 0.001
Per MPI rank memory allocation (min/avg/max) = 11.22 | 11.22 | 11.22 Mbytes
Step Temp Press TotEng PotEng Enthalpy 
   40495    2409.4853    1117.9941   -60829.193   -66949.505   -60579.351 
   50000    2379.3214   -797.37572   -61054.436   -67098.129   -61232.322 
Loop time of 745.791 on 2 procs for 9505 steps with 19652 atoms

Performance: 1.101 ns/day, 21.795 hours/ns, 12.745 timesteps/s
99.5% CPU use with 2 MPI tasks x no OpenMP threads

MPI task timing breakdown:
Section |  min time  |  avg time  |  max time  |%varavg| %total
---------------------------------------------------------------
Pair    | 402.68     | 403.1      | 403.53     |   2.1 | 54.05
Neigh   | 299.23     | 300.37     | 301.51     |   6.6 | 40.28
Comm    | 33.05      | 33.796     | 34.543     |  12.8 |  4.53
Output  | 0.036268   | 0.036312   | 0.036355   |   0.0 |  0.00
Modify  | 6.6611     | 6.6727     | 6.6843     |   0.4 |  0.89
Other   |            | 1.813      |            |       |  0.24

Nlocal:    9826 ave 9834 max 9818 min
Histogram: 1 0 0 0 0 0 0 0 0 1
Nghost:    12549.5 ave 12570 max 12529 min
Histogram: 1 0 0 0 0 0 0 0 0 1
Neighs:    691954 ave 693033 max 690876 min
Histogram: 1 0 0 0 0 0 0 0 0 1

Total # of neighbors = 1383909
Ave neighs/atom = 70.4208
Neighbor list builds = 9505
Dangerous builds not checked
Setting up Verlet run ...
  Unit style    : metal
  Current step  : 50000
  Time step     : 0.001
Per MPI rank memory allocation (min/avg/max) = 11.23 | 11.23 | 11.23 Mbytes
Step Temp Press TotEng PotEng Enthalpy 
   50000    2379.3214   -797.37572   -61054.436   -67098.129   -61232.322 
   50495    2357.2886   -261.85143   -61206.606   -67194.334   -61264.888 
Loop time of 48.1569 on 2 procs for 495 steps with 19652 atoms

Performance: 0.888 ns/day, 27.024 hours/ns, 10.279 timesteps/s
97.2% CPU use with 2 MPI tasks x no OpenMP threads

MPI task timing breakdown:
Section |  min time  |  avg time  |  max time  |%varavg| %total
---------------------------------------------------------------
Pair    | 26.52      | 26.58      | 26.64      |   1.2 | 55.19
Neigh   | 17.598     | 18.336     | 19.074     |  17.2 | 38.08
Comm    | 1.8925     | 2.7006     | 3.5088     |  49.2 |  5.61
Output  | 8.7023e-05 | 0.000126   | 0.00016499 |   0.0 |  0.00
Modify  | 0.42342    | 0.43028    | 0.43714    |   1.0 |  0.89
Other   |            | 0.1101     |            |       |  0.23

Nlocal:    9826 ave 9833 max 9819 min
Histogram: 1 0 0 0 0 0 0 0 0 1
Nghost:    12509 ave 12552 max 12466 min
Histogram: 1 0 0 0 0 0 0 0 0 1
Neighs:    693445 ave 695265 max 691625 min
Histogram: 1 0 0 0 0 0 0 0 0 1

Total # of neighbors = 1386890
Ave neighs/atom = 70.5725
Neighbor list builds = 495
Dangerous builds not checked
Setting up Verlet run ...
  Unit style    : metal
  Current step  : 50495
  Time step     : 0.001
Per MPI rank memory allocation (min/avg/max) = 11.23 | 11.23 | 11.23 Mbytes
Step Temp Press TotEng PotEng Enthalpy 
   50495    2357.2886   -261.85143   -61206.606   -67194.334   -61264.888 
   60000    2349.2433     815.9204   -61333.196   -67300.488   -61152.123 
Loop time of 813.215 on 2 procs for 9505 steps with 19652 atoms

Performance: 1.010 ns/day, 23.766 hours/ns, 11.688 timesteps/s
98.5% CPU use with 2 MPI tasks x no OpenMP threads

MPI task timing breakdown:
Section |  min time  |  avg time  |  max time  |%varavg| %total
---------------------------------------------------------------
Pair    | 440.96     | 441.61     | 442.25     |   3.1 | 54.30
Neigh   | 312.66     | 318.6      | 324.54     |  33.3 | 39.18
Comm    | 35.493     | 42.189     | 48.884     | 103.1 |  5.19
Output  | 1.1912     | 1.1912     | 1.1913     |   0.0 |  0.15
Modify  | 7.6487     | 7.7182     | 7.7877     |   2.5 |  0.95
Other   |            | 1.913      |            |       |  0.24

Nlocal:    9826 ave 9865 max 9787 min
Histogram: 1 0 0 0 0 0 0 0 0 1
Nghost:    12550.5 ave 12581 max 12520 min
Histogram: 1 0 0 0 0 0 0 0 0 1
Neighs:    695714 ave 700173 max 691254 min
Histogram: 1 0 0 0 0 0 0 0 0 1

Total # of neighbors = 1391427
Ave neighs/atom = 70.8033
Neighbor list builds = 9505
Dangerous builds not checked
Setting up Verlet run ...
  Unit style    : metal
  Current step  : 60000
  Time step     : 0.001
Per MPI rank memory allocation (min/avg/max) = 11.24 | 11.24 | 11.24 Mbytes
Step Temp Press TotEng PotEng Enthalpy 
   60000    2349.2433     815.9204   -61333.196   -67300.488   -61152.123 
   60495    2324.5442    -476.1872   -61520.681   -67425.235   -61626.197 
Loop time of 41.7272 on 2 procs for 495 steps with 19652 atoms

Performance: 1.025 ns/day, 23.416 hours/ns, 11.863 timesteps/s
99.2% CPU use with 2 MPI tasks x no OpenMP threads

MPI task timing breakdown:
Section |  min time  |  avg time  |  max time  |%varavg| %total
---------------------------------------------------------------
Pair    | 22.524     | 22.685     | 22.846     |   3.4 | 54.36
Neigh   | 16.01      | 16.656     | 17.302     |  15.8 | 39.92
Comm    | 1.411      | 1.9072     | 2.4034     |  35.9 |  4.57
Output  | 9.203e-05  | 0.00010347 | 0.00011492 |   0.0 |  0.00
Modify  | 0.3706     | 0.37862    | 0.38664    |   1.3 |  0.91
Other   |            | 0.1003     |            |       |  0.24

Nlocal:    9826 ave 9842 max 9810 min
Histogram: 1 0 0 0 0 0 0 0 0 1
Nghost:    12548.5 ave 12564 max 12533 min
Histogram: 1 0 0 0 0 0 0 0 0 1
Neighs:    696606 ave 699252 max 693960 min
Histogram: 1 0 0 0 0 0 0 0 0 1

Total # of neighbors = 1393212
Ave neighs/atom = 70.8942
Neighbor list builds = 495
Dangerous builds not checked
Setting up Verlet run ...
  Unit style    : metal
  Current step  : 60495
  Time step     : 0.001
Per MPI rank memory allocation (min/avg/max) = 11.24 | 11.24 | 11.24 Mbytes
Step Temp Press TotEng PotEng Enthalpy 
   60495    2324.5442    -476.1872   -61520.681   -67425.235   -61626.197 
   70000    2297.7835    1134.5698   -61618.064   -67454.644   -61367.477 
Loop time of 817.272 on 2 procs for 9505 steps with 19652 atoms

Performance: 1.005 ns/day, 23.884 hours/ns, 11.630 timesteps/s
97.8% CPU use with 2 MPI tasks x no OpenMP threads

MPI task timing breakdown:
Section |  min time  |  avg time  |  max time  |%varavg| %total
---------------------------------------------------------------
Pair    | 441.37     | 441.98     | 442.6      |   2.9 | 54.08
Neigh   | 314.41     | 317.25     | 320.1      |  16.0 | 38.82
Comm    | 44.665     | 48.183     | 51.701     |  50.7 |  5.90
Output  | 0.03863    | 0.038725   | 0.038819   |   0.0 |  0.00
Modify  | 7.9056     | 7.9331     | 7.9606     |   1.0 |  0.97
Other   |            | 1.884      |            |       |  0.23

Nlocal:    9826 ave 9834 max 9818 min
Histogram: 1 0 0 0 0 0 0 0 0 1
Nghost:    12488 ave 12510 max 12466 min
Histogram: 1 0 0 0 0 0 0 0 0 1
Neighs:    698942 ave 700031 max 697852 min
Histogram: 1 0 0 0 0 0 0 0 0 1

Total # of neighbors = 1397883
Ave neighs/atom = 71.1318
Neighbor list builds = 9505
Dangerous builds not checked
Setting up Verlet run ...
  Unit style    : metal
  Current step  : 70000
  Time step     : 0.001
Per MPI rank memory allocation (min/avg/max) = 11.25 | 11.25 | 11.25 Mbytes
Step Temp Press TotEng PotEng Enthalpy 
   70000    2297.7835    1134.5698   -61618.064   -67454.644   -61367.477 
   70495    2255.1914    932.55916   -61871.492   -67599.883   -61666.082 
Loop time of 43.6456 on 2 procs for 495 steps with 19652 atoms

Performance: 0.980 ns/day, 24.493 hours/ns, 11.341 timesteps/s
96.7% CPU use with 2 MPI tasks x no OpenMP threads

MPI task timing breakdown:
Section |  min time  |  avg time  |  max time  |%varavg| %total
---------------------------------------------------------------
Pair    | 22.943     | 23.133     | 23.324     |   4.0 | 53.00
Neigh   | 16.447     | 16.658     | 16.868     |   5.2 | 38.17
Comm    | 3.0671     | 3.084      | 3.1009     |   1.0 |  7.07
Output  | 8.7023e-05 | 0.00010955 | 0.00013208 |   0.0 |  0.00
Modify  | 0.66118    | 0.66428    | 0.66739    |   0.4 |  1.52
Other   |            | 0.1062     |            |       |  0.24

Nlocal:    9826 ave 9831 max 9821 min
Histogram: 1 0 0 0 0 0 0 0 0 1
Nghost:    12547 ave 12555 max 12539 min
Histogram: 1 0 0 0 0 0 0 0 0 1
Neighs:    700735 ave 701214 max 700256 min
Histogram: 1 0 0 0 0 0 0 0 0 1

Total # of neighbors = 1401470
Ave neighs/atom = 71.3144
Neighbor list builds = 495
Dangerous builds not checked
Setting up Verlet run ...
  Unit style    : metal
  Current step  : 70495
  Time step     : 0.001
Per MPI rank memory allocation (min/avg/max) = 11.25 | 11.25 | 11.25 Mbytes
Step Temp Press TotEng PotEng Enthalpy 
   70495    2255.1914    932.55916   -61871.492   -67599.883   -61666.082 
   80000    2219.9803    -1433.772   -61978.973   -67617.925   -62295.465 
Loop time of 777.853 on 2 procs for 9505 steps with 19652 atoms

Performance: 1.056 ns/day, 22.732 hours/ns, 12.220 timesteps/s
98.6% CPU use with 2 MPI tasks x no OpenMP threads

MPI task timing breakdown:
Section |  min time  |  avg time  |  max time  |%varavg| %total
---------------------------------------------------------------
Pair    | 419.26     | 420.25     | 421.24     |   4.8 | 54.03
Neigh   | 305.69     | 309.87     | 314.04     |  23.7 | 39.84
Comm    | 33.717     | 38.961     | 44.204     |  84.0 |  5.01
Output  | 0.034432   | 0.03445    | 0.034468   |   0.0 |  0.00
Modify  | 6.8805     | 6.9339     | 6.9874     |   2.0 |  0.89
Other   |            | 1.805      |            |       |  0.23

Nlocal:    9826 ave 9830 max 9822 min
Histogram: 1 0 0 0 0 0 0 0 0 1
Nghost:    12557.5 ave 12575 max 12540 min
Histogram: 1 0 0 0 0 0 0 0 0 1
Neighs:    699248 ave 699668 max 698829 min
Histogram: 1 0 0 0 0 0 0 0 0 1

Total # of neighbors = 1398497
Ave neighs/atom = 71.1631
Neighbor list builds = 9505
Dangerous builds not checked
Setting up Verlet run ...
  Unit style    : metal
  Current step  : 80000
  Time step     : 0.001
Per MPI rank memory allocation (min/avg/max) = 11.26 | 11.26 | 11.26 Mbytes
Step Temp Press TotEng PotEng Enthalpy 
   80000    2219.9803    -1433.772   -61978.973   -67617.925   -62295.465 
   80495    2205.8922    -1277.593   -62182.953   -67786.121    -62463.81 
Loop time of 42.8221 on 2 procs for 495 steps with 19652 atoms

Performance: 0.999 ns/day, 24.030 hours/ns, 11.559 timesteps/s
97.4% CPU use with 2 MPI tasks x no OpenMP threads

MPI task timing breakdown:
Section |  min time  |  avg time  |  max time  |%varavg| %total
---------------------------------------------------------------
Pair    | 23.325     | 23.622     | 23.918     |   6.1 | 55.16
Neigh   | 15.329     | 16.262     | 17.196     |  23.1 | 37.98
Comm    | 1.799      | 2.4613     | 3.1236     |  42.2 |  5.75
Output  | 0.00010586 | 0.00013137 | 0.00015688 |   0.0 |  0.00
Modify  | 0.36055    | 0.38042    | 0.40029    |   3.2 |  0.89
Other   |            | 0.09621    |            |       |  0.22

Nlocal:    9826 ave 9838 max 9814 min
Histogram: 1 0 0 0 0 0 0 0 0 1
Nghost:    12581 ave 12592 max 12570 min
Histogram: 1 0 0 0 0 0 0 0 0 1
Neighs:    702279 ave 704154 max 700404 min
Histogram: 1 0 0 0 0 0 0 0 0 1

Total # of neighbors = 1404558
Ave neighs/atom = 71.4715
Neighbor list builds = 495
Dangerous builds not checked
Setting up Verlet run ...
  Unit style    : metal
  Current step  : 80495
  Time step     : 0.001
Per MPI rank memory allocation (min/avg/max) = 11.26 | 11.26 | 11.26 Mbytes
Step Temp Press TotEng PotEng Enthalpy 
   80495    2205.8922    -1277.593   -62182.953   -67786.121    -62463.81 
   90000    2211.8404    375.60926   -62252.427   -67870.703   -62170.136 
Loop time of 791.302 on 2 procs for 9505 steps with 19652 atoms

Performance: 1.038 ns/day, 23.125 hours/ns, 12.012 timesteps/s
98.3% CPU use with 2 MPI tasks x no OpenMP threads

MPI task timing breakdown:
Section |  min time  |  avg time  |  max time  |%varavg| %total
---------------------------------------------------------------
Pair    | 423.4      | 423.47     | 423.55     |   0.4 | 53.52
Neigh   | 311.94     | 313.97     | 315.99     |  11.4 | 39.68
Comm    | 41.748     | 43.723     | 45.698     |  29.9 |  5.53
Output  | 0.03312    | 0.033141   | 0.033161   |   0.0 |  0.00
Modify  | 8.2867     | 8.2967     | 8.3068     |   0.3 |  1.05
Other   |            | 1.808      |            |       |  0.23

Nlocal:    9826 ave 9831 max 9821 min
Histogram: 1 0 0 0 0 0 0 0 0 1
Nghost:    12613.5 ave 12620 max 12607 min
Histogram: 1 0 0 0 0 0 0 0 0 1
Neighs:    704682 ave 705304 max 704059 min
Histogram: 1 0 0 0 0 0 0 0 0 1

Total # of neighbors = 1409363
Ave neighs/atom = 71.716
Neighbor list builds = 9505
Dangerous builds not checked
Setting up Verlet run ...
  Unit style    : metal
  Current step  : 90000
  Time step     : 0.001
Per MPI rank memory allocation (min/avg/max) = 11.26 | 11.26 | 11.26 Mbytes
Step Temp Press TotEng PotEng Enthalpy 
   90000    2211.8404    375.60926   -62252.427   -67870.703   -62170.136 
   90495     2166.684    992.02078   -62508.628   -68012.203   -62291.979 
Loop time of 42.608 on 2 procs for 495 steps with 19652 atoms

Performance: 1.004 ns/day, 23.910 hours/ns, 11.618 timesteps/s
99.7% CPU use with 2 MPI tasks x no OpenMP threads

MPI task timing breakdown:
Section |  min time  |  avg time  |  max time  |%varavg| %total
---------------------------------------------------------------
Pair    | 23.051     | 23.078     | 23.105     |   0.6 | 54.16
Neigh   | 17.284     | 17.325     | 17.367     |   1.0 | 40.66
Comm    | 1.6415     | 1.7108     | 1.7801     |   5.3 |  4.02
Output  | 9.3937e-05 | 0.00012445 | 0.00015497 |   0.0 |  0.00
Modify  | 0.39152    | 0.39193    | 0.39233    |   0.1 |  0.92
Other   |            | 0.1019     |            |       |  0.24

Nlocal:    9826 ave 9841 max 9811 min
Histogram: 1 0 0 0 0 0 0 0 0 1
Nghost:    12614 ave 12637 max 12591 min
Histogram: 1 0 0 0 0 0 0 0 0 1
Neighs:    706814 ave 708821 max 704806 min
Histogram: 1 0 0 0 0 0 0 0 0 1

Total # of neighbors = 1413627
Ave neighs/atom = 71.933
Neighbor list builds = 495
Dangerous builds not checked
Setting up Verlet run ...
  Unit style    : metal
  Current step  : 90495
  Time step     : 0.001
Per MPI rank memory allocation (min/avg/max) = 11.26 | 11.26 | 11.26 Mbytes
Step Temp Press TotEng PotEng Enthalpy 
   90495     2166.684    992.02078   -62508.628   -68012.203   -62291.979 
  100000    2147.4833    873.89191   -62600.723   -68055.526   -62410.151 
Loop time of 835.644 on 2 procs for 9505 steps with 19652 atoms

Performance: 0.983 ns/day, 24.421 hours/ns, 11.374 timesteps/s
98.0% CPU use with 2 MPI tasks x no OpenMP threads

MPI task timing breakdown:
Section |  min time  |  avg time  |  max time  |%varavg| %total
---------------------------------------------------------------
Pair    | 451.64     | 451.87     | 452.09     |   1.0 | 54.07
Neigh   | 328.28     | 328.56     | 328.84     |   1.5 | 39.32
Comm    | 42.598     | 43.275     | 43.951     |  10.3 |  5.18
Output  | 0.035995   | 0.036014   | 0.036034   |   0.0 |  0.00
Modify  | 9.8352     | 10.007     | 10.179     |   5.4 |  1.20
Other   |            | 1.902      |            |       |  0.23

Nlocal:    9826 ave 9830 max 9822 min
Histogram: 1 0 0 0 0 0 0 0 0 1
Nghost:    12623 ave 12652 max 12594 min
Histogram: 1 0 0 0 0 0 0 0 0 1
Neighs:    707742 ave 707754 max 707731 min
Histogram: 1 0 0 0 0 0 0 0 0 1

Total # of neighbors = 1415485
Ave neighs/atom = 72.0275
Neighbor list builds = 9505
Dangerous builds not checked
Setting up Verlet run ...
  Unit style    : metal
  Current step  : 100000
  Time step     : 0.001
Per MPI rank memory allocation (min/avg/max) = 11.27 | 11.27 | 11.27 Mbytes
Step Temp Press TotEng PotEng Enthalpy 
  100000    2147.4833    873.89191   -62600.723   -68055.526   -62410.151 
  100495    2112.1148    1921.0473   -62816.814   -68181.778    -62399.51 
Loop time of 40.8475 on 2 procs for 495 steps with 19652 atoms

Performance: 1.047 ns/day, 22.922 hours/ns, 12.118 timesteps/s
98.8% CPU use with 2 MPI tasks x no OpenMP threads

MPI task timing breakdown:
Section |  min time  |  avg time  |  max time  |%varavg| %total
---------------------------------------------------------------
Pair    | 22.073     | 22.193     | 22.313     |   2.5 | 54.33
Neigh   | 15.392     | 16.052     | 16.713     |  16.5 | 39.30
Comm    | 1.5892     | 2.1411     | 2.6929     |  37.7 |  5.24
Output  | 9.7036e-05 | 0.00015056 | 0.00020409 |   0.0 |  0.00
Modify  | 0.35781    | 0.36605    | 0.3743     |   1.4 |  0.90
Other   |            | 0.09485    |            |       |  0.23

Nlocal:    9826 ave 9829 max 9823 min
Histogram: 1 0 0 0 0 0 0 0 0 1
Nghost:    12683.5 ave 12693 max 12674 min
Histogram: 1 0 0 0 0 0 0 0 0 1
Neighs:    710656 ave 711462 max 709850 min
Histogram: 1 0 0 0 0 0 0 0 0 1

Total # of neighbors = 1421312
Ave neighs/atom = 72.324
Neighbor list builds = 495
Dangerous builds not checked
Setting up Verlet run ...
  Unit style    : metal
  Current step  : 100495
  Time step     : 0.001
Per MPI rank memory allocation (min/avg/max) = 11.27 | 11.27 | 11.27 Mbytes
Step Temp Press TotEng PotEng Enthalpy 
  100495    2112.1148    1921.0473   -62816.814   -68181.778    -62399.51 
  110000    2113.5646    62.942279    -62942.79   -68311.437   -62929.117 
Loop time of 829.004 on 2 procs for 9505 steps with 19652 atoms

Performance: 0.991 ns/day, 24.227 hours/ns, 11.466 timesteps/s
99.1% CPU use with 2 MPI tasks x no OpenMP threads

MPI task timing breakdown:
Section |  min time  |  avg time  |  max time  |%varavg| %total
---------------------------------------------------------------
Pair    | 449.57     | 451.73     | 453.9      |  10.2 | 54.49
Neigh   | 328.43     | 332.77     | 337.1      |  23.8 | 40.14
Comm    | 32.515     | 34.763     | 37.011     |  38.1 |  4.19
Output  | 0.033906   | 0.033927   | 0.033948   |   0.0 |  0.00
Modify  | 7.7399     | 7.7906     | 7.8412     |   1.8 |  0.94
Other   |            | 1.92       |            |       |  0.23

Nlocal:    9826 ave 9856 max 9796 min
Histogram: 1 0 0 0 0 0 0 0 0 1
Nghost:    12658 ave 12689 max 12627 min
Histogram: 1 0 0 0 0 0 0 0 0 1
Neighs:    710646 ave 714188 max 707105 min
Histogram: 1 0 0 0 0 0 0 0 0 1

Total # of neighbors = 1421293
Ave neighs/atom = 72.3231
Neighbor list builds = 9505
Dangerous builds not checked
Setting up Verlet run ...
  Unit style    : metal
  Current step  : 110000
  Time step     : 0.001
Per MPI rank memory allocation (min/avg/max) = 11.27 | 11.27 | 11.27 Mbytes
Step Temp Press TotEng PotEng Enthalpy 
  110000    2113.5646    62.942279    -62942.79   -68311.437   -62929.117 
  110495    2066.6019   -126.61548   -63178.412   -68427.769   -63205.836 
Loop time of 43.6825 on 2 procs for 495 steps with 19652 atoms

Performance: 0.979 ns/day, 24.513 hours/ns, 11.332 timesteps/s
99.9% CPU use with 2 MPI tasks x no OpenMP threads

MPI task timing breakdown:
Section |  min time  |  avg time  |  max time  |%varavg| %total
---------------------------------------------------------------
Pair    | 23.711     | 23.772     | 23.832     |   1.2 | 54.42
Neigh   | 17.266     | 17.855     | 18.444     |  13.9 | 40.87
Comm    | 1.0048     | 1.5462     | 2.0877     |  43.5 |  3.54
Output  | 0.00011015 | 0.00013316 | 0.00015616 |   0.0 |  0.00
Modify  | 0.39514    | 0.4049     | 0.41465    |   1.5 |  0.93
Other   |            | 0.1045     |            |       |  0.24

Nlocal:    9826 ave 9836 max 9816 min
Histogram: 1 0 0 0 0 0 0 0 0 1
Nghost:    12679 ave 12685 max 12673 min
Histogram: 1 0 0 0 0 0 0 0 0 1
Neighs:    712598 ave 714846 max 710350 min
Histogram: 1 0 0 0 0 0 0 0 0 1

Total # of neighbors = 1425196
Ave neighs/atom = 72.5217
Neighbor list builds = 495
Dangerous builds not checked
Setting up Verlet run ...
  Unit style    : metal
  Current step  : 110495
  Time step     : 0.001
Per MPI rank memory allocation (min/avg/max) = 11.27 | 11.27 | 11.27 Mbytes
Step Temp Press TotEng PotEng Enthalpy 
  110495    2066.6019   -126.61548   -63178.412   -68427.769   -63205.836 
  120000    2048.9179   -1029.2944   -63307.579   -68512.017    -63530.32 
Loop time of 857.895 on 2 procs for 9505 steps with 19652 atoms

Performance: 0.957 ns/day, 25.071 hours/ns, 11.079 timesteps/s
98.1% CPU use with 2 MPI tasks x no OpenMP threads

MPI task timing breakdown:
Section |  min time  |  avg time  |  max time  |%varavg| %total
---------------------------------------------------------------
Pair    | 462.89     | 463.58     | 464.27     |   3.2 | 54.04
Neigh   | 344.19     | 344.45     | 344.7      |   1.4 | 40.15
Comm    | 38.49      | 39.452     | 40.413     |  15.3 |  4.60
Output  | 0.03552    | 0.035556   | 0.035592   |   0.0 |  0.00
Modify  | 8.3906     | 8.4046     | 8.4185     |   0.5 |  0.98
Other   |            | 1.974      |            |       |  0.23

Nlocal:    9826 ave 9826 max 9826 min
Histogram: 2 0 0 0 0 0 0 0 0 0
Nghost:    12636 ave 12642 max 12630 min
Histogram: 1 0 0 0 0 0 0 0 0 1
Neighs:    713365 ave 713457 max 713273 min
Histogram: 1 0 0 0 0 0 0 0 0 1

Total # of neighbors = 1426730
Ave neighs/atom = 72.5997
Neighbor list builds = 9505
Dangerous builds not checked
Setting up Verlet run ...
  Unit style    : metal
  Current step  : 120000
  Time step     : 0.001
Per MPI rank memory allocation (min/avg/max) = 11.27 | 11.27 | 11.27 Mbytes
Step Temp Press TotEng PotEng Enthalpy 
  120000    2048.9179   -1029.2944   -63307.579   -68512.017    -63530.32 
  120495    2020.6003    369.63627   -63516.316   -68648.825   -63436.639 
Loop time of 45.782 on 2 procs for 495 steps with 19652 atoms

Performance: 0.934 ns/day, 25.691 hours/ns, 10.812 timesteps/s
96.1% CPU use with 2 MPI tasks x no OpenMP threads

MPI task timing breakdown:
Section |  min time  |  avg time  |  max time  |%varavg| %total
---------------------------------------------------------------
Pair    | 25.242     | 25.298     | 25.354     |   1.1 | 55.26
Neigh   | 17.594     | 17.654     | 17.713     |   1.4 | 38.56
Comm    | 2.2132     | 2.327      | 2.4409     |   7.5 |  5.08
Output  | 9.9897e-05 | 0.00011897 | 0.00013804 |   0.0 |  0.00
Modify  | 0.39868    | 0.39976    | 0.40084    |   0.2 |  0.87
Other   |            | 0.1034     |            |       |  0.23

Nlocal:    9826 ave 9842 max 9810 min
Histogram: 1 0 0 0 0 0 0 0 0 1
Nghost:    12703.5 ave 12747 max 12660 min
Histogram: 1 0 0 0 0 0 0 0 0 1
Neighs:    716064 ave 718192 max 713937 min
Histogram: 1 0 0 0 0 0 0 0 0 1

Total # of neighbors = 1432129
Ave neighs/atom = 72.8745
Neighbor list builds = 495
Dangerous builds not checked
Setting up Verlet run ...
  Unit style    : metal
  Current step  : 120495
  Time step     : 0.001
Per MPI rank memory allocation (min/avg/max) = 11.27 | 11.27 | 11.27 Mbytes
Step Temp Press TotEng PotEng Enthalpy 
  120495    2020.6003    369.63627   -63516.316   -68648.825   -63436.639 
  130000    2001.7777   -768.29236   -63627.611   -68712.309   -63793.136 
Loop time of 867.784 on 2 procs for 9505 steps with 19652 atoms

Performance: 0.946 ns/day, 25.360 hours/ns, 10.953 timesteps/s
98.7% CPU use with 2 MPI tasks x no OpenMP threads

MPI task timing breakdown:
Section |  min time  |  avg time  |  max time  |%varavg| %total
---------------------------------------------------------------
Pair    | 465.23     | 469.11     | 473        |  17.9 | 54.06
Neigh   | 352.63     | 352.69     | 352.76     |   0.4 | 40.64
Comm    | 31.874     | 35.707     | 39.54      |  64.1 |  4.11
Output  | 0.035732   | 0.035753   | 0.035775   |   0.0 |  0.00
Modify  | 8.1756     | 8.1839     | 8.1923     |   0.3 |  0.94
Other   |            | 2.051      |            |       |  0.24

Nlocal:    9826 ave 9840 max 9812 min
Histogram: 1 0 0 0 0 0 0 0 0 1
Nghost:    12690.5 ave 12696 max 12685 min
Histogram: 1 0 0 0 0 0 0 0 0 1
Neighs:    716674 ave 718988 max 714359 min
Histogram: 1 0 0 0 0 0 0 0 0 1

Total # of neighbors = 1433347
Ave neighs/atom = 72.9364
Neighbor list builds = 9505
Dangerous builds not checked
Setting up Verlet run ...
  Unit style    : metal
  Current step  : 130000
  Time step     : 0.001
Per MPI rank memory allocation (min/avg/max) = 11.28 | 11.28 | 11.28 Mbytes
Step Temp Press TotEng PotEng Enthalpy 
  130000    2001.7777   -768.29236   -63627.611   -68712.309   -63793.136 
  130495     1949.968    373.22511   -63884.954    -68838.05   -63804.834 
Loop time of 44.5277 on 2 procs for 495 steps with 19652 atoms

Performance: 0.960 ns/day, 24.987 hours/ns, 11.117 timesteps/s
97.9% CPU use with 2 MPI tasks x no OpenMP threads

MPI task timing breakdown:
Section |  min time  |  avg time  |  max time  |%varavg| %total
---------------------------------------------------------------
Pair    | 23.778     | 23.876     | 23.974     |   2.0 | 53.62
Neigh   | 17.963     | 18.132     | 18.3       |   4.0 | 40.72
Comm    | 1.9296     | 2.0032     | 2.0768     |   5.2 |  4.50
Output  | 9.3937e-05 | 0.0001229  | 0.00015187 |   0.0 |  0.00
Modify  | 0.40735    | 0.40918    | 0.411      |   0.3 |  0.92
Other   |            | 0.1076     |            |       |  0.24

Nlocal:    9826 ave 9830 max 9822 min
Histogram: 1 0 0 0 0 0 0 0 0 1
Nghost:    12682 ave 12689 max 12675 min
Histogram: 1 0 0 0 0 0 0 0 0 1
Neighs:    719404 ave 720457 max 718351 min
Histogram: 1 0 0 0 0 0 0 0 0 1

Total # of neighbors = 1438808
Ave neighs/atom = 73.2143
Neighbor list builds = 495
Dangerous builds not checked
Setting up Verlet run ...
  Unit style    : metal
  Current step  : 130495
  Time step     : 0.001
Per MPI rank memory allocation (min/avg/max) = 11.28 | 11.28 | 11.28 Mbytes
Step Temp Press TotEng PotEng Enthalpy 
  130495     1949.968    373.22511   -63884.954    -68838.05   -63804.834 
  140000     1937.265   -2474.2224   -63941.388   -68862.218   -64473.567 
Loop time of 867.105 on 2 procs for 9505 steps with 19652 atoms

Performance: 0.947 ns/day, 25.341 hours/ns, 10.962 timesteps/s
98.5% CPU use with 2 MPI tasks x no OpenMP threads

MPI task timing breakdown:
Section |  min time  |  avg time  |  max time  |%varavg| %total
---------------------------------------------------------------
Pair    | 471.92     | 471.96     | 471.99     |   0.2 | 54.43
Neigh   | 355.34     | 355.92     | 356.5      |   3.1 | 41.05
Comm    | 28.301     | 28.85      | 29.399     |  10.2 |  3.33
Output  | 0.035247   | 0.035274   | 0.035301   |   0.0 |  0.00
Modify  | 8.274      | 8.281      | 8.2879     |   0.2 |  0.96
Other   |            | 2.066      |            |       |  0.24

Nlocal:    9826 ave 9856 max 9796 min
Histogram: 1 0 0 0 0 0 0 0 0 1
Nghost:    12656.5 ave 12679 max 12634 min
Histogram: 1 0 0 0 0 0 0 0 0 1
Neighs:    717722 ave 720641 max 714802 min
Histogram: 1 0 0 0 0 0 0 0 0 1

Total # of neighbors = 1435443
Ave neighs/atom = 73.0431
Neighbor list builds = 9505
Dangerous builds not checked
Setting up Verlet run ...
  Unit style    : metal
  Current step  : 140000
  Time step     : 0.001
Per MPI rank memory allocation (min/avg/max) = 11.28 | 11.28 | 11.28 Mbytes
Step Temp Press TotEng PotEng Enthalpy 
  140000     1937.265   -2474.2224   -63941.388   -68862.218   -64473.567 
  140495    1907.2829   -1496.6872   -64168.148   -69012.821   -64488.788 
Loop time of 43.8702 on 2 procs for 495 steps with 19652 atoms

Performance: 0.975 ns/day, 24.619 hours/ns, 11.283 timesteps/s
99.3% CPU use with 2 MPI tasks x no OpenMP threads

MPI task timing breakdown:
Section |  min time  |  avg time  |  max time  |%varavg| %total
---------------------------------------------------------------
Pair    | 23.667     | 23.704     | 23.741     |   0.8 | 54.03
Neigh   | 18.131     | 18.187     | 18.244     |   1.3 | 41.46
Comm    | 1.2023     | 1.2984     | 1.3944     |   8.4 |  2.96
Output  | 9.203e-05  | 0.078346   | 0.1566     |  28.0 |  0.18
Modify  | 0.41404    | 0.41616    | 0.41827    |   0.3 |  0.95
Other   |            | 0.1859     |            |       |  0.42

Nlocal:    9826 ave 9827 max 9825 min
Histogram: 1 0 0 0 0 0 0 0 0 1
Nghost:    12694.5 ave 12695 max 12694 min
Histogram: 1 0 0 0 0 0 0 0 0 1
Neighs:    720407 ave 720436 max 720378 min
Histogram: 1 0 0 0 0 0 0 0 0 1

Total # of neighbors = 1440814
Ave neighs/atom = 73.3164
Neighbor list builds = 495
Dangerous builds not checked
Setting up Verlet run ...
  Unit style    : metal
  Current step  : 140495
  Time step     : 0.001
Per MPI rank memory allocation (min/avg/max) = 11.28 | 11.28 | 11.28 Mbytes
Step Temp Press TotEng PotEng Enthalpy 
  140495    1907.2829   -1496.6872   -64168.148   -69012.821   -64488.788 
  150000    1910.5412    1318.9896   -64308.111    -69161.06    -64027.15 
Loop time of 866.519 on 2 procs for 9505 steps with 19652 atoms

Performance: 0.948 ns/day, 25.323 hours/ns, 10.969 timesteps/s
98.9% CPU use with 2 MPI tasks x no OpenMP threads

MPI task timing breakdown:
Section |  min time  |  avg time  |  max time  |%varavg| %total
---------------------------------------------------------------
Pair    | 469.14     | 471.61     | 474.08     |  11.4 | 54.43
Neigh   | 355.79     | 356.48     | 357.17     |   3.6 | 41.14
Comm    | 25.861     | 27.643     | 29.426     |  33.9 |  3.19
Output  | 0.035323   | 0.035345   | 0.035367   |   0.0 |  0.00
Modify  | 8.6693     | 8.6713     | 8.6734     |   0.1 |  1.00
Other   |            | 2.074      |            |       |  0.24

Nlocal:    9826 ave 9850 max 9802 min
Histogram: 1 0 0 0 0 0 0 0 0 1
Nghost:    12715.5 ave 12741 max 12690 min
Histogram: 1 0 0 0 0 0 0 0 0 1
Neighs:    724844 ave 727071 max 722616 min
Histogram: 1 0 0 0 0 0 0 0 0 1

Total # of neighbors = 1449687
Ave neighs/atom = 73.7679
Neighbor list builds = 9505
Dangerous builds not checked
Setting up Verlet run ...
  Unit style    : metal
  Current step  : 150000
  Time step     : 0.001
Per MPI rank memory allocation (min/avg/max) = 11.28 | 11.28 | 11.28 Mbytes
Step Temp Press TotEng PotEng Enthalpy 
  150000    1910.5412    1318.9896   -64308.111    -69161.06    -64027.15 
  150495    1861.6955    365.70572   -64524.895   -69253.771   -64447.048 
Loop time of 43.4657 on 2 procs for 495 steps with 19652 atoms

Performance: 0.984 ns/day, 24.392 hours/ns, 11.388 timesteps/s
99.9% CPU use with 2 MPI tasks x no OpenMP threads

MPI task timing breakdown:
Section |  min time  |  avg time  |  max time  |%varavg| %total
---------------------------------------------------------------
Pair    | 23.71      | 23.736     | 23.763     |   0.5 | 54.61
Neigh   | 17.995     | 18.161     | 18.326     |   3.9 | 41.78
Comm    | 0.90688    | 1.0507     | 1.1945     |  14.0 |  2.42
Output  | 0.00011706 | 0.0001545  | 0.00019193 |   0.0 |  0.00
Modify  | 0.40627    | 0.40964    | 0.41301    |   0.5 |  0.94
Other   |            | 0.1084     |            |       |  0.25

Nlocal:    9826 ave 9827 max 9825 min
Histogram: 1 0 0 0 0 0 0 0 0 1
Nghost:    12758 ave 12783 max 12733 min
Histogram: 1 0 0 0 0 0 0 0 0 1
Neighs:    725364 ave 725885 max 724844 min
Histogram: 1 0 0 0 0 0 0 0 0 1

Total # of neighbors = 1450729
Ave neighs/atom = 73.8209
Neighbor list builds = 495
Dangerous builds not checked
Setting up Verlet run ...
  Unit style    : metal
  Current step  : 150495
  Time step     : 0.001
Per MPI rank memory allocation (min/avg/max) = 11.28 | 11.28 | 11.28 Mbytes
Step Temp Press TotEng PotEng Enthalpy 
  150495    1861.6955    365.70572   -64524.895   -69253.771   -64447.048 
  160000    1843.0087   -2055.2573   -64685.368   -69366.778   -65122.807 
Loop time of 870.07 on 2 procs for 9505 steps with 19652 atoms

Performance: 0.944 ns/day, 25.427 hours/ns, 10.924 timesteps/s
98.5% CPU use with 2 MPI tasks x no OpenMP threads

MPI task timing breakdown:
Section |  min time  |  avg time  |  max time  |%varavg| %total
---------------------------------------------------------------
Pair    | 473.8      | 474.31     | 474.82     |   2.4 | 54.51
Neigh   | 355.04     | 355.79     | 356.54     |   4.0 | 40.89
Comm    | 28.161     | 29.632     | 31.104     |  27.0 |  3.41
Output  | 0.034548   | 0.034628   | 0.034708   |   0.0 |  0.00
Modify  | 8.0201     | 8.2273     | 8.4345     |   7.2 |  0.95
Other   |            | 2.077      |            |       |  0.24

Nlocal:    9826 ave 9826 max 9826 min
Histogram: 2 0 0 0 0 0 0 0 0 0
Nghost:    12771 ave 12772 max 12770 min
Histogram: 1 0 0 0 0 0 0 0 0 1
Neighs:    725384 ave 726387 max 724381 min
Histogram: 1 0 0 0 0 0 0 0 0 1

Total # of neighbors = 1450768
Ave neighs/atom = 73.8229
Neighbor list builds = 9505
Dangerous builds not checked
Setting up Verlet run ...
  Unit style    : metal
  Current step  : 160000
  Time step     : 0.001
Per MPI rank memory allocation (min/avg/max) = 11.29 | 11.29 | 11.29 Mbytes
Step Temp Press TotEng PotEng Enthalpy 
  160000    1843.0087   -2055.2573   -64685.368   -69366.778   -65122.807 
  160495    1804.8199    525.77089   -64910.569   -69494.976   -64799.149 
Loop time of 44.3012 on 2 procs for 495 steps with 19652 atoms

Performance: 0.965 ns/day, 24.860 hours/ns, 11.174 timesteps/s
98.5% CPU use with 2 MPI tasks x no OpenMP threads

MPI task timing breakdown:
Section |  min time  |  avg time  |  max time  |%varavg| %total
---------------------------------------------------------------
Pair    | 23.545     | 23.616     | 23.688     |   1.5 | 53.31
Neigh   | 18.106     | 18.244     | 18.382     |   3.2 | 41.18
Comm    | 1.8516     | 1.9202     | 1.9889     |   5.0 |  4.33
Output  | 0.00010109 | 0.00013649 | 0.0001719  |   0.0 |  0.00
Modify  | 0.40962    | 0.41167    | 0.41372    |   0.3 |  0.93
Other   |            | 0.1085     |            |       |  0.24

Nlocal:    9826 ave 9827 max 9825 min
Histogram: 1 0 0 0 0 0 0 0 0 1
Nghost:    12823 ave 12831 max 12815 min
Histogram: 1 0 0 0 0 0 0 0 0 1
Neighs:    728316 ave 728522 max 728110 min
Histogram: 1 0 0 0 0 0 0 0 0 1

Total # of neighbors = 1456632
Ave neighs/atom = 74.1213
Neighbor list builds = 495
Dangerous builds not checked
Setting up Verlet run ...
  Unit style    : metal
  Current step  : 160495
  Time step     : 0.001
Per MPI rank memory allocation (min/avg/max) = 11.29 | 11.29 | 11.29 Mbytes
Step Temp Press TotEng PotEng Enthalpy 
  160495    1804.8199    525.77089   -64910.569   -69494.976   -64799.149 
  170000    1794.1724    87.181103   -65014.844   -69572.206   -64996.406 
Loop time of 872.313 on 2 procs for 9505 steps with 19652 atoms

Performance: 0.941 ns/day, 25.493 hours/ns, 10.896 timesteps/s
98.5% CPU use with 2 MPI tasks x no OpenMP threads

MPI task timing breakdown:
Section |  min time  |  avg time  |  max time  |%varavg| %total
---------------------------------------------------------------
Pair    | 473.92     | 474.25     | 474.59     |   1.5 | 54.37
Neigh   | 355.75     | 356.35     | 356.95     |   3.2 | 40.85
Comm    | 29.357     | 30.292     | 31.228     |  17.0 |  3.47
Output  | 0.28141    | 0.28145    | 0.28149    |   0.0 |  0.03
Modify  | 9.0583     | 9.0621     | 9.0658     |   0.1 |  1.04
Other   |            | 2.072      |            |       |  0.24

Nlocal:    9826 ave 9832 max 9820 min
Histogram: 1 0 0 0 0 0 0 0 0 1
Nghost:    12796.5 ave 12807 max 12786 min
Histogram: 1 0 0 0 0 0 0 0 0 1
Neighs:    729998 ave 731730 max 728267 min
Histogram: 1 0 0 0 0 0 0 0 0 1

Total # of neighbors = 1459997
Ave neighs/atom = 74.2925
Neighbor list builds = 9505
Dangerous builds not checked
Setting up Verlet run ...
  Unit style    : metal
  Current step  : 170000
  Time step     : 0.001
Per MPI rank memory allocation (min/avg/max) = 11.29 | 11.29 | 11.29 Mbytes
Step Temp Press TotEng PotEng Enthalpy 
  170000    1794.1724    87.181103   -65014.844   -69572.206   -64996.406 
  170495     1765.638    1130.1006   -65189.768   -69674.649   -64951.375 
Loop time of 45.5887 on 2 procs for 495 steps with 19652 atoms

Performance: 0.938 ns/day, 25.583 hours/ns, 10.858 timesteps/s
97.1% CPU use with 2 MPI tasks x no OpenMP threads

MPI task timing breakdown:
Section |  min time  |  avg time  |  max time  |%varavg| %total
---------------------------------------------------------------
Pair    | 23.541     | 23.697     | 23.853     |   3.2 | 51.98
Neigh   | 17.797     | 17.817     | 17.836     |   0.5 | 39.08
Comm    | 3.1632     | 3.3391     | 3.515      |   9.6 |  7.32
Output  | 8.4162e-05 | 0.00013149 | 0.00017881 |   0.0 |  0.00
Modify  | 0.62865    | 0.62965    | 0.63065    |   0.1 |  1.38
Other   |            | 0.106      |            |       |  0.23

Nlocal:    9826 ave 9828 max 9824 min
Histogram: 1 0 0 0 0 0 0 0 0 1
Nghost:    12816.5 ave 12817 max 12816 min
Histogram: 1 0 0 0 0 0 0 0 0 1
Neighs:    731410 ave 731618 max 731202 min
Histogram: 1 0 0 0 0 0 0 0 0 1

Total # of neighbors = 1462820
Ave neighs/atom = 74.4362
Neighbor list builds = 495
Dangerous builds not checked
Setting up Verlet run ...
  Unit style    : metal
  Current step  : 170495
  Time step     : 0.001
Per MPI rank memory allocation (min/avg/max) = 11.29 | 11.29 | 11.29 Mbytes
Step Temp Press TotEng PotEng Enthalpy 
  170495     1765.638    1130.1006   -65189.768   -69674.649   -64951.375 
  180000    1752.3026    459.61192   -65329.432   -69780.441   -65232.607 
Loop time of 871.16 on 2 procs for 9505 steps with 19652 atoms

Performance: 0.943 ns/day, 25.459 hours/ns, 10.911 timesteps/s
98.2% CPU use with 2 MPI tasks x no OpenMP threads

MPI task timing breakdown:
Section |  min time  |  avg time  |  max time  |%varavg| %total
---------------------------------------------------------------
Pair    | 468.56     | 469.68     | 470.79     |   5.1 | 53.91
Neigh   | 354.4      | 354.45     | 354.51     |   0.3 | 40.69
Comm    | 33.519     | 35.804     | 38.089     |  38.2 |  4.11
Output  | 0.035559   | 0.035587   | 0.035615   |   0.0 |  0.00
Modify  | 7.8882     | 9.1189     | 10.35      |  40.8 |  1.05
Other   |            | 2.073      |            |       |  0.24

Nlocal:    9826 ave 9829 max 9823 min
Histogram: 1 0 0 0 0 0 0 0 0 1
Nghost:    12799 ave 12801 max 12797 min
Histogram: 1 0 0 0 0 0 0 0 0 1
Neighs:    732510 ave 732958 max 732063 min
Histogram: 1 0 0 0 0 0 0 0 0 1

Total # of neighbors = 1465021
Ave neighs/atom = 74.5482
Neighbor list builds = 9505
Dangerous builds not checked
Setting up Verlet run ...
  Unit style    : metal
  Current step  : 180000
  Time step     : 0.001
Per MPI rank memory allocation (min/avg/max) = 11.29 | 11.29 | 11.29 Mbytes
Step Temp Press TotEng PotEng Enthalpy 
  180000    1752.3026    459.61192   -65329.432   -69780.441   -65232.607 
  180495    1718.8048   -125.24476   -65502.761   -69868.682   -65529.101 
Loop time of 44.2796 on 2 procs for 495 steps with 19652 atoms

Performance: 0.966 ns/day, 24.848 hours/ns, 11.179 timesteps/s
98.8% CPU use with 2 MPI tasks x no OpenMP threads

MPI task timing breakdown:
Section |  min time  |  avg time  |  max time  |%varavg| %total
---------------------------------------------------------------
Pair    | 23.949     | 23.971     | 23.993     |   0.5 | 54.14
Neigh   | 18.016     | 18.148     | 18.28      |   3.1 | 40.98
Comm    | 1.4628     | 1.5761     | 1.6894     |   9.0 |  3.56
Output  | 8.6069e-05 | 0.00011396 | 0.00014186 |   0.0 |  0.00
Modify  | 0.47432    | 0.47583    | 0.47735    |   0.2 |  1.07
Other   |            | 0.109      |            |       |  0.25

Nlocal:    9826 ave 9843 max 9809 min
Histogram: 1 0 0 0 0 0 0 0 0 1
Nghost:    12857.5 ave 12891 max 12824 min
Histogram: 1 0 0 0 0 0 0 0 0 1
Neighs:    733707 ave 735427 max 731987 min
Histogram: 1 0 0 0 0 0 0 0 0 1

Total # of neighbors = 1467414
Ave neighs/atom = 74.67
Neighbor list builds = 495
Dangerous builds not checked
Setting up Verlet run ...
  Unit style    : metal
  Current step  : 180495
  Time step     : 0.001
Per MPI rank memory allocation (min/avg/max) = 11.29 | 11.29 | 11.29 Mbytes
Step Temp Press TotEng PotEng Enthalpy 
  180495    1718.8048   -125.24476   -65502.761   -69868.682   -65529.101 
  190000    1689.4785   -1904.7591   -65651.547   -69942.976   -66052.319 
Loop time of 866.308 on 2 procs for 9505 steps with 19652 atoms

Performance: 0.948 ns/day, 25.317 hours/ns, 10.972 timesteps/s
98.7% CPU use with 2 MPI tasks x no OpenMP threads

MPI task timing breakdown:
Section |  min time  |  avg time  |  max time  |%varavg| %total
---------------------------------------------------------------
Pair    | 468.62     | 470.39     | 472.15     |   8.2 | 54.30
Neigh   | 354.37     | 354.66     | 354.94     |   1.5 | 40.94
Comm    | 28.454     | 30.438     | 32.422     |  36.0 |  3.51
Output  | 0.0355     | 0.035516   | 0.035531   |   0.0 |  0.00
Modify  | 8.6424     | 8.7157     | 8.7889     |   2.5 |  1.01
Other   |            | 2.077      |            |       |  0.24

Nlocal:    9826 ave 9834 max 9818 min
Histogram: 1 0 0 0 0 0 0 0 0 1
Nghost:    12824 ave 12832 max 12816 min
Histogram: 1 0 0 0 0 0 0 0 0 1
Neighs:    733858 ave 733974 max 733742 min
Histogram: 1 0 0 0 0 0 0 0 0 1

Total # of neighbors = 1467716
Ave neighs/atom = 74.6853
Neighbor list builds = 9505
Dangerous builds not checked
Setting up Verlet run ...
  Unit style    : metal
  Current step  : 190000
  Time step     : 0.001
Per MPI rank memory allocation (min/avg/max) = 11.29 | 11.29 | 11.29 Mbytes
Step Temp Press TotEng PotEng Enthalpy 
  190000    1689.4785   -1904.7591   -65651.547   -69942.976   -66052.319 
  190495    1665.7746   -959.71969   -65862.271    -70093.49   -66063.469 
Loop time of 43.2214 on 2 procs for 495 steps with 19652 atoms

Performance: 0.990 ns/day, 24.254 hours/ns, 11.453 timesteps/s
99.9% CPU use with 2 MPI tasks x no OpenMP threads

MPI task timing breakdown:
Section |  min time  |  avg time  |  max time  |%varavg| %total
---------------------------------------------------------------
Pair    | 23.469     | 23.555     | 23.64      |   1.8 | 54.50
Neigh   | 18.03      | 18.045     | 18.06      |   0.4 | 41.75
Comm    | 0.98147    | 1.0824     | 1.1833     |   9.7 |  2.50
Output  | 7.9155e-05 | 0.00011313 | 0.0001471  |   0.0 |  0.00
Modify  | 0.43133    | 0.43155    | 0.43177    |   0.0 |  1.00
Other   |            | 0.1078     |            |       |  0.25

Nlocal:    9826 ave 9829 max 9823 min
Histogram: 1 0 0 0 0 0 0 0 0 1
Nghost:    12804 ave 12816 max 12792 min
Histogram: 1 0 0 0 0 0 0 0 0 1
Neighs:    736214 ave 736853 max 735574 min
Histogram: 1 0 0 0 0 0 0 0 0 1

Total # of neighbors = 1472427
Ave neighs/atom = 74.925
Neighbor list builds = 495
Dangerous builds not checked
Setting up Verlet run ...
  Unit style    : metal
  Current step  : 190495
  Time step     : 0.001
Per MPI rank memory allocation (min/avg/max) = 11.29 | 11.29 | 11.29 Mbytes
Step Temp Press TotEng PotEng Enthalpy 
  190495    1665.7746   -959.71969   -65862.271    -70093.49   -66063.469 
  200000    1643.5152   -1743.5931   -65970.985   -70145.663   -66336.318 
Loop time of 865.502 on 2 procs for 9505 steps with 19652 atoms

Performance: 0.949 ns/day, 25.294 hours/ns, 10.982 timesteps/s
98.8% CPU use with 2 MPI tasks x no OpenMP threads

MPI task timing breakdown:
Section |  min time  |  avg time  |  max time  |%varavg| %total
---------------------------------------------------------------
Pair    | 475.21     | 475.23     | 475.24     |   0.1 | 54.91
Neigh   | 351.57     | 352.99     | 354.41     |   7.5 | 40.78
Comm    | 25.668     | 27.099     | 28.53      |  27.5 |  3.13
Output  | 0.03588    | 0.035906   | 0.035933   |   0.0 |  0.00
Modify  | 8.0627     | 8.0806     | 8.0985     |   0.6 |  0.93
Other   |            | 2.071      |            |       |  0.24

Nlocal:    9826 ave 9832 max 9820 min
Histogram: 1 0 0 0 0 0 0 0 0 1
Nghost:    12834.5 ave 12839 max 12830 min
Histogram: 1 0 0 0 0 0 0 0 0 1
Neighs:    736504 ave 737745 max 735264 min
Histogram: 1 0 0 0 0 0 0 0 0 1

Total # of neighbors = 1473009
Ave neighs/atom = 74.9547
Neighbor list builds = 9505
Dangerous builds not checked
Setting up Verlet run ...
  Unit style    : metal
  Current step  : 200000
  Time step     : 0.001
Per MPI rank memory allocation (min/avg/max) = 11.29 | 11.29 | 11.29 Mbytes
Step Temp Press TotEng PotEng Enthalpy 
  200000    1643.5152   -1743.5931   -65970.985   -70145.663   -66336.318 
  200495     1606.569   -1144.7011   -66205.749   -70286.581   -66444.812 
Loop time of 44.0405 on 2 procs for 495 steps with 19652 atoms

Performance: 0.971 ns/day, 24.714 hours/ns, 11.240 timesteps/s
97.7% CPU use with 2 MPI tasks x no OpenMP threads

MPI task timing breakdown:
Section |  min time  |  avg time  |  max time  |%varavg| %total
---------------------------------------------------------------
Pair    | 24.284     | 24.423     | 24.563     |   2.8 | 55.46
Neigh   | 17.676     | 17.817     | 17.958     |   3.3 | 40.46
Comm    | 1.2851     | 1.287      | 1.2889     |   0.2 |  2.92
Output  | 8.2016e-05 | 0.00013399 | 0.00018597 |   0.0 |  0.00
Modify  | 0.40557    | 0.40583    | 0.40608    |   0.0 |  0.92
Other   |            | 0.1072     |            |       |  0.24

Nlocal:    9826 ave 9844 max 9808 min
Histogram: 1 0 0 0 0 0 0 0 0 1
Nghost:    12832 ave 12855 max 12809 min
Histogram: 1 0 0 0 0 0 0 0 0 1
Neighs:    739076 ave 740741 max 737412 min
Histogram: 1 0 0 0 0 0 0 0 0 1

Total # of neighbors = 1478153
Ave neighs/atom = 75.2164
Neighbor list builds = 495
Dangerous builds not checked
Setting up Verlet run ...
  Unit style    : metal
  Current step  : 200495
  Time step     : 0.001
Per MPI rank memory allocation (min/avg/max) = 11.29 | 11.29 | 11.29 Mbytes
Step Temp Press TotEng PotEng Enthalpy 
  200495     1606.569   -1144.7011   -66205.749   -70286.581   -66444.812 
  210000    1604.6393    47.101183    -66294.03    -70369.96   -66284.218 
Loop time of 875.437 on 2 procs for 9505 steps with 19652 atoms

Performance: 0.938 ns/day, 25.584 hours/ns, 10.857 timesteps/s
98.0% CPU use with 2 MPI tasks x no OpenMP threads

MPI task timing breakdown:
Section |  min time  |  avg time  |  max time  |%varavg| %total
---------------------------------------------------------------
Pair    | 477.83     | 480.14     | 482.45     |  10.5 | 54.85
Neigh   | 353.15     | 353.66     | 354.17     |   2.7 | 40.40
Comm    | 28.78      | 31.61      | 34.441     |  50.3 |  3.61
Output  | 0.035279   | 0.03536    | 0.035441   |   0.0 |  0.00
Modify  | 7.9091     | 7.9156     | 7.9221     |   0.2 |  0.90
Other   |            | 2.078      |            |       |  0.24

Nlocal:    9826 ave 9849 max 9803 min
Histogram: 1 0 0 0 0 0 0 0 0 1
Nghost:    12910.5 ave 12940 max 12881 min
Histogram: 1 0 0 0 0 0 0 0 0 1
Neighs:    740554 ave 744125 max 736983 min
Histogram: 1 0 0 0 0 0 0 0 0 1

Total # of neighbors = 1481108
Ave neighs/atom = 75.3668
Neighbor list builds = 9505
Dangerous builds not checked
Setting up Verlet run ...
  Unit style    : metal
  Current step  : 210000
  Time step     : 0.001
Per MPI rank memory allocation (min/avg/max) = 11.29 | 11.29 | 11.29 Mbytes
Step Temp Press TotEng PotEng Enthalpy 
  210000    1604.6393    47.101183    -66294.03    -70369.96   -66284.218 
  210495    1561.5417    334.58916   -66559.143   -70525.602   -66489.676 
Loop time of 45.3153 on 2 procs for 495 steps with 19652 atoms

Performance: 0.944 ns/day, 25.429 hours/ns, 10.923 timesteps/s
98.8% CPU use with 2 MPI tasks x no OpenMP threads

MPI task timing breakdown:
Section |  min time  |  avg time  |  max time  |%varavg| %total
---------------------------------------------------------------
Pair    | 25.229     | 25.269     | 25.309     |   0.8 | 55.76
Neigh   | 17.973     | 18.238     | 18.503     |   6.2 | 40.25
Comm    | 1.0557     | 1.284      | 1.5123     |  20.1 |  2.83
Output  | 9.0837e-05 | 0.00013542 | 0.00018001 |   0.0 |  0.00
Modify  | 0.41359    | 0.41472    | 0.41586    |   0.2 |  0.92
Other   |            | 0.1091     |            |       |  0.24

Nlocal:    9826 ave 9853 max 9799 min
Histogram: 1 0 0 0 0 0 0 0 0 1
Nghost:    12878.5 ave 12934 max 12823 min
Histogram: 1 0 0 0 0 0 0 0 0 1
Neighs:    743065 ave 746715 max 739415 min
Histogram: 1 0 0 0 0 0 0 0 0 1

Total # of neighbors = 1486130
Ave neighs/atom = 75.6223
Neighbor list builds = 495
Dangerous builds not checked
Setting up Verlet run ...
  Unit style    : metal
  Current step  : 210495
  Time step     : 0.001
Per MPI rank memory allocation (min/avg/max) = 11.29 | 11.29 | 11.29 Mbytes
Step Temp Press TotEng PotEng Enthalpy 
  210495    1561.5417    334.58916   -66559.143   -70525.602   -66489.676 
  220000    1546.0312    1218.1847   -66715.151   -70642.211   -66462.921 
Loop time of 862.243 on 2 procs for 9505 steps with 19652 atoms

Performance: 0.952 ns/day, 25.199 hours/ns, 11.024 timesteps/s
98.8% CPU use with 2 MPI tasks x no OpenMP threads

MPI task timing breakdown:
Section |  min time  |  avg time  |  max time  |%varavg| %total
---------------------------------------------------------------
Pair    | 472.33     | 472.95     | 473.58     |   2.9 | 54.85
Neigh   | 351.39     | 352.06     | 352.74     |   3.6 | 40.83
Comm    | 24.904     | 26.226     | 27.549     |  25.8 |  3.04
Output  | 0.036236   | 0.036311   | 0.036386   |   0.0 |  0.00
Modify  | 8.861      | 8.8835     | 8.906      |   0.8 |  1.03
Other   |            | 2.078      |            |       |  0.24

Nlocal:    9826 ave 9838 max 9814 min
Histogram: 1 0 0 0 0 0 0 0 0 1
Nghost:    12962 ave 12996 max 12928 min
Histogram: 1 0 0 0 0 0 0 0 0 1
Neighs:    744974 ave 745067 max 744881 min
Histogram: 1 0 0 0 0 0 0 0 0 1

Total # of neighbors = 1489948
Ave neighs/atom = 75.8166
Neighbor list builds = 9505
Dangerous builds not checked
Setting up Verlet run ...
  Unit style    : metal
  Current step  : 220000
  Time step     : 0.001
Per MPI rank memory allocation (min/avg/max) = 11.3 | 11.3 | 11.3 Mbytes
Step Temp Press TotEng PotEng Enthalpy 
  220000    1546.0312    1218.1847   -66715.151   -70642.211   -66462.921 
  220495    1501.6572   -542.67338   -66931.339   -70745.685   -67043.617 
Loop time of 43.5339 on 2 procs for 495 steps with 19652 atoms

Performance: 0.982 ns/day, 24.430 hours/ns, 11.370 timesteps/s
99.8% CPU use with 2 MPI tasks x no OpenMP threads

MPI task timing breakdown:
Section |  min time  |  avg time  |  max time  |%varavg| %total
---------------------------------------------------------------
Pair    | 23.843     | 23.883     | 23.923     |   0.8 | 54.86
Neigh   | 17.912     | 17.994     | 18.076     |   1.9 | 41.33
Comm    | 1.0983     | 1.1414     | 1.1846     |   4.0 |  2.62
Output  | 7.6056e-05 | 0.00012159 | 0.00016713 |   0.0 |  0.00
Modify  | 0.40708    | 0.4076     | 0.40812    |   0.1 |  0.94
Other   |            | 0.1076     |            |       |  0.25

Nlocal:    9826 ave 9845 max 9807 min
Histogram: 1 0 0 0 0 0 0 0 0 1
Nghost:    12924.5 ave 12932 max 12917 min
Histogram: 1 0 0 0 0 0 0 0 0 1
Neighs:    745654 ave 747419 max 743890 min
Histogram: 1 0 0 0 0 0 0 0 0 1

Total # of neighbors = 1491309
Ave neighs/atom = 75.8859
Neighbor list builds = 495
Dangerous builds not checked
Setting up Verlet run ...
  Unit style    : metal
  Current step  : 220495
  Time step     : 0.001
Per MPI rank memory allocation (min/avg/max) = 11.3 | 11.3 | 11.3 Mbytes
Step Temp Press TotEng PotEng Enthalpy 
  220495    1501.6572   -542.67338   -66931.339   -70745.685   -67043.617 
  230000    1511.6263    -209.0105   -67033.626   -70873.295   -67076.771 
Loop time of 866.563 on 2 procs for 9505 steps with 19652 atoms

Performance: 0.948 ns/day, 25.325 hours/ns, 10.969 timesteps/s
98.7% CPU use with 2 MPI tasks x no OpenMP threads

MPI task timing breakdown:
Section |  min time  |  avg time  |  max time  |%varavg| %total
---------------------------------------------------------------
Pair    | 475.92     | 477.26     | 478.6      |   6.1 | 55.08
Neigh   | 351.04     | 351.97     | 352.9      |   4.9 | 40.62
Comm    | 23.926     | 26.208     | 28.49      |  44.6 |  3.02
Output  | 0.035184   | 0.035214   | 0.035245   |   0.0 |  0.00
Modify  | 8.9945     | 9.0115     | 9.0286     |   0.6 |  1.04
Other   |            | 2.078      |            |       |  0.24

Nlocal:    9826 ave 9830 max 9822 min
Histogram: 1 0 0 0 0 0 0 0 0 1
Nghost:    12951 ave 12960 max 12942 min
Histogram: 1 0 0 0 0 0 0 0 0 1
Neighs:    747318 ave 747874 max 746761 min
Histogram: 1 0 0 0 0 0 0 0 0 1

Total # of neighbors = 1494635
Ave neighs/atom = 76.0551
Neighbor list builds = 9505
Dangerous builds not checked
Setting up Verlet run ...
  Unit style    : metal
  Current step  : 230000
  Time step     : 0.001
Per MPI rank memory allocation (min/avg/max) = 11.3 | 11.3 | 11.3 Mbytes
Step Temp Press TotEng PotEng Enthalpy 
  230000    1511.6263    -209.0105   -67033.626   -70873.295   -67076.771 
  230495    1461.5119   -794.76414   -67257.134   -70969.508   -67420.919 
Loop time of 45.5064 on 2 procs for 495 steps with 19652 atoms

Performance: 0.940 ns/day, 25.537 hours/ns, 10.878 timesteps/s
97.7% CPU use with 2 MPI tasks x no OpenMP threads

MPI task timing breakdown:
Section |  min time  |  avg time  |  max time  |%varavg| %total
---------------------------------------------------------------
Pair    | 25.451     | 25.505     | 25.558     |   1.1 | 56.05
Neigh   | 17.886     | 17.961     | 18.035     |   1.8 | 39.47
Comm    | 1.3911     | 1.5203     | 1.6494     |  10.5 |  3.34
Output  | 9.5129e-05 | 0.00012457 | 0.00015402 |   0.0 |  0.00
Modify  | 0.41077    | 0.41109    | 0.41142    |   0.1 |  0.90
Other   |            | 0.1094     |            |       |  0.24

Nlocal:    9826 ave 9844 max 9808 min
Histogram: 1 0 0 0 0 0 0 0 0 1
Nghost:    12944 ave 12945 max 12943 min
Histogram: 1 0 0 0 0 0 0 0 0 1
Neighs:    748580 ave 750146 max 747013 min
Histogram: 1 0 0 0 0 0 0 0 0 1

Total # of neighbors = 1497159
Ave neighs/atom = 76.1835
Neighbor list builds = 495
Dangerous builds not checked
Setting up Verlet run ...
  Unit style    : metal
  Current step  : 230495
  Time step     : 0.001
Per MPI rank memory allocation (min/avg/max) = 11.3 | 11.3 | 11.3 Mbytes
Step Temp Press TotEng PotEng Enthalpy 
  230495    1461.5119   -794.76414   -67257.134   -70969.508   -67420.919 
  240000    1454.0159    2231.2106   -67435.207    -71128.54   -66977.773 
Loop time of 957.914 on 2 procs for 9505 steps with 19652 atoms

Performance: 0.857 ns/day, 27.994 hours/ns, 9.923 timesteps/s
95.5% CPU use with 2 MPI tasks x no OpenMP threads

MPI task timing breakdown:
Section |  min time  |  avg time  |  max time  |%varavg| %total
---------------------------------------------------------------
Pair    | 524.38     | 526.07     | 527.77     |   7.4 | 54.92
Neigh   | 370.28     | 370.65     | 371.02     |   1.9 | 38.69
Comm    | 48.4       | 49.809     | 51.219     |  20.0 |  5.20
Output  | 0.20538    | 0.20741    | 0.20943    |   0.4 |  0.02
Modify  | 8.8568     | 8.9379     | 9.0189     |   2.7 |  0.93
Other   |            | 2.235      |            |       |  0.23

Nlocal:    9826 ave 9858 max 9794 min
Histogram: 1 0 0 0 0 0 0 0 0 1
Nghost:    12937 ave 12950 max 12924 min
Histogram: 1 0 0 0 0 0 0 0 0 1
Neighs:    752077 ave 755221 max 748933 min
Histogram: 1 0 0 0 0 0 0 0 0 1

Total # of neighbors = 1504154
Ave neighs/atom = 76.5395
Neighbor list builds = 9505
Dangerous builds not checked
Setting up Verlet run ...
  Unit style    : metal
  Current step  : 240000
  Time step     : 0.001
Per MPI rank memory allocation (min/avg/max) = 11.3 | 11.3 | 11.3 Mbytes
Step Temp Press TotEng PotEng Enthalpy 
  240000    1454.0159    2231.2106   -67435.207    -71128.54   -66977.773 
  240495    1409.1214   -753.43144   -67579.405   -71158.702   -67734.097 
Loop time of 62.723 on 2 procs for 495 steps with 19652 atoms

Performance: 0.682 ns/day, 35.198 hours/ns, 7.892 timesteps/s
81.9% CPU use with 2 MPI tasks x no OpenMP threads

MPI task timing breakdown:
Section |  min time  |  avg time  |  max time  |%varavg| %total
---------------------------------------------------------------
Pair    | 35.266     | 35.502     | 35.738     |   4.0 | 56.60
Neigh   | 22.551     | 22.878     | 23.206     |   6.8 | 36.48
Comm    | 3.485      | 3.6047     | 3.7244     |   6.3 |  5.75
Output  | 9.2983e-05 | 0.00012052 | 0.00014806 |   0.0 |  0.00
Modify  | 0.58437    | 0.60238    | 0.62039    |   2.3 |  0.96
Other   |            | 0.1357     |            |       |  0.22

Nlocal:    9826 ave 9867 max 9785 min
Histogram: 1 0 0 0 0 0 0 0 0 1
Nghost:    12926 ave 12927 max 12925 min
Histogram: 1 0 0 0 0 0 0 0 0 1
Neighs:    751200 ave 754841 max 747558 min
Histogram: 1 0 0 0 0 0 0 0 0 1

Total # of neighbors = 1502399
Ave neighs/atom = 76.4502
Neighbor list builds = 495
Dangerous builds not checked
Setting up Verlet run ...
  Unit style    : metal
  Current step  : 240495
  Time step     : 0.001
Per MPI rank memory allocation (min/avg/max) = 11.3 | 11.3 | 11.3 Mbytes
Step Temp Press TotEng PotEng Enthalpy 
  240495    1409.1214   -753.43144   -67579.405   -71158.702   -67734.097 
  250000    1391.8855     737.0996   -67823.313   -71358.829     -67672.6 
Loop time of 1210.14 on 2 procs for 9505 steps with 19652 atoms

Performance: 0.679 ns/day, 35.366 hours/ns, 7.854 timesteps/s
84.0% CPU use with 2 MPI tasks x no OpenMP threads

MPI task timing breakdown:
Section |  min time  |  avg time  |  max time  |%varavg| %total
---------------------------------------------------------------
Pair    | 677.4      | 677.91     | 678.42     |   2.0 | 56.02
Neigh   | 436.19     | 437.01     | 437.83     |   3.9 | 36.11
Comm    | 78.924     | 80.331     | 81.738     |  15.7 |  6.64
Output  | 0.036461   | 0.036544   | 0.036626   |   0.0 |  0.00
Modify  | 12.218     | 12.241     | 12.263     |   0.6 |  1.01
Other   |            | 2.614      |            |       |  0.22

Nlocal:    9826 ave 9846 max 9806 min
Histogram: 1 0 0 0 0 0 0 0 0 1
Nghost:    12957.5 ave 13001 max 12914 min
Histogram: 1 0 0 0 0 0 0 0 0 1
Neighs:    753992 ave 756429 max 751556 min
Histogram: 1 0 0 0 0 0 0 0 0 1

Total # of neighbors = 1507985
Ave neighs/atom = 76.7344
Neighbor list builds = 9505
Dangerous builds not checked
Setting up Verlet run ...
  Unit style    : metal
  Current step  : 250000
  Time step     : 0.001
Per MPI rank memory allocation (min/avg/max) = 11.3 | 11.3 | 11.3 Mbytes
Step Temp Press TotEng PotEng Enthalpy 
  250000    1391.8855     737.0996   -67823.313   -71358.829     -67672.6 
  250495    1361.4933   -424.86575   -67993.466   -71451.783   -68080.245 
Loop time of 60.0249 on 2 procs for 495 steps with 19652 atoms

Performance: 0.713 ns/day, 33.684 hours/ns, 8.247 timesteps/s
85.0% CPU use with 2 MPI tasks x no OpenMP threads

MPI task timing breakdown:
Section |  min time  |  avg time  |  max time  |%varavg| %total
---------------------------------------------------------------
Pair    | 33.647     | 33.743     | 33.839     |   1.6 | 56.22
Neigh   | 21.922     | 21.989     | 22.057     |   1.4 | 36.63
Comm    | 3.3429     | 3.5424     | 3.7419     |  10.6 |  5.90
Output  | 8.7976e-05 | 0.00017703 | 0.00026608 |   0.0 |  0.00
Modify  | 0.59133    | 0.61389    | 0.63645    |   2.9 |  1.02
Other   |            | 0.1361     |            |       |  0.23

Nlocal:    9826 ave 9829 max 9823 min
Histogram: 1 0 0 0 0 0 0 0 0 1
Nghost:    13009.5 ave 13018 max 13001 min
Histogram: 1 0 0 0 0 0 0 0 0 1
Neighs:    754790 ave 755083 max 754496 min
Histogram: 1 0 0 0 0 0 0 0 0 1

Total # of neighbors = 1509579
Ave neighs/atom = 76.8155
Neighbor list builds = 495
Dangerous builds not checked
Setting up Verlet run ...
  Unit style    : metal
  Current step  : 250495
  Time step     : 0.001
Per MPI rank memory allocation (min/avg/max) = 11.3 | 11.3 | 11.3 Mbytes
Step Temp Press TotEng PotEng Enthalpy 
  250495    1361.4933   -424.86575   -67993.466   -71451.783   -68080.245 
  260000    1353.3877     1539.422   -68079.133   -71516.861   -67765.508 
Loop time of 1142.02 on 2 procs for 9505 steps with 19652 atoms

Performance: 0.719 ns/day, 33.375 hours/ns, 8.323 timesteps/s
87.2% CPU use with 2 MPI tasks x no OpenMP threads

MPI task timing breakdown:
Section |  min time  |  avg time  |  max time  |%varavg| %total
---------------------------------------------------------------
Pair    | 638.54     | 640.62     | 642.69     |   8.2 | 56.10
Neigh   | 416.09     | 416.65     | 417.21     |   2.7 | 36.48
Comm    | 68.523     | 71.325     | 74.128     |  33.2 |  6.25
Output  | 0.036857   | 0.036892   | 0.036926   |   0.0 |  0.00
Modify  | 10.713     | 10.827     | 10.941     |   3.5 |  0.95
Other   |            | 2.563      |            |       |  0.22

Nlocal:    9826 ave 9834 max 9818 min
Histogram: 1 0 0 0 0 0 0 0 0 1
Nghost:    13019 ave 13036 max 13002 min
Histogram: 1 0 0 0 0 0 0 0 0 1
Neighs:    756654 ave 756655 max 756654 min
Histogram: 1 0 0 0 0 0 0 0 0 1

Total # of neighbors = 1513309
Ave neighs/atom = 77.0053
Neighbor list builds = 9505
Dangerous builds not checked
Setting up Verlet run ...
  Unit style    : metal
  Current step  : 260000
  Time step     : 0.001
Per MPI rank memory allocation (min/avg/max) = 11.3 | 11.3 | 11.3 Mbytes
Step Temp Press TotEng PotEng Enthalpy 
  260000    1353.3877     1539.422   -68079.133   -71516.861   -67765.508 
  260495    1319.6584   -733.73927   -68314.732   -71666.785    -68464.09 
Loop time of 52.3625 on 2 procs for 495 steps with 19652 atoms

Performance: 0.817 ns/day, 29.384 hours/ns, 9.453 timesteps/s
92.8% CPU use with 2 MPI tasks x no OpenMP threads

MPI task timing breakdown:
Section |  min time  |  avg time  |  max time  |%varavg| %total
---------------------------------------------------------------
Pair    | 28.939     | 29.03      | 29.122     |   1.7 | 55.44
Neigh   | 19.926     | 20.102     | 20.278     |   3.9 | 38.39
Comm    | 2.2452     | 2.5098     | 2.7744     |  16.7 |  4.79
Output  | 0.0031712  | 0.0031925  | 0.0032139  |   0.0 |  0.01
Modify  | 0.58991    | 0.59214    | 0.59438    |   0.3 |  1.13
Other   |            | 0.1246     |            |       |  0.24

Nlocal:    9826 ave 9827 max 9825 min
Histogram: 1 0 0 0 0 0 0 0 0 1
Nghost:    13000.5 ave 13008 max 12993 min
Histogram: 1 0 0 0 0 0 0 0 0 1
Neighs:    757282 ave 758060 max 756505 min
Histogram: 1 0 0 0 0 0 0 0 0 1

Total # of neighbors = 1514565
Ave neighs/atom = 77.0693
Neighbor list builds = 495
Dangerous builds not checked
Setting up Verlet run ...
  Unit style    : metal
  Current step  : 260495
  Time step     : 0.001
Per MPI rank memory allocation (min/avg/max) = 11.3 | 11.3 | 11.3 Mbytes
Step Temp Press TotEng PotEng Enthalpy 
  260495    1319.6584   -733.73927   -68314.732   -71666.785    -68464.09 
  270000    1301.8686    927.27365   -68477.502   -71784.367   -68289.416 
Loop time of 1185.42 on 2 procs for 9505 steps with 19652 atoms

Performance: 0.693 ns/day, 34.643 hours/ns, 8.018 timesteps/s
84.7% CPU use with 2 MPI tasks x no OpenMP threads

MPI task timing breakdown:
Section |  min time  |  avg time  |  max time  |%varavg| %total
---------------------------------------------------------------
Pair    | 663.51     | 664.27     | 665.02     |   2.9 | 56.04
Neigh   | 431.21     | 431.28     | 431.36     |   0.4 | 36.38
Comm    | 74.275     | 74.959     | 75.643     |   7.9 |  6.32
Output  | 0.037185   | 0.037266   | 0.037346   |   0.0 |  0.00
Modify  | 12.286     | 12.309     | 12.332     |   0.6 |  1.04
Other   |            | 2.565      |            |       |  0.22

Nlocal:    9826 ave 9838 max 9814 min
Histogram: 1 0 0 0 0 0 0 0 0 1
Nghost:    13032.5 ave 13045 max 13020 min
Histogram: 1 0 0 0 0 0 0 0 0 1
Neighs:    760081 ave 760771 max 759391 min
Histogram: 1 0 0 0 0 0 0 0 0 1

Total # of neighbors = 1520162
Ave neighs/atom = 77.3541
Neighbor list builds = 9505
Dangerous builds not checked
Setting up Verlet run ...
  Unit style    : metal
  Current step  : 270000
  Time step     : 0.001
Per MPI rank memory allocation (min/avg/max) = 11.3 | 11.3 | 11.3 Mbytes
Step Temp Press TotEng PotEng Enthalpy 
  270000    1301.8686    927.27365   -68477.502   -71784.367   -68289.416 
  270495    1265.2724   -38.930711   -68658.811   -71872.718   -68666.702 
Loop time of 61.1749 on 2 procs for 495 steps with 19652 atoms

Performance: 0.699 ns/day, 34.329 hours/ns, 8.092 timesteps/s
83.3% CPU use with 2 MPI tasks x no OpenMP threads

MPI task timing breakdown:
Section |  min time  |  avg time  |  max time  |%varavg| %total
---------------------------------------------------------------
Pair    | 33.656     | 33.902     | 34.148     |   4.2 | 55.42
Neigh   | 22.221     | 22.247     | 22.272     |   0.5 | 36.37
Comm    | 3.7173     | 4.1107     | 4.5042     |  19.4 |  6.72
Output  | 8.2016e-05 | 0.00010848 | 0.00013494 |   0.0 |  0.00
Modify  | 0.64918    | 0.77987    | 0.91057    |  14.8 |  1.27
Other   |            | 0.1357     |            |       |  0.22

Nlocal:    9826 ave 9827 max 9825 min
Histogram: 1 0 0 0 0 0 0 0 0 1
Nghost:    13009.5 ave 13027 max 12992 min
Histogram: 1 0 0 0 0 0 0 0 0 1
Neighs:    760336 ave 760441 max 760232 min
Histogram: 1 0 0 0 0 0 0 0 0 1

Total # of neighbors = 1520673
Ave neighs/atom = 77.3801
Neighbor list builds = 495
Dangerous builds not checked
Setting up Verlet run ...
  Unit style    : metal
  Current step  : 270495
  Time step     : 0.001
Per MPI rank memory allocation (min/avg/max) = 11.3 | 11.3 | 11.3 Mbytes
Step Temp Press TotEng PotEng Enthalpy 
  270495    1265.2724   -38.930711   -68658.811   -71872.718   -68666.702 
  280000    1245.9276   -572.95125   -68822.528   -71987.297   -68938.487 
Loop time of 1146.62 on 2 procs for 9505 steps with 19652 atoms

Performance: 0.716 ns/day, 33.509 hours/ns, 8.290 timesteps/s
86.3% CPU use with 2 MPI tasks x no OpenMP threads

MPI task timing breakdown:
Section |  min time  |  avg time  |  max time  |%varavg| %total
---------------------------------------------------------------
Pair    | 641.53     | 644.12     | 646.72     |  10.2 | 56.18
Neigh   | 418.39     | 419.13     | 419.87     |   3.6 | 36.55
Comm    | 66.031     | 69.381     | 72.732     |  40.2 |  6.05
Output  | 0.035803   | 0.035831   | 0.035858   |   0.0 |  0.00
Modify  | 11.408     | 11.415     | 11.423     |   0.2 |  1.00
Other   |            | 2.536      |            |       |  0.22

Nlocal:    9826 ave 9840 max 9812 min
Histogram: 1 0 0 0 0 0 0 0 0 1
Nghost:    13013.5 ave 13039 max 12988 min
Histogram: 1 0 0 0 0 0 0 0 0 1
Neighs:    761201 ave 762441 max 759961 min
Histogram: 1 0 0 0 0 0 0 0 0 1

Total # of neighbors = 1522402
Ave neighs/atom = 77.468
Neighbor list builds = 9505
Dangerous builds not checked
Setting up Verlet run ...
  Unit style    : metal
  Current step  : 280000
  Time step     : 0.001
Per MPI rank memory allocation (min/avg/max) = 11.3 | 11.3 | 11.3 Mbytes
Step Temp Press TotEng PotEng Enthalpy 
  280000    1245.9276   -572.95125   -68822.528   -71987.297   -68938.487 
  280495    1221.7798   -500.58395    -69022.09   -72125.522   -69123.127 
Loop time of 58.5105 on 2 procs for 495 steps with 19652 atoms

Performance: 0.731 ns/day, 32.834 hours/ns, 8.460 timesteps/s
89.1% CPU use with 2 MPI tasks x no OpenMP threads

MPI task timing breakdown:
Section |  min time  |  avg time  |  max time  |%varavg| %total
---------------------------------------------------------------
Pair    | 32.535     | 32.574     | 32.613     |   0.7 | 55.67
Neigh   | 20.905     | 21.063     | 21.22      |   3.4 | 36.00
Comm    | 4.0273     | 4.2083     | 4.3893     |   8.8 |  7.19
Output  | 8.2016e-05 | 0.00010896 | 0.0001359  |   0.0 |  0.00
Modify  | 0.52389    | 0.53663    | 0.54937    |   1.7 |  0.92
Other   |            | 0.1288     |            |       |  0.22

Nlocal:    9826 ave 9848 max 9804 min
Histogram: 1 0 0 0 0 0 0 0 0 1
Nghost:    13026.5 ave 13047 max 13006 min
Histogram: 1 0 0 0 0 0 0 0 0 1
Neighs:    763430 ave 765063 max 761796 min
Histogram: 1 0 0 0 0 0 0 0 0 1

Total # of neighbors = 1526859
Ave neighs/atom = 77.6948
Neighbor list builds = 495
Dangerous builds not checked
Setting up Verlet run ...
  Unit style    : metal
  Current step  : 280495
  Time step     : 0.001
Per MPI rank memory allocation (min/avg/max) = 11.3 | 11.3 | 11.3 Mbytes
Step Temp Press TotEng PotEng Enthalpy 
  280495    1221.7798   -500.58395    -69022.09   -72125.522   -69123.127 
  290000    1197.6777   -1347.2934   -69196.572   -72238.782   -69468.142 
Loop time of 1124.83 on 2 procs for 9505 steps with 19652 atoms

Performance: 0.730 ns/day, 32.873 hours/ns, 8.450 timesteps/s
87.8% CPU use with 2 MPI tasks x no OpenMP threads

MPI task timing breakdown:
Section |  min time  |  avg time  |  max time  |%varavg| %total
---------------------------------------------------------------
Pair    | 625.84     | 627.06     | 628.27     |   4.9 | 55.75
Neigh   | 410.84     | 411.14     | 411.44     |   1.5 | 36.55
Comm    | 67.587     | 69.196     | 70.805     |  19.3 |  6.15
Output  | 0.036433   | 0.036451   | 0.03647    |   0.0 |  0.00
Modify  | 14.856     | 14.887     | 14.917     |   0.8 |  1.32
Other   |            | 2.517      |            |       |  0.22

Nlocal:    9826 ave 9828 max 9824 min
Histogram: 1 0 0 0 0 0 0 0 0 1
Nghost:    13061.5 ave 13063 max 13060 min
Histogram: 1 0 0 0 0 0 0 0 0 1
Neighs:    764347 ave 764604 max 764090 min
Histogram: 1 0 0 0 0 0 0 0 0 1

Total # of neighbors = 1528694
Ave neighs/atom = 77.7882
Neighbor list builds = 9505
Dangerous builds not checked
Setting up Verlet run ...
  Unit style    : metal
  Current step  : 290000
  Time step     : 0.001
Per MPI rank memory allocation (min/avg/max) = 11.3 | 11.3 | 11.3 Mbytes
Step Temp Press TotEng PotEng Enthalpy 
  290000    1197.6777   -1347.2934   -69196.572   -72238.782   -69468.142 
  290495    1165.5211    873.82041   -69389.067   -72349.597    -69213.57 
Loop time of 54.1502 on 2 procs for 495 steps with 19652 atoms

Performance: 0.790 ns/day, 30.387 hours/ns, 9.141 timesteps/s
91.0% CPU use with 2 MPI tasks x no OpenMP threads

MPI task timing breakdown:
Section |  min time  |  avg time  |  max time  |%varavg| %total
---------------------------------------------------------------
Pair    | 30.586     | 30.843     | 31.1       |   4.6 | 56.96
Neigh   | 19.89      | 20.186     | 20.481     |   6.6 | 37.28
Comm    | 2.444      | 2.5026     | 2.5612     |   3.7 |  4.62
Output  | 7.7009e-05 | 0.0001055  | 0.00013399 |   0.0 |  0.00
Modify  | 0.47752    | 0.48993    | 0.50234    |   1.8 |  0.90
Other   |            | 0.1291     |            |       |  0.24

Nlocal:    9826 ave 9837 max 9815 min
Histogram: 1 0 0 0 0 0 0 0 0 1
Nghost:    13064.5 ave 13077 max 13052 min
Histogram: 1 0 0 0 0 0 0 0 0 1
Neighs:    766638 ave 768438 max 764838 min
Histogram: 1 0 0 0 0 0 0 0 0 1

Total # of neighbors = 1533276
Ave neighs/atom = 78.0214
Neighbor list builds = 495
Dangerous builds not checked
Setting up Verlet run ...
  Unit style    : metal
  Current step  : 290495
  Time step     : 0.001
Per MPI rank memory allocation (min/avg/max) = 11.3 | 11.3 | 11.3 Mbytes
Step Temp Press TotEng PotEng Enthalpy 
  290495    1165.5211    873.82041   -69389.067   -72349.597    -69213.57 
  300000    1162.2535    175.88198   -69549.155   -72501.385   -69513.899 
Loop time of 1173.99 on 2 procs for 9505 steps with 19652 atoms

Performance: 0.700 ns/day, 34.309 hours/ns, 8.096 timesteps/s
85.6% CPU use with 2 MPI tasks x no OpenMP threads

MPI task timing breakdown:
Section |  min time  |  avg time  |  max time  |%varavg| %total
---------------------------------------------------------------
Pair    | 658.25     | 658.44     | 658.62     |   0.7 | 56.09
Neigh   | 419.33     | 421.13     | 422.93     |   8.8 | 35.87
Comm    | 76.932     | 79.14      | 81.347     |  24.8 |  6.74
Output  | 0.29417    | 0.29607    | 0.29797    |   0.3 |  0.03
Modify  | 12.183     | 12.378     | 12.572     |   5.5 |  1.05
Other   |            | 2.604      |            |       |  0.22

Nlocal:    9826 ave 9831 max 9821 min
Histogram: 1 0 0 0 0 0 0 0 0 1
Nghost:    13098 ave 13113 max 13083 min
Histogram: 1 0 0 0 0 0 0 0 0 1
Neighs:    768052 ave 768103 max 768000 min
Histogram: 1 0 0 0 0 0 0 0 0 1

Total # of neighbors = 1536103
Ave neighs/atom = 78.1652
Neighbor list builds = 9505
Dangerous builds not checked
Setting up Verlet run ...
  Unit style    : metal
  Current step  : 300000
  Time step     : 0.001
Per MPI rank memory allocation (min/avg/max) = 11.3 | 11.3 | 11.3 Mbytes
Step Temp Press TotEng PotEng Enthalpy 
  300000    1162.2535    175.88198   -69549.155   -72501.385   -69513.899 
[...]
Nghost:    13367.5 ave 13370 max 13365 min
Histogram: 1 0 0 0 0 0 0 0 0 1
Neighs:    798982 ave 808106 max 789859 min
Histogram: 1 0 0 0 0 0 0 0 0 1

Total # of neighbors = 1597965
Ave neighs/atom = 81.3131
Neighbor list builds = 9505
Dangerous builds not checked
Setting up Verlet run ...
  Unit style    : metal
  Current step  : 440000
  Time step     : 0.001
Per MPI rank memory allocation (min/avg/max) = 11.3 | 11.3 | 11.3 Mbytes
Step Temp Press TotEng PotEng Enthalpy 
  440000    449.28364    758.41033   -74328.732   -75469.954   -74183.795 
  440495    417.66654   -388.18316   -74485.386   -75546.297   -74559.523 
Loop time of 48.725 on 2 procs for 495 steps with 19652 atoms

Performance: 0.878 ns/day, 27.343 hours/ns, 10.159 timesteps/s
99.9% CPU use with 2 MPI tasks x no OpenMP threads

MPI task timing breakdown:
Section |  min time  |  avg time  |  max time  |%varavg| %total
---------------------------------------------------------------
Pair    | 26.378     | 26.621     | 26.863     |   4.7 | 54.63
Neigh   | 20.092     | 20.136     | 20.181     |   1.0 | 41.33
Comm    | 1.1457     | 1.4372     | 1.7286     |  24.3 |  2.95
Output  | 7.7009e-05 | 0.00020599 | 0.00033498 |   0.0 |  0.00
Modify  | 0.41302    | 0.41677    | 0.42052    |   0.6 |  0.86
Other   |            | 0.1137     |            |       |  0.23

Nlocal:    9826 ave 9830 max 9822 min
Histogram: 1 0 0 0 0 0 0 0 0 1
Nghost:    13362.5 ave 13371 max 13354 min
Histogram: 1 0 0 0 0 0 0 0 0 1
Neighs:    799468 ave 808797 max 790138 min
Histogram: 1 0 0 0 0 0 0 0 0 1

Total # of neighbors = 1598935
Ave neighs/atom = 81.3625
Neighbor list builds = 495
Dangerous builds not checked
Setting up Verlet run ...
  Unit style    : metal
  Current step  : 440495
  Time step     : 0.001
Per MPI rank memory allocation (min/avg/max) = 11.3 | 11.3 | 11.3 Mbytes
Step Temp Press TotEng PotEng Enthalpy 
  440495    417.66654   -388.18316   -74485.386   -75546.297   -74559.523 
  450000    398.22278    756.65941   -74610.197   -75621.719   -74465.906 
Loop time of 976.631 on 2 procs for 9505 steps with 19652 atoms

Performance: 0.841 ns/day, 28.541 hours/ns, 9.732 timesteps/s
97.4% CPU use with 2 MPI tasks x no OpenMP threads

MPI task timing breakdown:
Section |  min time  |  avg time  |  max time  |%varavg| %total
---------------------------------------------------------------
Pair    | 531.74     | 535.55     | 539.37     |  16.5 | 54.84
Neigh   | 397.98     | 398.3      | 398.61     |   1.6 | 40.78
Comm    | 28.511     | 32.043     | 35.574     |  62.4 |  3.28
Output  | 0.035457   | 0.035555   | 0.035652   |   0.1 |  0.00
Modify  | 8.4122     | 8.4466     | 8.4809     |   1.2 |  0.86
Other   |            | 2.258      |            |       |  0.23

Nlocal:    9826 ave 9838 max 9814 min
Histogram: 1 0 0 0 0 0 0 0 0 1
Nghost:    13352 ave 13366 max 13338 min
Histogram: 1 0 0 0 0 0 0 0 0 1
Neighs:    800530 ave 808228 max 792833 min
Histogram: 1 0 0 0 0 0 0 0 0 1

Total # of neighbors = 1601061
Ave neighs/atom = 81.4706
Neighbor list builds = 9505
Dangerous builds not checked
Setting up Verlet run ...
  Unit style    : metal
  Current step  : 450000
  Time step     : 0.001
Per MPI rank memory allocation (min/avg/max) = 11.3 | 11.3 | 11.3 Mbytes
Step Temp Press TotEng PotEng Enthalpy 
  450000    398.22278    756.65941   -74610.197   -75621.719   -74465.906 
  450495    372.38014   -212.39578   -74753.773   -75699.652   -74794.253 
Loop time of 55.991 on 2 procs for 495 steps with 19652 atoms

Performance: 0.764 ns/day, 31.420 hours/ns, 8.841 timesteps/s
92.6% CPU use with 2 MPI tasks x no OpenMP threads

MPI task timing breakdown:
Section |  min time  |  avg time  |  max time  |%varavg| %total
---------------------------------------------------------------
Pair    | 30.287     | 30.811     | 31.334     |   9.4 | 55.03
Neigh   | 21.602     | 21.967     | 22.333     |   7.8 | 39.23
Comm    | 2.4691     | 2.6332     | 2.7972     |  10.1 |  4.70
Output  | 0.00011396 | 0.00020003 | 0.0002861  |   0.0 |  0.00
Modify  | 0.45413    | 0.45539    | 0.45664    |   0.2 |  0.81
Other   |            | 0.1244     |            |       |  0.22

Nlocal:    9826 ave 9833 max 9819 min
Histogram: 1 0 0 0 0 0 0 0 0 1
Nghost:    13387 ave 13397 max 13377 min
Histogram: 1 0 0 0 0 0 0 0 0 1
Neighs:    800510 ave 808565 max 792454 min
Histogram: 1 0 0 0 0 0 0 0 0 1

Total # of neighbors = 1601019
Ave neighs/atom = 81.4685
Neighbor list builds = 495
Dangerous builds not checked
Setting up Verlet run ...
  Unit style    : metal
  Current step  : 450495
  Time step     : 0.001
Per MPI rank memory allocation (min/avg/max) = 11.3 | 11.3 | 11.3 Mbytes
Step Temp Press TotEng PotEng Enthalpy 
  450495    372.38014   -212.39578   -74753.773   -75699.652   -74794.253 
  460000    351.75679    251.42647   -74868.597   -75762.092   -74820.732 
Loop time of 1147.69 on 2 procs for 9505 steps with 19652 atoms

Performance: 0.716 ns/day, 33.541 hours/ns, 8.282 timesteps/s
89.1% CPU use with 2 MPI tasks x no OpenMP threads

MPI task timing breakdown:
Section |  min time  |  avg time  |  max time  |%varavg| %total
---------------------------------------------------------------
Pair    | 626.02     | 633.53     | 641.04     |  29.8 | 55.20
Neigh   | 439.16     | 441.53     | 443.9      |  11.3 | 38.47
Comm    | 53.504     | 58.924     | 64.345     |  70.6 |  5.13
Output  | 0.070456   | 0.070504   | 0.070552   |   0.0 |  0.01
Modify  | 10.91      | 11.228     | 11.547     |   9.5 |  0.98
Other   |            | 2.413      |            |       |  0.21

Nlocal:    9826 ave 9827 max 9825 min
Histogram: 1 0 0 0 0 0 0 0 0 1
Nghost:    13378.5 ave 13392 max 13365 min
Histogram: 1 0 0 0 0 0 0 0 0 1
Neighs:    801776 ave 810912 max 792639 min
Histogram: 1 0 0 0 0 0 0 0 0 1

Total # of neighbors = 1603551
Ave neighs/atom = 81.5973
Neighbor list builds = 9505
Dangerous builds not checked
Setting up Verlet run ...
  Unit style    : metal
  Current step  : 460000
  Time step     : 0.001
Per MPI rank memory allocation (min/avg/max) = 11.3 | 11.3 | 11.3 Mbytes
Step Temp Press TotEng PotEng Enthalpy 
  460000    351.75679    251.42647   -74868.597   -75762.092   -74820.732 
  460495    324.37066   -118.54344   -75022.362   -75846.293   -75044.905 
Loop time of 57.6351 on 2 procs for 495 steps with 19652 atoms

Performance: 0.742 ns/day, 32.343 hours/ns, 8.589 timesteps/s
89.8% CPU use with 2 MPI tasks x no OpenMP threads

MPI task timing breakdown:
Section |  min time  |  avg time  |  max time  |%varavg| %total
---------------------------------------------------------------
Pair    | 31.598     | 31.612     | 31.626     |   0.3 | 54.85
Neigh   | 22.112     | 22.209     | 22.307     |   2.1 | 38.53
Comm    | 3.1379     | 3.2283     | 3.3186     |   5.0 |  5.60
Output  | 9.5129e-05 | 0.00011849 | 0.00014186 |   0.0 |  0.00
Modify  | 0.45026    | 0.46129    | 0.47233    |   1.6 |  0.80
Other   |            | 0.1242     |            |       |  0.22

Nlocal:    9826 ave 9836 max 9816 min
Histogram: 1 0 0 0 0 0 0 0 0 1
Nghost:    13380.5 ave 13413 max 13348 min
Histogram: 1 0 0 0 0 0 0 0 0 1
Neighs:    802322 ave 810157 max 794488 min
Histogram: 1 0 0 0 0 0 0 0 0 1

Total # of neighbors = 1604645
Ave neighs/atom = 81.653
Neighbor list builds = 495
Dangerous builds not checked
Setting up Verlet run ...
  Unit style    : metal
  Current step  : 460495
  Time step     : 0.001
Per MPI rank memory allocation (min/avg/max) = 11.3 | 11.3 | 11.3 Mbytes
Step Temp Press TotEng PotEng Enthalpy 
  460495    324.37066   -118.54344   -75022.362   -75846.293   -75044.905 
  470000    299.87311    269.46544   -75147.734   -75909.439   -75096.555 
Loop time of 1044.46 on 2 procs for 9505 steps with 19652 atoms

Performance: 0.786 ns/day, 30.524 hours/ns, 9.100 timesteps/s
92.9% CPU use with 2 MPI tasks x no OpenMP threads

MPI task timing breakdown:
Section |  min time  |  avg time  |  max time  |%varavg| %total
---------------------------------------------------------------
Pair    | 567.5      | 574.15     | 580.81     |  27.8 | 54.97
Neigh   | 413.05     | 415.15     | 417.25     |  10.3 | 39.75
Comm    | 39.209     | 43.655     | 48.1       |  67.3 |  4.18
Output  | 0.036748   | 0.036782   | 0.036815   |   0.0 |  0.00
Modify  | 9.0393     | 9.1622     | 9.285      |   4.1 |  0.88
Other   |            | 2.301      |            |       |  0.22

Nlocal:    9826 ave 9836 max 9816 min
Histogram: 1 0 0 0 0 0 0 0 0 1
Nghost:    13386 ave 13409 max 13363 min
Histogram: 1 0 0 0 0 0 0 0 0 1
Neighs:    803022 ave 810663 max 795380 min
Histogram: 1 0 0 0 0 0 0 0 0 1

Total # of neighbors = 1606043
Ave neighs/atom = 81.7242
Neighbor list builds = 9505
Dangerous builds not checked
Setting up Verlet run ...
  Unit style    : metal
  Current step  : 470000
  Time step     : 0.001
Per MPI rank memory allocation (min/avg/max) = 11.3 | 11.3 | 11.3 Mbytes
Step Temp Press TotEng PotEng Enthalpy 
  470000    299.87311    269.46544   -75147.734   -75909.439   -75096.555 
  470495     272.0305    534.81314   -75282.826   -75973.808   -75181.363 
Loop time of 51.4407 on 2 procs for 495 steps with 19652 atoms

Performance: 0.831 ns/day, 28.867 hours/ns, 9.623 timesteps/s
96.8% CPU use with 2 MPI tasks x no OpenMP threads

MPI task timing breakdown:
Section |  min time  |  avg time  |  max time  |%varavg| %total
---------------------------------------------------------------
Pair    | 28.041     | 28.112     | 28.183     |   1.3 | 54.65
Neigh   | 20.647     | 21.171     | 21.696     |  11.4 | 41.16
Comm    | 0.98606    | 1.6067     | 2.2273     |  49.0 |  3.12
Output  | 9.3222e-05 | 0.00015068 | 0.00020814 |   0.0 |  0.00
Modify  | 0.41379    | 0.43387    | 0.45396    |   3.0 |  0.84
Other   |            | 0.1167     |            |       |  0.23

Nlocal:    9826 ave 9833 max 9819 min
Histogram: 1 0 0 0 0 0 0 0 0 1
Nghost:    13390.5 ave 13411 max 13370 min
Histogram: 1 0 0 0 0 0 0 0 0 1
Neighs:    803602 ave 811906 max 795297 min
Histogram: 1 0 0 0 0 0 0 0 0 1

Total # of neighbors = 1607203
Ave neighs/atom = 81.7832
Neighbor list builds = 495
Dangerous builds not checked
Setting up Verlet run ...
  Unit style    : metal
  Current step  : 470495
  Time step     : 0.001
Per MPI rank memory allocation (min/avg/max) = 11.3 | 11.3 | 11.3 Mbytes
Step Temp Press TotEng PotEng Enthalpy 
  470495     272.0305    534.81314   -75282.826   -75973.808   -75181.363 
  480000    248.46591   -590.89925    -75405.21   -76036.336   -75517.287 
Loop time of 1023.4 on 2 procs for 9505 steps with 19652 atoms

Performance: 0.802 ns/day, 29.908 hours/ns, 9.288 timesteps/s
94.0% CPU use with 2 MPI tasks x no OpenMP threads

MPI task timing breakdown:
Section |  min time  |  avg time  |  max time  |%varavg| %total
---------------------------------------------------------------
Pair    | 556.89     | 564.06     | 571.22     |  30.2 | 55.12
Neigh   | 404.62     | 407.26     | 409.89     |  13.1 | 39.79
Comm    | 36.518     | 41.072     | 45.625     |  71.1 |  4.01
Output  | 0.037924   | 0.037949   | 0.037975   |   0.0 |  0.00
Modify  | 8.698      | 8.7083     | 8.7187     |   0.4 |  0.85
Other   |            | 2.265      |            |       |  0.22

Nlocal:    9826 ave 9834 max 9818 min
Histogram: 1 0 0 0 0 0 0 0 0 1
Nghost:    13408.5 ave 13410 max 13407 min
Histogram: 1 0 0 0 0 0 0 0 0 1
Neighs:    803780 ave 813182 max 794379 min
Histogram: 1 0 0 0 0 0 0 0 0 1

Total # of neighbors = 1607561
Ave neighs/atom = 81.8014
Neighbor list builds = 9505
Dangerous builds not checked
Setting up Verlet run ...
  Unit style    : metal
  Current step  : 480000
  Time step     : 0.001
Per MPI rank memory allocation (min/avg/max) = 11.3 | 11.3 | 11.3 Mbytes
Step Temp Press TotEng PotEng Enthalpy 
  480000    248.46591   -590.89925    -75405.21   -76036.336   -75517.287 
  480495    225.70055    507.53894   -75541.305   -76114.605   -75445.213 
Loop time of 60.2483 on 2 procs for 495 steps with 19652 atoms

Performance: 0.710 ns/day, 33.809 hours/ns, 8.216 timesteps/s
87.8% CPU use with 2 MPI tasks x no OpenMP threads

MPI task timing breakdown:
Section |  min time  |  avg time  |  max time  |%varavg| %total
---------------------------------------------------------------
Pair    | 33.041     | 33.046     | 33.051     |   0.1 | 54.85
Neigh   | 23.146     | 23.236     | 23.325     |   1.9 | 38.57
Comm    | 3.2527     | 3.3447     | 3.4367     |   5.0 |  5.55
Output  | 8.893e-05  | 0.00018895 | 0.00028896 |   0.0 |  0.00
Modify  | 0.48842    | 0.49573    | 0.50304    |   1.0 |  0.82
Other   |            | 0.1256     |            |       |  0.21

Nlocal:    9826 ave 9835 max 9817 min
Histogram: 1 0 0 0 0 0 0 0 0 1
Nghost:    13424.5 ave 13448 max 13401 min
Histogram: 1 0 0 0 0 0 0 0 0 1
Neighs:    805072 ave 813256 max 796888 min
Histogram: 1 0 0 0 0 0 0 0 0 1

Total # of neighbors = 1610144
Ave neighs/atom = 81.9328
Neighbor list builds = 495
Dangerous builds not checked
Setting up Verlet run ...
  Unit style    : metal
  Current step  : 480495
  Time step     : 0.001
Per MPI rank memory allocation (min/avg/max) = 11.3 | 11.3 | 11.3 Mbytes
Step Temp Press TotEng PotEng Enthalpy 
  480495    225.70055    507.53894   -75541.305   -76114.605   -75445.213 
  490000    201.76281   -943.27038    -75665.78   -76178.276    -75844.39 
Loop time of 1140.47 on 2 procs for 9505 steps with 19652 atoms

Performance: 0.720 ns/day, 33.330 hours/ns, 8.334 timesteps/s
88.9% CPU use with 2 MPI tasks x no OpenMP threads

MPI task timing breakdown:
Section |  min time  |  avg time  |  max time  |%varavg| %total
---------------------------------------------------------------
Pair    | 623.67     | 629.46     | 635.24     |  23.1 | 55.19
Neigh   | 435.15     | 435.85     | 436.55     |   3.4 | 38.22
Comm    | 56.238     | 61.341     | 66.444     |  65.2 |  5.38
Output  | 0.035764   | 0.035797   | 0.03583    |   0.0 |  0.00
Modify  | 11.236     | 11.242     | 11.249     |   0.2 |  0.99
Other   |            | 2.548      |            |       |  0.22

Nlocal:    9826 ave 9831 max 9821 min
Histogram: 1 0 0 0 0 0 0 0 0 1
Nghost:    13426 ave 13438 max 13414 min
Histogram: 1 0 0 0 0 0 0 0 0 1
Neighs:    804825 ave 812788 max 796862 min
Histogram: 1 0 0 0 0 0 0 0 0 1

Total # of neighbors = 1609650
Ave neighs/atom = 81.9077
Neighbor list builds = 9505
Dangerous builds not checked
Setting up Verlet run ...
  Unit style    : metal
  Current step  : 490000
  Time step     : 0.001
Per MPI rank memory allocation (min/avg/max) = 11.3 | 11.3 | 11.3 Mbytes
Step Temp Press TotEng PotEng Enthalpy 
  490000    201.76281   -943.27038    -75665.78   -76178.276    -75844.39 
  490495    173.51026   -466.30275   -75796.562   -76237.294   -75884.746 
Loop time of 53.8494 on 2 procs for 495 steps with 19652 atoms

Performance: 0.794 ns/day, 30.219 hours/ns, 9.192 timesteps/s
94.3% CPU use with 2 MPI tasks x no OpenMP threads

MPI task timing breakdown:
Section |  min time  |  avg time  |  max time  |%varavg| %total
---------------------------------------------------------------
Pair    | 29.966     | 30.34      | 30.714     |   6.8 | 56.34
Neigh   | 20.894     | 21.036     | 21.178     |   3.1 | 39.06
Comm    | 1.3816     | 1.915      | 2.4483     |  38.5 |  3.56
Output  | 8.6069e-05 | 0.00011158 | 0.00013709 |   0.0 |  0.00
Modify  | 0.42455    | 0.43532    | 0.44608    |   1.6 |  0.81
Other   |            | 0.1232     |            |       |  0.23

Nlocal:    9826 ave 9832 max 9820 min
Histogram: 1 0 0 0 0 0 0 0 0 1
Nghost:    13438 ave 13468 max 13408 min
Histogram: 1 0 0 0 0 0 0 0 0 1
Neighs:    805614 ave 814228 max 796999 min
Histogram: 1 0 0 0 0 0 0 0 0 1

Total # of neighbors = 1611227
Ave neighs/atom = 81.9879
Neighbor list builds = 495
Dangerous builds not checked
Setting up Verlet run ...
  Unit style    : metal
  Current step  : 490495
  Time step     : 0.001
Per MPI rank memory allocation (min/avg/max) = 11.3 | 11.3 | 11.3 Mbytes
Step Temp Press TotEng PotEng Enthalpy 
  490495    173.51026   -466.30275   -75796.562   -76237.294   -75884.746 
  500000    150.67924    269.30041   -75929.581    -76312.32   -75878.726 
Loop time of 1058.08 on 2 procs for 9505 steps with 19652 atoms

Performance: 0.776 ns/day, 30.922 hours/ns, 8.983 timesteps/s
93.3% CPU use with 2 MPI tasks x no OpenMP threads

MPI task timing breakdown:
Section |  min time  |  avg time  |  max time  |%varavg| %total
---------------------------------------------------------------
Pair    | 577.41     | 582.55     | 587.69     |  21.3 | 55.06
Neigh   | 410.21     | 411.36     | 412.52     |   5.7 | 38.88
Comm    | 47.592     | 51.607     | 55.622     |  55.9 |  4.88
Output  | 0.037139   | 0.037184   | 0.037229   |   0.0 |  0.00
Modify  | 10.069     | 10.095     | 10.12      |   0.8 |  0.95
Other   |            | 2.427      |            |       |  0.23

Nlocal:    9826 ave 9833 max 9819 min
Histogram: 1 0 0 0 0 0 0 0 0 1
Nghost:    13437.5 ave 13461 max 13414 min
Histogram: 1 0 0 0 0 0 0 0 0 1
Neighs:    806840 ave 815404 max 798276 min
Histogram: 1 0 0 0 0 0 0 0 0 1

Total # of neighbors = 1613680
Ave neighs/atom = 82.1128
Neighbor list builds = 9505
Dangerous builds not checked
Setting up Verlet run ...
  Unit style    : metal
  Current step  : 500000
  Time step     : 0.001
Per MPI rank memory allocation (min/avg/max) = 11.3 | 11.3 | 11.3 Mbytes
Step Temp Press TotEng PotEng Enthalpy 
  500000    150.67924    269.30041   -75929.581    -76312.32   -75878.726 
  500495    127.01145    271.17125   -76048.941   -76371.562    -75997.78 
Loop time of 50.4933 on 2 procs for 495 steps with 19652 atoms

Performance: 0.847 ns/day, 28.335 hours/ns, 9.803 timesteps/s
96.7% CPU use with 2 MPI tasks x no OpenMP threads

MPI task timing breakdown:
Section |  min time  |  avg time  |  max time  |%varavg| %total
---------------------------------------------------------------
Pair    | 27.535     | 27.76      | 27.985     |   4.3 | 54.98
Neigh   | 20.53      | 20.612     | 20.695     |   1.8 | 40.82
Comm    | 1.4241     | 1.5746     | 1.7251     |  12.0 |  3.12
Output  | 9.8944e-05 | 0.00014293 | 0.00018692 |   0.0 |  0.00
Modify  | 0.4207     | 0.42911    | 0.43752    |   1.3 |  0.85
Other   |            | 0.117      |            |       |  0.23

Nlocal:    9826 ave 9840 max 9812 min
Histogram: 1 0 0 0 0 0 0 0 0 1
Nghost:    13425.5 ave 13456 max 13395 min
Histogram: 1 0 0 0 0 0 0 0 0 1
Neighs:    807264 ave 815242 max 799286 min
Histogram: 1 0 0 0 0 0 0 0 0 1

Total # of neighbors = 1614528
Ave neighs/atom = 82.1559
Neighbor list builds = 495
Dangerous builds not checked
Setting up Verlet run ...
  Unit style    : metal
  Current step  : 500495
  Time step     : 0.001
Per MPI rank memory allocation (min/avg/max) = 11.3 | 11.3 | 11.3 Mbytes
Step Temp Press TotEng PotEng Enthalpy 
  500495    127.01145    271.17125   -76048.941   -76371.562    -75997.78 
  510000    99.807634   -258.21729   -76188.711   -76442.232   -76237.395 
Loop time of 973.704 on 2 procs for 9505 steps with 19652 atoms

Performance: 0.843 ns/day, 28.456 hours/ns, 9.762 timesteps/s
97.1% CPU use with 2 MPI tasks x no OpenMP threads

MPI task timing breakdown:
Section |  min time  |  avg time  |  max time  |%varavg| %total
---------------------------------------------------------------
Pair    | 526.64     | 533.08     | 539.53     |  27.9 | 54.75
Neigh   | 388.15     | 390.84     | 393.53     |  13.6 | 40.14
Comm    | 33.637     | 37.396     | 41.155     |  61.5 |  3.84
Output  | 1.2711     | 1.2776     | 1.2842     |   0.6 |  0.13
Modify  | 8.7922     | 8.8044     | 8.8165     |   0.4 |  0.90
Other   |            | 2.303      |            |       |  0.24

Nlocal:    9826 ave 9839 max 9813 min
Histogram: 1 0 0 0 0 0 0 0 0 1
Nghost:    13415 ave 13438 max 13392 min
Histogram: 1 0 0 0 0 0 0 0 0 1
Neighs:    807566 ave 815319 max 799814 min
Histogram: 1 0 0 0 0 0 0 0 0 1

Total # of neighbors = 1615133
Ave neighs/atom = 82.1867
Neighbor list builds = 9505
Dangerous builds not checked
Total wall time: 14:14:08
