LAMMPS (12 Dec 2018)
Lattice spacing in x,y,z = 4 4 4
Created orthogonal box = (0 0 0) to (68 68 68)
  1 by 1 by 1 MPI processor grid
Created 19652 atoms
  Time spent = 0.00367117 secs
Setting atom values ...
  19480 settings made for type/fraction
Neighbor list info ...
  update every 1 steps, delay 0 steps, check no
  max neighbors/atom: 2000, page size: 100000
  master list distance cutoff = 8.2
  ghost atom cutoff = 8.2
  binsize = 4.1, bins = 17 17 17
  1 neighbor lists, perpetual/occasional/extra = 1 0 0
  (1) pair eam/alloy, perpetual
      attributes: half, newton on
      pair build: half/bin/atomonly/newton
      stencil: half/bin/3d/newton
      bin: standard
Setting up Verlet run ...
  Unit style    : metal
  Current step  : 0
  Time step     : 0.001
Per MPI rank memory allocation (min/avg/max) = 17.03 | 17.03 | 17.03 Mbytes
Step Temp Press TotEng PotEng Enthalpy Volume 
       0          300   -362526.57   -69435.747   -70197.774   -140582.69       314432 
     667    1117.0116   -119267.99   -69435.985   -72273.296    -92842.69       314432 
    1000    1436.5238   -78212.418   -69436.095   -73084.996   -84785.519       314432 
Loop time of 116.619 on 1 procs for 1000 steps with 19652 atoms

Performance: 0.741 ns/day, 32.394 hours/ns, 8.575 timesteps/s
99.8% CPU use with 1 MPI tasks x no OpenMP threads

MPI task timing breakdown:
Section |  min time  |  avg time  |  max time  |%varavg| %total
---------------------------------------------------------------
Pair    | 60.531     | 60.531     | 60.531     |   0.0 | 51.90
Neigh   | 54.54      | 54.54      | 54.54      |   0.0 | 46.77
Comm    | 0.90841    | 0.90841    | 0.90841    |   0.0 |  0.78
Output  | 0.05578    | 0.05578    | 0.05578    |   0.0 |  0.05
Modify  | 0.30313    | 0.30313    | 0.30313    |   0.0 |  0.26
Other   |            | 0.2807     |            |       |  0.24

Nlocal:    19652 ave 19652 max 19652 min
Histogram: 1 0 0 0 0 0 0 0 0 0
Nghost:    18287 ave 18287 max 18287 min
Histogram: 1 0 0 0 0 0 0 0 0 0
Neighs:    1.44821e+06 ave 1.44821e+06 max 1.44821e+06 min
Histogram: 1 0 0 0 0 0 0 0 0 0

Total # of neighbors = 1448206
Ave neighs/atom = 73.6926
Neighbor list builds = 1000
Dangerous builds not checked
Setting up Verlet run ...
  Unit style    : metal
  Current step  : 1000
  Time step     : 0.001
Per MPI rank memory allocation (min/avg/max) = 17.03 | 17.03 | 17.03 Mbytes
Step Temp Press TotEng PotEng Enthalpy Volume 
    1000    1436.5238   -78212.418   -69436.095   -73084.996   -84785.519       314432 
    1334    923.20067   -18698.751   -75490.461   -77835.475   -78625.879     268653.9 
    2000    429.07917   -3808.4747   -80551.884   -81641.784   -81114.899       236853 
Loop time of 146.138 on 1 procs for 1000 steps with 19652 atoms

Performance: 0.591 ns/day, 40.594 hours/ns, 6.843 timesteps/s
98.9% CPU use with 1 MPI tasks x no OpenMP threads

MPI task timing breakdown:
Section |  min time  |  avg time  |  max time  |%varavg| %total
---------------------------------------------------------------
Pair    | 78.792     | 78.792     | 78.792     |   0.0 | 53.92
Neigh   | 64.978     | 64.978     | 64.978     |   0.0 | 44.46
Comm    | 0.89618    | 0.89618    | 0.89618    |   0.0 |  0.61
Output  | 0.056105   | 0.056105   | 0.056105   |   0.0 |  0.04
Modify  | 1.1051     | 1.1051     | 1.1051     |   0.0 |  0.76
Other   |            | 0.3113     |            |       |  0.21

Nlocal:    19652 ave 19652 max 19652 min
Histogram: 1 0 0 0 0 0 0 0 0 0
Nghost:    20315 ave 20315 max 20315 min
Histogram: 1 0 0 0 0 0 0 0 0 0
Neighs:    1.87393e+06 ave 1.87393e+06 max 1.87393e+06 min
Histogram: 1 0 0 0 0 0 0 0 0 0

Total # of neighbors = 1873929
Ave neighs/atom = 95.3556
Neighbor list builds = 1000
Dangerous builds not checked
Setting up Verlet run ...
  Unit style    : metal
  Current step  : 2000
  Time step     : 0.001
Per MPI rank memory allocation (min/avg/max) = 18.95 | 18.95 | 18.95 Mbytes
Step Temp Press TotEng PotEng Enthalpy Volume 
    2000    429.07917   -3808.4747   -80551.884   -81641.784   -81114.899       236853 
    2001    430.27287   -3980.4189   -80551.933   -81644.865   -81140.365    236852.61 
    2668    466.82853    349.67189   -81380.325   -82566.112   -81330.617    227760.07 
    3335    642.61674    16.290053   -80866.252   -82498.557    -80863.95    226444.64 
    4002    824.93883   -302.53469   -80103.675   -82199.095   -80146.567    227147.12 
    4669    1004.8331    453.91641   -79165.511   -81717.878   -79100.746    228596.56 
    5336    1181.0343    685.10713   -78116.759   -81116.694   -78018.172    230554.59 
    6003    1362.9744   -1967.2606   -76992.566   -80454.645   -77278.763    233084.96 
    6670    1527.5978    2443.6296   -75749.323   -79629.561   -75390.352       235361 
    7337    1720.0276    511.92944   -74415.156   -78784.183   -74338.909    238629.07 
    8004    1898.0095   -1515.1045   -73071.656   -77892.773   -73300.597    242098.46 
    8671     2103.534    1465.7607   -71771.686   -77114.854   -71547.986    244518.64 
    9338    2270.8993    1393.0585   -70564.685   -76332.977   -70349.495    247493.31 
   10000    2446.5609   -70.520924   -69407.643   -75622.131   -69418.666    250419.69 
Loop time of 1212.51 on 1 procs for 8000 steps with 19652 atoms

Performance: 0.570 ns/day, 42.101 hours/ns, 6.598 timesteps/s
99.6% CPU use with 1 MPI tasks x no OpenMP threads

MPI task timing breakdown:
Section |  min time  |  avg time  |  max time  |%varavg| %total
---------------------------------------------------------------
Pair    | 651.79     | 651.79     | 651.79     |   0.0 | 53.76
Neigh   | 541.85     | 541.85     | 541.85     |   0.0 | 44.69
Comm    | 6.9993     | 6.9993     | 6.9993     |   0.0 |  0.58
Output  | 0.77923    | 0.77923    | 0.77923    |   0.0 |  0.06
Modify  | 8.697      | 8.697      | 8.697      |   0.0 |  0.72
Other   |            | 2.393      |            |       |  0.20

Nlocal:    19652 ave 19652 max 19652 min
Histogram: 1 0 0 0 0 0 0 0 0 0
Nghost:    19658 ave 19658 max 19658 min
Histogram: 1 0 0 0 0 0 0 0 0 0
Neighs:    1.76182e+06 ave 1.76182e+06 max 1.76182e+06 min
Histogram: 1 0 0 0 0 0 0 0 0 0

Total # of neighbors = 1761819
Ave neighs/atom = 89.6509
Neighbor list builds = 8000
Dangerous builds not checked
Setting up Verlet run ...
  Unit style    : metal
  Current step  : 10000
  Time step     : 0.001
Per MPI rank memory allocation (min/avg/max) = 18.96 | 18.96 | 18.96 Mbytes
Step Temp Press TotEng PotEng Enthalpy Volume 
   10000    2446.5609   -70.520924   -69407.643   -75622.131   -69418.666    250419.69 
   10005    2438.1158     197.9661   -69407.579   -75600.615   -69376.637     250419.7 
   10672    2451.5965   -1442.6265   -69351.798   -75579.076   -69577.711    250899.26 
   11339     2448.737     1890.236   -69293.127   -75513.142   -68997.472    250598.73 
   12006    2431.5548   -2646.2846   -69318.284   -75494.655   -69733.341    251293.62 
   12673    2463.0586    3502.3743   -69260.757    -75517.15   -68713.429    250377.46 
   13340    2426.9233   -1501.6198   -69333.743   -75498.349    -69569.05    251064.79 
   14007    2459.4417    2074.1886   -69245.365   -75492.571   -68920.891    250635.18 
   14674    2455.6212    -1386.965   -69237.393   -75474.895   -69454.874    251226.15 
   15341    2455.8594   -22.005028   -69142.336   -75380.443   -69145.789    251417.67 
   16008    2456.7341    1029.2111   -69247.276   -75487.604   -69086.117    250875.79 
   16675    2433.7139   -708.45903   -69280.678   -75462.533   -69391.758    251205.87 
   17342    2467.9918   -1344.4343   -69177.434   -75446.358   -69388.317    251311.44 
   18009    2447.6496    2368.3124   -69275.639   -75492.892   -68905.067    250694.25 
   18676    2435.4482     2590.538   -69342.204   -75528.464   -68937.184    250494.01 
   19343    2453.7107    893.62146   -69184.008   -75416.657   -69043.964    251084.75 
   20010    2442.9292    1834.1068   -69385.394   -75590.656    -69098.93    250239.33 
   20677    2454.3057   -2160.6661   -69187.207   -75421.367   -69526.455    251558.93 
   21344    2478.6325    2069.2573   -69167.146   -75463.098   -68843.319    250731.42 
   22011    2429.7681   -2284.9025   -69309.232   -75481.064   -69667.621    251303.15 
   22678    2445.6462    3278.6674   -69287.847   -75500.011   -68775.343    250443.46 
   23345    2441.9042   -3104.2023   -69343.272   -75545.932   -69829.989    251209.92 
   24012    2477.1388    2955.4694   -69169.581   -75461.739   -68707.238    250638.25 
   24679    2424.7161   -3639.9304   -69282.909   -75441.909    -69854.68    251674.49 
   25346    2455.4135    2009.1191   -69194.797    -75431.77   -68880.092    250961.83 
   26013    2419.0762    -1782.242   -69283.099   -75427.773   -69562.821    251461.13 
   26680    2463.1003    2674.7204   -69258.498   -75514.997   -68840.433       250424 
   27347    2428.9584   -50.699786   -69254.174    -75423.95   -69262.121    251117.45 
   28014    2462.9343   -1170.9576   -69259.649   -75515.727   -69443.154    251081.55 
   28681    2458.5253     1258.003   -69269.541   -75514.419   -69072.635     250777.2 
   29348     2464.548   -848.62363   -69232.665   -75492.842   -69365.654    251078.95 
   30015    2453.6471   -1235.4484   -69322.945   -75555.432    -69516.53    251048.93 
   30682     2460.089    2698.6112   -69207.875   -75456.725   -68785.595    250709.35 
   31349    2432.4634   -1829.6237   -69336.096   -75514.775   -69622.829    251088.26 
   32016    2478.4625    753.24545    -69216.55   -75512.071   -69098.611    250861.52 
   32683    2446.1909   -3830.3395   -69304.236   -75517.784   -69905.351    251437.86 
   33350    2465.3838    2294.7453   -69191.504   -75453.803   -68832.403    250721.78 
   34017    2456.0662   -2046.8792   -69309.692   -75548.324   -69630.446    251067.22 
   34684    2440.5451    2579.6925   -69305.247   -75504.454   -68901.936    250485.55 
   35351    2447.5691   -852.08733   -69278.002   -75495.051    -69411.51     251033.2 
   36018    2451.2425    2296.4343   -69273.916   -75500.296   -68914.578    250702.98 
   36685    2439.1102   -1889.2144   -69328.008   -75523.571   -69624.095    251100.99 
   37352     2458.277     1315.901    -69275.27   -75519.518   -69069.347     250721.7 
   38019    2448.1009   -4263.2307   -69269.277   -75487.676   -69938.804    251616.97 
   38686    2461.2141    2553.3617   -69256.817   -75508.525   -68857.597    250501.68 
   39353    2455.1329    -3715.756   -69191.149   -75427.411   -69774.744     251636.8 
   40000    2488.2751    1123.9811   -69142.233   -75462.678   -68966.182    250951.35 
Loop time of 4799.5 on 1 procs for 30000 steps with 19652 atoms

Performance: 0.540 ns/day, 44.440 hours/ns, 6.251 timesteps/s
99.1% CPU use with 1 MPI tasks x no OpenMP threads

MPI task timing breakdown:
Section |  min time  |  avg time  |  max time  |%varavg| %total
---------------------------------------------------------------
Pair    | 2602.1     | 2602.1     | 2602.1     |   0.0 | 54.22
Neigh   | 2112.8     | 2112.8     | 2112.8     |   0.0 | 44.02
Comm    | 29.386     | 29.386     | 29.386     |   0.0 |  0.61
Output  | 9.3213     | 9.3213     | 9.3213     |   0.0 |  0.19
Modify  | 35.52      | 35.52      | 35.52      |   0.0 |  0.74
Other   |            | 10.33      |            |       |  0.22

Nlocal:    19652 ave 19652 max 19652 min
Histogram: 1 0 0 0 0 0 0 0 0 0
Nghost:    19636 ave 19636 max 19636 min
Histogram: 1 0 0 0 0 0 0 0 0 0
Neighs:    1.75851e+06 ave 1.75851e+06 max 1.75851e+06 min
Histogram: 1 0 0 0 0 0 0 0 0 0

Total # of neighbors = 1758514
Ave neighs/atom = 89.4827
Neighbor list builds = 30000
Dangerous builds not checked
Setting up Verlet run ...
  Unit style    : metal
  Current step  : 40000
  Time step     : 0.001
Per MPI rank memory allocation (min/avg/max) = 18.96 | 18.96 | 18.96 Mbytes
Step Temp Press TotEng PotEng Enthalpy Volume 
   40000    2488.2751    1123.9811   -69142.233   -75462.678   -68966.182    250951.35 
   40020    2477.3094    1069.1233   -69146.053   -75438.644    -68978.59    250957.56 
   40495    2396.7447    1114.3494   -69483.345   -75571.295   -69309.159    250438.81 
Loop time of 78.8736 on 1 procs for 495 steps with 19652 atoms

Performance: 0.542 ns/day, 44.261 hours/ns, 6.276 timesteps/s
99.8% CPU use with 1 MPI tasks x no OpenMP threads

MPI task timing breakdown:
Section |  min time  |  avg time  |  max time  |%varavg| %total
---------------------------------------------------------------
Pair    | 42.783     | 42.783     | 42.783     |   0.0 | 54.24
Neigh   | 34.733     | 34.733     | 34.733     |   0.0 | 44.04
Comm    | 0.49069    | 0.49069    | 0.49069    |   0.0 |  0.62
Output  | 0.087819   | 0.087819   | 0.087819   |   0.0 |  0.11
Modify  | 0.59664    | 0.59664    | 0.59664    |   0.0 |  0.76
Other   |            | 0.1831     |            |       |  0.23

Nlocal:    19652 ave 19652 max 19652 min
Histogram: 1 0 0 0 0 0 0 0 0 0
Nghost:    19662 ave 19662 max 19662 min
Histogram: 1 0 0 0 0 0 0 0 0 0
Neighs:    1.76196e+06 ave 1.76196e+06 max 1.76196e+06 min
Histogram: 1 0 0 0 0 0 0 0 0 0

Total # of neighbors = 1761962
Ave neighs/atom = 89.6582
Neighbor list builds = 495
Dangerous builds not checked
Setting up Verlet run ...
  Unit style    : metal
  Current step  : 40495
  Time step     : 0.001
Per MPI rank memory allocation (min/avg/max) = 18.96 | 18.96 | 18.96 Mbytes
Step Temp Press TotEng PotEng Enthalpy Volume 
   40495    2396.7447    1114.3494   -69483.345   -75571.295   -69309.159    250438.81 
   40667    2388.2254    -348.0798   -69567.729   -75634.039   -69622.134    250421.73 
Loop time of 24.6119 on 1 procs for 172 steps with 19652 atoms

Performance: 0.604 ns/day, 39.748 hours/ns, 6.988 timesteps/s
98.1% CPU use with 1 MPI tasks x no OpenMP threads

MPI task timing breakdown:
Section |  min time  |  avg time  |  max time  |%varavg| %total
---------------------------------------------------------------
Pair    | 13.214     | 13.214     | 13.214     |   0.0 | 53.69
Neigh   | 10.996     | 10.996     | 10.996     |   0.0 | 44.68
Comm    | 0.14696    | 0.14696    | 0.14696    |   0.0 |  0.60
Output  | 0.000175   | 0.000175   | 0.000175   |   0.0 |  0.00
Modify  | 0.19728    | 0.19728    | 0.19728    |   0.0 |  0.80
Other   |            | 0.05698    |            |       |  0.23

Nlocal:    19652 ave 19652 max 19652 min
Histogram: 1 0 0 0 0 0 0 0 0 0
Nghost:    19648 ave 19648 max 19648 min
Histogram: 1 0 0 0 0 0 0 0 0 0
Neighs:    1.76178e+06 ave 1.76178e+06 max 1.76178e+06 min
Histogram: 1 0 0 0 0 0 0 0 0 0

Total # of neighbors = 1761778
Ave neighs/atom = 89.6488
Neighbor list builds = 172
Dangerous builds not checked
Setting up Verlet run ...
  Unit style    : metal
  Current step  : 40667
  Time step     : 0.001
Per MPI rank memory allocation (min/avg/max) = 18.96 | 18.96 | 18.96 Mbytes
Step Temp Press TotEng PotEng Enthalpy Volume 
   40667    2388.2254    -348.0798   -69567.729   -75634.039   -69622.134    250421.73 
   40687    2401.9709   -976.96208   -69567.109   -75668.334   -69719.807    250418.56 
   41162    2357.9813   -480.09522   -69854.469   -75843.957   -69929.309    249755.74 
Loop time of 72.1876 on 1 procs for 495 steps with 19652 atoms

Performance: 0.592 ns/day, 40.509 hours/ns, 6.857 timesteps/s
99.6% CPU use with 1 MPI tasks x no OpenMP threads

MPI task timing breakdown:
Section |  min time  |  avg time  |  max time  |%varavg| %total
---------------------------------------------------------------
Pair    | 38.832     | 38.832     | 38.832     |   0.0 | 53.79
Neigh   | 32.116     | 32.116     | 32.116     |   0.0 | 44.49
Comm    | 0.44534    | 0.44534    | 0.44534    |   0.0 |  0.62
Output  | 0.064243   | 0.064243   | 0.064243   |   0.0 |  0.09
Modify  | 0.55756    | 0.55756    | 0.55756    |   0.0 |  0.77
Other   |            | 0.1722     |            |       |  0.24

Nlocal:    19652 ave 19652 max 19652 min
Histogram: 1 0 0 0 0 0 0 0 0 0
Nghost:    19642 ave 19642 max 19642 min
Histogram: 1 0 0 0 0 0 0 0 0 0
Neighs:    1.76598e+06 ave 1.76598e+06 max 1.76598e+06 min
Histogram: 1 0 0 0 0 0 0 0 0 0

Total # of neighbors = 1765983
Ave neighs/atom = 89.8628
Neighbor list builds = 495
Dangerous builds not checked
Setting up Verlet run ...
  Unit style    : metal
  Current step  : 41162
  Time step     : 0.001
Per MPI rank memory allocation (min/avg/max) = 18.96 | 18.96 | 18.96 Mbytes
Step Temp Press TotEng PotEng Enthalpy Volume 
   41162    2357.9813   -480.09522   -69854.469   -75843.957   -69929.309    249755.74 
   41334     2365.109    34.507051   -69840.004   -75847.597   -69834.628    249598.55 
Loop time of 24.4806 on 1 procs for 172 steps with 19652 atoms

Performance: 0.607 ns/day, 39.536 hours/ns, 7.026 timesteps/s
100.0% CPU use with 1 MPI tasks x no OpenMP threads

MPI task timing breakdown:
Section |  min time  |  avg time  |  max time  |%varavg| %total
---------------------------------------------------------------
Pair    | 13.217     | 13.217     | 13.217     |   0.0 | 53.99
Neigh   | 10.865     | 10.865     | 10.865     |   0.0 | 44.38
Comm    | 0.15093    | 0.15093    | 0.15093    |   0.0 |  0.62
Output  | 0.00017905 | 0.00017905 | 0.00017905 |   0.0 |  0.00
Modify  | 0.18802    | 0.18802    | 0.18802    |   0.0 |  0.77
Other   |            | 0.05914    |            |       |  0.24

Nlocal:    19652 ave 19652 max 19652 min
Histogram: 1 0 0 0 0 0 0 0 0 0
Nghost:    19680 ave 19680 max 19680 min
Histogram: 1 0 0 0 0 0 0 0 0 0
Neighs:    1.76771e+06 ave 1.76771e+06 max 1.76771e+06 min
Histogram: 1 0 0 0 0 0 0 0 0 0

Total # of neighbors = 1767710
Ave neighs/atom = 89.9506
Neighbor list builds = 172
Dangerous builds not checked
Setting up Verlet run ...
  Unit style    : metal
  Current step  : 41334
  Time step     : 0.001
Per MPI rank memory allocation (min/avg/max) = 18.96 | 18.96 | 18.96 Mbytes
Step Temp Press TotEng PotEng Enthalpy Volume 
   41334     2365.109    34.507051   -69840.004   -75847.597   -69834.628    249598.55 
   41354    2356.4668    258.40333   -69841.512   -75827.152   -69801.256     249599.1 
   41829    2306.2048   -12.281821   -70149.625   -76007.595   -70151.533    248885.02 
Loop time of 74.6429 on 1 procs for 495 steps with 19652 atoms

Performance: 0.573 ns/day, 41.887 hours/ns, 6.632 timesteps/s
99.9% CPU use with 1 MPI tasks x no OpenMP threads

MPI task timing breakdown:
Section |  min time  |  avg time  |  max time  |%varavg| %total
---------------------------------------------------------------
Pair    | 40.201     | 40.201     | 40.201     |   0.0 | 53.86
Neigh   | 33.149     | 33.149     | 33.149     |   0.0 | 44.41
Comm    | 0.45772    | 0.45772    | 0.45772    |   0.0 |  0.61
Output  | 0.086817   | 0.086817   | 0.086817   |   0.0 |  0.12
Modify  | 0.57253    | 0.57253    | 0.57253    |   0.0 |  0.77
Other   |            | 0.1763     |            |       |  0.24

Nlocal:    19652 ave 19652 max 19652 min
Histogram: 1 0 0 0 0 0 0 0 0 0
Nghost:    19742 ave 19742 max 19742 min
Histogram: 1 0 0 0 0 0 0 0 0 0
Neighs:    1.7717e+06 ave 1.7717e+06 max 1.7717e+06 min
Histogram: 1 0 0 0 0 0 0 0 0 0

Total # of neighbors = 1771705
Ave neighs/atom = 90.1539
Neighbor list builds = 495
Dangerous builds not checked
Setting up Verlet run ...
  Unit style    : metal
  Current step  : 41829
  Time step     : 0.001
Per MPI rank memory allocation (min/avg/max) = 18.96 | 18.96 | 18.96 Mbytes
Step Temp Press TotEng PotEng Enthalpy Volume 
   41829    2306.2048   -12.281821   -70149.625   -76007.595   -70151.533    248885.02 
   42001     2297.519   -1237.9961   -70214.546   -76050.453   -70406.887    248921.77 
Loop time of 23.0383 on 1 procs for 172 steps with 19652 atoms

Performance: 0.645 ns/day, 37.206 hours/ns, 7.466 timesteps/s
100.0% CPU use with 1 MPI tasks x no OpenMP threads

MPI task timing breakdown:
Section |  min time  |  avg time  |  max time  |%varavg| %total
---------------------------------------------------------------
Pair    | 12.397     | 12.397     | 12.397     |   0.0 | 53.81
Neigh   | 10.271     | 10.271     | 10.271     |   0.0 | 44.58
Comm    | 0.14054    | 0.14054    | 0.14054    |   0.0 |  0.61
Output  | 0.00013399 | 0.00013399 | 0.00013399 |   0.0 |  0.00
Modify  | 0.1745     | 0.1745     | 0.1745     |   0.0 |  0.76
Other   |            | 0.05508    |            |       |  0.24

Nlocal:    19652 ave 19652 max 19652 min
Histogram: 1 0 0 0 0 0 0 0 0 0
Nghost:    19731 ave 19731 max 19731 min
Histogram: 1 0 0 0 0 0 0 0 0 0
Neighs:    1.77133e+06 ave 1.77133e+06 max 1.77133e+06 min
Histogram: 1 0 0 0 0 0 0 0 0 0

Total # of neighbors = 1771333
Ave neighs/atom = 90.135
Neighbor list builds = 172
Dangerous builds not checked
Setting up Verlet run ...
  Unit style    : metal
  Current step  : 42001
  Time step     : 0.001
Per MPI rank memory allocation (min/avg/max) = 18.96 | 18.96 | 18.96 Mbytes
Step Temp Press TotEng PotEng Enthalpy Volume 
   42001     2297.519   -1237.9961   -70214.546   -76050.453   -70406.887    248921.77 
   42021    2306.4674   -1515.5936   -70214.402   -76073.039   -70449.864    248914.06 
   42496    2259.8555   -173.71448   -70475.727   -76215.966   -70502.627    248100.62 
Loop time of 72.4611 on 1 procs for 495 steps with 19652 atoms

Performance: 0.590 ns/day, 40.663 hours/ns, 6.831 timesteps/s
99.7% CPU use with 1 MPI tasks x no OpenMP threads

MPI task timing breakdown:
Section |  min time  |  avg time  |  max time  |%varavg| %total
---------------------------------------------------------------
Pair    | 38.857     | 38.857     | 38.857     |   0.0 | 53.62
Neigh   | 32.182     | 32.182     | 32.182     |   0.0 | 44.41
Comm    | 0.44185    | 0.44185    | 0.44185    |   0.0 |  0.61
Output  | 0.26286    | 0.26286    | 0.26286    |   0.0 |  0.36
Modify  | 0.54771    | 0.54771    | 0.54771    |   0.0 |  0.76
Other   |            | 0.1699     |            |       |  0.23

Nlocal:    19652 ave 19652 max 19652 min
Histogram: 1 0 0 0 0 0 0 0 0 0
Nghost:    19792 ave 19792 max 19792 min
Histogram: 1 0 0 0 0 0 0 0 0 0
Neighs:    1.7777e+06 ave 1.7777e+06 max 1.7777e+06 min
Histogram: 1 0 0 0 0 0 0 0 0 0

Total # of neighbors = 1777705
Ave neighs/atom = 90.4592
Neighbor list builds = 495
Dangerous builds not checked
Setting up Verlet run ...
  Unit style    : metal
  Current step  : 42496
  Time step     : 0.001
Per MPI rank memory allocation (min/avg/max) = 18.96 | 18.96 | 18.96 Mbytes
Step Temp Press TotEng PotEng Enthalpy Volume 
   42496    2259.8555   -173.71448   -70475.727   -76215.966   -70502.627    248100.62 
   42668    2249.6052    279.54456   -70574.124   -76288.326   -70530.867    247923.34 
Loop time of 23.591 on 1 procs for 172 steps with 19652 atoms

Performance: 0.630 ns/day, 38.099 hours/ns, 7.291 timesteps/s
100.0% CPU use with 1 MPI tasks x no OpenMP threads

MPI task timing breakdown:
Section |  min time  |  avg time  |  max time  |%varavg| %total
---------------------------------------------------------------
Pair    | 12.704     | 12.704     | 12.704     |   0.0 | 53.85
Neigh   | 10.503     | 10.503     | 10.503     |   0.0 | 44.52
Comm    | 0.14407    | 0.14407    | 0.14407    |   0.0 |  0.61
Output  | 0.00018311 | 0.00018311 | 0.00018311 |   0.0 |  0.00
Modify  | 0.18249    | 0.18249    | 0.18249    |   0.0 |  0.77
Other   |            | 0.05702    |            |       |  0.24

Nlocal:    19652 ave 19652 max 19652 min
Histogram: 1 0 0 0 0 0 0 0 0 0
Nghost:    19734 ave 19734 max 19734 min
Histogram: 1 0 0 0 0 0 0 0 0 0
Neighs:    1.77894e+06 ave 1.77894e+06 max 1.77894e+06 min
Histogram: 1 0 0 0 0 0 0 0 0 0

Total # of neighbors = 1778938
Ave neighs/atom = 90.522
Neighbor list builds = 172
Dangerous builds not checked
Setting up Verlet run ...
  Unit style    : metal
  Current step  : 42668
  Time step     : 0.001
Per MPI rank memory allocation (min/avg/max) = 18.96 | 18.96 | 18.96 Mbytes
Step Temp Press TotEng PotEng Enthalpy Volume 
   42668    2249.6052    279.54456   -70574.124   -76288.326   -70530.867    247923.34 
   42688    2251.2524    410.34916   -70574.072   -76292.458   -70510.573    247925.58 
   43163    2214.8973    563.42159   -70830.208   -76456.249   -70743.287    247173.29 
Loop time of 71.4448 on 1 procs for 495 steps with 19652 atoms

Performance: 0.599 ns/day, 40.092 hours/ns, 6.928 timesteps/s
96.8% CPU use with 1 MPI tasks x no OpenMP threads

MPI task timing breakdown:
Section |  min time  |  avg time  |  max time  |%varavg| %total
---------------------------------------------------------------
Pair    | 37.314     | 37.314     | 37.314     |   0.0 | 52.23
Neigh   | 30.737     | 30.737     | 30.737     |   0.0 | 43.02
Comm    | 0.42063    | 0.42063    | 0.42063    |   0.0 |  0.59
Output  | 2.2851     | 2.2851     | 2.2851     |   0.0 |  3.20
Modify  | 0.52398    | 0.52398    | 0.52398    |   0.0 |  0.73
Other   |            | 0.1639     |            |       |  0.23

Nlocal:    19652 ave 19652 max 19652 min
Histogram: 1 0 0 0 0 0 0 0 0 0
Nghost:    19746 ave 19746 max 19746 min
Histogram: 1 0 0 0 0 0 0 0 0 0
Neighs:    1.7832e+06 ave 1.7832e+06 max 1.7832e+06 min
Histogram: 1 0 0 0 0 0 0 0 0 0

Total # of neighbors = 1783202
Ave neighs/atom = 90.739
Neighbor list builds = 495
Dangerous builds not checked
Setting up Verlet run ...
  Unit style    : metal
  Current step  : 43163
  Time step     : 0.001
Per MPI rank memory allocation (min/avg/max) = 18.96 | 18.96 | 18.96 Mbytes
Step Temp Press TotEng PotEng Enthalpy Volume 
   43163    2214.8973    563.42159   -70830.208   -76456.249   -70743.287    247173.29 
   43335    2192.5126   -1257.6289   -70901.839   -76471.021   -71095.985    247334.54 
Loop time of 24.0185 on 1 procs for 172 steps with 19652 atoms

Performance: 0.619 ns/day, 38.790 hours/ns, 7.161 timesteps/s
100.0% CPU use with 1 MPI tasks x no OpenMP threads

MPI task timing breakdown:
Section |  min time  |  avg time  |  max time  |%varavg| %total
---------------------------------------------------------------
Pair    | 13.014     | 13.014     | 13.014     |   0.0 | 54.18
Neigh   | 10.617     | 10.617     | 10.617     |   0.0 | 44.20
Comm    | 0.14718    | 0.14718    | 0.14718    |   0.0 |  0.61
Output  | 0.00013804 | 0.00013804 | 0.00013804 |   0.0 |  0.00
Modify  | 0.18319    | 0.18319    | 0.18319    |   0.0 |  0.76
Other   |            | 0.0573     |            |       |  0.24

Nlocal:    19652 ave 19652 max 19652 min
Histogram: 1 0 0 0 0 0 0 0 0 0
Nghost:    19788 ave 19788 max 19788 min
Histogram: 1 0 0 0 0 0 0 0 0 0
Neighs:    1.78315e+06 ave 1.78315e+06 max 1.78315e+06 min
Histogram: 1 0 0 0 0 0 0 0 0 0

Total # of neighbors = 1783152
Ave neighs/atom = 90.7364
Neighbor list builds = 172
Dangerous builds not checked
Setting up Verlet run ...
  Unit style    : metal
  Current step  : 43335
  Time step     : 0.001
Per MPI rank memory allocation (min/avg/max) = 18.96 | 18.96 | 18.96 Mbytes
Step Temp Press TotEng PotEng Enthalpy Volume 
   43335    2192.5126   -1257.6289   -70901.839   -76471.021   -71095.985    247334.54 
   43355    2193.2193   -1055.4011    -70901.13   -76472.107   -71064.052    247327.24 
   43830    2184.7161    693.32546   -71066.004   -76615.382   -70959.305    246564.91 
Loop time of 72.2677 on 1 procs for 495 steps with 19652 atoms

Performance: 0.592 ns/day, 40.554 hours/ns, 6.850 timesteps/s
98.5% CPU use with 1 MPI tasks x no OpenMP threads

MPI task timing breakdown:
Section |  min time  |  avg time  |  max time  |%varavg| %total
---------------------------------------------------------------
Pair    | 38.404     | 38.404     | 38.404     |   0.0 | 53.14
Neigh   | 31.628     | 31.628     | 31.628     |   0.0 | 43.77
Comm    | 0.43564    | 0.43564    | 0.43564    |   0.0 |  0.60
Output  | 1.096      | 1.096      | 1.096      |   0.0 |  1.52
Modify  | 0.53798    | 0.53798    | 0.53798    |   0.0 |  0.74
Other   |            | 0.1664     |            |       |  0.23

Nlocal:    19652 ave 19652 max 19652 min
Histogram: 1 0 0 0 0 0 0 0 0 0
Nghost:    19758 ave 19758 max 19758 min
Histogram: 1 0 0 0 0 0 0 0 0 0
Neighs:    1.7871e+06 ave 1.7871e+06 max 1.7871e+06 min
Histogram: 1 0 0 0 0 0 0 0 0 0

Total # of neighbors = 1787102
Ave neighs/atom = 90.9374
Neighbor list builds = 495
Dangerous builds not checked
Setting up Verlet run ...
  Unit style    : metal
  Current step  : 43830
  Time step     : 0.001
Per MPI rank memory allocation (min/avg/max) = 18.96 | 18.96 | 18.96 Mbytes
Step Temp Press TotEng PotEng Enthalpy Volume 
   43830    2184.7161    693.32546   -71066.004   -76615.382   -70959.305    246564.91 
   44002    2152.4447   -1801.3777   -71167.854    -76635.26   -71445.299    246764.01 
Loop time of 25.4091 on 1 procs for 172 steps with 19652 atoms

Performance: 0.585 ns/day, 41.035 hours/ns, 6.769 timesteps/s
97.1% CPU use with 1 MPI tasks x no OpenMP threads

MPI task timing breakdown:
Section |  min time  |  avg time  |  max time  |%varavg| %total
---------------------------------------------------------------
Pair    | 13.706     | 13.706     | 13.706     |   0.0 | 53.94
Neigh   | 11.276     | 11.276     | 11.276     |   0.0 | 44.38
Comm    | 0.16317    | 0.16317    | 0.16317    |   0.0 |  0.64
Output  | 0.00013399 | 0.00013399 | 0.00013399 |   0.0 |  0.00
Modify  | 0.20379    | 0.20379    | 0.20379    |   0.0 |  0.80
Other   |            | 0.05953    |            |       |  0.23

Nlocal:    19652 ave 19652 max 19652 min
Histogram: 1 0 0 0 0 0 0 0 0 0
Nghost:    19759 ave 19759 max 19759 min
Histogram: 1 0 0 0 0 0 0 0 0 0
Neighs:    1.78556e+06 ave 1.78556e+06 max 1.78556e+06 min
Histogram: 1 0 0 0 0 0 0 0 0 0

Total # of neighbors = 1785561
Ave neighs/atom = 90.859
Neighbor list builds = 172
Dangerous builds not checked
Setting up Verlet run ...
  Unit style    : metal
  Current step  : 44002
  Time step     : 0.001
Per MPI rank memory allocation (min/avg/max) = 18.96 | 18.96 | 18.96 Mbytes
Step Temp Press TotEng PotEng Enthalpy Volume 
   44002    2152.4447   -1801.3777   -71167.854    -76635.26   -71445.299    246764.01 
   44022    2153.8027    -1984.094   -71168.226   -76639.082   -71473.798    246752.29 
   44497    2112.7788   -1831.1334   -71466.245   -76832.895   -71747.538    246121.98 
Loop time of 73.5805 on 1 procs for 495 steps with 19652 atoms

Performance: 0.581 ns/day, 41.291 hours/ns, 6.727 timesteps/s
99.9% CPU use with 1 MPI tasks x no OpenMP threads

MPI task timing breakdown:
Section |  min time  |  avg time  |  max time  |%varavg| %total
---------------------------------------------------------------
Pair    | 39.828     | 39.828     | 39.828     |   0.0 | 54.13
Neigh   | 32.448     | 32.448     | 32.448     |   0.0 | 44.10
Comm    | 0.44759    | 0.44759    | 0.44759    |   0.0 |  0.61
Output  | 0.1344     | 0.1344     | 0.1344     |   0.0 |  0.18
Modify  | 0.55223    | 0.55223    | 0.55223    |   0.0 |  0.75
Other   |            | 0.1711     |            |       |  0.23

Nlocal:    19652 ave 19652 max 19652 min
Histogram: 1 0 0 0 0 0 0 0 0 0
Nghost:    19757 ave 19757 max 19757 min
Histogram: 1 0 0 0 0 0 0 0 0 0
Neighs:    1.79053e+06 ave 1.79053e+06 max 1.79053e+06 min
Histogram: 1 0 0 0 0 0 0 0 0 0

Total # of neighbors = 1790531
Ave neighs/atom = 91.1119
Neighbor list builds = 495
Dangerous builds not checked
Setting up Verlet run ...
  Unit style    : metal
  Current step  : 44497
  Time step     : 0.001
Per MPI rank memory allocation (min/avg/max) = 18.96 | 18.96 | 18.96 Mbytes
Step Temp Press TotEng PotEng Enthalpy Volume 
   44497    2112.7788   -1831.1334   -71466.245   -76832.895   -71747.538    246121.98 
   44669    2088.5782    1488.1084   -71551.629   -76856.808   -71323.624    245483.03 
Loop time of 23.8913 on 1 procs for 172 steps with 19652 atoms

Performance: 0.622 ns/day, 38.584 hours/ns, 7.199 timesteps/s
100.0% CPU use with 1 MPI tasks x no OpenMP threads

MPI task timing breakdown:
Section |  min time  |  avg time  |  max time  |%varavg| %total
---------------------------------------------------------------
Pair    | 12.917     | 12.917     | 12.917     |   0.0 | 54.07
Neigh   | 10.588     | 10.588     | 10.588     |   0.0 | 44.32
Comm    | 0.14601    | 0.14601    | 0.14601    |   0.0 |  0.61
Output  | 0.0001452  | 0.0001452  | 0.0001452  |   0.0 |  0.00
Modify  | 0.18319    | 0.18319    | 0.18319    |   0.0 |  0.77
Other   |            | 0.05648    |            |       |  0.24

Nlocal:    19652 ave 19652 max 19652 min
Histogram: 1 0 0 0 0 0 0 0 0 0
Nghost:    19844 ave 19844 max 19844 min
Histogram: 1 0 0 0 0 0 0 0 0 0
Neighs:    1.79501e+06 ave 1.79501e+06 max 1.79501e+06 min
Histogram: 1 0 0 0 0 0 0 0 0 0

Total # of neighbors = 1795012
Ave neighs/atom = 91.3399
Neighbor list builds = 172
Dangerous builds not checked
Setting up Verlet run ...
  Unit style    : metal
  Current step  : 44669
  Time step     : 0.001
Per MPI rank memory allocation (min/avg/max) = 18.96 | 18.96 | 18.96 Mbytes
Step Temp Press TotEng PotEng Enthalpy Volume 
   44669    2088.5782    1488.1084   -71551.629   -76856.808   -71323.624    245483.03 
   44689    2095.1234     1294.942   -71550.549   -76872.354   -71352.132    245492.79 
   45164     2077.344    1658.3878   -71789.171   -77065.814    -71535.92    244667.18 
Loop time of 76.7054 on 1 procs for 495 steps with 19652 atoms

Performance: 0.558 ns/day, 43.045 hours/ns, 6.453 timesteps/s
99.7% CPU use with 1 MPI tasks x no OpenMP threads

MPI task timing breakdown:
Section |  min time  |  avg time  |  max time  |%varavg| %total
---------------------------------------------------------------
Pair    | 41.787     | 41.787     | 41.787     |   0.0 | 54.48
Neigh   | 33.516     | 33.516     | 33.516     |   0.0 | 43.69
Comm    | 0.4697     | 0.4697     | 0.4697     |   0.0 |  0.61
Output  | 0.17786    | 0.17786    | 0.17786    |   0.0 |  0.23
Modify  | 0.57697    | 0.57697    | 0.57697    |   0.0 |  0.75
Other   |            | 0.1781     |            |       |  0.23

Nlocal:    19652 ave 19652 max 19652 min
Histogram: 1 0 0 0 0 0 0 0 0 0
Nghost:    19883 ave 19883 max 19883 min
Histogram: 1 0 0 0 0 0 0 0 0 0
Neighs:    1.80016e+06 ave 1.80016e+06 max 1.80016e+06 min
Histogram: 1 0 0 0 0 0 0 0 0 0

Total # of neighbors = 1800159
Ave neighs/atom = 91.6018
Neighbor list builds = 495
Dangerous builds not checked
Setting up Verlet run ...
  Unit style    : metal
  Current step  : 45164
  Time step     : 0.001
Per MPI rank memory allocation (min/avg/max) = 18.96 | 18.96 | 18.96 Mbytes
Step Temp Press TotEng PotEng Enthalpy Volume 
   45164     2077.344    1658.3878   -71789.171   -77065.814    -71535.92    244667.18 
   45336    2049.2587   -2276.8044   -71874.324   -77079.627   -72222.729     245171.2 
Loop time of 24.6602 on 1 procs for 172 steps with 19652 atoms

Performance: 0.603 ns/day, 39.826 hours/ns, 6.975 timesteps/s
100.0% CPU use with 1 MPI tasks x no OpenMP threads

MPI task timing breakdown:
Section |  min time  |  avg time  |  max time  |%varavg| %total
---------------------------------------------------------------
Pair    | 13.416     | 13.416     | 13.416     |   0.0 | 54.41
Neigh   | 10.845     | 10.845     | 10.845     |   0.0 | 43.98
Comm    | 0.15078    | 0.15078    | 0.15078    |   0.0 |  0.61
Output  | 0.0001421  | 0.0001421  | 0.0001421  |   0.0 |  0.00
Modify  | 0.1884     | 0.1884     | 0.1884     |   0.0 |  0.76
Other   |            | 0.05903    |            |       |  0.24

Nlocal:    19652 ave 19652 max 19652 min
Histogram: 1 0 0 0 0 0 0 0 0 0
Nghost:    19855 ave 19855 max 19855 min
Histogram: 1 0 0 0 0 0 0 0 0 0
Neighs:    1.79683e+06 ave 1.79683e+06 max 1.79683e+06 min
Histogram: 1 0 0 0 0 0 0 0 0 0

Total # of neighbors = 1796832
Ave neighs/atom = 91.4325
Neighbor list builds = 172
Dangerous builds not checked
Setting up Verlet run ...
  Unit style    : metal
  Current step  : 45336
  Time step     : 0.001
Per MPI rank memory allocation (min/avg/max) = 18.96 | 18.96 | 18.96 Mbytes
Step Temp Press TotEng PotEng Enthalpy Volume 
   45336    2049.2587   -2276.8044   -71874.324   -77079.627   -72222.729     245171.2 
   45356    2038.2629   -1892.1592   -71873.577    -77050.95   -72163.107    245158.01 
   45831    1996.1409    631.03196   -72132.392   -77202.772   -72036.171    244304.67 
Loop time of 77.5667 on 1 procs for 495 steps with 19652 atoms

Performance: 0.551 ns/day, 43.528 hours/ns, 6.382 timesteps/s
99.6% CPU use with 1 MPI tasks x no OpenMP threads

MPI task timing breakdown:
Section |  min time  |  avg time  |  max time  |%varavg| %total
---------------------------------------------------------------
Pair    | 42.137     | 42.137     | 42.137     |   0.0 | 54.32
Neigh   | 33.905     | 33.905     | 33.905     |   0.0 | 43.71
Comm    | 0.46715    | 0.46715    | 0.46715    |   0.0 |  0.60
Output  | 0.29529    | 0.29529    | 0.29529    |   0.0 |  0.38
Modify  | 0.58325    | 0.58325    | 0.58325    |   0.0 |  0.75
Other   |            | 0.179      |            |       |  0.23

Nlocal:    19652 ave 19652 max 19652 min
Histogram: 1 0 0 0 0 0 0 0 0 0
Nghost:    19863 ave 19863 max 19863 min
Histogram: 1 0 0 0 0 0 0 0 0 0
Neighs:    1.80311e+06 ave 1.80311e+06 max 1.80311e+06 min
Histogram: 1 0 0 0 0 0 0 0 0 0

Total # of neighbors = 1803110
Ave neighs/atom = 91.752
Neighbor list builds = 495
Dangerous builds not checked
Setting up Verlet run ...
  Unit style    : metal
  Current step  : 45831
  Time step     : 0.001
Per MPI rank memory allocation (min/avg/max) = 18.96 | 18.96 | 18.96 Mbytes
Step Temp Press TotEng PotEng Enthalpy Volume 
   45831    1996.1409    631.03196   -72132.392   -77202.772   -72036.171    244304.67 
   46003    1993.3935   -113.52085   -72216.351   -77279.752   -72233.648    244128.24 
Loop time of 26.9153 on 1 procs for 172 steps with 19652 atoms

Performance: 0.552 ns/day, 43.468 hours/ns, 6.390 timesteps/s
98.2% CPU use with 1 MPI tasks x no OpenMP threads

MPI task timing breakdown:
Section |  min time  |  avg time  |  max time  |%varavg| %total
---------------------------------------------------------------
Pair    | 14.757     | 14.757     | 14.757     |   0.0 | 54.83
Neigh   | 11.726     | 11.726     | 11.726     |   0.0 | 43.57
Comm    | 0.16695    | 0.16695    | 0.16695    |   0.0 |  0.62
Output  | 0.00016499 | 0.00016499 | 0.00016499 |   0.0 |  0.00
Modify  | 0.20284    | 0.20284    | 0.20284    |   0.0 |  0.75
Other   |            | 0.06233    |            |       |  0.23

Nlocal:    19652 ave 19652 max 19652 min
Histogram: 1 0 0 0 0 0 0 0 0 0
Nghost:    19886 ave 19886 max 19886 min
Histogram: 1 0 0 0 0 0 0 0 0 0
Neighs:    1.80417e+06 ave 1.80417e+06 max 1.80417e+06 min
Histogram: 1 0 0 0 0 0 0 0 0 0

Total # of neighbors = 1804173
Ave neighs/atom = 91.8061
Neighbor list builds = 172
Dangerous builds not checked
Setting up Verlet run ...
  Unit style    : metal
  Current step  : 46003
  Time step     : 0.001
Per MPI rank memory allocation (min/avg/max) = 18.96 | 18.96 | 18.96 Mbytes
Step Temp Press TotEng PotEng Enthalpy Volume 
   46003    1993.3935   -113.52085   -72216.351   -77279.752   -72233.648    244128.24 
   46023    1999.0741   -306.58189   -72215.474   -77293.304   -72262.189    244128.09 
   46498    1964.5848    205.89925   -72459.671   -77449.895   -72428.383    243456.86 
Loop time of 68.5664 on 1 procs for 495 steps with 19652 atoms

Performance: 0.624 ns/day, 38.477 hours/ns, 7.219 timesteps/s
98.7% CPU use with 1 MPI tasks x no OpenMP threads

MPI task timing breakdown:
Section |  min time  |  avg time  |  max time  |%varavg| %total
---------------------------------------------------------------
Pair    | 36.474     | 36.474     | 36.474     |   0.0 | 53.19
Neigh   | 30.035     | 30.035     | 30.035     |   0.0 | 43.80
Comm    | 0.42967    | 0.42967    | 0.42967    |   0.0 |  0.63
Output  | 0.96767    | 0.96767    | 0.96767    |   0.0 |  1.41
Modify  | 0.5202     | 0.5202     | 0.5202     |   0.0 |  0.76
Other   |            | 0.1404     |            |       |  0.20

Nlocal:    19652 ave 19652 max 19652 min
Histogram: 1 0 0 0 0 0 0 0 0 0
Nghost:    19880 ave 19880 max 19880 min
Histogram: 1 0 0 0 0 0 0 0 0 0
Neighs:    1.80889e+06 ave 1.80889e+06 max 1.80889e+06 min
Histogram: 1 0 0 0 0 0 0 0 0 0

Total # of neighbors = 1808889
Ave neighs/atom = 92.0461
Neighbor list builds = 495
Dangerous builds not checked
Setting up Verlet run ...
  Unit style    : metal
  Current step  : 46498
  Time step     : 0.001
Per MPI rank memory allocation (min/avg/max) = 18.96 | 18.96 | 18.96 Mbytes
Step Temp Press TotEng PotEng Enthalpy Volume 
   46498    1964.5848    205.89925   -72459.671   -77449.895   -72428.383    243456.86 
   46670    1945.4665   -437.03865    -72543.29   -77484.952   -72609.693    243433.62 
Loop time of 24.8732 on 1 procs for 172 steps with 19652 atoms

Performance: 0.597 ns/day, 40.170 hours/ns, 6.915 timesteps/s
98.7% CPU use with 1 MPI tasks x no OpenMP threads

MPI task timing breakdown:
Section |  min time  |  avg time  |  max time  |%varavg| %total
---------------------------------------------------------------
Pair    | 13.35      | 13.35      | 13.35      |   0.0 | 53.67
Neigh   | 11.127     | 11.127     | 11.127     |   0.0 | 44.74
Comm    | 0.15433    | 0.15433    | 0.15433    |   0.0 |  0.62
Output  | 0.00012398 | 0.00012398 | 0.00012398 |   0.0 |  0.00
Modify  | 0.18952    | 0.18952    | 0.18952    |   0.0 |  0.76
Other   |            | 0.05198    |            |       |  0.21

Nlocal:    19652 ave 19652 max 19652 min
Histogram: 1 0 0 0 0 0 0 0 0 0
Nghost:    19948 ave 19948 max 19948 min
Histogram: 1 0 0 0 0 0 0 0 0 0
Neighs:    1.80889e+06 ave 1.80889e+06 max 1.80889e+06 min
Histogram: 1 0 0 0 0 0 0 0 0 0

Total # of neighbors = 1808889
Ave neighs/atom = 92.0461
Neighbor list builds = 172
Dangerous builds not checked
Setting up Verlet run ...
  Unit style    : metal
  Current step  : 46670
  Time step     : 0.001
Per MPI rank memory allocation (min/avg/max) = 18.96 | 18.96 | 18.96 Mbytes
Step Temp Press TotEng PotEng Enthalpy Volume 
   46670    1945.4665   -437.03865    -72543.29   -77484.952   -72609.693    243433.62 
   46690    1943.3523   -457.25471   -72542.683   -77478.975   -72612.157    243431.06 
   47165    1913.2391   -101.20818    -72812.87   -77672.671   -72828.204    242745.79 
Loop time of 63.6209 on 1 procs for 495 steps with 19652 atoms

Performance: 0.672 ns/day, 35.702 hours/ns, 7.780 timesteps/s
100.0% CPU use with 1 MPI tasks x no OpenMP threads

MPI task timing breakdown:
Section |  min time  |  avg time  |  max time  |%varavg| %total
---------------------------------------------------------------
Pair    | 34.115     | 34.115     | 34.115     |   0.0 | 53.62
Neigh   | 28.428     | 28.428     | 28.428     |   0.0 | 44.68
Comm    | 0.39691    | 0.39691    | 0.39691    |   0.0 |  0.62
Output  | 0.066347   | 0.066347   | 0.066347   |   0.0 |  0.10
Modify  | 0.48358    | 0.48358    | 0.48358    |   0.0 |  0.76
Other   |            | 0.1307     |            |       |  0.21

Nlocal:    19652 ave 19652 max 19652 min
Histogram: 1 0 0 0 0 0 0 0 0 0
Nghost:    19935 ave 19935 max 19935 min
Histogram: 1 0 0 0 0 0 0 0 0 0
Neighs:    1.81405e+06 ave 1.81405e+06 max 1.81405e+06 min
Histogram: 1 0 0 0 0 0 0 0 0 0

Total # of neighbors = 1814054
Ave neighs/atom = 92.3089
Neighbor list builds = 495
Dangerous builds not checked
Setting up Verlet run ...
  Unit style    : metal
  Current step  : 47165
  Time step     : 0.001
Per MPI rank memory allocation (min/avg/max) = 18.96 | 18.96 | 18.96 Mbytes
Step Temp Press TotEng PotEng Enthalpy Volume 
   47165    1913.2391   -101.20818    -72812.87   -77672.671   -72828.204    242745.79 
   47337    1888.0976   -434.97672   -72889.446   -77685.386    -72955.32    242638.01 
Loop time of 21.8712 on 1 procs for 172 steps with 19652 atoms

Performance: 0.679 ns/day, 35.322 hours/ns, 7.864 timesteps/s
100.0% CPU use with 1 MPI tasks x no OpenMP threads

MPI task timing breakdown:
Section |  min time  |  avg time  |  max time  |%varavg| %total
---------------------------------------------------------------
Pair    | 11.758     | 11.758     | 11.758     |   0.0 | 53.76
Neigh   | 9.7654     | 9.7654     | 9.7654     |   0.0 | 44.65
Comm    | 0.13564    | 0.13564    | 0.13564    |   0.0 |  0.62
Output  | 0.00012183 | 0.00012183 | 0.00012183 |   0.0 |  0.00
Modify  | 0.16677    | 0.16677    | 0.16677    |   0.0 |  0.76
Other   |            | 0.04495    |            |       |  0.21

Nlocal:    19652 ave 19652 max 19652 min
Histogram: 1 0 0 0 0 0 0 0 0 0
Nghost:    19860 ave 19860 max 19860 min
Histogram: 1 0 0 0 0 0 0 0 0 0
Neighs:    1.8144e+06 ave 1.8144e+06 max 1.8144e+06 min
Histogram: 1 0 0 0 0 0 0 0 0 0

Total # of neighbors = 1814405
Ave neighs/atom = 92.3267
Neighbor list builds = 172
Dangerous builds not checked
Setting up Verlet run ...
  Unit style    : metal
  Current step  : 47337
  Time step     : 0.001
Per MPI rank memory allocation (min/avg/max) = 18.96 | 18.96 | 18.96 Mbytes
Step Temp Press TotEng PotEng Enthalpy Volume 
   47337    1888.0976   -434.97672   -72889.446   -77685.386    -72955.32    242638.01 
   47357    1890.9497   -425.45991   -72888.383   -77691.568   -72952.815    242634.78 
   47832    1866.6184   -77.705536   -73107.366   -77848.747   -73119.106    242061.53 
Loop time of 67.6452 on 1 procs for 495 steps with 19652 atoms

Performance: 0.632 ns/day, 37.960 hours/ns, 7.318 timesteps/s
99.9% CPU use with 1 MPI tasks x no OpenMP threads

MPI task timing breakdown:
Section |  min time  |  avg time  |  max time  |%varavg| %total
---------------------------------------------------------------
Pair    | 36.331     | 36.331     | 36.331     |   0.0 | 53.71
Neigh   | 30.164     | 30.164     | 30.164     |   0.0 | 44.59
Comm    | 0.42381    | 0.42381    | 0.42381    |   0.0 |  0.63
Output  | 0.065534   | 0.065534   | 0.065534   |   0.0 |  0.10
Modify  | 0.51997    | 0.51997    | 0.51997    |   0.0 |  0.77
Other   |            | 0.1404     |            |       |  0.21

Nlocal:    19652 ave 19652 max 19652 min
Histogram: 1 0 0 0 0 0 0 0 0 0
Nghost:    19896 ave 19896 max 19896 min
Histogram: 1 0 0 0 0 0 0 0 0 0
Neighs:    1.81805e+06 ave 1.81805e+06 max 1.81805e+06 min
Histogram: 1 0 0 0 0 0 0 0 0 0

Total # of neighbors = 1818049
Ave neighs/atom = 92.5122
Neighbor list builds = 495
Dangerous builds not checked
Setting up Verlet run ...
  Unit style    : metal
  Current step  : 47832
  Time step     : 0.001
Per MPI rank memory allocation (min/avg/max) = 18.96 | 18.96 | 18.96 Mbytes
Step Temp Press TotEng PotEng Enthalpy Volume 
   47832    1866.6184   -77.705536   -73107.366   -77848.747   -73119.106    242061.53 
   48004    1847.2726   -269.72778   -73193.007   -77885.248   -73233.729    241884.76 
Loop time of 24.0993 on 1 procs for 172 steps with 19652 atoms

Performance: 0.617 ns/day, 38.920 hours/ns, 7.137 timesteps/s
99.9% CPU use with 1 MPI tasks x no OpenMP threads

MPI task timing breakdown:
Section |  min time  |  avg time  |  max time  |%varavg| %total
---------------------------------------------------------------
Pair    | 13.049     | 13.049     | 13.049     |   0.0 | 54.15
Neigh   | 10.659     | 10.659     | 10.659     |   0.0 | 44.23
Comm    | 0.15046    | 0.15046    | 0.15046    |   0.0 |  0.62
Output  | 0.00012684 | 0.00012684 | 0.00012684 |   0.0 |  0.00
Modify  | 0.19025    | 0.19025    | 0.19025    |   0.0 |  0.79
Other   |            | 0.0503     |            |       |  0.21

Nlocal:    19652 ave 19652 max 19652 min
Histogram: 1 0 0 0 0 0 0 0 0 0
Nghost:    19972 ave 19972 max 19972 min
Histogram: 1 0 0 0 0 0 0 0 0 0
Neighs:    1.81913e+06 ave 1.81913e+06 max 1.81913e+06 min
Histogram: 1 0 0 0 0 0 0 0 0 0

Total # of neighbors = 1819131
Ave neighs/atom = 92.5672
Neighbor list builds = 172
Dangerous builds not checked
Setting up Verlet run ...
  Unit style    : metal
  Current step  : 48004
  Time step     : 0.001
Per MPI rank memory allocation (min/avg/max) = 18.96 | 18.96 | 18.96 Mbytes
Step Temp Press TotEng PotEng Enthalpy Volume 
   48004    1847.2726   -269.72778   -73193.007   -77885.248   -73233.729    241884.76 
   48024    1844.4719    201.75632   -73192.449   -77877.575   -73161.989    241884.84 
   48499    1818.1051   -728.68368   -73501.631   -78119.783   -73611.349    241240.97 
Loop time of 67.8049 on 1 procs for 495 steps with 19652 atoms

Performance: 0.631 ns/day, 38.050 hours/ns, 7.300 timesteps/s
99.9% CPU use with 1 MPI tasks x no OpenMP threads

MPI task timing breakdown:
Section |  min time  |  avg time  |  max time  |%varavg| %total
---------------------------------------------------------------
Pair    | 36.651     | 36.651     | 36.651     |   0.0 | 54.05
Neigh   | 30.014     | 30.014     | 30.014     |   0.0 | 44.27
Comm    | 0.42073    | 0.42073    | 0.42073    |   0.0 |  0.62
Output  | 0.06825    | 0.06825    | 0.06825    |   0.0 |  0.10
Modify  | 0.51185    | 0.51185    | 0.51185    |   0.0 |  0.75
Other   |            | 0.1388     |            |       |  0.20

Nlocal:    19652 ave 19652 max 19652 min
Histogram: 1 0 0 0 0 0 0 0 0 0
Nghost:    19941 ave 19941 max 19941 min
Histogram: 1 0 0 0 0 0 0 0 0 0
Neighs:    1.8235e+06 ave 1.8235e+06 max 1.8235e+06 min
Histogram: 1 0 0 0 0 0 0 0 0 0

Total # of neighbors = 1823503
Ave neighs/atom = 92.7897
Neighbor list builds = 495
Dangerous builds not checked
Setting up Verlet run ...
  Unit style    : metal
  Current step  : 48499
  Time step     : 0.001
Per MPI rank memory allocation (min/avg/max) = 18.96 | 18.96 | 18.96 Mbytes
Step Temp Press TotEng PotEng Enthalpy Volume 
   48499    1818.1051   -728.68368   -73501.631   -78119.783   -73611.349    241240.97 
   48671    1801.6507    99.560386   -73553.246   -78129.603   -73538.266    241063.34 
Loop time of 25.8162 on 1 procs for 172 steps with 19652 atoms

Performance: 0.576 ns/day, 41.693 hours/ns, 6.662 timesteps/s
99.4% CPU use with 1 MPI tasks x no OpenMP threads

MPI task timing breakdown:
Section |  min time  |  avg time  |  max time  |%varavg| %total
---------------------------------------------------------------
Pair    | 14.06      | 14.06      | 14.06      |   0.0 | 54.46
Neigh   | 11.34      | 11.34      | 11.34      |   0.0 | 43.93
Comm    | 0.16095    | 0.16095    | 0.16095    |   0.0 |  0.62
Output  | 0.00015712 | 0.00015712 | 0.00015712 |   0.0 |  0.00
Modify  | 0.20014    | 0.20014    | 0.20014    |   0.0 |  0.78
Other   |            | 0.05472    |            |       |  0.21

Nlocal:    19652 ave 19652 max 19652 min
Histogram: 1 0 0 0 0 0 0 0 0 0
Nghost:    19983 ave 19983 max 19983 min
Histogram: 1 0 0 0 0 0 0 0 0 0
Neighs:    1.82477e+06 ave 1.82477e+06 max 1.82477e+06 min
Histogram: 1 0 0 0 0 0 0 0 0 0

Total # of neighbors = 1824774
Ave neighs/atom = 92.8544
Neighbor list builds = 172
Dangerous builds not checked
Setting up Verlet run ...
  Unit style    : metal
  Current step  : 48671
  Time step     : 0.001
Per MPI rank memory allocation (min/avg/max) = 18.96 | 18.96 | 18.96 Mbytes
Step Temp Press TotEng PotEng Enthalpy Volume 
   48671    1801.6507    99.560386   -73553.246   -78129.603   -73538.266    241063.34 
   48691     1803.743    119.86084   -73554.035   -78135.706   -73536.001    241063.09 
   49166     1762.039   -206.87231   -73830.112   -78305.851   -73861.164     240495.4 
Loop time of 68.9033 on 1 procs for 495 steps with 19652 atoms

Performance: 0.621 ns/day, 38.666 hours/ns, 7.184 timesteps/s
100.0% CPU use with 1 MPI tasks x no OpenMP threads

MPI task timing breakdown:
Section |  min time  |  avg time  |  max time  |%varavg| %total
---------------------------------------------------------------
Pair    | 37.35      | 37.35      | 37.35      |   0.0 | 54.21
Neigh   | 30.361     | 30.361     | 30.361     |   0.0 | 44.06
Comm    | 0.41833    | 0.41833    | 0.41833    |   0.0 |  0.61
Output  | 0.083316   | 0.083316   | 0.083316   |   0.0 |  0.12
Modify  | 0.5281     | 0.5281     | 0.5281     |   0.0 |  0.77
Other   |            | 0.1624     |            |       |  0.24

Nlocal:    19652 ave 19652 max 19652 min
Histogram: 1 0 0 0 0 0 0 0 0 0
Nghost:    20021 ave 20021 max 20021 min
Histogram: 1 0 0 0 0 0 0 0 0 0
Neighs:    1.82865e+06 ave 1.82865e+06 max 1.82865e+06 min
Histogram: 1 0 0 0 0 0 0 0 0 0

Total # of neighbors = 1828651
Ave neighs/atom = 93.0516
Neighbor list builds = 495
Dangerous builds not checked
Setting up Verlet run ...
  Unit style    : metal
  Current step  : 49166
  Time step     : 0.001
Per MPI rank memory allocation (min/avg/max) = 18.96 | 18.96 | 18.96 Mbytes
Step Temp Press TotEng PotEng Enthalpy Volume 
   49166     1762.039   -206.87231   -73830.112   -78305.851   -73861.164     240495.4 
   49338    1747.3305    718.00252    -73915.89   -78354.269    -73808.29    240104.02 
Loop time of 26.0145 on 1 procs for 172 steps with 19652 atoms

Performance: 0.571 ns/day, 42.013 hours/ns, 6.612 timesteps/s
100.0% CPU use with 1 MPI tasks x no OpenMP threads

MPI task timing breakdown:
Section |  min time  |  avg time  |  max time  |%varavg| %total
---------------------------------------------------------------
Pair    | 14.31      | 14.31      | 14.31      |   0.0 | 55.01
Neigh   | 11.294     | 11.294     | 11.294     |   0.0 | 43.42
Comm    | 0.15625    | 0.15625    | 0.15625    |   0.0 |  0.60
Output  | 0.00016904 | 0.00016904 | 0.00016904 |   0.0 |  0.00
Modify  | 0.1933     | 0.1933     | 0.1933     |   0.0 |  0.74
Other   |            | 0.06051    |            |       |  0.23

Nlocal:    19652 ave 19652 max 19652 min
Histogram: 1 0 0 0 0 0 0 0 0 0
Nghost:    20017 ave 20017 max 20017 min
Histogram: 1 0 0 0 0 0 0 0 0 0
Neighs:    1.83119e+06 ave 1.83119e+06 max 1.83119e+06 min
Histogram: 1 0 0 0 0 0 0 0 0 0

Total # of neighbors = 1831192
Ave neighs/atom = 93.1809
Neighbor list builds = 172
Dangerous builds not checked
Setting up Verlet run ...
  Unit style    : metal
  Current step  : 49338
  Time step     : 0.001
Per MPI rank memory allocation (min/avg/max) = 18.96 | 18.96 | 18.96 Mbytes
Step Temp Press TotEng PotEng Enthalpy Volume 
   49338    1747.3305    718.00252    -73915.89   -78354.269    -73808.29    240104.02 
   49358    1757.5703    159.38337   -73915.899   -78380.288   -73892.013    240108.21 
   49833    1717.9413    351.64812   -74175.554   -78539.281   -74122.995    239470.86 
Loop time of 72.7648 on 1 procs for 495 steps with 19652 atoms

Performance: 0.588 ns/day, 40.833 hours/ns, 6.803 timesteps/s
99.3% CPU use with 1 MPI tasks x no OpenMP threads

MPI task timing breakdown:
Section |  min time  |  avg time  |  max time  |%varavg| %total
---------------------------------------------------------------
Pair    | 39.675     | 39.675     | 39.675     |   0.0 | 54.53
Neigh   | 31.849     | 31.849     | 31.849     |   0.0 | 43.77
Comm    | 0.4368     | 0.4368     | 0.4368     |   0.0 |  0.60
Output  | 0.085342   | 0.085342   | 0.085342   |   0.0 |  0.12
Modify  | 0.55089    | 0.55089    | 0.55089    |   0.0 |  0.76
Other   |            | 0.1668     |            |       |  0.23

Nlocal:    19652 ave 19652 max 19652 min
Histogram: 1 0 0 0 0 0 0 0 0 0
Nghost:    20084 ave 20084 max 20084 min
Histogram: 1 0 0 0 0 0 0 0 0 0
Neighs:    1.83612e+06 ave 1.83612e+06 max 1.83612e+06 min
Histogram: 1 0 0 0 0 0 0 0 0 0

Total # of neighbors = 1836117
Ave neighs/atom = 93.4316
Neighbor list builds = 495
Dangerous builds not checked
Setting up Verlet run ...
  Unit style    : metal
  Current step  : 49833
  Time step     : 0.001
Per MPI rank memory allocation (min/avg/max) = 18.96 | 18.96 | 18.96 Mbytes
Step Temp Press TotEng PotEng Enthalpy Volume 
   49833    1717.9413    351.64812   -74175.554   -78539.281   -74122.995    239470.86 
   50005    1712.8187   -1506.8984   -74252.644    -78603.36   -74477.949    239550.43 
Loop time of 25.5176 on 1 procs for 172 steps with 19652 atoms

Performance: 0.582 ns/day, 41.211 hours/ns, 6.740 timesteps/s
100.0% CPU use with 1 MPI tasks x no OpenMP threads

MPI task timing breakdown:
Section |  min time  |  avg time  |  max time  |%varavg| %total
---------------------------------------------------------------
Pair    | 13.982     | 13.982     | 13.982     |   0.0 | 54.79
Neigh   | 11.13      | 11.13      | 11.13      |   0.0 | 43.62
Comm    | 0.1537     | 0.1537     | 0.1537     |   0.0 |  0.60
Output  | 0.0001359  | 0.0001359  | 0.0001359  |   0.0 |  0.00
Modify  | 0.19389    | 0.19389    | 0.19389    |   0.0 |  0.76
Other   |            | 0.05726    |            |       |  0.22

Nlocal:    19652 ave 19652 max 19652 min
Histogram: 1 0 0 0 0 0 0 0 0 0
Nghost:    20058 ave 20058 max 20058 min
Histogram: 1 0 0 0 0 0 0 0 0 0
Neighs:    1.83473e+06 ave 1.83473e+06 max 1.83473e+06 min
Histogram: 1 0 0 0 0 0 0 0 0 0

Total # of neighbors = 1834732
Ave neighs/atom = 93.3611
Neighbor list builds = 172
Dangerous builds not checked
Setting up Verlet run ...
  Unit style    : metal
  Current step  : 50005
  Time step     : 0.001
Per MPI rank memory allocation (min/avg/max) = 18.96 | 18.96 | 18.96 Mbytes
Step Temp Press TotEng PotEng Enthalpy Volume 
   50005    1712.8187   -1506.8984   -74252.644    -78603.36   -74477.949    239550.43 
   50025    1691.7965   -429.68998   -74252.942   -78550.259   -74317.185    239542.49 
   50500    1674.1072    -962.4473   -74523.646   -78776.031   -74667.123    238844.41 
Loop time of 77.9146 on 1 procs for 495 steps with 19652 atoms

Performance: 0.549 ns/day, 43.723 hours/ns, 6.353 timesteps/s
100.0% CPU use with 1 MPI tasks x no OpenMP threads

MPI task timing breakdown:
Section |  min time  |  avg time  |  max time  |%varavg| %total
---------------------------------------------------------------
Pair    | 42.747     | 42.747     | 42.747     |   0.0 | 54.86
Neigh   | 33.849     | 33.849     | 33.849     |   0.0 | 43.44
Comm    | 0.4745     | 0.4745     | 0.4745     |   0.0 |  0.61
Output  | 0.075215   | 0.075215   | 0.075215   |   0.0 |  0.10
Modify  | 0.59033    | 0.59033    | 0.59033    |   0.0 |  0.76
Other   |            | 0.1783     |            |       |  0.23

Nlocal:    19652 ave 19652 max 19652 min
Histogram: 1 0 0 0 0 0 0 0 0 0
Nghost:    20078 ave 20078 max 20078 min
Histogram: 1 0 0 0 0 0 0 0 0 0
Neighs:    1.83983e+06 ave 1.83983e+06 max 1.83983e+06 min
Histogram: 1 0 0 0 0 0 0 0 0 0

Total # of neighbors = 1839827
Ave neighs/atom = 93.6203
Neighbor list builds = 495
Dangerous builds not checked
Setting up Verlet run ...
  Unit style    : metal
  Current step  : 50500
  Time step     : 0.001
Per MPI rank memory allocation (min/avg/max) = 18.96 | 18.96 | 18.96 Mbytes
Step Temp Press TotEng PotEng Enthalpy Volume 
   50500    1674.1072    -962.4473   -74523.646   -78776.031   -74667.123    238844.41 
   50672    1651.9094    185.82699   -74599.099     -78795.1   -74571.428    238579.59 
Loop time of 25.5283 on 1 procs for 172 steps with 19652 atoms

Performance: 0.582 ns/day, 41.228 hours/ns, 6.738 timesteps/s
99.9% CPU use with 1 MPI tasks x no OpenMP threads

MPI task timing breakdown:
Section |  min time  |  avg time  |  max time  |%varavg| %total
---------------------------------------------------------------
Pair    | 14.003     | 14.003     | 14.003     |   0.0 | 54.85
Neigh   | 11.113     | 11.113     | 11.113     |   0.0 | 43.53
Comm    | 0.15465    | 0.15465    | 0.15465    |   0.0 |  0.61
Output  | 0.00013304 | 0.00013304 | 0.00013304 |   0.0 |  0.00
Modify  | 0.19752    | 0.19752    | 0.19752    |   0.0 |  0.77
Other   |            | 0.06011    |            |       |  0.24

Nlocal:    19652 ave 19652 max 19652 min
Histogram: 1 0 0 0 0 0 0 0 0 0
Nghost:    20010 ave 20010 max 20010 min
Histogram: 1 0 0 0 0 0 0 0 0 0
Neighs:    1.84184e+06 ave 1.84184e+06 max 1.84184e+06 min
Histogram: 1 0 0 0 0 0 0 0 0 0

Total # of neighbors = 1841844
Ave neighs/atom = 93.723
Neighbor list builds = 172
Dangerous builds not checked
Setting up Verlet run ...
  Unit style    : metal
  Current step  : 50672
  Time step     : 0.001
Per MPI rank memory allocation (min/avg/max) = 18.96 | 18.96 | 18.96 Mbytes
Step Temp Press TotEng PotEng Enthalpy Volume 
   50672    1651.9094    185.82699   -74599.099     -78795.1   -74571.428    238579.59 
   50692    1654.3125   -177.11935   -74599.232   -78801.336   -74625.606    238580.79 
   51167    1608.5338   -135.32733   -74860.092   -78945.915     -74880.2    238062.24 
Loop time of 73.9341 on 1 procs for 495 steps with 19652 atoms

Performance: 0.578 ns/day, 41.489 hours/ns, 6.695 timesteps/s
99.9% CPU use with 1 MPI tasks x no OpenMP threads

MPI task timing breakdown:
Section |  min time  |  avg time  |  max time  |%varavg| %total
---------------------------------------------------------------
Pair    | 40.545     | 40.545     | 40.545     |   0.0 | 54.84
Neigh   | 32.137     | 32.137     | 32.137     |   0.0 | 43.47
Comm    | 0.44765    | 0.44765    | 0.44765    |   0.0 |  0.61
Output  | 0.078741   | 0.078741   | 0.078741   |   0.0 |  0.11
Modify  | 0.55475    | 0.55475    | 0.55475    |   0.0 |  0.75
Other   |            | 0.1709     |            |       |  0.23

Nlocal:    19652 ave 19652 max 19652 min
Histogram: 1 0 0 0 0 0 0 0 0 0
Nghost:    20036 ave 20036 max 20036 min
Histogram: 1 0 0 0 0 0 0 0 0 0
Neighs:    1.8461e+06 ave 1.8461e+06 max 1.8461e+06 min
Histogram: 1 0 0 0 0 0 0 0 0 0

Total # of neighbors = 1846100
Ave neighs/atom = 93.9395
Neighbor list builds = 495
Dangerous builds not checked
Setting up Verlet run ...
  Unit style    : metal
  Current step  : 51167
  Time step     : 0.001
Per MPI rank memory allocation (min/avg/max) = 18.96 | 18.96 | 18.96 Mbytes
Step Temp Press TotEng PotEng Enthalpy Volume 
   51167    1608.5338   -135.32733   -74860.092   -78945.915     -74880.2    238062.24 
   51339    1611.9993    67.267173   -74932.916   -79027.541   -74922.932    237787.42 
Loop time of 26.4913 on 1 procs for 172 steps with 19652 atoms

Performance: 0.561 ns/day, 42.783 hours/ns, 6.493 timesteps/s
100.0% CPU use with 1 MPI tasks x no OpenMP threads

MPI task timing breakdown:
Section |  min time  |  avg time  |  max time  |%varavg| %total
---------------------------------------------------------------
Pair    | 14.655     | 14.655     | 14.655     |   0.0 | 55.32
Neigh   | 11.408     | 11.408     | 11.408     |   0.0 | 43.06
Comm    | 0.16381    | 0.16381    | 0.16381    |   0.0 |  0.62
Output  | 0.00016308 | 0.00016308 | 0.00016308 |   0.0 |  0.00
Modify  | 0.20336    | 0.20336    | 0.20336    |   0.0 |  0.77
Other   |            | 0.06125    |            |       |  0.23

Nlocal:    19652 ave 19652 max 19652 min
Histogram: 1 0 0 0 0 0 0 0 0 0
Nghost:    20085 ave 20085 max 20085 min
Histogram: 1 0 0 0 0 0 0 0 0 0
Neighs:    1.84822e+06 ave 1.84822e+06 max 1.84822e+06 min
Histogram: 1 0 0 0 0 0 0 0 0 0

Total # of neighbors = 1848219
Ave neighs/atom = 94.0474
Neighbor list builds = 172
Dangerous builds not checked
Setting up Verlet run ...
  Unit style    : metal
  Current step  : 51339
  Time step     : 0.001
Per MPI rank memory allocation (min/avg/max) = 18.96 | 18.96 | 18.96 Mbytes
Step Temp Press TotEng PotEng Enthalpy Volume 
   51339    1611.9993    67.267173   -74932.916   -79027.541   -74922.932    237787.42 
   51359    1601.6402    600.76968   -74934.019   -79002.331   -74844.855    237788.92 
   51834    1561.0974   -1381.1392    -75211.08   -79176.409   -75415.755    237431.84 
Loop time of 72.7832 on 1 procs for 495 steps with 19652 atoms

Performance: 0.588 ns/day, 40.844 hours/ns, 6.801 timesteps/s
99.7% CPU use with 1 MPI tasks x no OpenMP threads

MPI task timing breakdown:
Section |  min time  |  avg time  |  max time  |%varavg| %total
---------------------------------------------------------------
Pair    | 39.8       | 39.8       | 39.8       |   0.0 | 54.68
Neigh   | 31.762     | 31.762     | 31.762     |   0.0 | 43.64
Comm    | 0.44698    | 0.44698    | 0.44698    |   0.0 |  0.61
Output  | 0.067804   | 0.067804   | 0.067804   |   0.0 |  0.09
Modify  | 0.54197    | 0.54197    | 0.54197    |   0.0 |  0.74
Other   |            | 0.1643     |            |       |  0.23

Nlocal:    19652 ave 19652 max 19652 min
Histogram: 1 0 0 0 0 0 0 0 0 0
Nghost:    20094 ave 20094 max 20094 min
Histogram: 1 0 0 0 0 0 0 0 0 0
Neighs:    1.84966e+06 ave 1.84966e+06 max 1.84966e+06 min
Histogram: 1 0 0 0 0 0 0 0 0 0

Total # of neighbors = 1849656
Ave neighs/atom = 94.1205
Neighbor list builds = 495
Dangerous builds not checked
Setting up Verlet run ...
  Unit style    : metal
  Current step  : 51834
  Time step     : 0.001
Per MPI rank memory allocation (min/avg/max) = 18.96 | 18.96 | 18.96 Mbytes
Step Temp Press TotEng PotEng Enthalpy Volume 
   51834    1561.0974   -1381.1392    -75211.08   -79176.409   -75415.755    237431.84 
   52006    1572.3608    104.15581    -75278.48    -79272.42   -75263.075    236963.26 
Loop time of 25.6759 on 1 procs for 172 steps with 19652 atoms

Performance: 0.579 ns/day, 41.466 hours/ns, 6.699 timesteps/s
100.0% CPU use with 1 MPI tasks x no OpenMP threads

MPI task timing breakdown:
Section |  min time  |  avg time  |  max time  |%varavg| %total
---------------------------------------------------------------
Pair    | 14.065     | 14.065     | 14.065     |   0.0 | 54.78
Neigh   | 11.2       | 11.2       | 11.2       |   0.0 | 43.62
Comm    | 0.1554     | 0.1554     | 0.1554     |   0.0 |  0.61
Output  | 0.0001688  | 0.0001688  | 0.0001688  |   0.0 |  0.00
Modify  | 0.19464    | 0.19464    | 0.19464    |   0.0 |  0.76
Other   |            | 0.0608     |            |       |  0.24

Nlocal:    19652 ave 19652 max 19652 min
Histogram: 1 0 0 0 0 0 0 0 0 0
Nghost:    20134 ave 20134 max 20134 min
Histogram: 1 0 0 0 0 0 0 0 0 0
Neighs:    1.85327e+06 ave 1.85327e+06 max 1.85327e+06 min
Histogram: 1 0 0 0 0 0 0 0 0 0

Total # of neighbors = 1853274
Ave neighs/atom = 94.3046
Neighbor list builds = 172
Dangerous builds not checked
Setting up Verlet run ...
  Unit style    : metal
  Current step  : 52006
  Time step     : 0.001
Per MPI rank memory allocation (min/avg/max) = 18.96 | 18.96 | 18.96 Mbytes
Step Temp Press TotEng PotEng Enthalpy Volume 
   52006    1572.3608    104.15581    -75278.48    -79272.42   -75263.075    236963.26 
   52026    1565.6145     563.3741   -75280.827    -79257.63   -75197.503    236964.44 
   52501      1517.42   -498.80633   -75531.176   -79385.561    -75604.84    236612.22 
Loop time of 72.5842 on 1 procs for 495 steps with 19652 atoms

Performance: 0.589 ns/day, 40.732 hours/ns, 6.820 timesteps/s
99.5% CPU use with 1 MPI tasks x no OpenMP threads

MPI task timing breakdown:
Section |  min time  |  avg time  |  max time  |%varavg| %total
---------------------------------------------------------------
Pair    | 39.671     | 39.671     | 39.671     |   0.0 | 54.66
Neigh   | 31.653     | 31.653     | 31.653     |   0.0 | 43.61
Comm    | 0.43896    | 0.43896    | 0.43896    |   0.0 |  0.60
Output  | 0.10808    | 0.10808    | 0.10808    |   0.0 |  0.15
Modify  | 0.54773    | 0.54773    | 0.54773    |   0.0 |  0.75
Other   |            | 0.1646     |            |       |  0.23

Nlocal:    19652 ave 19652 max 19652 min
Histogram: 1 0 0 0 0 0 0 0 0 0
Nghost:    20112 ave 20112 max 20112 min
Histogram: 1 0 0 0 0 0 0 0 0 0
Neighs:    1.85582e+06 ave 1.85582e+06 max 1.85582e+06 min
Histogram: 1 0 0 0 0 0 0 0 0 0

Total # of neighbors = 1855820
Ave neighs/atom = 94.4342
Neighbor list builds = 495
Dangerous builds not checked
Setting up Verlet run ...
  Unit style    : metal
  Current step  : 52501
  Time step     : 0.001
Per MPI rank memory allocation (min/avg/max) = 18.96 | 18.96 | 18.96 Mbytes
Step Temp Press TotEng PotEng Enthalpy Volume 
   52501      1517.42   -498.80633   -75531.176   -79385.561    -75604.84    236612.22 
   52673    1504.5269    888.32719    -75611.27   -79432.905   -75480.271    236266.98 
Loop time of 26.2454 on 1 procs for 172 steps with 19652 atoms

Performance: 0.566 ns/day, 42.386 hours/ns, 6.554 timesteps/s
98.6% CPU use with 1 MPI tasks x no OpenMP threads

MPI task timing breakdown:
Section |  min time  |  avg time  |  max time  |%varavg| %total
---------------------------------------------------------------
Pair    | 14.47      | 14.47      | 14.47      |   0.0 | 55.13
Neigh   | 11.343     | 11.343     | 11.343     |   0.0 | 43.22
Comm    | 0.162      | 0.162      | 0.162      |   0.0 |  0.62
Output  | 0.000139   | 0.000139   | 0.000139   |   0.0 |  0.00
Modify  | 0.21149    | 0.21149    | 0.21149    |   0.0 |  0.81
Other   |            | 0.05835    |            |       |  0.22

Nlocal:    19652 ave 19652 max 19652 min
Histogram: 1 0 0 0 0 0 0 0 0 0
Nghost:    20144 ave 20144 max 20144 min
Histogram: 1 0 0 0 0 0 0 0 0 0
Neighs:    1.85779e+06 ave 1.85779e+06 max 1.85779e+06 min
Histogram: 1 0 0 0 0 0 0 0 0 0

Total # of neighbors = 1857791
Ave neighs/atom = 94.5344
Neighbor list builds = 172
Dangerous builds not checked
Setting up Verlet run ...
  Unit style    : metal
  Current step  : 52673
  Time step     : 0.001
Per MPI rank memory allocation (min/avg/max) = 18.96 | 18.96 | 18.96 Mbytes
Step Temp Press TotEng PotEng Enthalpy Volume 
   52673    1504.5269    888.32719    -75611.27   -79432.905   -75480.271    236266.98 
   52693    1506.0798    808.47119   -75611.979   -79437.559   -75492.753    236274.66 
   53168    1475.8222   -2100.4643    -75883.49   -79632.212   -76192.838    235962.55 
Loop time of 72.555 on 1 procs for 495 steps with 19652 atoms

Performance: 0.589 ns/day, 40.715 hours/ns, 6.822 timesteps/s
100.0% CPU use with 1 MPI tasks x no OpenMP threads

MPI task timing breakdown:
Section |  min time  |  avg time  |  max time  |%varavg| %total
---------------------------------------------------------------
Pair    | 39.827     | 39.827     | 39.827     |   0.0 | 54.89
Neigh   | 31.498     | 31.498     | 31.498     |   0.0 | 43.41
Comm    | 0.4445     | 0.4445     | 0.4445     |   0.0 |  0.61
Output  | 0.06249    | 0.06249    | 0.06249    |   0.0 |  0.09
Modify  | 0.55564    | 0.55564    | 0.55564    |   0.0 |  0.77
Other   |            | 0.1671     |            |       |  0.23

Nlocal:    19652 ave 19652 max 19652 min
Histogram: 1 0 0 0 0 0 0 0 0 0
Nghost:    20169 ave 20169 max 20169 min
Histogram: 1 0 0 0 0 0 0 0 0 0
Neighs:    1.86017e+06 ave 1.86017e+06 max 1.86017e+06 min
Histogram: 1 0 0 0 0 0 0 0 0 0

Total # of neighbors = 1860170
Ave neighs/atom = 94.6555
Neighbor list builds = 495
Dangerous builds not checked
Setting up Verlet run ...
  Unit style    : metal
  Current step  : 53168
  Time step     : 0.001
Per MPI rank memory allocation (min/avg/max) = 18.96 | 18.96 | 18.96 Mbytes
Step Temp Press TotEng PotEng Enthalpy Volume 
   53168    1475.8222   -2100.4643    -75883.49   -79632.212   -76192.838    235962.55 
   53340    1461.0145    1699.3622   -75953.766   -79664.876   -75704.139    235350.76 
Loop time of 22.8936 on 1 procs for 172 steps with 19652 atoms

Performance: 0.649 ns/day, 36.973 hours/ns, 7.513 timesteps/s
100.0% CPU use with 1 MPI tasks x no OpenMP threads

MPI task timing breakdown:
Section |  min time  |  avg time  |  max time  |%varavg| %total
---------------------------------------------------------------
Pair    | 12.499     | 12.499     | 12.499     |   0.0 | 54.60
Neigh   | 10.032     | 10.032     | 10.032     |   0.0 | 43.82
Comm    | 0.13771    | 0.13771    | 0.13771    |   0.0 |  0.60
Output  | 0.0001328  | 0.0001328  | 0.0001328  |   0.0 |  0.00
Modify  | 0.17094    | 0.17094    | 0.17094    |   0.0 |  0.75
Other   |            | 0.05434    |            |       |  0.24

Nlocal:    19652 ave 19652 max 19652 min
Histogram: 1 0 0 0 0 0 0 0 0 0
Nghost:    20234 ave 20234 max 20234 min
Histogram: 1 0 0 0 0 0 0 0 0 0
Neighs:    1.86479e+06 ave 1.86479e+06 max 1.86479e+06 min
Histogram: 1 0 0 0 0 0 0 0 0 0

Total # of neighbors = 1864786
Ave neighs/atom = 94.8904
Neighbor list builds = 172
Dangerous builds not checked
Setting up Verlet run ...
  Unit style    : metal
  Current step  : 53340
  Time step     : 0.001
Per MPI rank memory allocation (min/avg/max) = 18.96 | 18.96 | 18.96 Mbytes
Step Temp Press TotEng PotEng Enthalpy Volume 
   53340    1461.0145    1699.3622   -75953.766   -79664.876   -75704.139    235350.76 
   53360    1458.5128    1492.9306   -75954.689   -79659.444   -75735.372    235365.39 
   53835    1418.0992   -595.80179   -76252.308   -79854.409   -76339.708    235027.34 
Loop time of 66.9425 on 1 procs for 495 steps with 19652 atoms

Performance: 0.639 ns/day, 37.566 hours/ns, 7.394 timesteps/s
99.7% CPU use with 1 MPI tasks x no OpenMP threads

MPI task timing breakdown:
Section |  min time  |  avg time  |  max time  |%varavg| %total
---------------------------------------------------------------
Pair    | 36.405     | 36.405     | 36.405     |   0.0 | 54.38
Neigh   | 29.408     | 29.408     | 29.408     |   0.0 | 43.93
Comm    | 0.4033     | 0.4033     | 0.4033     |   0.0 |  0.60
Output  | 0.068221   | 0.068221   | 0.068221   |   0.0 |  0.10
Modify  | 0.49991    | 0.49991    | 0.49991    |   0.0 |  0.75
Other   |            | 0.1576     |            |       |  0.24

Nlocal:    19652 ave 19652 max 19652 min
Histogram: 1 0 0 0 0 0 0 0 0 0
Nghost:    20202 ave 20202 max 20202 min
Histogram: 1 0 0 0 0 0 0 0 0 0
Neighs:    1.86685e+06 ave 1.86685e+06 max 1.86685e+06 min
Histogram: 1 0 0 0 0 0 0 0 0 0

Total # of neighbors = 1866851
Ave neighs/atom = 94.9955
Neighbor list builds = 495
Dangerous builds not checked
Setting up Verlet run ...
  Unit style    : metal
  Current step  : 53835
  Time step     : 0.001
Per MPI rank memory allocation (min/avg/max) = 18.96 | 18.96 | 18.96 Mbytes
Step Temp Press TotEng PotEng Enthalpy Volume 
   53835    1418.0992   -595.80179   -76252.308   -79854.409   -76339.708    235027.34 
   54007    1410.7521    878.96707   -76323.635   -79907.074   -76194.907    234643.85 
Loop time of 22.4523 on 1 procs for 172 steps with 19652 atoms

Performance: 0.662 ns/day, 36.260 hours/ns, 7.661 timesteps/s
99.6% CPU use with 1 MPI tasks x no OpenMP threads

MPI task timing breakdown:
Section |  min time  |  avg time  |  max time  |%varavg| %total
---------------------------------------------------------------
Pair    | 12.199     | 12.199     | 12.199     |   0.0 | 54.33
Neigh   | 9.8989     | 9.8989     | 9.8989     |   0.0 | 44.09
Comm    | 0.13299    | 0.13299    | 0.13299    |   0.0 |  0.59
Output  | 0.00012493 | 0.00012493 | 0.00012493 |   0.0 |  0.00
Modify  | 0.16822    | 0.16822    | 0.16822    |   0.0 |  0.75
Other   |            | 0.05332    |            |       |  0.24

Nlocal:    19652 ave 19652 max 19652 min
Histogram: 1 0 0 0 0 0 0 0 0 0
Nghost:    20153 ave 20153 max 20153 min
Histogram: 1 0 0 0 0 0 0 0 0 0
Neighs:    1.87006e+06 ave 1.87006e+06 max 1.87006e+06 min
Histogram: 1 0 0 0 0 0 0 0 0 0

Total # of neighbors = 1870063
Ave neighs/atom = 95.1589
Neighbor list builds = 172
Dangerous builds not checked
Setting up Verlet run ...
  Unit style    : metal
  Current step  : 54007
  Time step     : 0.001
Per MPI rank memory allocation (min/avg/max) = 18.96 | 18.96 | 18.96 Mbytes
Step Temp Press TotEng PotEng Enthalpy Volume 
   54007    1410.7521    878.96707   -76323.635   -79907.074   -76194.907    234643.85 
   54027    1404.7833    1140.5043   -76324.638   -79892.915   -76157.601     234652.2 
   54502    1371.8225   -1949.9299   -76618.356    -80102.91   -76903.474    234269.84 
Loop time of 79.351 on 1 procs for 495 steps with 19652 atoms

Performance: 0.539 ns/day, 44.529 hours/ns, 6.238 timesteps/s
99.9% CPU use with 1 MPI tasks x no OpenMP threads

MPI task timing breakdown:
Section |  min time  |  avg time  |  max time  |%varavg| %total
---------------------------------------------------------------
Pair    | 43.91      | 43.91      | 43.91      |   0.0 | 55.34
Neigh   | 34.139     | 34.139     | 34.139     |   0.0 | 43.02
Comm    | 0.48877    | 0.48877    | 0.48877    |   0.0 |  0.62
Output  | 0.056706   | 0.056706   | 0.056706   |   0.0 |  0.07
Modify  | 0.58753    | 0.58753    | 0.58753    |   0.0 |  0.74
Other   |            | 0.1693     |            |       |  0.21

Nlocal:    19652 ave 19652 max 19652 min
Histogram: 1 0 0 0 0 0 0 0 0 0
Nghost:    20173 ave 20173 max 20173 min
Histogram: 1 0 0 0 0 0 0 0 0 0
Neighs:    1.87146e+06 ave 1.87146e+06 max 1.87146e+06 min
Histogram: 1 0 0 0 0 0 0 0 0 0

Total # of neighbors = 1871455
Ave neighs/atom = 95.2297
Neighbor list builds = 495
Dangerous builds not checked
Setting up Verlet run ...
  Unit style    : metal
  Current step  : 54502
  Time step     : 0.001
Per MPI rank memory allocation (min/avg/max) = 18.96 | 18.96 | 18.96 Mbytes
Step Temp Press TotEng PotEng Enthalpy Volume 
   54502    1371.8225   -1949.9299   -76618.356    -80102.91   -76903.474    234269.84 
   54674    1353.1876    2018.2265   -76690.382   -80127.602   -76396.031    233671.98 
Loop time of 26.5787 on 1 procs for 172 steps with 19652 atoms

Performance: 0.559 ns/day, 42.924 hours/ns, 6.471 timesteps/s
98.2% CPU use with 1 MPI tasks x no OpenMP threads

MPI task timing breakdown:
Section |  min time  |  avg time  |  max time  |%varavg| %total
---------------------------------------------------------------
Pair    | 14.701     | 14.701     | 14.701     |   0.0 | 55.31
Neigh   | 11.45      | 11.45      | 11.45      |   0.0 | 43.08
Comm    | 0.16585    | 0.16585    | 0.16585    |   0.0 |  0.62
Output  | 0.000139   | 0.000139   | 0.000139   |   0.0 |  0.00
Modify  | 0.19776    | 0.19776    | 0.19776    |   0.0 |  0.74
Other   |            | 0.06353    |            |       |  0.24

Nlocal:    19652 ave 19652 max 19652 min
Histogram: 1 0 0 0 0 0 0 0 0 0
Nghost:    20292 ave 20292 max 20292 min
Histogram: 1 0 0 0 0 0 0 0 0 0
Neighs:    1.87739e+06 ave 1.87739e+06 max 1.87739e+06 min
Histogram: 1 0 0 0 0 0 0 0 0 0

Total # of neighbors = 1877393
Ave neighs/atom = 95.5319
Neighbor list builds = 172
Dangerous builds not checked
Setting up Verlet run ...
  Unit style    : metal
  Current step  : 54674
  Time step     : 0.001
Per MPI rank memory allocation (min/avg/max) = 18.96 | 18.96 | 18.96 Mbytes
Step Temp Press TotEng PotEng Enthalpy Volume 
   54674    1353.1876    2018.2265   -76690.382   -80127.602   -76396.031    233671.98 
   54694    1362.3428    1447.0761   -76691.061   -80151.536   -76479.995    233688.66 
   55169    1313.2243   -1874.3009   -76952.211    -80287.92   -77225.512    233621.57 
Loop time of 73.1774 on 1 procs for 495 steps with 19652 atoms

Performance: 0.584 ns/day, 41.065 hours/ns, 6.764 timesteps/s
99.8% CPU use with 1 MPI tasks x no OpenMP threads

MPI task timing breakdown:
Section |  min time  |  avg time  |  max time  |%varavg| %total
---------------------------------------------------------------
Pair    | 40.258     | 40.258     | 40.258     |   0.0 | 55.01
Neigh   | 31.683     | 31.683     | 31.683     |   0.0 | 43.30
Comm    | 0.44453    | 0.44453    | 0.44453    |   0.0 |  0.61
Output  | 0.074445   | 0.074445   | 0.074445   |   0.0 |  0.10
Modify  | 0.55188    | 0.55188    | 0.55188    |   0.0 |  0.75
Other   |            | 0.1655     |            |       |  0.23

Nlocal:    19652 ave 19652 max 19652 min
Histogram: 1 0 0 0 0 0 0 0 0 0
Nghost:    20200 ave 20200 max 20200 min
Histogram: 1 0 0 0 0 0 0 0 0 0
Neighs:    1.87656e+06 ave 1.87656e+06 max 1.87656e+06 min
Histogram: 1 0 0 0 0 0 0 0 0 0

Total # of neighbors = 1876560
Ave neighs/atom = 95.4895
Neighbor list builds = 495
Dangerous builds not checked
Setting up Verlet run ...
  Unit style    : metal
  Current step  : 55169
  Time step     : 0.001
Per MPI rank memory allocation (min/avg/max) = 18.96 | 18.96 | 18.96 Mbytes
Step Temp Press TotEng PotEng Enthalpy Volume 
   55169    1313.2243   -1874.3009   -76952.211    -80287.92   -77225.512    233621.57 
   55341    1320.7261    1338.2897   -77025.015    -80379.78   -76830.447    232932.87 
Loop time of 29.3615 on 1 procs for 172 steps with 19652 atoms

Performance: 0.506 ns/day, 47.419 hours/ns, 5.858 timesteps/s
99.8% CPU use with 1 MPI tasks x no OpenMP threads

MPI task timing breakdown:
Section |  min time  |  avg time  |  max time  |%varavg| %total
[...]
Modify  | 0.5016     | 0.5016     | 0.5016     |   0.0 |  0.71
Other   |            | 0.1349     |            |       |  0.19

Nlocal:    19652 ave 19652 max 19652 min
Histogram: 1 0 0 0 0 0 0 0 0 0
Nghost:    20678 ave 20678 max 20678 min
Histogram: 1 0 0 0 0 0 0 0 0 0
Neighs:    1.96805e+06 ave 1.96805e+06 max 1.96805e+06 min
Histogram: 1 0 0 0 0 0 0 0 0 0

Total # of neighbors = 1968051
Ave neighs/atom = 100.145
Neighbor list builds = 495
Dangerous builds not checked
Setting up Verlet run ...
  Unit style    : metal
  Current step  : 67175
  Time step     : 0.001
Per MPI rank memory allocation (min/avg/max) = 19.34 | 19.34 | 19.34 Mbytes
Step Temp Press TotEng PotEng Enthalpy Volume 
   67175    424.43154   -58.067489   -82661.094   -83739.189   -82669.148       222224 
   67347    409.25109   -22.801539   -82717.361   -83756.896   -82720.522    222122.47 
Loop time of 27.8159 on 1 procs for 172 steps with 19652 atoms

Performance: 0.534 ns/day, 44.922 hours/ns, 6.184 timesteps/s
100.0% CPU use with 1 MPI tasks x no OpenMP threads

MPI task timing breakdown:
Section |  min time  |  avg time  |  max time  |%varavg| %total
---------------------------------------------------------------
Pair    | 14.795     | 14.795     | 14.795     |   0.0 | 53.19
Neigh   | 12.601     | 12.601     | 12.601     |   0.0 | 45.30
Comm    | 0.16406    | 0.16406    | 0.16406    |   0.0 |  0.59
Output  | 0.00011492 | 0.00011492 | 0.00011492 |   0.0 |  0.00
Modify  | 0.2013     | 0.2013     | 0.2013     |   0.0 |  0.72
Other   |            | 0.05446    |            |       |  0.20

Nlocal:    19652 ave 19652 max 19652 min
Histogram: 1 0 0 0 0 0 0 0 0 0
Nghost:    20710 ave 20710 max 20710 min
Histogram: 1 0 0 0 0 0 0 0 0 0
Neighs:    1.96929e+06 ave 1.96929e+06 max 1.96929e+06 min
Histogram: 1 0 0 0 0 0 0 0 0 0

Total # of neighbors = 1969290
Ave neighs/atom = 100.208
Neighbor list builds = 172
Dangerous builds not checked
Setting up Verlet run ...
  Unit style    : metal
  Current step  : 67347
  Time step     : 0.001
Per MPI rank memory allocation (min/avg/max) = 19.34 | 19.34 | 19.34 Mbytes
Step Temp Press TotEng PotEng Enthalpy Volume 
   67347    409.25109   -22.801539   -82717.361   -83756.896   -82720.522    222122.47 
   67367     411.2054   -126.84358    -82718.49   -83762.989   -82736.075    222120.52 
   67842     375.9927     168.4683   -82928.415   -83883.471   -82905.098    221747.59 
Loop time of 71.5598 on 1 procs for 495 steps with 19652 atoms

Performance: 0.598 ns/day, 40.157 hours/ns, 6.917 timesteps/s
99.9% CPU use with 1 MPI tasks x no OpenMP threads

MPI task timing breakdown:
Section |  min time  |  avg time  |  max time  |%varavg| %total
---------------------------------------------------------------
Pair    | 37.819     | 37.819     | 37.819     |   0.0 | 52.85
Neigh   | 32.625     | 32.625     | 32.625     |   0.0 | 45.59
Comm    | 0.41442    | 0.41442    | 0.41442    |   0.0 |  0.58
Output  | 0.061198   | 0.061198   | 0.061198   |   0.0 |  0.09
Modify  | 0.50349    | 0.50349    | 0.50349    |   0.0 |  0.70
Other   |            | 0.1369     |            |       |  0.19

Nlocal:    19652 ave 19652 max 19652 min
Histogram: 1 0 0 0 0 0 0 0 0 0
Nghost:    20710 ave 20710 max 20710 min
Histogram: 1 0 0 0 0 0 0 0 0 0
Neighs:    1.97264e+06 ave 1.97264e+06 max 1.97264e+06 min
Histogram: 1 0 0 0 0 0 0 0 0 0

Total # of neighbors = 1972641
Ave neighs/atom = 100.379
Neighbor list builds = 495
Dangerous builds not checked
Setting up Verlet run ...
  Unit style    : metal
  Current step  : 67842
  Time step     : 0.001
Per MPI rank memory allocation (min/avg/max) = 19.34 | 19.34 | 19.34 Mbytes
Step Temp Press TotEng PotEng Enthalpy Volume 
   67842     375.9927     168.4683   -82928.415   -83883.471   -82905.098    221747.59 
   68014    362.30127    592.08014   -82983.546   -83903.824    -82901.64    221637.65 
Loop time of 23.7593 on 1 procs for 172 steps with 19652 atoms

Performance: 0.625 ns/day, 38.371 hours/ns, 7.239 timesteps/s
100.0% CPU use with 1 MPI tasks x no OpenMP threads

MPI task timing breakdown:
Section |  min time  |  avg time  |  max time  |%varavg| %total
---------------------------------------------------------------
Pair    | 12.531     | 12.531     | 12.531     |   0.0 | 52.74
Neigh   | 10.878     | 10.878     | 10.878     |   0.0 | 45.78
Comm    | 0.1379     | 0.1379     | 0.1379     |   0.0 |  0.58
Output  | 0.00011992 | 0.00011992 | 0.00011992 |   0.0 |  0.00
Modify  | 0.16681    | 0.16681    | 0.16681    |   0.0 |  0.70
Other   |            | 0.04527    |            |       |  0.19

Nlocal:    19652 ave 19652 max 19652 min
Histogram: 1 0 0 0 0 0 0 0 0 0
Nghost:    20726 ave 20726 max 20726 min
Histogram: 1 0 0 0 0 0 0 0 0 0
Neighs:    1.97315e+06 ave 1.97315e+06 max 1.97315e+06 min
Histogram: 1 0 0 0 0 0 0 0 0 0

Total # of neighbors = 1973150
Ave neighs/atom = 100.405
Neighbor list builds = 172
Dangerous builds not checked
Setting up Verlet run ...
  Unit style    : metal
  Current step  : 68014
  Time step     : 0.001
Per MPI rank memory allocation (min/avg/max) = 19.34 | 19.34 | 19.34 Mbytes
Step Temp Press TotEng PotEng Enthalpy Volume 
   68014    362.30127    592.08014   -82983.546   -83903.824    -82901.64    221637.65 
   68034    364.27197    243.49366   -82984.978   -83910.262   -82951.292    221654.06 
   68509    325.64735    1095.3577   -83195.517   -84022.691   -83044.273    221224.21 
Loop time of 69.3928 on 1 procs for 495 steps with 19652 atoms

Performance: 0.616 ns/day, 38.941 hours/ns, 7.133 timesteps/s
100.0% CPU use with 1 MPI tasks x no OpenMP threads

MPI task timing breakdown:
Section |  min time  |  avg time  |  max time  |%varavg| %total
---------------------------------------------------------------
Pair    | 36.612     | 36.612     | 36.612     |   0.0 | 52.76
Neigh   | 31.704     | 31.704     | 31.704     |   0.0 | 45.69
Comm    | 0.40153    | 0.40153    | 0.40153    |   0.0 |  0.58
Output  | 0.057091   | 0.057091   | 0.057091   |   0.0 |  0.08
Modify  | 0.48611    | 0.48611    | 0.48611    |   0.0 |  0.70
Other   |            | 0.1321     |            |       |  0.19

Nlocal:    19652 ave 19652 max 19652 min
Histogram: 1 0 0 0 0 0 0 0 0 0
Nghost:    20733 ave 20733 max 20733 min
Histogram: 1 0 0 0 0 0 0 0 0 0
Neighs:    1.9783e+06 ave 1.9783e+06 max 1.9783e+06 min
Histogram: 1 0 0 0 0 0 0 0 0 0

Total # of neighbors = 1978300
Ave neighs/atom = 100.667
Neighbor list builds = 495
Dangerous builds not checked
Setting up Verlet run ...
  Unit style    : metal
  Current step  : 68509
  Time step     : 0.001
Per MPI rank memory allocation (min/avg/max) = 19.34 | 19.34 | 19.34 Mbytes
Step Temp Press TotEng PotEng Enthalpy Volume 
   68509    325.64735    1095.3577   -83195.517   -84022.691   -83044.273    221224.21 
   68681    317.03589     717.9826   -83249.519   -84054.819   -83150.415    221151.05 
Loop time of 23.9463 on 1 procs for 172 steps with 19652 atoms

Performance: 0.621 ns/day, 38.673 hours/ns, 7.183 timesteps/s
100.0% CPU use with 1 MPI tasks x no OpenMP threads

MPI task timing breakdown:
Section |  min time  |  avg time  |  max time  |%varavg| %total
---------------------------------------------------------------
Pair    | 12.633     | 12.633     | 12.633     |   0.0 | 52.76
Neigh   | 10.958     | 10.958     | 10.958     |   0.0 | 45.76
Comm    | 0.13944    | 0.13944    | 0.13944    |   0.0 |  0.58
Output  | 0.00012112 | 0.00012112 | 0.00012112 |   0.0 |  0.00
Modify  | 0.16898    | 0.16898    | 0.16898    |   0.0 |  0.71
Other   |            | 0.04593    |            |       |  0.19

Nlocal:    19652 ave 19652 max 19652 min
Histogram: 1 0 0 0 0 0 0 0 0 0
Nghost:    20704 ave 20704 max 20704 min
Histogram: 1 0 0 0 0 0 0 0 0 0
Neighs:    1.9786e+06 ave 1.9786e+06 max 1.9786e+06 min
Histogram: 1 0 0 0 0 0 0 0 0 0

Total # of neighbors = 1978605
Ave neighs/atom = 100.682
Neighbor list builds = 172
Dangerous builds not checked
Setting up Verlet run ...
  Unit style    : metal
  Current step  : 68681
  Time step     : 0.001
Per MPI rank memory allocation (min/avg/max) = 19.34 | 19.34 | 19.34 Mbytes
Step Temp Press TotEng PotEng Enthalpy Volume 
   68681    317.03589     717.9826   -83249.519   -84054.819   -83150.415    221151.05 
   68701    316.81916    461.29457   -83251.475   -84056.225   -83187.795    221174.84 
   69176    278.03047    10.057716   -83458.477     -84164.7   -83457.091     220885.8 
Loop time of 68.8312 on 1 procs for 495 steps with 19652 atoms

Performance: 0.621 ns/day, 38.626 hours/ns, 7.192 timesteps/s
99.9% CPU use with 1 MPI tasks x no OpenMP threads

MPI task timing breakdown:
Section |  min time  |  avg time  |  max time  |%varavg| %total
---------------------------------------------------------------
Pair    | 36.373     | 36.373     | 36.373     |   0.0 | 52.84
Neigh   | 31.39      | 31.39      | 31.39      |   0.0 | 45.60
Comm    | 0.39802    | 0.39802    | 0.39802    |   0.0 |  0.58
Output  | 0.0581     | 0.0581     | 0.0581     |   0.0 |  0.08
Modify  | 0.48177    | 0.48177    | 0.48177    |   0.0 |  0.70
Other   |            | 0.1308     |            |       |  0.19

Nlocal:    19652 ave 19652 max 19652 min
Histogram: 1 0 0 0 0 0 0 0 0 0
Nghost:    20759 ave 20759 max 20759 min
Histogram: 1 0 0 0 0 0 0 0 0 0
Neighs:    1.98104e+06 ave 1.98104e+06 max 1.98104e+06 min
Histogram: 1 0 0 0 0 0 0 0 0 0

Total # of neighbors = 1981036
Ave neighs/atom = 100.806
Neighbor list builds = 495
Dangerous builds not checked
Setting up Verlet run ...
  Unit style    : metal
  Current step  : 69176
  Time step     : 0.001
Per MPI rank memory allocation (min/avg/max) = 19.34 | 19.34 | 19.34 Mbytes
Step Temp Press TotEng PotEng Enthalpy Volume 
   69176    278.03047    10.057716   -83458.477     -84164.7   -83457.091     220885.8 
   69348    267.44974    288.35893   -83511.457   -84190.804   -83471.726    220755.21 
Loop time of 23.9865 on 1 procs for 172 steps with 19652 atoms

Performance: 0.620 ns/day, 38.738 hours/ns, 7.171 timesteps/s
100.0% CPU use with 1 MPI tasks x no OpenMP threads

MPI task timing breakdown:
Section |  min time  |  avg time  |  max time  |%varavg| %total
---------------------------------------------------------------
Pair    | 12.678     | 12.678     | 12.678     |   0.0 | 52.86
Neigh   | 10.949     | 10.949     | 10.949     |   0.0 | 45.65
Comm    | 0.14321    | 0.14321    | 0.14321    |   0.0 |  0.60
Output  | 0.00012302 | 0.00012302 | 0.00012302 |   0.0 |  0.00
Modify  | 0.16982    | 0.16982    | 0.16982    |   0.0 |  0.71
Other   |            | 0.04592    |            |       |  0.19

Nlocal:    19652 ave 19652 max 19652 min
Histogram: 1 0 0 0 0 0 0 0 0 0
Nghost:    20767 ave 20767 max 20767 min
Histogram: 1 0 0 0 0 0 0 0 0 0
Neighs:    1.98229e+06 ave 1.98229e+06 max 1.98229e+06 min
Histogram: 1 0 0 0 0 0 0 0 0 0

Total # of neighbors = 1982290
Ave neighs/atom = 100.87
Neighbor list builds = 172
Dangerous builds not checked
Setting up Verlet run ...
  Unit style    : metal
  Current step  : 69348
  Time step     : 0.001
Per MPI rank memory allocation (min/avg/max) = 19.34 | 19.34 | 19.34 Mbytes
Step Temp Press TotEng PotEng Enthalpy Volume 
   69348    267.44974    288.35893   -83511.457   -84190.804   -83471.726    220755.21 
   69368    267.89363    184.64203   -83513.496   -84193.971   -83488.054    220766.09 
   69843    227.13316   -698.60605   -83715.904   -84292.843   -83812.058    220519.05 
Loop time of 69.9501 on 1 procs for 495 steps with 19652 atoms

Performance: 0.611 ns/day, 39.254 hours/ns, 7.076 timesteps/s
100.0% CPU use with 1 MPI tasks x no OpenMP threads

MPI task timing breakdown:
Section |  min time  |  avg time  |  max time  |%varavg| %total
---------------------------------------------------------------
Pair    | 37.064     | 37.064     | 37.064     |   0.0 | 52.99
Neigh   | 31.796     | 31.796     | 31.796     |   0.0 | 45.45
Comm    | 0.40571    | 0.40571    | 0.40571    |   0.0 |  0.58
Output  | 0.061737   | 0.061737   | 0.061737   |   0.0 |  0.09
Modify  | 0.49019    | 0.49019    | 0.49019    |   0.0 |  0.70
Other   |            | 0.1332     |            |       |  0.19

Nlocal:    19652 ave 19652 max 19652 min
Histogram: 1 0 0 0 0 0 0 0 0 0
Nghost:    20765 ave 20765 max 20765 min
Histogram: 1 0 0 0 0 0 0 0 0 0
Neighs:    1.98522e+06 ave 1.98522e+06 max 1.98522e+06 min
Histogram: 1 0 0 0 0 0 0 0 0 0

Total # of neighbors = 1985217
Ave neighs/atom = 101.019
Neighbor list builds = 495
Dangerous builds not checked
Setting up Verlet run ...
  Unit style    : metal
  Current step  : 69843
  Time step     : 0.001
Per MPI rank memory allocation (min/avg/max) = 19.34 | 19.34 | 19.34 Mbytes
Step Temp Press TotEng PotEng Enthalpy Volume 
   69843    227.13316   -698.60605   -83715.904   -84292.843   -83812.058    220519.05 
   70015    217.48718    669.52904   -83769.209   -84321.646   -83677.144    220309.76 
Loop time of 23.8104 on 1 procs for 172 steps with 19652 atoms

Performance: 0.624 ns/day, 38.453 hours/ns, 7.224 timesteps/s
100.0% CPU use with 1 MPI tasks x no OpenMP threads

MPI task timing breakdown:
Section |  min time  |  avg time  |  max time  |%varavg| %total
---------------------------------------------------------------
Pair    | 12.583     | 12.583     | 12.583     |   0.0 | 52.85
Neigh   | 10.874     | 10.874     | 10.874     |   0.0 | 45.67
Comm    | 0.13889    | 0.13889    | 0.13889    |   0.0 |  0.58
Output  | 0.00011921 | 0.00011921 | 0.00011921 |   0.0 |  0.00
Modify  | 0.16837    | 0.16837    | 0.16837    |   0.0 |  0.71
Other   |            | 0.04579    |            |       |  0.19

Nlocal:    19652 ave 19652 max 19652 min
Histogram: 1 0 0 0 0 0 0 0 0 0
Nghost:    20801 ave 20801 max 20801 min
Histogram: 1 0 0 0 0 0 0 0 0 0
Neighs:    1.98678e+06 ave 1.98678e+06 max 1.98678e+06 min
Histogram: 1 0 0 0 0 0 0 0 0 0

Total # of neighbors = 1986785
Ave neighs/atom = 101.098
Neighbor list builds = 172
Dangerous builds not checked
Setting up Verlet run ...
  Unit style    : metal
  Current step  : 70015
  Time step     : 0.001
Per MPI rank memory allocation (min/avg/max) = 19.34 | 19.34 | 19.34 Mbytes
Step Temp Press TotEng PotEng Enthalpy Volume 
   70015    217.48718    669.52904   -83769.209   -84321.646   -83677.144    220309.76 
   70035    216.95916    241.65371   -83771.196   -84322.292   -83737.963    220340.62 
   70510    179.82125    440.38199   -83971.321   -84428.083   -83910.844    220022.98 
Loop time of 69.4508 on 1 procs for 495 steps with 19652 atoms

Performance: 0.616 ns/day, 38.974 hours/ns, 7.127 timesteps/s
100.0% CPU use with 1 MPI tasks x no OpenMP threads

MPI task timing breakdown:
Section |  min time  |  avg time  |  max time  |%varavg| %total
---------------------------------------------------------------
Pair    | 36.803     | 36.803     | 36.803     |   0.0 | 52.99
Neigh   | 31.572     | 31.572     | 31.572     |   0.0 | 45.46
Comm    | 0.39988    | 0.39988    | 0.39988    |   0.0 |  0.58
Output  | 0.058039   | 0.058039   | 0.058039   |   0.0 |  0.08
Modify  | 0.48583    | 0.48583    | 0.48583    |   0.0 |  0.70
Other   |            | 0.1323     |            |       |  0.19

Nlocal:    19652 ave 19652 max 19652 min
Histogram: 1 0 0 0 0 0 0 0 0 0
Nghost:    20773 ave 20773 max 20773 min
Histogram: 1 0 0 0 0 0 0 0 0 0
Neighs:    1.99032e+06 ave 1.99032e+06 max 1.99032e+06 min
Histogram: 1 0 0 0 0 0 0 0 0 0

Total # of neighbors = 1990319
Ave neighs/atom = 101.278
Neighbor list builds = 495
Dangerous builds not checked
Setting up Verlet run ...
  Unit style    : metal
  Current step  : 70510
  Time step     : 0.001
Per MPI rank memory allocation (min/avg/max) = 19.34 | 19.34 | 19.34 Mbytes
Step Temp Press TotEng PotEng Enthalpy Volume 
   70510    179.82125    440.38199   -83971.321   -84428.083   -83910.844    220022.98 
   70682     169.6174   -74.660486   -84024.452   -84455.295   -84034.703     219986.1 
Loop time of 24.0654 on 1 procs for 172 steps with 19652 atoms

Performance: 0.618 ns/day, 38.865 hours/ns, 7.147 timesteps/s
99.7% CPU use with 1 MPI tasks x no OpenMP threads

MPI task timing breakdown:
Section |  min time  |  avg time  |  max time  |%varavg| %total
---------------------------------------------------------------
Pair    | 12.777     | 12.777     | 12.777     |   0.0 | 53.09
Neigh   | 10.935     | 10.935     | 10.935     |   0.0 | 45.44
Comm    | 0.13836    | 0.13836    | 0.13836    |   0.0 |  0.57
Output  | 0.00012708 | 0.00012708 | 0.00012708 |   0.0 |  0.00
Modify  | 0.16893    | 0.16893    | 0.16893    |   0.0 |  0.70
Other   |            | 0.04608    |            |       |  0.19

Nlocal:    19652 ave 19652 max 19652 min
Histogram: 1 0 0 0 0 0 0 0 0 0
Nghost:    20790 ave 20790 max 20790 min
Histogram: 1 0 0 0 0 0 0 0 0 0
Neighs:    1.99045e+06 ave 1.99045e+06 max 1.99045e+06 min
Histogram: 1 0 0 0 0 0 0 0 0 0

Total # of neighbors = 1990448
Ave neighs/atom = 101.285
Neighbor list builds = 172
Dangerous builds not checked
Setting up Verlet run ...
  Unit style    : metal
  Current step  : 70682
  Time step     : 0.001
Per MPI rank memory allocation (min/avg/max) = 19.34 | 19.34 | 19.34 Mbytes
Step Temp Press TotEng PotEng Enthalpy Volume 
   70682     169.6174   -74.660486   -84024.452   -84455.295   -84034.703     219986.1 
   70702     169.3972   -46.221201   -84026.728   -84457.013   -84033.075    219981.51 
   71177    131.81241    143.25239   -84221.361   -84556.177   -84201.723    219641.05 
Loop time of 70.674 on 1 procs for 495 steps with 19652 atoms

Performance: 0.605 ns/day, 39.660 hours/ns, 7.004 timesteps/s
99.7% CPU use with 1 MPI tasks x no OpenMP threads

MPI task timing breakdown:
Section |  min time  |  avg time  |  max time  |%varavg| %total
---------------------------------------------------------------
Pair    | 37.499     | 37.499     | 37.499     |   0.0 | 53.06
Neigh   | 32.078     | 32.078     | 32.078     |   0.0 | 45.39
Comm    | 0.40753    | 0.40753    | 0.40753    |   0.0 |  0.58
Output  | 0.055369   | 0.055369   | 0.055369   |   0.0 |  0.08
Modify  | 0.4977     | 0.4977     | 0.4977     |   0.0 |  0.70
Other   |            | 0.1356     |            |       |  0.19

Nlocal:    19652 ave 19652 max 19652 min
Histogram: 1 0 0 0 0 0 0 0 0 0
Nghost:    20788 ave 20788 max 20788 min
Histogram: 1 0 0 0 0 0 0 0 0 0
Neighs:    1.9938e+06 ave 1.9938e+06 max 1.9938e+06 min
Histogram: 1 0 0 0 0 0 0 0 0 0

Total # of neighbors = 1993795
Ave neighs/atom = 101.455
Neighbor list builds = 495
Dangerous builds not checked
Setting up Verlet run ...
  Unit style    : metal
  Current step  : 71177
  Time step     : 0.001
Per MPI rank memory allocation (min/avg/max) = 19.34 | 19.34 | 19.34 Mbytes
Step Temp Press TotEng PotEng Enthalpy Volume 
   71177    131.81241    143.25239   -84221.361   -84556.177   -84201.723    219641.05 
   71349    122.00853    77.945338   -84273.925   -84583.838   -84263.243    219566.93 
Loop time of 23.8238 on 1 procs for 172 steps with 19652 atoms

Performance: 0.624 ns/day, 38.475 hours/ns, 7.220 timesteps/s
100.0% CPU use with 1 MPI tasks x no OpenMP threads

MPI task timing breakdown:
Section |  min time  |  avg time  |  max time  |%varavg| %total
---------------------------------------------------------------
Pair    | 12.636     | 12.636     | 12.636     |   0.0 | 53.04
Neigh   | 10.837     | 10.837     | 10.837     |   0.0 | 45.49
Comm    | 0.13817    | 0.13817    | 0.13817    |   0.0 |  0.58
Output  | 0.00012708 | 0.00012708 | 0.00012708 |   0.0 |  0.00
Modify  | 0.167      | 0.167      | 0.167      |   0.0 |  0.70
Other   |            | 0.04558    |            |       |  0.19

Nlocal:    19652 ave 19652 max 19652 min
Histogram: 1 0 0 0 0 0 0 0 0 0
Nghost:    20797 ave 20797 max 20797 min
Histogram: 1 0 0 0 0 0 0 0 0 0
Neighs:    1.99488e+06 ave 1.99488e+06 max 1.99488e+06 min
Histogram: 1 0 0 0 0 0 0 0 0 0

Total # of neighbors = 1994881
Ave neighs/atom = 101.51
Neighbor list builds = 172
Dangerous builds not checked
Total wall time: 3:02:34
