LAMMPS (12 Dec 2018)
Lattice spacing in x,y,z = 4 4 4
Created orthogonal box = (0 0 0) to (68 68 68)
  1 by 1 by 1 MPI processor grid
Created 19652 atoms
  Time spent = 0.00935698 secs
Setting atom values ...
  19652 settings made for type/fraction
Neighbor list info ...
  update every 1 steps, delay 0 steps, check no
  max neighbors/atom: 2000, page size: 100000
  master list distance cutoff = 8.5
  ghost atom cutoff = 8.5
  binsize = 4.25, bins = 16 16 16
  1 neighbor lists, perpetual/occasional/extra = 1 0 0
  (1) pair eam/alloy, perpetual
      attributes: half, newton on
      pair build: half/bin/atomonly/newton
      stencil: half/bin/3d/newton
      bin: standard
Setting up Verlet run ...
  Unit style    : metal
  Current step  : 0
  Time step     : 0.001
Per MPI rank memory allocation (min/avg/max) = 18.19 | 18.19 | 18.19 Mbytes
Step Temp Press TotEng PotEng Enthalpy 
       0          300    13251.401   -65138.774   -65900.801   -62538.146 
    1000    149.48887    20791.816   -65138.617   -65518.332    -61058.16 
Loop time of 172.624 on 1 procs for 1000 steps with 19652 atoms

Performance: 0.501 ns/day, 47.951 hours/ns, 5.793 timesteps/s
99.9% CPU use with 1 MPI tasks x no OpenMP threads

MPI task timing breakdown:
Section |  min time  |  avg time  |  max time  |%varavg| %total
---------------------------------------------------------------
Pair    | 105.54     | 105.54     | 105.54     |   0.0 | 61.14
Neigh   | 63.723     | 63.723     | 63.723     |   0.0 | 36.91
Comm    | 1.9378     | 1.9378     | 1.9378     |   0.0 |  1.12
Output  | 0.00025606 | 0.00025606 | 0.00025606 |   0.0 |  0.00
Modify  | 0.86531    | 0.86531    | 0.86531    |   0.0 |  0.50
Other   |            | 0.5621     |            |       |  0.33

Nlocal:    19652 ave 19652 max 19652 min
Histogram: 1 0 0 0 0 0 0 0 0 0
Nghost:    20102 ave 20102 max 20102 min
Histogram: 1 0 0 0 0 0 0 0 0 0
Neighs:    1.5726e+06 ave 1.5726e+06 max 1.5726e+06 min
Histogram: 1 0 0 0 0 0 0 0 0 0

Total # of neighbors = 1572598
Ave neighs/atom = 80.0223
Neighbor list builds = 1000
Dangerous builds not checked
Setting up Verlet run ...
  Unit style    : metal
  Current step  : 1000
  Time step     : 0.001
Per MPI rank memory allocation (min/avg/max) = 18.19 | 18.19 | 18.19 Mbytes
Step Temp Press TotEng PotEng Enthalpy 
    1000    149.48887    20791.816   -65138.617   -65518.332    -61058.16 
    2000    298.09376    -5.482065   -64371.427   -65128.613   -64372.544 
Loop time of 169.213 on 1 procs for 1000 steps with 19652 atoms

Performance: 0.511 ns/day, 47.004 hours/ns, 5.910 timesteps/s
99.7% CPU use with 1 MPI tasks x no OpenMP threads

MPI task timing breakdown:
Section |  min time  |  avg time  |  max time  |%varavg| %total
---------------------------------------------------------------
Pair    | 101.58     | 101.58     | 101.58     |   0.0 | 60.03
Neigh   | 63.387     | 63.387     | 63.387     |   0.0 | 37.46
Comm    | 1.7475     | 1.7475     | 1.7475     |   0.0 |  1.03
Output  | 0.00018787 | 0.00018787 | 0.00018787 |   0.0 |  0.00
Modify  | 1.985      | 1.985      | 1.985      |   0.0 |  1.17
Other   |            | 0.5164     |            |       |  0.31

Nlocal:    19652 ave 19652 max 19652 min
Histogram: 1 0 0 0 0 0 0 0 0 0
Nghost:    20102 ave 20102 max 20102 min
Histogram: 1 0 0 0 0 0 0 0 0 0
Neighs:    1.46993e+06 ave 1.46993e+06 max 1.46993e+06 min
Histogram: 1 0 0 0 0 0 0 0 0 0

Total # of neighbors = 1469931
Ave neighs/atom = 74.798
Neighbor list builds = 1000
Dangerous builds not checked
Setting up Verlet run ...
  Unit style    : metal
  Current step  : 2000
  Time step     : 0.001
Per MPI rank memory allocation (min/avg/max) = 18.19 | 18.19 | 18.19 Mbytes
Step Temp Press TotEng PotEng Enthalpy 
    2000    298.09376    -5.482065   -64371.427   -65128.613   -64372.544 
    5000    1047.5646    556.04238    -59239.73    -61900.64   -59113.443 
   10000    2485.3081    461.75071   -50463.812   -56776.721   -50334.235 
Loop time of 1292.99 on 1 procs for 8000 steps with 19652 atoms

Performance: 0.535 ns/day, 44.895 hours/ns, 6.187 timesteps/s
99.8% CPU use with 1 MPI tasks x no OpenMP threads

MPI task timing breakdown:
Section |  min time  |  avg time  |  max time  |%varavg| %total
---------------------------------------------------------------
Pair    | 740.5      | 740.5      | 740.5      |   0.0 | 57.27
Neigh   | 517.07     | 517.07     | 517.07     |   0.0 | 39.99
Comm    | 14.11      | 14.11      | 14.11      |   0.0 |  1.09
Output  | 0.1017     | 0.1017     | 0.1017     |   0.0 |  0.01
Modify  | 16.906     | 16.906     | 16.906     |   0.0 |  1.31
Other   |            | 4.3        |            |       |  0.33

Nlocal:    19652 ave 19652 max 19652 min
Histogram: 1 0 0 0 0 0 0 0 0 0
Nghost:    16214 ave 16214 max 16214 min
Histogram: 1 0 0 0 0 0 0 0 0 0
Neighs:    1.09757e+06 ave 1.09757e+06 max 1.09757e+06 min
Histogram: 1 0 0 0 0 0 0 0 0 0

Total # of neighbors = 1097574
Ave neighs/atom = 55.8505
Neighbor list builds = 8000
Dangerous builds not checked
Setting up Verlet run ...
  Unit style    : metal
  Current step  : 10000
  Time step     : 0.001
Per MPI rank memory allocation (min/avg/max) = 18.19 | 18.19 | 18.19 Mbytes
Step Temp Press TotEng PotEng Enthalpy 
   10000    2485.3081    461.75071   -50463.812   -56776.721   -50334.235 
   15000     2446.582   -112.32017   -50501.949   -56716.491   -50533.583 
   20000    2440.3925   -768.33882   -50459.757   -56658.577   -50676.926 
   25000    2432.4242    652.30846   -50514.398   -56692.977     -50330.9 
   30000    2443.4842   -1321.6636   -50490.587   -56697.259   -50863.842 
   35000    2445.4981    872.38269   -50555.311   -56767.099   -50310.784 
   40000     2467.464   -457.50367   -50331.802   -56599.386   -50461.263 
Loop time of 4186.76 on 1 procs for 30000 steps with 19652 atoms

Performance: 0.619 ns/day, 38.766 hours/ns, 7.165 timesteps/s
99.7% CPU use with 1 MPI tasks x no OpenMP threads

MPI task timing breakdown:
Section |  min time  |  avg time  |  max time  |%varavg| %total
---------------------------------------------------------------
Pair    | 2356.8     | 2356.8     | 2356.8     |   0.0 | 56.29
Neigh   | 1710.7     | 1710.7     | 1710.7     |   0.0 | 40.86
Comm    | 46.68      | 46.68      | 46.68      |   0.0 |  1.11
Output  | 0.30232    | 0.30232    | 0.30232    |   0.0 |  0.01
Modify  | 57.94      | 57.94      | 57.94      |   0.0 |  1.38
Other   |            | 14.3       |            |       |  0.34

Nlocal:    19652 ave 19652 max 19652 min
Histogram: 1 0 0 0 0 0 0 0 0 0
Nghost:    16096 ave 16096 max 16096 min
Histogram: 1 0 0 0 0 0 0 0 0 0
Neighs:    1.08825e+06 ave 1.08825e+06 max 1.08825e+06 min
Histogram: 1 0 0 0 0 0 0 0 0 0

Total # of neighbors = 1088248
Ave neighs/atom = 55.3759
Neighbor list builds = 30000
Dangerous builds not checked
Setting up Verlet run ...
  Unit style    : metal
  Current step  : 40000
  Time step     : 0.001
Per MPI rank memory allocation (min/avg/max) = 18.19 | 18.19 | 18.19 Mbytes
Step Temp Press TotEng PotEng Enthalpy 
   40000     2467.464   -457.50367   -50331.802   -56599.386   -50461.263 
   40495    2399.0534    779.35579   -50626.766    -56720.58   -50407.816 
Loop time of 66.1343 on 1 procs for 495 steps with 19652 atoms

Performance: 0.647 ns/day, 37.112 hours/ns, 7.485 timesteps/s
99.6% CPU use with 1 MPI tasks x no OpenMP threads

MPI task timing breakdown:
Section |  min time  |  avg time  |  max time  |%varavg| %total
---------------------------------------------------------------
Pair    | 37.068     | 37.068     | 37.068     |   0.0 | 56.05
Neigh   | 27.188     | 27.188     | 27.188     |   0.0 | 41.11
Comm    | 0.72726    | 0.72726    | 0.72726    |   0.0 |  1.10
Output  | 0.00019383 | 0.00019383 | 0.00019383 |   0.0 |  0.00
Modify  | 0.92416    | 0.92416    | 0.92416    |   0.0 |  1.40
Other   |            | 0.227      |            |       |  0.34

Nlocal:    19652 ave 19652 max 19652 min
Histogram: 1 0 0 0 0 0 0 0 0 0
Nghost:    16209 ave 16209 max 16209 min
Histogram: 1 0 0 0 0 0 0 0 0 0
Neighs:    1.09626e+06 ave 1.09626e+06 max 1.09626e+06 min
Histogram: 1 0 0 0 0 0 0 0 0 0

Total # of neighbors = 1096261
Ave neighs/atom = 55.7837
Neighbor list builds = 495
Dangerous builds not checked
Setting up Verlet run ...
  Unit style    : metal
  Current step  : 40495
  Time step     : 0.001
Per MPI rank memory allocation (min/avg/max) = 18.19 | 18.19 | 18.19 Mbytes
Step Temp Press TotEng PotEng Enthalpy 
   40495    2399.0534    779.35579   -50626.766    -56720.58   -50407.816 
   45000    2398.9974   -1418.8689   -50675.512   -56769.183   -51074.886 
Loop time of 677.384 on 1 procs for 4505 steps with 19652 atoms

Performance: 0.575 ns/day, 41.767 hours/ns, 6.651 timesteps/s
93.9% CPU use with 1 MPI tasks x no OpenMP threads

MPI task timing breakdown:
Section |  min time  |  avg time  |  max time  |%varavg| %total
---------------------------------------------------------------
Pair    | 379.18     | 379.18     | 379.18     |   0.0 | 55.98
Neigh   | 279.07     | 279.07     | 279.07     |   0.0 | 41.20
Comm    | 7.5272     | 7.5272     | 7.5272     |   0.0 |  1.11
Output  | 0.051932   | 0.051932   | 0.051932   |   0.0 |  0.01
Modify  | 9.2246     | 9.2246     | 9.2246     |   0.0 |  1.36
Other   |            | 2.334      |            |       |  0.34

Nlocal:    19652 ave 19652 max 19652 min
Histogram: 1 0 0 0 0 0 0 0 0 0
Nghost:    16145 ave 16145 max 16145 min
Histogram: 1 0 0 0 0 0 0 0 0 0
Neighs:    1.09445e+06 ave 1.09445e+06 max 1.09445e+06 min
Histogram: 1 0 0 0 0 0 0 0 0 0

Total # of neighbors = 1094447
Ave neighs/atom = 55.6914
Neighbor list builds = 4505
Dangerous builds not checked
Setting up Verlet run ...
  Unit style    : metal
  Current step  : 45000
  Time step     : 0.001
Per MPI rank memory allocation (min/avg/max) = 18.2 | 18.2 | 18.2 Mbytes
Step Temp Press TotEng PotEng Enthalpy 
   45000    2398.9974   -1418.8689   -50675.512   -56769.183   -51074.886 
   45495    2359.3687    518.91907     -50936.3   -56929.312   -50791.733 
Loop time of 72.5124 on 1 procs for 495 steps with 19652 atoms

Performance: 0.590 ns/day, 40.692 hours/ns, 6.826 timesteps/s
99.6% CPU use with 1 MPI tasks x no OpenMP threads

MPI task timing breakdown:
Section |  min time  |  avg time  |  max time  |%varavg| %total
---------------------------------------------------------------
Pair    | 41.285     | 41.285     | 41.285     |   0.0 | 56.93
Neigh   | 29.006     | 29.006     | 29.006     |   0.0 | 40.00
Comm    | 0.84843    | 0.84843    | 0.84843    |   0.0 |  1.17
Output  | 0.00023317 | 0.00023317 | 0.00023317 |   0.0 |  0.00
Modify  | 1.1023     | 1.1023     | 1.1023     |   0.0 |  1.52
Other   |            | 0.2705     |            |       |  0.37

Nlocal:    19652 ave 19652 max 19652 min
Histogram: 1 0 0 0 0 0 0 0 0 0
Nghost:    16210 ave 16210 max 16210 min
Histogram: 1 0 0 0 0 0 0 0 0 0
Neighs:    1.10614e+06 ave 1.10614e+06 max 1.10614e+06 min
Histogram: 1 0 0 0 0 0 0 0 0 0

Total # of neighbors = 1106142
Ave neighs/atom = 56.2865
Neighbor list builds = 495
Dangerous builds not checked
Setting up Verlet run ...
  Unit style    : metal
  Current step  : 45495
  Time step     : 0.001
Per MPI rank memory allocation (min/avg/max) = 18.2 | 18.2 | 18.2 Mbytes
Step Temp Press TotEng PotEng Enthalpy 
   45495    2359.3687    518.91907     -50936.3   -56929.312   -50791.733 
   50000    2370.0361   -38.548153   -50981.321   -57001.429   -50992.044 
Loop time of 697.844 on 1 procs for 4505 steps with 19652 atoms

Performance: 0.558 ns/day, 43.029 hours/ns, 6.456 timesteps/s
97.2% CPU use with 1 MPI tasks x no OpenMP threads

MPI task timing breakdown:
Section |  min time  |  avg time  |  max time  |%varavg| %total
---------------------------------------------------------------
Pair    | 387.09     | 387.09     | 387.09     |   0.0 | 55.47
Neigh   | 290.7      | 290.7      | 290.7      |   0.0 | 41.66
Comm    | 7.7545     | 7.7545     | 7.7545     |   0.0 |  1.11
Output  | 0.050198   | 0.050198   | 0.050198   |   0.0 |  0.01
Modify  | 9.8107     | 9.8107     | 9.8107     |   0.0 |  1.41
Other   |            | 2.43       |            |       |  0.35

Nlocal:    19652 ave 19652 max 19652 min
Histogram: 1 0 0 0 0 0 0 0 0 0
Nghost:    16215 ave 16215 max 16215 min
Histogram: 1 0 0 0 0 0 0 0 0 0
Neighs:    1.10757e+06 ave 1.10757e+06 max 1.10757e+06 min
Histogram: 1 0 0 0 0 0 0 0 0 0

Total # of neighbors = 1107574
Ave neighs/atom = 56.3594
Neighbor list builds = 4505
Dangerous builds not checked
Setting up Verlet run ...
  Unit style    : metal
  Current step  : 50000
  Time step     : 0.001
Per MPI rank memory allocation (min/avg/max) = 18.2 | 18.2 | 18.2 Mbytes
Step Temp Press TotEng PotEng Enthalpy 
   50000    2370.0361   -38.548153   -50981.321   -57001.429   -50992.044 
   50495    2314.9344   -255.07564   -51175.326   -57055.471   -51246.123 
Loop time of 69.2569 on 1 procs for 495 steps with 19652 atoms

Performance: 0.618 ns/day, 38.865 hours/ns, 7.147 timesteps/s
99.8% CPU use with 1 MPI tasks x no OpenMP threads

MPI task timing breakdown:
Section |  min time  |  avg time  |  max time  |%varavg| %total
---------------------------------------------------------------
Pair    | 37.565     | 37.565     | 37.565     |   0.0 | 54.24
Neigh   | 29.798     | 29.798     | 29.798     |   0.0 | 43.03
Comm    | 0.73093    | 0.73093    | 0.73093    |   0.0 |  1.06
Output  | 0.00020981 | 0.00020981 | 0.00020981 |   0.0 |  0.00
Modify  | 0.9324     | 0.9324     | 0.9324     |   0.0 |  1.35
Other   |            | 0.2302     |            |       |  0.33

Nlocal:    19652 ave 19652 max 19652 min
Histogram: 1 0 0 0 0 0 0 0 0 0
Nghost:    16201 ave 16201 max 16201 min
Histogram: 1 0 0 0 0 0 0 0 0 0
Neighs:    1.10999e+06 ave 1.10999e+06 max 1.10999e+06 min
Histogram: 1 0 0 0 0 0 0 0 0 0

Total # of neighbors = 1109991
Ave neighs/atom = 56.4823
Neighbor list builds = 495
Dangerous builds not checked
Setting up Verlet run ...
  Unit style    : metal
  Current step  : 50495
  Time step     : 0.001
Per MPI rank memory allocation (min/avg/max) = 18.2 | 18.2 | 18.2 Mbytes
Step Temp Press TotEng PotEng Enthalpy 
   50495    2314.9344   -255.07564   -51175.326   -57055.471   -51246.123 
   55000    2284.0225    8.6342788   -51300.548   -57102.173   -51298.157 
Loop time of 687.724 on 1 procs for 4505 steps with 19652 atoms

Performance: 0.566 ns/day, 42.405 hours/ns, 6.551 timesteps/s
99.8% CPU use with 1 MPI tasks x no OpenMP threads

MPI task timing breakdown:
Section |  min time  |  avg time  |  max time  |%varavg| %total
---------------------------------------------------------------
Pair    | 380.95     | 380.95     | 380.95     |   0.0 | 55.39
Neigh   | 287.08     | 287.08     | 287.08     |   0.0 | 41.74
Comm    | 7.6126     | 7.6126     | 7.6126     |   0.0 |  1.11
Output  | 0.050374   | 0.050374   | 0.050374   |   0.0 |  0.01
Modify  | 9.6623     | 9.6623     | 9.6623     |   0.0 |  1.40
Other   |            | 2.367      |            |       |  0.34

Nlocal:    19652 ave 19652 max 19652 min
Histogram: 1 0 0 0 0 0 0 0 0 0
Nghost:    16394 ave 16394 max 16394 min
Histogram: 1 0 0 0 0 0 0 0 0 0
Neighs:    1.11285e+06 ave 1.11285e+06 max 1.11285e+06 min
Histogram: 1 0 0 0 0 0 0 0 0 0

Total # of neighbors = 1112851
Ave neighs/atom = 56.6279
Neighbor list builds = 4505
Dangerous builds not checked
Setting up Verlet run ...
  Unit style    : metal
  Current step  : 55000
  Time step     : 0.001
Per MPI rank memory allocation (min/avg/max) = 18.2 | 18.2 | 18.2 Mbytes
Step Temp Press TotEng PotEng Enthalpy 
   55000    2284.0225    8.6342788   -51300.548   -57102.173   -51298.157 
   55495    2250.2124    208.57998   -51470.676   -57186.421   -51413.152 
Loop time of 71.3484 on 1 procs for 495 steps with 19652 atoms

Performance: 0.599 ns/day, 40.038 hours/ns, 6.938 timesteps/s
99.8% CPU use with 1 MPI tasks x no OpenMP threads

MPI task timing breakdown:
Section |  min time  |  avg time  |  max time  |%varavg| %total
---------------------------------------------------------------
Pair    | 39.081     | 39.081     | 39.081     |   0.0 | 54.78
Neigh   | 30.257     | 30.257     | 30.257     |   0.0 | 42.41
Comm    | 0.77381    | 0.77381    | 0.77381    |   0.0 |  1.08
Output  | 0.00023818 | 0.00023818 | 0.00023818 |   0.0 |  0.00
Modify  | 0.99194    | 0.99194    | 0.99194    |   0.0 |  1.39
Other   |            | 0.2446     |            |       |  0.34

Nlocal:    19652 ave 19652 max 19652 min
Histogram: 1 0 0 0 0 0 0 0 0 0
Nghost:    16336 ave 16336 max 16336 min
Histogram: 1 0 0 0 0 0 0 0 0 0
Neighs:    1.1174e+06 ave 1.1174e+06 max 1.1174e+06 min
Histogram: 1 0 0 0 0 0 0 0 0 0

Total # of neighbors = 1117396
Ave neighs/atom = 56.8591
Neighbor list builds = 495
Dangerous builds not checked
Setting up Verlet run ...
  Unit style    : metal
  Current step  : 55495
  Time step     : 0.001
Per MPI rank memory allocation (min/avg/max) = 18.2 | 18.2 | 18.2 Mbytes
Step Temp Press TotEng PotEng Enthalpy 
   55495    2250.2124    208.57998   -51470.676   -57186.421   -51413.152 
   60000    2245.7087   -154.10553   -51536.447   -57240.751   -51578.879 
Loop time of 663.237 on 1 procs for 4505 steps with 19652 atoms

Performance: 0.587 ns/day, 40.895 hours/ns, 6.792 timesteps/s
99.8% CPU use with 1 MPI tasks x no OpenMP threads

MPI task timing breakdown:
Section |  min time  |  avg time  |  max time  |%varavg| %total
---------------------------------------------------------------
Pair    | 362.84     | 362.84     | 362.84     |   0.0 | 54.71
Neigh   | 282.02     | 282.02     | 282.02     |   0.0 | 42.52
Comm    | 7.162      | 7.162      | 7.162      |   0.0 |  1.08
Output  | 0.050506   | 0.050506   | 0.050506   |   0.0 |  0.01
Modify  | 8.9579     | 8.9579     | 8.9579     |   0.0 |  1.35
Other   |            | 2.204      |            |       |  0.33

Nlocal:    19652 ave 19652 max 19652 min
Histogram: 1 0 0 0 0 0 0 0 0 0
Nghost:    16355 ave 16355 max 16355 min
Histogram: 1 0 0 0 0 0 0 0 0 0
Neighs:    1.11906e+06 ave 1.11906e+06 max 1.11906e+06 min
Histogram: 1 0 0 0 0 0 0 0 0 0

Total # of neighbors = 1119062
Ave neighs/atom = 56.9439
Neighbor list builds = 4505
Dangerous builds not checked
Setting up Verlet run ...
  Unit style    : metal
  Current step  : 60000
  Time step     : 0.001
Per MPI rank memory allocation (min/avg/max) = 18.2 | 18.2 | 18.2 Mbytes
Step Temp Press TotEng PotEng Enthalpy 
   60000    2245.7087   -154.10553   -51536.447   -57240.751   -51578.879 
   60495    2219.1471     108.3972    -51716.43   -57353.266   -51686.729 
Loop time of 69.6322 on 1 procs for 495 steps with 19652 atoms

Performance: 0.614 ns/day, 39.075 hours/ns, 7.109 timesteps/s
99.8% CPU use with 1 MPI tasks x no OpenMP threads

MPI task timing breakdown:
Section |  min time  |  avg time  |  max time  |%varavg| %total
---------------------------------------------------------------
Pair    | 37.977     | 37.977     | 37.977     |   0.0 | 54.54
Neigh   | 29.772     | 29.772     | 29.772     |   0.0 | 42.76
Comm    | 0.72827    | 0.72827    | 0.72827    |   0.0 |  1.05
Output  | 0.00020885 | 0.00020885 | 0.00020885 |   0.0 |  0.00
Modify  | 0.92677    | 0.92677    | 0.92677    |   0.0 |  1.33
Other   |            | 0.2276     |            |       |  0.33

Nlocal:    19652 ave 19652 max 19652 min
Histogram: 1 0 0 0 0 0 0 0 0 0
Nghost:    16351 ave 16351 max 16351 min
Histogram: 1 0 0 0 0 0 0 0 0 0
Neighs:    1.12539e+06 ave 1.12539e+06 max 1.12539e+06 min
Histogram: 1 0 0 0 0 0 0 0 0 0

Total # of neighbors = 1125392
Ave neighs/atom = 57.266
Neighbor list builds = 495
Dangerous builds not checked
Setting up Verlet run ...
  Unit style    : metal
  Current step  : 60495
  Time step     : 0.001
Per MPI rank memory allocation (min/avg/max) = 18.2 | 18.2 | 18.2 Mbytes
Step Temp Press TotEng PotEng Enthalpy 
   60495    2219.1471     108.3972    -51716.43   -57353.266   -51686.729 
   65000    2221.5456    624.28176   -51790.887   -57433.815    -51620.54 
Loop time of 657.065 on 1 procs for 4505 steps with 19652 atoms

Performance: 0.592 ns/day, 40.515 hours/ns, 6.856 timesteps/s
99.8% CPU use with 1 MPI tasks x no OpenMP threads

MPI task timing breakdown:
Section |  min time  |  avg time  |  max time  |%varavg| %total
---------------------------------------------------------------
Pair    | 359.67     | 359.67     | 359.67     |   0.0 | 54.74
Neigh   | 279.55     | 279.55     | 279.55     |   0.0 | 42.54
Comm    | 6.9629     | 6.9629     | 6.9629     |   0.0 |  1.06
Output  | 0.050343   | 0.050343   | 0.050343   |   0.0 |  0.01
Modify  | 8.6898     | 8.6898     | 8.6898     |   0.0 |  1.32
Other   |            | 2.149      |            |       |  0.33

Nlocal:    19652 ave 19652 max 19652 min
Histogram: 1 0 0 0 0 0 0 0 0 0
Nghost:    16490 ave 16490 max 16490 min
Histogram: 1 0 0 0 0 0 0 0 0 0
Neighs:    1.12969e+06 ave 1.12969e+06 max 1.12969e+06 min
Histogram: 1 0 0 0 0 0 0 0 0 0

Total # of neighbors = 1129692
Ave neighs/atom = 57.4848
Neighbor list builds = 4505
Dangerous builds not checked
Setting up Verlet run ...
  Unit style    : metal
  Current step  : 65000
  Time step     : 0.001
Per MPI rank memory allocation (min/avg/max) = 18.2 | 18.2 | 18.2 Mbytes
Step Temp Press TotEng PotEng Enthalpy 
   65000    2221.5456    624.28176   -51790.887   -57433.815    -51620.54 
   65495    2149.7586    89.311856   -51970.697    -57431.28   -51946.336 
Loop time of 71.8854 on 1 procs for 495 steps with 19652 atoms

Performance: 0.595 ns/day, 40.340 hours/ns, 6.886 timesteps/s
99.0% CPU use with 1 MPI tasks x no OpenMP threads

MPI task timing breakdown:
Section |  min time  |  avg time  |  max time  |%varavg| %total
---------------------------------------------------------------
Pair    | 39.576     | 39.576     | 39.576     |   0.0 | 55.05
Neigh   | 30.289     | 30.289     | 30.289     |   0.0 | 42.14
Comm    | 0.78718    | 0.78718    | 0.78718    |   0.0 |  1.10
Output  | 0.00019097 | 0.00019097 | 0.00019097 |   0.0 |  0.00
Modify  | 0.99016    | 0.99016    | 0.99016    |   0.0 |  1.38
Other   |            | 0.2428     |            |       |  0.34

Nlocal:    19652 ave 19652 max 19652 min
Histogram: 1 0 0 0 0 0 0 0 0 0
Nghost:    16429 ave 16429 max 16429 min
Histogram: 1 0 0 0 0 0 0 0 0 0
Neighs:    1.12977e+06 ave 1.12977e+06 max 1.12977e+06 min
Histogram: 1 0 0 0 0 0 0 0 0 0

Total # of neighbors = 1129766
Ave neighs/atom = 57.4886
Neighbor list builds = 495
Dangerous builds not checked
Setting up Verlet run ...
  Unit style    : metal
  Current step  : 65495
  Time step     : 0.001
Per MPI rank memory allocation (min/avg/max) = 18.2 | 18.2 | 18.2 Mbytes
Step Temp Press TotEng PotEng Enthalpy 
   65495    2149.7586    89.311856   -51970.697    -57431.28   -51946.336 
   70000    2153.3504   -234.29155   -52011.871   -57481.577   -52075.773 
Loop time of 651.518 on 1 procs for 4505 steps with 19652 atoms

Performance: 0.597 ns/day, 40.173 hours/ns, 6.915 timesteps/s
99.5% CPU use with 1 MPI tasks x no OpenMP threads

MPI task timing breakdown:
Section |  min time  |  avg time  |  max time  |%varavg| %total
---------------------------------------------------------------
Pair    | 356.14     | 356.14     | 356.14     |   0.0 | 54.66
Neigh   | 278.01     | 278.01     | 278.01     |   0.0 | 42.67
Comm    | 6.7881     | 6.7881     | 6.7881     |   0.0 |  1.04
Output  | 0.050166   | 0.050166   | 0.050166   |   0.0 |  0.01
Modify  | 8.4521     | 8.4521     | 8.4521     |   0.0 |  1.30
Other   |            | 2.076      |            |       |  0.32

Nlocal:    19652 ave 19652 max 19652 min
Histogram: 1 0 0 0 0 0 0 0 0 0
Nghost:    16274 ave 16274 max 16274 min
Histogram: 1 0 0 0 0 0 0 0 0 0
Neighs:    1.13034e+06 ave 1.13034e+06 max 1.13034e+06 min
Histogram: 1 0 0 0 0 0 0 0 0 0

Total # of neighbors = 1130342
Ave neighs/atom = 57.5179
Neighbor list builds = 4505
Dangerous builds not checked
Setting up Verlet run ...
  Unit style    : metal
  Current step  : 70000
  Time step     : 0.001
Per MPI rank memory allocation (min/avg/max) = 18.2 | 18.2 | 18.2 Mbytes
Step Temp Press TotEng PotEng Enthalpy 
   70000    2153.3504   -234.29155   -52011.871   -57481.577   -52075.773 
   70495    2104.7883     295.1371   -52295.723   -57642.077   -52215.892 
Loop time of 73.3739 on 1 procs for 495 steps with 19652 atoms

Performance: 0.583 ns/day, 41.175 hours/ns, 6.746 timesteps/s
99.3% CPU use with 1 MPI tasks x no OpenMP threads

MPI task timing breakdown:
Section |  min time  |  avg time  |  max time  |%varavg| %total
---------------------------------------------------------------
Pair    | 40.7       | 40.7       | 40.7       |   0.0 | 55.47
Neigh   | 30.584     | 30.584     | 30.584     |   0.0 | 41.68
Comm    | 0.804      | 0.804      | 0.804      |   0.0 |  1.10
Output  | 0.018838   | 0.018838   | 0.018838   |   0.0 |  0.03
Modify  | 1.0181     | 1.0181     | 1.0181     |   0.0 |  1.39
Other   |            | 0.2492     |            |       |  0.34

Nlocal:    19652 ave 19652 max 19652 min
Histogram: 1 0 0 0 0 0 0 0 0 0
Nghost:    16498 ave 16498 max 16498 min
Histogram: 1 0 0 0 0 0 0 0 0 0
Neighs:    1.13953e+06 ave 1.13953e+06 max 1.13953e+06 min
Histogram: 1 0 0 0 0 0 0 0 0 0

Total # of neighbors = 1139530
Ave neighs/atom = 57.9854
Neighbor list builds = 495
Dangerous builds not checked
Setting up Verlet run ...
  Unit style    : metal
  Current step  : 70495
  Time step     : 0.001
Per MPI rank memory allocation (min/avg/max) = 18.2 | 18.2 | 18.2 Mbytes
Step Temp Press TotEng PotEng Enthalpy 
   70495    2104.7883     295.1371   -52295.723   -57642.077   -52215.892 
   75000    2094.9739    192.68633    -52320.86   -57642.285    -52268.74 
Loop time of 697.31 on 1 procs for 4505 steps with 19652 atoms

Performance: 0.558 ns/day, 42.996 hours/ns, 6.461 timesteps/s
99.7% CPU use with 1 MPI tasks x no OpenMP threads

MPI task timing breakdown:
Section |  min time  |  avg time  |  max time  |%varavg| %total
---------------------------------------------------------------
Pair    | 389.62     | 389.62     | 389.62     |   0.0 | 55.88
Neigh   | 287.7      | 287.7      | 287.7      |   0.0 | 41.26
Comm    | 7.7883     | 7.7883     | 7.7883     |   0.0 |  1.12
Output  | 0.05186    | 0.05186    | 0.05186    |   0.0 |  0.01
Modify  | 9.742      | 9.742      | 9.742      |   0.0 |  1.40
Other   |            | 2.404      |            |       |  0.34

Nlocal:    19652 ave 19652 max 19652 min
Histogram: 1 0 0 0 0 0 0 0 0 0
Nghost:    16358 ave 16358 max 16358 min
Histogram: 1 0 0 0 0 0 0 0 0 0
Neighs:    1.13936e+06 ave 1.13936e+06 max 1.13936e+06 min
Histogram: 1 0 0 0 0 0 0 0 0 0

Total # of neighbors = 1139365
Ave neighs/atom = 57.9771
Neighbor list builds = 4505
Dangerous builds not checked
Setting up Verlet run ...
  Unit style    : metal
  Current step  : 75000
  Time step     : 0.001
Per MPI rank memory allocation (min/avg/max) = 18.2 | 18.2 | 18.2 Mbytes
Step Temp Press TotEng PotEng Enthalpy 
   75000    2094.9739    192.68633    -52320.86   -57642.285    -52268.74 
   75495    2066.1008    338.13378   -52554.349   -57802.433    -52463.45 
Loop time of 76.7939 on 1 procs for 495 steps with 19652 atoms

Performance: 0.557 ns/day, 43.094 hours/ns, 6.446 timesteps/s
99.9% CPU use with 1 MPI tasks x no OpenMP threads

MPI task timing breakdown:
Section |  min time  |  avg time  |  max time  |%varavg| %total
---------------------------------------------------------------
Pair    | 43.209     | 43.209     | 43.209     |   0.0 | 56.27
Neigh   | 31.246     | 31.246     | 31.246     |   0.0 | 40.69
Comm    | 0.90068    | 0.90068    | 0.90068    |   0.0 |  1.17
Output  | 0.00023603 | 0.00023603 | 0.00023603 |   0.0 |  0.00
Modify  | 1.1549     | 1.1549     | 1.1549     |   0.0 |  1.50
Other   |            | 0.2833     |            |       |  0.37

Nlocal:    19652 ave 19652 max 19652 min
Histogram: 1 0 0 0 0 0 0 0 0 0
Nghost:    16430 ave 16430 max 16430 min
Histogram: 1 0 0 0 0 0 0 0 0 0
Neighs:    1.14684e+06 ave 1.14684e+06 max 1.14684e+06 min
Histogram: 1 0 0 0 0 0 0 0 0 0

Total # of neighbors = 1146841
Ave neighs/atom = 58.3575
Neighbor list builds = 495
Dangerous builds not checked
Setting up Verlet run ...
  Unit style    : metal
  Current step  : 75495
  Time step     : 0.001
Per MPI rank memory allocation (min/avg/max) = 18.2 | 18.2 | 18.2 Mbytes
Step Temp Press TotEng PotEng Enthalpy 
   75495    2066.1008    338.13378   -52554.349   -57802.433    -52463.45 
   80000    2072.7263    -1454.681    -52558.53   -57823.444   -52950.753 
Loop time of 717.286 on 1 procs for 4505 steps with 19652 atoms

Performance: 0.543 ns/day, 44.228 hours/ns, 6.281 timesteps/s
99.8% CPU use with 1 MPI tasks x no OpenMP threads

MPI task timing breakdown:
Section |  min time  |  avg time  |  max time  |%varavg| %total
---------------------------------------------------------------
Pair    | 403.95     | 403.95     | 403.95     |   0.0 | 56.32
Neigh   | 292.11     | 292.11     | 292.11     |   0.0 | 40.72
Comm    | 8.227      | 8.227      | 8.227      |   0.0 |  1.15
Output  | 0.051772   | 0.051772   | 0.051772   |   0.0 |  0.01
Modify  | 10.38      | 10.38      | 10.38      |   0.0 |  1.45
Other   |            | 2.57       |            |       |  0.36

Nlocal:    19652 ave 19652 max 19652 min
Histogram: 1 0 0 0 0 0 0 0 0 0
Nghost:    16543 ave 16543 max 16543 min
Histogram: 1 0 0 0 0 0 0 0 0 0
Neighs:    1.14347e+06 ave 1.14347e+06 max 1.14347e+06 min
Histogram: 1 0 0 0 0 0 0 0 0 0

Total # of neighbors = 1143470
Ave neighs/atom = 58.1859
Neighbor list builds = 4505
Dangerous builds not checked
Setting up Verlet run ...
  Unit style    : metal
  Current step  : 80000
  Time step     : 0.001
Per MPI rank memory allocation (min/avg/max) = 18.2 | 18.2 | 18.2 Mbytes
Step Temp Press TotEng PotEng Enthalpy 
   80000    2072.7263    -1454.681    -52558.53   -57823.444   -52950.753 
   80495     2001.171   -387.89762   -52805.687   -57888.843   -52909.661 
Loop time of 77.7363 on 1 procs for 495 steps with 19652 atoms

Performance: 0.550 ns/day, 43.623 hours/ns, 6.368 timesteps/s
99.9% CPU use with 1 MPI tasks x no OpenMP threads

MPI task timing breakdown:
Section |  min time  |  avg time  |  max time  |%varavg| %total
---------------------------------------------------------------
Pair    | 43.685     | 43.685     | 43.685     |   0.0 | 56.20
Neigh   | 31.673     | 31.673     | 31.673     |   0.0 | 40.74
Comm    | 0.91271    | 0.91271    | 0.91271    |   0.0 |  1.17
Output  | 0.00023198 | 0.00023198 | 0.00023198 |   0.0 |  0.00
Modify  | 1.1708     | 1.1708     | 1.1708     |   0.0 |  1.51
Other   |            | 0.2947     |            |       |  0.38

Nlocal:    19652 ave 19652 max 19652 min
Histogram: 1 0 0 0 0 0 0 0 0 0
Nghost:    16462 ave 16462 max 16462 min
Histogram: 1 0 0 0 0 0 0 0 0 0
Neighs:    1.15066e+06 ave 1.15066e+06 max 1.15066e+06 min
Histogram: 1 0 0 0 0 0 0 0 0 0

Total # of neighbors = 1150657
Ave neighs/atom = 58.5516
Neighbor list builds = 495
Dangerous builds not checked
Setting up Verlet run ...
  Unit style    : metal
  Current step  : 80495
  Time step     : 0.001
Per MPI rank memory allocation (min/avg/max) = 18.2 | 18.2 | 18.2 Mbytes
Step Temp Press TotEng PotEng Enthalpy 
   80495     2001.171   -387.89762   -52805.687   -57888.843   -52909.661 
   85000    1995.1274    -469.5548   -52901.538   -57969.344   -53027.145 
Loop time of 722.426 on 1 procs for 4505 steps with 19652 atoms

Performance: 0.539 ns/day, 44.545 hours/ns, 6.236 timesteps/s
99.8% CPU use with 1 MPI tasks x no OpenMP threads

MPI task timing breakdown:
Section |  min time  |  avg time  |  max time  |%varavg| %total
---------------------------------------------------------------
Pair    | 406.88     | 406.88     | 406.88     |   0.0 | 56.32
Neigh   | 293.93     | 293.93     | 293.93     |   0.0 | 40.69
Comm    | 8.3495     | 8.3495     | 8.3495     |   0.0 |  1.16
Output  | 0.04985    | 0.04985    | 0.04985    |   0.0 |  0.01
Modify  | 10.551     | 10.551     | 10.551     |   0.0 |  1.46
Other   |            | 2.664      |            |       |  0.37

Nlocal:    19652 ave 19652 max 19652 min
Histogram: 1 0 0 0 0 0 0 0 0 0
Nghost:    16538 ave 16538 max 16538 min
Histogram: 1 0 0 0 0 0 0 0 0 0
Neighs:    1.15282e+06 ave 1.15282e+06 max 1.15282e+06 min
Histogram: 1 0 0 0 0 0 0 0 0 0

Total # of neighbors = 1152823
Ave neighs/atom = 58.6619
Neighbor list builds = 4505
Dangerous builds not checked
Setting up Verlet run ...
  Unit style    : metal
  Current step  : 85000
  Time step     : 0.001
Per MPI rank memory allocation (min/avg/max) = 18.2 | 18.2 | 18.2 Mbytes
Step Temp Press TotEng PotEng Enthalpy 
   85000    1995.1274    -469.5548   -52901.538   -57969.344   -53027.145 
   85495    1952.5251    115.58552   -53104.699   -58064.291   -53073.966 
Loop time of 71.2185 on 1 procs for 495 steps with 19652 atoms

Performance: 0.601 ns/day, 39.966 hours/ns, 6.950 timesteps/s
99.9% CPU use with 1 MPI tasks x no OpenMP threads

MPI task timing breakdown:
Section |  min time  |  avg time  |  max time  |%varavg| %total
---------------------------------------------------------------
Pair    | 39.291     | 39.291     | 39.291     |   0.0 | 55.17
Neigh   | 29.966     | 29.966     | 29.966     |   0.0 | 42.08
Comm    | 0.76027    | 0.76027    | 0.76027    |   0.0 |  1.07
Output  | 0.00019407 | 0.00019407 | 0.00019407 |   0.0 |  0.00
Modify  | 0.96448    | 0.96448    | 0.96448    |   0.0 |  1.35
Other   |            | 0.2364     |            |       |  0.33

Nlocal:    19652 ave 19652 max 19652 min
Histogram: 1 0 0 0 0 0 0 0 0 0
Nghost:    16524 ave 16524 max 16524 min
Histogram: 1 0 0 0 0 0 0 0 0 0
Neighs:    1.15959e+06 ave 1.15959e+06 max 1.15959e+06 min
Histogram: 1 0 0 0 0 0 0 0 0 0

Total # of neighbors = 1159590
Ave neighs/atom = 59.0062
Neighbor list builds = 495
Dangerous builds not checked
Setting up Verlet run ...
  Unit style    : metal
  Current step  : 85495
  Time step     : 0.001
Per MPI rank memory allocation (min/avg/max) = 18.2 | 18.2 | 18.2 Mbytes
Step Temp Press TotEng PotEng Enthalpy 
   85495    1952.5251    115.58552   -53104.699   -58064.291   -53073.966 
   90000     1948.875   -738.69179   -53185.846   -58136.166   -53382.004 
Loop time of 672.491 on 1 procs for 4505 steps with 19652 atoms

Performance: 0.579 ns/day, 41.466 hours/ns, 6.699 timesteps/s
99.9% CPU use with 1 MPI tasks x no OpenMP threads

MPI task timing breakdown:
Section |  min time  |  avg time  |  max time  |%varavg| %total
---------------------------------------------------------------
Pair    | 373.65     | 373.65     | 373.65     |   0.0 | 55.56
Neigh   | 280.49     | 280.49     | 280.49     |   0.0 | 41.71
Comm    | 7.1542     | 7.1542     | 7.1542     |   0.0 |  1.06
Output  | 0.051319   | 0.051319   | 0.051319   |   0.0 |  0.01
Modify  | 8.9227     | 8.9227     | 8.9227     |   0.0 |  1.33
Other   |            | 2.223      |            |       |  0.33

Nlocal:    19652 ave 19652 max 19652 min
Histogram: 1 0 0 0 0 0 0 0 0 0
Nghost:    16598 ave 16598 max 16598 min
Histogram: 1 0 0 0 0 0 0 0 0 0
Neighs:    1.16138e+06 ave 1.16138e+06 max 1.16138e+06 min
Histogram: 1 0 0 0 0 0 0 0 0 0

Total # of neighbors = 1161384
Ave neighs/atom = 59.0975
Neighbor list builds = 4505
Dangerous builds not checked
Setting up Verlet run ...
  Unit style    : metal
  Current step  : 90000
  Time step     : 0.001
Per MPI rank memory allocation (min/avg/max) = 18.2 | 18.2 | 18.2 Mbytes
Step Temp Press TotEng PotEng Enthalpy 
   90000     1948.875   -738.69179   -53185.846   -58136.166   -53382.004 
   90495    1900.0167    519.72842   -53405.025   -58231.241   -53267.919 
Loop time of 74.7779 on 1 procs for 495 steps with 19652 atoms

Performance: 0.572 ns/day, 41.963 hours/ns, 6.620 timesteps/s
99.9% CPU use with 1 MPI tasks x no OpenMP threads

MPI task timing breakdown:
Section |  min time  |  avg time  |  max time  |%varavg| %total
---------------------------------------------------------------
Pair    | 42.073     | 42.073     | 42.073     |   0.0 | 56.26
Neigh   | 30.554     | 30.554     | 30.554     |   0.0 | 40.86
Comm    | 0.8259     | 0.8259     | 0.8259     |   0.0 |  1.10
Output  | 0.00023317 | 0.00023317 | 0.00023317 |   0.0 |  0.00
Modify  | 1.0603     | 1.0603     | 1.0603     |   0.0 |  1.42
Other   |            | 0.2648     |            |       |  0.35

Nlocal:    19652 ave 19652 max 19652 min
Histogram: 1 0 0 0 0 0 0 0 0 0
Nghost:    16675 ave 16675 max 16675 min
Histogram: 1 0 0 0 0 0 0 0 0 0
Neighs:    1.16899e+06 ave 1.16899e+06 max 1.16899e+06 min
Histogram: 1 0 0 0 0 0 0 0 0 0

Total # of neighbors = 1168988
Ave neighs/atom = 59.4844
Neighbor list builds = 495
Dangerous builds not checked
Setting up Verlet run ...
  Unit style    : metal
  Current step  : 90495
  Time step     : 0.001
Per MPI rank memory allocation (min/avg/max) = 18.2 | 18.2 | 18.2 Mbytes
Step Temp Press TotEng PotEng Enthalpy 
   90495    1900.0167    519.72842   -53405.025   -58231.241   -53267.919 
   95000    1893.8073   -1012.8789   -53393.253   -58203.696   -53661.618 
Loop time of 672.397 on 1 procs for 4505 steps with 19652 atoms

Performance: 0.579 ns/day, 41.460 hours/ns, 6.700 timesteps/s
99.8% CPU use with 1 MPI tasks x no OpenMP threads

MPI task timing breakdown:
Section |  min time  |  avg time  |  max time  |%varavg| %total
---------------------------------------------------------------
Pair    | 374.31     | 374.31     | 374.31     |   0.0 | 55.67
Neigh   | 279.79     | 279.79     | 279.79     |   0.0 | 41.61
Comm    | 7.1552     | 7.1552     | 7.1552     |   0.0 |  1.06
Output  | 0.050968   | 0.050968   | 0.050968   |   0.0 |  0.01
Modify  | 8.9012     | 8.9012     | 8.9012     |   0.0 |  1.32
Other   |            | 2.199      |            |       |  0.33

Nlocal:    19652 ave 19652 max 19652 min
Histogram: 1 0 0 0 0 0 0 0 0 0
Nghost:    16557 ave 16557 max 16557 min
Histogram: 1 0 0 0 0 0 0 0 0 0
Neighs:    1.16396e+06 ave 1.16396e+06 max 1.16396e+06 min
Histogram: 1 0 0 0 0 0 0 0 0 0

Total # of neighbors = 1163964
Ave neighs/atom = 59.2288
Neighbor list builds = 4505
Dangerous builds not checked
Setting up Verlet run ...
  Unit style    : metal
  Current step  : 95000
  Time step     : 0.001
Per MPI rank memory allocation (min/avg/max) = 18.2 | 18.2 | 18.2 Mbytes
Step Temp Press TotEng PotEng Enthalpy 
   95000    1893.8073   -1012.8789   -53393.253   -58203.696   -53661.618 
   95495    1851.5116    55.177077   -53650.731   -58353.739   -53636.236 
Loop time of 71.2083 on 1 procs for 495 steps with 19652 atoms

Performance: 0.601 ns/day, 39.960 hours/ns, 6.951 timesteps/s
99.8% CPU use with 1 MPI tasks x no OpenMP threads

MPI task timing breakdown:
Section |  min time  |  avg time  |  max time  |%varavg| %total
---------------------------------------------------------------
Pair    | 39.471     | 39.471     | 39.471     |   0.0 | 55.43
Neigh   | 29.825     | 29.825     | 29.825     |   0.0 | 41.88
Comm    | 0.74288    | 0.74288    | 0.74288    |   0.0 |  1.04
Output  | 0.00020003 | 0.00020003 | 0.00020003 |   0.0 |  0.00
Modify  | 0.94061    | 0.94061    | 0.94061    |   0.0 |  1.32
Other   |            | 0.2281     |            |       |  0.32

Nlocal:    19652 ave 19652 max 19652 min
Histogram: 1 0 0 0 0 0 0 0 0 0
Nghost:    16660 ave 16660 max 16660 min
Histogram: 1 0 0 0 0 0 0 0 0 0
Neighs:    1.17423e+06 ave 1.17423e+06 max 1.17423e+06 min
Histogram: 1 0 0 0 0 0 0 0 0 0

Total # of neighbors = 1174232
Ave neighs/atom = 59.7513
Neighbor list builds = 495
Dangerous builds not checked
Setting up Verlet run ...
  Unit style    : metal
  Current step  : 95495
  Time step     : 0.001
Per MPI rank memory allocation (min/avg/max) = 18.2 | 18.2 | 18.2 Mbytes
Step Temp Press TotEng PotEng Enthalpy 
   95495    1851.5116    55.177077   -53650.731   -58353.739   -53636.236 
  100000    1831.2692   -941.05099   -53758.761   -58410.352   -54006.074 
Loop time of 688.318 on 1 procs for 4505 steps with 19652 atoms

Performance: 0.565 ns/day, 42.442 hours/ns, 6.545 timesteps/s
99.9% CPU use with 1 MPI tasks x no OpenMP threads

MPI task timing breakdown:
Section |  min time  |  avg time  |  max time  |%varavg| %total
---------------------------------------------------------------
Pair    | 386.7      | 386.7      | 386.7      |   0.0 | 56.18
Neigh   | 282.63     | 282.63     | 282.63     |   0.0 | 41.06
Comm    | 7.3629     | 7.3629     | 7.3629     |   0.0 |  1.07
Output  | 0.050481   | 0.050481   | 0.050481   |   0.0 |  0.01
Modify  | 9.2401     | 9.2401     | 9.2401     |   0.0 |  1.34
Other   |            | 2.334      |            |       |  0.34

Nlocal:    19652 ave 19652 max 19652 min
Histogram: 1 0 0 0 0 0 0 0 0 0
Nghost:    16567 ave 16567 max 16567 min
Histogram: 1 0 0 0 0 0 0 0 0 0
Neighs:    1.17365e+06 ave 1.17365e+06 max 1.17365e+06 min
Histogram: 1 0 0 0 0 0 0 0 0 0

Total # of neighbors = 1173652
Ave neighs/atom = 59.7218
Neighbor list builds = 4505
Dangerous builds not checked
Setting up Verlet run ...
  Unit style    : metal
  Current step  : 100000
  Time step     : 0.001
Per MPI rank memory allocation (min/avg/max) = 18.2 | 18.2 | 18.2 Mbytes
Step Temp Press TotEng PotEng Enthalpy 
  100000    1831.2692   -941.05099   -53758.761   -58410.352   -54006.074 
  100495    1817.4663   -399.97316   -53897.085   -58513.615   -54001.653 
Loop time of 70.6281 on 1 procs for 495 steps with 19652 atoms

Performance: 0.606 ns/day, 39.634 hours/ns, 7.009 timesteps/s
99.9% CPU use with 1 MPI tasks x no OpenMP threads

MPI task timing breakdown:
Section |  min time  |  avg time  |  max time  |%varavg| %total
---------------------------------------------------------------
Pair    | 39.172     | 39.172     | 39.172     |   0.0 | 55.46
Neigh   | 29.6       | 29.6       | 29.6       |   0.0 | 41.91
Comm    | 0.71953    | 0.71953    | 0.71953    |   0.0 |  1.02
Output  | 0.00019789 | 0.00019789 | 0.00019789 |   0.0 |  0.00
Modify  | 0.91229    | 0.91229    | 0.91229    |   0.0 |  1.29
Other   |            | 0.2242     |            |       |  0.32

Nlocal:    19652 ave 19652 max 19652 min
Histogram: 1 0 0 0 0 0 0 0 0 0
Nghost:    16672 ave 16672 max 16672 min
Histogram: 1 0 0 0 0 0 0 0 0 0
Neighs:    1.17974e+06 ave 1.17974e+06 max 1.17974e+06 min
Histogram: 1 0 0 0 0 0 0 0 0 0

Total # of neighbors = 1179740
Ave neighs/atom = 60.0315
Neighbor list builds = 495
Dangerous builds not checked
Setting up Verlet run ...
  Unit style    : metal
  Current step  : 100495
  Time step     : 0.001
Per MPI rank memory allocation (min/avg/max) = 18.2 | 18.2 | 18.2 Mbytes
Step Temp Press TotEng PotEng Enthalpy 
  100495    1817.4663   -399.97316   -53897.085   -58513.615   -54001.653 
  105000    1794.0264    339.65785    -54020.28    -58577.27   -53931.876 
Loop time of 656.758 on 1 procs for 4505 steps with 19652 atoms

Performance: 0.593 ns/day, 40.496 hours/ns, 6.859 timesteps/s
99.8% CPU use with 1 MPI tasks x no OpenMP threads

MPI task timing breakdown:
Section |  min time  |  avg time  |  max time  |%varavg| %total
---------------------------------------------------------------
Pair    | 364.57     | 364.57     | 364.57     |   0.0 | 55.51
Neigh   | 275.09     | 275.09     | 275.09     |   0.0 | 41.89
Comm    | 6.7131     | 6.7131     | 6.7131     |   0.0 |  1.02
Output  | 0.049845   | 0.049845   | 0.049845   |   0.0 |  0.01
Modify  | 8.3069     | 8.3069     | 8.3069     |   0.0 |  1.26
Other   |            | 2.031      |            |       |  0.31

Nlocal:    19652 ave 19652 max 19652 min
Histogram: 1 0 0 0 0 0 0 0 0 0
Nghost:    16698 ave 16698 max 16698 min
Histogram: 1 0 0 0 0 0 0 0 0 0
Neighs:    1.1858e+06 ave 1.1858e+06 max 1.1858e+06 min
Histogram: 1 0 0 0 0 0 0 0 0 0

Total # of neighbors = 1185803
Ave neighs/atom = 60.3401
Neighbor list builds = 4505
Dangerous builds not checked
Setting up Verlet run ...
  Unit style    : metal
  Current step  : 105000
  Time step     : 0.001
Per MPI rank memory allocation (min/avg/max) = 18.2 | 18.2 | 18.2 Mbytes
Step Temp Press TotEng PotEng Enthalpy 
  105000    1794.0264    339.65785    -54020.28    -58577.27   -53931.876 
  105495    1759.7097    500.62421   -54207.583   -58677.406   -54077.899 
Loop time of 71.206 on 1 procs for 495 steps with 19652 atoms

Performance: 0.601 ns/day, 39.958 hours/ns, 6.952 timesteps/s
99.8% CPU use with 1 MPI tasks x no OpenMP threads

MPI task timing breakdown:
Section |  min time  |  avg time  |  max time  |%varavg| %total
---------------------------------------------------------------
Pair    | 39.639     | 39.639     | 39.639     |   0.0 | 55.67
Neigh   | 29.693     | 29.693     | 29.693     |   0.0 | 41.70
Comm    | 0.72594    | 0.72594    | 0.72594    |   0.0 |  1.02
Output  | 0.00019813 | 0.00019813 | 0.00019813 |   0.0 |  0.00
Modify  | 0.91966    | 0.91966    | 0.91966    |   0.0 |  1.29
Other   |            | 0.228      |            |       |  0.32

Nlocal:    19652 ave 19652 max 19652 min
Histogram: 1 0 0 0 0 0 0 0 0 0
Nghost:    16662 ave 16662 max 16662 min
Histogram: 1 0 0 0 0 0 0 0 0 0
Neighs:    1.19139e+06 ave 1.19139e+06 max 1.19139e+06 min
Histogram: 1 0 0 0 0 0 0 0 0 0

Total # of neighbors = 1191394
Ave neighs/atom = 60.6246
Neighbor list builds = 495
Dangerous builds not checked
Setting up Verlet run ...
  Unit style    : metal
  Current step  : 105495
  Time step     : 0.001
Per MPI rank memory allocation (min/avg/max) = 18.2 | 18.2 | 18.2 Mbytes
Step Temp Press TotEng PotEng Enthalpy 
  105495    1759.7097    500.62421   -54207.583   -58677.406   -54077.899 
  110000    1749.1451    523.73036   -54292.458   -58735.446   -54157.073 
Loop time of 665.85 on 1 procs for 4505 steps with 19652 atoms

Performance: 0.585 ns/day, 41.056 hours/ns, 6.766 timesteps/s
99.8% CPU use with 1 MPI tasks x no OpenMP threads

MPI task timing breakdown:
Section |  min time  |  avg time  |  max time  |%varavg| %total
---------------------------------------------------------------
Pair    | 372.29     | 372.29     | 372.29     |   0.0 | 55.91
Neigh   | 276.04     | 276.04     | 276.04     |   0.0 | 41.46
Comm    | 6.8604     | 6.8604     | 6.8604     |   0.0 |  1.03
Output  | 0.050887   | 0.050887   | 0.050887   |   0.0 |  0.01
Modify  | 8.516      | 8.516      | 8.516      |   0.0 |  1.28
Other   |            | 2.09       |            |       |  0.31

Nlocal:    19652 ave 19652 max 19652 min
Histogram: 1 0 0 0 0 0 0 0 0 0
Nghost:    16731 ave 16731 max 16731 min
Histogram: 1 0 0 0 0 0 0 0 0 0
Neighs:    1.19385e+06 ave 1.19385e+06 max 1.19385e+06 min
Histogram: 1 0 0 0 0 0 0 0 0 0

Total # of neighbors = 1193849
Ave neighs/atom = 60.7495
Neighbor list builds = 4505
Dangerous builds not checked
Setting up Verlet run ...
  Unit style    : metal
  Current step  : 110000
  Time step     : 0.001
Per MPI rank memory allocation (min/avg/max) = 18.2 | 18.2 | 18.2 Mbytes
Step Temp Press TotEng PotEng Enthalpy 
  110000    1749.1451    523.73036   -54292.458   -58735.446   -54157.073 
  110495    1706.7606    313.27026   -54495.359   -58830.686    -54414.71 
Loop time of 75.225 on 1 procs for 495 steps with 19652 atoms

Performance: 0.569 ns/day, 42.214 hours/ns, 6.580 timesteps/s
99.9% CPU use with 1 MPI tasks x no OpenMP threads

MPI task timing breakdown:
Section |  min time  |  avg time  |  max time  |%varavg| %total
---------------------------------------------------------------
Pair    | 42.701     | 42.701     | 42.701     |   0.0 | 56.76
Neigh   | 30.412     | 30.412     | 30.412     |   0.0 | 40.43
Comm    | 0.80794    | 0.80794    | 0.80794    |   0.0 |  1.07
Output  | 0.00023484 | 0.00023484 | 0.00023484 |   0.0 |  0.00
Modify  | 1.0421     | 1.0421     | 1.0421     |   0.0 |  1.39
Other   |            | 0.2612     |            |       |  0.35

Nlocal:    19652 ave 19652 max 19652 min
Histogram: 1 0 0 0 0 0 0 0 0 0
Nghost:    16773 ave 16773 max 16773 min
Histogram: 1 0 0 0 0 0 0 0 0 0
Neighs:    1.1985e+06 ave 1.1985e+06 max 1.1985e+06 min
Histogram: 1 0 0 0 0 0 0 0 0 0

Total # of neighbors = 1198498
Ave neighs/atom = 60.9861
Neighbor list builds = 495
Dangerous builds not checked
Setting up Verlet run ...
  Unit style    : metal
  Current step  : 110495
  Time step     : 0.001
Per MPI rank memory allocation (min/avg/max) = 18.2 | 18.2 | 18.2 Mbytes
Step Temp Press TotEng PotEng Enthalpy 
  110495    1706.7606    313.27026   -54495.359   -58830.686    -54414.71 
  115000    1700.9838    330.25757   -54568.998   -58889.652   -54484.204 
Loop time of 671.656 on 1 procs for 4505 steps with 19652 atoms

Performance: 0.580 ns/day, 41.414 hours/ns, 6.707 timesteps/s
99.8% CPU use with 1 MPI tasks x no OpenMP threads

MPI task timing breakdown:
Section |  min time  |  avg time  |  max time  |%varavg| %total
---------------------------------------------------------------
Pair    | 376.3      | 376.3      | 376.3      |   0.0 | 56.03
Neigh   | 277.46     | 277.46     | 277.46     |   0.0 | 41.31
Comm    | 6.9766     | 6.9766     | 6.9766     |   0.0 |  1.04
Output  | 0.050217   | 0.050217   | 0.050217   |   0.0 |  0.01
Modify  | 8.7032     | 8.7032     | 8.7032     |   0.0 |  1.30
Other   |            | 2.161      |            |       |  0.32

Nlocal:    19652 ave 19652 max 19652 min
Histogram: 1 0 0 0 0 0 0 0 0 0
Nghost:    16807 ave 16807 max 16807 min
Histogram: 1 0 0 0 0 0 0 0 0 0
Neighs:    1.2021e+06 ave 1.2021e+06 max 1.2021e+06 min
Histogram: 1 0 0 0 0 0 0 0 0 0

Total # of neighbors = 1202103
Ave neighs/atom = 61.1695
Neighbor list builds = 4505
Dangerous builds not checked
Setting up Verlet run ...
  Unit style    : metal
  Current step  : 115000
  Time step     : 0.001
Per MPI rank memory allocation (min/avg/max) = 18.2 | 18.2 | 18.2 Mbytes
Step Temp Press TotEng PotEng Enthalpy 
  115000    1700.9838    330.25757   -54568.998   -58889.652   -54484.204 
  115495    1664.2092    217.23165   -54752.862   -58980.105   -54697.228 
Loop time of 71.9353 on 1 procs for 495 steps with 19652 atoms

Performance: 0.595 ns/day, 40.368 hours/ns, 6.881 timesteps/s
99.8% CPU use with 1 MPI tasks x no OpenMP threads

MPI task timing breakdown:
Section |  min time  |  avg time  |  max time  |%varavg| %total
---------------------------------------------------------------
Pair    | 40.254     | 40.254     | 40.254     |   0.0 | 55.96
Neigh   | 29.766     | 29.766     | 29.766     |   0.0 | 41.38
Comm    | 0.74203    | 0.74203    | 0.74203    |   0.0 |  1.03
Output  | 0.00021005 | 0.00021005 | 0.00021005 |   0.0 |  0.00
Modify  | 0.93942    | 0.93942    | 0.93942    |   0.0 |  1.31
Other   |            | 0.2329     |            |       |  0.32

Nlocal:    19652 ave 19652 max 19652 min
Histogram: 1 0 0 0 0 0 0 0 0 0
Nghost:    16712 ave 16712 max 16712 min
Histogram: 1 0 0 0 0 0 0 0 0 0
Neighs:    1.20533e+06 ave 1.20533e+06 max 1.20533e+06 min
Histogram: 1 0 0 0 0 0 0 0 0 0

Total # of neighbors = 1205326
Ave neighs/atom = 61.3335
Neighbor list builds = 495
Dangerous builds not checked
Setting up Verlet run ...
  Unit style    : metal
  Current step  : 115495
  Time step     : 0.001
Per MPI rank memory allocation (min/avg/max) = 18.2 | 18.2 | 18.2 Mbytes
Step Temp Press TotEng PotEng Enthalpy 
  115495    1664.2092    217.23165   -54752.862   -58980.105   -54697.228 
  120000    1654.8579   -610.05159   -54789.234   -58992.724   -54945.621 
Loop time of 701.121 on 1 procs for 4505 steps with 19652 atoms

Performance: 0.555 ns/day, 43.231 hours/ns, 6.425 timesteps/s
99.8% CPU use with 1 MPI tasks x no OpenMP threads

MPI task timing breakdown:
Section |  min time  |  avg time  |  max time  |%varavg| %total
---------------------------------------------------------------
Pair    | 397.68     | 397.68     | 397.68     |   0.0 | 56.72
Neigh   | 283.95     | 283.95     | 283.95     |   0.0 | 40.50
Comm    | 7.5603     | 7.5603     | 7.5603     |   0.0 |  1.08
Output  | 0.051045   | 0.051045   | 0.051045   |   0.0 |  0.01
Modify  | 9.4804     | 9.4804     | 9.4804     |   0.0 |  1.35
Other   |            | 2.399      |            |       |  0.34

Nlocal:    19652 ave 19652 max 19652 min
Histogram: 1 0 0 0 0 0 0 0 0 0
Nghost:    16826 ave 16826 max 16826 min
Histogram: 1 0 0 0 0 0 0 0 0 0
Neighs:    1.20417e+06 ave 1.20417e+06 max 1.20417e+06 min
Histogram: 1 0 0 0 0 0 0 0 0 0

Total # of neighbors = 1204173
Ave neighs/atom = 61.2748
Neighbor list builds = 4505
Dangerous builds not checked
Setting up Verlet run ...
  Unit style    : metal
  Current step  : 120000
  Time step     : 0.001
Per MPI rank memory allocation (min/avg/max) = 18.2 | 18.2 | 18.2 Mbytes
Step Temp Press TotEng PotEng Enthalpy 
  120000    1654.8579   -610.05159   -54789.234   -58992.724   -54945.621 
  120495    1606.2845    364.59324    -55053.22   -59133.329   -54960.524 
Loop time of 75.2164 on 1 procs for 495 steps with 19652 atoms

Performance: 0.569 ns/day, 42.209 hours/ns, 6.581 timesteps/s
99.7% CPU use with 1 MPI tasks x no OpenMP threads

MPI task timing breakdown:
Section |  min time  |  avg time  |  max time  |%varavg| %total
---------------------------------------------------------------
Pair    | 42.387     | 42.387     | 42.387     |   0.0 | 56.35
Neigh   | 30.673     | 30.673     | 30.673     |   0.0 | 40.78
Comm    | 0.83429    | 0.83429    | 0.83429    |   0.0 |  1.11
Output  | 0.00021696 | 0.00021696 | 0.00021696 |   0.0 |  0.00
Modify  | 1.059      | 1.059      | 1.059      |   0.0 |  1.41
Other   |            | 0.2625     |            |       |  0.35

Nlocal:    19652 ave 19652 max 19652 min
Histogram: 1 0 0 0 0 0 0 0 0 0
Nghost:    16896 ave 16896 max 16896 min
Histogram: 1 0 0 0 0 0 0 0 0 0
Neighs:    1.21374e+06 ave 1.21374e+06 max 1.21374e+06 min
Histogram: 1 0 0 0 0 0 0 0 0 0

Total # of neighbors = 1213739
Ave neighs/atom = 61.7616
Neighbor list builds = 495
Dangerous builds not checked
Setting up Verlet run ...
  Unit style    : metal
  Current step  : 120495
  Time step     : 0.001
Per MPI rank memory allocation (min/avg/max) = 18.2 | 18.2 | 18.2 Mbytes
Step Temp Press TotEng PotEng Enthalpy 
  120495    1606.2845    364.59324    -55053.22   -59133.329   -54960.524 
  125000    1608.3266   -363.54524   -55104.175   -59189.471   -55196.542 
Loop time of 694.703 on 1 procs for 4505 steps with 19652 atoms

Performance: 0.560 ns/day, 42.835 hours/ns, 6.485 timesteps/s
99.8% CPU use with 1 MPI tasks x no OpenMP threads

MPI task timing breakdown:
Section |  min time  |  avg time  |  max time  |%varavg| %total
---------------------------------------------------------------
Pair    | 393.89     | 393.89     | 393.89     |   0.0 | 56.70
Neigh   | 281.77     | 281.77     | 281.77     |   0.0 | 40.56
Comm    | 7.4026     | 7.4026     | 7.4026     |   0.0 |  1.07
Output  | 0.050933   | 0.050933   | 0.050933   |   0.0 |  0.01
Modify  | 9.2752     | 9.2752     | 9.2752     |   0.0 |  1.34
Other   |            | 2.318      |            |       |  0.33

Nlocal:    19652 ave 19652 max 19652 min
Histogram: 1 0 0 0 0 0 0 0 0 0
Nghost:    16903 ave 16903 max 16903 min
Histogram: 1 0 0 0 0 0 0 0 0 0
Neighs:    1.21549e+06 ave 1.21549e+06 max 1.21549e+06 min
Histogram: 1 0 0 0 0 0 0 0 0 0

Total # of neighbors = 1215488
Ave neighs/atom = 61.8506
Neighbor list builds = 4505
Dangerous builds not checked
Setting up Verlet run ...
  Unit style    : metal
  Current step  : 125000
  Time step     : 0.001
Per MPI rank memory allocation (min/avg/max) = 18.2 | 18.2 | 18.2 Mbytes
Step Temp Press TotEng PotEng Enthalpy 
  125000    1608.3266   -363.54524   -55104.175   -59189.471   -55196.542 
  125495    1565.6314    54.012302   -55320.112   -59296.958   -55306.456 
Loop time of 75.8689 on 1 procs for 495 steps with 19652 atoms

Performance: 0.564 ns/day, 42.575 hours/ns, 6.524 timesteps/s
99.9% CPU use with 1 MPI tasks x no OpenMP threads

MPI task timing breakdown:
Section |  min time  |  avg time  |  max time  |%varavg| %total
---------------------------------------------------------------
Pair    | 43.205     | 43.205     | 43.205     |   0.0 | 56.95
Neigh   | 30.541     | 30.541     | 30.541     |   0.0 | 40.26
Comm    | 0.81286    | 0.81286    | 0.81286    |   0.0 |  1.07
Output  | 0.00019503 | 0.00019503 | 0.00019503 |   0.0 |  0.00
Modify  | 1.0448     | 1.0448     | 1.0448     |   0.0 |  1.38
Other   |            | 0.2653     |            |       |  0.35

Nlocal:    19652 ave 19652 max 19652 min
Histogram: 1 0 0 0 0 0 0 0 0 0
Nghost:    16931 ave 16931 max 16931 min
Histogram: 1 0 0 0 0 0 0 0 0 0
Neighs:    1.22144e+06 ave 1.22144e+06 max 1.22144e+06 min
Histogram: 1 0 0 0 0 0 0 0 0 0

Total # of neighbors = 1221442
Ave neighs/atom = 62.1536
Neighbor list builds = 495
Dangerous builds not checked
Setting up Verlet run ...
  Unit style    : metal
  Current step  : 125495
  Time step     : 0.001
Per MPI rank memory allocation (min/avg/max) = 18.2 | 18.2 | 18.2 Mbytes
Step Temp Press TotEng PotEng Enthalpy 
  125495    1565.6314    54.012302   -55320.112   -59296.958   -55306.456 
  130000     1536.164   -85.599301   -55467.865   -59369.861   -55489.445 
Loop time of 676.329 on 1 procs for 4505 steps with 19652 atoms

Performance: 0.576 ns/day, 41.702 hours/ns, 6.661 timesteps/s
99.8% CPU use with 1 MPI tasks x no OpenMP threads

MPI task timing breakdown:
Section |  min time  |  avg time  |  max time  |%varavg| %total
---------------------------------------------------------------
Pair    | 381.44     | 381.44     | 381.44     |   0.0 | 56.40
Neigh   | 276.98     | 276.98     | 276.98     |   0.0 | 40.95
Comm    | 6.9831     | 6.9831     | 6.9831     |   0.0 |  1.03
Output  | 0.049854   | 0.049854   | 0.049854   |   0.0 |  0.01
Modify  | 8.6961     | 8.6961     | 8.6961     |   0.0 |  1.29
Other   |            | 2.177      |            |       |  0.32

Nlocal:    19652 ave 19652 max 19652 min
Histogram: 1 0 0 0 0 0 0 0 0 0
Nghost:    16914 ave 16914 max 16914 min
Histogram: 1 0 0 0 0 0 0 0 0 0
Neighs:    1.22477e+06 ave 1.22477e+06 max 1.22477e+06 min
Histogram: 1 0 0 0 0 0 0 0 0 0

Total # of neighbors = 1224772
Ave neighs/atom = 62.323
Neighbor list builds = 4505
Dangerous builds not checked
Setting up Verlet run ...
  Unit style    : metal
  Current step  : 130000
  Time step     : 0.001
Per MPI rank memory allocation (min/avg/max) = 18.2 | 18.2 | 18.2 Mbytes
Step Temp Press TotEng PotEng Enthalpy 
  130000     1536.164   -85.599301   -55467.865   -59369.861   -55489.445 
  130495    1515.3915    -330.0065   -55599.983   -59449.216   -55682.966 
Loop time of 71.3446 on 1 procs for 495 steps with 19652 atoms

Performance: 0.599 ns/day, 40.036 hours/ns, 6.938 timesteps/s
99.7% CPU use with 1 MPI tasks x no OpenMP threads

MPI task timing breakdown:
Section |  min time  |  avg time  |  max time  |%varavg| %total
---------------------------------------------------------------
Pair    | 40.024     | 40.024     | 40.024     |   0.0 | 56.10
Neigh   | 29.471     | 29.471     | 29.471     |   0.0 | 41.31
Comm    | 0.71598    | 0.71598    | 0.71598    |   0.0 |  1.00
Output  | 0.00020003 | 0.00020003 | 0.00020003 |   0.0 |  0.00
Modify  | 0.91059    | 0.91059    | 0.91059    |   0.0 |  1.28
Other   |            | 0.2232     |            |       |  0.31

Nlocal:    19652 ave 19652 max 19652 min
Histogram: 1 0 0 0 0 0 0 0 0 0
Nghost:    16867 ave 16867 max 16867 min
Histogram: 1 0 0 0 0 0 0 0 0 0
Neighs:    1.22786e+06 ave 1.22786e+06 max 1.22786e+06 min
Histogram: 1 0 0 0 0 0 0 0 0 0

Total # of neighbors = 1227862
Ave neighs/atom = 62.4803
Neighbor list builds = 495
Dangerous builds not checked
Setting up Verlet run ...
  Unit style    : metal
  Current step  : 130495
  Time step     : 0.001
Per MPI rank memory allocation (min/avg/max) = 18.2 | 18.2 | 18.2 Mbytes
Step Temp Press TotEng PotEng Enthalpy 
  130495    1515.3915    -330.0065   -55599.983   -59449.216   -55682.966 
  135000    1492.6636   -402.97105   -55693.041   -59484.543   -55794.204 
Loop time of 689.478 on 1 procs for 4505 steps with 19652 atoms

Performance: 0.565 ns/day, 42.513 hours/ns, 6.534 timesteps/s
99.8% CPU use with 1 MPI tasks x no OpenMP threads

MPI task timing breakdown:
Section |  min time  |  avg time  |  max time  |%varavg| %total
---------------------------------------------------------------
Pair    | 391.62     | 391.62     | 391.62     |   0.0 | 56.80
Neigh   | 279.31     | 279.31     | 279.31     |   0.0 | 40.51
Comm    | 7.2208     | 7.2208     | 7.2208     |   0.0 |  1.05
Output  | 0.051661   | 0.051661   | 0.051661   |   0.0 |  0.01
Modify  | 9.0224     | 9.0224     | 9.0224     |   0.0 |  1.31
Other   |            | 2.251      |            |       |  0.33

Nlocal:    19652 ave 19652 max 19652 min
Histogram: 1 0 0 0 0 0 0 0 0 0
Nghost:    16956 ave 16956 max 16956 min
Histogram: 1 0 0 0 0 0 0 0 0 0
Neighs:    1.23037e+06 ave 1.23037e+06 max 1.23037e+06 min
Histogram: 1 0 0 0 0 0 0 0 0 0

Total # of neighbors = 1230368
Ave neighs/atom = 62.6078
Neighbor list builds = 4505
Dangerous builds not checked
Setting up Verlet run ...
  Unit style    : metal
  Current step  : 135000
  Time step     : 0.001
Per MPI rank memory allocation (min/avg/max) = 18.2 | 18.2 | 18.2 Mbytes
Step Temp Press TotEng PotEng Enthalpy 
  135000    1492.6636   -402.97105   -55693.041   -59484.543   -55794.204 
  135495    1453.9415    -92.71844   -55908.913   -59602.057   -55932.059 
Loop time of 76.7935 on 1 procs for 495 steps with 19652 atoms

Performance: 0.557 ns/day, 43.094 hours/ns, 6.446 timesteps/s
99.8% CPU use with 1 MPI tasks x no OpenMP threads

MPI task timing breakdown:
Section |  min time  |  avg time  |  max time  |%varavg| %total
---------------------------------------------------------------
Pair    | 44.143     | 44.143     | 44.143     |   0.0 | 57.48
Neigh   | 30.504     | 30.504     | 30.504     |   0.0 | 39.72
Comm    | 0.82363    | 0.82363    | 0.82363    |   0.0 |  1.07
Output  | 0.00021195 | 0.00021195 | 0.00021195 |   0.0 |  0.00
Modify  | 1.0548     | 1.0548     | 1.0548     |   0.0 |  1.37
Other   |            | 0.2683     |            |       |  0.35

Nlocal:    19652 ave 19652 max 19652 min
Histogram: 1 0 0 0 0 0 0 0 0 0
Nghost:    16991 ave 16991 max 16991 min
Histogram: 1 0 0 0 0 0 0 0 0 0
Neighs:    1.23746e+06 ave 1.23746e+06 max 1.23746e+06 min
Histogram: 1 0 0 0 0 0 0 0 0 0

Total # of neighbors = 1237464
Ave neighs/atom = 62.9689
Neighbor list builds = 495
Dangerous builds not checked
Setting up Verlet run ...
  Unit style    : metal
  Current step  : 135495
  Time step     : 0.001
Per MPI rank memory allocation (min/avg/max) = 18.2 | 18.2 | 18.2 Mbytes
Step Temp Press TotEng PotEng Enthalpy 
  135495    1453.9415    -92.71844   -55908.913   -59602.057   -55932.059 
  140000    1448.7399   -1031.4086   -55966.778    -59646.71   -56224.427 
Loop time of 680.176 on 1 procs for 4505 steps with 19652 atoms

Performance: 0.572 ns/day, 41.940 hours/ns, 6.623 timesteps/s
99.8% CPU use with 1 MPI tasks x no OpenMP threads

MPI task timing breakdown:
Section |  min time  |  avg time  |  max time  |%varavg| %total
---------------------------------------------------------------
Pair    | 385.71     | 385.71     | 385.71     |   0.0 | 56.71
Neigh   | 276.53     | 276.53     | 276.53     |   0.0 | 40.66
Comm    | 6.9992     | 6.9992     | 6.9992     |   0.0 |  1.03
Output  | 0.050371   | 0.050371   | 0.050371   |   0.0 |  0.01
Modify  | 8.7224     | 8.7224     | 8.7224     |   0.0 |  1.28
Other   |            | 2.164      |            |       |  0.32

Nlocal:    19652 ave 19652 max 19652 min
Histogram: 1 0 0 0 0 0 0 0 0 0
Nghost:    16902 ave 16902 max 16902 min
Histogram: 1 0 0 0 0 0 0 0 0 0
Neighs:    1.23646e+06 ave 1.23646e+06 max 1.23646e+06 min
Histogram: 1 0 0 0 0 0 0 0 0 0

Total # of neighbors = 1236458
Ave neighs/atom = 62.9177
Neighbor list builds = 4505
Dangerous builds not checked
Setting up Verlet run ...
  Unit style    : metal
  Current step  : 140000
  Time step     : 0.001
Per MPI rank memory allocation (min/avg/max) = 18.2 | 18.2 | 18.2 Mbytes
Step Temp Press TotEng PotEng Enthalpy 
  140000    1448.7399   -1031.4086   -55966.778    -59646.71   -56224.427 
  140495    1411.7209   -735.80032   -56195.262   -59781.162   -56377.881 
Loop time of 71.0836 on 1 procs for 495 steps with 19652 atoms

Performance: 0.602 ns/day, 39.890 hours/ns, 6.964 timesteps/s
99.7% CPU use with 1 MPI tasks x no OpenMP threads

MPI task timing breakdown:
Section |  min time  |  avg time  |  max time  |%varavg| %total
---------------------------------------------------------------
Pair    | 39.999     | 39.999     | 39.999     |   0.0 | 56.27
Neigh   | 29.291     | 29.291     | 29.291     |   0.0 | 41.21
Comm    | 0.69819    | 0.69819    | 0.69819    |   0.0 |  0.98
Output  | 0.00019097 | 0.00019097 | 0.00019097 |   0.0 |  0.00
Modify  | 0.87867    | 0.87867    | 0.87867    |   0.0 |  1.24
Other   |            | 0.217      |            |       |  0.31

Nlocal:    19652 ave 19652 max 19652 min
Histogram: 1 0 0 0 0 0 0 0 0 0
Nghost:    16964 ave 16964 max 16964 min
Histogram: 1 0 0 0 0 0 0 0 0 0
Neighs:    1.24514e+06 ave 1.24514e+06 max 1.24514e+06 min
Histogram: 1 0 0 0 0 0 0 0 0 0

Total # of neighbors = 1245141
Ave neighs/atom = 63.3595
Neighbor list builds = 495
Dangerous builds not checked
Setting up Verlet run ...
  Unit style    : metal
  Current step  : 140495
  Time step     : 0.001
Per MPI rank memory allocation (min/avg/max) = 18.2 | 18.2 | 18.2 Mbytes
Step Temp Press TotEng PotEng Enthalpy 
  140495    1411.7209   -735.80032   -56195.262   -59781.162   -56377.881 
  145000    1395.0061    434.38215   -56277.841   -59821.283   -56170.434 
Loop time of 715.127 on 1 procs for 4505 steps with 19652 atoms

Performance: 0.544 ns/day, 44.095 hours/ns, 6.300 timesteps/s
99.8% CPU use with 1 MPI tasks x no OpenMP threads

MPI task timing breakdown:
Section |  min time  |  avg time  |  max time  |%varavg| %total
---------------------------------------------------------------
Pair    | 411.2      | 411.2      | 411.2      |   0.0 | 57.50
Neigh   | 284.1      | 284.1      | 284.1      |   0.0 | 39.73
Comm    | 7.682      | 7.682      | 7.682      |   0.0 |  1.07
Output  | 0.051483   | 0.051483   | 0.051483   |   0.0 |  0.01
Modify  | 9.6522     | 9.6522     | 9.6522     |   0.0 |  1.35
Other   |            | 2.448      |            |       |  0.34

Nlocal:    19652 ave 19652 max 19652 min
Histogram: 1 0 0 0 0 0 0 0 0 0
Nghost:    16995 ave 16995 max 16995 min
Histogram: 1 0 0 0 0 0 0 0 0 0
Neighs:    1.24955e+06 ave 1.24955e+06 max 1.24955e+06 min
Histogram: 1 0 0 0 0 0 0 0 0 0

Total # of neighbors = 1249554
Ave neighs/atom = 63.5841
Neighbor list builds = 4505
Dangerous builds not checked
Setting up Verlet run ...
  Unit style    : metal
  Current step  : 145000
  Time step     : 0.001
Per MPI rank memory allocation (min/avg/max) = 18.2 | 18.2 | 18.2 Mbytes
Step Temp Press TotEng PotEng Enthalpy 
  145000    1395.0061    434.38215   -56277.841   -59821.283   -56170.434 
  145495    1365.8811   -1.1160028   -56475.354   -59944.816   -56475.629 
Loop time of 77.7324 on 1 procs for 495 steps with 19652 atoms

Performance: 0.550 ns/day, 43.621 hours/ns, 6.368 timesteps/s
99.8% CPU use with 1 MPI tasks x no OpenMP threads

MPI task timing breakdown:
Section |  min time  |  avg time  |  max time  |%varavg| %total
---------------------------------------------------------------
Pair    | 44.748     | 44.748     | 44.748     |   0.0 | 57.57
Neigh   | 30.749     | 30.749     | 30.749     |   0.0 | 39.56
Comm    | 0.85994    | 0.85994    | 0.85994    |   0.0 |  1.11
Output  | 0.00020409 | 0.00020409 | 0.00020409 |   0.0 |  0.00
Modify  | 1.1036     | 1.1036     | 1.1036     |   0.0 |  1.42
Other   |            | 0.2723     |            |       |  0.35

Nlocal:    19652 ave 19652 max 19652 min
Histogram: 1 0 0 0 0 0 0 0 0 0
Nghost:    17066 ave 17066 max 17066 min
Histogram: 1 0 0 0 0 0 0 0 0 0
Neighs:    1.25508e+06 ave 1.25508e+06 max 1.25508e+06 min
Histogram: 1 0 0 0 0 0 0 0 0 0

Total # of neighbors = 1255082
Ave neighs/atom = 63.8654
Neighbor list builds = 495
Dangerous builds not checked
Setting up Verlet run ...
  Unit style    : metal
  Current step  : 145495
  Time step     : 0.001
Per MPI rank memory allocation (min/avg/max) = 18.2 | 18.2 | 18.2 Mbytes
Step Temp Press TotEng PotEng Enthalpy 
  145495    1365.8811   -1.1160028   -56475.354   -59944.816   -56475.629 
  150000    1369.4299   -307.85168   -56531.153    -60009.63   -56606.847 
Loop time of 689.689 on 1 procs for 4505 steps with 19652 atoms

Performance: 0.564 ns/day, 42.526 hours/ns, 6.532 timesteps/s
99.8% CPU use with 1 MPI tasks x no OpenMP threads

MPI task timing breakdown:
Section |  min time  |  avg time  |  max time  |%varavg| %total
---------------------------------------------------------------
Pair    | 393.85     | 393.85     | 393.85     |   0.0 | 57.11
Neigh   | 277.59     | 277.59     | 277.59     |   0.0 | 40.25
Comm    | 7.1018     | 7.1018     | 7.1018     |   0.0 |  1.03
Output  | 0.051806   | 0.051806   | 0.051806   |   0.0 |  0.01
Modify  | 8.8715     | 8.8715     | 8.8715     |   0.0 |  1.29
Other   |            | 2.219      |            |       |  0.32

Nlocal:    19652 ave 19652 max 19652 min
Histogram: 1 0 0 0 0 0 0 0 0 0
Nghost:    17094 ave 17094 max 17094 min
Histogram: 1 0 0 0 0 0 0 0 0 0
Neighs:    1.25704e+06 ave 1.25704e+06 max 1.25704e+06 min
Histogram: 1 0 0 0 0 0 0 0 0 0

Total # of neighbors = 1257042
Ave neighs/atom = 63.9651
Neighbor list builds = 4505
Dangerous builds not checked
Setting up Verlet run ...
  Unit style    : metal
  Current step  : 150000
  Time step     : 0.001
Per MPI rank memory allocation (min/avg/max) = 18.2 | 18.2 | 18.2 Mbytes
Step Temp Press TotEng PotEng Enthalpy 
  150000    1369.4299   -307.85168   -56531.153    -60009.63   -56606.847 
  150495    1323.6679   -363.51414   -56766.782   -60129.019   -56855.717 
Loop time of 77.9059 on 1 procs for 495 steps with 19652 atoms

Performance: 0.549 ns/day, 43.718 hours/ns, 6.354 timesteps/s
99.9% CPU use with 1 MPI tasks x no OpenMP threads

MPI task timing breakdown:
Section |  min time  |  avg time  |  max time  |%varavg| %total
---------------------------------------------------------------
Pair    | 45.045     | 45.045     | 45.045     |   0.0 | 57.82
Neigh   | 30.65      | 30.65      | 30.65      |   0.0 | 39.34
Comm    | 0.84592    | 0.84592    | 0.84592    |   0.0 |  1.09
Output  | 0.00023603 | 0.00023603 | 0.00023603 |   0.0 |  0.00
Modify  | 1.0889     | 1.0889     | 1.0889     |   0.0 |  1.40
Other   |            | 0.2757     |            |       |  0.35

Nlocal:    19652 ave 19652 max 19652 min
Histogram: 1 0 0 0 0 0 0 0 0 0
Nghost:    17018 ave 17018 max 17018 min
Histogram: 1 0 0 0 0 0 0 0 0 0
Neighs:    1.2636e+06 ave 1.2636e+06 max 1.2636e+06 min
Histogram: 1 0 0 0 0 0 0 0 0 0

Total # of neighbors = 1263603
Ave neighs/atom = 64.299
Neighbor list builds = 495
Dangerous builds not checked
Setting up Verlet run ...
  Unit style    : metal
  Current step  : 150495
  Time step     : 0.001
Per MPI rank memory allocation (min/avg/max) = 18.2 | 18.2 | 18.2 Mbytes
Step Temp Press TotEng PotEng Enthalpy 
  150495    1323.6679   -363.51414   -56766.782   -60129.019   -56855.717 
  155000    1289.9064   -528.64947   -56904.171   -60180.651   -57033.191 
Loop time of 694.385 on 1 procs for 4505 steps with 19652 atoms

Performance: 0.561 ns/day, 42.816 hours/ns, 6.488 timesteps/s
99.7% CPU use with 1 MPI tasks x no OpenMP threads

MPI task timing breakdown:
Section |  min time  |  avg time  |  max time  |%varavg| %total
---------------------------------------------------------------
Pair    | 397.42     | 397.42     | 397.42     |   0.0 | 57.23
Neigh   | 278.45     | 278.45     | 278.45     |   0.0 | 40.10
Comm    | 7.2236     | 7.2236     | 7.2236     |   0.0 |  1.04
Output  | 0.050471   | 0.050471   | 0.050471   |   0.0 |  0.01
Modify  | 9.0107     | 9.0107     | 9.0107     |   0.0 |  1.30
Other   |            | 2.238      |            |       |  0.32

Nlocal:    19652 ave 19652 max 19652 min
Histogram: 1 0 0 0 0 0 0 0 0 0
Nghost:    17054 ave 17054 max 17054 min
Histogram: 1 0 0 0 0 0 0 0 0 0
Neighs:    1.26679e+06 ave 1.26679e+06 max 1.26679e+06 min
Histogram: 1 0 0 0 0 0 0 0 0 0

Total # of neighbors = 1266787
Ave neighs/atom = 64.461
Neighbor list builds = 4505
Dangerous builds not checked
Setting up Verlet run ...
  Unit style    : metal
  Current step  : 155000
  Time step     : 0.001
Per MPI rank memory allocation (min/avg/max) = 18.2 | 18.2 | 18.2 Mbytes
Step Temp Press TotEng PotEng Enthalpy 
  155000    1289.9064   -528.64947   -56904.171   -60180.651   -57033.191 
  155495    1260.1376   -30.515222     -57048.7   -60249.565   -57056.124 
Loop time of 71.5604 on 1 procs for 495 steps with 19652 atoms

Performance: 0.598 ns/day, 40.157 hours/ns, 6.917 timesteps/s
99.6% CPU use with 1 MPI tasks x no OpenMP threads

MPI task timing breakdown:
Section |  min time  |  avg time  |  max time  |%varavg| %total
---------------------------------------------------------------
Pair    | 40.446     | 40.446     | 40.446     |   0.0 | 56.52
Neigh   | 29.333     | 29.333     | 29.333     |   0.0 | 40.99
Comm    | 0.69711    | 0.69711    | 0.69711    |   0.0 |  0.97
Output  | 0.00018811 | 0.00018811 | 0.00018811 |   0.0 |  0.00
Modify  | 0.87293    | 0.87293    | 0.87293    |   0.0 |  1.22
Other   |            | 0.2118     |            |       |  0.30

Nlocal:    19652 ave 19652 max 19652 min
Histogram: 1 0 0 0 0 0 0 0 0 0
Nghost:    17203 ave 17203 max 17203 min
Histogram: 1 0 0 0 0 0 0 0 0 0
Neighs:    1.27136e+06 ave 1.27136e+06 max 1.27136e+06 min
Histogram: 1 0 0 0 0 0 0 0 0 0

Total # of neighbors = 1271359
Ave neighs/atom = 64.6936
Neighbor list builds = 495
Dangerous builds not checked
Setting up Verlet run ...
  Unit style    : metal
  Current step  : 155495
  Time step     : 0.001
Per MPI rank memory allocation (min/avg/max) = 18.2 | 18.2 | 18.2 Mbytes
Step Temp Press TotEng PotEng Enthalpy 
  155495    1260.1376   -30.515222     -57048.7   -60249.565   -57056.124 
  160000    1251.7933   -421.40814   -57151.086   -60330.755   -57253.358 
Loop time of 703.339 on 1 procs for 4505 steps with 19652 atoms

Performance: 0.553 ns/day, 43.368 hours/ns, 6.405 timesteps/s
99.7% CPU use with 1 MPI tasks x no OpenMP threads

MPI task timing breakdown:
Section |  min time  |  avg time  |  max time  |%varavg| %total
---------------------------------------------------------------
Pair    | 404.16     | 404.16     | 404.16     |   0.0 | 57.46
Neigh   | 280.16     | 280.16     | 280.16     |   0.0 | 39.83
Comm    | 7.3932     | 7.3932     | 7.3932     |   0.0 |  1.05
Output  | 0.05136    | 0.05136    | 0.05136    |   0.0 |  0.01
Modify  | 9.2585     | 9.2585     | 9.2585     |   0.0 |  1.32
Other   |            | 2.317      |            |       |  0.33

Nlocal:    19652 ave 19652 max 19652 min
Histogram: 1 0 0 0 0 0 0 0 0 0
Nghost:    17156 ave 17156 max 17156 min
Histogram: 1 0 0 0 0 0 0 0 0 0
Neighs:    1.27417e+06 ave 1.27417e+06 max 1.27417e+06 min
Histogram: 1 0 0 0 0 0 0 0 0 0

Total # of neighbors = 1274167
Ave neighs/atom = 64.8365
Neighbor list builds = 4505
Dangerous builds not checked
Setting up Verlet run ...
  Unit style    : metal
  Current step  : 160000
  Time step     : 0.001
Per MPI rank memory allocation (min/avg/max) = 18.2 | 18.2 | 18.2 Mbytes
Step Temp Press TotEng PotEng Enthalpy 
  160000    1251.7933   -421.40814   -57151.086   -60330.755   -57253.358 
  160495    1216.6737   -528.20643   -57339.135   -60429.598   -57466.839 
Loop time of 79.203 on 1 procs for 495 steps with 19652 atoms

Performance: 0.540 ns/day, 44.446 hours/ns, 6.250 timesteps/s
99.9% CPU use with 1 MPI tasks x no OpenMP threads

MPI task timing breakdown:
Section |  min time  |  avg time  |  max time  |%varavg| %total
---------------------------------------------------------------
Pair    | 45.978     | 45.978     | 45.978     |   0.0 | 58.05
Neigh   | 30.946     | 30.946     | 30.946     |   0.0 | 39.07
Comm    | 0.86877    | 0.86877    | 0.86877    |   0.0 |  1.10
Output  | 0.00025892 | 0.00025892 | 0.00025892 |   0.0 |  0.00
Modify  | 1.1177     | 1.1177     | 1.1177     |   0.0 |  1.41
Other   |            | 0.2931     |            |       |  0.37

Nlocal:    19652 ave 19652 max 19652 min
Histogram: 1 0 0 0 0 0 0 0 0 0
Nghost:    17113 ave 17113 max 17113 min
Histogram: 1 0 0 0 0 0 0 0 0 0
Neighs:    1.27865e+06 ave 1.27865e+06 max 1.27865e+06 min
Histogram: 1 0 0 0 0 0 0 0 0 0

Total # of neighbors = 1278651
Ave neighs/atom = 65.0647
Neighbor list builds = 495
Dangerous builds not checked
Setting up Verlet run ...
  Unit style    : metal
  Current step  : 160495
  Time step     : 0.001
Per MPI rank memory allocation (min/avg/max) = 18.2 | 18.2 | 18.2 Mbytes
Step Temp Press TotEng PotEng Enthalpy 
  160495    1216.6737   -528.20643   -57339.135   -60429.598   -57466.839 
  165000    1212.3825    215.73823    -57435.76   -60515.322    -57383.83 
Loop time of 727.662 on 1 procs for 4505 steps with 19652 atoms

Performance: 0.535 ns/day, 44.868 hours/ns, 6.191 timesteps/s
99.8% CPU use with 1 MPI tasks x no OpenMP threads

MPI task timing breakdown:
Section |  min time  |  avg time  |  max time  |%varavg| %total
---------------------------------------------------------------
Pair    | 422.65     | 422.65     | 422.65     |   0.0 | 58.08
Neigh   | 284.58     | 284.58     | 284.58     |   0.0 | 39.11
Comm    | 7.9038     | 7.9038     | 7.9038     |   0.0 |  1.09
Output  | 0.051833   | 0.051833   | 0.051833   |   0.0 |  0.01
Modify  | 9.9463     | 9.9463     | 9.9463     |   0.0 |  1.37
Other   |            | 2.526      |            |       |  0.35

Nlocal:    19652 ave 19652 max 19652 min
Histogram: 1 0 0 0 0 0 0 0 0 0
Nghost:    17205 ave 17205 max 17205 min
Histogram: 1 0 0 0 0 0 0 0 0 0
Neighs:    1.2849e+06 ave 1.2849e+06 max 1.2849e+06 min
Histogram: 1 0 0 0 0 0 0 0 0 0

Total # of neighbors = 1284896
Ave neighs/atom = 65.3825
Neighbor list builds = 4505
Dangerous builds not checked
Setting up Verlet run ...
  Unit style    : metal
  Current step  : 165000
  Time step     : 0.001
Per MPI rank memory allocation (min/avg/max) = 18.2 | 18.2 | 18.2 Mbytes
Step Temp Press TotEng PotEng Enthalpy 
  165000    1212.3825    215.73823    -57435.76   -60515.322    -57383.83 
  165495     1168.033    551.88882    -57610.45   -60577.361    -57478.06 
Loop time of 77.4492 on 1 procs for 495 steps with 19652 atoms

Performance: 0.552 ns/day, 43.462 hours/ns, 6.391 timesteps/s
99.3% CPU use with 1 MPI tasks x no OpenMP threads

MPI task timing breakdown:
Section |  min time  |  avg time  |  max time  |%varavg| %total
---------------------------------------------------------------
Pair    | 44.665     | 44.665     | 44.665     |   0.0 | 57.67
Neigh   | 30.653     | 30.653     | 30.653     |   0.0 | 39.58
Comm    | 0.82064    | 0.82064    | 0.82064    |   0.0 |  1.06
Output  | 0.00020003 | 0.00020003 | 0.00020003 |   0.0 |  0.00
Modify  | 1.0438     | 1.0438     | 1.0438     |   0.0 |  1.35
Other   |            | 0.2671     |            |       |  0.34

Nlocal:    19652 ave 19652 max 19652 min
Histogram: 1 0 0 0 0 0 0 0 0 0
Nghost:    17250 ave 17250 max 17250 min
Histogram: 1 0 0 0 0 0 0 0 0 0
Neighs:    1.28943e+06 ave 1.28943e+06 max 1.28943e+06 min
Histogram: 1 0 0 0 0 0 0 0 0 0

Total # of neighbors = 1289426
Ave neighs/atom = 65.613
Neighbor list builds = 495
Dangerous builds not checked
Setting up Verlet run ...
  Unit style    : metal
  Current step  : 165495
  Time step     : 0.001
Per MPI rank memory allocation (min/avg/max) = 18.2 | 18.2 | 18.2 Mbytes
Step Temp Press TotEng PotEng Enthalpy 
  165495     1168.033    551.88882    -57610.45   -60577.361    -57478.06 
  170000     1155.619   -585.17092   -57745.134   -60680.512   -57885.267 
Loop time of 711.038 on 1 procs for 4505 steps with 19652 atoms

Performance: 0.547 ns/day, 43.843 hours/ns, 6.336 timesteps/s
99.7% CPU use with 1 MPI tasks x no OpenMP threads

MPI task timing breakdown:
Section |  min time  |  avg time  |  max time  |%varavg| %total
[...]
Neighbor list builds = 4505
Dangerous builds not checked
Setting up Verlet run ...
  Unit style    : metal
  Current step  : 240000
  Time step     : 0.001
Per MPI rank memory allocation (min/avg/max) = 18.2 | 18.2 | 18.2 Mbytes
Step Temp Press TotEng PotEng Enthalpy 
  240000     451.2509    325.05315   -62235.825   -63382.044   -62165.521 
  240495    420.59384    461.52532   -62384.058   -63452.404   -62284.484 
Loop time of 83.9122 on 1 procs for 495 steps with 19652 atoms

Performance: 0.510 ns/day, 47.089 hours/ns, 5.899 timesteps/s
99.6% CPU use with 1 MPI tasks x no OpenMP threads

MPI task timing breakdown:
Section |  min time  |  avg time  |  max time  |%varavg| %total
---------------------------------------------------------------
Pair    | 48.498     | 48.498     | 48.498     |   0.0 | 57.80
Neigh   | 33.17      | 33.17      | 33.17      |   0.0 | 39.53
Comm    | 0.85491    | 0.85491    | 0.85491    |   0.0 |  1.02
Output  | 0.00026989 | 0.00026989 | 0.00026989 |   0.0 |  0.00
Modify  | 1.0978     | 1.0978     | 1.0978     |   0.0 |  1.31
Other   |            | 0.291      |            |       |  0.35

Nlocal:    19652 ave 19652 max 19652 min
Histogram: 1 0 0 0 0 0 0 0 0 0
Nghost:    18030 ave 18030 max 18030 min
Histogram: 1 0 0 0 0 0 0 0 0 0
Neighs:    1.43747e+06 ave 1.43747e+06 max 1.43747e+06 min
Histogram: 1 0 0 0 0 0 0 0 0 0

Total # of neighbors = 1437470
Ave neighs/atom = 73.1462
Neighbor list builds = 495
Dangerous builds not checked
Setting up Verlet run ...
  Unit style    : metal
  Current step  : 240495
  Time step     : 0.001
Per MPI rank memory allocation (min/avg/max) = 18.2 | 18.2 | 18.2 Mbytes
Step Temp Press TotEng PotEng Enthalpy 
  240495    420.59384    461.52532   -62384.058   -63452.404   -62284.484 
  245000    397.94494    220.96176   -62560.786   -63571.602   -62513.304 
Loop time of 732.709 on 1 procs for 4505 steps with 19652 atoms

Performance: 0.531 ns/day, 45.179 hours/ns, 6.148 timesteps/s
99.6% CPU use with 1 MPI tasks x no OpenMP threads

MPI task timing breakdown:
Section |  min time  |  avg time  |  max time  |%varavg| %total
---------------------------------------------------------------
Pair    | 418.01     | 418.01     | 418.01     |   0.0 | 57.05
Neigh   | 296.23     | 296.23     | 296.23     |   0.0 | 40.43
Comm    | 7.1836     | 7.1836     | 7.1836     |   0.0 |  0.98
Output  | 0.05013    | 0.05013    | 0.05013    |   0.0 |  0.01
Modify  | 8.9854     | 8.9854     | 8.9854     |   0.0 |  1.23
Other   |            | 2.253      |            |       |  0.31

Nlocal:    19652 ave 19652 max 19652 min
Histogram: 1 0 0 0 0 0 0 0 0 0
Nghost:    18069 ave 18069 max 18069 min
Histogram: 1 0 0 0 0 0 0 0 0 0
Neighs:    1.44324e+06 ave 1.44324e+06 max 1.44324e+06 min
Histogram: 1 0 0 0 0 0 0 0 0 0

Total # of neighbors = 1443235
Ave neighs/atom = 73.4396
Neighbor list builds = 4505
Dangerous builds not checked
Setting up Verlet run ...
  Unit style    : metal
  Current step  : 245000
  Time step     : 0.001
Per MPI rank memory allocation (min/avg/max) = 18.2 | 18.2 | 18.2 Mbytes
Step Temp Press TotEng PotEng Enthalpy 
  245000    397.94494    220.96176   -62560.786   -63571.602   -62513.304 
  245495    372.48263    505.32473    -62713.88    -63660.02   -62605.661 
Loop time of 81.1507 on 1 procs for 495 steps with 19652 atoms

Performance: 0.527 ns/day, 45.539 hours/ns, 6.100 timesteps/s
98.5% CPU use with 1 MPI tasks x no OpenMP threads

MPI task timing breakdown:
Section |  min time  |  avg time  |  max time  |%varavg| %total
---------------------------------------------------------------
Pair    | 46.522     | 46.522     | 46.522     |   0.0 | 57.33
Neigh   | 32.6       | 32.6       | 32.6       |   0.0 | 40.17
Comm    | 0.77688    | 0.77688    | 0.77688    |   0.0 |  0.96
Output  | 0.00022697 | 0.00022697 | 0.00022697 |   0.0 |  0.00
Modify  | 0.98186    | 0.98186    | 0.98186    |   0.0 |  1.21
Other   |            | 0.2699     |            |       |  0.33

Nlocal:    19652 ave 19652 max 19652 min
Histogram: 1 0 0 0 0 0 0 0 0 0
Nghost:    18144 ave 18144 max 18144 min
Histogram: 1 0 0 0 0 0 0 0 0 0
Neighs:    1.44804e+06 ave 1.44804e+06 max 1.44804e+06 min
Histogram: 1 0 0 0 0 0 0 0 0 0

Total # of neighbors = 1448037
Ave neighs/atom = 73.684
Neighbor list builds = 495
Dangerous builds not checked
Setting up Verlet run ...
  Unit style    : metal
  Current step  : 245495
  Time step     : 0.001
Per MPI rank memory allocation (min/avg/max) = 18.2 | 18.2 | 18.2 Mbytes
Step Temp Press TotEng PotEng Enthalpy 
  245495    372.48263    505.32473    -62713.88    -63660.02   -62605.661 
  250000    349.95639      111.486   -62889.378   -63778.299   -62865.586 
Loop time of 751.515 on 1 procs for 4505 steps with 19652 atoms

Performance: 0.518 ns/day, 46.338 hours/ns, 5.995 timesteps/s
99.8% CPU use with 1 MPI tasks x no OpenMP threads

MPI task timing breakdown:
Section |  min time  |  avg time  |  max time  |%varavg| %total
---------------------------------------------------------------
Pair    | 433.82     | 433.82     | 433.82     |   0.0 | 57.73
Neigh   | 298.12     | 298.12     | 298.12     |   0.0 | 39.67
Comm    | 7.501      | 7.501      | 7.501      |   0.0 |  1.00
Output  | 0.051237   | 0.051237   | 0.051237   |   0.0 |  0.01
Modify  | 9.5524     | 9.5524     | 9.5524     |   0.0 |  1.27
Other   |            | 2.465      |            |       |  0.33

Nlocal:    19652 ave 19652 max 19652 min
Histogram: 1 0 0 0 0 0 0 0 0 0
Nghost:    18092 ave 18092 max 18092 min
Histogram: 1 0 0 0 0 0 0 0 0 0
Neighs:    1.45278e+06 ave 1.45278e+06 max 1.45278e+06 min
Histogram: 1 0 0 0 0 0 0 0 0 0

Total # of neighbors = 1452781
Ave neighs/atom = 73.9254
Neighbor list builds = 4505
Dangerous builds not checked
Setting up Verlet run ...
  Unit style    : metal
  Current step  : 250000
  Time step     : 0.001
Per MPI rank memory allocation (min/avg/max) = 18.2 | 18.2 | 18.2 Mbytes
Step Temp Press TotEng PotEng Enthalpy 
  250000    349.95639      111.486   -62889.378   -63778.299   -62865.586 
  250495    323.14015    374.65106   -63038.099   -63858.904   -62958.374 
Loop time of 81.4292 on 1 procs for 495 steps with 19652 atoms

Performance: 0.525 ns/day, 45.695 hours/ns, 6.079 timesteps/s
99.7% CPU use with 1 MPI tasks x no OpenMP threads

MPI task timing breakdown:
Section |  min time  |  avg time  |  max time  |%varavg| %total
---------------------------------------------------------------
Pair    | 46.795     | 46.795     | 46.795     |   0.0 | 57.47
Neigh   | 32.532     | 32.532     | 32.532     |   0.0 | 39.95
Comm    | 0.8114     | 0.8114     | 0.8114     |   0.0 |  1.00
Output  | 0.000247   | 0.000247   | 0.000247   |   0.0 |  0.00
Modify  | 1.0301     | 1.0301     | 1.0301     |   0.0 |  1.27
Other   |            | 0.2607     |            |       |  0.32

Nlocal:    19652 ave 19652 max 19652 min
Histogram: 1 0 0 0 0 0 0 0 0 0
Nghost:    18135 ave 18135 max 18135 min
Histogram: 1 0 0 0 0 0 0 0 0 0
Neighs:    1.45691e+06 ave 1.45691e+06 max 1.45691e+06 min
Histogram: 1 0 0 0 0 0 0 0 0 0

Total # of neighbors = 1456906
Ave neighs/atom = 74.1353
Neighbor list builds = 495
Dangerous builds not checked
Setting up Verlet run ...
  Unit style    : metal
  Current step  : 250495
  Time step     : 0.001
Per MPI rank memory allocation (min/avg/max) = 18.2 | 18.2 | 18.2 Mbytes
Step Temp Press TotEng PotEng Enthalpy 
  250495    323.14015    374.65106   -63038.099   -63858.904   -62958.374 
  255000      298.146   -110.41173   -63212.516   -63969.834   -63235.936 
Loop time of 749.875 on 1 procs for 4505 steps with 19652 atoms

Performance: 0.519 ns/day, 46.237 hours/ns, 6.008 timesteps/s
99.8% CPU use with 1 MPI tasks x no OpenMP threads

MPI task timing breakdown:
Section |  min time  |  avg time  |  max time  |%varavg| %total
---------------------------------------------------------------
Pair    | 432.93     | 432.93     | 432.93     |   0.0 | 57.73
Neigh   | 297.49     | 297.49     | 297.49     |   0.0 | 39.67
Comm    | 7.4761     | 7.4761     | 7.4761     |   0.0 |  1.00
Output  | 0.064821   | 0.064821   | 0.064821   |   0.0 |  0.01
Modify  | 9.4562     | 9.4562     | 9.4562     |   0.0 |  1.26
Other   |            | 2.456      |            |       |  0.33

Nlocal:    19652 ave 19652 max 19652 min
Histogram: 1 0 0 0 0 0 0 0 0 0
Nghost:    18167 ave 18167 max 18167 min
Histogram: 1 0 0 0 0 0 0 0 0 0
Neighs:    1.46044e+06 ave 1.46044e+06 max 1.46044e+06 min
Histogram: 1 0 0 0 0 0 0 0 0 0

Total # of neighbors = 1460445
Ave neighs/atom = 74.3153
Neighbor list builds = 4505
Dangerous builds not checked
Setting up Verlet run ...
  Unit style    : metal
  Current step  : 255000
  Time step     : 0.001
Per MPI rank memory allocation (min/avg/max) = 18.2 | 18.2 | 18.2 Mbytes
Step Temp Press TotEng PotEng Enthalpy 
  255000      298.146   -110.41173   -63212.516   -63969.834   -63235.936 
  255495     274.1786     250.4327   -63350.811    -64047.25    -63297.85 
Loop time of 83.6922 on 1 procs for 495 steps with 19652 atoms

Performance: 0.511 ns/day, 46.965 hours/ns, 5.915 timesteps/s
99.6% CPU use with 1 MPI tasks x no OpenMP threads

MPI task timing breakdown:
Section |  min time  |  avg time  |  max time  |%varavg| %total
---------------------------------------------------------------
Pair    | 48.549     | 48.549     | 48.549     |   0.0 | 58.01
Neigh   | 32.877     | 32.877     | 32.877     |   0.0 | 39.28
Comm    | 0.87676    | 0.87676    | 0.87676    |   0.0 |  1.05
Output  | 0.00025702 | 0.00025702 | 0.00025702 |   0.0 |  0.00
Modify  | 1.1089     | 1.1089     | 1.1089     |   0.0 |  1.33
Other   |            | 0.2804     |            |       |  0.33

Nlocal:    19652 ave 19652 max 19652 min
Histogram: 1 0 0 0 0 0 0 0 0 0
Nghost:    18150 ave 18150 max 18150 min
Histogram: 1 0 0 0 0 0 0 0 0 0
Neighs:    1.4649e+06 ave 1.4649e+06 max 1.4649e+06 min
Histogram: 1 0 0 0 0 0 0 0 0 0

Total # of neighbors = 1464896
Ave neighs/atom = 74.5418
Neighbor list builds = 495
Dangerous builds not checked
Setting up Verlet run ...
  Unit style    : metal
  Current step  : 255495
  Time step     : 0.001
Per MPI rank memory allocation (min/avg/max) = 18.2 | 18.2 | 18.2 Mbytes
Step Temp Press TotEng PotEng Enthalpy 
  255495     274.1786     250.4327   -63350.811    -64047.25    -63297.85 
  260000    250.47042    265.89732   -63513.987   -64150.205   -63457.935 
Loop time of 743.213 on 1 procs for 4505 steps with 19652 atoms

Performance: 0.524 ns/day, 45.826 hours/ns, 6.062 timesteps/s
99.9% CPU use with 1 MPI tasks x no OpenMP threads

MPI task timing breakdown:
Section |  min time  |  avg time  |  max time  |%varavg| %total
---------------------------------------------------------------
Pair    | 429.03     | 429.03     | 429.03     |   0.0 | 57.73
Neigh   | 295.02     | 295.02     | 295.02     |   0.0 | 39.70
Comm    | 7.3935     | 7.3935     | 7.3935     |   0.0 |  0.99
Output  | 0.051122   | 0.051122   | 0.051122   |   0.0 |  0.01
Modify  | 9.3467     | 9.3467     | 9.3467     |   0.0 |  1.26
Other   |            | 2.372      |            |       |  0.32

Nlocal:    19652 ave 19652 max 19652 min
Histogram: 1 0 0 0 0 0 0 0 0 0
Nghost:    18183 ave 18183 max 18183 min
Histogram: 1 0 0 0 0 0 0 0 0 0
Neighs:    1.46861e+06 ave 1.46861e+06 max 1.46861e+06 min
Histogram: 1 0 0 0 0 0 0 0 0 0

Total # of neighbors = 1468613
Ave neighs/atom = 74.731
Neighbor list builds = 4505
Dangerous builds not checked
Setting up Verlet run ...
  Unit style    : metal
  Current step  : 260000
  Time step     : 0.001
Per MPI rank memory allocation (min/avg/max) = 18.2 | 18.2 | 18.2 Mbytes
Step Temp Press TotEng PotEng Enthalpy 
  260000    250.47042    265.89732   -63513.987   -64150.205   -63457.935 
  260495    224.72779   -45.753603     -63650.1   -64220.929   -63659.727 
Loop time of 82.4913 on 1 procs for 495 steps with 19652 atoms

Performance: 0.518 ns/day, 46.291 hours/ns, 6.001 timesteps/s
99.9% CPU use with 1 MPI tasks x no OpenMP threads

MPI task timing breakdown:
Section |  min time  |  avg time  |  max time  |%varavg| %total
---------------------------------------------------------------
Pair    | 47.758     | 47.758     | 47.758     |   0.0 | 57.90
Neigh   | 32.535     | 32.535     | 32.535     |   0.0 | 39.44
Comm    | 0.85059    | 0.85059    | 0.85059    |   0.0 |  1.03
Output  | 0.00021791 | 0.00021791 | 0.00021791 |   0.0 |  0.00
Modify  | 1.075      | 1.075      | 1.075      |   0.0 |  1.30
Other   |            | 0.2722     |            |       |  0.33

Nlocal:    19652 ave 19652 max 19652 min
Histogram: 1 0 0 0 0 0 0 0 0 0
Nghost:    18235 ave 18235 max 18235 min
Histogram: 1 0 0 0 0 0 0 0 0 0
Neighs:    1.47075e+06 ave 1.47075e+06 max 1.47075e+06 min
Histogram: 1 0 0 0 0 0 0 0 0 0

Total # of neighbors = 1470751
Ave neighs/atom = 74.8398
Neighbor list builds = 495
Dangerous builds not checked
Setting up Verlet run ...
  Unit style    : metal
  Current step  : 260495
  Time step     : 0.001
Per MPI rank memory allocation (min/avg/max) = 18.2 | 18.2 | 18.2 Mbytes
Step Temp Press TotEng PotEng Enthalpy 
  260495    224.72779   -45.753603     -63650.1   -64220.929   -63659.727 
  265000    201.57415   -284.53383   -63796.179   -64308.196    -63855.91 
Loop time of 735.242 on 1 procs for 4505 steps with 19652 atoms

Performance: 0.529 ns/day, 45.335 hours/ns, 6.127 timesteps/s
99.8% CPU use with 1 MPI tasks x no OpenMP threads

MPI task timing breakdown:
Section |  min time  |  avg time  |  max time  |%varavg| %total
---------------------------------------------------------------
Pair    | 423.71     | 423.71     | 423.71     |   0.0 | 57.63
Neigh   | 292.92     | 292.92     | 292.92     |   0.0 | 39.84
Comm    | 7.1714     | 7.1714     | 7.1714     |   0.0 |  0.98
Output  | 0.050142   | 0.050142   | 0.050142   |   0.0 |  0.01
Modify  | 9.0662     | 9.0662     | 9.0662     |   0.0 |  1.23
Other   |            | 2.322      |            |       |  0.32

Nlocal:    19652 ave 19652 max 19652 min
Histogram: 1 0 0 0 0 0 0 0 0 0
Nghost:    18246 ave 18246 max 18246 min
Histogram: 1 0 0 0 0 0 0 0 0 0
Neighs:    1.4742e+06 ave 1.4742e+06 max 1.4742e+06 min
Histogram: 1 0 0 0 0 0 0 0 0 0

Total # of neighbors = 1474202
Ave neighs/atom = 75.0154
Neighbor list builds = 4505
Dangerous builds not checked
Setting up Verlet run ...
  Unit style    : metal
  Current step  : 265000
  Time step     : 0.001
Per MPI rank memory allocation (min/avg/max) = 18.2 | 18.2 | 18.2 Mbytes
Step Temp Press TotEng PotEng Enthalpy 
  265000    201.57415   -284.53383   -63796.179   -64308.196    -63855.91 
  265495     175.4591    33.757249   -63926.985   -64372.667   -63919.917 
Loop time of 83.7425 on 1 procs for 495 steps with 19652 atoms

Performance: 0.511 ns/day, 46.994 hours/ns, 5.911 timesteps/s
96.9% CPU use with 1 MPI tasks x no OpenMP threads

MPI task timing breakdown:
Section |  min time  |  avg time  |  max time  |%varavg| %total
---------------------------------------------------------------
Pair    | 48.19      | 48.19      | 48.19      |   0.0 | 57.55
Neigh   | 33.343     | 33.343     | 33.343     |   0.0 | 39.82
Comm    | 0.85034    | 0.85034    | 0.85034    |   0.0 |  1.02
Output  | 0.00024986 | 0.00024986 | 0.00024986 |   0.0 |  0.00
Modify  | 1.0798     | 1.0798     | 1.0798     |   0.0 |  1.29
Other   |            | 0.2793     |            |       |  0.33

Nlocal:    19652 ave 19652 max 19652 min
Histogram: 1 0 0 0 0 0 0 0 0 0
Nghost:    18244 ave 18244 max 18244 min
Histogram: 1 0 0 0 0 0 0 0 0 0
Neighs:    1.47769e+06 ave 1.47769e+06 max 1.47769e+06 min
Histogram: 1 0 0 0 0 0 0 0 0 0

Total # of neighbors = 1477689
Ave neighs/atom = 75.1928
Neighbor list builds = 495
Dangerous builds not checked
Setting up Verlet run ...
  Unit style    : metal
  Current step  : 265495
  Time step     : 0.001
Per MPI rank memory allocation (min/avg/max) = 18.2 | 18.2 | 18.2 Mbytes
Step Temp Press TotEng PotEng Enthalpy 
  265495     175.4591    33.757249   -63926.985   -64372.667   -63919.917 
  270000     147.7974   -159.36714   -64079.193   -64454.611   -64112.493 
Loop time of 731.375 on 1 procs for 4505 steps with 19652 atoms

Performance: 0.532 ns/day, 45.096 hours/ns, 6.160 timesteps/s
99.8% CPU use with 1 MPI tasks x no OpenMP threads

MPI task timing breakdown:
Section |  min time  |  avg time  |  max time  |%varavg| %total
---------------------------------------------------------------
Pair    | 419.88     | 419.88     | 419.88     |   0.0 | 57.41
Neigh   | 292.7      | 292.7      | 292.7      |   0.0 | 40.02
Comm    | 7.2519     | 7.2519     | 7.2519     |   0.0 |  0.99
Output  | 0.051084   | 0.051084   | 0.051084   |   0.0 |  0.01
Modify  | 9.1596     | 9.1596     | 9.1596     |   0.0 |  1.25
Other   |            | 2.332      |            |       |  0.32

Nlocal:    19652 ave 19652 max 19652 min
Histogram: 1 0 0 0 0 0 0 0 0 0
Nghost:    18278 ave 18278 max 18278 min
Histogram: 1 0 0 0 0 0 0 0 0 0
Neighs:    1.47991e+06 ave 1.47991e+06 max 1.47991e+06 min
Histogram: 1 0 0 0 0 0 0 0 0 0

Total # of neighbors = 1479907
Ave neighs/atom = 75.3057
Neighbor list builds = 4505
Dangerous builds not checked
Setting up Verlet run ...
  Unit style    : metal
  Current step  : 270000
  Time step     : 0.001
Per MPI rank memory allocation (min/avg/max) = 18.2 | 18.2 | 18.2 Mbytes
Step Temp Press TotEng PotEng Enthalpy 
  270000     147.7974   -159.36714   -64079.193   -64454.611   -64112.493 
  270495    127.26246    31.124482   -64196.623   -64519.882   -64190.134 
Loop time of 76.9375 on 1 procs for 495 steps with 19652 atoms

Performance: 0.556 ns/day, 43.175 hours/ns, 6.434 timesteps/s
99.9% CPU use with 1 MPI tasks x no OpenMP threads

MPI task timing breakdown:
Section |  min time  |  avg time  |  max time  |%varavg| %total
---------------------------------------------------------------
Pair    | 43.705     | 43.705     | 43.705     |   0.0 | 56.81
Neigh   | 31.434     | 31.434     | 31.434     |   0.0 | 40.86
Comm    | 0.6986     | 0.6986     | 0.6986     |   0.0 |  0.91
Output  | 0.00019407 | 0.00019407 | 0.00019407 |   0.0 |  0.00
Modify  | 0.87963    | 0.87963    | 0.87963    |   0.0 |  1.14
Other   |            | 0.2195     |            |       |  0.29

Nlocal:    19652 ave 19652 max 19652 min
Histogram: 1 0 0 0 0 0 0 0 0 0
Nghost:    18292 ave 18292 max 18292 min
Histogram: 1 0 0 0 0 0 0 0 0 0
Neighs:    1.48279e+06 ave 1.48279e+06 max 1.48279e+06 min
Histogram: 1 0 0 0 0 0 0 0 0 0

Total # of neighbors = 1482794
Ave neighs/atom = 75.4526
Neighbor list builds = 495
Dangerous builds not checked
Setting up Verlet run ...
  Unit style    : metal
  Current step  : 270495
  Time step     : 0.001
Per MPI rank memory allocation (min/avg/max) = 18.2 | 18.2 | 18.2 Mbytes
Step Temp Press TotEng PotEng Enthalpy 
  270495    127.26246    31.124482   -64196.623   -64519.882   -64190.134 
  275000      100.407    70.468018   -64341.689   -64596.732   -64327.032 
Loop time of 740.121 on 1 procs for 4505 steps with 19652 atoms

Performance: 0.526 ns/day, 45.636 hours/ns, 6.087 timesteps/s
99.6% CPU use with 1 MPI tasks x no OpenMP threads

MPI task timing breakdown:
Section |  min time  |  avg time  |  max time  |%varavg| %total
---------------------------------------------------------------
Pair    | 427.15     | 427.15     | 427.15     |   0.0 | 57.71
Neigh   | 293.5      | 293.5      | 293.5      |   0.0 | 39.66
Comm    | 7.5113     | 7.5113     | 7.5113     |   0.0 |  1.01
Output  | 0.051563   | 0.051563   | 0.051563   |   0.0 |  0.01
Modify  | 9.5088     | 9.5088     | 9.5088     |   0.0 |  1.28
Other   |            | 2.399      |            |       |  0.32

Nlocal:    19652 ave 19652 max 19652 min
Histogram: 1 0 0 0 0 0 0 0 0 0
Nghost:    18270 ave 18270 max 18270 min
Histogram: 1 0 0 0 0 0 0 0 0 0
Neighs:    1.48587e+06 ave 1.48587e+06 max 1.48587e+06 min
Histogram: 1 0 0 0 0 0 0 0 0 0

Total # of neighbors = 1485870
Ave neighs/atom = 75.6091
Neighbor list builds = 4505
Dangerous builds not checked
Total wall time: 11:56:35
