LAMMPS (12 Dec 2018)
Lattice spacing in x,y,z = 4 4 4
Created orthogonal box = (0 0 0) to (68 68 68)
  1 by 1 by 2 MPI processor grid
Created 19652 atoms
  Time spent = 0.00794911 secs
Setting atom values ...
  19281 settings made for type/fraction
Neighbor list info ...
  update every 1 steps, delay 0 steps, check no
  max neighbors/atom: 2000, page size: 100000
  master list distance cutoff = 8.5
  ghost atom cutoff = 8.5
  binsize = 4.25, bins = 16 16 16
  1 neighbor lists, perpetual/occasional/extra = 1 0 0
  (1) pair eam/alloy, perpetual
      attributes: half, newton on
      pair build: half/bin/atomonly/newton
      stencil: half/bin/3d/newton
      bin: standard
Setting up Verlet run ...
  Unit style    : metal
  Current step  : 0
  Time step     : 0.001
Per MPI rank memory allocation (min/avg/max) = 11.15 | 11.15 | 11.15 Mbytes
Step Temp Press TotEng PotEng Enthalpy 
       0          300    687049.07   -101099.22   -101861.25    33736.243 
    1000    336.88443    585788.95   -101099.19   -101954.91    13863.672 
Loop time of 114.614 on 2 procs for 1000 steps with 19652 atoms

Performance: 0.754 ns/day, 31.837 hours/ns, 8.725 timesteps/s
88.9% CPU use with 2 MPI tasks x no OpenMP threads

MPI task timing breakdown:
Section |  min time  |  avg time  |  max time  |%varavg| %total
---------------------------------------------------------------
Pair    | 64.976     | 65.234     | 65.492     |   3.2 | 56.92
Neigh   | 41.806     | 42.327     | 42.847     |   8.0 | 36.93
Comm    | 6.2697     | 6.5324     | 6.7951     |  10.3 |  5.70
Output  | 0.00012589 | 0.00020051 | 0.00027514 |   0.0 |  0.00
Modify  | 0.27101    | 0.2726     | 0.27419    |   0.3 |  0.24
Other   |            | 0.2479     |            |       |  0.22

Nlocal:    9826 ave 9830 max 9822 min
Histogram: 1 0 0 0 0 0 0 0 0 1
Nghost:    13778.5 ave 13800 max 13757 min
Histogram: 1 0 0 0 0 0 0 0 0 1
Neighs:    791126 ave 791548 max 790705 min
Histogram: 1 0 0 0 0 0 0 0 0 1

Total # of neighbors = 1582253
Ave neighs/atom = 80.5136
Neighbor list builds = 1000
Dangerous builds not checked
Setting up Verlet run ...
  Unit style    : metal
  Current step  : 1000
  Time step     : 0.001
Per MPI rank memory allocation (min/avg/max) = 11.15 | 11.15 | 11.15 Mbytes
Step Temp Press TotEng PotEng Enthalpy 
    1000    336.88443    585788.95   -101099.19   -101954.91    13863.672 
    2000    292.87047    18.680537   -122204.72   -122948.64   -122199.39 
Loop time of 95.6222 on 2 procs for 1000 steps with 19652 atoms

Performance: 0.904 ns/day, 26.562 hours/ns, 10.458 timesteps/s
89.0% CPU use with 2 MPI tasks x no OpenMP threads

MPI task timing breakdown:
Section |  min time  |  avg time  |  max time  |%varavg| %total
---------------------------------------------------------------
Pair    | 52.48      | 52.605     | 52.729     |   1.7 | 55.01
Neigh   | 35.53      | 35.658     | 35.786     |   2.2 | 37.29
Comm    | 6.0807     | 6.0938     | 6.1068     |   0.5 |  6.37
Output  | 8.297e-05  | 0.00011694 | 0.00015092 |   0.0 |  0.00
Modify  | 0.99549    | 1.0172     | 1.0389     |   2.2 |  1.06
Other   |            | 0.2486     |            |       |  0.26

Nlocal:    9826 ave 9867 max 9785 min
Histogram: 1 0 0 0 0 0 0 0 0 1
Nghost:    10358 ave 10399 max 10317 min
Histogram: 1 0 0 0 0 0 0 0 0 1
Neighs:    546748 ave 550093 max 543404 min
Histogram: 1 0 0 0 0 0 0 0 0 1

Total # of neighbors = 1093497
Ave neighs/atom = 55.643
Neighbor list builds = 1000
Dangerous builds not checked
Setting up Verlet run ...
  Unit style    : metal
  Current step  : 2000
  Time step     : 0.001
Per MPI rank memory allocation (min/avg/max) = 11.15 | 11.15 | 11.15 Mbytes
Step Temp Press TotEng PotEng Enthalpy 
    2000    292.87047    18.680537   -122204.72   -122948.64   -122199.39 
   10000    2419.3122   -1350.3941   -107337.25   -113482.53   -107748.81 
Loop time of 691.044 on 2 procs for 8000 steps with 19652 atoms

Performance: 1.000 ns/day, 23.995 hours/ns, 11.577 timesteps/s
88.5% CPU use with 2 MPI tasks x no OpenMP threads

MPI task timing breakdown:
Section |  min time  |  avg time  |  max time  |%varavg| %total
---------------------------------------------------------------
Pair    | 376.89     | 377.39     | 377.89     |   2.6 | 54.61
Neigh   | 263.41     | 263.41     | 263.41     |   0.0 | 38.12
Comm    | 39.222     | 39.709     | 40.196     |   7.7 |  5.75
Output  | 0.033939   | 0.033983   | 0.034027   |   0.0 |  0.00
Modify  | 8.4635     | 8.4924     | 8.5213     |   1.0 |  1.23
Other   |            | 2.007      |            |       |  0.29

Nlocal:    9826 ave 9849 max 9803 min
Histogram: 1 0 0 0 0 0 0 0 0 1
Nghost:    10968.5 ave 11009 max 10928 min
Histogram: 1 0 0 0 0 0 0 0 0 1
Neighs:    503384 ave 504692 max 502075 min
Histogram: 1 0 0 0 0 0 0 0 0 1

Total # of neighbors = 1006767
Ave neighs/atom = 51.2297
Neighbor list builds = 8000
Dangerous builds not checked
Setting up Verlet run ...
  Unit style    : metal
  Current step  : 10000
  Time step     : 0.001
Per MPI rank memory allocation (min/avg/max) = 11.17 | 11.17 | 11.17 Mbytes
Step Temp Press TotEng PotEng Enthalpy 
   10000    2419.3122   -1350.3941   -107337.25   -113482.53   -107748.81 
   20000    2443.8674   -261.27807   -106690.46   -112898.11   -106770.29 
   30000    2443.4522    2112.6853   -106737.54   -112944.13   -106094.67 
   40000    2441.9052    219.75229   -106744.36   -112947.02   -106677.29 
Loop time of 2634.31 on 2 procs for 30000 steps with 19652 atoms

Performance: 0.984 ns/day, 24.392 hours/ns, 11.388 timesteps/s
90.9% CPU use with 2 MPI tasks x no OpenMP threads

MPI task timing breakdown:
Section |  min time  |  avg time  |  max time  |%varavg| %total
---------------------------------------------------------------
Pair    | 1418.6     | 1419.7     | 1420.9     |   3.0 | 53.89
Neigh   | 1030.3     | 1036.4     | 1042.5     |  18.9 | 39.34
Comm    | 130.17     | 137.62     | 145.08     |  63.6 |  5.22
Output  | 0.11642    | 0.11652    | 0.11662    |   0.0 |  0.00
Modify  | 32.859     | 33.008     | 33.158     |   2.6 |  1.25
Other   |            | 7.443      |            |       |  0.28

Nlocal:    9826 ave 9847 max 9805 min
Histogram: 1 0 0 0 0 0 0 0 0 1
Nghost:    10981.5 ave 10992 max 10971 min
Histogram: 1 0 0 0 0 0 0 0 0 1
Neighs:    502294 ave 503844 max 500744 min
Histogram: 1 0 0 0 0 0 0 0 0 1

Total # of neighbors = 1004588
Ave neighs/atom = 51.1189
Neighbor list builds = 30000
Dangerous builds not checked
Setting up Verlet run ...
  Unit style    : metal
  Current step  : 40000
  Time step     : 0.001
Per MPI rank memory allocation (min/avg/max) = 11.21 | 11.21 | 11.21 Mbytes
Step Temp Press TotEng PotEng Enthalpy 
   40000    2441.9052    219.75229   -106744.36   -112947.02   -106677.29 
   40495    2393.5077   -324.81021   -106997.93   -113077.66   -107096.99 
Loop time of 40.7606 on 2 procs for 495 steps with 19652 atoms

Performance: 1.049 ns/day, 22.874 hours/ns, 12.144 timesteps/s
93.1% CPU use with 2 MPI tasks x no OpenMP threads

MPI task timing breakdown:
Section |  min time  |  avg time  |  max time  |%varavg| %total
---------------------------------------------------------------
Pair    | 21.911     | 22.115     | 22.319     |   4.3 | 54.26
Neigh   | 15.789     | 16.401     | 17.014     |  15.1 | 40.24
Comm    | 1.2014     | 1.6354     | 2.0693     |  33.9 |  4.01
Output  | 0.00012016 | 0.00015461 | 0.00018907 |   0.0 |  0.00
Modify  | 0.46483    | 0.48945    | 0.51407    |   3.5 |  1.20
Other   |            | 0.1191     |            |       |  0.29

Nlocal:    9826 ave 9839 max 9813 min
Histogram: 1 0 0 0 0 0 0 0 0 1
Nghost:    10944 ave 10946 max 10942 min
Histogram: 1 0 0 0 0 0 0 0 0 1
Neighs:    502910 ave 504301 max 501518 min
Histogram: 1 0 0 0 0 0 0 0 0 1

Total # of neighbors = 1005819
Ave neighs/atom = 51.1815
Neighbor list builds = 495
Dangerous builds not checked
Setting up Verlet run ...
  Unit style    : metal
  Current step  : 40495
  Time step     : 0.001
Per MPI rank memory allocation (min/avg/max) = 11.21 | 11.21 | 11.21 Mbytes
Step Temp Press TotEng PotEng Enthalpy 
   40495    2393.5077   -324.81021   -106997.93   -113077.66   -107096.99 
   50000    2435.8282   -225.54609   -106978.15   -113165.37   -107046.91 
Loop time of 808.915 on 2 procs for 9505 steps with 19652 atoms

Performance: 1.015 ns/day, 23.640 hours/ns, 11.750 timesteps/s
93.4% CPU use with 2 MPI tasks x no OpenMP threads

MPI task timing breakdown:
Section |  min time  |  avg time  |  max time  |%varavg| %total
---------------------------------------------------------------
Pair    | 434.66     | 435.68     | 436.7      |   4.9 | 53.86
Neigh   | 316.45     | 319.74     | 323.02     |  18.4 | 39.53
Comm    | 32.292     | 36.724     | 41.157     |  73.1 |  4.54
Output  | 1.0197     | 1.0197     | 1.0198     |   0.0 |  0.13
Modify  | 13.276     | 13.377     | 13.477     |   2.7 |  1.65
Other   |            | 2.371      |            |       |  0.29

Nlocal:    9826 ave 9851 max 9801 min
Histogram: 1 0 0 0 0 0 0 0 0 1
Nghost:    10958.5 ave 10984 max 10933 min
Histogram: 1 0 0 0 0 0 0 0 0 1
Neighs:    503018 ave 505430 max 500607 min
Histogram: 1 0 0 0 0 0 0 0 0 1

Total # of neighbors = 1006037
Ave neighs/atom = 51.1926
Neighbor list builds = 9505
Dangerous builds not checked
Setting up Verlet run ...
  Unit style    : metal
  Current step  : 50000
  Time step     : 0.001
Per MPI rank memory allocation (min/avg/max) = 11.22 | 11.22 | 11.22 Mbytes
Step Temp Press TotEng PotEng Enthalpy 
   50000    2435.8282   -225.54609   -106978.15   -113165.37   -107046.91 
   50495    2382.2858    -395.5261   -107273.96   -113325.18   -107394.41 
Loop time of 38.536 on 2 procs for 495 steps with 19652 atoms

Performance: 1.110 ns/day, 21.625 hours/ns, 12.845 timesteps/s
96.6% CPU use with 2 MPI tasks x no OpenMP threads

MPI task timing breakdown:
Section |  min time  |  avg time  |  max time  |%varavg| %total
---------------------------------------------------------------
Pair    | 21.147     | 21.182     | 21.217     |   0.8 | 54.97
Neigh   | 15.467     | 15.717     | 15.968     |   6.3 | 40.79
Comm    | 0.82346    | 1.0474     | 1.2714     |  21.9 |  2.72
Output  | 9.7036e-05 | 0.00017762 | 0.00025821 |   0.0 |  0.00
Modify  | 0.46248    | 0.46989    | 0.47731    |   1.1 |  1.22
Other   |            | 0.1191     |            |       |  0.31

Nlocal:    9826 ave 9826 max 9826 min
Histogram: 2 0 0 0 0 0 0 0 0 0
Nghost:    10957.5 ave 10967 max 10948 min
Histogram: 1 0 0 0 0 0 0 0 0 1
Neighs:    503826 ave 504087 max 503564 min
Histogram: 1 0 0 0 0 0 0 0 0 1

Total # of neighbors = 1007651
Ave neighs/atom = 51.2747
Neighbor list builds = 495
Dangerous builds not checked
Setting up Verlet run ...
  Unit style    : metal
  Current step  : 50495
  Time step     : 0.001
Per MPI rank memory allocation (min/avg/max) = 11.22 | 11.22 | 11.22 Mbytes
Step Temp Press TotEng PotEng Enthalpy 
   50495    2382.2858    -395.5261   -107273.96   -113325.18   -107394.41 
   60000    2340.2393    1925.3375   -107389.04   -113333.46   -106804.76 
Loop time of 812.708 on 2 procs for 9505 steps with 19652 atoms

Performance: 1.010 ns/day, 23.751 hours/ns, 11.695 timesteps/s
95.1% CPU use with 2 MPI tasks x no OpenMP threads

MPI task timing breakdown:
Section |  min time  |  avg time  |  max time  |%varavg| %total
---------------------------------------------------------------
Pair    | 442.58     | 442.82     | 443.07     |   1.2 | 54.49
Neigh   | 317.77     | 318.79     | 319.81     |   5.7 | 39.23
Comm    | 37.555     | 38.796     | 40.037     |  19.9 |  4.77
Output  | 0.035881   | 0.035934   | 0.035988   |   0.0 |  0.00
Modify  | 9.8423     | 9.8542     | 9.866      |   0.4 |  1.21
Other   |            | 2.408      |            |       |  0.30

Nlocal:    9826 ave 9837 max 9815 min
Histogram: 1 0 0 0 0 0 0 0 0 1
Nghost:    11000.5 ave 11006 max 10995 min
Histogram: 1 0 0 0 0 0 0 0 0 1
Neighs:    505752 ave 505843 max 505660 min
Histogram: 1 0 0 0 0 0 0 0 0 1

Total # of neighbors = 1011503
Ave neighs/atom = 51.4707
Neighbor list builds = 9505
Dangerous builds not checked
Setting up Verlet run ...
  Unit style    : metal
  Current step  : 60000
  Time step     : 0.001
Per MPI rank memory allocation (min/avg/max) = 11.23 | 11.23 | 11.23 Mbytes
Step Temp Press TotEng PotEng Enthalpy 
   60000    2340.2393    1925.3375   -107389.04   -113333.46   -106804.76 
   60495    2319.1258     1240.333   -107587.04   -113477.84   -107210.95 
Loop time of 42.8609 on 2 procs for 495 steps with 19652 atoms

Performance: 0.998 ns/day, 24.052 hours/ns, 11.549 timesteps/s
92.4% CPU use with 2 MPI tasks x no OpenMP threads

MPI task timing breakdown:
Section |  min time  |  avg time  |  max time  |%varavg| %total
---------------------------------------------------------------
Pair    | 23.187     | 23.261     | 23.335     |   1.5 | 54.27
Neigh   | 16.775     | 16.953     | 17.131     |   4.3 | 39.55
Comm    | 1.879      | 1.9834     | 2.0878     |   7.4 |  4.63
Output  | 0.0001049  | 0.00022888 | 0.00035286 |   0.0 |  0.00
Modify  | 0.52167    | 0.52889    | 0.53611    |   1.0 |  1.23
Other   |            | 0.1344     |            |       |  0.31

Nlocal:    9826 ave 9850 max 9802 min
Histogram: 1 0 0 0 0 0 0 0 0 1
Nghost:    10998 ave 11020 max 10976 min
Histogram: 1 0 0 0 0 0 0 0 0 1
Neighs:    506004 ave 508891 max 503117 min
Histogram: 1 0 0 0 0 0 0 0 0 1

Total # of neighbors = 1012008
Ave neighs/atom = 51.4964
Neighbor list builds = 495
Dangerous builds not checked
Setting up Verlet run ...
  Unit style    : metal
  Current step  : 60495
  Time step     : 0.001
Per MPI rank memory allocation (min/avg/max) = 11.23 | 11.23 | 11.23 Mbytes
Step Temp Press TotEng PotEng Enthalpy 
   60495    2319.1258     1240.333   -107587.04   -113477.84   -107210.95 
   70000    2316.1793    799.59731   -107659.62   -113542.92   -107417.03 
Loop time of 793.098 on 2 procs for 9505 steps with 19652 atoms

Performance: 1.035 ns/day, 23.178 hours/ns, 11.985 timesteps/s
95.4% CPU use with 2 MPI tasks x no OpenMP threads

MPI task timing breakdown:
Section |  min time  |  avg time  |  max time  |%varavg| %total
---------------------------------------------------------------
Pair    | 428.26     | 431.05     | 433.85     |  13.5 | 54.35
Neigh   | 314.13     | 315.75     | 317.36     |   9.1 | 39.81
Comm    | 29.817     | 34.346     | 38.874     |  77.3 |  4.33
Output  | 0.045071   | 0.045101   | 0.045131   |   0.0 |  0.01
Modify  | 9.5046     | 9.5839     | 9.6633     |   2.6 |  1.21
Other   |            | 2.322      |            |       |  0.29

Nlocal:    9826 ave 9836 max 9816 min
Histogram: 1 0 0 0 0 0 0 0 0 1
Nghost:    10983 ave 10991 max 10975 min
Histogram: 1 0 0 0 0 0 0 0 0 1
Neighs:    505974 ave 507096 max 504851 min
Histogram: 1 0 0 0 0 0 0 0 0 1

Total # of neighbors = 1011947
Ave neighs/atom = 51.4933
Neighbor list builds = 9505
Dangerous builds not checked
Setting up Verlet run ...
  Unit style    : metal
  Current step  : 70000
  Time step     : 0.001
Per MPI rank memory allocation (min/avg/max) = 11.24 | 11.24 | 11.24 Mbytes
Step Temp Press TotEng PotEng Enthalpy 
   70000    2316.1793    799.59731   -107659.62   -113542.92   -107417.03 
   70495    2270.8705    690.11877   -107898.42   -113666.64   -107689.35 
Loop time of 37.5104 on 2 procs for 495 steps with 19652 atoms

Performance: 1.140 ns/day, 21.050 hours/ns, 13.196 timesteps/s
97.5% CPU use with 2 MPI tasks x no OpenMP threads

MPI task timing breakdown:
Section |  min time  |  avg time  |  max time  |%varavg| %total
---------------------------------------------------------------
Pair    | 20.043     | 20.228     | 20.412     |   4.1 | 53.93
Neigh   | 15.155     | 15.481     | 15.807     |   8.3 | 41.27
Comm    | 1.1072     | 1.2594     | 1.4116     |  13.6 |  3.36
Output  | 7.5102e-05 | 0.00013745 | 0.00019979 |   0.0 |  0.00
Modify  | 0.42119    | 0.42969    | 0.43818    |   1.3 |  1.15
Other   |            | 0.1128     |            |       |  0.30

Nlocal:    9826 ave 9856 max 9796 min
Histogram: 1 0 0 0 0 0 0 0 0 1
Nghost:    10967.5 ave 10985 max 10950 min
Histogram: 1 0 0 0 0 0 0 0 0 1
Neighs:    506532 ave 508607 max 504456 min
Histogram: 1 0 0 0 0 0 0 0 0 1

Total # of neighbors = 1013063
Ave neighs/atom = 51.5501
Neighbor list builds = 495
Dangerous builds not checked
Setting up Verlet run ...
  Unit style    : metal
  Current step  : 70495
  Time step     : 0.001
Per MPI rank memory allocation (min/avg/max) = 11.24 | 11.24 | 11.24 Mbytes
Step Temp Press TotEng PotEng Enthalpy 
   70495    2270.8705    690.11877   -107898.42   -113666.64   -107689.35 
   80000    2249.2223   -1669.6998    -107983.9   -113697.13   -108491.61 
Loop time of 798.226 on 2 procs for 9505 steps with 19652 atoms

Performance: 1.029 ns/day, 23.328 hours/ns, 11.908 timesteps/s
95.5% CPU use with 2 MPI tasks x no OpenMP threads

MPI task timing breakdown:
Section |  min time  |  avg time  |  max time  |%varavg| %total
---------------------------------------------------------------
Pair    | 431.48     | 433.41     | 435.33     |   9.2 | 54.30
Neigh   | 315.41     | 315.62     | 315.83     |   1.2 | 39.54
Comm    | 35.224     | 37.37      | 39.515     |  35.1 |  4.68
Output  | 0.15636    | 0.15637    | 0.15638    |   0.0 |  0.02
Modify  | 9.3631     | 9.3669     | 9.3706     |   0.1 |  1.17
Other   |            | 2.309      |            |       |  0.29

Nlocal:    9826 ave 9829 max 9823 min
Histogram: 1 0 0 0 0 0 0 0 0 1
Nghost:    10975.5 ave 11001 max 10950 min
Histogram: 1 0 0 0 0 0 0 0 0 1
Neighs:    504792 ave 504832 max 504752 min
Histogram: 1 0 0 0 0 0 0 0 0 1

Total # of neighbors = 1009584
Ave neighs/atom = 51.3731
Neighbor list builds = 9505
Dangerous builds not checked
Setting up Verlet run ...
  Unit style    : metal
  Current step  : 80000
  Time step     : 0.001
Per MPI rank memory allocation (min/avg/max) = 11.24 | 11.24 | 11.24 Mbytes
Step Temp Press TotEng PotEng Enthalpy 
   80000    2249.2223   -1669.6998    -107983.9   -113697.13   -108491.61 
   80495    2217.0595   -1264.8597   -108235.53   -113867.07   -108619.27 
Loop time of 41.8956 on 2 procs for 495 steps with 19652 atoms

Performance: 1.021 ns/day, 23.510 hours/ns, 11.815 timesteps/s
92.1% CPU use with 2 MPI tasks x no OpenMP threads

MPI task timing breakdown:
Section |  min time  |  avg time  |  max time  |%varavg| %total
---------------------------------------------------------------
Pair    | 21.505     | 21.516     | 21.528     |   0.2 | 51.36
Neigh   | 15.17      | 15.354     | 15.538     |   4.7 | 36.65
Comm    | 4.1762     | 4.3697     | 4.5632     |   9.3 | 10.43
Output  | 9.9897e-05 | 0.0001899  | 0.0002799  |   0.0 |  0.00
Modify  | 0.53908    | 0.5414     | 0.54371    |   0.3 |  1.29
Other   |            | 0.114      |            |       |  0.27

Nlocal:    9826 ave 9833 max 9819 min
Histogram: 1 0 0 0 0 0 0 0 0 1
Nghost:    10992.5 ave 11006 max 10979 min
Histogram: 1 0 0 0 0 0 0 0 0 1
Neighs:    505843 ave 506212 max 505474 min
Histogram: 1 0 0 0 0 0 0 0 0 1

Total # of neighbors = 1011686
Ave neighs/atom = 51.4801
Neighbor list builds = 495
Dangerous builds not checked
Setting up Verlet run ...
  Unit style    : metal
  Current step  : 80495
  Time step     : 0.001
Per MPI rank memory allocation (min/avg/max) = 11.24 | 11.24 | 11.24 Mbytes
Step Temp Press TotEng PotEng Enthalpy 
   80495    2217.0595   -1264.8597   -108235.53   -113867.07   -108619.27 
   90000    2218.1202    2007.3466   -108367.05   -114001.28   -107761.84 
Loop time of 799.739 on 2 procs for 9505 steps with 19652 atoms

Performance: 1.027 ns/day, 23.372 hours/ns, 11.885 timesteps/s
95.7% CPU use with 2 MPI tasks x no OpenMP threads

MPI task timing breakdown:
Section |  min time  |  avg time  |  max time  |%varavg| %total
---------------------------------------------------------------
Pair    | 434.14     | 434.42     | 434.7      |   1.3 | 54.32
Neigh   | 314.49     | 315.78     | 317.08     |   7.3 | 39.49
Comm    | 36.189     | 37.693     | 39.198     |  24.5 |  4.71
Output  | 0.035638   | 0.035664   | 0.03569    |   0.0 |  0.00
Modify  | 9.441      | 9.4931     | 9.5452     |   1.7 |  1.19
Other   |            | 2.316      |            |       |  0.29

Nlocal:    9826 ave 9834 max 9818 min
Histogram: 1 0 0 0 0 0 0 0 0 1
Nghost:    11062.5 ave 11070 max 11055 min
Histogram: 1 0 0 0 0 0 0 0 0 1
Neighs:    509145 ave 509603 max 508687 min
Histogram: 1 0 0 0 0 0 0 0 0 1

Total # of neighbors = 1018290
Ave neighs/atom = 51.8161
Neighbor list builds = 9505
Dangerous builds not checked
Setting up Verlet run ...
  Unit style    : metal
  Current step  : 90000
  Time step     : 0.001
Per MPI rank memory allocation (min/avg/max) = 11.25 | 11.25 | 11.25 Mbytes
Step Temp Press TotEng PotEng Enthalpy 
   90000    2218.1202    2007.3466   -108367.05   -114001.28   -107761.84 
   90495    2172.1524    1693.4457   -108555.41   -114072.88    -108044.8 
Loop time of 39.77 on 2 procs for 495 steps with 19652 atoms

Performance: 1.075 ns/day, 22.318 hours/ns, 12.447 timesteps/s
95.3% CPU use with 2 MPI tasks x no OpenMP threads

MPI task timing breakdown:
Section |  min time  |  avg time  |  max time  |%varavg| %total
---------------------------------------------------------------
Pair    | 21.616     | 21.7       | 21.784     |   1.8 | 54.56
Neigh   | 15.714     | 15.724     | 15.734     |   0.3 | 39.54
Comm    | 1.7097     | 1.7917     | 1.8737     |   6.1 |  4.51
Output  | 8.893e-05  | 0.00011349 | 0.00013804 |   0.0 |  0.00
Modify  | 0.42792    | 0.43787    | 0.44782    |   1.5 |  1.10
Other   |            | 0.1168     |            |       |  0.29

Nlocal:    9826 ave 9833 max 9819 min
Histogram: 1 0 0 0 0 0 0 0 0 1
Nghost:    11052 ave 11055 max 11049 min
Histogram: 1 0 0 0 0 0 0 0 0 1
Neighs:    509448 ave 510428 max 508469 min
Histogram: 1 0 0 0 0 0 0 0 0 1

Total # of neighbors = 1018897
Ave neighs/atom = 51.847
Neighbor list builds = 495
Dangerous builds not checked
Setting up Verlet run ...
  Unit style    : metal
  Current step  : 90495
  Time step     : 0.001
Per MPI rank memory allocation (min/avg/max) = 11.25 | 11.25 | 11.25 Mbytes
Step Temp Press TotEng PotEng Enthalpy 
   90495    2172.1524    1693.4457   -108555.41   -114072.88    -108044.8 
  100000    2156.9652     100.9794   -108645.33   -114124.22   -108614.82 
Loop time of 761.197 on 2 procs for 9505 steps with 19652 atoms

Performance: 1.079 ns/day, 22.246 hours/ns, 12.487 timesteps/s
96.4% CPU use with 2 MPI tasks x no OpenMP threads

MPI task timing breakdown:
Section |  min time  |  avg time  |  max time  |%varavg| %total
---------------------------------------------------------------
Pair    | 411.11     | 411.19     | 411.26     |   0.4 | 54.02
Neigh   | 302.95     | 304.76     | 306.57     |  10.4 | 40.04
Comm    | 32.334     | 34.27      | 36.207     |  33.1 |  4.50
Output  | 0.031859   | 0.032004   | 0.032149   |   0.1 |  0.00
Modify  | 8.6797     | 8.7247     | 8.7696     |   1.5 |  1.15
Other   |            | 2.225      |            |       |  0.29

Nlocal:    9826 ave 9830 max 9822 min
Histogram: 1 0 0 0 0 0 0 0 0 1
Nghost:    11017.5 ave 11024 max 11011 min
Histogram: 1 0 0 0 0 0 0 0 0 1
Neighs:    508424 ave 508449 max 508400 min
Histogram: 1 0 0 0 0 0 0 0 0 1

Total # of neighbors = 1016849
Ave neighs/atom = 51.7428
Neighbor list builds = 9505
Dangerous builds not checked
Setting up Verlet run ...
  Unit style    : metal
  Current step  : 100000
  Time step     : 0.001
Per MPI rank memory allocation (min/avg/max) = 11.25 | 11.25 | 11.25 Mbytes
Step Temp Press TotEng PotEng Enthalpy 
  100000    2156.9652     100.9794   -108645.33   -114124.22   -108614.82 
  100495    2116.2188    165.19864   -108950.19   -114325.58   -108900.38 
Loop time of 37.3475 on 2 procs for 495 steps with 19652 atoms

Performance: 1.145 ns/day, 20.958 hours/ns, 13.254 timesteps/s
97.7% CPU use with 2 MPI tasks x no OpenMP threads

MPI task timing breakdown:
Section |  min time  |  avg time  |  max time  |%varavg| %total
---------------------------------------------------------------
Pair    | 20.335     | 20.473     | 20.611     |   3.1 | 54.82
Neigh   | 14.831     | 14.888     | 14.945     |   1.5 | 39.86
Comm    | 1.3737     | 1.4537     | 1.5336     |   6.6 |  3.89
Output  | 0.0001092  | 0.00012255 | 0.0001359  |   0.0 |  0.00
Modify  | 0.42016    | 0.42097    | 0.42178    |   0.1 |  1.13
Other   |            | 0.1118     |            |       |  0.30

Nlocal:    9826 ave 9844 max 9808 min
Histogram: 1 0 0 0 0 0 0 0 0 1
Nghost:    11039.5 ave 11064 max 11015 min
Histogram: 1 0 0 0 0 0 0 0 0 1
Neighs:    509472 ave 511265 max 507678 min
Histogram: 1 0 0 0 0 0 0 0 0 1

Total # of neighbors = 1018943
Ave neighs/atom = 51.8493
Neighbor list builds = 495
Dangerous builds not checked
Setting up Verlet run ...
  Unit style    : metal
  Current step  : 100495
  Time step     : 0.001
Per MPI rank memory allocation (min/avg/max) = 11.25 | 11.25 | 11.25 Mbytes
Step Temp Press TotEng PotEng Enthalpy 
  100495    2116.2188    165.19864   -108950.19   -114325.58   -108900.38 
  110000    2096.5445   -1532.5548    -109030.9   -114356.31   -109494.05 
Loop time of 729.749 on 2 procs for 9505 steps with 19652 atoms

Performance: 1.125 ns/day, 21.326 hours/ns, 13.025 timesteps/s
98.5% CPU use with 2 MPI tasks x no OpenMP threads

MPI task timing breakdown:
Section |  min time  |  avg time  |  max time  |%varavg| %total
---------------------------------------------------------------
Pair    | 391.61     | 391.66     | 391.71     |   0.2 | 53.67
Neigh   | 285.35     | 289.38     | 293.42     |  23.7 | 39.66
Comm    | 34.345     | 38.495     | 42.646     |  66.9 |  5.28
Output  | 0.037127   | 0.037146   | 0.037165   |   0.0 |  0.01
Modify  | 7.9811     | 8.0307     | 8.0803     |   1.8 |  1.10
Other   |            | 2.14       |            |       |  0.29

Nlocal:    9826 ave 9850 max 9802 min
Histogram: 1 0 0 0 0 0 0 0 0 1
Nghost:    10972.5 ave 10987 max 10958 min
Histogram: 1 0 0 0 0 0 0 0 0 1
Neighs:    508398 ave 510623 max 506174 min
Histogram: 1 0 0 0 0 0 0 0 0 1

Total # of neighbors = 1016797
Ave neighs/atom = 51.7401
Neighbor list builds = 9505
Dangerous builds not checked
Setting up Verlet run ...
  Unit style    : metal
  Current step  : 110000
  Time step     : 0.001
Per MPI rank memory allocation (min/avg/max) = 11.25 | 11.25 | 11.25 Mbytes
Step Temp Press TotEng PotEng Enthalpy 
  110000    2096.5445   -1532.5548    -109030.9   -114356.31   -109494.05 
  110495    2055.6276   -1267.5121   -109264.11   -114485.59   -109646.46 
Loop time of 37.0819 on 2 procs for 495 steps with 19652 atoms

Performance: 1.153 ns/day, 20.809 hours/ns, 13.349 timesteps/s
99.6% CPU use with 2 MPI tasks x no OpenMP threads

MPI task timing breakdown:
Section |  min time  |  avg time  |  max time  |%varavg| %total
---------------------------------------------------------------
Pair    | 19.941     | 19.942     | 19.944     |   0.0 | 53.78
Neigh   | 15.223     | 15.227     | 15.231     |   0.1 | 41.06
Comm    | 1.3599     | 1.3654     | 1.3709     |   0.5 |  3.68
Output  | 0.00020695 | 0.00021398 | 0.00022101 |   0.0 |  0.00
Modify  | 0.42894    | 0.43091    | 0.43289    |   0.3 |  1.16
Other   |            | 0.1161     |            |       |  0.31

Nlocal:    9826 ave 9843 max 9809 min
Histogram: 1 0 0 0 0 0 0 0 0 1
Nghost:    10998.5 ave 11014 max 10983 min
Histogram: 1 0 0 0 0 0 0 0 0 1
Neighs:    509074 ave 510186 max 507961 min
Histogram: 1 0 0 0 0 0 0 0 0 1

Total # of neighbors = 1018147
Ave neighs/atom = 51.8088
Neighbor list builds = 495
Dangerous builds not checked
Setting up Verlet run ...
  Unit style    : metal
  Current step  : 110495
  Time step     : 0.001
Per MPI rank memory allocation (min/avg/max) = 11.25 | 11.25 | 11.25 Mbytes
Step Temp Press TotEng PotEng Enthalpy 
  110495    2055.6276   -1267.5121   -109264.11   -114485.59   -109646.46 
  120000    2036.1381    1662.3196   -109405.35   -114577.33   -108906.56 
Loop time of 755.725 on 2 procs for 9505 steps with 19652 atoms

Performance: 1.087 ns/day, 22.086 hours/ns, 12.577 timesteps/s
98.3% CPU use with 2 MPI tasks x no OpenMP threads

MPI task timing breakdown:
Section |  min time  |  avg time  |  max time  |%varavg| %total
---------------------------------------------------------------
Pair    | 409.1      | 409.36     | 409.62     |   1.3 | 54.17
Neigh   | 299.48     | 300.66     | 301.83     |   6.8 | 39.78
Comm    | 32.944     | 34.4       | 35.855     |  24.8 |  4.55
Output  | 0.036249   | 0.036272   | 0.036295   |   0.0 |  0.00
Modify  | 8.9717     | 8.9866     | 9.0014     |   0.5 |  1.19
Other   |            | 2.286      |            |       |  0.30

Nlocal:    9826 ave 9843 max 9809 min
Histogram: 1 0 0 0 0 0 0 0 0 1
Nghost:    11019.5 ave 11051 max 10988 min
Histogram: 1 0 0 0 0 0 0 0 0 1
Neighs:    512213 ave 513156 max 511270 min
Histogram: 1 0 0 0 0 0 0 0 0 1

Total # of neighbors = 1024426
Ave neighs/atom = 52.1283
Neighbor list builds = 9505
Dangerous builds not checked
Setting up Verlet run ...
  Unit style    : metal
  Current step  : 120000
  Time step     : 0.001
Per MPI rank memory allocation (min/avg/max) = 11.26 | 11.26 | 11.26 Mbytes
Step Temp Press TotEng PotEng Enthalpy 
  120000    2036.1381    1662.3196   -109405.35   -114577.33   -108906.56 
  120495    2015.1077    1250.1705   -109599.78   -114718.34   -109224.66 
Loop time of 38.5079 on 2 procs for 495 steps with 19652 atoms

Performance: 1.111 ns/day, 21.609 hours/ns, 12.854 timesteps/s
98.6% CPU use with 2 MPI tasks x no OpenMP threads

MPI task timing breakdown:
Section |  min time  |  avg time  |  max time  |%varavg| %total
---------------------------------------------------------------
Pair    | 20.6       | 20.727     | 20.854     |   2.8 | 53.83
Neigh   | 15.183     | 15.269     | 15.355     |   2.2 | 39.65
Comm    | 1.9185     | 1.9561     | 1.9937     |   2.7 |  5.08
Output  | 7.6056e-05 | 0.00011003 | 0.000144   |   0.0 |  0.00
Modify  | 0.43558    | 0.43701    | 0.43844    |   0.2 |  1.13
Other   |            | 0.1187     |            |       |  0.31

Nlocal:    9826 ave 9839 max 9813 min
Histogram: 1 0 0 0 0 0 0 0 0 1
Nghost:    11075 ave 11093 max 11057 min
Histogram: 1 0 0 0 0 0 0 0 0 1
Neighs:    512332 ave 513420 max 511244 min
Histogram: 1 0 0 0 0 0 0 0 0 1

Total # of neighbors = 1024664
Ave neighs/atom = 52.1404
Neighbor list builds = 495
Dangerous builds not checked
Setting up Verlet run ...
  Unit style    : metal
  Current step  : 120495
  Time step     : 0.001
Per MPI rank memory allocation (min/avg/max) = 11.26 | 11.26 | 11.26 Mbytes
Step Temp Press TotEng PotEng Enthalpy 
  120495    2015.1077    1250.1705   -109599.78   -114718.34   -109224.66 
  130000    2015.2815   -479.71243   -109657.41    -114776.4   -109801.62 
Loop time of 737.778 on 2 procs for 9505 steps with 19652 atoms

Performance: 1.113 ns/day, 21.561 hours/ns, 12.883 timesteps/s
98.3% CPU use with 2 MPI tasks x no OpenMP threads

MPI task timing breakdown:
Section |  min time  |  avg time  |  max time  |%varavg| %total
---------------------------------------------------------------
Pair    | 398.72     | 398.83     | 398.95     |   0.6 | 54.06
Neigh   | 291.85     | 293.31     | 294.78     |   8.5 | 39.76
Comm    | 31.914     | 33.634     | 35.353     |  29.6 |  4.56
Output  | 0.034957   | 0.034996   | 0.035035   |   0.0 |  0.00
Modify  | 9.4396     | 9.8069     | 10.174     |  11.7 |  1.33
Other   |            | 2.154      |            |       |  0.29

Nlocal:    9826 ave 9841 max 9811 min
Histogram: 1 0 0 0 0 0 0 0 0 1
Nghost:    11026 ave 11035 max 11017 min
Histogram: 1 0 0 0 0 0 0 0 0 1
Neighs:    511156 ave 513055 max 509258 min
Histogram: 1 0 0 0 0 0 0 0 0 1

Total # of neighbors = 1022313
Ave neighs/atom = 52.0208
Neighbor list builds = 9505
Dangerous builds not checked
Setting up Verlet run ...
  Unit style    : metal
  Current step  : 130000
  Time step     : 0.001
Per MPI rank memory allocation (min/avg/max) = 11.26 | 11.26 | 11.26 Mbytes
Step Temp Press TotEng PotEng Enthalpy 
  130000    2015.2815   -479.71243   -109657.41    -114776.4   -109801.62 
  130495    1983.0838    200.71872   -109897.36   -114934.58   -109837.15 
Loop time of 37.824 on 2 procs for 495 steps with 19652 atoms

Performance: 1.131 ns/day, 21.226 hours/ns, 13.087 timesteps/s
99.4% CPU use with 2 MPI tasks x no OpenMP threads

MPI task timing breakdown:
Section |  min time  |  avg time  |  max time  |%varavg| %total
---------------------------------------------------------------
Pair    | 20.28      | 20.388     | 20.495     |   2.4 | 53.90
Neigh   | 15.204     | 15.244     | 15.283     |   1.0 | 40.30
Comm    | 1.3079     | 1.375      | 1.4421     |   5.7 |  3.64
Output  | 9.5129e-05 | 0.13378    | 0.26746    |  36.5 |  0.35
Modify  | 0.43255    | 0.4332     | 0.43386    |   0.1 |  1.15
Other   |            | 0.2505     |            |       |  0.66

Nlocal:    9826 ave 9837 max 9815 min
Histogram: 1 0 0 0 0 0 0 0 0 1
Nghost:    11071.5 ave 11094 max 11049 min
Histogram: 1 0 0 0 0 0 0 0 0 1
Neighs:    512343 ave 513522 max 511164 min
Histogram: 1 0 0 0 0 0 0 0 0 1

Total # of neighbors = 1024686
Ave neighs/atom = 52.1416
Neighbor list builds = 495
Dangerous builds not checked
Setting up Verlet run ...
  Unit style    : metal
  Current step  : 130495
  Time step     : 0.001
Per MPI rank memory allocation (min/avg/max) = 11.26 | 11.26 | 11.26 Mbytes
Step Temp Press TotEng PotEng Enthalpy 
  130495    1983.0838    200.71872   -109897.36   -114934.58   -109837.15 
  140000    1943.3214   -269.37044   -110092.73   -115028.94   -110173.54 
Loop time of 754.737 on 2 procs for 9505 steps with 19652 atoms

Performance: 1.088 ns/day, 22.057 hours/ns, 12.594 timesteps/s
98.5% CPU use with 2 MPI tasks x no OpenMP threads

MPI task timing breakdown:
Section |  min time  |  avg time  |  max time  |%varavg| %total
---------------------------------------------------------------
Pair    | 409.91     | 410.96     | 412.02     |   5.2 | 54.45
Neigh   | 299.33     | 300.24     | 301.15     |   5.2 | 39.78
Comm    | 29.873     | 31.838     | 33.804     |  34.8 |  4.22
Output  | 0.03685    | 0.03688    | 0.036911   |   0.0 |  0.00
Modify  | 9.4057     | 9.4126     | 9.4195     |   0.2 |  1.25
Other   |            | 2.244      |            |       |  0.30

Nlocal:    9826 ave 9831 max 9821 min
Histogram: 1 0 0 0 0 0 0 0 0 1
Nghost:    11023 ave 11028 max 11018 min
Histogram: 1 0 0 0 0 0 0 0 0 1
Neighs:    512389 ave 513508 max 511270 min
Histogram: 1 0 0 0 0 0 0 0 0 1

Total # of neighbors = 1024778
Ave neighs/atom = 52.1462
Neighbor list builds = 9505
Dangerous builds not checked
Setting up Verlet run ...
  Unit style    : metal
  Current step  : 140000
  Time step     : 0.001
Per MPI rank memory allocation (min/avg/max) = 11.26 | 11.26 | 11.26 Mbytes
Step Temp Press TotEng PotEng Enthalpy 
  140000    1943.3214   -269.37044   -110092.73   -115028.94   -110173.54 
  140495    1932.4161   -203.32148   -110286.04   -115194.56   -110346.97 
Loop time of 37.3759 on 2 procs for 495 steps with 19652 atoms

Performance: 1.144 ns/day, 20.974 hours/ns, 13.244 timesteps/s
99.3% CPU use with 2 MPI tasks x no OpenMP threads

MPI task timing breakdown:
Section |  min time  |  avg time  |  max time  |%varavg| %total
---------------------------------------------------------------
Pair    | 20.328     | 20.342     | 20.357     |   0.3 | 54.43
Neigh   | 15.049     | 15.073     | 15.097     |   0.6 | 40.33
Comm    | 1.4042     | 1.4169     | 1.4296     |   1.1 |  3.79
Output  | 8.2016e-05 | 0.00016046 | 0.0002389  |   0.0 |  0.00
Modify  | 0.42596    | 0.42747    | 0.42898    |   0.2 |  1.14
Other   |            | 0.1159     |            |       |  0.31

Nlocal:    9826 ave 9830 max 9822 min
Histogram: 1 0 0 0 0 0 0 0 0 1
Nghost:    11080.5 ave 11097 max 11064 min
Histogram: 1 0 0 0 0 0 0 0 0 1
Neighs:    513050 ave 513522 max 512577 min
Histogram: 1 0 0 0 0 0 0 0 0 1

Total # of neighbors = 1026099
Ave neighs/atom = 52.2135
Neighbor list builds = 495
Dangerous builds not checked
Setting up Verlet run ...
  Unit style    : metal
  Current step  : 140495
  Time step     : 0.001
Per MPI rank memory allocation (min/avg/max) = 11.26 | 11.26 | 11.26 Mbytes
Step Temp Press TotEng PotEng Enthalpy 
  140495    1932.4161   -203.32148   -110286.04   -115194.56   -110346.97 
  150000    1915.6324    988.95594   -110365.98   -115231.86   -110070.24 
Loop time of 748.63 on 2 procs for 9505 steps with 19652 atoms

Performance: 1.097 ns/day, 21.878 hours/ns, 12.697 timesteps/s
98.8% CPU use with 2 MPI tasks x no OpenMP threads

MPI task timing breakdown:
Section |  min time  |  avg time  |  max time  |%varavg| %total
---------------------------------------------------------------
Pair    | 407.49     | 408.26     | 409.04     |   3.8 | 54.53
Neigh   | 296.84     | 297.65     | 298.47     |   4.7 | 39.76
Comm    | 30.044     | 31.84      | 33.636     |  31.8 |  4.25
Output  | 0.041651   | 0.041731   | 0.041811   |   0.0 |  0.01
Modify  | 8.395      | 8.6097     | 8.8244     |   7.3 |  1.15
Other   |            | 2.223      |            |       |  0.30

Nlocal:    9826 ave 9839 max 9813 min
Histogram: 1 0 0 0 0 0 0 0 0 1
Nghost:    11059 ave 11084 max 11034 min
Histogram: 1 0 0 0 0 0 0 0 0 1
Neighs:    514447 ave 515754 max 513140 min
Histogram: 1 0 0 0 0 0 0 0 0 1

Total # of neighbors = 1028894
Ave neighs/atom = 52.3557
Neighbor list builds = 9505
Dangerous builds not checked
Setting up Verlet run ...
  Unit style    : metal
  Current step  : 150000
  Time step     : 0.001
Per MPI rank memory allocation (min/avg/max) = 11.27 | 11.27 | 11.27 Mbytes
Step Temp Press TotEng PotEng Enthalpy 
  150000    1915.6324    988.95594   -110365.98   -115231.86   -110070.24 
  150495    1855.8311    1101.0347   -110600.18   -115314.16   -110271.48 
Loop time of 37.7091 on 2 procs for 495 steps with 19652 atoms

Performance: 1.134 ns/day, 21.161 hours/ns, 13.127 timesteps/s
99.7% CPU use with 2 MPI tasks x no OpenMP threads

MPI task timing breakdown:
Section |  min time  |  avg time  |  max time  |%varavg| %total
---------------------------------------------------------------
Pair    | 20.391     | 20.52      | 20.649     |   2.9 | 54.42
Neigh   | 15.153     | 15.265     | 15.376     |   2.9 | 40.48
Comm    | 1.1264     | 1.3739     | 1.6214     |  21.1 |  3.64
Output  | 9.799e-05  | 0.00018442 | 0.00027084 |   0.0 |  0.00
Modify  | 0.42995    | 0.43301    | 0.43606    |   0.5 |  1.15
Other   |            | 0.1178     |            |       |  0.31

Nlocal:    9826 ave 9826 max 9826 min
Histogram: 2 0 0 0 0 0 0 0 0 0
Nghost:    11025 ave 11040 max 11010 min
Histogram: 1 0 0 0 0 0 0 0 0 1
Neighs:    515362 ave 516260 max 514465 min
Histogram: 1 0 0 0 0 0 0 0 0 1

Total # of neighbors = 1030725
Ave neighs/atom = 52.4489
Neighbor list builds = 495
Dangerous builds not checked
Setting up Verlet run ...
  Unit style    : metal
  Current step  : 150495
  Time step     : 0.001
Per MPI rank memory allocation (min/avg/max) = 11.27 | 11.27 | 11.27 Mbytes
Step Temp Press TotEng PotEng Enthalpy 
  150495    1855.8311    1101.0347   -110600.18   -115314.16   -110271.48 
  160000    1843.3448   -1807.8139    -110701.9   -115384.16   -111243.76 
Loop time of 755.068 on 2 procs for 9505 steps with 19652 atoms

Performance: 1.088 ns/day, 22.066 hours/ns, 12.588 timesteps/s
98.2% CPU use with 2 MPI tasks x no OpenMP threads

MPI task timing breakdown:
Section |  min time  |  avg time  |  max time  |%varavg| %total
---------------------------------------------------------------
Pair    | 411.7      | 411.85     | 412        |   0.7 | 54.55
Neigh   | 295.61     | 297.45     | 299.3      |  10.7 | 39.39
Comm    | 32.818     | 34.83      | 36.842     |  34.1 |  4.61
Output  | 0.036202   | 0.036227   | 0.036252   |   0.0 |  0.00
Modify  | 8.6498     | 8.6697     | 8.6895     |   0.7 |  1.15
Other   |            | 2.225      |            |       |  0.29

Nlocal:    9826 ave 9832 max 9820 min
Histogram: 1 0 0 0 0 0 0 0 0 1
Nghost:    11047 ave 11054 max 11040 min
Histogram: 1 0 0 0 0 0 0 0 0 1
Neighs:    513436 ave 513481 max 513390 min
Histogram: 1 0 0 0 0 0 0 0 0 1

Total # of neighbors = 1026871
Ave neighs/atom = 52.2527
Neighbor list builds = 9505
Dangerous builds not checked
Setting up Verlet run ...
  Unit style    : metal
  Current step  : 160000
  Time step     : 0.001
Per MPI rank memory allocation (min/avg/max) = 11.27 | 11.27 | 11.27 Mbytes
Step Temp Press TotEng PotEng Enthalpy 
  160000    1843.3448   -1807.8139    -110701.9   -115384.16   -111243.76 
  160495    1800.2355   -1170.1696   -110956.78   -115529.54   -111306.71 
Loop time of 38.5476 on 2 procs for 495 steps with 19652 atoms

Performance: 1.109 ns/day, 21.632 hours/ns, 12.841 timesteps/s
98.2% CPU use with 2 MPI tasks x no OpenMP threads

MPI task timing breakdown:
Section |  min time  |  avg time  |  max time  |%varavg| %total
---------------------------------------------------------------
Pair    | 21.08      | 21.286     | 21.491     |   4.5 | 55.22
Neigh   | 15.169     | 15.332     | 15.494     |   4.1 | 39.77
Comm    | 1.0001     | 1.371      | 1.7418     |  31.7 |  3.56
Output  | 0.0002811  | 0.00028956 | 0.00029802 |   0.0 |  0.00
Modify  | 0.43842    | 0.44011    | 0.44179    |   0.3 |  1.14
Other   |            | 0.1191     |            |       |  0.31

Nlocal:    9826 ave 9846 max 9806 min
Histogram: 1 0 0 0 0 0 0 0 0 1
Nghost:    11075 ave 11093 max 11057 min
Histogram: 1 0 0 0 0 0 0 0 0 1
Neighs:    514750 ave 516117 max 513384 min
Histogram: 1 0 0 0 0 0 0 0 0 1

Total # of neighbors = 1029501
Ave neighs/atom = 52.3866
Neighbor list builds = 495
Dangerous builds not checked
Setting up Verlet run ...
  Unit style    : metal
  Current step  : 160495
  Time step     : 0.001
Per MPI rank memory allocation (min/avg/max) = 11.27 | 11.27 | 11.27 Mbytes
Step Temp Press TotEng PotEng Enthalpy 
  160495    1800.2355   -1170.1696   -110956.78   -115529.54   -111306.71 
  170000    1787.6177   -498.97986   -111089.88   -115630.59   -111238.83 
Loop time of 749.306 on 2 procs for 9505 steps with 19652 atoms

Performance: 1.096 ns/day, 21.898 hours/ns, 12.685 timesteps/s
98.5% CPU use with 2 MPI tasks x no OpenMP threads

MPI task timing breakdown:
Section |  min time  |  avg time  |  max time  |%varavg| %total
---------------------------------------------------------------
Pair    | 408.19     | 408.66     | 409.14     |   2.3 | 54.54
Neigh   | 295.61     | 297.63     | 299.65     |  11.7 | 39.72
Comm    | 29.935     | 32.457     | 34.98      |  44.3 |  4.33
Output  | 0.038403   | 0.038434   | 0.038465   |   0.0 |  0.01
Modify  | 8.2627     | 8.2852     | 8.3077     |   0.8 |  1.11
Other   |            | 2.229      |            |       |  0.30

Nlocal:    9826 ave 9828 max 9824 min
Histogram: 1 0 0 0 0 0 0 0 0 1
Nghost:    11106 ave 11110 max 11102 min
Histogram: 1 0 0 0 0 0 0 0 0 1
Neighs:    515855 ave 516061 max 515649 min
Histogram: 1 0 0 0 0 0 0 0 0 1

Total # of neighbors = 1031710
Ave neighs/atom = 52.499
Neighbor list builds = 9505
Dangerous builds not checked
Setting up Verlet run ...
  Unit style    : metal
  Current step  : 170000
  Time step     : 0.001
Per MPI rank memory allocation (min/avg/max) = 11.27 | 11.27 | 11.27 Mbytes
Step Temp Press TotEng PotEng Enthalpy 
  170000    1787.6177   -498.97986   -111089.88   -115630.59   -111238.83 
  170495    1758.6448     -553.331   -111270.92   -115738.04   -111435.92 
Loop time of 37.2595 on 2 procs for 495 steps with 19652 atoms

Performance: 1.148 ns/day, 20.909 hours/ns, 13.285 timesteps/s
99.6% CPU use with 2 MPI tasks x no OpenMP threads

MPI task timing breakdown:
Section |  min time  |  avg time  |  max time  |%varavg| %total
---------------------------------------------------------------
Pair    | 20.12      | 20.16      | 20.199     |   0.9 | 54.11
Neigh   | 15.163     | 15.209     | 15.255     |   1.2 | 40.82
Comm    | 1.2561     | 1.339      | 1.4219     |   7.2 |  3.59
Output  | 0.00010109 | 0.00013912 | 0.00017715 |   0.0 |  0.00
Modify  | 0.43233    | 0.4335     | 0.43467    |   0.2 |  1.16
Other   |            | 0.1181     |            |       |  0.32

Nlocal:    9826 ave 9846 max 9806 min
Histogram: 1 0 0 0 0 0 0 0 0 1
Nghost:    11098.5 ave 11113 max 11084 min
Histogram: 1 0 0 0 0 0 0 0 0 1
Neighs:    516142 ave 517694 max 514589 min
Histogram: 1 0 0 0 0 0 0 0 0 1

Total # of neighbors = 1032283
Ave neighs/atom = 52.5281
Neighbor list builds = 495
Dangerous builds not checked
Setting up Verlet run ...
  Unit style    : metal
  Current step  : 170495
  Time step     : 0.001
Per MPI rank memory allocation (min/avg/max) = 11.27 | 11.27 | 11.27 Mbytes
Step Temp Press TotEng PotEng Enthalpy 
  170495    1758.6448     -553.331   -111270.92   -115738.04   -111435.92 
  180000    1741.2119   -603.01342   -111483.29   -115906.13   -111662.99 
Loop time of 754.338 on 2 procs for 9505 steps with 19652 atoms

Performance: 1.089 ns/day, 22.045 hours/ns, 12.600 timesteps/s
98.0% CPU use with 2 MPI tasks x no OpenMP threads

MPI task timing breakdown:
Section |  min time  |  avg time  |  max time  |%varavg| %total
---------------------------------------------------------------
Pair    | 412.24     | 413.59     | 414.95     |   6.7 | 54.83
Neigh   | 296.57     | 297.77     | 298.97     |   7.0 | 39.47
Comm    | 28.822     | 31.391     | 33.96      |  45.9 |  4.16
Output  | 0.36585    | 0.36589    | 0.36593    |   0.0 |  0.05
Modify  | 8.9663     | 8.9823     | 8.9982     |   0.5 |  1.19
Other   |            | 2.236      |            |       |  0.30

Nlocal:    9826 ave 9847 max 9805 min
Histogram: 1 0 0 0 0 0 0 0 0 1
Nghost:    11077 ave 11097 max 11057 min
Histogram: 1 0 0 0 0 0 0 0 0 1
Neighs:    516902 ave 517660 max 516145 min
Histogram: 1 0 0 0 0 0 0 0 0 1

Total # of neighbors = 1033805
Ave neighs/atom = 52.6056
Neighbor list builds = 9505
Dangerous builds not checked
Setting up Verlet run ...
  Unit style    : metal
  Current step  : 180000
  Time step     : 0.001
Per MPI rank memory allocation (min/avg/max) = 11.27 | 11.27 | 11.27 Mbytes
Step Temp Press TotEng PotEng Enthalpy 
  180000    1741.2119   -603.01342   -111483.29   -115906.13   -111662.99 
  180495    1710.6736    -130.3096   -111565.33   -115910.59   -111604.11 
Loop time of 37.5988 on 2 procs for 495 steps with 19652 atoms

Performance: 1.137 ns/day, 21.099 hours/ns, 13.165 timesteps/s
99.5% CPU use with 2 MPI tasks x no OpenMP threads

MPI task timing breakdown:
Section |  min time  |  avg time  |  max time  |%varavg| %total
---------------------------------------------------------------
Pair    | 20.16      | 20.376     | 20.591     |   4.8 | 54.19
Neigh   | 15.15      | 15.174     | 15.197     |   0.6 | 40.36
Comm    | 1.3056     | 1.4985     | 1.6915     |  15.8 |  3.99
Output  | 8.893e-05  | 0.00011551 | 0.0001421  |   0.0 |  0.00
Modify  | 0.43416    | 0.43448    | 0.43479    |   0.0 |  1.16
Other   |            | 0.1163     |            |       |  0.31

Nlocal:    9826 ave 9832 max 9820 min
Histogram: 1 0 0 0 0 0 0 0 0 1
Nghost:    11082.5 ave 11098 max 11067 min
Histogram: 1 0 0 0 0 0 0 0 0 1
Neighs:    517634 ave 518089 max 517178 min
Histogram: 1 0 0 0 0 0 0 0 0 1

Total # of neighbors = 1035267
Ave neighs/atom = 52.68
Neighbor list builds = 495
Dangerous builds not checked
Setting up Verlet run ...
  Unit style    : metal
  Current step  : 180495
  Time step     : 0.001
Per MPI rank memory allocation (min/avg/max) = 11.27 | 11.27 | 11.27 Mbytes
Step Temp Press TotEng PotEng Enthalpy 
  180495    1710.6736    -130.3096   -111565.33   -115910.59   -111604.11 
  190000    1684.8536   -74.141681   -111744.22    -116023.9   -111766.28 
Loop time of 747.916 on 2 procs for 9505 steps with 19652 atoms

Performance: 1.098 ns/day, 21.857 hours/ns, 12.709 timesteps/s
98.6% CPU use with 2 MPI tasks x no OpenMP threads

MPI task timing breakdown:
Section |  min time  |  avg time  |  max time  |%varavg| %total
---------------------------------------------------------------
Pair    | 405.72     | 406.02     | 406.31     |   1.5 | 54.29
Neigh   | 294.91     | 296.5      | 298.1      |   9.3 | 39.64
Comm    | 31.94      | 33.26      | 34.579     |  22.9 |  4.45
Output  | 0.035443   | 0.03547    | 0.035498   |   0.0 |  0.00
Modify  | 9.8636     | 9.8723     | 9.881      |   0.3 |  1.32
Other   |            | 2.23       |            |       |  0.30

Nlocal:    9826 ave 9831 max 9821 min
Histogram: 1 0 0 0 0 0 0 0 0 1
Nghost:    11069.5 ave 11079 max 11060 min
Histogram: 1 0 0 0 0 0 0 0 0 1
Neighs:    517840 ave 518094 max 517585 min
Histogram: 1 0 0 0 0 0 0 0 0 1

Total # of neighbors = 1035679
Ave neighs/atom = 52.7009
Neighbor list builds = 9505
Dangerous builds not checked
Setting up Verlet run ...
  Unit style    : metal
  Current step  : 190000
  Time step     : 0.001
Per MPI rank memory allocation (min/avg/max) = 11.27 | 11.27 | 11.27 Mbytes
Step Temp Press TotEng PotEng Enthalpy 
  190000    1684.8536   -74.141681   -111744.22    -116023.9   -111766.28 
  190495    1659.6347   -1027.1652   -111981.78    -116197.4    -112287.2 
Loop time of 38.4652 on 2 procs for 495 steps with 19652 atoms

Performance: 1.112 ns/day, 21.585 hours/ns, 12.869 timesteps/s
96.7% CPU use with 2 MPI tasks x no OpenMP threads

MPI task timing breakdown:
Section |  min time  |  avg time  |  max time  |%varavg| %total
---------------------------------------------------------------
Pair    | 21.372     | 21.504     | 21.635     |   2.8 | 55.90
Neigh   | 15.049     | 15.113     | 15.176     |   1.6 | 39.29
Comm    | 1.2323     | 1.2994     | 1.3665     |   5.9 |  3.38
Output  | 9.799e-05  | 0.0001291  | 0.00016022 |   0.0 |  0.00
Modify  | 0.43141    | 0.43229    | 0.43318    |   0.1 |  1.12
Other   |            | 0.1171     |            |       |  0.30

Nlocal:    9826 ave 9841 max 9811 min
Histogram: 1 0 0 0 0 0 0 0 0 1
Nghost:    11115 ave 11132 max 11098 min
Histogram: 1 0 0 0 0 0 0 0 0 1
Neighs:    518262 ave 518932 max 517593 min
Histogram: 1 0 0 0 0 0 0 0 0 1

Total # of neighbors = 1036525
Ave neighs/atom = 52.744
Neighbor list builds = 495
Dangerous builds not checked
Setting up Verlet run ...
  Unit style    : metal
  Current step  : 190495
  Time step     : 0.001
Per MPI rank memory allocation (min/avg/max) = 11.27 | 11.27 | 11.27 Mbytes
Step Temp Press TotEng PotEng Enthalpy 
  190495    1659.6347   -1027.1652   -111981.78    -116197.4    -112287.2 
  200000    1639.7598    784.37655   -112097.43   -116262.57   -111864.89 
Loop time of 747.957 on 2 procs for 9505 steps with 19652 atoms

Performance: 1.098 ns/day, 21.859 hours/ns, 12.708 timesteps/s
98.6% CPU use with 2 MPI tasks x no OpenMP threads

MPI task timing breakdown:
Section |  min time  |  avg time  |  max time  |%varavg| %total
---------------------------------------------------------------
Pair    | 409.32     | 410.57     | 411.81     |   6.2 | 54.89
Neigh   | 295.24     | 295.84     | 296.43     |   3.5 | 39.55
Comm    | 29.096     | 30.927     | 32.757     |  32.9 |  4.13
Output  | 0.036472   | 0.036568   | 0.036665   |   0.1 |  0.00
Modify  | 8.3509     | 8.3554     | 8.36       |   0.2 |  1.12
Other   |            | 2.232      |            |       |  0.30

Nlocal:    9826 ave 9859 max 9793 min
Histogram: 1 0 0 0 0 0 0 0 0 1
Nghost:    11079 ave 11114 max 11044 min
Histogram: 1 0 0 0 0 0 0 0 0 1
Neighs:    520315 ave 522739 max 517891 min
Histogram: 1 0 0 0 0 0 0 0 0 1

Total # of neighbors = 1040630
Ave neighs/atom = 52.9529
Neighbor list builds = 9505
Dangerous builds not checked
Setting up Verlet run ...
  Unit style    : metal
  Current step  : 200000
  Time step     : 0.001
Per MPI rank memory allocation (min/avg/max) = 11.27 | 11.27 | 11.28 Mbytes
Step Temp Press TotEng PotEng Enthalpy 
  200000    1639.7598    784.37655   -112097.43   -116262.57   -111864.89 
  200495    1612.7777    127.92068   -112301.25   -116397.85   -112263.34 
Loop time of 39.2538 on 2 procs for 495 steps with 19652 atoms

Performance: 1.090 ns/day, 22.028 hours/ns, 12.610 timesteps/s
94.2% CPU use with 2 MPI tasks x no OpenMP threads

MPI task timing breakdown:
Section |  min time  |  avg time  |  max time  |%varavg| %total
---------------------------------------------------------------
Pair    | 21.927     | 22.066     | 22.205     |   3.0 | 56.21
Neigh   | 14.928     | 15.035     | 15.143     |   2.8 | 38.30
Comm    | 1.4646     | 1.4989     | 1.5332     |   2.8 |  3.82
Output  | 9.6083e-05 | 0.00012398 | 0.00015187 |   0.0 |  0.00
Modify  | 0.53189    | 0.53526    | 0.53864    |   0.5 |  1.36
Other   |            | 0.118      |            |       |  0.30

Nlocal:    9826 ave 9852 max 9800 min
Histogram: 1 0 0 0 0 0 0 0 0 1
Nghost:    11068.5 ave 11086 max 11051 min
Histogram: 1 0 0 0 0 0 0 0 0 1
Neighs:    520232 ave 522061 max 518403 min
Histogram: 1 0 0 0 0 0 0 0 0 1

Total # of neighbors = 1040464
Ave neighs/atom = 52.9444
Neighbor list builds = 495
Dangerous builds not checked
Setting up Verlet run ...
  Unit style    : metal
  Current step  : 200495
  Time step     : 0.001
Per MPI rank memory allocation (min/avg/max) = 11.27 | 11.27 | 11.28 Mbytes
Step Temp Press TotEng PotEng Enthalpy 
  200495    1612.7777    127.92068   -112301.25   -116397.85   -112263.34 
  210000    1598.3124     784.5972   -112461.39   -116521.25   -112229.18 
Loop time of 747.559 on 2 procs for 9505 steps with 19652 atoms

Performance: 1.099 ns/day, 21.847 hours/ns, 12.715 timesteps/s
98.0% CPU use with 2 MPI tasks x no OpenMP threads

MPI task timing breakdown:
Section |  min time  |  avg time  |  max time  |%varavg| %total
---------------------------------------------------------------
Pair    | 407.34     | 408.45     | 409.55     |   5.5 | 54.64
Neigh   | 294.38     | 296.05     | 297.72     |   9.7 | 39.60
Comm    | 29.491     | 32.303     | 35.115     |  49.5 |  4.32
Output  | 0.036022   | 0.036036   | 0.036051   |   0.0 |  0.00
Modify  | 8.4471     | 8.4731     | 8.4991     |   0.9 |  1.13
Other   |            | 2.249      |            |       |  0.30

Nlocal:    9826 ave 9827 max 9825 min
Histogram: 1 0 0 0 0 0 0 0 0 1
Nghost:    11118.5 ave 11134 max 11103 min
Histogram: 1 0 0 0 0 0 0 0 0 1
Neighs:    521281 ave 521482 max 521080 min
Histogram: 1 0 0 0 0 0 0 0 0 1

Total # of neighbors = 1042562
Ave neighs/atom = 53.0512
Neighbor list builds = 9505
Dangerous builds not checked
Setting up Verlet run ...
  Unit style    : metal
  Current step  : 210000
  Time step     : 0.001
Per MPI rank memory allocation (min/avg/max) = 11.28 | 11.28 | 11.28 Mbytes
Step Temp Press TotEng PotEng Enthalpy 
  210000    1598.3124     784.5972   -112461.39   -116521.25   -112229.18 
  210495    1564.1053    45.244879   -112674.99   -116647.96    -112661.6 
Loop time of 37.2051 on 2 procs for 495 steps with 19652 atoms

Performance: 1.150 ns/day, 20.878 hours/ns, 13.305 timesteps/s
98.8% CPU use with 2 MPI tasks x no OpenMP threads

MPI task timing breakdown:
Section |  min time  |  avg time  |  max time  |%varavg| %total
---------------------------------------------------------------
Pair    | 20.011     | 20.18      | 20.349     |   3.8 | 54.24
Neigh   | 14.622     | 14.66      | 14.697     |   1.0 | 39.40
Comm    | 1.6922     | 1.8229     | 1.9536     |   9.7 |  4.90
Output  | 8.7976e-05 | 0.00014555 | 0.00020313 |   0.0 |  0.00
Modify  | 0.4274     | 0.42773    | 0.42805    |   0.0 |  1.15
Other   |            | 0.1146     |            |       |  0.31

Nlocal:    9826 ave 9845 max 9807 min
Histogram: 1 0 0 0 0 0 0 0 0 1
Nghost:    11090.5 ave 11092 max 11089 min
Histogram: 1 0 0 0 0 0 0 0 0 1
Neighs:    521623 ave 522996 max 520250 min
Histogram: 1 0 0 0 0 0 0 0 0 1

Total # of neighbors = 1043246
Ave neighs/atom = 53.086
Neighbor list builds = 495
Dangerous builds not checked
Setting up Verlet run ...
  Unit style    : metal
  Current step  : 210495
  Time step     : 0.001
Per MPI rank memory allocation (min/avg/max) = 11.28 | 11.28 | 11.28 Mbytes
Step Temp Press TotEng PotEng Enthalpy 
  210495    1564.1053    45.244879   -112674.99   -116647.96    -112661.6 
  220000    1567.4268    1699.1609   -112799.14   -116780.55   -112297.79 
Loop time of 756.864 on 2 procs for 9505 steps with 19652 atoms

Performance: 1.085 ns/day, 22.119 hours/ns, 12.558 timesteps/s
97.6% CPU use with 2 MPI tasks x no OpenMP threads

MPI task timing breakdown:
Section |  min time  |  avg time  |  max time  |%varavg| %total
---------------------------------------------------------------
Pair    | 417.15     | 417.19     | 417.23     |   0.2 | 55.12
Neigh   | 295.55     | 297.54     | 299.53     |  11.5 | 39.31
Comm    | 29.24      | 31.311     | 33.382     |  37.0 |  4.14
Output  | 0.035702   | 0.035732   | 0.035762   |   0.0 |  0.00
Modify  | 8.4923     | 8.5395     | 8.5868     |   1.6 |  1.13
Other   |            | 2.241      |            |       |  0.30

Nlocal:    9826 ave 9836 max 9816 min
Histogram: 1 0 0 0 0 0 0 0 0 1
Nghost:    11137.5 ave 11152 max 11123 min
Histogram: 1 0 0 0 0 0 0 0 0 1
Neighs:    523310 ave 523854 max 522765 min
Histogram: 1 0 0 0 0 0 0 0 0 1

Total # of neighbors = 1046619
Ave neighs/atom = 53.2576
Neighbor list builds = 9505
Dangerous builds not checked
Setting up Verlet run ...
  Unit style    : metal
  Current step  : 220000
  Time step     : 0.001
Per MPI rank memory allocation (min/avg/max) = 11.28 | 11.28 | 11.28 Mbytes
Step Temp Press TotEng PotEng Enthalpy 
  220000    1567.4268    1699.1609   -112799.14   -116780.55   -112297.79 
  220495    1523.2511    177.12977   -113012.13   -116881.33   -112959.82 
Loop time of 39.3594 on 2 procs for 495 steps with 19652 atoms

Performance: 1.087 ns/day, 22.087 hours/ns, 12.576 timesteps/s
96.4% CPU use with 2 MPI tasks x no OpenMP threads

MPI task timing breakdown:
Section |  min time  |  avg time  |  max time  |%varavg| %total
---------------------------------------------------------------
Pair    | 21.112     | 21.15      | 21.189     |   0.8 | 53.74
Neigh   | 15.038     | 15.095     | 15.151     |   1.5 | 38.35
Comm    | 2.4721     | 2.567      | 2.6619     |   5.9 |  6.52
Output  | 0.00011492 | 0.00014651 | 0.0001781  |   0.0 |  0.00
Modify  | 0.43       | 0.43019    | 0.43038    |   0.0 |  1.09
Other   |            | 0.117      |            |       |  0.30

Nlocal:    9826 ave 9830 max 9822 min
Histogram: 1 0 0 0 0 0 0 0 0 1
Nghost:    11145 ave 11158 max 11132 min
Histogram: 1 0 0 0 0 0 0 0 0 1
Neighs:    523090 ave 523937 max 522244 min
Histogram: 1 0 0 0 0 0 0 0 0 1

Total # of neighbors = 1046181
Ave neighs/atom = 53.2353
Neighbor list builds = 495
Dangerous builds not checked
Setting up Verlet run ...
  Unit style    : metal
  Current step  : 220495
  Time step     : 0.001
Per MPI rank memory allocation (min/avg/max) = 11.28 | 11.28 | 11.28 Mbytes
Step Temp Press TotEng PotEng Enthalpy 
  220495    1523.2511    177.12977   -113012.13   -116881.33   -112959.82 
  230000    1490.3379   -139.29324    -113202.5   -116988.09   -113243.63 
Loop time of 732.332 on 2 procs for 9505 steps with 19652 atoms

Performance: 1.121 ns/day, 21.402 hours/ns, 12.979 timesteps/s
98.8% CPU use with 2 MPI tasks x no OpenMP threads

MPI task timing breakdown:
Section |  min time  |  avg time  |  max time  |%varavg| %total
---------------------------------------------------------------
Pair    | 399.59     | 400.11     | 400.62     |   2.6 | 54.63
Neigh   | 290.84     | 292.09     | 293.33     |   7.3 | 39.88
Comm    | 27.868     | 29.634     | 31.399     |  32.4 |  4.05
Output  | 0.037518   | 0.037607   | 0.037695   |   0.0 |  0.01
Modify  | 8.2427     | 8.2475     | 8.2523     |   0.2 |  1.13
Other   |            | 2.218      |            |       |  0.30

Nlocal:    9826 ave 9835 max 9817 min
Histogram: 1 0 0 0 0 0 0 0 0 1
Nghost:    11122.5 ave 11136 max 11109 min
Histogram: 1 0 0 0 0 0 0 0 0 1
Neighs:    523204 ave 523681 max 522726 min
Histogram: 1 0 0 0 0 0 0 0 0 1

Total # of neighbors = 1046407
Ave neighs/atom = 53.2468
Neighbor list builds = 9505
Dangerous builds not checked
Setting up Verlet run ...
  Unit style    : metal
  Current step  : 230000
  Time step     : 0.001
Per MPI rank memory allocation (min/avg/max) = 11.28 | 11.28 | 11.28 Mbytes
Step Temp Press TotEng PotEng Enthalpy 
  230000    1490.3379   -139.29324    -113202.5   -116988.09   -113243.63 
  230495    1458.2265   -421.87059   -113375.85   -117079.88   -113500.35 
Loop time of 38.5513 on 2 procs for 495 steps with 19652 atoms

Performance: 1.109 ns/day, 21.634 hours/ns, 12.840 timesteps/s
98.5% CPU use with 2 MPI tasks x no OpenMP threads

MPI task timing breakdown:
Section |  min time  |  avg time  |  max time  |%varavg| %total
---------------------------------------------------------------
Pair    | 20.762     | 21.257     | 21.752     |  10.7 | 55.14
Neigh   | 14.948     | 15.162     | 15.376     |   5.5 | 39.33
Comm    | 0.85359    | 1.5781     | 2.3026     |  57.7 |  4.09
Output  | 0.00011206 | 0.0002501  | 0.00038815 |   0.0 |  0.00
Modify  | 0.42407    | 0.43638    | 0.44869    |   1.9 |  1.13
Other   |            | 0.1174     |            |       |  0.30

Nlocal:    9826 ave 9828 max 9824 min
Histogram: 1 0 0 0 0 0 0 0 0 1
Nghost:    11126.5 ave 11136 max 11117 min
Histogram: 1 0 0 0 0 0 0 0 0 1
Neighs:    523601 ave 524721 max 522481 min
Histogram: 1 0 0 0 0 0 0 0 0 1

Total # of neighbors = 1047202
Ave neighs/atom = 53.2873
Neighbor list builds = 495
Dangerous builds not checked
Setting up Verlet run ...
  Unit style    : metal
  Current step  : 230495
  Time step     : 0.001
Per MPI rank memory allocation (min/avg/max) = 11.28 | 11.28 | 11.28 Mbytes
Step Temp Press TotEng PotEng Enthalpy 
  230495    1458.2265   -421.87059   -113375.85   -117079.88   -113500.35 
  240000    1440.7424    99.271016   -113596.17   -117255.79   -113566.93 
Loop time of 728.234 on 2 procs for 9505 steps with 19652 atoms

Performance: 1.128 ns/day, 21.282 hours/ns, 13.052 timesteps/s
98.5% CPU use with 2 MPI tasks x no OpenMP threads

MPI task timing breakdown:
Section |  min time  |  avg time  |  max time  |%varavg| %total
---------------------------------------------------------------
Pair    | 397.44     | 397.99     | 398.54     |   2.8 | 54.65
Neigh   | 286.07     | 288.24     | 290.41     |  12.8 | 39.58
Comm    | 28.865     | 31.619     | 34.373     |  49.0 |  4.34
Output  | 0.035386   | 0.035422   | 0.035458   |   0.0 |  0.00
Modify  | 8.1344     | 8.1618     | 8.1891     |   1.0 |  1.12
Other   |            | 2.189      |            |       |  0.30

Nlocal:    9826 ave 9826 max 9826 min
Histogram: 2 0 0 0 0 0 0 0 0 0
Nghost:    11132.5 ave 11135 max 11130 min
Histogram: 1 0 0 0 0 0 0 0 0 1
Neighs:    525043 ave 525508 max 524578 min
Histogram: 1 0 0 0 0 0 0 0 0 1

Total # of neighbors = 1050086
Ave neighs/atom = 53.4341
Neighbor list builds = 9505
Dangerous builds not checked
Setting up Verlet run ...
  Unit style    : metal
  Current step  : 240000
  Time step     : 0.001
Per MPI rank memory allocation (min/avg/max) = 11.28 | 11.28 | 11.28 Mbytes
Step Temp Press TotEng PotEng Enthalpy 
  240000    1440.7424    99.271016   -113596.17   -117255.79   -113566.93 
  240495    1415.9571    210.35228   -113761.91   -117358.57   -113699.98 
Loop time of 36.7627 on 2 procs for 495 steps with 19652 atoms

Performance: 1.163 ns/day, 20.630 hours/ns, 13.465 timesteps/s
97.8% CPU use with 2 MPI tasks x no OpenMP threads

MPI task timing breakdown:
Section |  min time  |  avg time  |  max time  |%varavg| %total
---------------------------------------------------------------
Pair    | 19.821     | 19.892     | 19.963     |   1.6 | 54.11
Neigh   | 14.629     | 14.67      | 14.71      |   1.1 | 39.90
Comm    | 1.5617     | 1.6747     | 1.7877     |   8.7 |  4.56
Output  | 7.2002e-05 | 0.00011504 | 0.00015807 |   0.0 |  0.00
Modify  | 0.41593    | 0.41678    | 0.41762    |   0.1 |  1.13
Other   |            | 0.1095     |            |       |  0.30

Nlocal:    9826 ave 9830 max 9822 min
Histogram: 1 0 0 0 0 0 0 0 0 1
Nghost:    11132.5 ave 11139 max 11126 min
Histogram: 1 0 0 0 0 0 0 0 0 1
Neighs:    525280 ave 525536 max 525025 min
Histogram: 1 0 0 0 0 0 0 0 0 1

Total # of neighbors = 1050561
Ave neighs/atom = 53.4582
Neighbor list builds = 495
Dangerous builds not checked
Setting up Verlet run ...
  Unit style    : metal
  Current step  : 240495
  Time step     : 0.001
Per MPI rank memory allocation (min/avg/max) = 11.28 | 11.28 | 11.28 Mbytes
Step Temp Press TotEng PotEng Enthalpy 
  240495    1415.9571    210.35228   -113761.91   -117358.57   -113699.98 
  250000    1396.8948   -770.89879   -113834.95   -117383.19   -114062.13 
Loop time of 713.691 on 2 procs for 9505 steps with 19652 atoms

Performance: 1.151 ns/day, 20.857 hours/ns, 13.318 timesteps/s
98.3% CPU use with 2 MPI tasks x no OpenMP threads

MPI task timing breakdown:
Section |  min time  |  avg time  |  max time  |%varavg| %total
---------------------------------------------------------------
Pair    | 385.54     | 387.04     | 388.53     |   7.6 | 54.23
Neigh   | 284.32     | 285.77     | 287.23     |   8.6 | 40.04
Comm    | 26.972     | 29.952     | 32.932     |  54.5 |  4.20
Output  | 0.050529   | 0.050549   | 0.050569   |   0.0 |  0.01
Modify  | 8.7484     | 8.7737     | 8.799      |   0.9 |  1.23
Other   |            | 2.106      |            |       |  0.30

Nlocal:    9826 ave 9830 max 9822 min
Histogram: 1 0 0 0 0 0 0 0 0 1
Nghost:    11131 ave 11151 max 11111 min
Histogram: 1 0 0 0 0 0 0 0 0 1
Neighs:    524978 ave 525024 max 524933 min
Histogram: 1 0 0 0 0 0 0 0 0 1

Total # of neighbors = 1049957
Ave neighs/atom = 53.4275
Neighbor list builds = 9505
Dangerous builds not checked
Setting up Verlet run ...
  Unit style    : metal
  Current step  : 250000
  Time step     : 0.001
Per MPI rank memory allocation (min/avg/max) = 11.28 | 11.28 | 11.28 Mbytes
Step Temp Press TotEng PotEng Enthalpy 
  250000    1396.8948   -770.89879   -113834.95   -117383.19   -114062.13 
  250495    1367.0438    55.649988   -114044.82   -117517.24   -114028.46 
Loop time of 34.8567 on 2 procs for 495 steps with 19652 atoms

Performance: 1.227 ns/day, 19.560 hours/ns, 14.201 timesteps/s
99.8% CPU use with 2 MPI tasks x no OpenMP threads

MPI task timing breakdown:
Section |  min time  |  avg time  |  max time  |%varavg| %total
---------------------------------------------------------------
Pair    | 18.704     | 18.756     | 18.807     |   1.2 | 53.81
Neigh   | 14.32      | 14.401     | 14.482     |   2.1 | 41.32
Comm    | 1.1378     | 1.1785     | 1.2192     |   3.8 |  3.38
Output  | 9.799e-05  | 0.00013447 | 0.00017095 |   0.0 |  0.00
Modify  | 0.40453    | 0.41513    | 0.42573    |   1.6 |  1.19
Other   |            | 0.106      |            |       |  0.30

Nlocal:    9826 ave 9829 max 9823 min
Histogram: 1 0 0 0 0 0 0 0 0 1
Nghost:    11156.5 ave 11166 max 11147 min
Histogram: 1 0 0 0 0 0 0 0 0 1
Neighs:    526248 ave 526431 max 526065 min
Histogram: 1 0 0 0 0 0 0 0 0 1

Total # of neighbors = 1052496
Ave neighs/atom = 53.5567
Neighbor list builds = 495
Dangerous builds not checked
Setting up Verlet run ...
  Unit style    : metal
  Current step  : 250495
  Time step     : 0.001
Per MPI rank memory allocation (min/avg/max) = 11.28 | 11.28 | 11.28 Mbytes
Step Temp Press TotEng PotEng Enthalpy 
  250495    1367.0438    55.649988   -114044.82   -117517.24   -114028.46 
  260000    1355.4561     1016.722    -114226.2   -117669.19   -113927.94 
Loop time of 698.755 on 2 procs for 9505 steps with 19652 atoms

Performance: 1.175 ns/day, 20.421 hours/ns, 13.603 timesteps/s
97.0% CPU use with 2 MPI tasks x no OpenMP threads

MPI task timing breakdown:
Section |  min time  |  avg time  |  max time  |%varavg| %total
---------------------------------------------------------------
Pair    | 377.29     | 377.81     | 378.34     |   2.7 | 54.07
Neigh   | 272.55     | 276.69     | 280.83     |  24.9 | 39.60
Comm    | 30.304     | 34.081     | 37.858     |  64.7 |  4.88
Output  | 0.026338   | 0.026344   | 0.02635    |   0.0 |  0.00
Modify  | 8.0129     | 8.1163     | 8.2197     |   3.6 |  1.16
Other   |            | 2.03       |            |       |  0.29

Nlocal:    9826 ave 9830 max 9822 min
Histogram: 1 0 0 0 0 0 0 0 0 1
Nghost:    11144 ave 11183 max 11105 min
Histogram: 1 0 0 0 0 0 0 0 0 1
Neighs:    528090 ave 528493 max 527686 min
Histogram: 1 0 0 0 0 0 0 0 0 1

Total # of neighbors = 1056179
Ave neighs/atom = 53.7441
Neighbor list builds = 9505
Dangerous builds not checked
Setting up Verlet run ...
  Unit style    : metal
  Current step  : 260000
  Time step     : 0.001
Per MPI rank memory allocation (min/avg/max) = 11.28 | 11.28 | 11.28 Mbytes
Step Temp Press TotEng PotEng Enthalpy 
  260000    1355.4561     1016.722    -114226.2   -117669.19   -113927.94 
  260495    1325.6887   -610.35492   -114438.08   -117805.45   -114617.35 
Loop time of 26.8237 on 2 procs for 495 steps with 19652 atoms

Performance: 1.594 ns/day, 15.053 hours/ns, 18.454 timesteps/s
99.9% CPU use with 2 MPI tasks x no OpenMP threads

MPI task timing breakdown:
Section |  min time  |  avg time  |  max time  |%varavg| %total
---------------------------------------------------------------
Pair    | 13.809     | 13.86      | 13.911     |   1.4 | 51.67
Neigh   | 11.418     | 11.467     | 11.516     |   1.4 | 42.75
Comm    | 1.1057     | 1.1068     | 1.1079     |   0.1 |  4.13
Output  | 7.1049e-05 | 0.00010097 | 0.00013089 |   0.0 |  0.00
Modify  | 0.3068     | 0.30758    | 0.30837    |   0.1 |  1.15
Other   |            | 0.08197    |            |       |  0.31

Nlocal:    9826 ave 9828 max 9824 min
Histogram: 1 0 0 0 0 0 0 0 0 1
Nghost:    11101 ave 11141 max 11061 min
Histogram: 1 0 0 0 0 0 0 0 0 1
Neighs:    527670 ave 528619 max 526720 min
Histogram: 1 0 0 0 0 0 0 0 0 1

Total # of neighbors = 1055339
Ave neighs/atom = 53.7014
Neighbor list builds = 495
Dangerous builds not checked
Setting up Verlet run ...
  Unit style    : metal
  Current step  : 260495
  Time step     : 0.001
Per MPI rank memory allocation (min/avg/max) = 11.28 | 11.28 | 11.28 Mbytes
Step Temp Press TotEng PotEng Enthalpy 
  260495    1325.6887   -610.35492   -114438.08   -117805.45   -114617.35 
  270000    1301.5443    1236.2659   -114565.77   -117871.81   -114203.82 
Loop time of 676.92 on 2 procs for 9505 steps with 19652 atoms

Performance: 1.213 ns/day, 19.783 hours/ns, 14.042 timesteps/s
97.4% CPU use with 2 MPI tasks x no OpenMP threads

MPI task timing breakdown:
Section |  min time  |  avg time  |  max time  |%varavg| %total
---------------------------------------------------------------
Pair    | 360.21     | 360.51     | 360.81     |   1.6 | 53.26
Neigh   | 268.56     | 268.97     | 269.37     |   2.5 | 39.73
Comm    | 34.399     | 35.237     | 36.075     |  14.1 |  5.21
Output  | 0.036443   | 0.036471   | 0.036498   |   0.0 |  0.01
Modify  | 10.029     | 10.194     | 10.359     |   5.2 |  1.51
Other   |            | 1.978      |            |       |  0.29

Nlocal:    9826 ave 9839 max 9813 min
Histogram: 1 0 0 0 0 0 0 0 0 1
Nghost:    11201 ave 11216 max 11186 min
Histogram: 1 0 0 0 0 0 0 0 0 1
Neighs:    529434 ave 530059 max 528810 min
Histogram: 1 0 0 0 0 0 0 0 0 1

Total # of neighbors = 1058869
Ave neighs/atom = 53.881
Neighbor list builds = 9505
Dangerous builds not checked
Setting up Verlet run ...
  Unit style    : metal
  Current step  : 270000
  Time step     : 0.001
Per MPI rank memory allocation (min/avg/max) = 11.28 | 11.28 | 11.28 Mbytes
Step Temp Press TotEng PotEng Enthalpy 
  270000    1301.5443    1236.2659   -114565.77   -117871.81   -114203.82 
  270495    1265.8681   -1369.8724   -114780.51   -117995.93   -115182.56 
Loop time of 39.032 on 2 procs for 495 steps with 19652 atoms

Performance: 1.096 ns/day, 21.904 hours/ns, 12.682 timesteps/s
94.2% CPU use with 2 MPI tasks x no OpenMP threads

MPI task timing breakdown:
Section |  min time  |  avg time  |  max time  |%varavg| %total
---------------------------------------------------------------
Pair    | 21.688     | 21.698     | 21.708     |   0.2 | 55.59
Neigh   | 14.609     | 15.08      | 15.55      |  12.1 | 38.63
Comm    | 1.2243     | 1.7096     | 2.1948     |  37.1 |  4.38
Output  | 7.2956e-05 | 0.00011146 | 0.00014997 |   0.0 |  0.00
Modify  | 0.43258    | 0.43452    | 0.43646    |   0.3 |  1.11
Other   |            | 0.1101     |            |       |  0.28

Nlocal:    9826 ave 9828 max 9824 min
Histogram: 1 0 0 0 0 0 0 0 0 1
Nghost:    11164.5 ave 11183 max 11146 min
Histogram: 1 0 0 0 0 0 0 0 0 1
Neighs:    527994 ave 528279 max 527708 min
Histogram: 1 0 0 0 0 0 0 0 0 1

Total # of neighbors = 1055987
Ave neighs/atom = 53.7343
Neighbor list builds = 495
Dangerous builds not checked
Setting up Verlet run ...
  Unit style    : metal
  Current step  : 270495
  Time step     : 0.001
Per MPI rank memory allocation (min/avg/max) = 11.28 | 11.28 | 11.28 Mbytes
Step Temp Press TotEng PotEng Enthalpy 
  270495    1265.8681   -1369.8724   -114780.51   -117995.93   -115182.56 
  280000    1245.2935   -1198.4213   -114974.23   -118137.39   -115325.51 
Loop time of 682.949 on 2 procs for 9505 steps with 19652 atoms

Performance: 1.202 ns/day, 19.959 hours/ns, 13.918 timesteps/s
97.5% CPU use with 2 MPI tasks x no OpenMP threads

MPI task timing breakdown:
Section |  min time  |  avg time  |  max time  |%varavg| %total
---------------------------------------------------------------
Pair    | 365.1      | 365.12     | 365.14     |   0.1 | 53.46
Neigh   | 269.85     | 271.01     | 272.17     |   7.1 | 39.68
Comm    | 34.889     | 36.063     | 37.238     |  19.6 |  5.28
Output  | 0.035175   | 0.035189   | 0.035203   |   0.0 |  0.01
Modify  | 8.7351     | 8.7384     | 8.7416     |   0.1 |  1.28
Other   |            | 1.98       |            |       |  0.29

Nlocal:    9826 ave 9833 max 9819 min
Histogram: 1 0 0 0 0 0 0 0 0 1
Nghost:    11181.5 ave 11183 max 11180 min
Histogram: 1 0 0 0 0 0 0 0 0 1
Neighs:    529176 ave 529519 max 528833 min
Histogram: 1 0 0 0 0 0 0 0 0 1

Total # of neighbors = 1058352
Ave neighs/atom = 53.8547
Neighbor list builds = 9505
Dangerous builds not checked
Setting up Verlet run ...
  Unit style    : metal
  Current step  : 280000
  Time step     : 0.001
Per MPI rank memory allocation (min/avg/max) = 11.28 | 11.28 | 11.28 Mbytes
Step Temp Press TotEng PotEng Enthalpy 
  280000    1245.2935   -1198.4213   -114974.23   -118137.39   -115325.51 
  280495    1216.9385    973.86368   -115172.59   -118263.72   -114888.15 
Loop time of 33.5369 on 2 procs for 495 steps with 19652 atoms

Performance: 1.275 ns/day, 18.820 hours/ns, 14.760 timesteps/s
99.9% CPU use with 2 MPI tasks x no OpenMP threads

MPI task timing breakdown:
Section |  min time  |  avg time  |  max time  |%varavg| %total
---------------------------------------------------------------
Pair    | 17.832     | 17.892     | 17.952     |   1.4 | 53.35
Neigh   | 13.756     | 13.816     | 13.876     |   1.6 | 41.20
Comm    | 1.2183     | 1.3377     | 1.4571     |  10.3 |  3.99
Output  | 8.3923e-05 | 0.0001049  | 0.00012589 |   0.0 |  0.00
Modify  | 0.39089    | 0.39168    | 0.39247    |   0.1 |  1.17
Other   |            | 0.09953    |            |       |  0.30

Nlocal:    9826 ave 9832 max 9820 min
Histogram: 1 0 0 0 0 0 0 0 0 1
Nghost:    11196 ave 11207 max 11185 min
Histogram: 1 0 0 0 0 0 0 0 0 1
Neighs:    531317 ave 532326 max 530308 min
Histogram: 1 0 0 0 0 0 0 0 0 1

Total # of neighbors = 1062634
Ave neighs/atom = 54.0726
Neighbor list builds = 495
Dangerous builds not checked
Setting up Verlet run ...
  Unit style    : metal
  Current step  : 280495
  Time step     : 0.001
Per MPI rank memory allocation (min/avg/max) = 11.28 | 11.28 | 11.28 Mbytes
Step Temp Press TotEng PotEng Enthalpy 
  280495    1216.9385    973.86368   -115172.59   -118263.72   -114888.15 
  290000    1202.3068    1000.7186   -115266.87   -118320.84    -114974.6 
Loop time of 666.586 on 2 procs for 9505 steps with 19652 atoms

Performance: 1.232 ns/day, 19.481 hours/ns, 14.259 timesteps/s
98.1% CPU use with 2 MPI tasks x no OpenMP threads

MPI task timing breakdown:
Section |  min time  |  avg time  |  max time  |%varavg| %total
---------------------------------------------------------------
Pair    | 355.46     | 355.99     | 356.52     |   2.8 | 53.40
Neigh   | 262        | 265.95     | 269.91     |  24.2 | 39.90
Comm    | 30.204     | 34.49      | 38.775     |  73.0 |  5.17
Output  | 0.032393   | 0.032426   | 0.032459   |   0.0 |  0.00
Modify  | 7.9659     | 8.1893     | 8.4126     |   7.8 |  1.23
Other   |            | 1.93       |            |       |  0.29

Nlocal:    9826 ave 9840 max 9812 min
Histogram: 1 0 0 0 0 0 0 0 0 1
Nghost:    11140 ave 11142 max 11138 min
Histogram: 1 0 0 0 0 0 0 0 0 1
Neighs:    531492 ave 532380 max 530604 min
Histogram: 1 0 0 0 0 0 0 0 0 1

Total # of neighbors = 1062984
Ave neighs/atom = 54.0904
Neighbor list builds = 9505
Dangerous builds not checked
Setting up Verlet run ...
  Unit style    : metal
  Current step  : 290000
  Time step     : 0.001
Per MPI rank memory allocation (min/avg/max) = 11.28 | 11.28 | 11.28 Mbytes
Step Temp Press TotEng PotEng Enthalpy 
  290000    1202.3068    1000.7186   -115266.87   -118320.84    -114974.6 
  290495    1174.8151   -1248.6927   -115490.59   -118474.72   -115855.84 
Loop time of 29.388 on 2 procs for 495 steps with 19652 atoms

Performance: 1.455 ns/day, 16.492 hours/ns, 16.844 timesteps/s
99.9% CPU use with 2 MPI tasks x no OpenMP threads

MPI task timing breakdown:
Section |  min time  |  avg time  |  max time  |%varavg| %total
---------------------------------------------------------------
Pair    | 15.236     | 15.25      | 15.265     |   0.4 | 51.89
Neigh   | 12.137     | 12.313     | 12.49      |   5.0 | 41.90
Comm    | 1.2183     | 1.3843     | 1.5504     |  14.1 |  4.71
Output  | 9.6083e-05 | 0.00012314 | 0.0001502  |   0.0 |  0.00
Modify  | 0.34753    | 0.35026    | 0.35299    |   0.5 |  1.19
Other   |            | 0.08944    |            |       |  0.30

Nlocal:    9826 ave 9830 max 9822 min
Histogram: 1 0 0 0 0 0 0 0 0 1
Nghost:    11135.5 ave 11155 max 11116 min
Histogram: 1 0 0 0 0 0 0 0 0 1
Neighs:    530482 ave 530740 max 530225 min
Histogram: 1 0 0 0 0 0 0 0 0 1

Total # of neighbors = 1060965
Ave neighs/atom = 53.9876
Neighbor list builds = 495
Dangerous builds not checked
Setting up Verlet run ...
  Unit style    : metal
  Current step  : 290495
  Time step     : 0.001
Per MPI rank memory allocation (min/avg/max) = 11.28 | 11.28 | 11.28 Mbytes
Step Temp Press TotEng PotEng Enthalpy 
  290495    1174.8151   -1248.6927   -115490.59   -118474.72   -115855.84 
  300000    1164.9257    698.50667   -115691.06   -118650.08    -115487.4 
Loop time of 673.988 on 2 procs for 9505 steps with 19652 atoms

Performance: 1.218 ns/day, 19.697 hours/ns, 14.103 timesteps/s
97.0% CPU use with 2 MPI tasks x no OpenMP threads

MPI task timing breakdown:
Section |  min time  |  avg time  |  max time  |%varavg| %total
---------------------------------------------------------------
Pair    | 360.5      | 361.41     | 362.31     |   4.7 | 53.62
Neigh   | 265.49     | 266.92     | 268.35     |   8.7 | 39.60
Comm    | 33.36      | 35.733     | 38.107     |  39.7 |  5.30
Output  | 0.035122   | 0.035154   | 0.035187   |   0.0 |  0.01
Modify  | 7.8917     | 7.9226     | 7.9535     |   1.1 |  1.18
Other   |            | 1.968      |            |       |  0.29

Nlocal:    9826 ave 9829 max 9823 min
Histogram: 1 0 0 0 0 0 0 0 0 1
Nghost:    11213 ave 11229 max 11197 min
Histogram: 1 0 0 0 0 0 0 0 0 1
Neighs:    533460 ave 534191 max 532728 min
Histogram: 1 0 0 0 0 0 0 0 0 1

Total # of neighbors = 1066919
Ave neighs/atom = 54.2906
Neighbor list builds = 9505
Dangerous builds not checked
Setting up Verlet run ...
  Unit style    : metal
  Current step  : 300000
  Time step     : 0.001
Per MPI rank memory allocation (min/avg/max) = 11.28 | 11.28 | 11.28 Mbytes
Step Temp Press TotEng PotEng Enthalpy 
[...]
Histogram: 1 0 0 0 0 0 0 0 0 1
Neighs:    547523 ave 547909 max 547137 min
Histogram: 1 0 0 0 0 0 0 0 0 1

Total # of neighbors = 1095046
Ave neighs/atom = 55.7219
Neighbor list builds = 9505
Dangerous builds not checked
Setting up Verlet run ...
  Unit style    : metal
  Current step  : 440000
  Time step     : 0.001
Per MPI rank memory allocation (min/avg/max) = 11.28 | 11.28 | 11.28 Mbytes
Step Temp Press TotEng PotEng Enthalpy 
  440000    444.66093   -569.12254   -120077.52   -121206.99    -120240.7 
  440495     425.6631    762.03199   -120218.74   -121299.96   -120000.72 
Loop time of 34.6625 on 2 procs for 495 steps with 19652 atoms

Performance: 1.234 ns/day, 19.451 hours/ns, 14.281 timesteps/s
98.7% CPU use with 2 MPI tasks x no OpenMP threads

MPI task timing breakdown:
Section |  min time  |  avg time  |  max time  |%varavg| %total
---------------------------------------------------------------
Pair    | 18.623     | 18.671     | 18.719     |   1.1 | 53.86
Neigh   | 14.228     | 14.359     | 14.489     |   3.4 | 41.42
Comm    | 0.94048    | 1.1204     | 1.3003     |  17.0 |  3.23
Output  | 6.7949e-05 | 0.00011396 | 0.00015998 |   0.0 |  0.00
Modify  | 0.40662    | 0.4076     | 0.40858    |   0.2 |  1.18
Other   |            | 0.105      |            |       |  0.30

Nlocal:    9826 ave 9841 max 9811 min
Histogram: 1 0 0 0 0 0 0 0 0 1
Nghost:    11253 ave 11278 max 11228 min
Histogram: 1 0 0 0 0 0 0 0 0 1
Neighs:    549042 ave 550061 max 548023 min
Histogram: 1 0 0 0 0 0 0 0 0 1

Total # of neighbors = 1098084
Ave neighs/atom = 55.8765
Neighbor list builds = 495
Dangerous builds not checked
Setting up Verlet run ...
  Unit style    : metal
  Current step  : 440495
  Time step     : 0.001
Per MPI rank memory allocation (min/avg/max) = 11.28 | 11.28 | 11.28 Mbytes
Step Temp Press TotEng PotEng Enthalpy 
  440495     425.6631    762.03199   -120218.74   -121299.96   -120000.72 
  450000    401.70597   -31.867298   -120332.19   -121352.56   -120341.31 
Loop time of 660.582 on 2 procs for 9505 steps with 19652 atoms

Performance: 1.243 ns/day, 19.305 hours/ns, 14.389 timesteps/s
99.1% CPU use with 2 MPI tasks x no OpenMP threads

MPI task timing breakdown:
Section |  min time  |  avg time  |  max time  |%varavg| %total
---------------------------------------------------------------
Pair    | 356.77     | 357.93     | 359.08     |   6.1 | 54.18
Neigh   | 274.15     | 275.25     | 276.35     |   6.6 | 41.67
Comm    | 15.188     | 17.469     | 19.75      |  54.6 |  2.64
Output  | 0.035071   | 0.035141   | 0.035211   |   0.0 |  0.01
Modify  | 7.8403     | 7.8701     | 7.9        |   1.1 |  1.19
Other   |            | 2.032      |            |       |  0.31

Nlocal:    9826 ave 9836 max 9816 min
Histogram: 1 0 0 0 0 0 0 0 0 1
Nghost:    11253 ave 11272 max 11234 min
Histogram: 1 0 0 0 0 0 0 0 0 1
Neighs:    548784 ave 549706 max 547863 min
Histogram: 1 0 0 0 0 0 0 0 0 1

Total # of neighbors = 1097569
Ave neighs/atom = 55.8502
Neighbor list builds = 9505
Dangerous builds not checked
Setting up Verlet run ...
  Unit style    : metal
  Current step  : 450000
  Time step     : 0.001
Per MPI rank memory allocation (min/avg/max) = 11.28 | 11.28 | 11.28 Mbytes
Step Temp Press TotEng PotEng Enthalpy 
  450000    401.70597   -31.867298   -120332.19   -121352.56   -120341.31 
  450495    373.38056    307.44312   -120483.38   -121431.81   -120395.46 
Loop time of 34.2531 on 2 procs for 495 steps with 19652 atoms

Performance: 1.249 ns/day, 19.222 hours/ns, 14.451 timesteps/s
99.7% CPU use with 2 MPI tasks x no OpenMP threads

MPI task timing breakdown:
Section |  min time  |  avg time  |  max time  |%varavg| %total
---------------------------------------------------------------
Pair    | 18.449     | 18.47      | 18.491     |   0.5 | 53.92
Neigh   | 14.169     | 14.25      | 14.331     |   2.1 | 41.60
Comm    | 0.94442    | 1.0123     | 1.0802     |   6.7 |  2.96
Output  | 7.7963e-05 | 0.00012004 | 0.00016212 |   0.0 |  0.00
Modify  | 0.40729    | 0.41072    | 0.41414    |   0.5 |  1.20
Other   |            | 0.1099     |            |       |  0.32

Nlocal:    9826 ave 9840 max 9812 min
Histogram: 1 0 0 0 0 0 0 0 0 1
Nghost:    11271.5 ave 11279 max 11264 min
Histogram: 1 0 0 0 0 0 0 0 0 1
Neighs:    549256 ave 550705 max 547807 min
Histogram: 1 0 0 0 0 0 0 0 0 1

Total # of neighbors = 1098512
Ave neighs/atom = 55.8982
Neighbor list builds = 495
Dangerous builds not checked
Setting up Verlet run ...
  Unit style    : metal
  Current step  : 450495
  Time step     : 0.001
Per MPI rank memory allocation (min/avg/max) = 11.28 | 11.28 | 11.28 Mbytes
Step Temp Press TotEng PotEng Enthalpy 
  450495    373.38056    307.44312   -120483.38   -121431.81   -120395.46 
  460000    349.50969    125.15611   -120592.38   -121480.17    -120556.6 
Loop time of 668.203 on 2 procs for 9505 steps with 19652 atoms

Performance: 1.229 ns/day, 19.528 hours/ns, 14.225 timesteps/s
98.5% CPU use with 2 MPI tasks x no OpenMP threads

MPI task timing breakdown:
Section |  min time  |  avg time  |  max time  |%varavg| %total
---------------------------------------------------------------
Pair    | 358.81     | 359.51     | 360.21     |   3.7 | 53.80
Neigh   | 273.67     | 275.17     | 276.66     |   9.0 | 41.18
Comm    | 20.705     | 22.953     | 25.2       |  46.9 |  3.43
Output  | 0.036623   | 0.036713   | 0.036802   |   0.0 |  0.01
Modify  | 8.4583     | 8.5051     | 8.5519     |   1.6 |  1.27
Other   |            | 2.032      |            |       |  0.30

Nlocal:    9826 ave 9829 max 9823 min
Histogram: 1 0 0 0 0 0 0 0 0 1
Nghost:    11259.5 ave 11268 max 11251 min
Histogram: 1 0 0 0 0 0 0 0 0 1
Neighs:    549511 ave 549728 max 549294 min
Histogram: 1 0 0 0 0 0 0 0 0 1

Total # of neighbors = 1099022
Ave neighs/atom = 55.9242
Neighbor list builds = 9505
Dangerous builds not checked
Setting up Verlet run ...
  Unit style    : metal
  Current step  : 460000
  Time step     : 0.001
Per MPI rank memory allocation (min/avg/max) = 11.28 | 11.28 | 11.28 Mbytes
Step Temp Press TotEng PotEng Enthalpy 
  460000    349.50969    125.15611   -120592.38   -121480.17    -120556.6 
  460495    323.02088    202.08717   -120745.48   -121565.99   -120687.74 
Loop time of 34.1969 on 2 procs for 495 steps with 19652 atoms

Performance: 1.251 ns/day, 19.190 hours/ns, 14.475 timesteps/s
99.5% CPU use with 2 MPI tasks x no OpenMP threads

MPI task timing breakdown:
Section |  min time  |  avg time  |  max time  |%varavg| %total
---------------------------------------------------------------
Pair    | 18.426     | 18.432     | 18.437     |   0.1 | 53.90
Neigh   | 14.017     | 14.129     | 14.24      |   3.0 | 41.32
Comm    | 0.99482    | 1.1186     | 1.2424     |  11.7 |  3.27
Output  | 7.8917e-05 | 0.00010335 | 0.00012779 |   0.0 |  0.00
Modify  | 0.40669    | 0.41265    | 0.41861    |   0.9 |  1.21
Other   |            | 0.1051     |            |       |  0.31

Nlocal:    9826 ave 9834 max 9818 min
Histogram: 1 0 0 0 0 0 0 0 0 1
Nghost:    11258 ave 11265 max 11251 min
Histogram: 1 0 0 0 0 0 0 0 0 1
Neighs:    550137 ave 550613 max 549661 min
Histogram: 1 0 0 0 0 0 0 0 0 1

Total # of neighbors = 1100274
Ave neighs/atom = 55.9879
Neighbor list builds = 495
Dangerous builds not checked
Setting up Verlet run ...
  Unit style    : metal
  Current step  : 460495
  Time step     : 0.001
Per MPI rank memory allocation (min/avg/max) = 11.28 | 11.28 | 11.28 Mbytes
Step Temp Press TotEng PotEng Enthalpy 
  460495    323.02088    202.08717   -120745.48   -121565.99   -120687.74 
  470000    299.94659    283.86398   -120861.23   -121623.12   -120780.16 
Loop time of 660.459 on 2 procs for 9505 steps with 19652 atoms

Performance: 1.243 ns/day, 19.302 hours/ns, 14.392 timesteps/s
99.0% CPU use with 2 MPI tasks x no OpenMP threads

MPI task timing breakdown:
Section |  min time  |  avg time  |  max time  |%varavg| %total
---------------------------------------------------------------
Pair    | 355.67     | 357.25     | 358.83     |   8.4 | 54.09
Neigh   | 273.13     | 273.91     | 274.69     |   4.7 | 41.47
Comm    | 16.977     | 19.354     | 21.73      |  54.0 |  2.93
Output  | 0.035428   | 0.035504   | 0.035579   |   0.0 |  0.01
Modify  | 7.8554     | 7.8771     | 7.8988     |   0.8 |  1.19
Other   |            | 2.029      |            |       |  0.31

Nlocal:    9826 ave 9832 max 9820 min
Histogram: 1 0 0 0 0 0 0 0 0 1
Nghost:    11256 ave 11269 max 11243 min
Histogram: 1 0 0 0 0 0 0 0 0 1
Neighs:    550416 ave 550833 max 550000 min
Histogram: 1 0 0 0 0 0 0 0 0 1

Total # of neighbors = 1100833
Ave neighs/atom = 56.0163
Neighbor list builds = 9505
Dangerous builds not checked
Setting up Verlet run ...
  Unit style    : metal
  Current step  : 470000
  Time step     : 0.001
Per MPI rank memory allocation (min/avg/max) = 11.28 | 11.28 | 11.28 Mbytes
Step Temp Press TotEng PotEng Enthalpy 
  470000    299.94659    283.86398   -120861.23   -121623.12   -120780.16 
  470495    273.78193    77.848735   -121001.67    -121697.1   -120979.44 
Loop time of 33.7089 on 2 procs for 495 steps with 19652 atoms

Performance: 1.269 ns/day, 18.916 hours/ns, 14.685 timesteps/s
99.9% CPU use with 2 MPI tasks x no OpenMP threads

MPI task timing breakdown:
Section |  min time  |  avg time  |  max time  |%varavg| %total
---------------------------------------------------------------
Pair    | 18.168     | 18.204     | 18.24      |   0.8 | 54.00
Neigh   | 14.072     | 14.138     | 14.203     |   1.7 | 41.94
Comm    | 0.74996    | 0.85129    | 0.95262    |  11.0 |  2.53
Output  | 8.2016e-05 | 0.00012302 | 0.00016403 |   0.0 |  0.00
Modify  | 0.41054    | 0.41059    | 0.41064    |   0.0 |  1.22
Other   |            | 0.1054     |            |       |  0.31

Nlocal:    9826 ave 9835 max 9817 min
Histogram: 1 0 0 0 0 0 0 0 0 1
Nghost:    11246.5 ave 11262 max 11231 min
Histogram: 1 0 0 0 0 0 0 0 0 1
Neighs:    550833 ave 551716 max 549950 min
Histogram: 1 0 0 0 0 0 0 0 0 1

Total # of neighbors = 1101666
Ave neighs/atom = 56.0587
Neighbor list builds = 495
Dangerous builds not checked
Setting up Verlet run ...
  Unit style    : metal
  Current step  : 470495
  Time step     : 0.001
Per MPI rank memory allocation (min/avg/max) = 11.28 | 11.28 | 11.28 Mbytes
Step Temp Press TotEng PotEng Enthalpy 
  470495    273.78193    77.848735   -121001.67    -121697.1   -120979.44 
  480000    250.65094    163.63319    -121123.1   -121759.77    -121076.4 
Loop time of 660.302 on 2 procs for 9505 steps with 19652 atoms

Performance: 1.244 ns/day, 19.297 hours/ns, 14.395 timesteps/s
99.1% CPU use with 2 MPI tasks x no OpenMP threads

MPI task timing breakdown:
Section |  min time  |  avg time  |  max time  |%varavg| %total
---------------------------------------------------------------
Pair    | 353.49     | 355.73     | 357.98     |  11.9 | 53.87
Neigh   | 272.79     | 273.19     | 273.59     |   2.4 | 41.37
Comm    | 19.164     | 20.981     | 22.798     |  39.7 |  3.18
Output  | 0.038633   | 0.038706   | 0.03878    |   0.0 |  0.01
Modify  | 8.2984     | 8.3115     | 8.3246     |   0.5 |  1.26
Other   |            | 2.043      |            |       |  0.31

Nlocal:    9826 ave 9834 max 9818 min
Histogram: 1 0 0 0 0 0 0 0 0 1
Nghost:    11276.5 ave 11291 max 11262 min
Histogram: 1 0 0 0 0 0 0 0 0 1
Neighs:    551248 ave 551667 max 550828 min
Histogram: 1 0 0 0 0 0 0 0 0 1

Total # of neighbors = 1102495
Ave neighs/atom = 56.1009
Neighbor list builds = 9505
Dangerous builds not checked
Setting up Verlet run ...
  Unit style    : metal
  Current step  : 480000
  Time step     : 0.001
Per MPI rank memory allocation (min/avg/max) = 11.28 | 11.28 | 11.28 Mbytes
Step Temp Press TotEng PotEng Enthalpy 
  480000    250.65094    163.63319    -121123.1   -121759.77    -121076.4 
  480495    225.66862   -88.397806   -121257.44   -121830.66   -121282.66 
Loop time of 34.2377 on 2 procs for 495 steps with 19652 atoms

Performance: 1.249 ns/day, 19.213 hours/ns, 14.458 timesteps/s
98.0% CPU use with 2 MPI tasks x no OpenMP threads

MPI task timing breakdown:
Section |  min time  |  avg time  |  max time  |%varavg| %total
---------------------------------------------------------------
Pair    | 18.488     | 18.628     | 18.767     |   3.2 | 54.41
Neigh   | 14.117     | 14.161     | 14.204     |   1.2 | 41.36
Comm    | 0.82752    | 0.92269    | 1.0179     |   9.9 |  2.69
Output  | 8.1062e-05 | 0.00015152 | 0.00022197 |   0.0 |  0.00
Modify  | 0.42081    | 0.42247    | 0.42414    |   0.3 |  1.23
Other   |            | 0.1039     |            |       |  0.30

Nlocal:    9826 ave 9833 max 9819 min
Histogram: 1 0 0 0 0 0 0 0 0 1
Nghost:    11271 ave 11274 max 11268 min
Histogram: 1 0 0 0 0 0 0 0 0 1
Neighs:    551500 ave 552105 max 550894 min
Histogram: 1 0 0 0 0 0 0 0 0 1

Total # of neighbors = 1102999
Ave neighs/atom = 56.1266
Neighbor list builds = 495
Dangerous builds not checked
Setting up Verlet run ...
  Unit style    : metal
  Current step  : 480495
  Time step     : 0.001
Per MPI rank memory allocation (min/avg/max) = 11.28 | 11.28 | 11.28 Mbytes
Step Temp Press TotEng PotEng Enthalpy 
  480495    225.66862   -88.397806   -121257.44   -121830.66   -121282.66 
  490000    199.09513    457.20355   -121383.53   -121889.25   -121253.22 
Loop time of 661.493 on 2 procs for 9505 steps with 19652 atoms

Performance: 1.241 ns/day, 19.332 hours/ns, 14.369 timesteps/s
98.4% CPU use with 2 MPI tasks x no OpenMP threads

MPI task timing breakdown:
Section |  min time  |  avg time  |  max time  |%varavg| %total
---------------------------------------------------------------
Pair    | 356.78     | 359.05     | 361.33     |  12.0 | 54.28
Neigh   | 272.89     | 272.96     | 273.02     |   0.4 | 41.26
Comm    | 17.325     | 19.542     | 21.759     |  50.1 |  2.95
Output  | 0.035387   | 0.035413   | 0.035438   |   0.0 |  0.01
Modify  | 7.8699     | 7.8722     | 7.8745     |   0.1 |  1.19
Other   |            | 2.033      |            |       |  0.31

Nlocal:    9826 ave 9830 max 9822 min
Histogram: 1 0 0 0 0 0 0 0 0 1
Nghost:    11295.5 ave 11302 max 11289 min
Histogram: 1 0 0 0 0 0 0 0 0 1
Neighs:    552208 ave 552319 max 552097 min
Histogram: 1 0 0 0 0 0 0 0 0 1

Total # of neighbors = 1104416
Ave neighs/atom = 56.1987
Neighbor list builds = 9505
Dangerous builds not checked
Setting up Verlet run ...
  Unit style    : metal
  Current step  : 490000
  Time step     : 0.001
Per MPI rank memory allocation (min/avg/max) = 11.28 | 11.28 | 11.28 Mbytes
Step Temp Press TotEng PotEng Enthalpy 
  490000    199.09513    457.20355   -121383.53   -121889.25   -121253.22 
  490495    175.97509    131.56064   -121512.19   -121959.18   -121474.69 
Loop time of 34.3084 on 2 procs for 495 steps with 19652 atoms

Performance: 1.247 ns/day, 19.253 hours/ns, 14.428 timesteps/s
98.7% CPU use with 2 MPI tasks x no OpenMP threads

MPI task timing breakdown:
Section |  min time  |  avg time  |  max time  |%varavg| %total
---------------------------------------------------------------
Pair    | 18.63      | 18.63      | 18.63      |   0.0 | 54.30
Neigh   | 14.24      | 14.342     | 14.445     |   2.7 | 41.80
Comm    | 0.70944    | 0.81557    | 0.9217     |  11.8 |  2.38
Output  | 7.7009e-05 | 0.00011456 | 0.00015211 |   0.0 |  0.00
Modify  | 0.41136    | 0.4145     | 0.41764    |   0.5 |  1.21
Other   |            | 0.1061     |            |       |  0.31

Nlocal:    9826 ave 9828 max 9824 min
Histogram: 1 0 0 0 0 0 0 0 0 1
Nghost:    11272 ave 11276 max 11268 min
Histogram: 1 0 0 0 0 0 0 0 0 1
Neighs:    552286 ave 552395 max 552176 min
Histogram: 1 0 0 0 0 0 0 0 0 1

Total # of neighbors = 1104571
Ave neighs/atom = 56.2065
Neighbor list builds = 495
Dangerous builds not checked
Setting up Verlet run ...
  Unit style    : metal
  Current step  : 490495
  Time step     : 0.001
Per MPI rank memory allocation (min/avg/max) = 11.28 | 11.28 | 11.28 Mbytes
Step Temp Press TotEng PotEng Enthalpy 
  490495    175.97509    131.56064   -121512.19   -121959.18   -121474.69 
  500000    148.67192     445.3723   -121649.36      -122027   -121522.54 
Loop time of 655.966 on 2 procs for 9505 steps with 19652 atoms

Performance: 1.252 ns/day, 19.170 hours/ns, 14.490 timesteps/s
98.7% CPU use with 2 MPI tasks x no OpenMP threads

MPI task timing breakdown:
Section |  min time  |  avg time  |  max time  |%varavg| %total
---------------------------------------------------------------
Pair    | 351.33     | 356.05     | 360.78     |  25.0 | 54.28
Neigh   | 270.1      | 271.24     | 272.37     |   6.9 | 41.35
Comm    | 15.251     | 18.796     | 22.341     |  81.8 |  2.87
Output  | 0.034689   | 0.034708   | 0.034727   |   0.0 |  0.01
Modify  | 7.7921     | 7.8257     | 7.8593     |   1.2 |  1.19
Other   |            | 2.017      |            |       |  0.31

Nlocal:    9826 ave 9832 max 9820 min
Histogram: 1 0 0 0 0 0 0 0 0 1
Nghost:    11277 ave 11292 max 11262 min
Histogram: 1 0 0 0 0 0 0 0 0 1
Neighs:    552840 ave 553290 max 552389 min
Histogram: 1 0 0 0 0 0 0 0 0 1

Total # of neighbors = 1105679
Ave neighs/atom = 56.2629
Neighbor list builds = 9505
Dangerous builds not checked
Setting up Verlet run ...
  Unit style    : metal
  Current step  : 500000
  Time step     : 0.001
Per MPI rank memory allocation (min/avg/max) = 11.28 | 11.28 | 11.28 Mbytes
Step Temp Press TotEng PotEng Enthalpy 
  500000    148.67192     445.3723   -121649.36      -122027   -121522.54 
  500495    126.57492   -321.22639   -121763.01   -122084.52   -121854.53 
Loop time of 33.4324 on 2 procs for 495 steps with 19652 atoms

Performance: 1.279 ns/day, 18.761 hours/ns, 14.806 timesteps/s
98.6% CPU use with 2 MPI tasks x no OpenMP threads

MPI task timing breakdown:
Section |  min time  |  avg time  |  max time  |%varavg| %total
---------------------------------------------------------------
Pair    | 17.789     | 17.932     | 18.075     |   3.4 | 53.64
Neigh   | 13.842     | 13.949     | 14.056     |   2.9 | 41.72
Comm    | 1.0152     | 1.0467     | 1.0782     |   3.1 |  3.13
Output  | 8.4162e-05 | 0.00015819 | 0.00023222 |   0.0 |  0.00
Modify  | 0.39761    | 0.40096    | 0.40432    |   0.5 |  1.20
Other   |            | 0.1032     |            |       |  0.31

Nlocal:    9826 ave 9827 max 9825 min
Histogram: 1 0 0 0 0 0 0 0 0 1
Nghost:    11288 ave 11299 max 11277 min
Histogram: 1 0 0 0 0 0 0 0 0 1
Neighs:    552454 ave 552486 max 552421 min
Histogram: 1 0 0 0 0 0 0 0 0 1

Total # of neighbors = 1104907
Ave neighs/atom = 56.2236
Neighbor list builds = 495
Dangerous builds not checked
Setting up Verlet run ...
  Unit style    : metal
  Current step  : 500495
  Time step     : 0.001
Per MPI rank memory allocation (min/avg/max) = 11.28 | 11.28 | 11.28 Mbytes
Step Temp Press TotEng PotEng Enthalpy 
  500495    126.57492   -321.22639   -121763.01   -122084.52   -121854.53 
  510000    100.08935   -392.27609   -121898.96   -122153.19   -122010.66 
Loop time of 640.042 on 2 procs for 9505 steps with 19652 atoms

Performance: 1.283 ns/day, 18.705 hours/ns, 14.851 timesteps/s
98.6% CPU use with 2 MPI tasks x no OpenMP threads

MPI task timing breakdown:
Section |  min time  |  avg time  |  max time  |%varavg| %total
---------------------------------------------------------------
Pair    | 342.59     | 343.6      | 344.61     |   5.4 | 53.68
Neigh   | 267.38     | 268.51     | 269.64     |   6.9 | 41.95
Comm    | 15.986     | 18.155     | 20.324     |  50.9 |  2.84
Output  | 0.049514   | 0.049536   | 0.049559   |   0.0 |  0.01
Modify  | 7.7286     | 7.752      | 7.7755     |   0.8 |  1.21
Other   |            | 1.973      |            |       |  0.31

Nlocal:    9826 ave 9826 max 9826 min
Histogram: 2 0 0 0 0 0 0 0 0 0
Nghost:    11284 ave 11288 max 11280 min
Histogram: 1 0 0 0 0 0 0 0 0 1
Neighs:    552912 ave 552954 max 552871 min
Histogram: 1 0 0 0 0 0 0 0 0 1

Total # of neighbors = 1105825
Ave neighs/atom = 56.2704
Neighbor list builds = 9505
Dangerous builds not checked
Total wall time: 10:39:40
