LAMMPS (12 Dec 2018)
Lattice spacing in x,y,z = 4 4 4
Created orthogonal box = (0 0 0) to (68 68 68)
  1 by 1 by 1 MPI processor grid
Created 19652 atoms
  Time spent = 0.00392795 secs
Setting atom values ...
  19652 settings made for type/fraction
Neighbor list info ...
  update every 1 steps, delay 0 steps, check no
  max neighbors/atom: 2000, page size: 100000
  master list distance cutoff = 8.5
  ghost atom cutoff = 8.5
  binsize = 4.25, bins = 16 16 16
  1 neighbor lists, perpetual/occasional/extra = 1 0 0
  (1) pair eam/alloy, perpetual
      attributes: half, newton on
      pair build: half/bin/atomonly/newton
      stencil: half/bin/3d/newton
      bin: standard
Setting up Verlet run ...
  Unit style    : metal
  Current step  : 0
  Time step     : 0.001
Per MPI rank memory allocation (min/avg/max) = 18.19 | 18.19 | 18.19 Mbytes
Step Temp Press TotEng PotEng Enthalpy Volume 
       0          300    646743.88   -38638.853    -39400.88    88286.597       314432 
     667    896.50298    638490.91   -38639.057   -40916.256    86666.722       314432 
    1000     917.7009    640018.42    -38639.07   -40970.114    86966.487       314432 
Loop time of 170.561 on 1 procs for 1000 steps with 19652 atoms

Performance: 0.507 ns/day, 47.378 hours/ns, 5.863 timesteps/s
96.8% CPU use with 1 MPI tasks x no OpenMP threads

MPI task timing breakdown:
Section |  min time  |  avg time  |  max time  |%varavg| %total
---------------------------------------------------------------
Pair    | 95.51      | 95.51      | 95.51      |   0.0 | 56.00
Neigh   | 72.887     | 72.887     | 72.887     |   0.0 | 42.73
Comm    | 1.2604     | 1.2604     | 1.2604     |   0.0 |  0.74
Output  | 0.049582   | 0.049582   | 0.049582   |   0.0 |  0.03
Modify  | 0.44343    | 0.44343    | 0.44343    |   0.0 |  0.26
Other   |            | 0.4115     |            |       |  0.24

Nlocal:    19652 ave 19652 max 19652 min
Histogram: 1 0 0 0 0 0 0 0 0 0
Nghost:    18783 ave 18783 max 18783 min
Histogram: 1 0 0 0 0 0 0 0 0 0
Neighs:    1.5831e+06 ave 1.5831e+06 max 1.5831e+06 min
Histogram: 1 0 0 0 0 0 0 0 0 0

Total # of neighbors = 1583101
Ave neighs/atom = 80.5567
Neighbor list builds = 1000
Dangerous builds not checked
Setting up Verlet run ...
  Unit style    : metal
  Current step  : 1000
  Time step     : 0.001
Per MPI rank memory allocation (min/avg/max) = 18.19 | 18.19 | 18.19 Mbytes
Step Temp Press TotEng PotEng Enthalpy Volume 
    1000     917.7009    640018.42    -38639.07   -40970.114    86966.487       314432 
    1334    665.06148    105659.89   -74897.002   -76586.318   -40951.299    514736.52 
    2000    350.33998   -123.67043   -81679.275   -82569.171   -81729.505    650728.79 
Loop time of 101.702 on 1 procs for 1000 steps with 19652 atoms

Performance: 0.850 ns/day, 28.250 hours/ns, 9.833 timesteps/s
98.2% CPU use with 1 MPI tasks x no OpenMP threads

MPI task timing breakdown:
Section |  min time  |  avg time  |  max time  |%varavg| %total
---------------------------------------------------------------
Pair    | 51.651     | 51.651     | 51.651     |   0.0 | 50.79
Neigh   | 47.459     | 47.459     | 47.459     |   0.0 | 46.66
Comm    | 0.91843    | 0.91843    | 0.91843    |   0.0 |  0.90
Output  | 0.068148   | 0.068148   | 0.068148   |   0.0 |  0.07
Modify  | 1.2677     | 1.2677     | 1.2677     |   0.0 |  1.25
Other   |            | 0.3375     |            |       |  0.33

Nlocal:    19652 ave 19652 max 19652 min
Histogram: 1 0 0 0 0 0 0 0 0 0
Nghost:    14017 ave 14017 max 14017 min
Histogram: 1 0 0 0 0 0 0 0 0 0
Neighs:    720399 ave 720399 max 720399 min
Histogram: 1 0 0 0 0 0 0 0 0 0

Total # of neighbors = 720399
Ave neighs/atom = 36.6578
Neighbor list builds = 1000
Dangerous builds not checked
Setting up Verlet run ...
  Unit style    : metal
  Current step  : 2000
  Time step     : 0.001
Per MPI rank memory allocation (min/avg/max) = 18.2 | 18.2 | 18.2 Mbytes
Step Temp Press TotEng PotEng Enthalpy Volume 
    2000    350.33998   -123.67043   -81679.275   -82569.171   -81729.505    650728.79 
    2001    350.89864   -123.18435    -81679.29   -82570.605   -81729.322    650728.69 
    2668    437.76824   -31.373954   -81579.718   -82691.689   -81592.475    651470.54 
    3335    597.69012    616.64528   -80819.996   -82338.184    -80568.46    653545.25 
    4002    799.47816    13.187617   -79810.167   -81840.915   -79804.747    658507.21 
    4669     988.8225    -615.2126   -78763.678   -81275.378   -79018.648    664008.87 
    5336    1186.3538   -277.47467   -77709.252   -80722.699   -77824.873    667608.32 
    6003    1361.2849    273.19679   -76591.888   -80049.676   -76477.415    671334.62 
    6670    1540.3278     1002.743   -75420.131   -79332.704   -74997.608    675104.54 
    7337    1718.6848    448.36302   -74169.269   -78534.885   -73978.393    682071.78 
    8004     1902.738    633.44331   -72940.811   -77773.939   -72668.935    687658.74 
    8671    2085.6759    865.08174   -71740.668   -77038.475    -71366.46    693053.14 
    9338    2279.0208    1001.3053   -70667.325   -76456.245   -70231.279       697711 
   10000    2439.1218    196.56818   -69557.504   -75753.096   -69470.915    705769.05 
Loop time of 726.933 on 1 procs for 8000 steps with 19652 atoms

Performance: 0.951 ns/day, 25.241 hours/ns, 11.005 timesteps/s
98.4% CPU use with 1 MPI tasks x no OpenMP threads

MPI task timing breakdown:
Section |  min time  |  avg time  |  max time  |%varavg| %total
---------------------------------------------------------------
Pair    | 353.77     | 353.77     | 353.77     |   0.0 | 48.67
Neigh   | 349.72     | 349.72     | 349.72     |   0.0 | 48.11
Comm    | 7.9259     | 7.9259     | 7.9259     |   0.0 |  1.09
Output  | 1.4444     | 1.4444     | 1.4444     |   0.0 |  0.20
Modify  | 11.075     | 11.075     | 11.075     |   0.0 |  1.52
Other   |            | 2.995      |            |       |  0.41

Nlocal:    19652 ave 19652 max 19652 min
Histogram: 1 0 0 0 0 0 0 0 0 0
Nghost:    13560 ave 13560 max 13560 min
Histogram: 1 0 0 0 0 0 0 0 0 0
Neighs:    683816 ave 683816 max 683816 min
Histogram: 1 0 0 0 0 0 0 0 0 0

Total # of neighbors = 683816
Ave neighs/atom = 34.7963
Neighbor list builds = 8000
Dangerous builds not checked
Setting up Verlet run ...
  Unit style    : metal
  Current step  : 10000
  Time step     : 0.001
Per MPI rank memory allocation (min/avg/max) = 18.2 | 18.2 | 18.2 Mbytes
Step Temp Press TotEng PotEng Enthalpy Volume 
   10000    2439.1218    196.56818   -69557.504   -75753.096   -69470.915    705769.05 
   10005    2437.6508    172.98342   -69557.431   -75749.286   -69481.231    705769.58 
   10672    2433.1269    -176.7273   -69438.932   -75619.296   -69516.912    706946.17 
   11339    2460.5667    179.85407   -69438.962   -75689.025   -69359.646    706557.32 
   12006    2459.9112    656.05007   -69411.709   -75660.108   -69122.957     705178.6 
   12673    2458.5572    1048.0333   -69350.239   -75595.199   -68889.629    704156.11 
   13340    2474.7736    721.00978   -69370.052   -75656.203    -69052.59       705442 
   14007    2441.7032    408.17523   -69404.507   -75606.656    -69224.68    705859.01 
   14674    2444.4801    56.653348   -69428.888    -75638.09   -69403.914     706267.7 
   15341    2466.9185   -152.13783   -69404.074   -75670.271     -69471.2    706916.35 
   16008    2451.3068    427.93683   -69393.912   -75620.454   -69205.323    706068.17 
   16675    2456.3561    56.844371   -69350.999   -75590.368   -69325.925    706730.15 
   17342    2478.4515   -495.45282   -69378.203   -75673.696   -69597.143    707999.69 
   18009    2431.2194   -775.32358   -69479.093   -75654.611    -69822.05    708707.59 
   18676    2465.1106    -711.1314   -69367.271   -75628.876   -69682.017     709122.3 
   19343    2444.2506   -686.67965   -69376.252   -75584.871   -69679.959    708617.67 
   20010    2446.0976   -857.62759   -69417.509   -75630.819   -69796.726     708434.6 
   20677    2444.7059   -679.59864   -69381.151   -75590.926   -69681.548    708196.12 
   21344    2438.3077   -388.42536   -69438.964   -75632.488   -69610.653    708180.13 
   22011    2459.7847   -907.84197    -69423.82   -75671.897   -69825.253    708456.96 
   22678    2459.4137   -520.80823   -69409.212   -75656.347   -69639.268    707729.58 
   23345    2461.2772   -341.07005   -69351.547   -75603.415   -69502.227    707818.25 
   24012    2461.7635   -783.79301   -69370.914   -75624.018   -69717.729     708935.6 
   24679    2444.9062   -618.45066   -69417.924   -75628.208    -69691.41    708500.57 
   25346    2442.0376    -400.1822   -69430.381   -75633.379   -69607.219     707990.1 
   26013    2453.8383   -215.40111   -69401.067    -75634.04   -69496.136    707133.59 
   26680     2434.717    231.47359   -69458.977    -75643.38   -69357.018    705722.28 
   27347    2450.4342    278.03843   -69435.204   -75659.531   -69312.711    705860.55 
   28014    2448.5015   -17.202715    -69463.07   -75682.487   -69470.654     706416.4 
   28681    2436.2556   -78.391408   -69469.578   -75657.889   -69504.159    706767.74 
   29348    2448.9862   -733.70566   -69420.967   -75641.615   -69745.134    707875.75 
   30015    2451.0607    -594.2754   -69295.583     -75521.5   -69558.381    708507.38 
   30682    2453.8368   -373.57405   -69413.615   -75646.584   -69578.532    707293.68 
   31349     2446.571   -209.26636   -69462.521   -75677.034   -69554.834    706757.98 
   32016    2436.6386   -32.776676   -69440.287   -75629.571   -69454.743     706678.6 
   32683    2444.0848    -210.5223   -69428.191    -75636.39   -69521.098    707062.15 
   33350    2469.9885   -297.58937   -69370.867   -75644.863   -69502.304    707637.76 
   34017    2443.8422   -638.66675   -69411.979   -75619.561   -69694.294    708220.83 
   34684    2466.8519   -373.13513   -69413.951    -75679.98   -69578.672    707280.15 
   35351    2446.8849   -58.500733   -69462.925   -75678.235   -69488.733    706805.36 
   36018    2458.3127    344.47857   -69446.848   -75691.186   -69295.163    705491.78 
   36685    2444.8206   -68.459542   -69391.947   -75602.014    -69422.14    706618.23 
   37352    2449.8311   -547.21411   -69433.389   -75656.183   -69675.088    707666.15 
   38019    2434.1087   -500.43952   -69505.022    -75687.88   -69725.942    707282.99 
   38686      2459.66   -101.29398   -69371.251   -75619.011   -69415.944    706923.28 
   39353    2417.6577    165.60475   -69536.145   -75677.216   -69463.167     706042.1 
   40000    2444.2046    803.94034   -69483.264   -75691.767   -69129.839    704342.41 
Loop time of 2648.43 on 1 procs for 30000 steps with 19652 atoms

Performance: 0.979 ns/day, 24.522 hours/ns, 11.327 timesteps/s
98.9% CPU use with 1 MPI tasks x no OpenMP threads

MPI task timing breakdown:
Section |  min time  |  avg time  |  max time  |%varavg| %total
---------------------------------------------------------------
Pair    | 1262.2     | 1262.2     | 1262.2     |   0.0 | 47.66
Neigh   | 1303       | 1303       | 1303       |   0.0 | 49.20
Comm    | 28.508     | 28.508     | 28.508     |   0.0 |  1.08
Output  | 3.2277     | 3.2277     | 3.2277     |   0.0 |  0.12
Modify  | 40.606     | 40.606     | 40.606     |   0.0 |  1.53
Other   |            | 10.93      |            |       |  0.41

Nlocal:    19652 ave 19652 max 19652 min
Histogram: 1 0 0 0 0 0 0 0 0 0
Nghost:    13596 ave 13596 max 13596 min
Histogram: 1 0 0 0 0 0 0 0 0 0
Neighs:    685632 ave 685632 max 685632 min
Histogram: 1 0 0 0 0 0 0 0 0 0

Total # of neighbors = 685632
Ave neighs/atom = 34.8887
Neighbor list builds = 30000
Dangerous builds not checked
Setting up Verlet run ...
  Unit style    : metal
  Current step  : 40000
  Time step     : 0.001
Per MPI rank memory allocation (min/avg/max) = 18.2 | 18.2 | 18.2 Mbytes
Step Temp Press TotEng PotEng Enthalpy Volume 
   40000    2444.2046    803.94034   -69483.264   -75691.767   -69129.839    704342.41 
   40020    2442.7709    729.69257   -69482.683   -75687.543   -69161.882    704377.56 
   40495    2386.6269   -114.88185   -69698.961   -75761.211   -69749.559    705649.84 
Loop time of 43.5415 on 1 procs for 495 steps with 19652 atoms

Performance: 0.982 ns/day, 24.434 hours/ns, 11.368 timesteps/s
99.8% CPU use with 1 MPI tasks x no OpenMP threads

MPI task timing breakdown:
Section |  min time  |  avg time  |  max time  |%varavg| %total
---------------------------------------------------------------
Pair    | 20.701     | 20.701     | 20.701     |   0.0 | 47.54
Neigh   | 21.412     | 21.412     | 21.412     |   0.0 | 49.18
Comm    | 0.47592    | 0.47592    | 0.47592    |   0.0 |  1.09
Output  | 0.075099   | 0.075099   | 0.075099   |   0.0 |  0.17
Modify  | 0.69183    | 0.69183    | 0.69183    |   0.0 |  1.59
Other   |            | 0.1864     |            |       |  0.43

Nlocal:    19652 ave 19652 max 19652 min
Histogram: 1 0 0 0 0 0 0 0 0 0
Nghost:    13600 ave 13600 max 13600 min
Histogram: 1 0 0 0 0 0 0 0 0 0
Neighs:    683838 ave 683838 max 683838 min
Histogram: 1 0 0 0 0 0 0 0 0 0

Total # of neighbors = 683838
Ave neighs/atom = 34.7974
Neighbor list builds = 495
Dangerous builds not checked
Setting up Verlet run ...
  Unit style    : metal
  Current step  : 40495
  Time step     : 0.001
Per MPI rank memory allocation (min/avg/max) = 18.2 | 18.2 | 18.2 Mbytes
Step Temp Press TotEng PotEng Enthalpy Volume 
   40495    2386.6269   -114.88185   -69698.961   -75761.211   -69749.559    705649.84 
   40667    2420.6302    47.272702   -69625.335   -75773.956   -69604.516    705623.58 
Loop time of 13.481 on 1 procs for 172 steps with 19652 atoms

Performance: 1.102 ns/day, 21.772 hours/ns, 12.759 timesteps/s
100.0% CPU use with 1 MPI tasks x no OpenMP threads

MPI task timing breakdown:
Section |  min time  |  avg time  |  max time  |%varavg| %total
---------------------------------------------------------------
Pair    | 6.3227     | 6.3227     | 6.3227     |   0.0 | 46.90
Neigh   | 6.7386     | 6.7386     | 6.7386     |   0.0 | 49.99
Comm    | 0.14398    | 0.14398    | 0.14398    |   0.0 |  1.07
Output  | 0.00017405 | 0.00017405 | 0.00017405 |   0.0 |  0.00
Modify  | 0.21741    | 0.21741    | 0.21741    |   0.0 |  1.61
Other   |            | 0.05815    |            |       |  0.43

Nlocal:    19652 ave 19652 max 19652 min
Histogram: 1 0 0 0 0 0 0 0 0 0
Nghost:    13546 ave 13546 max 13546 min
Histogram: 1 0 0 0 0 0 0 0 0 0
Neighs:    683691 ave 683691 max 683691 min
Histogram: 1 0 0 0 0 0 0 0 0 0

Total # of neighbors = 683691
Ave neighs/atom = 34.7899
Neighbor list builds = 172
Dangerous builds not checked
Setting up Verlet run ...
  Unit style    : metal
  Current step  : 40667
  Time step     : 0.001
Per MPI rank memory allocation (min/avg/max) = 18.2 | 18.2 | 18.2 Mbytes
Step Temp Press TotEng PotEng Enthalpy Volume 
   40667    2420.6302    47.272702   -69625.335   -75773.956   -69604.516    705623.58 
   40687    2415.4314   -52.417982   -69627.446   -75762.862   -69650.531     705624.1 
   41162    2360.5092   -16.732088   -69894.478   -75890.387   -69901.836    704513.29 
Loop time of 43.3359 on 1 procs for 495 steps with 19652 atoms

Performance: 0.987 ns/day, 24.319 hours/ns, 11.422 timesteps/s
99.9% CPU use with 1 MPI tasks x no OpenMP threads

MPI task timing breakdown:
Section |  min time  |  avg time  |  max time  |%varavg| %total
---------------------------------------------------------------
Pair    | 20.665     | 20.665     | 20.665     |   0.0 | 47.69
Neigh   | 21.228     | 21.228     | 21.228     |   0.0 | 48.99
Comm    | 0.49184    | 0.49184    | 0.49184    |   0.0 |  1.13
Output  | 0.063649   | 0.063649   | 0.063649   |   0.0 |  0.15
Modify  | 0.69476    | 0.69476    | 0.69476    |   0.0 |  1.60
Other   |            | 0.1919     |            |       |  0.44

Nlocal:    19652 ave 19652 max 19652 min
Histogram: 1 0 0 0 0 0 0 0 0 0
Nghost:    13591 ave 13591 max 13591 min
Histogram: 1 0 0 0 0 0 0 0 0 0
Neighs:    684935 ave 684935 max 684935 min
Histogram: 1 0 0 0 0 0 0 0 0 0

Total # of neighbors = 684935
Ave neighs/atom = 34.8532
Neighbor list builds = 495
Dangerous builds not checked
Setting up Verlet run ...
  Unit style    : metal
  Current step  : 41162
  Time step     : 0.001
Per MPI rank memory allocation (min/avg/max) = 18.2 | 18.2 | 18.2 Mbytes
Step Temp Press TotEng PotEng Enthalpy Volume 
   41162    2360.5092   -16.732088   -69894.478   -75890.387   -69901.836    704513.29 
   41334     2346.644   -85.013969   -69973.063   -75933.752   -70010.423    704101.19 
Loop time of 17.5019 on 1 procs for 172 steps with 19652 atoms

Performance: 0.849 ns/day, 28.265 hours/ns, 9.827 timesteps/s
86.0% CPU use with 1 MPI tasks x no OpenMP threads

MPI task timing breakdown:
Section |  min time  |  avg time  |  max time  |%varavg| %total
---------------------------------------------------------------
Pair    | 8.3569     | 8.3569     | 8.3569     |   0.0 | 47.75
Neigh   | 8.6006     | 8.6006     | 8.6006     |   0.0 | 49.14
Comm    | 0.18318    | 0.18318    | 0.18318    |   0.0 |  1.05
Output  | 0.00016785 | 0.00016785 | 0.00016785 |   0.0 |  0.00
Modify  | 0.29507    | 0.29507    | 0.29507    |   0.0 |  1.69
Other   |            | 0.066      |            |       |  0.38

Nlocal:    19652 ave 19652 max 19652 min
Histogram: 1 0 0 0 0 0 0 0 0 0
Nghost:    13575 ave 13575 max 13575 min
Histogram: 1 0 0 0 0 0 0 0 0 0
Neighs:    684746 ave 684746 max 684746 min
Histogram: 1 0 0 0 0 0 0 0 0 0

Total # of neighbors = 684746
Ave neighs/atom = 34.8436
Neighbor list builds = 172
Dangerous builds not checked
Setting up Verlet run ...
  Unit style    : metal
  Current step  : 41334
  Time step     : 0.001
Per MPI rank memory allocation (min/avg/max) = 18.2 | 18.2 | 18.2 Mbytes
Step Temp Press TotEng PotEng Enthalpy Volume 
   41334     2346.644   -85.013969   -69973.063   -75933.752   -70010.423    704101.19 
   41354    2351.0034     22.75948   -69973.022   -75944.785    -69963.02    704098.93 
   41829    2308.4185    457.35098   -70231.158   -76094.751   -70030.834    701766.97 
Loop time of 46.7068 on 1 procs for 495 steps with 19652 atoms

Performance: 0.916 ns/day, 26.210 hours/ns, 10.598 timesteps/s
97.0% CPU use with 1 MPI tasks x no OpenMP threads

MPI task timing breakdown:
Section |  min time  |  avg time  |  max time  |%varavg| %total
---------------------------------------------------------------
Pair    | 22.568     | 22.568     | 22.568     |   0.0 | 48.32
Neigh   | 22.628     | 22.628     | 22.628     |   0.0 | 48.45
Comm    | 0.52394    | 0.52394    | 0.52394    |   0.0 |  1.12
Output  | 0.088735   | 0.088735   | 0.088735   |   0.0 |  0.19
Modify  | 0.69971    | 0.69971    | 0.69971    |   0.0 |  1.50
Other   |            | 0.199      |            |       |  0.43

Nlocal:    19652 ave 19652 max 19652 min
Histogram: 1 0 0 0 0 0 0 0 0 0
Nghost:    13587 ave 13587 max 13587 min
Histogram: 1 0 0 0 0 0 0 0 0 0
Neighs:    686945 ave 686945 max 686945 min
Histogram: 1 0 0 0 0 0 0 0 0 0

Total # of neighbors = 686945
Ave neighs/atom = 34.9555
Neighbor list builds = 495
Dangerous builds not checked
Setting up Verlet run ...
  Unit style    : metal
  Current step  : 41829
  Time step     : 0.001
Per MPI rank memory allocation (min/avg/max) = 18.2 | 18.2 | 18.2 Mbytes
Step Temp Press TotEng PotEng Enthalpy Volume 
   41829    2308.4185    457.35098   -70231.158   -76094.751   -70030.834    701766.97 
   42001    2297.3495   -312.25092   -70288.729   -76124.206   -70425.743    703024.65 
Loop time of 14.5061 on 1 procs for 172 steps with 19652 atoms

Performance: 1.024 ns/day, 23.427 hours/ns, 11.857 timesteps/s
100.0% CPU use with 1 MPI tasks x no OpenMP threads

MPI task timing breakdown:
Section |  min time  |  avg time  |  max time  |%varavg| %total
---------------------------------------------------------------
Pair    | 6.9479     | 6.9479     | 6.9479     |   0.0 | 47.90
Neigh   | 7.0909     | 7.0909     | 7.0909     |   0.0 | 48.88
Comm    | 0.16762    | 0.16762    | 0.16762    |   0.0 |  1.16
Output  | 0.00020981 | 0.00020981 | 0.00020981 |   0.0 |  0.00
Modify  | 0.23402    | 0.23402    | 0.23402    |   0.0 |  1.61
Other   |            | 0.06541    |            |       |  0.45

Nlocal:    19652 ave 19652 max 19652 min
Histogram: 1 0 0 0 0 0 0 0 0 0
Nghost:    13626 ave 13626 max 13626 min
Histogram: 1 0 0 0 0 0 0 0 0 0
Neighs:    685552 ave 685552 max 685552 min
Histogram: 1 0 0 0 0 0 0 0 0 0

Total # of neighbors = 685552
Ave neighs/atom = 34.8846
Neighbor list builds = 172
Dangerous builds not checked
Setting up Verlet run ...
  Unit style    : metal
  Current step  : 42001
  Time step     : 0.001
Per MPI rank memory allocation (min/avg/max) = 18.2 | 18.2 | 18.2 Mbytes
Step Temp Press TotEng PotEng Enthalpy Volume 
   42001    2297.3495   -312.25092   -70288.729   -76124.206   -70425.743    703024.65 
   42021    2315.5591   -362.75345   -70289.185   -76170.916   -70448.356    703008.77 
   42496    2262.4185   -67.656406   -70501.539   -76248.288   -70531.155    701348.93 
Loop time of 43.8675 on 1 procs for 495 steps with 19652 atoms

Performance: 0.975 ns/day, 24.617 hours/ns, 11.284 timesteps/s
99.5% CPU use with 1 MPI tasks x no OpenMP threads

MPI task timing breakdown:
Section |  min time  |  avg time  |  max time  |%varavg| %total
---------------------------------------------------------------
Pair    | 21.09      | 21.09      | 21.09      |   0.0 | 48.08
Neigh   | 21.323     | 21.323     | 21.323     |   0.0 | 48.61
Comm    | 0.48413    | 0.48413    | 0.48413    |   0.0 |  1.10
Output  | 0.075518   | 0.075518   | 0.075518   |   0.0 |  0.17
Modify  | 0.70608    | 0.70608    | 0.70608    |   0.0 |  1.61
Other   |            | 0.1881     |            |       |  0.43

Nlocal:    19652 ave 19652 max 19652 min
Histogram: 1 0 0 0 0 0 0 0 0 0
Nghost:    13562 ave 13562 max 13562 min
Histogram: 1 0 0 0 0 0 0 0 0 0
Neighs:    687076 ave 687076 max 687076 min
Histogram: 1 0 0 0 0 0 0 0 0 0

Total # of neighbors = 687076
Ave neighs/atom = 34.9621
Neighbor list builds = 495
Dangerous builds not checked
Setting up Verlet run ...
  Unit style    : metal
  Current step  : 42496
  Time step     : 0.001
Per MPI rank memory allocation (min/avg/max) = 18.2 | 18.2 | 18.2 Mbytes
Step Temp Press TotEng PotEng Enthalpy Volume 
   42496    2262.4185   -67.656406   -70501.539   -76248.288   -70531.155    701348.93 
   42668    2243.2966    25.985035   -70585.885   -76284.063   -70574.512    701250.02 
Loop time of 13.7541 on 1 procs for 172 steps with 19652 atoms

Performance: 1.080 ns/day, 22.213 hours/ns, 12.505 timesteps/s
100.0% CPU use with 1 MPI tasks x no OpenMP threads

MPI task timing breakdown:
Section |  min time  |  avg time  |  max time  |%varavg| %total
---------------------------------------------------------------
Pair    | 6.5281     | 6.5281     | 6.5281     |   0.0 | 47.46
Neigh   | 6.7954     | 6.7954     | 6.7954     |   0.0 | 49.41
Comm    | 0.15665    | 0.15665    | 0.15665    |   0.0 |  1.14
Output  | 0.00016689 | 0.00016689 | 0.00016689 |   0.0 |  0.00
Modify  | 0.21384    | 0.21384    | 0.21384    |   0.0 |  1.55
Other   |            | 0.05996    |            |       |  0.44

Nlocal:    19652 ave 19652 max 19652 min
Histogram: 1 0 0 0 0 0 0 0 0 0
Nghost:    13522 ave 13522 max 13522 min
Histogram: 1 0 0 0 0 0 0 0 0 0
Neighs:    687004 ave 687004 max 687004 min
Histogram: 1 0 0 0 0 0 0 0 0 0

Total # of neighbors = 687004
Ave neighs/atom = 34.9585
Neighbor list builds = 172
Dangerous builds not checked
Setting up Verlet run ...
  Unit style    : metal
  Current step  : 42668
  Time step     : 0.001
Per MPI rank memory allocation (min/avg/max) = 18.2 | 18.2 | 18.2 Mbytes
Step Temp Press TotEng PotEng Enthalpy Volume 
   42668    2243.2966    25.985035   -70585.885   -76284.063   -70574.512    701250.02 
   42688    2247.5184   -30.435566   -70585.409   -76294.311    -70598.73    701250.33 
   43163    2207.0271    63.875004   -70825.266   -76431.316   -70797.392    699168.36 
Loop time of 41.7067 on 1 procs for 495 steps with 19652 atoms

Performance: 1.025 ns/day, 23.404 hours/ns, 11.869 timesteps/s
99.8% CPU use with 1 MPI tasks x no OpenMP threads

MPI task timing breakdown:
Section |  min time  |  avg time  |  max time  |%varavg| %total
---------------------------------------------------------------
Pair    | 19.865     | 19.865     | 19.865     |   0.0 | 47.63
Neigh   | 20.396     | 20.396     | 20.396     |   0.0 | 48.90
Comm    | 0.46051    | 0.46051    | 0.46051    |   0.0 |  1.10
Output  | 0.12598    | 0.12598    | 0.12598    |   0.0 |  0.30
Modify  | 0.67495    | 0.67495    | 0.67495    |   0.0 |  1.62
Other   |            | 0.1841     |            |       |  0.44

Nlocal:    19652 ave 19652 max 19652 min
Histogram: 1 0 0 0 0 0 0 0 0 0
Nghost:    13489 ave 13489 max 13489 min
Histogram: 1 0 0 0 0 0 0 0 0 0
Neighs:    688766 ave 688766 max 688766 min
Histogram: 1 0 0 0 0 0 0 0 0 0

Total # of neighbors = 688766
Ave neighs/atom = 35.0481
Neighbor list builds = 495
Dangerous builds not checked
Setting up Verlet run ...
  Unit style    : metal
  Current step  : 43163
  Time step     : 0.001
Per MPI rank memory allocation (min/avg/max) = 18.2 | 18.2 | 18.2 Mbytes
Step Temp Press TotEng PotEng Enthalpy Volume 
   43163    2207.0271    63.875004   -70825.266   -76431.316   -70797.392    699168.36 
   43335    2192.4692   -12.134815   -70905.426   -76474.498   -70910.726    699709.79 
Loop time of 14.884 on 1 procs for 172 steps with 19652 atoms

Performance: 0.998 ns/day, 24.037 hours/ns, 11.556 timesteps/s
100.0% CPU use with 1 MPI tasks x no OpenMP threads

MPI task timing breakdown:
Section |  min time  |  avg time  |  max time  |%varavg| %total
---------------------------------------------------------------
Pair    | 7.0941     | 7.0941     | 7.0941     |   0.0 | 47.66
Neigh   | 7.3099     | 7.3099     | 7.3099     |   0.0 | 49.11
Comm    | 0.16781    | 0.16781    | 0.16781    |   0.0 |  1.13
Output  | 0.00014806 | 0.00014806 | 0.00014806 |   0.0 |  0.00
Modify  | 0.24519    | 0.24519    | 0.24519    |   0.0 |  1.65
Other   |            | 0.06692    |            |       |  0.45

Nlocal:    19652 ave 19652 max 19652 min
Histogram: 1 0 0 0 0 0 0 0 0 0
Nghost:    13580 ave 13580 max 13580 min
Histogram: 1 0 0 0 0 0 0 0 0 0
Neighs:    688026 ave 688026 max 688026 min
Histogram: 1 0 0 0 0 0 0 0 0 0

Total # of neighbors = 688026
Ave neighs/atom = 35.0105
Neighbor list builds = 172
Dangerous builds not checked
Setting up Verlet run ...
  Unit style    : metal
  Current step  : 43335
  Time step     : 0.001
Per MPI rank memory allocation (min/avg/max) = 18.2 | 18.2 | 18.2 Mbytes
Step Temp Press TotEng PotEng Enthalpy Volume 
   43335    2192.4692   -12.134815   -70905.426   -76474.498   -70910.726    699709.79 
   43355     2200.891   -25.266309   -70905.013   -76495.477   -70916.048    699709.23 
   43830    2166.7908    414.20783   -71138.989   -76642.835   -70958.794    697001.03 
Loop time of 40.3047 on 1 procs for 495 steps with 19652 atoms

Performance: 1.061 ns/day, 22.618 hours/ns, 12.281 timesteps/s
98.5% CPU use with 1 MPI tasks x no OpenMP threads

MPI task timing breakdown:
Section |  min time  |  avg time  |  max time  |%varavg| %total
---------------------------------------------------------------
Pair    | 19.113     | 19.113     | 19.113     |   0.0 | 47.42
Neigh   | 19.856     | 19.856     | 19.856     |   0.0 | 49.27
Comm    | 0.43987    | 0.43987    | 0.43987    |   0.0 |  1.09
Output  | 0.091418   | 0.091418   | 0.091418   |   0.0 |  0.23
Modify  | 0.63154    | 0.63154    | 0.63154    |   0.0 |  1.57
Other   |            | 0.1729     |            |       |  0.43

Nlocal:    19652 ave 19652 max 19652 min
Histogram: 1 0 0 0 0 0 0 0 0 0
Nghost:    13672 ave 13672 max 13672 min
Histogram: 1 0 0 0 0 0 0 0 0 0
Neighs:    690262 ave 690262 max 690262 min
Histogram: 1 0 0 0 0 0 0 0 0 0

Total # of neighbors = 690262
Ave neighs/atom = 35.1243
Neighbor list builds = 495
Dangerous builds not checked
Setting up Verlet run ...
  Unit style    : metal
  Current step  : 43830
  Time step     : 0.001
Per MPI rank memory allocation (min/avg/max) = 18.2 | 18.2 | 18.2 Mbytes
Step Temp Press TotEng PotEng Enthalpy Volume 
   43830    2166.7908    414.20783   -71138.989   -76642.835   -70958.794    697001.03 
   44002    2134.3642   -208.41921   -71220.188   -76641.667   -71311.041    698413.23 
Loop time of 15.7869 on 1 procs for 172 steps with 19652 atoms

Performance: 0.941 ns/day, 25.496 hours/ns, 10.895 timesteps/s
98.5% CPU use with 1 MPI tasks x no OpenMP threads

MPI task timing breakdown:
Section |  min time  |  avg time  |  max time  |%varavg| %total
---------------------------------------------------------------
Pair    | 7.6695     | 7.6695     | 7.6695     |   0.0 | 48.58
Neigh   | 7.617      | 7.617      | 7.617      |   0.0 | 48.25
Comm    | 0.18823    | 0.18823    | 0.18823    |   0.0 |  1.19
Output  | 0.00020385 | 0.00020385 | 0.00020385 |   0.0 |  0.00
Modify  | 0.24362    | 0.24362    | 0.24362    |   0.0 |  1.54
Other   |            | 0.06837    |            |       |  0.43

Nlocal:    19652 ave 19652 max 19652 min
Histogram: 1 0 0 0 0 0 0 0 0 0
Nghost:    13613 ave 13613 max 13613 min
Histogram: 1 0 0 0 0 0 0 0 0 0
Neighs:    689161 ave 689161 max 689161 min
Histogram: 1 0 0 0 0 0 0 0 0 0

Total # of neighbors = 689161
Ave neighs/atom = 35.0682
Neighbor list builds = 172
Dangerous builds not checked
Setting up Verlet run ...
  Unit style    : metal
  Current step  : 44002
  Time step     : 0.001
Per MPI rank memory allocation (min/avg/max) = 18.2 | 18.2 | 18.2 Mbytes
Step Temp Press TotEng PotEng Enthalpy Volume 
   44002    2134.3642   -208.41921   -71220.188   -76641.667   -71311.041    698413.23 
   44022    2146.7938   -245.62124   -71219.118    -76672.17   -71326.186    698402.44 
   44497    2116.3969   -129.44733   -71454.683   -76830.524    -71510.96    696549.28 
Loop time of 43.7083 on 1 procs for 495 steps with 19652 atoms

Performance: 0.978 ns/day, 24.528 hours/ns, 11.325 timesteps/s
97.8% CPU use with 1 MPI tasks x no OpenMP threads

MPI task timing breakdown:
Section |  min time  |  avg time  |  max time  |%varavg| %total
---------------------------------------------------------------
Pair    | 21.045     | 21.045     | 21.045     |   0.0 | 48.15
Neigh   | 21.236     | 21.236     | 21.236     |   0.0 | 48.59
Comm    | 0.48672    | 0.48672    | 0.48672    |   0.0 |  1.11
Output  | 0.08131    | 0.08131    | 0.08131    |   0.0 |  0.19
Modify  | 0.67903    | 0.67903    | 0.67903    |   0.0 |  1.55
Other   |            | 0.1803     |            |       |  0.41

Nlocal:    19652 ave 19652 max 19652 min
Histogram: 1 0 0 0 0 0 0 0 0 0
Nghost:    13652 ave 13652 max 13652 min
Histogram: 1 0 0 0 0 0 0 0 0 0
Neighs:    690224 ave 690224 max 690224 min
Histogram: 1 0 0 0 0 0 0 0 0 0

Total # of neighbors = 690224
Ave neighs/atom = 35.1223
Neighbor list builds = 495
Dangerous builds not checked
Setting up Verlet run ...
  Unit style    : metal
  Current step  : 44497
  Time step     : 0.001
Per MPI rank memory allocation (min/avg/max) = 18.2 | 18.2 | 18.2 Mbytes
Step Temp Press TotEng PotEng Enthalpy Volume 
   44497    2116.3969   -129.44733   -71454.683   -76830.524    -71510.96    696549.28 
   44669    2096.7453   -69.802409   -71540.805    -76866.73   -71571.139    696257.47 
Loop time of 13.3487 on 1 procs for 172 steps with 19652 atoms

Performance: 1.113 ns/day, 21.558 hours/ns, 12.885 timesteps/s
100.0% CPU use with 1 MPI tasks x no OpenMP threads

MPI task timing breakdown:
Section |  min time  |  avg time  |  max time  |%varavg| %total
---------------------------------------------------------------
Pair    | 6.3489     | 6.3489     | 6.3489     |   0.0 | 47.56
Neigh   | 6.5906     | 6.5906     | 6.5906     |   0.0 | 49.37
Comm    | 0.14766    | 0.14766    | 0.14766    |   0.0 |  1.11
Output  | 0.00016284 | 0.00016284 | 0.00016284 |   0.0 |  0.00
Modify  | 0.20354    | 0.20354    | 0.20354    |   0.0 |  1.52
Other   |            | 0.05786    |            |       |  0.43

Nlocal:    19652 ave 19652 max 19652 min
Histogram: 1 0 0 0 0 0 0 0 0 0
Nghost:    13677 ave 13677 max 13677 min
Histogram: 1 0 0 0 0 0 0 0 0 0
Neighs:    691009 ave 691009 max 691009 min
Histogram: 1 0 0 0 0 0 0 0 0 0

Total # of neighbors = 691009
Ave neighs/atom = 35.1623
Neighbor list builds = 172
Dangerous builds not checked
Setting up Verlet run ...
  Unit style    : metal
  Current step  : 44669
  Time step     : 0.001
Per MPI rank memory allocation (min/avg/max) = 18.2 | 18.2 | 18.2 Mbytes
Step Temp Press TotEng PotEng Enthalpy Volume 
   44669    2096.7453   -69.802409   -71540.805    -76866.73   -71571.139    696257.47 
   44689    2104.1442   -157.94615   -71540.827   -76885.545   -71609.465    696252.37 
   45164    2059.2862    156.54604   -71715.773   -76946.547   -71647.876    694889.92 
Loop time of 43.0087 on 1 procs for 495 steps with 19652 atoms

Performance: 0.994 ns/day, 24.135 hours/ns, 11.509 timesteps/s
99.9% CPU use with 1 MPI tasks x no OpenMP threads

MPI task timing breakdown:
Section |  min time  |  avg time  |  max time  |%varavg| %total
---------------------------------------------------------------
Pair    | 20.786     | 20.786     | 20.786     |   0.0 | 48.33
Neigh   | 20.815     | 20.815     | 20.815     |   0.0 | 48.40
Comm    | 0.47883    | 0.47883    | 0.47883    |   0.0 |  1.11
Output  | 0.080649   | 0.080649   | 0.080649   |   0.0 |  0.19
Modify  | 0.66299    | 0.66299    | 0.66299    |   0.0 |  1.54
Other   |            | 0.1844     |            |       |  0.43

Nlocal:    19652 ave 19652 max 19652 min
Histogram: 1 0 0 0 0 0 0 0 0 0
Nghost:    13716 ave 13716 max 13716 min
Histogram: 1 0 0 0 0 0 0 0 0 0
Neighs:    692230 ave 692230 max 692230 min
Histogram: 1 0 0 0 0 0 0 0 0 0

Total # of neighbors = 692230
Ave neighs/atom = 35.2244
Neighbor list builds = 495
Dangerous builds not checked
Setting up Verlet run ...
  Unit style    : metal
  Current step  : 45164
  Time step     : 0.001
Per MPI rank memory allocation (min/avg/max) = 18.2 | 18.2 | 18.2 Mbytes
Step Temp Press TotEng PotEng Enthalpy Volume 
   45164    2059.2862    156.54604   -71715.773   -76946.547   -71647.876    694889.92 
   45336    2057.6274   -278.57053   -71803.812   -77030.373   -71924.688    695208.52 
Loop time of 15.2664 on 1 procs for 172 steps with 19652 atoms

Performance: 0.973 ns/day, 24.655 hours/ns, 11.267 timesteps/s
99.9% CPU use with 1 MPI tasks x no OpenMP threads

MPI task timing breakdown:
Section |  min time  |  avg time  |  max time  |%varavg| %total
---------------------------------------------------------------
Pair    | 7.4147     | 7.4147     | 7.4147     |   0.0 | 48.57
Neigh   | 7.3652     | 7.3652     | 7.3652     |   0.0 | 48.24
Comm    | 0.17166    | 0.17166    | 0.17166    |   0.0 |  1.12
Output  | 0.00018096 | 0.00018096 | 0.00018096 |   0.0 |  0.00
Modify  | 0.24753    | 0.24753    | 0.24753    |   0.0 |  1.62
Other   |            | 0.06707    |            |       |  0.44

Nlocal:    19652 ave 19652 max 19652 min
Histogram: 1 0 0 0 0 0 0 0 0 0
Nghost:    13637 ave 13637 max 13637 min
Histogram: 1 0 0 0 0 0 0 0 0 0
Neighs:    691495 ave 691495 max 691495 min
Histogram: 1 0 0 0 0 0 0 0 0 0

Total # of neighbors = 691495
Ave neighs/atom = 35.187
Neighbor list builds = 172
Dangerous builds not checked
Setting up Verlet run ...
  Unit style    : metal
  Current step  : 45336
  Time step     : 0.001
Per MPI rank memory allocation (min/avg/max) = 18.2 | 18.2 | 18.2 Mbytes
Step Temp Press TotEng PotEng Enthalpy Volume 
   45336    2057.6274   -278.57053   -71803.812   -77030.373   -71924.688    695208.52 
   45356    2059.3917   -317.57023   -71804.808    -77035.85   -71942.603    695193.41 
   45831    2014.2582   -278.67285   -72050.465   -77166.864   -72171.192    694097.38 
Loop time of 43.3555 on 1 procs for 495 steps with 19652 atoms

Performance: 0.986 ns/day, 24.330 hours/ns, 11.417 timesteps/s
99.2% CPU use with 1 MPI tasks x no OpenMP threads

MPI task timing breakdown:
Section |  min time  |  avg time  |  max time  |%varavg| %total
---------------------------------------------------------------
Pair    | 20.736     | 20.736     | 20.736     |   0.0 | 47.83
Neigh   | 21.184     | 21.184     | 21.184     |   0.0 | 48.86
Comm    | 0.46804    | 0.46804    | 0.46804    |   0.0 |  1.08
Output  | 0.076998   | 0.076998   | 0.076998   |   0.0 |  0.18
Modify  | 0.69783    | 0.69783    | 0.69783    |   0.0 |  1.61
Other   |            | 0.1927     |            |       |  0.44

Nlocal:    19652 ave 19652 max 19652 min
Histogram: 1 0 0 0 0 0 0 0 0 0
Nghost:    13634 ave 13634 max 13634 min
Histogram: 1 0 0 0 0 0 0 0 0 0
Neighs:    692339 ave 692339 max 692339 min
Histogram: 1 0 0 0 0 0 0 0 0 0

Total # of neighbors = 692339
Ave neighs/atom = 35.23
Neighbor list builds = 495
Dangerous builds not checked
Setting up Verlet run ...
  Unit style    : metal
  Current step  : 45831
  Time step     : 0.001
Per MPI rank memory allocation (min/avg/max) = 18.2 | 18.2 | 18.2 Mbytes
Step Temp Press TotEng PotEng Enthalpy Volume 
   45831    2014.2582   -278.67285   -72050.465   -77166.864   -72171.192    694097.38 
   46003    1995.7897   -70.791256   -72127.453   -77196.941   -72158.081    693194.07 
Loop time of 13.3524 on 1 procs for 172 steps with 19652 atoms

Performance: 1.113 ns/day, 21.564 hours/ns, 12.882 timesteps/s
100.0% CPU use with 1 MPI tasks x no OpenMP threads

MPI task timing breakdown:
Section |  min time  |  avg time  |  max time  |%varavg| %total
---------------------------------------------------------------
Pair    | 6.3073     | 6.3073     | 6.3073     |   0.0 | 47.24
Neigh   | 6.6284     | 6.6284     | 6.6284     |   0.0 | 49.64
Comm    | 0.14961    | 0.14961    | 0.14961    |   0.0 |  1.12
Output  | 0.000175   | 0.000175   | 0.000175   |   0.0 |  0.00
Modify  | 0.20841    | 0.20841    | 0.20841    |   0.0 |  1.56
Other   |            | 0.05842    |            |       |  0.44

Nlocal:    19652 ave 19652 max 19652 min
Histogram: 1 0 0 0 0 0 0 0 0 0
Nghost:    13603 ave 13603 max 13603 min
Histogram: 1 0 0 0 0 0 0 0 0 0
Neighs:    692811 ave 692811 max 692811 min
Histogram: 1 0 0 0 0 0 0 0 0 0

Total # of neighbors = 692811
Ave neighs/atom = 35.254
Neighbor list builds = 172
Dangerous builds not checked
Setting up Verlet run ...
  Unit style    : metal
  Current step  : 46003
  Time step     : 0.001
Per MPI rank memory allocation (min/avg/max) = 18.2 | 18.2 | 18.2 Mbytes
Step Temp Press TotEng PotEng Enthalpy Volume 
   46003    1995.7897   -70.791256   -72127.453   -77196.941   -72158.081    693194.07 
   46023    1993.6301   -174.07065   -72127.033   -77191.035   -72202.345    693188.41 
   46498    1960.3023   -45.178434   -72368.528   -77347.874   -72388.047    692212.74 
Loop time of 45.855 on 1 procs for 495 steps with 19652 atoms

Performance: 0.933 ns/day, 25.732 hours/ns, 10.795 timesteps/s
98.7% CPU use with 1 MPI tasks x no OpenMP threads

MPI task timing breakdown:
Section |  min time  |  avg time  |  max time  |%varavg| %total
---------------------------------------------------------------
Pair    | 22.364     | 22.364     | 22.364     |   0.0 | 48.77
Neigh   | 21.985     | 21.985     | 21.985     |   0.0 | 47.94
Comm    | 0.53638    | 0.53638    | 0.53638    |   0.0 |  1.17
Output  | 0.082113   | 0.082113   | 0.082113   |   0.0 |  0.18
Modify  | 0.69769    | 0.69769    | 0.69769    |   0.0 |  1.52
Other   |            | 0.1904     |            |       |  0.42

Nlocal:    19652 ave 19652 max 19652 min
Histogram: 1 0 0 0 0 0 0 0 0 0
Nghost:    13652 ave 13652 max 13652 min
Histogram: 1 0 0 0 0 0 0 0 0 0
Neighs:    693373 ave 693373 max 693373 min
Histogram: 1 0 0 0 0 0 0 0 0 0

Total # of neighbors = 693373
Ave neighs/atom = 35.2826
Neighbor list builds = 495
Dangerous builds not checked
Setting up Verlet run ...
  Unit style    : metal
  Current step  : 46498
  Time step     : 0.001
Per MPI rank memory allocation (min/avg/max) = 18.2 | 18.2 | 18.2 Mbytes
Step Temp Press TotEng PotEng Enthalpy Volume 
   46498    1960.3023   -45.178434   -72368.528   -77347.874   -72388.047    692212.74 
   46670    1949.5649   -49.901204   -72378.249   -77330.321   -72399.804    692061.64 
Loop time of 14.8097 on 1 procs for 172 steps with 19652 atoms

Performance: 1.003 ns/day, 23.918 hours/ns, 11.614 timesteps/s
100.0% CPU use with 1 MPI tasks x no OpenMP threads

MPI task timing breakdown:
Section |  min time  |  avg time  |  max time  |%varavg| %total
---------------------------------------------------------------
Pair    | 7.1856     | 7.1856     | 7.1856     |   0.0 | 48.52
Neigh   | 7.1606     | 7.1606     | 7.1606     |   0.0 | 48.35
Comm    | 0.16847    | 0.16847    | 0.16847    |   0.0 |  1.14
Output  | 0.0001688  | 0.0001688  | 0.0001688  |   0.0 |  0.00
Modify  | 0.22972    | 0.22972    | 0.22972    |   0.0 |  1.55
Other   |            | 0.06514    |            |       |  0.44

Nlocal:    19652 ave 19652 max 19652 min
Histogram: 1 0 0 0 0 0 0 0 0 0
Nghost:    13615 ave 13615 max 13615 min
Histogram: 1 0 0 0 0 0 0 0 0 0
Neighs:    693894 ave 693894 max 693894 min
Histogram: 1 0 0 0 0 0 0 0 0 0

Total # of neighbors = 693894
Ave neighs/atom = 35.3091
Neighbor list builds = 172
Dangerous builds not checked
Setting up Verlet run ...
  Unit style    : metal
  Current step  : 46670
  Time step     : 0.001
Per MPI rank memory allocation (min/avg/max) = 18.2 | 18.2 | 18.2 Mbytes
Step Temp Press TotEng PotEng Enthalpy Volume 
   46670    1949.5649   -49.901204   -72378.249   -77330.321   -72399.804    692061.64 
   46690     1946.464   -9.9963272   -72378.119   -77322.315   -72382.437    692059.54 
   47165    1907.7693    432.69768   -72664.565   -77510.473    -72478.27    689807.74 
Loop time of 42.2582 on 1 procs for 495 steps with 19652 atoms

Performance: 1.012 ns/day, 23.714 hours/ns, 11.714 timesteps/s
99.1% CPU use with 1 MPI tasks x no OpenMP threads

MPI task timing breakdown:
Section |  min time  |  avg time  |  max time  |%varavg| %total
---------------------------------------------------------------
Pair    | 20.242     | 20.242     | 20.242     |   0.0 | 47.90
Neigh   | 20.603     | 20.603     | 20.603     |   0.0 | 48.76
Comm    | 0.46165    | 0.46165    | 0.46165    |   0.0 |  1.09
Output  | 0.080883   | 0.080883   | 0.080883   |   0.0 |  0.19
Modify  | 0.68687    | 0.68687    | 0.68687    |   0.0 |  1.63
Other   |            | 0.1836     |            |       |  0.43

Nlocal:    19652 ave 19652 max 19652 min
Histogram: 1 0 0 0 0 0 0 0 0 0
Nghost:    13697 ave 13697 max 13697 min
Histogram: 1 0 0 0 0 0 0 0 0 0
Neighs:    695005 ave 695005 max 695005 min
Histogram: 1 0 0 0 0 0 0 0 0 0

Total # of neighbors = 695005
Ave neighs/atom = 35.3656
Neighbor list builds = 495
Dangerous builds not checked
Setting up Verlet run ...
  Unit style    : metal
  Current step  : 47165
  Time step     : 0.001
Per MPI rank memory allocation (min/avg/max) = 18.2 | 18.2 | 18.2 Mbytes
Step Temp Press TotEng PotEng Enthalpy Volume 
   47165    1907.7693    432.69768   -72664.565   -77510.473    -72478.27    689807.74 
   47337    1897.6373   -359.13282   -72739.526   -77559.698   -72894.402       690938 
Loop time of 15.2232 on 1 procs for 172 steps with 19652 atoms

Performance: 0.976 ns/day, 24.585 hours/ns, 11.299 timesteps/s
100.0% CPU use with 1 MPI tasks x no OpenMP threads

MPI task timing breakdown:
Section |  min time  |  avg time  |  max time  |%varavg| %total
---------------------------------------------------------------
Pair    | 7.3705     | 7.3705     | 7.3705     |   0.0 | 48.42
Neigh   | 7.3667     | 7.3667     | 7.3667     |   0.0 | 48.39
Comm    | 0.16642    | 0.16642    | 0.16642    |   0.0 |  1.09
Output  | 0.00018001 | 0.00018001 | 0.00018001 |   0.0 |  0.00
Modify  | 0.25168    | 0.25168    | 0.25168    |   0.0 |  1.65
Other   |            | 0.06767    |            |       |  0.44

Nlocal:    19652 ave 19652 max 19652 min
Histogram: 1 0 0 0 0 0 0 0 0 0
Nghost:    13711 ave 13711 max 13711 min
Histogram: 1 0 0 0 0 0 0 0 0 0
Neighs:    694500 ave 694500 max 694500 min
Histogram: 1 0 0 0 0 0 0 0 0 0

Total # of neighbors = 694500
Ave neighs/atom = 35.3399
Neighbor list builds = 172
Dangerous builds not checked
Setting up Verlet run ...
  Unit style    : metal
  Current step  : 47337
  Time step     : 0.001
Per MPI rank memory allocation (min/avg/max) = 18.2 | 18.2 | 18.2 Mbytes
Step Temp Press TotEng PotEng Enthalpy Volume 
   47337    1897.6373   -359.13282   -72739.526   -77559.698   -72894.402       690938 
   47357    1896.1565   -299.41577   -72739.284   -77555.695   -72868.404    690919.31 
   47832     1865.361     35.05946   -72955.751   -77693.938   -72940.672    689076.28 
Loop time of 47.1362 on 1 procs for 495 steps with 19652 atoms

Performance: 0.907 ns/day, 26.451 hours/ns, 10.501 timesteps/s
96.0% CPU use with 1 MPI tasks x no OpenMP threads

MPI task timing breakdown:
Section |  min time  |  avg time  |  max time  |%varavg| %total
---------------------------------------------------------------
Pair    | 22.989     | 22.989     | 22.989     |   0.0 | 48.77
Neigh   | 22.626     | 22.626     | 22.626     |   0.0 | 48.00
Comm    | 0.51431    | 0.51431    | 0.51431    |   0.0 |  1.09
Output  | 0.082658   | 0.082658   | 0.082658   |   0.0 |  0.18
Modify  | 0.72683    | 0.72683    | 0.72683    |   0.0 |  1.54
Other   |            | 0.1972     |            |       |  0.42

Nlocal:    19652 ave 19652 max 19652 min
Histogram: 1 0 0 0 0 0 0 0 0 0
Nghost:    13690 ave 13690 max 13690 min
Histogram: 1 0 0 0 0 0 0 0 0 0
Neighs:    695487 ave 695487 max 695487 min
Histogram: 1 0 0 0 0 0 0 0 0 0

Total # of neighbors = 695487
Ave neighs/atom = 35.3901
Neighbor list builds = 495
Dangerous builds not checked
Setting up Verlet run ...
  Unit style    : metal
  Current step  : 47832
  Time step     : 0.001
Per MPI rank memory allocation (min/avg/max) = 18.2 | 18.2 | 18.2 Mbytes
Step Temp Press TotEng PotEng Enthalpy Volume 
   47832     1865.361     35.05946   -72955.751   -77693.938   -72940.672    689076.28 
   48004    1861.3807   -134.66802   -73046.934   -77775.011   -73104.863    689196.85 
Loop time of 14.1251 on 1 procs for 172 steps with 19652 atoms

Performance: 1.052 ns/day, 22.812 hours/ns, 12.177 timesteps/s
100.0% CPU use with 1 MPI tasks x no OpenMP threads

MPI task timing breakdown:
Section |  min time  |  avg time  |  max time  |%varavg| %total
---------------------------------------------------------------
Pair    | 6.707      | 6.707      | 6.707      |   0.0 | 47.48
Neigh   | 6.9684     | 6.9684     | 6.9684     |   0.0 | 49.33
Comm    | 0.15598    | 0.15598    | 0.15598    |   0.0 |  1.10
Output  | 0.00018287 | 0.00018287 | 0.00018287 |   0.0 |  0.00
Modify  | 0.23055    | 0.23055    | 0.23055    |   0.0 |  1.63
Other   |            | 0.063      |            |       |  0.45

Nlocal:    19652 ave 19652 max 19652 min
Histogram: 1 0 0 0 0 0 0 0 0 0
Nghost:    13658 ave 13658 max 13658 min
Histogram: 1 0 0 0 0 0 0 0 0 0
Neighs:    695304 ave 695304 max 695304 min
Histogram: 1 0 0 0 0 0 0 0 0 0

Total # of neighbors = 695304
Ave neighs/atom = 35.3808
Neighbor list builds = 172
Dangerous builds not checked
Setting up Verlet run ...
  Unit style    : metal
  Current step  : 48004
  Time step     : 0.001
Per MPI rank memory allocation (min/avg/max) = 18.2 | 18.2 | 18.2 Mbytes
Step Temp Press TotEng PotEng Enthalpy Volume 
   48004    1861.3807   -134.66802   -73046.934   -77775.011   -73104.863    689196.85 
   48024    1867.1443   -119.80264   -73048.441   -77791.158   -73099.975    689189.22 
   48499    1827.3285   -115.91226   -73248.328   -77889.909   -73298.108    688074.97 
Loop time of 45.8265 on 1 procs for 495 steps with 19652 atoms

Performance: 0.933 ns/day, 25.716 hours/ns, 10.802 timesteps/s
96.0% CPU use with 1 MPI tasks x no OpenMP threads

MPI task timing breakdown:
Section |  min time  |  avg time  |  max time  |%varavg| %total
---------------------------------------------------------------
Pair    | 22.108     | 22.108     | 22.108     |   0.0 | 48.24
Neigh   | 22.221     | 22.221     | 22.221     |   0.0 | 48.49
Comm    | 0.5004     | 0.5004     | 0.5004     |   0.0 |  1.09
Output  | 0.086831   | 0.086831   | 0.086831   |   0.0 |  0.19
Modify  | 0.71496    | 0.71496    | 0.71496    |   0.0 |  1.56
Other   |            | 0.1952     |            |       |  0.43

Nlocal:    19652 ave 19652 max 19652 min
Histogram: 1 0 0 0 0 0 0 0 0 0
Nghost:    13708 ave 13708 max 13708 min
Histogram: 1 0 0 0 0 0 0 0 0 0
Neighs:    695541 ave 695541 max 695541 min
Histogram: 1 0 0 0 0 0 0 0 0 0

Total # of neighbors = 695541
Ave neighs/atom = 35.3929
Neighbor list builds = 495
Dangerous builds not checked
Setting up Verlet run ...
  Unit style    : metal
  Current step  : 48499
  Time step     : 0.001
Per MPI rank memory allocation (min/avg/max) = 18.2 | 18.2 | 18.2 Mbytes
Step Temp Press TotEng PotEng Enthalpy Volume 
   48499    1827.3285   -115.91226   -73248.328   -77889.909   -73298.108    688074.97 
   48671    1814.8716    7.7804842   -73342.922   -77952.861   -73339.583    687430.81 
Loop time of 14.767 on 1 procs for 172 steps with 19652 atoms

Performance: 1.006 ns/day, 23.848 hours/ns, 11.648 timesteps/s
97.8% CPU use with 1 MPI tasks x no OpenMP threads

MPI task timing breakdown:
Section |  min time  |  avg time  |  max time  |%varavg| %total
---------------------------------------------------------------
Pair    | 7.1105     | 7.1105     | 7.1105     |   0.0 | 48.15
Neigh   | 7.1906     | 7.1906     | 7.1906     |   0.0 | 48.69
Comm    | 0.16421    | 0.16421    | 0.16421    |   0.0 |  1.11
Output  | 0.00017095 | 0.00017095 | 0.00017095 |   0.0 |  0.00
Modify  | 0.23747    | 0.23747    | 0.23747    |   0.0 |  1.61
Other   |            | 0.06394    |            |       |  0.43

Nlocal:    19652 ave 19652 max 19652 min
Histogram: 1 0 0 0 0 0 0 0 0 0
Nghost:    13718 ave 13718 max 13718 min
Histogram: 1 0 0 0 0 0 0 0 0 0
Neighs:    696521 ave 696521 max 696521 min
Histogram: 1 0 0 0 0 0 0 0 0 0

Total # of neighbors = 696521
Ave neighs/atom = 35.4428
Neighbor list builds = 172
Dangerous builds not checked
Setting up Verlet run ...
  Unit style    : metal
  Current step  : 48671
  Time step     : 0.001
Per MPI rank memory allocation (min/avg/max) = 18.2 | 18.2 | 18.2 Mbytes
Step Temp Press TotEng PotEng Enthalpy Volume 
   48671    1814.8716    7.7804842   -73342.922   -77952.861   -73339.583    687430.81 
   48691    1805.9812   -70.545298   -73344.245   -77931.601   -73374.513    687429.71 
   49166    1765.7678   -53.486417   -73584.986   -78070.198   -73607.894    686204.49 
Loop time of 44.4329 on 1 procs for 495 steps with 19652 atoms

Performance: 0.963 ns/day, 24.934 hours/ns, 11.140 timesteps/s
99.9% CPU use with 1 MPI tasks x no OpenMP threads

MPI task timing breakdown:
Section |  min time  |  avg time  |  max time  |%varavg| %total
---------------------------------------------------------------
Pair    | 21.602     | 21.602     | 21.602     |   0.0 | 48.62
Neigh   | 21.346     | 21.346     | 21.346     |   0.0 | 48.04
Comm    | 0.492      | 0.492      | 0.492      |   0.0 |  1.11
Output  | 0.079329   | 0.079329   | 0.079329   |   0.0 |  0.18
Modify  | 0.72035    | 0.72035    | 0.72035    |   0.0 |  1.62
Other   |            | 0.194      |            |       |  0.44

Nlocal:    19652 ave 19652 max 19652 min
Histogram: 1 0 0 0 0 0 0 0 0 0
Nghost:    13673 ave 13673 max 13673 min
Histogram: 1 0 0 0 0 0 0 0 0 0
Neighs:    697328 ave 697328 max 697328 min
Histogram: 1 0 0 0 0 0 0 0 0 0

Total # of neighbors = 697328
Ave neighs/atom = 35.4838
Neighbor list builds = 495
Dangerous builds not checked
Setting up Verlet run ...
  Unit style    : metal
  Current step  : 49166
  Time step     : 0.001
Per MPI rank memory allocation (min/avg/max) = 18.2 | 18.2 | 18.2 Mbytes
Step Temp Press TotEng PotEng Enthalpy Volume 
   49166    1765.7678   -53.486417   -73584.986   -78070.198   -73607.894    686204.49 
   49338    1759.6229   -114.87221   -73670.764   -78140.367   -73719.938    685855.94 
Loop time of 15.1691 on 1 procs for 172 steps with 19652 atoms

Performance: 0.980 ns/day, 24.498 hours/ns, 11.339 timesteps/s
98.3% CPU use with 1 MPI tasks x no OpenMP threads

MPI task timing breakdown:
Section |  min time  |  avg time  |  max time  |%varavg| %total
---------------------------------------------------------------
Pair    | 7.3309     | 7.3309     | 7.3309     |   0.0 | 48.33
Neigh   | 7.3647     | 7.3647     | 7.3647     |   0.0 | 48.55
Comm    | 0.1666     | 0.1666     | 0.1666     |   0.0 |  1.10
Output  | 0.00012302 | 0.00012302 | 0.00012302 |   0.0 |  0.00
Modify  | 0.23725    | 0.23725    | 0.23725    |   0.0 |  1.56
Other   |            | 0.06955    |            |       |  0.46

Nlocal:    19652 ave 19652 max 19652 min
Histogram: 1 0 0 0 0 0 0 0 0 0
Nghost:    13640 ave 13640 max 13640 min
Histogram: 1 0 0 0 0 0 0 0 0 0
Neighs:    697087 ave 697087 max 697087 min
Histogram: 1 0 0 0 0 0 0 0 0 0

Total # of neighbors = 697087
Ave neighs/atom = 35.4716
Neighbor list builds = 172
Dangerous builds not checked
Setting up Verlet run ...
  Unit style    : metal
  Current step  : 49338
  Time step     : 0.001
Per MPI rank memory allocation (min/avg/max) = 18.2 | 18.2 | 18.2 Mbytes
Step Temp Press TotEng PotEng Enthalpy Volume 
   49338    1759.6229   -114.87221   -73670.764   -78140.367   -73719.938    685855.94 
   49358    1762.4412   -194.18327   -73671.993   -78148.755   -73755.118    685847.44 
   49833    1703.9555    23.680571   -73940.075   -78268.277   -73929.959    684452.89 
Loop time of 35.2288 on 1 procs for 495 steps with 19652 atoms

Performance: 1.214 ns/day, 19.769 hours/ns, 14.051 timesteps/s
99.8% CPU use with 1 MPI tasks x no OpenMP threads

MPI task timing breakdown:
Section |  min time  |  avg time  |  max time  |%varavg| %total
---------------------------------------------------------------
Pair    | 16.292     | 16.292     | 16.292     |   0.0 | 46.25
Neigh   | 17.784     | 17.784     | 17.784     |   0.0 | 50.48
Comm    | 0.35903    | 0.35903    | 0.35903    |   0.0 |  1.02
Output  | 0.1099     | 0.1099     | 0.1099     |   0.0 |  0.31
Modify  | 0.54647    | 0.54647    | 0.54647    |   0.0 |  1.55
Other   |            | 0.1378     |            |       |  0.39

Nlocal:    19652 ave 19652 max 19652 min
Histogram: 1 0 0 0 0 0 0 0 0 0
Nghost:    13716 ave 13716 max 13716 min
Histogram: 1 0 0 0 0 0 0 0 0 0
Neighs:    698426 ave 698426 max 698426 min
Histogram: 1 0 0 0 0 0 0 0 0 0

Total # of neighbors = 698426
Ave neighs/atom = 35.5397
Neighbor list builds = 495
Dangerous builds not checked
Setting up Verlet run ...
  Unit style    : metal
  Current step  : 49833
  Time step     : 0.001
Per MPI rank memory allocation (min/avg/max) = 18.2 | 18.2 | 18.2 Mbytes
Step Temp Press TotEng PotEng Enthalpy Volume 
   49833    1703.9555    23.680571   -73940.075   -78268.277   -73929.959    684452.89 
   50005    1697.8985   -102.33455   -74010.674   -78323.491    -74054.39    684428.05 
Loop time of 13.1233 on 1 procs for 172 steps with 19652 atoms

Performance: 1.132 ns/day, 21.194 hours/ns, 13.107 timesteps/s
99.9% CPU use with 1 MPI tasks x no OpenMP threads

MPI task timing breakdown:
Section |  min time  |  avg time  |  max time  |%varavg| %total
---------------------------------------------------------------
Pair    | 6.1806     | 6.1806     | 6.1806     |   0.0 | 47.10
Neigh   | 6.5466     | 6.5466     | 6.5466     |   0.0 | 49.89
Comm    | 0.13806    | 0.13806    | 0.13806    |   0.0 |  1.05
Output  | 0.00011706 | 0.00011706 | 0.00011706 |   0.0 |  0.00
Modify  | 0.2051     | 0.2051     | 0.2051     |   0.0 |  1.56
Other   |            | 0.05274    |            |       |  0.40

Nlocal:    19652 ave 19652 max 19652 min
Histogram: 1 0 0 0 0 0 0 0 0 0
Nghost:    13755 ave 13755 max 13755 min
Histogram: 1 0 0 0 0 0 0 0 0 0
Neighs:    697988 ave 697988 max 697988 min
Histogram: 1 0 0 0 0 0 0 0 0 0

Total # of neighbors = 697988
Ave neighs/atom = 35.5174
Neighbor list builds = 172
Dangerous builds not checked
Setting up Verlet run ...
  Unit style    : metal
  Current step  : 50005
  Time step     : 0.001
Per MPI rank memory allocation (min/avg/max) = 18.2 | 18.2 | 18.2 Mbytes
Step Temp Press TotEng PotEng Enthalpy Volume 
   50005    1697.8985   -102.33455   -74010.674   -78323.491    -74054.39    684428.05 
   50025    1703.0545   -95.754249   -74010.696    -78336.61   -74051.601    684421.59 
   50500    1672.2505   -93.745888   -74232.021    -78479.69   -74272.009    683417.89 
Loop time of 37.6192 on 1 procs for 495 steps with 19652 atoms

Performance: 1.137 ns/day, 21.111 hours/ns, 13.158 timesteps/s
100.0% CPU use with 1 MPI tasks x no OpenMP threads

MPI task timing breakdown:
Section |  min time  |  avg time  |  max time  |%varavg| %total
---------------------------------------------------------------
Pair    | 17.603     | 17.603     | 17.603     |   0.0 | 46.79
Neigh   | 18.846     | 18.846     | 18.846     |   0.0 | 50.10
Comm    | 0.38711    | 0.38711    | 0.38711    |   0.0 |  1.03
Output  | 0.054967   | 0.054967   | 0.054967   |   0.0 |  0.15
Modify  | 0.58072    | 0.58072    | 0.58072    |   0.0 |  1.54
Other   |            | 0.1468     |            |       |  0.39

Nlocal:    19652 ave 19652 max 19652 min
Histogram: 1 0 0 0 0 0 0 0 0 0
Nghost:    13793 ave 13793 max 13793 min
Histogram: 1 0 0 0 0 0 0 0 0 0
Neighs:    698527 ave 698527 max 698527 min
Histogram: 1 0 0 0 0 0 0 0 0 0

Total # of neighbors = 698527
Ave neighs/atom = 35.5448
Neighbor list builds = 495
Dangerous builds not checked
Setting up Verlet run ...
  Unit style    : metal
  Current step  : 50500
  Time step     : 0.001
Per MPI rank memory allocation (min/avg/max) = 18.2 | 18.2 | 18.2 Mbytes
Step Temp Press TotEng PotEng Enthalpy Volume 
   50500    1672.2505   -93.745888   -74232.021    -78479.69   -74272.009    683417.89 
   50672     1658.848   -17.173465   -74317.606   -78531.232   -74324.923    682550.92 
Loop time of 13.563 on 1 procs for 172 steps with 19652 atoms

Performance: 1.096 ns/day, 21.904 hours/ns, 12.682 timesteps/s
98.9% CPU use with 1 MPI tasks x no OpenMP threads

MPI task timing breakdown:
Section |  min time  |  avg time  |  max time  |%varavg| %total
---------------------------------------------------------------
Pair    | 6.3677     | 6.3677     | 6.3677     |   0.0 | 46.95
Neigh   | 6.788      | 6.788      | 6.788      |   0.0 | 50.05
Comm    | 0.13671    | 0.13671    | 0.13671    |   0.0 |  1.01
Output  | 0.00012398 | 0.00012398 | 0.00012398 |   0.0 |  0.00
Modify  | 0.21722    | 0.21722    | 0.21722    |   0.0 |  1.60
Other   |            | 0.05326    |            |       |  0.39

Nlocal:    19652 ave 19652 max 19652 min
Histogram: 1 0 0 0 0 0 0 0 0 0
Nghost:    13745 ave 13745 max 13745 min
Histogram: 1 0 0 0 0 0 0 0 0 0
Neighs:    699273 ave 699273 max 699273 min
Histogram: 1 0 0 0 0 0 0 0 0 0

Total # of neighbors = 699273
Ave neighs/atom = 35.5828
Neighbor list builds = 172
Dangerous builds not checked
Setting up Verlet run ...
  Unit style    : metal
  Current step  : 50672
  Time step     : 0.001
Per MPI rank memory allocation (min/avg/max) = 18.2 | 18.2 | 18.2 Mbytes
Step Temp Press TotEng PotEng Enthalpy Volume 
   50672     1658.848   -17.173465   -74317.606   -78531.232   -74324.923    682550.92 
   50692    1662.9859   -53.090526   -74318.731   -78542.867   -74341.348    682549.13 
   51167    1607.3607   -81.402888   -74576.509   -78659.351   -74611.134    681508.21 
Loop time of 40.4739 on 1 procs for 495 steps with 19652 atoms

Performance: 1.057 ns/day, 22.713 hours/ns, 12.230 timesteps/s
99.8% CPU use with 1 MPI tasks x no OpenMP threads

MPI task timing breakdown:
Section |  min time  |  avg time  |  max time  |%varavg| %total
---------------------------------------------------------------
Pair    | 19.291     | 19.291     | 19.291     |   0.0 | 47.66
Neigh   | 19.884     | 19.884     | 19.884     |   0.0 | 49.13
Comm    | 0.42918    | 0.42918    | 0.42918    |   0.0 |  1.06
Output  | 0.083448   | 0.083448   | 0.083448   |   0.0 |  0.21
Modify  | 0.62442    | 0.62442    | 0.62442    |   0.0 |  1.54
Other   |            | 0.1624     |            |       |  0.40

Nlocal:    19652 ave 19652 max 19652 min
Histogram: 1 0 0 0 0 0 0 0 0 0
Nghost:    13706 ave 13706 max 13706 min
Histogram: 1 0 0 0 0 0 0 0 0 0
Neighs:    699932 ave 699932 max 699932 min
Histogram: 1 0 0 0 0 0 0 0 0 0

Total # of neighbors = 699932
Ave neighs/atom = 35.6163
Neighbor list builds = 495
Dangerous builds not checked
Setting up Verlet run ...
  Unit style    : metal
  Current step  : 51167
  Time step     : 0.001
Per MPI rank memory allocation (min/avg/max) = 18.2 | 18.2 | 18.2 Mbytes
Step Temp Press TotEng PotEng Enthalpy Volume 
   51167    1607.3607   -81.402888   -74576.509   -78659.351   -74611.134    681508.21 
   51339    1611.2425    39.377518   -74650.114   -78742.817   -74633.377    681010.04 
Loop time of 13.0821 on 1 procs for 172 steps with 19652 atoms

Performance: 1.136 ns/day, 21.127 hours/ns, 13.148 timesteps/s
100.0% CPU use with 1 MPI tasks x no OpenMP threads

MPI task timing breakdown:
Section |  min time  |  avg time  |  max time  |%varavg| %total
---------------------------------------------------------------
Pair    | 6.2021     | 6.2021     | 6.2021     |   0.0 | 47.41
Neigh   | 6.496      | 6.496      | 6.496      |   0.0 | 49.66
Comm    | 0.13586    | 0.13586    | 0.13586    |   0.0 |  1.04
Output  | 0.00015092 | 0.00015092 | 0.00015092 |   0.0 |  0.00
Modify  | 0.19631    | 0.19631    | 0.19631    |   0.0 |  1.50
Other   |            | 0.05169    |            |       |  0.40

Nlocal:    19652 ave 19652 max 19652 min
Histogram: 1 0 0 0 0 0 0 0 0 0
Nghost:    13708 ave 13708 max 13708 min
Histogram: 1 0 0 0 0 0 0 0 0 0
Neighs:    700506 ave 700506 max 700506 min
Histogram: 1 0 0 0 0 0 0 0 0 0

Total # of neighbors = 700506
Ave neighs/atom = 35.6455
Neighbor list builds = 172
Dangerous builds not checked
Setting up Verlet run ...
  Unit style    : metal
  Current step  : 51339
  Time step     : 0.001
Per MPI rank memory allocation (min/avg/max) = 18.2 | 18.2 | 18.2 Mbytes
Step Temp Press TotEng PotEng Enthalpy Volume 
   51339    1611.2425    39.377518   -74650.114   -78742.817   -74633.377    681010.04 
   51359    1613.8459    44.351449   -74651.486   -78750.802   -74632.634    681012.61 
   51834    1555.9216    227.59771   -74898.438   -78850.621   -74801.926    679400.44 
Loop time of 37.5949 on 1 procs for 495 steps with 19652 atoms

Performance: 1.138 ns/day, 21.097 hours/ns, 13.167 timesteps/s
99.9% CPU use with 1 MPI tasks x no OpenMP threads

MPI task timing breakdown:
Section |  min time  |  avg time  |  max time  |%varavg| %total
---------------------------------------------------------------
Pair    | 17.643     | 17.643     | 17.643     |   0.0 | 46.93
Neigh   | 18.802     | 18.802     | 18.802     |   0.0 | 50.01
Comm    | 0.38172    | 0.38172    | 0.38172    |   0.0 |  1.02
Output  | 0.053482   | 0.053482   | 0.053482   |   0.0 |  0.14
Modify  | 0.57036    | 0.57036    | 0.57036    |   0.0 |  1.52
Other   |            | 0.1444     |            |       |  0.38

Nlocal:    19652 ave 19652 max 19652 min
Histogram: 1 0 0 0 0 0 0 0 0 0
Nghost:    13718 ave 13718 max 13718 min
Histogram: 1 0 0 0 0 0 0 0 0 0
Neighs:    701153 ave 701153 max 701153 min
Histogram: 1 0 0 0 0 0 0 0 0 0

Total # of neighbors = 701153
Ave neighs/atom = 35.6785
Neighbor list builds = 495
Dangerous builds not checked
Setting up Verlet run ...
  Unit style    : metal
  Current step  : 51834
  Time step     : 0.001
Per MPI rank memory allocation (min/avg/max) = 18.2 | 18.2 | 18.2 Mbytes
Step Temp Press TotEng PotEng Enthalpy Volume 
   51834    1555.9216    227.59771   -74898.438   -78850.621   -74801.926    679400.44 
   52006    1554.5847   -13.630236   -74978.553    -78927.34   -74984.336    679691.76 
Loop time of 13.0167 on 1 procs for 172 steps with 19652 atoms

Performance: 1.142 ns/day, 21.022 hours/ns, 13.214 timesteps/s
97.9% CPU use with 1 MPI tasks x no OpenMP threads

MPI task timing breakdown:
Section |  min time  |  avg time  |  max time  |%varavg| %total
---------------------------------------------------------------
Pair    | 6.1296     | 6.1296     | 6.1296     |   0.0 | 47.09
Neigh   | 6.4849     | 6.4849     | 6.4849     |   0.0 | 49.82
Comm    | 0.1367     | 0.1367     | 0.1367     |   0.0 |  1.05
Output  | 0.00012612 | 0.00012612 | 0.00012612 |   0.0 |  0.00
Modify  | 0.21017    | 0.21017    | 0.21017    |   0.0 |  1.61
Other   |            | 0.05522    |            |       |  0.42

Nlocal:    19652 ave 19652 max 19652 min
Histogram: 1 0 0 0 0 0 0 0 0 0
Nghost:    13658 ave 13658 max 13658 min
Histogram: 1 0 0 0 0 0 0 0 0 0
Neighs:    700620 ave 700620 max 700620 min
Histogram: 1 0 0 0 0 0 0 0 0 0

Total # of neighbors = 700620
Ave neighs/atom = 35.6513
Neighbor list builds = 172
Dangerous builds not checked
Setting up Verlet run ...
  Unit style    : metal
  Current step  : 52006
  Time step     : 0.001
Per MPI rank memory allocation (min/avg/max) = 18.2 | 18.2 | 18.2 Mbytes
Step Temp Press TotEng PotEng Enthalpy Volume 
   52006    1554.5847   -13.630236   -74978.553    -78927.34   -74984.336    679691.76 
   52026    1557.3074   -18.284161   -74979.153   -78934.856    -74986.91    679690.82 
   52501    1514.1387   -193.50009   -75236.072   -79082.122    -75318.06    678858.96 
Loop time of 40.213 on 1 procs for 495 steps with 19652 atoms

Performance: 1.064 ns/day, 22.566 hours/ns, 12.309 timesteps/s
99.0% CPU use with 1 MPI tasks x no OpenMP threads

MPI task timing breakdown:
Section |  min time  |  avg time  |  max time  |%varavg| %total
---------------------------------------------------------------
Pair    | 19.209     | 19.209     | 19.209     |   0.0 | 47.77
Neigh   | 19.733     | 19.733     | 19.733     |   0.0 | 49.07
Comm    | 0.42264    | 0.42264    | 0.42264    |   0.0 |  1.05
Output  | 0.07854    | 0.07854    | 0.07854    |   0.0 |  0.20
Modify  | 0.61163    | 0.61163    | 0.61163    |   0.0 |  1.52
Other   |            | 0.1582     |            |       |  0.39

Nlocal:    19652 ave 19652 max 19652 min
Histogram: 1 0 0 0 0 0 0 0 0 0
Nghost:    13695 ave 13695 max 13695 min
Histogram: 1 0 0 0 0 0 0 0 0 0
Neighs:    701088 ave 701088 max 701088 min
Histogram: 1 0 0 0 0 0 0 0 0 0

Total # of neighbors = 701088
Ave neighs/atom = 35.6751
Neighbor list builds = 495
Dangerous builds not checked
Setting up Verlet run ...
  Unit style    : metal
  Current step  : 52501
  Time step     : 0.001
Per MPI rank memory allocation (min/avg/max) = 18.2 | 18.2 | 18.2 Mbytes
Step Temp Press TotEng PotEng Enthalpy Volume 
   52501    1514.1387   -193.50009   -75236.072   -79082.122    -75318.06    678858.96 
   52673    1496.5325    39.892318   -75297.575   -79098.904    -75280.69    678144.06 
Loop time of 12.8491 on 1 procs for 172 steps with 19652 atoms

Performance: 1.157 ns/day, 20.751 hours/ns, 13.386 timesteps/s
98.2% CPU use with 1 MPI tasks x no OpenMP threads

MPI task timing breakdown:
Section |  min time  |  avg time  |  max time  |%varavg| %total
---------------------------------------------------------------
Pair    | 6.0434     | 6.0434     | 6.0434     |   0.0 | 47.03
Neigh   | 6.4281     | 6.4281     | 6.4281     |   0.0 | 50.03
Comm    | 0.12825    | 0.12825    | 0.12825    |   0.0 |  1.00
Output  | 0.00013781 | 0.00013781 | 0.00013781 |   0.0 |  0.00
Modify  | 0.19452    | 0.19452    | 0.19452    |   0.0 |  1.51
Other   |            | 0.05473    |            |       |  0.43

Nlocal:    19652 ave 19652 max 19652 min
Histogram: 1 0 0 0 0 0 0 0 0 0
Nghost:    13754 ave 13754 max 13754 min
Histogram: 1 0 0 0 0 0 0 0 0 0
Neighs:    701575 ave 701575 max 701575 min
Histogram: 1 0 0 0 0 0 0 0 0 0

Total # of neighbors = 701575
Ave neighs/atom = 35.6999
Neighbor list builds = 172
Dangerous builds not checked
Setting up Verlet run ...
  Unit style    : metal
  Current step  : 52673
  Time step     : 0.001
Per MPI rank memory allocation (min/avg/max) = 18.2 | 18.2 | 18.2 Mbytes
Step Temp Press TotEng PotEng Enthalpy Volume 
   52673    1496.5325    39.892318   -75297.575   -79098.904    -75280.69    678144.06 
   52693    1508.7267    81.924491   -75297.713   -79130.016   -75263.037    678147.73 
   53168    1476.7806     117.6024   -75542.521   -79293.678   -75492.867    676469.71 
Loop time of 39.3128 on 1 procs for 495 steps with 19652 atoms

Performance: 1.088 ns/day, 22.061 hours/ns, 12.591 timesteps/s
99.6% CPU use with 1 MPI tasks x no OpenMP threads

MPI task timing breakdown:
Section |  min time  |  avg time  |  max time  |%varavg| %total
---------------------------------------------------------------
Pair    | 18.663     | 18.663     | 18.663     |   0.0 | 47.47
Neigh   | 19.425     | 19.425     | 19.425     |   0.0 | 49.41
Comm    | 0.40988    | 0.40988    | 0.40988    |   0.0 |  1.04
Output  | 0.05806    | 0.05806    | 0.05806    |   0.0 |  0.15
Modify  | 0.60148    | 0.60148    | 0.60148    |   0.0 |  1.53
Other   |            | 0.1557     |            |       |  0.40

Nlocal:    19652 ave 19652 max 19652 min
Histogram: 1 0 0 0 0 0 0 0 0 0
Nghost:    13763 ave 13763 max 13763 min
Histogram: 1 0 0 0 0 0 0 0 0 0
Neighs:    702767 ave 702767 max 702767 min
Histogram: 1 0 0 0 0 0 0 0 0 0

Total # of neighbors = 702767
Ave neighs/atom = 35.7606
Neighbor list builds = 495
Dangerous builds not checked
Setting up Verlet run ...
  Unit style    : metal
  Current step  : 53168
  Time step     : 0.001
Per MPI rank memory allocation (min/avg/max) = 18.2 | 18.2 | 18.2 Mbytes
Step Temp Press TotEng PotEng Enthalpy Volume 
   53168    1476.7806     117.6024   -75542.521   -79293.678   -75492.867    676469.71 
   53340    1454.5682   -76.060643   -75624.826   -79319.562   -75656.945    676573.81 
Loop time of 12.5758 on 1 procs for 172 steps with 19652 atoms

Performance: 1.182 ns/day, 20.310 hours/ns, 13.677 timesteps/s
97.5% CPU use with 1 MPI tasks x no OpenMP threads

MPI task timing breakdown:
Section |  min time  |  avg time  |  max time  |%varavg| %total
---------------------------------------------------------------
Pair    | 5.8862     | 5.8862     | 5.8862     |   0.0 | 46.81
Neigh   | 6.3308     | 6.3308     | 6.3308     |   0.0 | 50.34
Comm    | 0.1232     | 0.1232     | 0.1232     |   0.0 |  0.98
Output  | 0.00015712 | 0.00015712 | 0.00015712 |   0.0 |  0.00
Modify  | 0.1851     | 0.1851     | 0.1851     |   0.0 |  1.47
Other   |            | 0.05037    |            |       |  0.40

Nlocal:    19652 ave 19652 max 19652 min
Histogram: 1 0 0 0 0 0 0 0 0 0
Nghost:    13735 ave 13735 max 13735 min
Histogram: 1 0 0 0 0 0 0 0 0 0
Neighs:    702603 ave 702603 max 702603 min
Histogram: 1 0 0 0 0 0 0 0 0 0

Total # of neighbors = 702603
Ave neighs/atom = 35.7522
Neighbor list builds = 172
Dangerous builds not checked
Setting up Verlet run ...
  Unit style    : metal
  Current step  : 53340
  Time step     : 0.001
Per MPI rank memory allocation (min/avg/max) = 18.2 | 18.2 | 18.2 Mbytes
Step Temp Press TotEng PotEng Enthalpy Volume 
   53340    1454.5682   -76.060643   -75624.826   -79319.562   -75656.945    676573.81 
   53360    1455.9732   -62.575762   -75625.368   -79323.673   -75651.793    676568.94 
   53835    1410.8129   -131.31813   -75904.842   -79488.436   -75960.197    675367.55 
Loop time of 43.7168 on 1 procs for 495 steps with 19652 atoms

Performance: 0.978 ns/day, 24.532 hours/ns, 11.323 timesteps/s
99.3% CPU use with 1 MPI tasks x no OpenMP threads

MPI task timing breakdown:
Section |  min time  |  avg time  |  max time  |%varavg| %total
---------------------------------------------------------------
Pair    | 21.275     | 21.275     | 21.275     |   0.0 | 48.67
Neigh   | 21.023     | 21.023     | 21.023     |   0.0 | 48.09
Comm    | 0.48854    | 0.48854    | 0.48854    |   0.0 |  1.12
Output  | 0.075222   | 0.075222   | 0.075222   |   0.0 |  0.17
Modify  | 0.67172    | 0.67172    | 0.67172    |   0.0 |  1.54
Other   |            | 0.1829     |            |       |  0.42

Nlocal:    19652 ave 19652 max 19652 min
Histogram: 1 0 0 0 0 0 0 0 0 0
Nghost:    13722 ave 13722 max 13722 min
Histogram: 1 0 0 0 0 0 0 0 0 0
Neighs:    703079 ave 703079 max 703079 min
Histogram: 1 0 0 0 0 0 0 0 0 0

Total # of neighbors = 703079
Ave neighs/atom = 35.7765
Neighbor list builds = 495
Dangerous builds not checked
Setting up Verlet run ...
  Unit style    : metal
  Current step  : 53835
  Time step     : 0.001
Per MPI rank memory allocation (min/avg/max) = 18.2 | 18.2 | 18.2 Mbytes
Step Temp Press TotEng PotEng Enthalpy Volume 
   53835    1410.8129   -131.31813   -75904.842   -79488.436   -75960.197    675367.55 
   54007    1403.9943    100.48217   -75974.141   -79540.414   -75931.826    674705.65 
Loop time of 14.4064 on 1 procs for 172 steps with 19652 atoms

Performance: 1.032 ns/day, 23.266 hours/ns, 11.939 timesteps/s
100.0% CPU use with 1 MPI tasks x no OpenMP threads

MPI task timing breakdown:
Section |  min time  |  avg time  |  max time  |%varavg| %total
---------------------------------------------------------------
Pair    | 6.8814     | 6.8814     | 6.8814     |   0.0 | 47.77
Neigh   | 7.0605     | 7.0605     | 7.0605     |   0.0 | 49.01
Comm    | 0.16091    | 0.16091    | 0.16091    |   0.0 |  1.12
Output  | 0.00016189 | 0.00016189 | 0.00016189 |   0.0 |  0.00
Modify  | 0.23776    | 0.23776    | 0.23776    |   0.0 |  1.65
Other   |            | 0.06574    |            |       |  0.46

Nlocal:    19652 ave 19652 max 19652 min
Histogram: 1 0 0 0 0 0 0 0 0 0
Nghost:    13735 ave 13735 max 13735 min
Histogram: 1 0 0 0 0 0 0 0 0 0
Neighs:    704011 ave 704011 max 704011 min
Histogram: 1 0 0 0 0 0 0 0 0 0

Total # of neighbors = 704011
Ave neighs/atom = 35.8239
Neighbor list builds = 172
Dangerous builds not checked
Setting up Verlet run ...
  Unit style    : metal
  Current step  : 54007
  Time step     : 0.001
Per MPI rank memory allocation (min/avg/max) = 18.2 | 18.2 | 18.2 Mbytes
Step Temp Press TotEng PotEng Enthalpy Volume 
   54007    1403.9943    100.48217   -75974.141   -79540.414   -75931.826    674705.65 
   54027    1403.0356    141.29161   -75974.595   -79538.434   -75915.094    674713.86 
   54502    1365.4443    218.21085   -76205.355   -79673.708    -76113.59    673765.96 
Loop time of 43.4174 on 1 procs for 495 steps with 19652 atoms

Performance: 0.985 ns/day, 24.364 hours/ns, 11.401 timesteps/s
100.0% CPU use with 1 MPI tasks x no OpenMP threads

MPI task timing breakdown:
Section |  min time  |  avg time  |  max time  |%varavg| %total
---------------------------------------------------------------
Pair    | 21.013     | 21.013     | 21.013     |   0.0 | 48.40
Neigh   | 20.974     | 20.974     | 20.974     |   0.0 | 48.31
Comm    | 0.48289    | 0.48289    | 0.48289    |   0.0 |  1.11
Output  | 0.072599   | 0.072599   | 0.072599   |   0.0 |  0.17
Modify  | 0.68575    | 0.68575    | 0.68575    |   0.0 |  1.58
Other   |            | 0.1889     |            |       |  0.43

Nlocal:    19652 ave 19652 max 19652 min
Histogram: 1 0 0 0 0 0 0 0 0 0
Nghost:    13793 ave 13793 max 13793 min
Histogram: 1 0 0 0 0 0 0 0 0 0
Neighs:    703658 ave 703658 max 703658 min
Histogram: 1 0 0 0 0 0 0 0 0 0

Total # of neighbors = 703658
Ave neighs/atom = 35.8059
Neighbor list builds = 495
Dangerous builds not checked
Setting up Verlet run ...
  Unit style    : metal
  Current step  : 54502
  Time step     : 0.001
Per MPI rank memory allocation (min/avg/max) = 18.2 | 18.2 | 18.2 Mbytes
Step Temp Press TotEng PotEng Enthalpy Volume 
   54502    1365.4443    218.21085   -76205.355   -79673.708    -76113.59    673765.96 
   54674    1359.5369   -231.37185   -76280.413   -79733.761   -76377.753    674046.82 
Loop time of 14.9259 on 1 procs for 172 steps with 19652 atoms

Performance: 0.996 ns/day, 24.105 hours/ns, 11.524 timesteps/s
97.8% CPU use with 1 MPI tasks x no OpenMP threads

MPI task timing breakdown:
Section |  min time  |  avg time  |  max time  |%varavg| %total
---------------------------------------------------------------
Pair    | 7.2149     | 7.2149     | 7.2149     |   0.0 | 48.34
Neigh   | 7.2415     | 7.2415     | 7.2415     |   0.0 | 48.52
Comm    | 0.16287    | 0.16287    | 0.16287    |   0.0 |  1.09
Output  | 0.00014901 | 0.00014901 | 0.00014901 |   0.0 |  0.00
Modify  | 0.24203    | 0.24203    | 0.24203    |   0.0 |  1.62
Other   |            | 0.06446    |            |       |  0.43

Nlocal:    19652 ave 19652 max 19652 min
Histogram: 1 0 0 0 0 0 0 0 0 0
Nghost:    13755 ave 13755 max 13755 min
Histogram: 1 0 0 0 0 0 0 0 0 0
Neighs:    703230 ave 703230 max 703230 min
Histogram: 1 0 0 0 0 0 0 0 0 0

Total # of neighbors = 703230
Ave neighs/atom = 35.7841
Neighbor list builds = 172
Dangerous builds not checked
Setting up Verlet run ...
  Unit style    : metal
  Current step  : 54674
  Time step     : 0.001
Per MPI rank memory allocation (min/avg/max) = 18.2 | 18.2 | 18.2 Mbytes
Step Temp Press TotEng PotEng Enthalpy Volume 
   54674    1359.5369   -231.37185   -76280.413   -79733.761   -76377.753    674046.82 
   54694    1365.9241   -249.04373   -76281.724   -79751.295   -76386.496    674029.27 
   55169    1317.6213   -297.44461   -76534.126   -79881.004   -76659.085    673087.93 
Loop time of 37.4111 on 1 procs for 495 steps with 19652 atoms

Performance: 1.143 ns/day, 20.994 hours/ns, 13.231 timesteps/s
99.8% CPU use with 1 MPI tasks x no OpenMP threads

MPI task timing breakdown:
Section |  min time  |  avg time  |  max time  |%varavg| %total
---------------------------------------------------------------
Pair    | 17.758     | 17.758     | 17.758     |   0.0 | 47.47
Neigh   | 18.462     | 18.462     | 18.462     |   0.0 | 49.35
Comm    | 0.39145    | 0.39145    | 0.39145    |   0.0 |  1.05
Output  | 0.078028   | 0.078028   | 0.078028   |   0.0 |  0.21
Modify  | 0.57335    | 0.57335    | 0.57335    |   0.0 |  1.53
Other   |            | 0.1481     |            |       |  0.40

Nlocal:    19652 ave 19652 max 19652 min
Histogram: 1 0 0 0 0 0 0 0 0 0
Nghost:    13817 ave 13817 max 13817 min
Histogram: 1 0 0 0 0 0 0 0 0 0
Neighs:    703590 ave 703590 max 703590 min
Histogram: 1 0 0 0 0 0 0 0 0 0

Total # of neighbors = 703590
Ave neighs/atom = 35.8025
Neighbor list builds = 495
Dangerous builds not checked
Setting up Verlet run ...
  Unit style    : metal
  Current step  : 55169
  Time step     : 0.001
Per MPI rank memory allocation (min/avg/max) = 18.2 | 18.2 | 18.2 Mbytes
Step Temp Press TotEng PotEng Enthalpy Volume 
   55169    1317.6213   -297.44461   -76534.126   -79881.004   -76659.085    673087.93 
   55341    1305.4778    62.871703   -76608.776   -79924.808   -76582.407    671968.07 
Loop time of 12.7092 on 1 procs for 172 steps with 19652 atoms

Performance: 1.169 ns/day, 20.525 hours/ns, 13.533 timesteps/s
99.9% CPU use with 1 MPI tasks x no OpenMP threads

MPI task timing breakdown:
Section |  min time  |  avg time  |  max time  |%varavg| %total
---------------------------------------------------------------
Pair    | 6.0028     | 6.0028     | 6.0028     |   0.0 | 47.23
Neigh   | 6.3338     | 6.3338     | 6.3338     |   0.0 | 49.84
Comm    | 0.1299     | 0.1299     | 0.1299     |   0.0 |  1.02
Output  | 0.00011897 | 0.00011897 | 0.00011897 |   0.0 |  0.00
Modify  | 0.19277    | 0.19277    | 0.19277    |   0.0 |  1.52
Other   |            | 0.04981    |            |       |  0.39

Nlocal:    19652 ave 19652 max 19652 min
Histogram: 1 0 0 0 0 0 0 0 0 0
Nghost:    13816 ave 13816 max 13816 min
Histogram: 1 0 0 0 0 0 0 0 0 0
Neighs:    704617 ave 704617 max 704617 min
Histogram: 1 0 0 0 0 0 0 0 0 0

Total # of neighbors = 704617
Ave neighs/atom = 35.8547
Neighbor list builds = 172
Dangerous builds not checked
Setting up Verlet run ...
  Unit style    : metal
  Current step  : 55341
  Time step     : 0.001
[...]
Pair    | 20.953     | 20.953     | 20.953     |   0.0 | 48.96
Neigh   | 20.394     | 20.394     | 20.394     |   0.0 | 47.66
Comm    | 0.45218    | 0.45218    | 0.45218    |   0.0 |  1.06
Output  | 0.16339    | 0.16339    | 0.16339    |   0.0 |  0.38
Modify  | 0.65717    | 0.65717    | 0.65717    |   0.0 |  1.54
Other   |            | 0.1735     |            |       |  0.41

Nlocal:    19652 ave 19652 max 19652 min
Histogram: 1 0 0 0 0 0 0 0 0 0
Nghost:    14023 ave 14023 max 14023 min
Histogram: 1 0 0 0 0 0 0 0 0 0
Neighs:    710316 ave 710316 max 710316 min
Histogram: 1 0 0 0 0 0 0 0 0 0

Total # of neighbors = 710316
Ave neighs/atom = 36.1447
Neighbor list builds = 495
Dangerous builds not checked
Setting up Verlet run ...
  Unit style    : metal
  Current step  : 67175
  Time step     : 0.001
Per MPI rank memory allocation (min/avg/max) = 18.2 | 18.2 | 18.2 Mbytes
Step Temp Press TotEng PotEng Enthalpy Volume 
   67175    423.63366    111.32969   -82079.075   -83155.143   -82033.923    649792.18 
   67347    413.93235    77.584821   -82135.348   -83186.774   -82103.891    649606.53 
Loop time of 13.9234 on 1 procs for 172 steps with 19652 atoms

Performance: 1.067 ns/day, 22.486 hours/ns, 12.353 timesteps/s
98.8% CPU use with 1 MPI tasks x no OpenMP threads

MPI task timing breakdown:
Section |  min time  |  avg time  |  max time  |%varavg| %total
---------------------------------------------------------------
Pair    | 6.8005     | 6.8005     | 6.8005     |   0.0 | 48.84
Neigh   | 6.7095     | 6.7095     | 6.7095     |   0.0 | 48.19
Comm    | 0.14795    | 0.14795    | 0.14795    |   0.0 |  1.06
Output  | 0.00011706 | 0.00011706 | 0.00011706 |   0.0 |  0.00
Modify  | 0.21055    | 0.21055    | 0.21055    |   0.0 |  1.51
Other   |            | 0.05475    |            |       |  0.39

Nlocal:    19652 ave 19652 max 19652 min
Histogram: 1 0 0 0 0 0 0 0 0 0
Nghost:    14026 ave 14026 max 14026 min
Histogram: 1 0 0 0 0 0 0 0 0 0
Neighs:    710299 ave 710299 max 710299 min
Histogram: 1 0 0 0 0 0 0 0 0 0

Total # of neighbors = 710299
Ave neighs/atom = 36.1439
Neighbor list builds = 172
Dangerous builds not checked
Setting up Verlet run ...
  Unit style    : metal
  Current step  : 67347
  Time step     : 0.001
Per MPI rank memory allocation (min/avg/max) = 18.2 | 18.2 | 18.2 Mbytes
Step Temp Press TotEng PotEng Enthalpy Volume 
   67347    413.93235    77.584821   -82135.348   -83186.774   -82103.891    649606.53 
   67367    414.60665    71.854681   -82136.944   -83190.082   -82107.809    649624.91 
   67842    372.44127    185.73022   -82351.528   -83297.563   -82276.344    648565.18 
Loop time of 41.1536 on 1 procs for 495 steps with 19652 atoms

Performance: 1.039 ns/day, 23.094 hours/ns, 12.028 timesteps/s
99.5% CPU use with 1 MPI tasks x no OpenMP threads

MPI task timing breakdown:
Section |  min time  |  avg time  |  max time  |%varavg| %total
---------------------------------------------------------------
Pair    | 20.042     | 20.042     | 20.042     |   0.0 | 48.70
Neigh   | 19.796     | 19.796     | 19.796     |   0.0 | 48.10
Comm    | 0.42586    | 0.42586    | 0.42586    |   0.0 |  1.03
Output  | 0.091781   | 0.091781   | 0.091781   |   0.0 |  0.22
Modify  | 0.63414    | 0.63414    | 0.63414    |   0.0 |  1.54
Other   |            | 0.1629     |            |       |  0.40

Nlocal:    19652 ave 19652 max 19652 min
Histogram: 1 0 0 0 0 0 0 0 0 0
Nghost:    14008 ave 14008 max 14008 min
Histogram: 1 0 0 0 0 0 0 0 0 0
Neighs:    711012 ave 711012 max 711012 min
Histogram: 1 0 0 0 0 0 0 0 0 0

Total # of neighbors = 711012
Ave neighs/atom = 36.1801
Neighbor list builds = 495
Dangerous builds not checked
Setting up Verlet run ...
  Unit style    : metal
  Current step  : 67842
  Time step     : 0.001
Per MPI rank memory allocation (min/avg/max) = 18.2 | 18.2 | 18.2 Mbytes
Step Temp Press TotEng PotEng Enthalpy Volume 
   67842    372.44127    185.73022   -82351.528   -83297.563   -82276.344    648565.18 
   68014    364.01398     94.23332    -82405.52   -83330.148   -82367.371    648609.54 
Loop time of 14.3241 on 1 procs for 172 steps with 19652 atoms

Performance: 1.037 ns/day, 23.133 hours/ns, 12.008 timesteps/s
99.1% CPU use with 1 MPI tasks x no OpenMP threads

MPI task timing breakdown:
Section |  min time  |  avg time  |  max time  |%varavg| %total
---------------------------------------------------------------
Pair    | 7.0055     | 7.0055     | 7.0055     |   0.0 | 48.91
Neigh   | 6.8929     | 6.8929     | 6.8929     |   0.0 | 48.12
Comm    | 0.14654    | 0.14654    | 0.14654    |   0.0 |  1.02
Output  | 0.00015187 | 0.00015187 | 0.00015187 |   0.0 |  0.00
Modify  | 0.22292    | 0.22292    | 0.22292    |   0.0 |  1.56
Other   |            | 0.05603    |            |       |  0.39

Nlocal:    19652 ave 19652 max 19652 min
Histogram: 1 0 0 0 0 0 0 0 0 0
Nghost:    14014 ave 14014 max 14014 min
Histogram: 1 0 0 0 0 0 0 0 0 0
Neighs:    710806 ave 710806 max 710806 min
Histogram: 1 0 0 0 0 0 0 0 0 0

Total # of neighbors = 710806
Ave neighs/atom = 36.1697
Neighbor list builds = 172
Dangerous builds not checked
Setting up Verlet run ...
  Unit style    : metal
  Current step  : 68014
  Time step     : 0.001
Per MPI rank memory allocation (min/avg/max) = 18.2 | 18.2 | 18.2 Mbytes
Step Temp Press TotEng PotEng Enthalpy Volume 
   68014    364.01398     94.23332    -82405.52   -83330.148   -82367.371    648609.54 
   68034    366.44208    73.165635   -82407.202   -83337.998   -82377.581    648633.72 
   68509    324.01241   -51.917522   -82617.288   -83440.309   -82638.288    648044.14 
Loop time of 36.9166 on 1 procs for 495 steps with 19652 atoms

Performance: 1.159 ns/day, 20.716 hours/ns, 13.409 timesteps/s
98.3% CPU use with 1 MPI tasks x no OpenMP threads

MPI task timing breakdown:
Section |  min time  |  avg time  |  max time  |%varavg| %total
---------------------------------------------------------------
Pair    | 17.725     | 17.725     | 17.725     |   0.0 | 48.01
Neigh   | 18.056     | 18.056     | 18.056     |   0.0 | 48.91
Comm    | 0.37161    | 0.37161    | 0.37161    |   0.0 |  1.01
Output  | 0.076712   | 0.076712   | 0.076712   |   0.0 |  0.21
Modify  | 0.54777    | 0.54777    | 0.54777    |   0.0 |  1.48
Other   |            | 0.1399     |            |       |  0.38

Nlocal:    19652 ave 19652 max 19652 min
Histogram: 1 0 0 0 0 0 0 0 0 0
Nghost:    14009 ave 14009 max 14009 min
Histogram: 1 0 0 0 0 0 0 0 0 0
Neighs:    710765 ave 710765 max 710765 min
Histogram: 1 0 0 0 0 0 0 0 0 0

Total # of neighbors = 710765
Ave neighs/atom = 36.1676
Neighbor list builds = 495
Dangerous builds not checked
Setting up Verlet run ...
  Unit style    : metal
  Current step  : 68509
  Time step     : 0.001
Per MPI rank memory allocation (min/avg/max) = 18.2 | 18.2 | 18.2 Mbytes
Step Temp Press TotEng PotEng Enthalpy Volume 
   68509    324.01241   -51.917522   -82617.288   -83440.309   -82638.288    648044.14 
   68681    314.59864    86.076155    -82673.21   -83472.319   -82638.425    647464.35 
Loop time of 11.2935 on 1 procs for 172 steps with 19652 atoms

Performance: 1.316 ns/day, 18.239 hours/ns, 15.230 timesteps/s
100.0% CPU use with 1 MPI tasks x no OpenMP threads

MPI task timing breakdown:
Section |  min time  |  avg time  |  max time  |%varavg| %total
---------------------------------------------------------------
Pair    | 5.3133     | 5.3133     | 5.3133     |   0.0 | 47.05
Neigh   | 5.665      | 5.665      | 5.665      |   0.0 | 50.16
Comm    | 0.10897    | 0.10897    | 0.10897    |   0.0 |  0.96
Output  | 0.00011301 | 0.00011301 | 0.00011301 |   0.0 |  0.00
Modify  | 0.16395    | 0.16395    | 0.16395    |   0.0 |  1.45
Other   |            | 0.04217    |            |       |  0.37

Nlocal:    19652 ave 19652 max 19652 min
Histogram: 1 0 0 0 0 0 0 0 0 0
Nghost:    14014 ave 14014 max 14014 min
Histogram: 1 0 0 0 0 0 0 0 0 0
Neighs:    710885 ave 710885 max 710885 min
Histogram: 1 0 0 0 0 0 0 0 0 0

Total # of neighbors = 710885
Ave neighs/atom = 36.1737
Neighbor list builds = 172
Dangerous builds not checked
Setting up Verlet run ...
  Unit style    : metal
  Current step  : 68681
  Time step     : 0.001
Per MPI rank memory allocation (min/avg/max) = 18.2 | 18.2 | 18.2 Mbytes
Step Temp Press TotEng PotEng Enthalpy Volume 
   68681    314.59864    86.076155    -82673.21   -83472.319   -82638.425    647464.35 
   68701    315.81301    65.895014    -82674.91   -83477.104    -82648.28    647490.05 
   69176    278.72348     -66.4553   -82882.196   -83590.179   -82909.029    646919.35 
Loop time of 36.4225 on 1 procs for 495 steps with 19652 atoms

Performance: 1.174 ns/day, 20.439 hours/ns, 13.591 timesteps/s
99.9% CPU use with 1 MPI tasks x no OpenMP threads

MPI task timing breakdown:
Section |  min time  |  avg time  |  max time  |%varavg| %total
---------------------------------------------------------------
Pair    | 17.477     | 17.477     | 17.477     |   0.0 | 47.98
Neigh   | 17.819     | 17.819     | 17.819     |   0.0 | 48.92
Comm    | 0.36632    | 0.36632    | 0.36632    |   0.0 |  1.01
Output  | 0.067746   | 0.067746   | 0.067746   |   0.0 |  0.19
Modify  | 0.55176    | 0.55176    | 0.55176    |   0.0 |  1.51
Other   |            | 0.1406     |            |       |  0.39

Nlocal:    19652 ave 19652 max 19652 min
Histogram: 1 0 0 0 0 0 0 0 0 0
Nghost:    14034 ave 14034 max 14034 min
Histogram: 1 0 0 0 0 0 0 0 0 0
Neighs:    710739 ave 710739 max 710739 min
Histogram: 1 0 0 0 0 0 0 0 0 0

Total # of neighbors = 710739
Ave neighs/atom = 36.1662
Neighbor list builds = 495
Dangerous builds not checked
Setting up Verlet run ...
  Unit style    : metal
  Current step  : 69176
  Time step     : 0.001
Per MPI rank memory allocation (min/avg/max) = 18.2 | 18.2 | 18.2 Mbytes
Step Temp Press TotEng PotEng Enthalpy Volume 
   69176    278.72348     -66.4553   -82882.196   -83590.179   -82909.029    646919.35 
   69348    265.49096   -79.363714   -82936.521   -83610.892   -82968.558    646765.61 
Loop time of 11.8508 on 1 procs for 172 steps with 19652 atoms

Performance: 1.254 ns/day, 19.139 hours/ns, 14.514 timesteps/s
100.0% CPU use with 1 MPI tasks x no OpenMP threads

MPI task timing breakdown:
Section |  min time  |  avg time  |  max time  |%varavg| %total
---------------------------------------------------------------
Pair    | 5.6332     | 5.6332     | 5.6332     |   0.0 | 47.53
Neigh   | 5.8801     | 5.8801     | 5.8801     |   0.0 | 49.62
Comm    | 0.11731    | 0.11731    | 0.11731    |   0.0 |  0.99
Output  | 0.00012088 | 0.00012088 | 0.00012088 |   0.0 |  0.00
Modify  | 0.17457    | 0.17457    | 0.17457    |   0.0 |  1.47
Other   |            | 0.04542    |            |       |  0.38

Nlocal:    19652 ave 19652 max 19652 min
Histogram: 1 0 0 0 0 0 0 0 0 0
Nghost:    14011 ave 14011 max 14011 min
Histogram: 1 0 0 0 0 0 0 0 0 0
Neighs:    710970 ave 710970 max 710970 min
Histogram: 1 0 0 0 0 0 0 0 0 0

Total # of neighbors = 710970
Ave neighs/atom = 36.178
Neighbor list builds = 172
Dangerous builds not checked
Setting up Verlet run ...
  Unit style    : metal
  Current step  : 69348
  Time step     : 0.001
Per MPI rank memory allocation (min/avg/max) = 18.2 | 18.2 | 18.2 Mbytes
Step Temp Press TotEng PotEng Enthalpy Volume 
   69348    265.49096   -79.363714   -82936.521   -83610.892   -82968.558    646765.61 
   69368    265.82348   -64.419479   -82938.301   -83613.516   -82964.304    646736.98 
   69843    227.54067    6.3538106   -83142.035   -83720.009   -83139.474    645928.52 
Loop time of 38.4921 on 1 procs for 495 steps with 19652 atoms

Performance: 1.111 ns/day, 21.600 hours/ns, 12.860 timesteps/s
99.8% CPU use with 1 MPI tasks x no OpenMP threads

MPI task timing breakdown:
Section |  min time  |  avg time  |  max time  |%varavg| %total
---------------------------------------------------------------
Pair    | 18.546     | 18.546     | 18.546     |   0.0 | 48.18
Neigh   | 18.767     | 18.767     | 18.767     |   0.0 | 48.76
Comm    | 0.3859     | 0.3859     | 0.3859     |   0.0 |  1.00
Output  | 0.061964   | 0.061964   | 0.061964   |   0.0 |  0.16
Modify  | 0.58266    | 0.58266    | 0.58266    |   0.0 |  1.51
Other   |            | 0.148      |            |       |  0.38

Nlocal:    19652 ave 19652 max 19652 min
Histogram: 1 0 0 0 0 0 0 0 0 0
Nghost:    14007 ave 14007 max 14007 min
Histogram: 1 0 0 0 0 0 0 0 0 0
Neighs:    711693 ave 711693 max 711693 min
Histogram: 1 0 0 0 0 0 0 0 0 0

Total # of neighbors = 711693
Ave neighs/atom = 36.2148
Neighbor list builds = 495
Dangerous builds not checked
Setting up Verlet run ...
  Unit style    : metal
  Current step  : 69843
  Time step     : 0.001
Per MPI rank memory allocation (min/avg/max) = 18.2 | 18.2 | 18.2 Mbytes
Step Temp Press TotEng PotEng Enthalpy Volume 
   69843    227.54067    6.3538106   -83142.035   -83720.009   -83139.474    645928.52 
   70015    218.86853    5.8765548   -83195.196   -83751.142   -83192.828    645576.41 
Loop time of 12.0238 on 1 procs for 172 steps with 19652 atoms

Performance: 1.236 ns/day, 19.418 hours/ns, 14.305 timesteps/s
100.0% CPU use with 1 MPI tasks x no OpenMP threads

MPI task timing breakdown:
Section |  min time  |  avg time  |  max time  |%varavg| %total
---------------------------------------------------------------
Pair    | 5.7243     | 5.7243     | 5.7243     |   0.0 | 47.61
Neigh   | 5.9507     | 5.9507     | 5.9507     |   0.0 | 49.49
Comm    | 0.12078    | 0.12078    | 0.12078    |   0.0 |  1.00
Output  | 0.00011778 | 0.00011778 | 0.00011778 |   0.0 |  0.00
Modify  | 0.18177    | 0.18177    | 0.18177    |   0.0 |  1.51
Other   |            | 0.04612    |            |       |  0.38

Nlocal:    19652 ave 19652 max 19652 min
Histogram: 1 0 0 0 0 0 0 0 0 0
Nghost:    14019 ave 14019 max 14019 min
Histogram: 1 0 0 0 0 0 0 0 0 0
Neighs:    711514 ave 711514 max 711514 min
Histogram: 1 0 0 0 0 0 0 0 0 0

Total # of neighbors = 711514
Ave neighs/atom = 36.2057
Neighbor list builds = 172
Dangerous builds not checked
Setting up Verlet run ...
  Unit style    : metal
  Current step  : 70015
  Time step     : 0.001
Per MPI rank memory allocation (min/avg/max) = 18.2 | 18.2 | 18.2 Mbytes
Step Temp Press TotEng PotEng Enthalpy Volume 
   70015    218.86853    5.8765548   -83195.196   -83751.142   -83192.828    645576.41 
   70035    219.14169    2.2144302   -83197.391   -83754.031   -83196.499    645578.48 
   70510    178.77961    50.082986    -83395.67   -83849.787   -83375.513    644839.23 
Loop time of 38.4411 on 1 procs for 495 steps with 19652 atoms

Performance: 1.113 ns/day, 21.572 hours/ns, 12.877 timesteps/s
98.2% CPU use with 1 MPI tasks x no OpenMP threads

MPI task timing breakdown:
Section |  min time  |  avg time  |  max time  |%varavg| %total
---------------------------------------------------------------
Pair    | 18.628     | 18.628     | 18.628     |   0.0 | 48.46
Neigh   | 18.627     | 18.627     | 18.627     |   0.0 | 48.46
Comm    | 0.39605    | 0.39605    | 0.39605    |   0.0 |  1.03
Output  | 0.057432   | 0.057432   | 0.057432   |   0.0 |  0.15
Modify  | 0.58112    | 0.58112    | 0.58112    |   0.0 |  1.51
Other   |            | 0.1519     |            |       |  0.40

Nlocal:    19652 ave 19652 max 19652 min
Histogram: 1 0 0 0 0 0 0 0 0 0
Nghost:    14060 ave 14060 max 14060 min
Histogram: 1 0 0 0 0 0 0 0 0 0
Neighs:    711885 ave 711885 max 711885 min
Histogram: 1 0 0 0 0 0 0 0 0 0

Total # of neighbors = 711885
Ave neighs/atom = 36.2246
Neighbor list builds = 495
Dangerous builds not checked
Setting up Verlet run ...
  Unit style    : metal
  Current step  : 70510
  Time step     : 0.001
Per MPI rank memory allocation (min/avg/max) = 18.2 | 18.2 | 18.2 Mbytes
Step Temp Press TotEng PotEng Enthalpy Volume 
   70510    178.77961    50.082986    -83395.67   -83849.787   -83375.513    644839.23 
   70682    169.20761   -47.331531   -83448.851   -83878.654   -83467.901    644847.88 
Loop time of 12.5031 on 1 procs for 172 steps with 19652 atoms

Performance: 1.189 ns/day, 20.192 hours/ns, 13.757 timesteps/s
100.0% CPU use with 1 MPI tasks x no OpenMP threads

MPI task timing breakdown:
Section |  min time  |  avg time  |  max time  |%varavg| %total
---------------------------------------------------------------
Pair    | 6.0013     | 6.0013     | 6.0013     |   0.0 | 48.00
Neigh   | 6.1349     | 6.1349     | 6.1349     |   0.0 | 49.07
Comm    | 0.12634    | 0.12634    | 0.12634    |   0.0 |  1.01
Output  | 0.00014091 | 0.00014091 | 0.00014091 |   0.0 |  0.00
Modify  | 0.19174    | 0.19174    | 0.19174    |   0.0 |  1.53
Other   |            | 0.04871    |            |       |  0.39

Nlocal:    19652 ave 19652 max 19652 min
Histogram: 1 0 0 0 0 0 0 0 0 0
Nghost:    14053 ave 14053 max 14053 min
Histogram: 1 0 0 0 0 0 0 0 0 0
Neighs:    711872 ave 711872 max 711872 min
Histogram: 1 0 0 0 0 0 0 0 0 0

Total # of neighbors = 711872
Ave neighs/atom = 36.2239
Neighbor list builds = 172
Dangerous builds not checked
Setting up Verlet run ...
  Unit style    : metal
  Current step  : 70682
  Time step     : 0.001
Per MPI rank memory allocation (min/avg/max) = 18.2 | 18.2 | 18.2 Mbytes
Step Temp Press TotEng PotEng Enthalpy Volume 
   70682    169.20761   -47.331531   -83448.851   -83878.654   -83467.901    644847.88 
   70702    170.19344   -48.163516   -83451.148   -83883.455   -83470.533    644817.43 
   71177    132.03767     89.91076   -83644.657   -83980.045   -83608.525    643865.61 
Loop time of 40.2534 on 1 procs for 495 steps with 19652 atoms

Performance: 1.062 ns/day, 22.589 hours/ns, 12.297 timesteps/s
100.0% CPU use with 1 MPI tasks x no OpenMP threads

MPI task timing breakdown:
Section |  min time  |  avg time  |  max time  |%varavg| %total
---------------------------------------------------------------
Pair    | 19.747     | 19.747     | 19.747     |   0.0 | 49.06
Neigh   | 19.24      | 19.24      | 19.24      |   0.0 | 47.80
Comm    | 0.41871    | 0.41871    | 0.41871    |   0.0 |  1.04
Output  | 0.074575   | 0.074575   | 0.074575   |   0.0 |  0.19
Modify  | 0.61407    | 0.61407    | 0.61407    |   0.0 |  1.53
Other   |            | 0.159      |            |       |  0.40

Nlocal:    19652 ave 19652 max 19652 min
Histogram: 1 0 0 0 0 0 0 0 0 0
Nghost:    14051 ave 14051 max 14051 min
Histogram: 1 0 0 0 0 0 0 0 0 0
Neighs:    712291 ave 712291 max 712291 min
Histogram: 1 0 0 0 0 0 0 0 0 0

Total # of neighbors = 712291
Ave neighs/atom = 36.2452
Neighbor list builds = 495
Dangerous builds not checked
Setting up Verlet run ...
  Unit style    : metal
  Current step  : 71177
  Time step     : 0.001
Per MPI rank memory allocation (min/avg/max) = 18.2 | 18.2 | 18.2 Mbytes
Step Temp Press TotEng PotEng Enthalpy Volume 
   71177    132.03767     89.91076   -83644.657   -83980.045   -83608.525    643865.61 
   71349    122.28853   -94.881654   -83698.227   -84008.851    -83736.36    643911.72 
Loop time of 12.3261 on 1 procs for 172 steps with 19652 atoms

Performance: 1.206 ns/day, 19.907 hours/ns, 13.954 timesteps/s
100.0% CPU use with 1 MPI tasks x no OpenMP threads

MPI task timing breakdown:
Section |  min time  |  avg time  |  max time  |%varavg| %total
---------------------------------------------------------------
Pair    | 5.9301     | 5.9301     | 5.9301     |   0.0 | 48.11
Neigh   | 6.043      | 6.043      | 6.043      |   0.0 | 49.03
Comm    | 0.12474    | 0.12474    | 0.12474    |   0.0 |  1.01
Output  | 0.00012207 | 0.00012207 | 0.00012207 |   0.0 |  0.00
Modify  | 0.18037    | 0.18037    | 0.18037    |   0.0 |  1.46
Other   |            | 0.0478     |            |       |  0.39

Nlocal:    19652 ave 19652 max 19652 min
Histogram: 1 0 0 0 0 0 0 0 0 0
Nghost:    14041 ave 14041 max 14041 min
Histogram: 1 0 0 0 0 0 0 0 0 0
Neighs:    712083 ave 712083 max 712083 min
Histogram: 1 0 0 0 0 0 0 0 0 0

Total # of neighbors = 712083
Ave neighs/atom = 36.2346
Neighbor list builds = 172
Dangerous builds not checked
Total wall time: 1:44:25
