LAMMPS (12 Dec 2018)
Lattice spacing in x,y,z = 4 4 4
Created orthogonal box = (0 0 0) to (68 68 68)
  1 by 1 by 1 MPI processor grid
Created 19652 atoms
  Time spent = 0.00222516 secs
Setting atom values ...
  0 settings made for type/fraction
Neighbor list info ...
  update every 1 steps, delay 0 steps, check no
  max neighbors/atom: 2000, page size: 100000
  master list distance cutoff = 8.5
  ghost atom cutoff = 8.5
  binsize = 4.25, bins = 16 16 16
  1 neighbor lists, perpetual/occasional/extra = 1 0 0
  (1) pair eam/alloy, perpetual
      attributes: half, newton on
      pair build: half/bin/atomonly/newton
      stencil: half/bin/3d/newton
      bin: standard
Setting up Verlet run ...
  Unit style    : metal
  Current step  : 0
  Time step     : 0.001
Per MPI rank memory allocation (min/avg/max) = 18.19 | 18.19 | 18.19 Mbytes
Step Temp Press TotEng PotEng Enthalpy 
       0          300    658513.09   -100564.08   -101326.11    28671.107 
    1000    267.40002    570119.32   -100564.02   -101243.24    11323.629 
Loop time of 128.365 on 1 procs for 1000 steps with 19652 atoms

Performance: 0.673 ns/day, 35.657 hours/ns, 7.790 timesteps/s
99.9% CPU use with 1 MPI tasks x no OpenMP threads

MPI task timing breakdown:
Section |  min time  |  avg time  |  max time  |%varavg| %total
---------------------------------------------------------------
Pair    | 70.848     | 70.848     | 70.848     |   0.0 | 55.19
Neigh   | 55.912     | 55.912     | 55.912     |   0.0 | 43.56
Comm    | 0.96223    | 0.96223    | 0.96223    |   0.0 |  0.75
Output  | 0.00020003 | 0.00020003 | 0.00020003 |   0.0 |  0.00
Modify  | 0.33454    | 0.33454    | 0.33454    |   0.0 |  0.26
Other   |            | 0.3086     |            |       |  0.24

Nlocal:    19652 ave 19652 max 19652 min
Histogram: 1 0 0 0 0 0 0 0 0 0
Nghost:    19485 ave 19485 max 19485 min
Histogram: 1 0 0 0 0 0 0 0 0 0
Neighs:    1.58028e+06 ave 1.58028e+06 max 1.58028e+06 min
Histogram: 1 0 0 0 0 0 0 0 0 0

Total # of neighbors = 1580275
Ave neighs/atom = 80.4129
Neighbor list builds = 1000
Dangerous builds not checked
Setting up Verlet run ...
  Unit style    : metal
  Current step  : 1000
  Time step     : 0.001
Per MPI rank memory allocation (min/avg/max) = 18.19 | 18.19 | 18.19 Mbytes
Step Temp Press TotEng PotEng Enthalpy 
    1000    267.40002    570119.32   -100564.02   -101243.24    11323.629 
    2000    302.52359   -13.131633   -122826.98   -123595.42   -122830.78 
Loop time of 103.24 on 1 procs for 1000 steps with 19652 atoms

Performance: 0.837 ns/day, 28.678 hours/ns, 9.686 timesteps/s
99.4% CPU use with 1 MPI tasks x no OpenMP threads

MPI task timing breakdown:
Section |  min time  |  avg time  |  max time  |%varavg| %total
---------------------------------------------------------------
Pair    | 53.412     | 53.412     | 53.412     |   0.0 | 51.74
Neigh   | 47.535     | 47.535     | 47.535     |   0.0 | 46.04
Comm    | 0.83861    | 0.83861    | 0.83861    |   0.0 |  0.81
Output  | 0.00013089 | 0.00013089 | 0.00013089 |   0.0 |  0.00
Modify  | 1.1582     | 1.1582     | 1.1582     |   0.0 |  1.12
Other   |            | 0.2962     |            |       |  0.29

Nlocal:    19652 ave 19652 max 19652 min
Histogram: 1 0 0 0 0 0 0 0 0 0
Nghost:    14808 ave 14808 max 14808 min
Histogram: 1 0 0 0 0 0 0 0 0 0
Neighs:    1.0598e+06 ave 1.0598e+06 max 1.0598e+06 min
Histogram: 1 0 0 0 0 0 0 0 0 0

Total # of neighbors = 1059797
Ave neighs/atom = 53.9282
Neighbor list builds = 1000
Dangerous builds not checked
Setting up Verlet run ...
  Unit style    : metal
  Current step  : 2000
  Time step     : 0.001
Per MPI rank memory allocation (min/avg/max) = 18.19 | 18.19 | 18.19 Mbytes
Step Temp Press TotEng PotEng Enthalpy 
    2000    302.52359   -13.131633   -122826.98   -123595.42   -122830.78 
    6667    1549.7687   -1319.4486   -115605.42   -119541.97      -115996 
   10000    2381.9765    584.83312   -107922.05   -113972.49   -107743.46 
Loop time of 756.911 on 1 procs for 8000 steps with 19652 atoms

Performance: 0.913 ns/day, 26.282 hours/ns, 10.569 timesteps/s
99.8% CPU use with 1 MPI tasks x no OpenMP threads

MPI task timing breakdown:
Section |  min time  |  avg time  |  max time  |%varavg| %total
---------------------------------------------------------------
Pair    | 388.72     | 388.72     | 388.72     |   0.0 | 51.36
Neigh   | 350.47     | 350.47     | 350.47     |   0.0 | 46.30
Comm    | 6.3173     | 6.3173     | 6.3173     |   0.0 |  0.83
Output  | 0.040792   | 0.040792   | 0.040792   |   0.0 |  0.01
Modify  | 9.0104     | 9.0104     | 9.0104     |   0.0 |  1.19
Other   |            | 2.357      |            |       |  0.31

Nlocal:    19652 ave 19652 max 19652 min
Histogram: 1 0 0 0 0 0 0 0 0 0
Nghost:    15475 ave 15475 max 15475 min
Histogram: 1 0 0 0 0 0 0 0 0 0
Neighs:    1.00499e+06 ave 1.00499e+06 max 1.00499e+06 min
Histogram: 1 0 0 0 0 0 0 0 0 0

Total # of neighbors = 1004986
Ave neighs/atom = 51.1391
Neighbor list builds = 8000
Dangerous builds not checked
Setting up Verlet run ...
  Unit style    : metal
  Current step  : 10000
  Time step     : 0.001
Per MPI rank memory allocation (min/avg/max) = 18.19 | 18.19 | 18.19 Mbytes
Step Temp Press TotEng PotEng Enthalpy 
   10000    2381.9765    584.83312   -107922.05   -113972.49   -107743.46 
   13334    2432.7312   -324.01403   -106534.73   -112714.09   -106634.88 
   20001    2444.8458   -1536.2672   -106451.52   -112661.65   -106926.92 
   26668    2442.1953    1371.8615    -106477.1    -112680.5   -106054.33 
   33335    2442.5387    888.21814   -106464.98   -112669.25   -106190.99 
   40000    2452.6848    810.09364    -106475.2   -112705.24   -106225.53 
Loop time of 3608.54 on 1 procs for 30000 steps with 19652 atoms

Performance: 0.718 ns/day, 33.412 hours/ns, 8.314 timesteps/s
98.2% CPU use with 1 MPI tasks x no OpenMP threads

MPI task timing breakdown:
Section |  min time  |  avg time  |  max time  |%varavg| %total
---------------------------------------------------------------
Pair    | 1825.1     | 1825.1     | 1825.1     |   0.0 | 50.58
Neigh   | 1698.6     | 1698.6     | 1698.6     |   0.0 | 47.07
Comm    | 30.123     | 30.123     | 30.123     |   0.0 |  0.83
Output  | 0.23037    | 0.23037    | 0.23037    |   0.0 |  0.01
Modify  | 43.418     | 43.418     | 43.418     |   0.0 |  1.20
Other   |            | 11.03      |            |       |  0.31

Nlocal:    19652 ave 19652 max 19652 min
Histogram: 1 0 0 0 0 0 0 0 0 0
Nghost:    15610 ave 15610 max 15610 min
Histogram: 1 0 0 0 0 0 0 0 0 0
Neighs:    997552 ave 997552 max 997552 min
Histogram: 1 0 0 0 0 0 0 0 0 0

Total # of neighbors = 997552
Ave neighs/atom = 50.7608
Neighbor list builds = 30000
Dangerous builds not checked
Setting up Verlet run ...
  Unit style    : metal
  Current step  : 40000
  Time step     : 0.001
Per MPI rank memory allocation (min/avg/max) = 18.19 | 18.19 | 18.19 Mbytes
Step Temp Press TotEng PotEng Enthalpy 
   40000    2452.6848    810.09364    -106475.2   -112705.24   -106225.53 
   40002    2452.6119    815.79093    -106475.2   -112705.06   -106223.77 
   40495    2407.2432    1591.7643   -106744.53   -112859.14   -106254.97 
Loop time of 64.5414 on 1 procs for 495 steps with 19652 atoms

Performance: 0.663 ns/day, 36.218 hours/ns, 7.670 timesteps/s
97.0% CPU use with 1 MPI tasks x no OpenMP threads

MPI task timing breakdown:
Section |  min time  |  avg time  |  max time  |%varavg| %total
---------------------------------------------------------------
Pair    | 32.768     | 32.768     | 32.768     |   0.0 | 50.77
Neigh   | 30.164     | 30.164     | 30.164     |   0.0 | 46.74
Comm    | 0.53878    | 0.53878    | 0.53878    |   0.0 |  0.83
Output  | 0.060386   | 0.060386   | 0.060386   |   0.0 |  0.09
Modify  | 0.80447    | 0.80447    | 0.80447    |   0.0 |  1.25
Other   |            | 0.2061     |            |       |  0.32

Nlocal:    19652 ave 19652 max 19652 min
Histogram: 1 0 0 0 0 0 0 0 0 0
Nghost:    15640 ave 15640 max 15640 min
Histogram: 1 0 0 0 0 0 0 0 0 0
Neighs:    1.00005e+06 ave 1.00005e+06 max 1.00005e+06 min
Histogram: 1 0 0 0 0 0 0 0 0 0

Total # of neighbors = 1000053
Ave neighs/atom = 50.8881
Neighbor list builds = 495
Dangerous builds not checked
Setting up Verlet run ...
  Unit style    : metal
  Current step  : 40495
  Time step     : 0.001
Per MPI rank memory allocation (min/avg/max) = 18.19 | 18.19 | 18.19 Mbytes
Step Temp Press TotEng PotEng Enthalpy 
   40495    2407.2432    1591.7643   -106744.53   -112859.14   -106254.97 
   46667    2403.1829     1725.001   -106782.03   -112886.33   -106251.71 
Loop time of 806.326 on 1 procs for 6172 steps with 19652 atoms

Performance: 0.661 ns/day, 36.290 hours/ns, 7.654 timesteps/s
98.0% CPU use with 1 MPI tasks x no OpenMP threads

MPI task timing breakdown:
Section |  min time  |  avg time  |  max time  |%varavg| %total
---------------------------------------------------------------
Pair    | 411.63     | 411.63     | 411.63     |   0.0 | 51.05
Neigh   | 375.57     | 375.57     | 375.57     |   0.0 | 46.58
Comm    | 6.7859     | 6.7859     | 6.7859     |   0.0 |  0.84
Output  | 0.0002048  | 0.0002048  | 0.0002048  |   0.0 |  0.00
Modify  | 9.864      | 9.864      | 9.864      |   0.0 |  1.22
Other   |            | 2.471      |            |       |  0.31

Nlocal:    19652 ave 19652 max 19652 min
Histogram: 1 0 0 0 0 0 0 0 0 0
Nghost:    15602 ave 15602 max 15602 min
Histogram: 1 0 0 0 0 0 0 0 0 0
Neighs:    1.00086e+06 ave 1.00086e+06 max 1.00086e+06 min
Histogram: 1 0 0 0 0 0 0 0 0 0

Total # of neighbors = 1000860
Ave neighs/atom = 50.9292
Neighbor list builds = 6172
Dangerous builds not checked
Setting up Verlet run ...
  Unit style    : metal
  Current step  : 46667
  Time step     : 0.001
Per MPI rank memory allocation (min/avg/max) = 18.19 | 18.19 | 18.19 Mbytes
Step Temp Press TotEng PotEng Enthalpy 
   46667    2403.1829     1725.001   -106782.03   -112886.33   -106251.71 
   46669    2402.5457    1737.1857   -106782.03   -112884.72   -106247.97 
   47162    2383.6897    1184.9271   -107008.18   -113062.97   -106644.48 
Loop time of 60.9644 on 1 procs for 495 steps with 19652 atoms

Performance: 0.702 ns/day, 34.211 hours/ns, 8.119 timesteps/s
99.2% CPU use with 1 MPI tasks x no OpenMP threads

MPI task timing breakdown:
Section |  min time  |  avg time  |  max time  |%varavg| %total
---------------------------------------------------------------
Pair    | 31.213     | 31.213     | 31.213     |   0.0 | 51.20
Neigh   | 28.236     | 28.236     | 28.236     |   0.0 | 46.32
Comm    | 0.51134    | 0.51134    | 0.51134    |   0.0 |  0.84
Output  | 0.066058   | 0.066058   | 0.066058   |   0.0 |  0.11
Modify  | 0.74548    | 0.74548    | 0.74548    |   0.0 |  1.22
Other   |            | 0.1925     |            |       |  0.32

Nlocal:    19652 ave 19652 max 19652 min
Histogram: 1 0 0 0 0 0 0 0 0 0
Nghost:    15537 ave 15537 max 15537 min
Histogram: 1 0 0 0 0 0 0 0 0 0
Neighs:    1.00241e+06 ave 1.00241e+06 max 1.00241e+06 min
Histogram: 1 0 0 0 0 0 0 0 0 0

Total # of neighbors = 1002411
Ave neighs/atom = 51.0081
Neighbor list builds = 495
Dangerous builds not checked
Setting up Verlet run ...
  Unit style    : metal
  Current step  : 47162
  Time step     : 0.001
Per MPI rank memory allocation (min/avg/max) = 18.19 | 18.19 | 18.19 Mbytes
Step Temp Press TotEng PotEng Enthalpy 
   47162    2383.6897    1184.9271   -107008.18   -113062.97   -106644.48 
   53334    2343.2351   -615.95879    -107139.8   -113091.83   -107329.45 
Loop time of 701.798 on 1 procs for 6172 steps with 19652 atoms

Performance: 0.760 ns/day, 31.585 hours/ns, 8.795 timesteps/s
99.9% CPU use with 1 MPI tasks x no OpenMP threads

MPI task timing breakdown:
Section |  min time  |  avg time  |  max time  |%varavg| %total
---------------------------------------------------------------
Pair    | 356.1      | 356.1      | 356.1      |   0.0 | 50.74
Neigh   | 329.08     | 329.08     | 329.08     |   0.0 | 46.89
Comm    | 5.9329     | 5.9329     | 5.9329     |   0.0 |  0.85
Output  | 0.00028801 | 0.00028801 | 0.00028801 |   0.0 |  0.00
Modify  | 8.4976     | 8.4976     | 8.4976     |   0.0 |  1.21
Other   |            | 2.182      |            |       |  0.31

Nlocal:    19652 ave 19652 max 19652 min
Histogram: 1 0 0 0 0 0 0 0 0 0
Nghost:    15607 ave 15607 max 15607 min
Histogram: 1 0 0 0 0 0 0 0 0 0
Neighs:    998815 ave 998815 max 998815 min
Histogram: 1 0 0 0 0 0 0 0 0 0

Total # of neighbors = 998815
Ave neighs/atom = 50.8251
Neighbor list builds = 6172
Dangerous builds not checked
Setting up Verlet run ...
  Unit style    : metal
  Current step  : 53334
  Time step     : 0.001
Per MPI rank memory allocation (min/avg/max) = 18.19 | 18.19 | 18.19 Mbytes
Step Temp Press TotEng PotEng Enthalpy 
   53334    2343.2351   -615.95879    -107139.8   -113091.83   -107329.45 
   53336    2341.7091   -614.70167   -107139.79   -113087.94   -107329.06 
   53829    2321.7287   -426.45463   -107295.67   -113193.07   -107426.78 
Loop time of 55.6459 on 1 procs for 495 steps with 19652 atoms

Performance: 0.769 ns/day, 31.227 hours/ns, 8.896 timesteps/s
99.8% CPU use with 1 MPI tasks x no OpenMP threads

MPI task timing breakdown:
Section |  min time  |  avg time  |  max time  |%varavg| %total
---------------------------------------------------------------
Pair    | 28.35      | 28.35      | 28.35      |   0.0 | 50.95
Neigh   | 25.886     | 25.886     | 25.886     |   0.0 | 46.52
Comm    | 0.47975    | 0.47975    | 0.47975    |   0.0 |  0.86
Output  | 0.068077   | 0.068077   | 0.068077   |   0.0 |  0.12
Modify  | 0.687      | 0.687      | 0.687      |   0.0 |  1.23
Other   |            | 0.1751     |            |       |  0.31

Nlocal:    19652 ave 19652 max 19652 min
Histogram: 1 0 0 0 0 0 0 0 0 0
Nghost:    15629 ave 15629 max 15629 min
Histogram: 1 0 0 0 0 0 0 0 0 0
Neighs:    1.00071e+06 ave 1.00071e+06 max 1.00071e+06 min
Histogram: 1 0 0 0 0 0 0 0 0 0

Total # of neighbors = 1000711
Ave neighs/atom = 50.9216
Neighbor list builds = 495
Dangerous builds not checked
Setting up Verlet run ...
  Unit style    : metal
  Current step  : 53829
  Time step     : 0.001
Per MPI rank memory allocation (min/avg/max) = 18.19 | 18.19 | 18.19 Mbytes
Step Temp Press TotEng PotEng Enthalpy 
   53829    2321.7287   -426.45463   -107295.67   -113193.07   -107426.78 
   60001     2301.167    1560.9582   -107457.45   -113302.62   -106979.52 
Loop time of 748.628 on 1 procs for 6172 steps with 19652 atoms

Performance: 0.712 ns/day, 33.693 hours/ns, 8.244 timesteps/s
99.7% CPU use with 1 MPI tasks x no OpenMP threads

MPI task timing breakdown:
Section |  min time  |  avg time  |  max time  |%varavg| %total
---------------------------------------------------------------
Pair    | 384.99     | 384.99     | 384.99     |   0.0 | 51.43
Neigh   | 345.75     | 345.75     | 345.75     |   0.0 | 46.19
Comm    | 6.3566     | 6.3566     | 6.3566     |   0.0 |  0.85
Output  | 0.00034404 | 0.00034404 | 0.00034404 |   0.0 |  0.00
Modify  | 9.1675     | 9.1675     | 9.1675     |   0.0 |  1.22
Other   |            | 2.354      |            |       |  0.31

Nlocal:    19652 ave 19652 max 19652 min
Histogram: 1 0 0 0 0 0 0 0 0 0
Nghost:    15686 ave 15686 max 15686 min
Histogram: 1 0 0 0 0 0 0 0 0 0
Neighs:    1.00498e+06 ave 1.00498e+06 max 1.00498e+06 min
Histogram: 1 0 0 0 0 0 0 0 0 0

Total # of neighbors = 1004981
Ave neighs/atom = 51.1389
Neighbor list builds = 6172
Dangerous builds not checked
Setting up Verlet run ...
  Unit style    : metal
  Current step  : 60001
  Time step     : 0.001
Per MPI rank memory allocation (min/avg/max) = 18.19 | 18.19 | 18.19 Mbytes
Step Temp Press TotEng PotEng Enthalpy 
   60001     2301.167    1560.9582   -107457.45   -113302.62   -106979.52 
   60003    2302.1245    1535.4004   -107457.45   -113305.05   -106987.34 
   60496    2262.2794    1354.8369      -107734    -113480.4   -107319.76 
Loop time of 55.6257 on 1 procs for 495 steps with 19652 atoms

Performance: 0.769 ns/day, 31.215 hours/ns, 8.899 timesteps/s
99.9% CPU use with 1 MPI tasks x no OpenMP threads

MPI task timing breakdown:
Section |  min time  |  avg time  |  max time  |%varavg| %total
---------------------------------------------------------------
Pair    | 28.329     | 28.329     | 28.329     |   0.0 | 50.93
Neigh   | 25.89      | 25.89      | 25.89      |   0.0 | 46.54
Comm    | 0.48012    | 0.48012    | 0.48012    |   0.0 |  0.86
Output  | 0.061985   | 0.061985   | 0.061985   |   0.0 |  0.11
Modify  | 0.6858     | 0.6858     | 0.6858     |   0.0 |  1.23
Other   |            | 0.1779     |            |       |  0.32

Nlocal:    19652 ave 19652 max 19652 min
Histogram: 1 0 0 0 0 0 0 0 0 0
Nghost:    15676 ave 15676 max 15676 min
Histogram: 1 0 0 0 0 0 0 0 0 0
Neighs:    1.00657e+06 ave 1.00657e+06 max 1.00657e+06 min
Histogram: 1 0 0 0 0 0 0 0 0 0

Total # of neighbors = 1006573
Ave neighs/atom = 51.2199
Neighbor list builds = 495
Dangerous builds not checked
Setting up Verlet run ...
  Unit style    : metal
  Current step  : 60496
  Time step     : 0.001
Per MPI rank memory allocation (min/avg/max) = 18.19 | 18.19 | 18.19 Mbytes
Step Temp Press TotEng PotEng Enthalpy 
   60496    2262.2794    1354.8369      -107734    -113480.4   -107319.76 
   66668    2248.9241   -860.87214   -107832.65   -113545.13    -108096.7 
Loop time of 715.564 on 1 procs for 6172 steps with 19652 atoms

Performance: 0.745 ns/day, 32.205 hours/ns, 8.625 timesteps/s
99.9% CPU use with 1 MPI tasks x no OpenMP threads

MPI task timing breakdown:
Section |  min time  |  avg time  |  max time  |%varavg| %total
---------------------------------------------------------------
Pair    | 367        | 367        | 367        |   0.0 | 51.29
Neigh   | 331.54     | 331.54     | 331.54     |   0.0 | 46.33
Comm    | 6.0911     | 6.0911     | 6.0911     |   0.0 |  0.85
Output  | 0.00022101 | 0.00022101 | 0.00022101 |   0.0 |  0.00
Modify  | 8.6776     | 8.6776     | 8.6776     |   0.0 |  1.21
Other   |            | 2.248      |            |       |  0.31

Nlocal:    19652 ave 19652 max 19652 min
Histogram: 1 0 0 0 0 0 0 0 0 0
Nghost:    15619 ave 15619 max 15619 min
Histogram: 1 0 0 0 0 0 0 0 0 0
Neighs:    1.00316e+06 ave 1.00316e+06 max 1.00316e+06 min
Histogram: 1 0 0 0 0 0 0 0 0 0

Total # of neighbors = 1003160
Ave neighs/atom = 51.0462
Neighbor list builds = 6172
Dangerous builds not checked
Setting up Verlet run ...
  Unit style    : metal
  Current step  : 66668
  Time step     : 0.001
Per MPI rank memory allocation (min/avg/max) = 18.19 | 18.19 | 18.19 Mbytes
Step Temp Press TotEng PotEng Enthalpy 
   66668    2248.9241   -860.87214   -107832.65   -113545.13    -108096.7 
   66670    2248.9616   -853.12473   -107832.65   -113545.22   -108094.32 
   67163    2220.8198   -747.16791   -107860.47   -113501.55   -108089.64 
Loop time of 64.2746 on 1 procs for 495 steps with 19652 atoms

Performance: 0.665 ns/day, 36.069 hours/ns, 7.701 timesteps/s
99.5% CPU use with 1 MPI tasks x no OpenMP threads

MPI task timing breakdown:
Section |  min time  |  avg time  |  max time  |%varavg| %total
---------------------------------------------------------------
Pair    | 33.119     | 33.119     | 33.119     |   0.0 | 51.53
Neigh   | 29.525     | 29.525     | 29.525     |   0.0 | 45.94
Comm    | 0.5478     | 0.5478     | 0.5478     |   0.0 |  0.85
Output  | 0.065841   | 0.065841   | 0.065841   |   0.0 |  0.10
Modify  | 0.81593    | 0.81593    | 0.81593    |   0.0 |  1.27
Other   |            | 0.2013     |            |       |  0.31

Nlocal:    19652 ave 19652 max 19652 min
Histogram: 1 0 0 0 0 0 0 0 0 0
Nghost:    15568 ave 15568 max 15568 min
Histogram: 1 0 0 0 0 0 0 0 0 0
Neighs:    1.00291e+06 ave 1.00291e+06 max 1.00291e+06 min
Histogram: 1 0 0 0 0 0 0 0 0 0

Total # of neighbors = 1002912
Ave neighs/atom = 51.0336
Neighbor list builds = 495
Dangerous builds not checked
Setting up Verlet run ...
  Unit style    : metal
  Current step  : 67163
  Time step     : 0.001
Per MPI rank memory allocation (min/avg/max) = 18.19 | 18.19 | 18.19 Mbytes
Step Temp Press TotEng PotEng Enthalpy 
   67163    2220.8198   -747.16791   -107860.47   -113501.55   -108089.64 
   73335    2191.0581   -659.40655   -108100.36   -113665.85   -108302.25 
Loop time of 804.736 on 1 procs for 6172 steps with 19652 atoms

Performance: 0.663 ns/day, 36.218 hours/ns, 7.670 timesteps/s
99.3% CPU use with 1 MPI tasks x no OpenMP threads

MPI task timing breakdown:
Section |  min time  |  avg time  |  max time  |%varavg| %total
---------------------------------------------------------------
Pair    | 415.52     | 415.52     | 415.52     |   0.0 | 51.63
Neigh   | 370.02     | 370.02     | 370.02     |   0.0 | 45.98
Comm    | 6.8198     | 6.8198     | 6.8198     |   0.0 |  0.85
Output  | 0.000211   | 0.000211   | 0.000211   |   0.0 |  0.00
Modify  | 9.9125     | 9.9125     | 9.9125     |   0.0 |  1.23
Other   |            | 2.46       |            |       |  0.31

Nlocal:    19652 ave 19652 max 19652 min
Histogram: 1 0 0 0 0 0 0 0 0 0
Nghost:    15592 ave 15592 max 15592 min
Histogram: 1 0 0 0 0 0 0 0 0 0
Neighs:    1.005e+06 ave 1.005e+06 max 1.005e+06 min
Histogram: 1 0 0 0 0 0 0 0 0 0

Total # of neighbors = 1005002
Ave neighs/atom = 51.1399
Neighbor list builds = 6172
Dangerous builds not checked
Setting up Verlet run ...
  Unit style    : metal
  Current step  : 73335
  Time step     : 0.001
Per MPI rank memory allocation (min/avg/max) = 18.19 | 18.19 | 18.19 Mbytes
Step Temp Press TotEng PotEng Enthalpy 
   73335    2191.0581   -659.40655   -108100.36   -113665.85   -108302.25 
   73337    2192.2189   -656.58605   -108100.35   -113668.79   -108301.38 
   73830    2168.5709   -469.27857   -108298.86   -113807.22   -108442.36 
Loop time of 63.5976 on 1 procs for 495 steps with 19652 atoms

Performance: 0.672 ns/day, 35.689 hours/ns, 7.783 timesteps/s
99.5% CPU use with 1 MPI tasks x no OpenMP threads

MPI task timing breakdown:
Section |  min time  |  avg time  |  max time  |%varavg| %total
---------------------------------------------------------------
Pair    | 32.683     | 32.683     | 32.683     |   0.0 | 51.39
Neigh   | 29.339     | 29.339     | 29.339     |   0.0 | 46.13
Comm    | 0.52683    | 0.52683    | 0.52683    |   0.0 |  0.83
Output  | 0.064213   | 0.064213   | 0.064213   |   0.0 |  0.10
Modify  | 0.79028    | 0.79028    | 0.79028    |   0.0 |  1.24
Other   |            | 0.1952     |            |       |  0.31

Nlocal:    19652 ave 19652 max 19652 min
Histogram: 1 0 0 0 0 0 0 0 0 0
Nghost:    15638 ave 15638 max 15638 min
Histogram: 1 0 0 0 0 0 0 0 0 0
Neighs:    1.00653e+06 ave 1.00653e+06 max 1.00653e+06 min
Histogram: 1 0 0 0 0 0 0 0 0 0

Total # of neighbors = 1006531
Ave neighs/atom = 51.2177
Neighbor list builds = 495
Dangerous builds not checked
Setting up Verlet run ...
  Unit style    : metal
  Current step  : 73830
  Time step     : 0.001
Per MPI rank memory allocation (min/avg/max) = 18.19 | 18.19 | 18.19 Mbytes
Step Temp Press TotEng PotEng Enthalpy 
   73830    2168.5709   -469.27857   -108298.86   -113807.22   -108442.36 
   80002    2171.3167   -234.56229   -108282.71   -113798.05   -108354.41 
Loop time of 805.997 on 1 procs for 6172 steps with 19652 atoms

Performance: 0.662 ns/day, 36.275 hours/ns, 7.658 timesteps/s
99.4% CPU use with 1 MPI tasks x no OpenMP threads

MPI task timing breakdown:
Section |  min time  |  avg time  |  max time  |%varavg| %total
---------------------------------------------------------------
Pair    | 417.54     | 417.54     | 417.54     |   0.0 | 51.80
Neigh   | 369.34     | 369.34     | 369.34     |   0.0 | 45.82
Comm    | 6.7539     | 6.7539     | 6.7539     |   0.0 |  0.84
Output  | 0.00024009 | 0.00024009 | 0.00024009 |   0.0 |  0.00
Modify  | 9.9012     | 9.9012     | 9.9012     |   0.0 |  1.23
Other   |            | 2.453      |            |       |  0.30

Nlocal:    19652 ave 19652 max 19652 min
Histogram: 1 0 0 0 0 0 0 0 0 0
Nghost:    15696 ave 15696 max 15696 min
Histogram: 1 0 0 0 0 0 0 0 0 0
Neighs:    1.0071e+06 ave 1.0071e+06 max 1.0071e+06 min
Histogram: 1 0 0 0 0 0 0 0 0 0

Total # of neighbors = 1007097
Ave neighs/atom = 51.2465
Neighbor list builds = 6172
Dangerous builds not checked
Setting up Verlet run ...
  Unit style    : metal
  Current step  : 80002
  Time step     : 0.001
Per MPI rank memory allocation (min/avg/max) = 18.19 | 18.19 | 18.19 Mbytes
Step Temp Press TotEng PotEng Enthalpy 
   80002    2171.3167   -234.56229   -108282.71   -113798.05   -108354.41 
   80004    2171.7112   -229.26608   -108282.73   -113799.08   -108352.81 
   80497    2127.6886   -411.76653    -108573.7   -113978.22    -108699.4 
Loop time of 63.7727 on 1 procs for 495 steps with 19652 atoms

Performance: 0.671 ns/day, 35.787 hours/ns, 7.762 timesteps/s
99.6% CPU use with 1 MPI tasks x no OpenMP threads

MPI task timing breakdown:
Section |  min time  |  avg time  |  max time  |%varavg| %total
---------------------------------------------------------------
Pair    | 33.006     | 33.006     | 33.006     |   0.0 | 51.76
Neigh   | 29.181     | 29.181     | 29.181     |   0.0 | 45.76
Comm    | 0.5408     | 0.5408     | 0.5408     |   0.0 |  0.85
Output  | 0.062905   | 0.062905   | 0.062905   |   0.0 |  0.10
Modify  | 0.78736    | 0.78736    | 0.78736    |   0.0 |  1.23
Other   |            | 0.1946     |            |       |  0.31

Nlocal:    19652 ave 19652 max 19652 min
Histogram: 1 0 0 0 0 0 0 0 0 0
Nghost:    15717 ave 15717 max 15717 min
Histogram: 1 0 0 0 0 0 0 0 0 0
Neighs:    1.00858e+06 ave 1.00858e+06 max 1.00858e+06 min
Histogram: 1 0 0 0 0 0 0 0 0 0

Total # of neighbors = 1008578
Ave neighs/atom = 51.3219
Neighbor list builds = 495
Dangerous builds not checked
Setting up Verlet run ...
  Unit style    : metal
  Current step  : 80497
  Time step     : 0.001
Per MPI rank memory allocation (min/avg/max) = 18.19 | 18.19 | 18.19 Mbytes
Step Temp Press TotEng PotEng Enthalpy 
   80497    2127.6886   -411.76653    -108573.7   -113978.22    -108699.4 
   86669     2080.569   -1258.0546   -108758.47   -114043.31   -109142.77 
Loop time of 803.411 on 1 procs for 6172 steps with 19652 atoms

Performance: 0.664 ns/day, 36.158 hours/ns, 7.682 timesteps/s
99.6% CPU use with 1 MPI tasks x no OpenMP threads

MPI task timing breakdown:
Section |  min time  |  avg time  |  max time  |%varavg| %total
---------------------------------------------------------------
Pair    | 415.48     | 415.48     | 415.48     |   0.0 | 51.72
Neigh   | 368.95     | 368.95     | 368.95     |   0.0 | 45.92
Comm    | 6.6993     | 6.6993     | 6.6993     |   0.0 |  0.83
Output  | 0.00022817 | 0.00022817 | 0.00022817 |   0.0 |  0.00
Modify  | 9.8427     | 9.8427     | 9.8427     |   0.0 |  1.23
Other   |            | 2.434      |            |       |  0.30

Nlocal:    19652 ave 19652 max 19652 min
Histogram: 1 0 0 0 0 0 0 0 0 0
Nghost:    15641 ave 15641 max 15641 min
Histogram: 1 0 0 0 0 0 0 0 0 0
Neighs:    1.00819e+06 ave 1.00819e+06 max 1.00819e+06 min
Histogram: 1 0 0 0 0 0 0 0 0 0

Total # of neighbors = 1008186
Ave neighs/atom = 51.302
Neighbor list builds = 6172
Dangerous builds not checked
Setting up Verlet run ...
  Unit style    : metal
  Current step  : 86669
  Time step     : 0.001
Per MPI rank memory allocation (min/avg/max) = 18.19 | 18.19 | 18.19 Mbytes
Step Temp Press TotEng PotEng Enthalpy 
   86669     2080.569   -1258.0546   -108758.47   -114043.31   -109142.77 
   86671    2080.3209    -1255.687   -108758.46   -114042.66   -109142.03 
   87164    2065.6069    -998.6645   -108907.82   -114154.65   -109212.41 
Loop time of 61.55 on 1 procs for 495 steps with 19652 atoms

Performance: 0.695 ns/day, 34.540 hours/ns, 8.042 timesteps/s
99.6% CPU use with 1 MPI tasks x no OpenMP threads

MPI task timing breakdown:
Section |  min time  |  avg time  |  max time  |%varavg| %total
---------------------------------------------------------------
Pair    | 31.629     | 31.629     | 31.629     |   0.0 | 51.39
Neigh   | 28.361     | 28.361     | 28.361     |   0.0 | 46.08
Comm    | 0.52797    | 0.52797    | 0.52797    |   0.0 |  0.86
Output  | 0.065571   | 0.065571   | 0.065571   |   0.0 |  0.11
Modify  | 0.77368    | 0.77368    | 0.77368    |   0.0 |  1.26
Other   |            | 0.1931     |            |       |  0.31

Nlocal:    19652 ave 19652 max 19652 min
Histogram: 1 0 0 0 0 0 0 0 0 0
Nghost:    15676 ave 15676 max 15676 min
Histogram: 1 0 0 0 0 0 0 0 0 0
Neighs:    1.00947e+06 ave 1.00947e+06 max 1.00947e+06 min
Histogram: 1 0 0 0 0 0 0 0 0 0

Total # of neighbors = 1009471
Ave neighs/atom = 51.3673
Neighbor list builds = 495
Dangerous builds not checked
Setting up Verlet run ...
  Unit style    : metal
  Current step  : 87164
  Time step     : 0.001
Per MPI rank memory allocation (min/avg/max) = 18.19 | 18.19 | 18.19 Mbytes
Step Temp Press TotEng PotEng Enthalpy 
   87164    2065.6069    -998.6645   -108907.82   -114154.65   -109212.41 
   93336    2052.7948   -84.503049   -109012.31    -114226.6   -109038.03 
Loop time of 803.823 on 1 procs for 6172 steps with 19652 atoms

Performance: 0.663 ns/day, 36.177 hours/ns, 7.678 timesteps/s
99.4% CPU use with 1 MPI tasks x no OpenMP threads

MPI task timing breakdown:
Section |  min time  |  avg time  |  max time  |%varavg| %total
---------------------------------------------------------------
Pair    | 417.2      | 417.2      | 417.2      |   0.0 | 51.90
Neigh   | 367.62     | 367.62     | 367.62     |   0.0 | 45.73
Comm    | 6.7596     | 6.7596     | 6.7596     |   0.0 |  0.84
Output  | 0.00022006 | 0.00022006 | 0.00022006 |   0.0 |  0.00
Modify  | 9.8063     | 9.8063     | 9.8063     |   0.0 |  1.22
Other   |            | 2.437      |            |       |  0.30

Nlocal:    19652 ave 19652 max 19652 min
Histogram: 1 0 0 0 0 0 0 0 0 0
Nghost:    15668 ave 15668 max 15668 min
Histogram: 1 0 0 0 0 0 0 0 0 0
Neighs:    1.01204e+06 ave 1.01204e+06 max 1.01204e+06 min
Histogram: 1 0 0 0 0 0 0 0 0 0

Total # of neighbors = 1012042
Ave neighs/atom = 51.4982
Neighbor list builds = 6172
Dangerous builds not checked
Setting up Verlet run ...
  Unit style    : metal
  Current step  : 93336
  Time step     : 0.001
Per MPI rank memory allocation (min/avg/max) = 18.19 | 18.19 | 18.19 Mbytes
Step Temp Press TotEng PotEng Enthalpy 
   93336    2052.7948   -84.503049   -109012.31    -114226.6   -109038.03 
   93338    2052.7841   -88.120157   -109012.32   -114226.57   -109039.13 
   93831    2010.9677   -139.65327   -109226.18   -114334.22   -109268.66 
Loop time of 62.9771 on 1 procs for 495 steps with 19652 atoms

Performance: 0.679 ns/day, 35.341 hours/ns, 7.860 timesteps/s
99.4% CPU use with 1 MPI tasks x no OpenMP threads

MPI task timing breakdown:
Section |  min time  |  avg time  |  max time  |%varavg| %total
---------------------------------------------------------------
Pair    | 32.521     | 32.521     | 32.521     |   0.0 | 51.64
Neigh   | 28.868     | 28.868     | 28.868     |   0.0 | 45.84
Comm    | 0.53106    | 0.53106    | 0.53106    |   0.0 |  0.84
Output  | 0.066999   | 0.066999   | 0.066999   |   0.0 |  0.11
Modify  | 0.79214    | 0.79214    | 0.79214    |   0.0 |  1.26
Other   |            | 0.1971     |            |       |  0.31

Nlocal:    19652 ave 19652 max 19652 min
Histogram: 1 0 0 0 0 0 0 0 0 0
Nghost:    15652 ave 15652 max 15652 min
Histogram: 1 0 0 0 0 0 0 0 0 0
Neighs:    1.01246e+06 ave 1.01246e+06 max 1.01246e+06 min
Histogram: 1 0 0 0 0 0 0 0 0 0

Total # of neighbors = 1012464
Ave neighs/atom = 51.5196
Neighbor list builds = 495
Dangerous builds not checked
Setting up Verlet run ...
  Unit style    : metal
  Current step  : 93831
  Time step     : 0.001
Per MPI rank memory allocation (min/avg/max) = 18.19 | 18.19 | 18.19 Mbytes
Step Temp Press TotEng PotEng Enthalpy 
   93831    2010.9677   -139.65327   -109226.18   -114334.22   -109268.66 
  100003     2024.315    930.88523    -109226.6   -114368.55   -108943.95 
Loop time of 724.599 on 1 procs for 6172 steps with 19652 atoms

Performance: 0.736 ns/day, 32.611 hours/ns, 8.518 timesteps/s
99.8% CPU use with 1 MPI tasks x no OpenMP threads

MPI task timing breakdown:
Section |  min time  |  avg time  |  max time  |%varavg| %total
---------------------------------------------------------------
Pair    | 372.04     | 372.04     | 372.04     |   0.0 | 51.34
Neigh   | 335.47     | 335.47     | 335.47     |   0.0 | 46.30
Comm    | 6.078      | 6.078      | 6.078      |   0.0 |  0.84
Output  | 0.00021195 | 0.00021195 | 0.00021195 |   0.0 |  0.00
Modify  | 8.8019     | 8.8019     | 8.8019     |   0.0 |  1.21
Other   |            | 2.215      |            |       |  0.31

Nlocal:    19652 ave 19652 max 19652 min
Histogram: 1 0 0 0 0 0 0 0 0 0
Nghost:    15703 ave 15703 max 15703 min
Histogram: 1 0 0 0 0 0 0 0 0 0
Neighs:    1.01507e+06 ave 1.01507e+06 max 1.01507e+06 min
Histogram: 1 0 0 0 0 0 0 0 0 0

Total # of neighbors = 1015070
Ave neighs/atom = 51.6522
Neighbor list builds = 6172
Dangerous builds not checked
Setting up Verlet run ...
  Unit style    : metal
  Current step  : 100003
  Time step     : 0.001
Per MPI rank memory allocation (min/avg/max) = 18.19 | 18.19 | 18.19 Mbytes
Step Temp Press TotEng PotEng Enthalpy 
  100003     2024.315    930.88523    -109226.6   -114368.55   -108943.95 
  100005    2024.4729    932.62138   -109226.63   -114368.97   -108943.45 
  100498    1962.2889    1190.3101    -109540.6   -114524.99   -109179.77 
Loop time of 53.0298 on 1 procs for 495 steps with 19652 atoms

Performance: 0.806 ns/day, 29.759 hours/ns, 9.334 timesteps/s
100.0% CPU use with 1 MPI tasks x no OpenMP threads

MPI task timing breakdown:
Section |  min time  |  avg time  |  max time  |%varavg| %total
---------------------------------------------------------------
Pair    | 26.917     | 26.917     | 26.917     |   0.0 | 50.76
Neigh   | 24.797     | 24.797     | 24.797     |   0.0 | 46.76
Comm    | 0.44852    | 0.44852    | 0.44852    |   0.0 |  0.85
Output  | 0.055888   | 0.055888   | 0.055888   |   0.0 |  0.11
Modify  | 0.64851    | 0.64851    | 0.64851    |   0.0 |  1.22
Other   |            | 0.1633     |            |       |  0.31

Nlocal:    19652 ave 19652 max 19652 min
Histogram: 1 0 0 0 0 0 0 0 0 0
Nghost:    15729 ave 15729 max 15729 min
Histogram: 1 0 0 0 0 0 0 0 0 0
Neighs:    1.01662e+06 ave 1.01662e+06 max 1.01662e+06 min
Histogram: 1 0 0 0 0 0 0 0 0 0

Total # of neighbors = 1016619
Ave neighs/atom = 51.7311
Neighbor list builds = 495
Dangerous builds not checked
Setting up Verlet run ...
  Unit style    : metal
  Current step  : 100498
  Time step     : 0.001
Per MPI rank memory allocation (min/avg/max) = 18.19 | 18.19 | 18.19 Mbytes
Step Temp Press TotEng PotEng Enthalpy 
  100498    1962.2889    1190.3101    -109540.6   -114524.99   -109179.77 
  106670    1969.5087    544.96863   -109626.29   -114629.02   -109461.13 
Loop time of 702.691 on 1 procs for 6172 steps with 19652 atoms

Performance: 0.759 ns/day, 31.625 hours/ns, 8.783 timesteps/s
99.9% CPU use with 1 MPI tasks x no OpenMP threads

MPI task timing breakdown:
Section |  min time  |  avg time  |  max time  |%varavg| %total
---------------------------------------------------------------
Pair    | 358.29     | 358.29     | 358.29     |   0.0 | 50.99
Neigh   | 327.83     | 327.83     | 327.83     |   0.0 | 46.65
Comm    | 5.8885     | 5.8885     | 5.8885     |   0.0 |  0.84
Output  | 0.00017381 | 0.00017381 | 0.00017381 |   0.0 |  0.00
Modify  | 8.5254     | 8.5254     | 8.5254     |   0.0 |  1.21
Other   |            | 2.159      |            |       |  0.31

Nlocal:    19652 ave 19652 max 19652 min
Histogram: 1 0 0 0 0 0 0 0 0 0
Nghost:    15733 ave 15733 max 15733 min
Histogram: 1 0 0 0 0 0 0 0 0 0
Neighs:    1.01741e+06 ave 1.01741e+06 max 1.01741e+06 min
Histogram: 1 0 0 0 0 0 0 0 0 0

Total # of neighbors = 1017411
Ave neighs/atom = 51.7714
Neighbor list builds = 6172
Dangerous builds not checked
Setting up Verlet run ...
  Unit style    : metal
  Current step  : 106670
  Time step     : 0.001
Per MPI rank memory allocation (min/avg/max) = 18.19 | 18.19 | 18.19 Mbytes
Step Temp Press TotEng PotEng Enthalpy 
  106670    1969.5087    544.96863   -109626.29   -114629.02   -109461.13 
  106672    1970.2334    550.96935   -109626.31   -114630.89   -109459.33 
  107165    1921.5062      1031.69   -109877.59   -114758.39   -109565.38 
Loop time of 58.5055 on 1 procs for 495 steps with 19652 atoms

Performance: 0.731 ns/day, 32.831 hours/ns, 8.461 timesteps/s
99.8% CPU use with 1 MPI tasks x no OpenMP threads

MPI task timing breakdown:
Section |  min time  |  avg time  |  max time  |%varavg| %total
---------------------------------------------------------------
Pair    | 29.998     | 29.998     | 29.998     |   0.0 | 51.27
Neigh   | 27.028     | 27.028     | 27.028     |   0.0 | 46.20
Comm    | 0.49441    | 0.49441    | 0.49441    |   0.0 |  0.85
Output  | 0.058433   | 0.058433   | 0.058433   |   0.0 |  0.10
Modify  | 0.74147    | 0.74147    | 0.74147    |   0.0 |  1.27
Other   |            | 0.1852     |            |       |  0.32

Nlocal:    19652 ave 19652 max 19652 min
Histogram: 1 0 0 0 0 0 0 0 0 0
Nghost:    15675 ave 15675 max 15675 min
Histogram: 1 0 0 0 0 0 0 0 0 0
Neighs:    1.01895e+06 ave 1.01895e+06 max 1.01895e+06 min
Histogram: 1 0 0 0 0 0 0 0 0 0

Total # of neighbors = 1018948
Ave neighs/atom = 51.8496
Neighbor list builds = 495
Dangerous builds not checked
Setting up Verlet run ...
  Unit style    : metal
  Current step  : 107165
  Time step     : 0.001
Per MPI rank memory allocation (min/avg/max) = 18.19 | 18.19 | 18.19 Mbytes
Step Temp Press TotEng PotEng Enthalpy 
  107165    1921.5062      1031.69   -109877.59   -114758.39   -109565.38 
  113337    1890.2934    412.52894   -110118.13   -114919.65   -109993.39 
Loop time of 704.337 on 1 procs for 6172 steps with 19652 atoms

Performance: 0.757 ns/day, 31.699 hours/ns, 8.763 timesteps/s
99.9% CPU use with 1 MPI tasks x no OpenMP threads

MPI task timing breakdown:
Section |  min time  |  avg time  |  max time  |%varavg| %total
---------------------------------------------------------------
Pair    | 360.42     | 360.42     | 360.42     |   0.0 | 51.17
Neigh   | 327.38     | 327.38     | 327.38     |   0.0 | 46.48
Comm    | 5.874      | 5.874      | 5.874      |   0.0 |  0.83
Output  | 0.00017285 | 0.00017285 | 0.00017285 |   0.0 |  0.00
Modify  | 8.504      | 8.504      | 8.504      |   0.0 |  1.21
Other   |            | 2.157      |            |       |  0.31

Nlocal:    19652 ave 19652 max 19652 min
Histogram: 1 0 0 0 0 0 0 0 0 0
Nghost:    15777 ave 15777 max 15777 min
Histogram: 1 0 0 0 0 0 0 0 0 0
Neighs:    1.01941e+06 ave 1.01941e+06 max 1.01941e+06 min
Histogram: 1 0 0 0 0 0 0 0 0 0

Total # of neighbors = 1019411
Ave neighs/atom = 51.8731
Neighbor list builds = 6172
Dangerous builds not checked
Setting up Verlet run ...
  Unit style    : metal
  Current step  : 113337
  Time step     : 0.001
Per MPI rank memory allocation (min/avg/max) = 18.19 | 18.19 | 18.19 Mbytes
Step Temp Press TotEng PotEng Enthalpy 
  113337    1890.2934    412.52894   -110118.13   -114919.65   -109993.39 
  113339    1890.3783    402.36141   -110118.12   -114919.85   -109996.46 
  113832     1865.922    58.121288   -110193.46   -114933.07   -110175.88 
Loop time of 57.3149 on 1 procs for 495 steps with 19652 atoms

Performance: 0.746 ns/day, 32.163 hours/ns, 8.636 timesteps/s
99.9% CPU use with 1 MPI tasks x no OpenMP threads

MPI task timing breakdown:
Section |  min time  |  avg time  |  max time  |%varavg| %total
---------------------------------------------------------------
Pair    | 29.355     | 29.355     | 29.355     |   0.0 | 51.22
Neigh   | 26.554     | 26.554     | 26.554     |   0.0 | 46.33
Comm    | 0.47914    | 0.47914    | 0.47914    |   0.0 |  0.84
Output  | 0.040862   | 0.040862   | 0.040862   |   0.0 |  0.07
Modify  | 0.70719    | 0.70719    | 0.70719    |   0.0 |  1.23
Other   |            | 0.1787     |            |       |  0.31

Nlocal:    19652 ave 19652 max 19652 min
Histogram: 1 0 0 0 0 0 0 0 0 0
Nghost:    15753 ave 15753 max 15753 min
Histogram: 1 0 0 0 0 0 0 0 0 0
Neighs:    1.01975e+06 ave 1.01975e+06 max 1.01975e+06 min
Histogram: 1 0 0 0 0 0 0 0 0 0

Total # of neighbors = 1019746
Ave neighs/atom = 51.8902
Neighbor list builds = 495
Dangerous builds not checked
Setting up Verlet run ...
  Unit style    : metal
  Current step  : 113832
  Time step     : 0.001
Per MPI rank memory allocation (min/avg/max) = 18.19 | 18.19 | 18.19 Mbytes
Step Temp Press TotEng PotEng Enthalpy 
  113832     1865.922    58.121288   -110193.46   -114933.07   -110175.88 
  120004    1845.7392    103.57442   -110432.37   -115120.71   -110401.09 
Loop time of 694.77 on 1 procs for 6172 steps with 19652 atoms

Performance: 0.768 ns/day, 31.269 hours/ns, 8.884 timesteps/s
99.9% CPU use with 1 MPI tasks x no OpenMP threads

MPI task timing breakdown:
Section |  min time  |  avg time  |  max time  |%varavg| %total
---------------------------------------------------------------
Pair    | 354.64     | 354.64     | 354.64     |   0.0 | 51.04
Neigh   | 323.78     | 323.78     | 323.78     |   0.0 | 46.60
Comm    | 5.8232     | 5.8232     | 5.8232     |   0.0 |  0.84
Output  | 0.00021291 | 0.00021291 | 0.00021291 |   0.0 |  0.00
Modify  | 8.3939     | 8.3939     | 8.3939     |   0.0 |  1.21
Other   |            | 2.139      |            |       |  0.31

Nlocal:    19652 ave 19652 max 19652 min
Histogram: 1 0 0 0 0 0 0 0 0 0
Nghost:    15670 ave 15670 max 15670 min
Histogram: 1 0 0 0 0 0 0 0 0 0
Neighs:    1.02149e+06 ave 1.02149e+06 max 1.02149e+06 min
Histogram: 1 0 0 0 0 0 0 0 0 0

Total # of neighbors = 1021490
Ave neighs/atom = 51.9789
Neighbor list builds = 6172
Dangerous builds not checked
Setting up Verlet run ...
  Unit style    : metal
  Current step  : 120004
  Time step     : 0.001
Per MPI rank memory allocation (min/avg/max) = 18.19 | 18.19 | 18.19 Mbytes
Step Temp Press TotEng PotEng Enthalpy 
  120004    1845.7392    103.57442   -110432.37   -115120.71   -110401.09 
  120006    1847.5607    93.187188   -110432.37   -115125.34   -110404.23 
  120499    1791.0602   -3.1215415   -110569.77   -115119.23   -110570.72 
Loop time of 53.3411 on 1 procs for 495 steps with 19652 atoms

Performance: 0.802 ns/day, 29.933 hours/ns, 9.280 timesteps/s
99.9% CPU use with 1 MPI tasks x no OpenMP threads

MPI task timing breakdown:
Section |  min time  |  avg time  |  max time  |%varavg| %total
---------------------------------------------------------------
Pair    | 26.989     | 26.989     | 26.989     |   0.0 | 50.60
Neigh   | 25.044     | 25.044     | 25.044     |   0.0 | 46.95
Comm    | 0.44796    | 0.44796    | 0.44796    |   0.0 |  0.84
Output  | 0.049555   | 0.049555   | 0.049555   |   0.0 |  0.09
Modify  | 0.64692    | 0.64692    | 0.64692    |   0.0 |  1.21
Other   |            | 0.1641     |            |       |  0.31

Nlocal:    19652 ave 19652 max 19652 min
Histogram: 1 0 0 0 0 0 0 0 0 0
Nghost:    15726 ave 15726 max 15726 min
Histogram: 1 0 0 0 0 0 0 0 0 0
Neighs:    1.02197e+06 ave 1.02197e+06 max 1.02197e+06 min
Histogram: 1 0 0 0 0 0 0 0 0 0

Total # of neighbors = 1021972
Ave neighs/atom = 52.0035
Neighbor list builds = 495
Dangerous builds not checked
Setting up Verlet run ...
  Unit style    : metal
  Current step  : 120499
  Time step     : 0.001
Per MPI rank memory allocation (min/avg/max) = 18.19 | 18.19 | 18.19 Mbytes
Step Temp Press TotEng PotEng Enthalpy 
  120499    1791.0602   -3.1215415   -110569.77   -115119.23   -110570.72 
  126671    1785.5122    1310.2703   -110700.02   -115235.38   -110305.32 
Loop time of 694.605 on 1 procs for 6172 steps with 19652 atoms

Performance: 0.768 ns/day, 31.261 hours/ns, 8.886 timesteps/s
99.9% CPU use with 1 MPI tasks x no OpenMP threads

MPI task timing breakdown:
Section |  min time  |  avg time  |  max time  |%varavg| %total
---------------------------------------------------------------
Pair    | 354.62     | 354.62     | 354.62     |   0.0 | 51.05
Neigh   | 323.65     | 323.65     | 323.65     |   0.0 | 46.59
Comm    | 5.8209     | 5.8209     | 5.8209     |   0.0 |  0.84
Output  | 0.00016284 | 0.00016284 | 0.00016284 |   0.0 |  0.00
Modify  | 8.3843     | 8.3843     | 8.3843     |   0.0 |  1.21
Other   |            | 2.134      |            |       |  0.31

Nlocal:    19652 ave 19652 max 19652 min
Histogram: 1 0 0 0 0 0 0 0 0 0
Nghost:    15681 ave 15681 max 15681 min
Histogram: 1 0 0 0 0 0 0 0 0 0
Neighs:    1.02431e+06 ave 1.02431e+06 max 1.02431e+06 min
Histogram: 1 0 0 0 0 0 0 0 0 0

Total # of neighbors = 1024306
Ave neighs/atom = 52.1222
Neighbor list builds = 6172
Dangerous builds not checked
Setting up Verlet run ...
  Unit style    : metal
  Current step  : 126671
  Time step     : 0.001
Per MPI rank memory allocation (min/avg/max) = 18.19 | 18.19 | 18.19 Mbytes
Step Temp Press TotEng PotEng Enthalpy 
  126671    1785.5122    1310.2703   -110700.02   -115235.38   -110305.32 
  126673     1785.383    1308.4591      -110700   -115235.04   -110305.85 
  127166    1759.5767    722.62191   -110893.61    -115363.1   -110676.03 
Loop time of 53.1151 on 1 procs for 495 steps with 19652 atoms

Performance: 0.805 ns/day, 29.806 hours/ns, 9.319 timesteps/s
100.0% CPU use with 1 MPI tasks x no OpenMP threads

MPI task timing breakdown:
Section |  min time  |  avg time  |  max time  |%varavg| %total
---------------------------------------------------------------
Pair    | 26.933     | 26.933     | 26.933     |   0.0 | 50.71
Neigh   | 24.871     | 24.871     | 24.871     |   0.0 | 46.82
Comm    | 0.44474    | 0.44474    | 0.44474    |   0.0 |  0.84
Output  | 0.051296   | 0.051296   | 0.051296   |   0.0 |  0.10
Modify  | 0.65085    | 0.65085    | 0.65085    |   0.0 |  1.23
Other   |            | 0.1642     |            |       |  0.31

Nlocal:    19652 ave 19652 max 19652 min
Histogram: 1 0 0 0 0 0 0 0 0 0
Nghost:    15740 ave 15740 max 15740 min
Histogram: 1 0 0 0 0 0 0 0 0 0
Neighs:    1.02528e+06 ave 1.02528e+06 max 1.02528e+06 min
Histogram: 1 0 0 0 0 0 0 0 0 0

Total # of neighbors = 1025279
Ave neighs/atom = 52.1717
Neighbor list builds = 495
Dangerous builds not checked
Setting up Verlet run ...
  Unit style    : metal
  Current step  : 127166
  Time step     : 0.001
Per MPI rank memory allocation (min/avg/max) = 18.19 | 18.19 | 18.19 Mbytes
Step Temp Press TotEng PotEng Enthalpy 
  127166    1759.5767    722.62191   -110893.61    -115363.1   -110676.03 
  133338    1747.4913    1051.5645   -111044.45   -115483.23    -110728.3 
Loop time of 691.429 on 1 procs for 6172 steps with 19652 atoms

Performance: 0.771 ns/day, 31.119 hours/ns, 8.926 timesteps/s
99.8% CPU use with 1 MPI tasks x no OpenMP threads

MPI task timing breakdown:
Section |  min time  |  avg time  |  max time  |%varavg| %total
---------------------------------------------------------------
Pair    | 352.96     | 352.96     | 352.96     |   0.0 | 51.05
Neigh   | 322.24     | 322.24     | 322.24     |   0.0 | 46.61
Comm    | 5.7789     | 5.7789     | 5.7789     |   0.0 |  0.84
Output  | 0.00016093 | 0.00016093 | 0.00016093 |   0.0 |  0.00
Modify  | 8.3207     | 8.3207     | 8.3207     |   0.0 |  1.20
Other   |            | 2.127      |            |       |  0.31

Nlocal:    19652 ave 19652 max 19652 min
Histogram: 1 0 0 0 0 0 0 0 0 0
Nghost:    15831 ave 15831 max 15831 min
Histogram: 1 0 0 0 0 0 0 0 0 0
Neighs:    1.02712e+06 ave 1.02712e+06 max 1.02712e+06 min
Histogram: 1 0 0 0 0 0 0 0 0 0

Total # of neighbors = 1027124
Ave neighs/atom = 52.2656
Neighbor list builds = 6172
Dangerous builds not checked
Setting up Verlet run ...
  Unit style    : metal
  Current step  : 133338
  Time step     : 0.001
Per MPI rank memory allocation (min/avg/max) = 18.19 | 18.19 | 18.19 Mbytes
Step Temp Press TotEng PotEng Enthalpy 
  133338    1747.4913    1051.5645   -111044.45   -115483.23    -110728.3 
  133340    1747.9795    1046.2885   -111044.44   -115484.47   -110729.88 
  133833    1726.1051    390.28001   -111237.75   -115622.22   -111120.34 
Loop time of 58.6246 on 1 procs for 495 steps with 19652 atoms

Performance: 0.730 ns/day, 32.898 hours/ns, 8.444 timesteps/s
99.8% CPU use with 1 MPI tasks x no OpenMP threads

MPI task timing breakdown:
Section |  min time  |  avg time  |  max time  |%varavg| %total
---------------------------------------------------------------
Pair    | 30.136     | 30.136     | 30.136     |   0.0 | 51.41
Neigh   | 27.046     | 27.046     | 27.046     |   0.0 | 46.13
Comm    | 0.48233    | 0.48233    | 0.48233    |   0.0 |  0.82
Output  | 0.069402   | 0.069402   | 0.069402   |   0.0 |  0.12
Modify  | 0.7106     | 0.7106     | 0.7106     |   0.0 |  1.21
Other   |            | 0.18       |            |       |  0.31

Nlocal:    19652 ave 19652 max 19652 min
Histogram: 1 0 0 0 0 0 0 0 0 0
Nghost:    15750 ave 15750 max 15750 min
Histogram: 1 0 0 0 0 0 0 0 0 0
Neighs:    1.02708e+06 ave 1.02708e+06 max 1.02708e+06 min
Histogram: 1 0 0 0 0 0 0 0 0 0

Total # of neighbors = 1027079
Ave neighs/atom = 52.2633
Neighbor list builds = 495
Dangerous builds not checked
Setting up Verlet run ...
  Unit style    : metal
  Current step  : 133833
  Time step     : 0.001
Per MPI rank memory allocation (min/avg/max) = 18.19 | 18.19 | 18.19 Mbytes
Step Temp Press TotEng PotEng Enthalpy 
  133833    1726.1051    390.28001   -111237.75   -115622.22   -111120.34 
  140005    1700.6481    147.51857   -111436.29    -115756.1   -111391.96 
Loop time of 706.177 on 1 procs for 6172 steps with 19652 atoms

Performance: 0.755 ns/day, 31.782 hours/ns, 8.740 timesteps/s
99.9% CPU use with 1 MPI tasks x no OpenMP threads

MPI task timing breakdown:
Section |  min time  |  avg time  |  max time  |%varavg| %total
---------------------------------------------------------------
Pair    | 362.2      | 362.2      | 362.2      |   0.0 | 51.29
Neigh   | 327.24     | 327.24     | 327.24     |   0.0 | 46.34
Comm    | 5.9751     | 5.9751     | 5.9751     |   0.0 |  0.85
Output  | 0.00016904 | 0.00016904 | 0.00016904 |   0.0 |  0.00
Modify  | 8.5751     | 8.5751     | 8.5751     |   0.0 |  1.21
Other   |            | 2.184      |            |       |  0.31

Nlocal:    19652 ave 19652 max 19652 min
Histogram: 1 0 0 0 0 0 0 0 0 0
Nghost:    15724 ave 15724 max 15724 min
Histogram: 1 0 0 0 0 0 0 0 0 0
Neighs:    1.02834e+06 ave 1.02834e+06 max 1.02834e+06 min
Histogram: 1 0 0 0 0 0 0 0 0 0

Total # of neighbors = 1028335
Ave neighs/atom = 52.3272
Neighbor list builds = 6172
Dangerous builds not checked
Setting up Verlet run ...
  Unit style    : metal
  Current step  : 140005
  Time step     : 0.001
Per MPI rank memory allocation (min/avg/max) = 18.19 | 18.19 | 18.19 Mbytes
Step Temp Press TotEng PotEng Enthalpy 
  140005    1700.6481    147.51857   -111436.29    -115756.1   -111391.96 
  140007    1700.3364    136.20254    -111436.3    -115755.3   -111395.37 
  140500    1665.0663    673.15029   -111555.62   -115785.04   -111353.52 
Loop time of 59.8699 on 1 procs for 495 steps with 19652 atoms

Performance: 0.714 ns/day, 33.597 hours/ns, 8.268 timesteps/s
99.3% CPU use with 1 MPI tasks x no OpenMP threads

MPI task timing breakdown:
Section |  min time  |  avg time  |  max time  |%varavg| %total
---------------------------------------------------------------
Pair    | 31.015     | 31.015     | 31.015     |   0.0 | 51.80
Neigh   | 27.356     | 27.356     | 27.356     |   0.0 | 45.69
Comm    | 0.51266    | 0.51266    | 0.51266    |   0.0 |  0.86
Output  | 0.057971   | 0.057971   | 0.057971   |   0.0 |  0.10
Modify  | 0.73872    | 0.73872    | 0.73872    |   0.0 |  1.23
Other   |            | 0.1895     |            |       |  0.32

Nlocal:    19652 ave 19652 max 19652 min
Histogram: 1 0 0 0 0 0 0 0 0 0
Nghost:    15720 ave 15720 max 15720 min
Histogram: 1 0 0 0 0 0 0 0 0 0
Neighs:    1.02966e+06 ave 1.02966e+06 max 1.02966e+06 min
Histogram: 1 0 0 0 0 0 0 0 0 0

Total # of neighbors = 1029665
Ave neighs/atom = 52.3949
Neighbor list builds = 495
Dangerous builds not checked
Setting up Verlet run ...
  Unit style    : metal
  Current step  : 140500
  Time step     : 0.001
Per MPI rank memory allocation (min/avg/max) = 18.19 | 18.19 | 18.19 Mbytes
Step Temp Press TotEng PotEng Enthalpy 
  140500    1665.0663    673.15029   -111555.62   -115785.04   -111353.52 
  146672    1661.6468    1170.2546   -111668.14   -115888.87   -111317.18 
Loop time of 719.679 on 1 procs for 6172 steps with 19652 atoms

Performance: 0.741 ns/day, 32.390 hours/ns, 8.576 timesteps/s
99.9% CPU use with 1 MPI tasks x no OpenMP threads

MPI task timing breakdown:
Section |  min time  |  avg time  |  max time  |%varavg| %total
---------------------------------------------------------------
Pair    | 371.41     | 371.41     | 371.41     |   0.0 | 51.61
Neigh   | 331.19     | 331.19     | 331.19     |   0.0 | 46.02
Comm    | 6.1283     | 6.1283     | 6.1283     |   0.0 |  0.85
Output  | 0.00023007 | 0.00023007 | 0.00023007 |   0.0 |  0.00
Modify  | 8.7205     | 8.7205     | 8.7205     |   0.0 |  1.21
Other   |            | 2.236      |            |       |  0.31

Nlocal:    19652 ave 19652 max 19652 min
Histogram: 1 0 0 0 0 0 0 0 0 0
Nghost:    15742 ave 15742 max 15742 min
Histogram: 1 0 0 0 0 0 0 0 0 0
Neighs:    1.0309e+06 ave 1.0309e+06 max 1.0309e+06 min
Histogram: 1 0 0 0 0 0 0 0 0 0

Total # of neighbors = 1030900
Ave neighs/atom = 52.4578
Neighbor list builds = 6172
Dangerous builds not checked
Setting up Verlet run ...
  Unit style    : metal
  Current step  : 146672
  Time step     : 0.001
Per MPI rank memory allocation (min/avg/max) = 18.19 | 18.19 | 18.19 Mbytes
Step Temp Press TotEng PotEng Enthalpy 
  146672    1661.6468    1170.2546   -111668.14   -115888.87   -111317.18 
  146674     1661.648    1173.9285   -111668.15   -115888.89   -111316.09 
  147167    1624.6123    57.468832   -111918.71   -116045.37   -111901.47 
Loop time of 52.0339 on 1 procs for 495 steps with 19652 atoms

Performance: 0.822 ns/day, 29.200 hours/ns, 9.513 timesteps/s
100.0% CPU use with 1 MPI tasks x no OpenMP threads

MPI task timing breakdown:
Section |  min time  |  avg time  |  max time  |%varavg| %total
---------------------------------------------------------------
Pair    | 26.307     | 26.307     | 26.307     |   0.0 | 50.56
Neigh   | 24.46      | 24.46      | 24.46      |   0.0 | 47.01
Comm    | 0.43329    | 0.43329    | 0.43329    |   0.0 |  0.83
Output  | 0.048397   | 0.048397   | 0.048397   |   0.0 |  0.09
Modify  | 0.62301    | 0.62301    | 0.62301    |   0.0 |  1.20
Other   |            | 0.1622     |            |       |  0.31

Nlocal:    19652 ave 19652 max 19652 min
Histogram: 1 0 0 0 0 0 0 0 0 0
Nghost:    15836 ave 15836 max 15836 min
Histogram: 1 0 0 0 0 0 0 0 0 0
Neighs:    1.03096e+06 ave 1.03096e+06 max 1.03096e+06 min
Histogram: 1 0 0 0 0 0 0 0 0 0

Total # of neighbors = 1030960
Ave neighs/atom = 52.4608
Neighbor list builds = 495
Dangerous builds not checked
Setting up Verlet run ...
  Unit style    : metal
  Current step  : 147167
  Time step     : 0.001
Per MPI rank memory allocation (min/avg/max) = 18.19 | 18.19 | 18.19 Mbytes
Step Temp Press TotEng PotEng Enthalpy 
  147167    1624.6123    57.468832   -111918.71   -116045.37   -111901.47 
  153339    1591.8058   -629.99227   -112117.93   -116161.26   -112306.88 
Loop time of 706.92 on 1 procs for 6172 steps with 19652 atoms

Performance: 0.754 ns/day, 31.816 hours/ns, 8.731 timesteps/s
99.9% CPU use with 1 MPI tasks x no OpenMP threads

MPI task timing breakdown:
Section |  min time  |  avg time  |  max time  |%varavg| %total
---------------------------------------------------------------
Pair    | 364.23     | 364.23     | 364.23     |   0.0 | 51.52
Neigh   | 326        | 326        | 326        |   0.0 | 46.11
Comm    | 5.9939     | 5.9939     | 5.9939     |   0.0 |  0.85
Output  | 0.00018787 | 0.00018787 | 0.00018787 |   0.0 |  0.00
Modify  | 8.5209     | 8.5209     | 8.5209     |   0.0 |  1.21
Other   |            | 2.18       |            |       |  0.31

Nlocal:    19652 ave 19652 max 19652 min
Histogram: 1 0 0 0 0 0 0 0 0 0
Nghost:    15769 ave 15769 max 15769 min
Histogram: 1 0 0 0 0 0 0 0 0 0
Neighs:    1.0312e+06 ave 1.0312e+06 max 1.0312e+06 min
Histogram: 1 0 0 0 0 0 0 0 0 0

Total # of neighbors = 1031202
Ave neighs/atom = 52.4731
Neighbor list builds = 6172
Dangerous builds not checked
Setting up Verlet run ...
  Unit style    : metal
  Current step  : 153339
  Time step     : 0.001
Per MPI rank memory allocation (min/avg/max) = 18.19 | 18.19 | 18.19 Mbytes
Step Temp Press TotEng PotEng Enthalpy 
  153339    1591.8058   -629.99227   -112117.93   -116161.26   -112306.88 
  153341    1592.5091   -632.58908   -112117.92   -116163.04   -112307.65 
  153834    1559.2794    -151.5254   -112262.38   -116223.09   -112307.76 
Loop time of 55.5204 on 1 procs for 495 steps with 19652 atoms

Performance: 0.770 ns/day, 31.156 hours/ns, 8.916 timesteps/s
99.9% CPU use with 1 MPI tasks x no OpenMP threads

MPI task timing breakdown:
Section |  min time  |  avg time  |  max time  |%varavg| %total
---------------------------------------------------------------
Pair    | 28.568     | 28.568     | 28.568     |   0.0 | 51.46
Neigh   | 25.593     | 25.593     | 25.593     |   0.0 | 46.10
Comm    | 0.46493    | 0.46493    | 0.46493    |   0.0 |  0.84
Output  | 0.050944   | 0.050944   | 0.050944   |   0.0 |  0.09
Modify  | 0.67213    | 0.67213    | 0.67213    |   0.0 |  1.21
Other   |            | 0.1716     |            |       |  0.31

Nlocal:    19652 ave 19652 max 19652 min
Histogram: 1 0 0 0 0 0 0 0 0 0
Nghost:    15833 ave 15833 max 15833 min
Histogram: 1 0 0 0 0 0 0 0 0 0
Neighs:    1.03301e+06 ave 1.03301e+06 max 1.03301e+06 min
Histogram: 1 0 0 0 0 0 0 0 0 0

Total # of neighbors = 1033014
Ave neighs/atom = 52.5653
Neighbor list builds = 495
Dangerous builds not checked
Setting up Verlet run ...
  Unit style    : metal
  Current step  : 153834
  Time step     : 0.001
Per MPI rank memory allocation (min/avg/max) = 18.19 | 18.19 | 18.19 Mbytes
Step Temp Press TotEng PotEng Enthalpy 
  153834    1559.2794    -151.5254   -112262.38   -116223.09   -112307.76 
  160006    1555.5029   -1160.3757   -112347.55   -116298.67   -112695.42 
Loop time of 703.991 on 1 procs for 6172 steps with 19652 atoms

Performance: 0.757 ns/day, 31.684 hours/ns, 8.767 timesteps/s
99.6% CPU use with 1 MPI tasks x no OpenMP threads

MPI task timing breakdown:
Section |  min time  |  avg time  |  max time  |%varavg| %total
---------------------------------------------------------------
Pair    | 362.08     | 362.08     | 362.08     |   0.0 | 51.43
Neigh   | 325.31     | 325.31     | 325.31     |   0.0 | 46.21
Comm    | 5.9504     | 5.9504     | 5.9504     |   0.0 |  0.85
Output  | 0.00016403 | 0.00016403 | 0.00016403 |   0.0 |  0.00
Modify  | 8.4769     | 8.4769     | 8.4769     |   0.0 |  1.20
Other   |            | 2.172      |            |       |  0.31

Nlocal:    19652 ave 19652 max 19652 min
Histogram: 1 0 0 0 0 0 0 0 0 0
Nghost:    15776 ave 15776 max 15776 min
Histogram: 1 0 0 0 0 0 0 0 0 0
Neighs:    1.03207e+06 ave 1.03207e+06 max 1.03207e+06 min
Histogram: 1 0 0 0 0 0 0 0 0 0

Total # of neighbors = 1032074
Ave neighs/atom = 52.5175
Neighbor list builds = 6172
Dangerous builds not checked
Setting up Verlet run ...
  Unit style    : metal
  Current step  : 160006
  Time step     : 0.001
Per MPI rank memory allocation (min/avg/max) = 18.19 | 18.19 | 18.19 Mbytes
Step Temp Press TotEng PotEng Enthalpy 
  160006    1555.5029   -1160.3757   -112347.55   -116298.67   -112695.42 
  160008    1554.7495   -1156.3009   -112347.56   -116296.76    -112694.2 
  160501    1498.8449     11.97181   -112612.75   -116419.95   -112609.17 
Loop time of 54.3031 on 1 procs for 495 steps with 19652 atoms

Performance: 0.788 ns/day, 30.473 hours/ns, 9.115 timesteps/s
100.0% CPU use with 1 MPI tasks x no OpenMP threads

MPI task timing breakdown:
Section |  min time  |  avg time  |  max time  |%varavg| %total
---------------------------------------------------------------
Pair    | 27.598     | 27.598     | 27.598     |   0.0 | 50.82
Neigh   | 25.376     | 25.376     | 25.376     |   0.0 | 46.73
Comm    | 0.45413    | 0.45413    | 0.45413    |   0.0 |  0.84
Output  | 0.052477   | 0.052477   | 0.052477   |   0.0 |  0.10
Modify  | 0.65457    | 0.65457    | 0.65457    |   0.0 |  1.21
Other   |            | 0.1678     |            |       |  0.31

Nlocal:    19652 ave 19652 max 19652 min
Histogram: 1 0 0 0 0 0 0 0 0 0
Nghost:    15810 ave 15810 max 15810 min
Histogram: 1 0 0 0 0 0 0 0 0 0
Neighs:    1.03518e+06 ave 1.03518e+06 max 1.03518e+06 min
Histogram: 1 0 0 0 0 0 0 0 0 0

Total # of neighbors = 1035180
Ave neighs/atom = 52.6756
Neighbor list builds = 495
Dangerous builds not checked
Setting up Verlet run ...
  Unit style    : metal
  Current step  : 160501
  Time step     : 0.001
Per MPI rank memory allocation (min/avg/max) = 18.19 | 18.19 | 18.19 Mbytes
Step Temp Press TotEng PotEng Enthalpy 
  160501    1498.8449     11.97181   -112612.75   -116419.95   -112609.17 
  166673    1498.5115   -453.94754   -112768.05   -116574.41   -112903.71 
Loop time of 711.86 on 1 procs for 6172 steps with 19652 atoms

Performance: 0.749 ns/day, 32.038 hours/ns, 8.670 timesteps/s
99.9% CPU use with 1 MPI tasks x no OpenMP threads

MPI task timing breakdown:
Section |  min time  |  avg time  |  max time  |%varavg| %total
---------------------------------------------------------------
Pair    | 367.41     | 367.41     | 367.41     |   0.0 | 51.61
Neigh   | 327.69     | 327.69     | 327.69     |   0.0 | 46.03
Comm    | 6.0039     | 6.0039     | 6.0039     |   0.0 |  0.84
Output  | 0.00022006 | 0.00022006 | 0.00022006 |   0.0 |  0.00
Modify  | 8.5705     | 8.5705     | 8.5705     |   0.0 |  1.20
Other   |            | 2.187      |            |       |  0.31

Nlocal:    19652 ave 19652 max 19652 min
Histogram: 1 0 0 0 0 0 0 0 0 0
Nghost:    15730 ave 15730 max 15730 min
Histogram: 1 0 0 0 0 0 0 0 0 0
Neighs:    1.03585e+06 ave 1.03585e+06 max 1.03585e+06 min
Histogram: 1 0 0 0 0 0 0 0 0 0

Total # of neighbors = 1035851
Ave neighs/atom = 52.7097
Neighbor list builds = 6172
Dangerous builds not checked
Setting up Verlet run ...
  Unit style    : metal
  Current step  : 166673
  Time step     : 0.001
Per MPI rank memory allocation (min/avg/max) = 18.19 | 18.19 | 18.19 Mbytes
Step Temp Press TotEng PotEng Enthalpy 
  166673    1498.5115   -453.94754   -112768.05   -116574.41   -112903.71 
  166675     1498.476   -456.30148   -112768.05   -116574.31   -112904.42 
  167168    1465.4453      199.741   -112926.63   -116648.99   -112867.01 
Loop time of 55.8422 on 1 procs for 495 steps with 19652 atoms

Performance: 0.766 ns/day, 31.337 hours/ns, 8.864 timesteps/s
99.9% CPU use with 1 MPI tasks x no OpenMP threads

MPI task timing breakdown:
Section |  min time  |  avg time  |  max time  |%varavg| %total
---------------------------------------------------------------
Pair    | 28.603     | 28.603     | 28.603     |   0.0 | 51.22
Neigh   | 25.862     | 25.862     | 25.862     |   0.0 | 46.31
Comm    | 0.47249    | 0.47249    | 0.47249    |   0.0 |  0.85
Output  | 0.051501   | 0.051501   | 0.051501   |   0.0 |  0.09
Modify  | 0.67975    | 0.67975    | 0.67975    |   0.0 |  1.22
Other   |            | 0.174      |            |       |  0.31

Nlocal:    19652 ave 19652 max 19652 min
Histogram: 1 0 0 0 0 0 0 0 0 0
Nghost:    15833 ave 15833 max 15833 min
Histogram: 1 0 0 0 0 0 0 0 0 0
Neighs:    1.03753e+06 ave 1.03753e+06 max 1.03753e+06 min
Histogram: 1 0 0 0 0 0 0 0 0 0

Total # of neighbors = 1037533
Ave neighs/atom = 52.7953
Neighbor list builds = 495
Dangerous builds not checked
Setting up Verlet run ...
  Unit style    : metal
  Current step  : 167168
  Time step     : 0.001
Per MPI rank memory allocation (min/avg/max) = 18.19 | 18.19 | 18.19 Mbytes
Step Temp Press TotEng PotEng Enthalpy 
  167168    1465.4453      199.741   -112926.63   -116648.99   -112867.01 
  173340    1458.4498   -595.22483   -113104.66   -116809.25    -113282.3 
Loop time of 714.013 on 1 procs for 6172 steps with 19652 atoms

Performance: 0.747 ns/day, 32.135 hours/ns, 8.644 timesteps/s
99.9% CPU use with 1 MPI tasks x no OpenMP threads

MPI task timing breakdown:
Section |  min time  |  avg time  |  max time  |%varavg| %total
---------------------------------------------------------------
Pair    | 369.78     | 369.78     | 369.78     |   0.0 | 51.79
Neigh   | 327.46     | 327.46     | 327.46     |   0.0 | 45.86
Comm    | 5.9977     | 5.9977     | 5.9977     |   0.0 |  0.84
Output  | 0.00020695 | 0.00020695 | 0.00020695 |   0.0 |  0.00
Modify  | 8.5794     | 8.5794     | 8.5794     |   0.0 |  1.20
Other   |            | 2.194      |            |       |  0.31

Nlocal:    19652 ave 19652 max 19652 min
Histogram: 1 0 0 0 0 0 0 0 0 0
Nghost:    15810 ave 15810 max 15810 min
Histogram: 1 0 0 0 0 0 0 0 0 0
Neighs:    1.03784e+06 ave 1.03784e+06 max 1.03784e+06 min
Histogram: 1 0 0 0 0 0 0 0 0 0

Total # of neighbors = 1037842
Ave neighs/atom = 52.811
Neighbor list builds = 6172
Dangerous builds not checked
Setting up Verlet run ...
  Unit style    : metal
  Current step  : 173340
  Time step     : 0.001
Per MPI rank memory allocation (min/avg/max) = 18.19 | 18.19 | 18.19 Mbytes
Step Temp Press TotEng PotEng Enthalpy 
  173340    1458.4498   -595.22483   -113104.66   -116809.25    -113282.3 
  173342    1457.9349   -594.67927   -113104.67   -116807.96   -113282.14 
  173835    1417.1789    63.573291   -113312.35   -116912.12   -113293.41 
Loop time of 54.9476 on 1 procs for 495 steps with 19652 atoms

Performance: 0.778 ns/day, 30.835 hours/ns, 9.009 timesteps/s
99.7% CPU use with 1 MPI tasks x no OpenMP threads

MPI task timing breakdown:
Section |  min time  |  avg time  |  max time  |%varavg| %total
---------------------------------------------------------------
Pair    | 28.238     | 28.238     | 28.238     |   0.0 | 51.39
Neigh   | 25.358     | 25.358     | 25.358     |   0.0 | 46.15
Comm    | 0.46432    | 0.46432    | 0.46432    |   0.0 |  0.85
Output  | 0.058812   | 0.058812   | 0.058812   |   0.0 |  0.11
Modify  | 0.65775    | 0.65775    | 0.65775    |   0.0 |  1.20
Other   |            | 0.17       |            |       |  0.31

Nlocal:    19652 ave 19652 max 19652 min
Histogram: 1 0 0 0 0 0 0 0 0 0
Nghost:    15835 ave 15835 max 15835 min
Histogram: 1 0 0 0 0 0 0 0 0 0
Neighs:    1.04011e+06 ave 1.04011e+06 max 1.04011e+06 min
Histogram: 1 0 0 0 0 0 0 0 0 0

Total # of neighbors = 1040109
Ave neighs/atom = 52.9264
Neighbor list builds = 495
Dangerous builds not checked
Setting up Verlet run ...
  Unit style    : metal
  Current step  : 173835
  Time step     : 0.001
Per MPI rank memory allocation (min/avg/max) = 18.19 | 18.19 | 18.19 Mbytes
Step Temp Press TotEng PotEng Enthalpy 
  173835    1417.1789    63.573291   -113312.35   -116912.12   -113293.41 
  180007     1387.795    660.28797   -113499.25   -117024.38   -113302.81 
Loop time of 686.432 on 1 procs for 6172 steps with 19652 atoms

Performance: 0.777 ns/day, 30.894 hours/ns, 8.991 timesteps/s
99.9% CPU use with 1 MPI tasks x no OpenMP threads

MPI task timing breakdown:
Section |  min time  |  avg time  |  max time  |%varavg| %total
---------------------------------------------------------------
Pair    | 353.31     | 353.31     | 353.31     |   0.0 | 51.47
Neigh   | 317.12     | 317.12     | 317.12     |   0.0 | 46.20
Comm    | 5.7591     | 5.7591     | 5.7591     |   0.0 |  0.84
Output  | 0.00020003 | 0.00020003 | 0.00020003 |   0.0 |  0.00
Modify  | 8.1447     | 8.1447     | 8.1447     |   0.0 |  1.19
Other   |            | 2.098      |            |       |  0.31

Nlocal:    19652 ave 19652 max 19652 min
Histogram: 1 0 0 0 0 0 0 0 0 0
Nghost:    15830 ave 15830 max 15830 min
Histogram: 1 0 0 0 0 0 0 0 0 0
Neighs:    1.04262e+06 ave 1.04262e+06 max 1.04262e+06 min
Histogram: 1 0 0 0 0 0 0 0 0 0

Total # of neighbors = 1042625
Ave neighs/atom = 53.0544
Neighbor list builds = 6172
Dangerous builds not checked
Setting up Verlet run ...
  Unit style    : metal
  Current step  : 180007
  Time step     : 0.001
Per MPI rank memory allocation (min/avg/max) = 18.19 | 18.19 | 18.19 Mbytes
Step Temp Press TotEng PotEng Enthalpy 
  180007     1387.795    660.28797   -113499.25   -117024.38   -113302.81 
  180009    1389.0469    658.82582   -113499.24   -117027.55   -113303.24 
  180502    1369.5651   -323.54669    -113650.4   -117129.22   -113746.71 
Loop time of 52.1085 on 1 procs for 495 steps with 19652 atoms

Performance: 0.821 ns/day, 29.242 hours/ns, 9.499 timesteps/s
100.0% CPU use with 1 MPI tasks x no OpenMP threads

MPI task timing breakdown:
Section |  min time  |  avg time  |  max time  |%varavg| %total
---------------------------------------------------------------
Pair    | 26.529     | 26.529     | 26.529     |   0.0 | 50.91
Neigh   | 24.339     | 24.339     | 24.339     |   0.0 | 46.71
Comm    | 0.42486    | 0.42486    | 0.42486    |   0.0 |  0.82
Output  | 0.049779   | 0.049779   | 0.049779   |   0.0 |  0.10
Modify  | 0.60639    | 0.60639    | 0.60639    |   0.0 |  1.16
Other   |            | 0.1589     |            |       |  0.30

Nlocal:    19652 ave 19652 max 19652 min
Histogram: 1 0 0 0 0 0 0 0 0 0
Nghost:    15785 ave 15785 max 15785 min
Histogram: 1 0 0 0 0 0 0 0 0 0
Neighs:    1.04191e+06 ave 1.04191e+06 max 1.04191e+06 min
Histogram: 1 0 0 0 0 0 0 0 0 0

Total # of neighbors = 1041913
Ave neighs/atom = 53.0182
Neighbor list builds = 495
Dangerous builds not checked
Setting up Verlet run ...
  Unit style    : metal
  Current step  : 180502
  Time step     : 0.001
Per MPI rank memory allocation (min/avg/max) = 18.19 | 18.19 | 18.19 Mbytes
Step Temp Press TotEng PotEng Enthalpy 
  180502    1369.5651   -323.54669    -113650.4   -117129.22   -113746.71 
  186674    1346.5246   -552.01141   -113852.21    -117272.5   -114016.44 
Loop time of 707.191 on 1 procs for 6172 steps with 19652 atoms

Performance: 0.754 ns/day, 31.828 hours/ns, 8.727 timesteps/s
99.9% CPU use with 1 MPI tasks x no OpenMP threads

MPI task timing breakdown:
Section |  min time  |  avg time  |  max time  |%varavg| %total
---------------------------------------------------------------
Pair    | 366.19     | 366.19     | 366.19     |   0.0 | 51.78
Neigh   | 324.43     | 324.43     | 324.43     |   0.0 | 45.88
Comm    | 5.942      | 5.942      | 5.942      |   0.0 |  0.84
Output  | 0.00030994 | 0.00030994 | 0.00030994 |   0.0 |  0.00
Modify  | 8.4415     | 8.4415     | 8.4415     |   0.0 |  1.19
Other   |            | 2.184      |            |       |  0.31

Nlocal:    19652 ave 19652 max 19652 min
Histogram: 1 0 0 0 0 0 0 0 0 0
Nghost:    15843 ave 15843 max 15843 min
Histogram: 1 0 0 0 0 0 0 0 0 0
Neighs:    1.04335e+06 ave 1.04335e+06 max 1.04335e+06 min
Histogram: 1 0 0 0 0 0 0 0 0 0

Total # of neighbors = 1043348
Ave neighs/atom = 53.0912
Neighbor list builds = 6172
Dangerous builds not checked
Setting up Verlet run ...
  Unit style    : metal
  Current step  : 186674
  Time step     : 0.001
Per MPI rank memory allocation (min/avg/max) = 18.19 | 18.19 | 18.19 Mbytes
Step Temp Press TotEng PotEng Enthalpy 
  186674    1346.5246   -552.01141   -113852.21    -117272.5   -114016.44 
  186676    1345.9962   -546.69765    -113852.2   -117271.16   -114014.85 
  187169    1304.0565    558.58387   -114045.93   -117358.35   -113880.12 
Loop time of 55.9327 on 1 procs for 495 steps with 19652 atoms

Performance: 0.765 ns/day, 31.388 hours/ns, 8.850 timesteps/s
100.0% CPU use with 1 MPI tasks x no OpenMP threads

MPI task timing breakdown:
Section |  min time  |  avg time  |  max time  |%varavg| %total
---------------------------------------------------------------
Pair    | 29         | 29         | 29         |   0.0 | 51.85
Neigh   | 25.531     | 25.531     | 25.531     |   0.0 | 45.65
Comm    | 0.4787     | 0.4787     | 0.4787     |   0.0 |  0.86
Output  | 0.063775   | 0.063775   | 0.063775   |   0.0 |  0.11
Modify  | 0.68159    | 0.68159    | 0.68159    |   0.0 |  1.22
Other   |            | 0.1773     |            |       |  0.32

Nlocal:    19652 ave 19652 max 19652 min
Histogram: 1 0 0 0 0 0 0 0 0 0
Nghost:    15819 ave 15819 max 15819 min
Histogram: 1 0 0 0 0 0 0 0 0 0
Neighs:    1.046e+06 ave 1.046e+06 max 1.046e+06 min
Histogram: 1 0 0 0 0 0 0 0 0 0

Total # of neighbors = 1045999
Ave neighs/atom = 53.2261
Neighbor list builds = 495
Dangerous builds not checked
Setting up Verlet run ...
  Unit style    : metal
  Current step  : 187169
  Time step     : 0.001
Per MPI rank memory allocation (min/avg/max) = 18.19 | 18.19 | 18.19 Mbytes
Step Temp Press TotEng PotEng Enthalpy 
  187169    1304.0565    558.58387   -114045.93   -117358.35   -113880.12 
  193341    1308.8418   -1302.0877      -114103   -117427.58   -114490.34 
Loop time of 702.276 on 1 procs for 6172 steps with 19652 atoms

Performance: 0.759 ns/day, 31.607 hours/ns, 8.789 timesteps/s
99.9% CPU use with 1 MPI tasks x no OpenMP threads

MPI task timing breakdown:
Section |  min time  |  avg time  |  max time  |%varavg| %total
---------------------------------------------------------------
Pair    | 363.14     | 363.14     | 363.14     |   0.0 | 51.71
Neigh   | 322.7      | 322.7      | 322.7      |   0.0 | 45.95
Comm    | 5.8867     | 5.8867     | 5.8867     |   0.0 |  0.84
Output  | 0.00022316 | 0.00022316 | 0.00022316 |   0.0 |  0.00
Modify  | 8.3715     | 8.3715     | 8.3715     |   0.0 |  1.19
Other   |            | 2.175      |            |       |  0.31

Nlocal:    19652 ave 19652 max 19652 min
Histogram: 1 0 0 0 0 0 0 0 0 0
Nghost:    15777 ave 15777 max 15777 min
Histogram: 1 0 0 0 0 0 0 0 0 0
Neighs:    1.04438e+06 ave 1.04438e+06 max 1.04438e+06 min
Histogram: 1 0 0 0 0 0 0 0 0 0

Total # of neighbors = 1044380
Ave neighs/atom = 53.1437
Neighbor list builds = 6172
Dangerous builds not checked
Setting up Verlet run ...
  Unit style    : metal
  Current step  : 193341
  Time step     : 0.001
Per MPI rank memory allocation (min/avg/max) = 18.19 | 18.19 | 18.19 Mbytes
Step Temp Press TotEng PotEng Enthalpy 
  193341    1308.8418   -1302.0877      -114103   -117427.58   -114490.34 
  193343    1309.4383   -1292.8173   -114103.01    -117429.1    -114487.6 
  193836    1260.0604    1253.6822   -114383.62   -117584.29   -114012.31 
Loop time of 58.2533 on 1 procs for 495 steps with 19652 atoms

Performance: 0.734 ns/day, 32.690 hours/ns, 8.497 timesteps/s
99.8% CPU use with 1 MPI tasks x no OpenMP threads

MPI task timing breakdown:
Section |  min time  |  avg time  |  max time  |%varavg| %total
---------------------------------------------------------------
Pair    | 30.285     | 30.285     | 30.285     |   0.0 | 51.99
Neigh   | 26.512     | 26.512     | 26.512     |   0.0 | 45.51
Comm    | 0.4932     | 0.4932     | 0.4932     |   0.0 |  0.85
Output  | 0.065087   | 0.065087   | 0.065087   |   0.0 |  0.11
Modify  | 0.71416    | 0.71416    | 0.71416    |   0.0 |  1.23
Other   |            | 0.1839     |            |       |  0.32

Nlocal:    19652 ave 19652 max 19652 min
Histogram: 1 0 0 0 0 0 0 0 0 0
Nghost:    15792 ave 15792 max 15792 min
Histogram: 1 0 0 0 0 0 0 0 0 0
Neighs:    1.04963e+06 ave 1.04963e+06 max 1.04963e+06 min
Histogram: 1 0 0 0 0 0 0 0 0 0

Total # of neighbors = 1049634
Ave neighs/atom = 53.4111
Neighbor list builds = 495
Dangerous builds not checked
Setting up Verlet run ...
  Unit style    : metal
  Current step  : 193836
  Time step     : 0.001
Per MPI rank memory allocation (min/avg/max) = 18.19 | 18.19 | 18.19 Mbytes
Step Temp Press TotEng PotEng Enthalpy 
  193836    1260.0604    1253.6822   -114383.62   -117584.29   -114012.31 
  200008    1250.2533     23.94731   -114506.32   -117682.08   -114499.23 
Loop time of 713.259 on 1 procs for 6172 steps with 19652 atoms

Performance: 0.748 ns/day, 32.101 hours/ns, 8.653 timesteps/s
99.9% CPU use with 1 MPI tasks x no OpenMP threads

MPI task timing breakdown:
Section |  min time  |  avg time  |  max time  |%varavg| %total
---------------------------------------------------------------
Pair    | 370.91     | 370.91     | 370.91     |   0.0 | 52.00
Neigh   | 325.59     | 325.59     | 325.59     |   0.0 | 45.65
Comm    | 6.0187     | 6.0187     | 6.0187     |   0.0 |  0.84
Output  | 0.00015879 | 0.00015879 | 0.00015879 |   0.0 |  0.00
Modify  | 8.5348     | 8.5348     | 8.5348     |   0.0 |  1.20
Other   |            | 2.204      |            |       |  0.31

Nlocal:    19652 ave 19652 max 19652 min
Histogram: 1 0 0 0 0 0 0 0 0 0
Nghost:    15869 ave 15869 max 15869 min
Histogram: 1 0 0 0 0 0 0 0 0 0
Neighs:    1.04857e+06 ave 1.04857e+06 max 1.04857e+06 min
Histogram: 1 0 0 0 0 0 0 0 0 0

Total # of neighbors = 1048569
Ave neighs/atom = 53.3569
Neighbor list builds = 6172
Dangerous builds not checked
Setting up Verlet run ...
  Unit style    : metal
  Current step  : 200008
  Time step     : 0.001
Per MPI rank memory allocation (min/avg/max) = 18.19 | 18.19 | 18.19 Mbytes
Step Temp Press TotEng PotEng Enthalpy 
  200008    1250.2533     23.94731   -114506.32   -117682.08   -114499.23 
  200010    1250.3802    13.936405   -114506.33   -117682.41   -114502.19 
  200503    1210.5737   -506.16389   -114719.23    -117794.2   -114869.26 
Loop time of 62.2389 on 1 procs for 495 steps with 19652 atoms

Performance: 0.687 ns/day, 34.926 hours/ns, 7.953 timesteps/s
99.9% CPU use with 1 MPI tasks x no OpenMP threads

MPI task timing breakdown:
Section |  min time  |  avg time  |  max time  |%varavg| %total
---------------------------------------------------------------
Pair    | 32.867     | 32.867     | 32.867     |   0.0 | 52.81
Neigh   | 27.828     | 27.828     | 27.828     |   0.0 | 44.71
Comm    | 0.53054    | 0.53054    | 0.53054    |   0.0 |  0.85
Output  | 0.057314   | 0.057314   | 0.057314   |   0.0 |  0.09
Modify  | 0.75992    | 0.75992    | 0.75992    |   0.0 |  1.22
Other   |            | 0.1965     |            |       |  0.32

Nlocal:    19652 ave 19652 max 19652 min
Histogram: 1 0 0 0 0 0 0 0 0 0
Nghost:    15836 ave 15836 max 15836 min
Histogram: 1 0 0 0 0 0 0 0 0 0
Neighs:    1.04879e+06 ave 1.04879e+06 max 1.04879e+06 min
Histogram: 1 0 0 0 0 0 0 0 0 0

Total # of neighbors = 1048786
Ave neighs/atom = 53.3679
Neighbor list builds = 495
Dangerous builds not checked
Setting up Verlet run ...
  Unit style    : metal
  Current step  : 200503
  Time step     : 0.001
Per MPI rank memory allocation (min/avg/max) = 18.19 | 18.19 | 18.19 Mbytes
Step Temp Press TotEng PotEng Enthalpy 
  200503    1210.5737   -506.16389   -114719.23    -117794.2   -114869.26 
  206675    1200.5663   -1127.1876   -114939.77   -117989.32   -115273.77 
Loop time of 755.3 on 1 procs for 6172 steps with 19652 atoms

Performance: 0.706 ns/day, 33.993 hours/ns, 8.172 timesteps/s
99.6% CPU use with 1 MPI tasks x no OpenMP threads

MPI task timing breakdown:
Section |  min time  |  avg time  |  max time  |%varavg| %total
---------------------------------------------------------------
Pair    | 395.68     | 395.68     | 395.68     |   0.0 | 52.39
Neigh   | 341.76     | 341.76     | 341.76     |   0.0 | 45.25
Comm    | 6.393      | 6.393      | 6.393      |   0.0 |  0.85
Output  | 0.00015497 | 0.00015497 | 0.00015497 |   0.0 |  0.00
Modify  | 9.127      | 9.127      | 9.127      |   0.0 |  1.21
Other   |            | 2.343      |            |       |  0.31

Nlocal:    19652 ave 19652 max 19652 min
Histogram: 1 0 0 0 0 0 0 0 0 0
Nghost:    15848 ave 15848 max 15848 min
Histogram: 1 0 0 0 0 0 0 0 0 0
Neighs:    1.04979e+06 ave 1.04979e+06 max 1.04979e+06 min
Histogram: 1 0 0 0 0 0 0 0 0 0

Total # of neighbors = 1049786
Ave neighs/atom = 53.4188
Neighbor list builds = 6172
Dangerous builds not checked
Setting up Verlet run ...
  Unit style    : metal
  Current step  : 206675
  Time step     : 0.001
[...]
99.9% CPU use with 1 MPI tasks x no OpenMP threads

MPI task timing breakdown:
Section |  min time  |  avg time  |  max time  |%varavg| %total
---------------------------------------------------------------
Pair    | 33.352     | 33.352     | 33.352     |   0.0 | 53.40
Neigh   | 27.503     | 27.503     | 27.503     |   0.0 | 44.03
Comm    | 0.55938    | 0.55938    | 0.55938    |   0.0 |  0.90
Output  | 0.054639   | 0.054639   | 0.054639   |   0.0 |  0.09
Modify  | 0.78193    | 0.78193    | 0.78193    |   0.0 |  1.25
Other   |            | 0.2075     |            |       |  0.33

Nlocal:    19652 ave 19652 max 19652 min
Histogram: 1 0 0 0 0 0 0 0 0 0
Nghost:    15935 ave 15935 max 15935 min
Histogram: 1 0 0 0 0 0 0 0 0 0
Neighs:    1.0806e+06 ave 1.0806e+06 max 1.0806e+06 min
Histogram: 1 0 0 0 0 0 0 0 0 0

Total # of neighbors = 1080597
Ave neighs/atom = 54.9866
Neighbor list builds = 495
Dangerous builds not checked
Setting up Verlet run ...
  Unit style    : metal
  Current step  : 307175
  Time step     : 0.001
Per MPI rank memory allocation (min/avg/max) = 18.19 | 18.19 | 18.19 Mbytes
Step Temp Press TotEng PotEng Enthalpy 
  307175    422.75652   -36.234571   -120403.35   -121477.19   -120413.85 
  313347    399.46933   -835.06111   -120533.79   -121548.48   -120775.77 
Loop time of 780.212 on 1 procs for 6172 steps with 19652 atoms

Performance: 0.683 ns/day, 35.114 hours/ns, 7.911 timesteps/s
99.9% CPU use with 1 MPI tasks x no OpenMP threads

MPI task timing breakdown:
Section |  min time  |  avg time  |  max time  |%varavg| %total
---------------------------------------------------------------
Pair    | 417.89     | 417.89     | 417.89     |   0.0 | 53.56
Neigh   | 342.85     | 342.85     | 342.85     |   0.0 | 43.94
Comm    | 7.0684     | 7.0684     | 7.0684     |   0.0 |  0.91
Output  | 0.00017691 | 0.00017691 | 0.00017691 |   0.0 |  0.00
Modify  | 9.8212     | 9.8212     | 9.8212     |   0.0 |  1.26
Other   |            | 2.587      |            |       |  0.33

Nlocal:    19652 ave 19652 max 19652 min
Histogram: 1 0 0 0 0 0 0 0 0 0
Nghost:    16005 ave 16005 max 16005 min
Histogram: 1 0 0 0 0 0 0 0 0 0
Neighs:    1.07928e+06 ave 1.07928e+06 max 1.07928e+06 min
Histogram: 1 0 0 0 0 0 0 0 0 0

Total # of neighbors = 1079279
Ave neighs/atom = 54.9196
Neighbor list builds = 6172
Dangerous builds not checked
Setting up Verlet run ...
  Unit style    : metal
  Current step  : 313347
  Time step     : 0.001
Per MPI rank memory allocation (min/avg/max) = 18.19 | 18.19 | 18.19 Mbytes
Step Temp Press TotEng PotEng Enthalpy 
  313347    399.46933   -835.06111   -120533.79   -121548.48   -120775.77 
  313349    399.38792   -836.07992   -120533.79   -121548.28   -120776.07 
  313842    370.98437    257.91853   -120684.82   -121627.16   -120610.21 
Loop time of 60.3983 on 1 procs for 495 steps with 19652 atoms

Performance: 0.708 ns/day, 33.894 hours/ns, 8.196 timesteps/s
99.9% CPU use with 1 MPI tasks x no OpenMP threads

MPI task timing breakdown:
Section |  min time  |  avg time  |  max time  |%varavg| %total
---------------------------------------------------------------
Pair    | 32.29      | 32.29      | 32.29      |   0.0 | 53.46
Neigh   | 26.564     | 26.564     | 26.564     |   0.0 | 43.98
Comm    | 0.54667    | 0.54667    | 0.54667    |   0.0 |  0.91
Output  | 0.043133   | 0.043133   | 0.043133   |   0.0 |  0.07
Modify  | 0.75339    | 0.75339    | 0.75339    |   0.0 |  1.25
Other   |            | 0.2011     |            |       |  0.33

Nlocal:    19652 ave 19652 max 19652 min
Histogram: 1 0 0 0 0 0 0 0 0 0
Nghost:    15979 ave 15979 max 15979 min
Histogram: 1 0 0 0 0 0 0 0 0 0
Neighs:    1.08178e+06 ave 1.08178e+06 max 1.08178e+06 min
Histogram: 1 0 0 0 0 0 0 0 0 0

Total # of neighbors = 1081783
Ave neighs/atom = 55.047
Neighbor list builds = 495
Dangerous builds not checked
Setting up Verlet run ...
  Unit style    : metal
  Current step  : 313842
  Time step     : 0.001
Per MPI rank memory allocation (min/avg/max) = 18.19 | 18.19 | 18.19 Mbytes
Step Temp Press TotEng PotEng Enthalpy 
  313842    370.98437    257.91853   -120684.82   -121627.16   -120610.21 
  320014    350.97458    -681.9615   -120799.12   -121690.63   -120996.52 
Loop time of 758.953 on 1 procs for 6172 steps with 19652 atoms

Performance: 0.703 ns/day, 34.158 hours/ns, 8.132 timesteps/s
99.8% CPU use with 1 MPI tasks x no OpenMP threads

MPI task timing breakdown:
Section |  min time  |  avg time  |  max time  |%varavg| %total
---------------------------------------------------------------
Pair    | 405.09     | 405.09     | 405.09     |   0.0 | 53.38
Neigh   | 335.16     | 335.16     | 335.16     |   0.0 | 44.16
Comm    | 6.7881     | 6.7881     | 6.7881     |   0.0 |  0.89
Output  | 0.00016999 | 0.00016999 | 0.00016999 |   0.0 |  0.00
Modify  | 9.4374     | 9.4374     | 9.4374     |   0.0 |  1.24
Other   |            | 2.478      |            |       |  0.33

Nlocal:    19652 ave 19652 max 19652 min
Histogram: 1 0 0 0 0 0 0 0 0 0
Nghost:    16001 ave 16001 max 16001 min
Histogram: 1 0 0 0 0 0 0 0 0 0
Neighs:    1.08102e+06 ave 1.08102e+06 max 1.08102e+06 min
Histogram: 1 0 0 0 0 0 0 0 0 0

Total # of neighbors = 1081018
Ave neighs/atom = 55.008
Neighbor list builds = 6172
Dangerous builds not checked
Setting up Verlet run ...
  Unit style    : metal
  Current step  : 320014
  Time step     : 0.001
Per MPI rank memory allocation (min/avg/max) = 18.19 | 18.19 | 18.19 Mbytes
Step Temp Press TotEng PotEng Enthalpy 
  320014    350.97458    -681.9615   -120799.12   -121690.63   -120996.52 
  320016    351.00297   -678.81613   -120799.12    -121690.7   -120995.61 
  320509    320.76249   -593.61044   -120950.61   -121765.37   -121122.35 
Loop time of 57.9955 on 1 procs for 495 steps with 19652 atoms

Performance: 0.737 ns/day, 32.545 hours/ns, 8.535 timesteps/s
99.9% CPU use with 1 MPI tasks x no OpenMP threads

MPI task timing breakdown:
Section |  min time  |  avg time  |  max time  |%varavg| %total
---------------------------------------------------------------
Pair    | 30.585     | 30.585     | 30.585     |   0.0 | 52.74
Neigh   | 25.938     | 25.938     | 25.938     |   0.0 | 44.72
Comm    | 0.50675    | 0.50675    | 0.50675    |   0.0 |  0.87
Output  | 0.063828   | 0.063828   | 0.063828   |   0.0 |  0.11
Modify  | 0.71603    | 0.71603    | 0.71603    |   0.0 |  1.23
Other   |            | 0.1865     |            |       |  0.32

Nlocal:    19652 ave 19652 max 19652 min
Histogram: 1 0 0 0 0 0 0 0 0 0
Nghost:    15978 ave 15978 max 15978 min
Histogram: 1 0 0 0 0 0 0 0 0 0
Neighs:    1.08173e+06 ave 1.08173e+06 max 1.08173e+06 min
Histogram: 1 0 0 0 0 0 0 0 0 0

Total # of neighbors = 1081731
Ave neighs/atom = 55.0443
Neighbor list builds = 495
Dangerous builds not checked
Setting up Verlet run ...
  Unit style    : metal
  Current step  : 320509
  Time step     : 0.001
Per MPI rank memory allocation (min/avg/max) = 18.19 | 18.19 | 18.19 Mbytes
Step Temp Press TotEng PotEng Enthalpy 
  320509    320.76249   -593.61044   -120950.61   -121765.37   -121122.35 
  326681    299.10874    494.35358   -121074.07   -121833.84   -120931.27 
Loop time of 769.322 on 1 procs for 6172 steps with 19652 atoms

Performance: 0.693 ns/day, 34.624 hours/ns, 8.023 timesteps/s
99.9% CPU use with 1 MPI tasks x no OpenMP threads

MPI task timing breakdown:
Section |  min time  |  avg time  |  max time  |%varavg| %total
---------------------------------------------------------------
Pair    | 412.33     | 412.33     | 412.33     |   0.0 | 53.60
Neigh   | 338.04     | 338.04     | 338.04     |   0.0 | 43.94
Comm    | 6.8696     | 6.8696     | 6.8696     |   0.0 |  0.89
Output  | 0.00029302 | 0.00029302 | 0.00029302 |   0.0 |  0.00
Modify  | 9.5683     | 9.5683     | 9.5683     |   0.0 |  1.24
Other   |            | 2.513      |            |       |  0.33

Nlocal:    19652 ave 19652 max 19652 min
Histogram: 1 0 0 0 0 0 0 0 0 0
Nghost:    16004 ave 16004 max 16004 min
Histogram: 1 0 0 0 0 0 0 0 0 0
Neighs:    1.0844e+06 ave 1.0844e+06 max 1.0844e+06 min
Histogram: 1 0 0 0 0 0 0 0 0 0

Total # of neighbors = 1084399
Ave neighs/atom = 55.1801
Neighbor list builds = 6172
Dangerous builds not checked
Setting up Verlet run ...
  Unit style    : metal
  Current step  : 326681
  Time step     : 0.001
Per MPI rank memory allocation (min/avg/max) = 18.19 | 18.19 | 18.19 Mbytes
Step Temp Press TotEng PotEng Enthalpy 
  326681    299.10874    494.35358   -121074.07   -121833.84   -120931.27 
  326683    299.18566    490.59989   -121074.07   -121834.03   -120932.35 
  327176     272.4453    399.86072   -121213.64   -121905.67   -121098.16 
Loop time of 64.9427 on 1 procs for 495 steps with 19652 atoms

Performance: 0.659 ns/day, 36.444 hours/ns, 7.622 timesteps/s
99.8% CPU use with 1 MPI tasks x no OpenMP threads

MPI task timing breakdown:
Section |  min time  |  avg time  |  max time  |%varavg| %total
---------------------------------------------------------------
Pair    | 34.964     | 34.964     | 34.964     |   0.0 | 53.84
Neigh   | 28.294     | 28.294     | 28.294     |   0.0 | 43.57
Comm    | 0.58559    | 0.58559    | 0.58559    |   0.0 |  0.90
Output  | 0.063483   | 0.063483   | 0.063483   |   0.0 |  0.10
Modify  | 0.82244    | 0.82244    | 0.82244    |   0.0 |  1.27
Other   |            | 0.2132     |            |       |  0.33

Nlocal:    19652 ave 19652 max 19652 min
Histogram: 1 0 0 0 0 0 0 0 0 0
Nghost:    16012 ave 16012 max 16012 min
Histogram: 1 0 0 0 0 0 0 0 0 0
Neighs:    1.08425e+06 ave 1.08425e+06 max 1.08425e+06 min
Histogram: 1 0 0 0 0 0 0 0 0 0

Total # of neighbors = 1084254
Ave neighs/atom = 55.1727
Neighbor list builds = 495
Dangerous builds not checked
Setting up Verlet run ...
  Unit style    : metal
  Current step  : 327176
  Time step     : 0.001
Per MPI rank memory allocation (min/avg/max) = 18.19 | 18.19 | 18.19 Mbytes
Step Temp Press TotEng PotEng Enthalpy 
  327176     272.4453    399.86072   -121213.64   -121905.67   -121098.16 
  333348    252.46868    -58.05414   -121328.14   -121969.43    -121344.9 
Loop time of 760.106 on 1 procs for 6172 steps with 19652 atoms

Performance: 0.702 ns/day, 34.209 hours/ns, 8.120 timesteps/s
99.8% CPU use with 1 MPI tasks x no OpenMP threads

MPI task timing breakdown:
Section |  min time  |  avg time  |  max time  |%varavg| %total
---------------------------------------------------------------
Pair    | 405.03     | 405.03     | 405.03     |   0.0 | 53.29
Neigh   | 336.18     | 336.18     | 336.18     |   0.0 | 44.23
Comm    | 6.8311     | 6.8311     | 6.8311     |   0.0 |  0.90
Output  | 0.00018096 | 0.00018096 | 0.00018096 |   0.0 |  0.00
Modify  | 9.5648     | 9.5648     | 9.5648     |   0.0 |  1.26
Other   |            | 2.504      |            |       |  0.33

Nlocal:    19652 ave 19652 max 19652 min
Histogram: 1 0 0 0 0 0 0 0 0 0
Nghost:    15989 ave 15989 max 15989 min
Histogram: 1 0 0 0 0 0 0 0 0 0
Neighs:    1.08436e+06 ave 1.08436e+06 max 1.08436e+06 min
Histogram: 1 0 0 0 0 0 0 0 0 0

Total # of neighbors = 1084355
Ave neighs/atom = 55.1778
Neighbor list builds = 6172
Dangerous builds not checked
Setting up Verlet run ...
  Unit style    : metal
  Current step  : 333348
  Time step     : 0.001
Per MPI rank memory allocation (min/avg/max) = 18.19 | 18.19 | 18.19 Mbytes
Step Temp Press TotEng PotEng Enthalpy 
  333348    252.46868    -58.05414   -121328.14   -121969.43    -121344.9 
  333350     252.5108   -58.914026   -121328.14   -121969.54   -121345.15 
  333843    224.14718    14.281781   -121473.15   -122042.51   -121469.03 
Loop time of 61.0179 on 1 procs for 495 steps with 19652 atoms

Performance: 0.701 ns/day, 34.241 hours/ns, 8.112 timesteps/s
99.9% CPU use with 1 MPI tasks x no OpenMP threads

MPI task timing breakdown:
Section |  min time  |  avg time  |  max time  |%varavg| %total
---------------------------------------------------------------
Pair    | 32.56      | 32.56      | 32.56      |   0.0 | 53.36
Neigh   | 26.88      | 26.88      | 26.88      |   0.0 | 44.05
Comm    | 0.5487     | 0.5487     | 0.5487     |   0.0 |  0.90
Output  | 0.066259   | 0.066259   | 0.066259   |   0.0 |  0.11
Modify  | 0.76317    | 0.76317    | 0.76317    |   0.0 |  1.25
Other   |            | 0.1995     |            |       |  0.33

Nlocal:    19652 ave 19652 max 19652 min
Histogram: 1 0 0 0 0 0 0 0 0 0
Nghost:    15981 ave 15981 max 15981 min
Histogram: 1 0 0 0 0 0 0 0 0 0
Neighs:    1.08479e+06 ave 1.08479e+06 max 1.08479e+06 min
Histogram: 1 0 0 0 0 0 0 0 0 0

Total # of neighbors = 1084792
Ave neighs/atom = 55.2001
Neighbor list builds = 495
Dangerous builds not checked
Setting up Verlet run ...
  Unit style    : metal
  Current step  : 333843
  Time step     : 0.001
Per MPI rank memory allocation (min/avg/max) = 18.19 | 18.19 | 18.19 Mbytes
Step Temp Press TotEng PotEng Enthalpy 
  333843    224.14718    14.281781   -121473.15   -122042.51   -121469.03 
  340015    197.95737    -308.4887   -121613.86   -122116.69   -121702.93 
Loop time of 758.959 on 1 procs for 6172 steps with 19652 atoms

Performance: 0.703 ns/day, 34.158 hours/ns, 8.132 timesteps/s
99.9% CPU use with 1 MPI tasks x no OpenMP threads

MPI task timing breakdown:
Section |  min time  |  avg time  |  max time  |%varavg| %total
---------------------------------------------------------------
Pair    | 403.94     | 403.94     | 403.94     |   0.0 | 53.22
Neigh   | 336.47     | 336.47     | 336.47     |   0.0 | 44.33
Comm    | 6.635      | 6.635      | 6.635      |   0.0 |  0.87
Output  | 0.00016093 | 0.00016093 | 0.00016093 |   0.0 |  0.00
Modify  | 9.4685     | 9.4685     | 9.4685     |   0.0 |  1.25
Other   |            | 2.445      |            |       |  0.32

Nlocal:    19652 ave 19652 max 19652 min
Histogram: 1 0 0 0 0 0 0 0 0 0
Nghost:    15998 ave 15998 max 15998 min
Histogram: 1 0 0 0 0 0 0 0 0 0
Neighs:    1.08486e+06 ave 1.08486e+06 max 1.08486e+06 min
Histogram: 1 0 0 0 0 0 0 0 0 0

Total # of neighbors = 1084856
Ave neighs/atom = 55.2033
Neighbor list builds = 6172
Dangerous builds not checked
Setting up Verlet run ...
  Unit style    : metal
  Current step  : 340015
  Time step     : 0.001
Per MPI rank memory allocation (min/avg/max) = 18.19 | 18.19 | 18.19 Mbytes
Step Temp Press TotEng PotEng Enthalpy 
  340015    197.95737    -308.4887   -121613.86   -122116.69   -121702.93 
  340017    197.97579   -306.61493   -121613.86   -122116.74   -121702.39 
  340510    175.96384   -128.92145   -121737.02   -122183.98   -121774.22 
Loop time of 60.4147 on 1 procs for 495 steps with 19652 atoms

Performance: 0.708 ns/day, 33.903 hours/ns, 8.193 timesteps/s
99.9% CPU use with 1 MPI tasks x no OpenMP threads

MPI task timing breakdown:
Section |  min time  |  avg time  |  max time  |%varavg| %total
---------------------------------------------------------------
Pair    | 32.14      | 32.14      | 32.14      |   0.0 | 53.20
Neigh   | 26.751     | 26.751     | 26.751     |   0.0 | 44.28
Comm    | 0.52577    | 0.52577    | 0.52577    |   0.0 |  0.87
Output  | 0.043073   | 0.043073   | 0.043073   |   0.0 |  0.07
Modify  | 0.76022    | 0.76022    | 0.76022    |   0.0 |  1.26
Other   |            | 0.1948     |            |       |  0.32

Nlocal:    19652 ave 19652 max 19652 min
Histogram: 1 0 0 0 0 0 0 0 0 0
Nghost:    15971 ave 15971 max 15971 min
Histogram: 1 0 0 0 0 0 0 0 0 0
Neighs:    1.08528e+06 ave 1.08528e+06 max 1.08528e+06 min
Histogram: 1 0 0 0 0 0 0 0 0 0

Total # of neighbors = 1085283
Ave neighs/atom = 55.2251
Neighbor list builds = 495
Dangerous builds not checked
Setting up Verlet run ...
  Unit style    : metal
  Current step  : 340510
  Time step     : 0.001
Per MPI rank memory allocation (min/avg/max) = 18.19 | 18.19 | 18.19 Mbytes
Step Temp Press TotEng PotEng Enthalpy 
  340510    175.96384   -128.92145   -121737.02   -122183.98   -121774.22 
  346682     151.1498    620.28807   -121869.71   -122253.64   -121690.94 
Loop time of 754.685 on 1 procs for 6172 steps with 19652 atoms

Performance: 0.707 ns/day, 33.965 hours/ns, 8.178 timesteps/s
99.9% CPU use with 1 MPI tasks x no OpenMP threads

MPI task timing breakdown:
Section |  min time  |  avg time  |  max time  |%varavg| %total
---------------------------------------------------------------
Pair    | 402.87     | 402.87     | 402.87     |   0.0 | 53.38
Neigh   | 333.2      | 333.2      | 333.2      |   0.0 | 44.15
Comm    | 6.7216     | 6.7216     | 6.7216     |   0.0 |  0.89
Output  | 0.00036001 | 0.00036001 | 0.00036001 |   0.0 |  0.00
Modify  | 9.4223     | 9.4223     | 9.4223     |   0.0 |  1.25
Other   |            | 2.473      |            |       |  0.33

Nlocal:    19652 ave 19652 max 19652 min
Histogram: 1 0 0 0 0 0 0 0 0 0
Nghost:    15996 ave 15996 max 15996 min
Histogram: 1 0 0 0 0 0 0 0 0 0
Neighs:    1.08773e+06 ave 1.08773e+06 max 1.08773e+06 min
Histogram: 1 0 0 0 0 0 0 0 0 0

Total # of neighbors = 1087731
Ave neighs/atom = 55.3496
Neighbor list builds = 6172
Dangerous builds not checked
Setting up Verlet run ...
  Unit style    : metal
  Current step  : 346682
  Time step     : 0.001
Per MPI rank memory allocation (min/avg/max) = 18.19 | 18.19 | 18.19 Mbytes
Step Temp Press TotEng PotEng Enthalpy 
  346682     151.1498    620.28807   -121869.71   -122253.64   -121690.94 
  346684    151.08611     616.9051   -121869.71   -122253.48   -121691.92 
  347177     126.2316   -439.17121   -121990.81   -122311.45   -122117.49 
Loop time of 60.8579 on 1 procs for 495 steps with 19652 atoms

Performance: 0.703 ns/day, 34.151 hours/ns, 8.134 timesteps/s
99.9% CPU use with 1 MPI tasks x no OpenMP threads

MPI task timing breakdown:
Section |  min time  |  avg time  |  max time  |%varavg| %total
---------------------------------------------------------------
Pair    | 32.443     | 32.443     | 32.443     |   0.0 | 53.31
Neigh   | 26.835     | 26.835     | 26.835     |   0.0 | 44.09
Comm    | 0.55603    | 0.55603    | 0.55603    |   0.0 |  0.91
Output  | 0.049164   | 0.049164   | 0.049164   |   0.0 |  0.08
Modify  | 0.77381    | 0.77381    | 0.77381    |   0.0 |  1.27
Other   |            | 0.2012     |            |       |  0.33

Nlocal:    19652 ave 19652 max 19652 min
Histogram: 1 0 0 0 0 0 0 0 0 0
Nghost:    15990 ave 15990 max 15990 min
Histogram: 1 0 0 0 0 0 0 0 0 0
Neighs:    1.08615e+06 ave 1.08615e+06 max 1.08615e+06 min
Histogram: 1 0 0 0 0 0 0 0 0 0

Total # of neighbors = 1086146
Ave neighs/atom = 55.269
Neighbor list builds = 495
Dangerous builds not checked
Setting up Verlet run ...
  Unit style    : metal
  Current step  : 347177
  Time step     : 0.001
Per MPI rank memory allocation (min/avg/max) = 18.19 | 18.19 | 18.19 Mbytes
Step Temp Press TotEng PotEng Enthalpy 
  347177     126.2316   -439.17121   -121990.81   -122311.45   -122117.49 
  353349    100.07154   -422.49051   -122130.37   -122384.56    -122252.2 
Loop time of 738.85 on 1 procs for 6172 steps with 19652 atoms

Performance: 0.722 ns/day, 33.253 hours/ns, 8.354 timesteps/s
99.9% CPU use with 1 MPI tasks x no OpenMP threads

MPI task timing breakdown:
Section |  min time  |  avg time  |  max time  |%varavg| %total
---------------------------------------------------------------
Pair    | 391.86     | 391.86     | 391.86     |   0.0 | 53.04
Neigh   | 328.97     | 328.97     | 328.97     |   0.0 | 44.52
Comm    | 6.4468     | 6.4468     | 6.4468     |   0.0 |  0.87
Output  | 0.0003438  | 0.0003438  | 0.0003438  |   0.0 |  0.00
Modify  | 9.188      | 9.188      | 9.188      |   0.0 |  1.24
Other   |            | 2.388      |            |       |  0.32

Nlocal:    19652 ave 19652 max 19652 min
Histogram: 1 0 0 0 0 0 0 0 0 0
Nghost:    16006 ave 16006 max 16006 min
Histogram: 1 0 0 0 0 0 0 0 0 0
Neighs:    1.08686e+06 ave 1.08686e+06 max 1.08686e+06 min
Histogram: 1 0 0 0 0 0 0 0 0 0

Total # of neighbors = 1086857
Ave neighs/atom = 55.3052
Neighbor list builds = 6172
Dangerous builds not checked
Total wall time: 11:54:59
