LAMMPS (12 Dec 2018)
Lattice spacing in x,y,z = 4 4 4
Created orthogonal box = (0 0 0) to (68 68 68)
  1 by 1 by 1 MPI processor grid
Created 19652 atoms
  Time spent = 0.00309682 secs
Setting atom values ...
  0 settings made for type/fraction
Neighbor list info ...
  update every 1 steps, delay 0 steps, check no
  max neighbors/atom: 2000, page size: 100000
  master list distance cutoff = 8.5
  ghost atom cutoff = 8.5
  binsize = 4.25, bins = 16 16 16
  1 neighbor lists, perpetual/occasional/extra = 1 0 0
  (1) pair eam/alloy, perpetual
      attributes: half, newton on
      pair build: half/bin/atomonly/newton
      stencil: half/bin/3d/newton
      bin: standard
Setting up Verlet run ...
  Unit style    : metal
  Current step  : 0
  Time step     : 0.001
Per MPI rank memory allocation (min/avg/max) = 18.19 | 18.19 | 18.19 Mbytes
Step Temp Press TotEng PotEng Enthalpy 
       0          300    269835.24   -20946.227   -21708.254    32009.758 
    1000    152.40124    268456.59   -20945.989   -21333.102    31739.433 
Loop time of 182.789 on 1 procs for 1000 steps with 19652 atoms

Performance: 0.473 ns/day, 50.775 hours/ns, 5.471 timesteps/s
88.8% CPU use with 1 MPI tasks x no OpenMP threads

MPI task timing breakdown:
Section |  min time  |  avg time  |  max time  |%varavg| %total
---------------------------------------------------------------
Pair    | 104.71     | 104.71     | 104.71     |   0.0 | 57.29
Neigh   | 75.73      | 75.73      | 75.73      |   0.0 | 41.43
Comm    | 1.3962     | 1.3962     | 1.3962     |   0.0 |  0.76
Output  | 0.00032401 | 0.00032401 | 0.00032401 |   0.0 |  0.00
Modify  | 0.48745    | 0.48745    | 0.48745    |   0.0 |  0.27
Other   |            | 0.4609     |            |       |  0.25

Nlocal:    19652 ave 19652 max 19652 min
Histogram: 1 0 0 0 0 0 0 0 0 0
Nghost:    20102 ave 20102 max 20102 min
Histogram: 1 0 0 0 0 0 0 0 0 0
Neighs:    1.57572e+06 ave 1.57572e+06 max 1.57572e+06 min
Histogram: 1 0 0 0 0 0 0 0 0 0

Total # of neighbors = 1575720
Ave neighs/atom = 80.1812
Neighbor list builds = 1000
Dangerous builds not checked
Setting up Verlet run ...
  Unit style    : metal
  Current step  : 1000
  Time step     : 0.001
Per MPI rank memory allocation (min/avg/max) = 18.19 | 18.19 | 18.19 Mbytes
Step Temp Press TotEng PotEng Enthalpy 
    1000    152.40124    268456.59   -20945.989   -21333.102    31739.433 
    2000     254.7532     327.9226   -28379.186   -29026.283   -28286.022 
Loop time of 164.826 on 1 procs for 1000 steps with 19652 atoms

Performance: 0.524 ns/day, 45.785 hours/ns, 6.067 timesteps/s
83.4% CPU use with 1 MPI tasks x no OpenMP threads

MPI task timing breakdown:
Section |  min time  |  avg time  |  max time  |%varavg| %total
---------------------------------------------------------------
Pair    | 86.884     | 86.884     | 86.884     |   0.0 | 52.71
Neigh   | 74.039     | 74.039     | 74.039     |   0.0 | 44.92
Comm    | 1.2485     | 1.2485     | 1.2485     |   0.0 |  0.76
Output  | 0.00021601 | 0.00021601 | 0.00021601 |   0.0 |  0.00
Modify  | 2.1557     | 2.1557     | 2.1557     |   0.0 |  1.31
Other   |            | 0.4987     |            |       |  0.30

Nlocal:    19652 ave 19652 max 19652 min
Histogram: 1 0 0 0 0 0 0 0 0 0
Nghost:    14808 ave 14808 max 14808 min
Histogram: 1 0 0 0 0 0 0 0 0 0
Neighs:    1.11798e+06 ave 1.11798e+06 max 1.11798e+06 min
Histogram: 1 0 0 0 0 0 0 0 0 0

Total # of neighbors = 1117977
Ave neighs/atom = 56.8887
Neighbor list builds = 1000
Dangerous builds not checked
Setting up Verlet run ...
  Unit style    : metal
  Current step  : 2000
  Time step     : 0.001
Per MPI rank memory allocation (min/avg/max) = 18.19 | 18.19 | 18.19 Mbytes
Step Temp Press TotEng PotEng Enthalpy 
    2000     254.7532     327.9226   -28379.186   -29026.283   -28286.022 
    5000    1072.2199    6.0450109    -23134.91   -25858.446   -23132.995 
   10000    2436.4506    459.87258   -14165.467   -20354.274   -13978.273 
Loop time of 1056.26 on 1 procs for 8000 steps with 19652 atoms

Performance: 0.654 ns/day, 36.676 hours/ns, 7.574 timesteps/s
89.1% CPU use with 1 MPI tasks x no OpenMP threads

MPI task timing breakdown:
Section |  min time  |  avg time  |  max time  |%varavg| %total
---------------------------------------------------------------
Pair    | 547.38     | 547.38     | 547.38     |   0.0 | 51.82
Neigh   | 482.1      | 482.1      | 482.1      |   0.0 | 45.64
Comm    | 9.7551     | 9.7551     | 9.7551     |   0.0 |  0.92
Output  | 0.13009    | 0.13009    | 0.13009    |   0.0 |  0.01
Modify  | 13.401     | 13.401     | 13.401     |   0.0 |  1.27
Other   |            | 3.494      |            |       |  0.33

Nlocal:    19652 ave 19652 max 19652 min
Histogram: 1 0 0 0 0 0 0 0 0 0
Nghost:    13979 ave 13979 max 13979 min
Histogram: 1 0 0 0 0 0 0 0 0 0
Neighs:    752600 ave 752600 max 752600 min
Histogram: 1 0 0 0 0 0 0 0 0 0

Total # of neighbors = 752600
Ave neighs/atom = 38.2964
Neighbor list builds = 8000
Dangerous builds not checked
Setting up Verlet run ...
  Unit style    : metal
  Current step  : 10000
  Time step     : 0.001
Per MPI rank memory allocation (min/avg/max) = 18.22 | 18.22 | 18.22 Mbytes
Step Temp Press TotEng PotEng Enthalpy 
   10000    2436.4506    459.87258   -14165.467   -20354.274   -13978.273 
   15000    2441.8346   -364.58665    -13975.04   -20177.522   -14125.531 
   20000    2449.1989   -325.60177   -13986.407   -20207.595   -14120.585 
   25000    2453.9741   -384.56494   -13877.104   -20110.422   -14036.624 
   30000    2434.7532   -252.66083   -14067.308   -20251.803   -14171.214 
   35000    2433.3136   -53.343838   -14088.237   -20269.075   -14110.174 
   40000     2426.912    33.488875   -14130.455   -20295.033   -14116.746 
Loop time of 3751.39 on 1 procs for 30000 steps with 19652 atoms

Performance: 0.691 ns/day, 34.735 hours/ns, 7.997 timesteps/s
87.4% CPU use with 1 MPI tasks x no OpenMP threads

MPI task timing breakdown:
Section |  min time  |  avg time  |  max time  |%varavg| %total
---------------------------------------------------------------
Pair    | 1894.7     | 1894.7     | 1894.7     |   0.0 | 50.51
Neigh   | 1754.3     | 1754.3     | 1754.3     |   0.0 | 46.77
Comm    | 37.166     | 37.166     | 37.166     |   0.0 |  0.99
Output  | 0.42278    | 0.42278    | 0.42278    |   0.0 |  0.01
Modify  | 51.347     | 51.347     | 51.347     |   0.0 |  1.37
Other   |            | 13.44      |            |       |  0.36

Nlocal:    19652 ave 19652 max 19652 min
Histogram: 1 0 0 0 0 0 0 0 0 0
Nghost:    13934 ave 13934 max 13934 min
Histogram: 1 0 0 0 0 0 0 0 0 0
Neighs:    748055 ave 748055 max 748055 min
Histogram: 1 0 0 0 0 0 0 0 0 0

Total # of neighbors = 748055
Ave neighs/atom = 38.0651
Neighbor list builds = 30000
Dangerous builds not checked
Setting up Verlet run ...
  Unit style    : metal
  Current step  : 40000
  Time step     : 0.001
Per MPI rank memory allocation (min/avg/max) = 18.22 | 18.22 | 18.22 Mbytes
Step Temp Press TotEng PotEng Enthalpy 
   40000     2426.912    33.488875   -14130.455   -20295.033   -14116.746 
   40495    2405.0396   -362.55202   -14210.967   -20319.987   -14359.667 
Loop time of 60.8124 on 1 procs for 495 steps with 19652 atoms

Performance: 0.703 ns/day, 34.126 hours/ns, 8.140 timesteps/s
86.0% CPU use with 1 MPI tasks x no OpenMP threads

MPI task timing breakdown:
Section |  min time  |  avg time  |  max time  |%varavg| %total
---------------------------------------------------------------
Pair    | 30.482     | 30.482     | 30.482     |   0.0 | 50.13
Neigh   | 28.477     | 28.477     | 28.477     |   0.0 | 46.83
Comm    | 0.63369    | 0.63369    | 0.63369    |   0.0 |  1.04
Output  | 0.000211   | 0.000211   | 0.000211   |   0.0 |  0.00
Modify  | 1.0182     | 1.0182     | 1.0182     |   0.0 |  1.67
Other   |            | 0.2011     |            |       |  0.33

Nlocal:    19652 ave 19652 max 19652 min
Histogram: 1 0 0 0 0 0 0 0 0 0
Nghost:    13897 ave 13897 max 13897 min
Histogram: 1 0 0 0 0 0 0 0 0 0
Neighs:    746754 ave 746754 max 746754 min
Histogram: 1 0 0 0 0 0 0 0 0 0

Total # of neighbors = 746754
Ave neighs/atom = 37.9989
Neighbor list builds = 495
Dangerous builds not checked
Setting up Verlet run ...
  Unit style    : metal
  Current step  : 40495
  Time step     : 0.001
Per MPI rank memory allocation (min/avg/max) = 18.22 | 18.22 | 18.22 Mbytes
Step Temp Press TotEng PotEng Enthalpy 
   40495    2405.0396   -362.55202   -14210.967   -20319.987   -14359.667 
   45000    2384.5917   -197.17278   -14395.593   -20452.673   -14475.742 
Loop time of 557.381 on 1 procs for 4505 steps with 19652 atoms

Performance: 0.698 ns/day, 34.368 hours/ns, 8.082 timesteps/s
89.4% CPU use with 1 MPI tasks x no OpenMP threads

MPI task timing breakdown:
Section |  min time  |  avg time  |  max time  |%varavg| %total
---------------------------------------------------------------
Pair    | 283.69     | 283.69     | 283.69     |   0.0 | 50.90
Neigh   | 258.63     | 258.63     | 258.63     |   0.0 | 46.40
Comm    | 5.3586     | 5.3586     | 5.3586     |   0.0 |  0.96
Output  | 0.067688   | 0.067688   | 0.067688   |   0.0 |  0.01
Modify  | 7.5924     | 7.5924     | 7.5924     |   0.0 |  1.36
Other   |            | 2.043      |            |       |  0.37

Nlocal:    19652 ave 19652 max 19652 min
Histogram: 1 0 0 0 0 0 0 0 0 0
Nghost:    13928 ave 13928 max 13928 min
Histogram: 1 0 0 0 0 0 0 0 0 0
Neighs:    754076 ave 754076 max 754076 min
Histogram: 1 0 0 0 0 0 0 0 0 0

Total # of neighbors = 754076
Ave neighs/atom = 38.3715
Neighbor list builds = 4505
Dangerous builds not checked
Setting up Verlet run ...
  Unit style    : metal
  Current step  : 45000
  Time step     : 0.001
Per MPI rank memory allocation (min/avg/max) = 18.22 | 18.22 | 18.22 Mbytes
Step Temp Press TotEng PotEng Enthalpy 
   45000    2384.5917   -197.17278   -14395.593   -20452.673   -14475.742 
   45495    2355.5178   -141.48747   -14555.414   -20538.644   -14612.608 
Loop time of 67.1501 on 1 procs for 495 steps with 19652 atoms

Performance: 0.637 ns/day, 37.682 hours/ns, 7.372 timesteps/s
78.2% CPU use with 1 MPI tasks x no OpenMP threads

MPI task timing breakdown:
Section |  min time  |  avg time  |  max time  |%varavg| %total
---------------------------------------------------------------
Pair    | 33.967     | 33.967     | 33.967     |   0.0 | 50.58
Neigh   | 31.344     | 31.344     | 31.344     |   0.0 | 46.68
Comm    | 0.66806    | 0.66806    | 0.66806    |   0.0 |  0.99
Output  | 0.00027394 | 0.00027394 | 0.00027394 |   0.0 |  0.00
Modify  | 0.94227    | 0.94227    | 0.94227    |   0.0 |  1.40
Other   |            | 0.2286     |            |       |  0.34

Nlocal:    19652 ave 19652 max 19652 min
Histogram: 1 0 0 0 0 0 0 0 0 0
Nghost:    13895 ave 13895 max 13895 min
Histogram: 1 0 0 0 0 0 0 0 0 0
Neighs:    757629 ave 757629 max 757629 min
Histogram: 1 0 0 0 0 0 0 0 0 0

Total # of neighbors = 757629
Ave neighs/atom = 38.5523
Neighbor list builds = 495
Dangerous builds not checked
Setting up Verlet run ...
  Unit style    : metal
  Current step  : 45495
  Time step     : 0.001
Per MPI rank memory allocation (min/avg/max) = 18.22 | 18.22 | 18.22 Mbytes
Step Temp Press TotEng PotEng Enthalpy 
   45495    2355.5178   -141.48747   -14555.414   -20538.644   -14612.608 
   50000    2352.4665     156.1818   -14695.641    -20671.12    -14633.06 
Loop time of 542.984 on 1 procs for 4505 steps with 19652 atoms

Performance: 0.717 ns/day, 33.480 hours/ns, 8.297 timesteps/s
91.7% CPU use with 1 MPI tasks x no OpenMP threads

MPI task timing breakdown:
Section |  min time  |  avg time  |  max time  |%varavg| %total
---------------------------------------------------------------
Pair    | 277        | 277        | 277        |   0.0 | 51.01
Neigh   | 251.38     | 251.38     | 251.38     |   0.0 | 46.30
Comm    | 5.1927     | 5.1927     | 5.1927     |   0.0 |  0.96
Output  | 0.066928   | 0.066928   | 0.066928   |   0.0 |  0.01
Modify  | 7.474      | 7.474      | 7.474      |   0.0 |  1.38
Other   |            | 1.867      |            |       |  0.34

Nlocal:    19652 ave 19652 max 19652 min
Histogram: 1 0 0 0 0 0 0 0 0 0
Nghost:    13992 ave 13992 max 13992 min
Histogram: 1 0 0 0 0 0 0 0 0 0
Neighs:    764774 ave 764774 max 764774 min
Histogram: 1 0 0 0 0 0 0 0 0 0

Total # of neighbors = 764774
Ave neighs/atom = 38.9158
Neighbor list builds = 4505
Dangerous builds not checked
Setting up Verlet run ...
  Unit style    : metal
  Current step  : 50000
  Time step     : 0.001
Per MPI rank memory allocation (min/avg/max) = 18.22 | 18.22 | 18.22 Mbytes
Step Temp Press TotEng PotEng Enthalpy 
   50000    2352.4665     156.1818   -14695.641    -20671.12    -14633.06 
   50495    2319.2888   -357.11915   -14844.791   -20735.996   -14987.712 
Loop time of 60.9051 on 1 procs for 495 steps with 19652 atoms

Performance: 0.702 ns/day, 34.178 hours/ns, 8.127 timesteps/s
85.6% CPU use with 1 MPI tasks x no OpenMP threads

MPI task timing breakdown:
Section |  min time  |  avg time  |  max time  |%varavg| %total
---------------------------------------------------------------
Pair    | 30.423     | 30.423     | 30.423     |   0.0 | 49.95
Neigh   | 28.799     | 28.799     | 28.799     |   0.0 | 47.29
Comm    | 0.59382    | 0.59382    | 0.59382    |   0.0 |  0.97
Output  | 0.00019097 | 0.00019097 | 0.00019097 |   0.0 |  0.00
Modify  | 0.84524    | 0.84524    | 0.84524    |   0.0 |  1.39
Other   |            | 0.2432     |            |       |  0.40

Nlocal:    19652 ave 19652 max 19652 min
Histogram: 1 0 0 0 0 0 0 0 0 0
Nghost:    13854 ave 13854 max 13854 min
Histogram: 1 0 0 0 0 0 0 0 0 0
Neighs:    764833 ave 764833 max 764833 min
Histogram: 1 0 0 0 0 0 0 0 0 0

Total # of neighbors = 764833
Ave neighs/atom = 38.9188
Neighbor list builds = 495
Dangerous builds not checked
Setting up Verlet run ...
  Unit style    : metal
  Current step  : 50495
  Time step     : 0.001
Per MPI rank memory allocation (min/avg/max) = 18.22 | 18.22 | 18.22 Mbytes
Step Temp Press TotEng PotEng Enthalpy 
   50495    2319.2888   -357.11915   -14844.791   -20735.996   -14987.712 
   55000    2299.8859   -241.34744   -14984.076   -20825.995   -15080.037 
Loop time of 566.323 on 1 procs for 4505 steps with 19652 atoms

Performance: 0.687 ns/day, 34.919 hours/ns, 7.955 timesteps/s
88.3% CPU use with 1 MPI tasks x no OpenMP threads

MPI task timing breakdown:
Section |  min time  |  avg time  |  max time  |%varavg| %total
---------------------------------------------------------------
Pair    | 290.55     | 290.55     | 290.55     |   0.0 | 51.31
Neigh   | 260.53     | 260.53     | 260.53     |   0.0 | 46.00
Comm    | 5.475      | 5.475      | 5.475      |   0.0 |  0.97
Output  | 0.06924    | 0.06924    | 0.06924    |   0.0 |  0.01
Modify  | 7.7766     | 7.7766     | 7.7766     |   0.0 |  1.37
Other   |            | 1.918      |            |       |  0.34

Nlocal:    19652 ave 19652 max 19652 min
Histogram: 1 0 0 0 0 0 0 0 0 0
Nghost:    14066 ave 14066 max 14066 min
Histogram: 1 0 0 0 0 0 0 0 0 0
Neighs:    769972 ave 769972 max 769972 min
Histogram: 1 0 0 0 0 0 0 0 0 0

Total # of neighbors = 769972
Ave neighs/atom = 39.1803
Neighbor list builds = 4505
Dangerous builds not checked
Setting up Verlet run ...
  Unit style    : metal
  Current step  : 55000
  Time step     : 0.001
Per MPI rank memory allocation (min/avg/max) = 18.22 | 18.22 | 18.22 Mbytes
Step Temp Press TotEng PotEng Enthalpy 
   55000    2299.8859   -241.34744   -14984.076   -20825.995   -15080.037 
   55495     2278.614    172.13279    -15184.51   -20972.397   -15116.514 
Loop time of 60.3111 on 1 procs for 495 steps with 19652 atoms

Performance: 0.709 ns/day, 33.845 hours/ns, 8.207 timesteps/s
87.2% CPU use with 1 MPI tasks x no OpenMP threads

MPI task timing breakdown:
Section |  min time  |  avg time  |  max time  |%varavg| %total
---------------------------------------------------------------
Pair    | 30.689     | 30.689     | 30.689     |   0.0 | 50.88
Neigh   | 27.994     | 27.994     | 27.994     |   0.0 | 46.42
Comm    | 0.59187    | 0.59187    | 0.59187    |   0.0 |  0.98
Output  | 0.00019097 | 0.00019097 | 0.00019097 |   0.0 |  0.00
Modify  | 0.8329     | 0.8329     | 0.8329     |   0.0 |  1.38
Other   |            | 0.2033     |            |       |  0.34

Nlocal:    19652 ave 19652 max 19652 min
Histogram: 1 0 0 0 0 0 0 0 0 0
Nghost:    14205 ave 14205 max 14205 min
Histogram: 1 0 0 0 0 0 0 0 0 0
Neighs:    775736 ave 775736 max 775736 min
Histogram: 1 0 0 0 0 0 0 0 0 0

Total # of neighbors = 775736
Ave neighs/atom = 39.4736
Neighbor list builds = 495
Dangerous builds not checked
Setting up Verlet run ...
  Unit style    : metal
  Current step  : 55495
  Time step     : 0.001
Per MPI rank memory allocation (min/avg/max) = 18.22 | 18.22 | 18.22 Mbytes
Step Temp Press TotEng PotEng Enthalpy 
   55495     2278.614    172.13279    -15184.51   -20972.397   -15116.514 
   60000    2255.0654    31.063212   -15245.036   -20973.107   -15232.804 
Loop time of 566.238 on 1 procs for 4505 steps with 19652 atoms

Performance: 0.687 ns/day, 34.914 hours/ns, 7.956 timesteps/s
88.7% CPU use with 1 MPI tasks x no OpenMP threads

MPI task timing breakdown:
Section |  min time  |  avg time  |  max time  |%varavg| %total
---------------------------------------------------------------
Pair    | 289.65     | 289.65     | 289.65     |   0.0 | 51.15
Neigh   | 260.59     | 260.59     | 260.59     |   0.0 | 46.02
Comm    | 5.4661     | 5.4661     | 5.4661     |   0.0 |  0.97
Output  | 1.0152     | 1.0152     | 1.0152     |   0.0 |  0.18
Modify  | 7.5878     | 7.5878     | 7.5878     |   0.0 |  1.34
Other   |            | 1.932      |            |       |  0.34

Nlocal:    19652 ave 19652 max 19652 min
Histogram: 1 0 0 0 0 0 0 0 0 0
Nghost:    14186 ave 14186 max 14186 min
Histogram: 1 0 0 0 0 0 0 0 0 0
Neighs:    777544 ave 777544 max 777544 min
Histogram: 1 0 0 0 0 0 0 0 0 0

Total # of neighbors = 777544
Ave neighs/atom = 39.5656
Neighbor list builds = 4505
Dangerous builds not checked
Setting up Verlet run ...
  Unit style    : metal
  Current step  : 60000
  Time step     : 0.001
Per MPI rank memory allocation (min/avg/max) = 18.22 | 18.22 | 18.22 Mbytes
Step Temp Press TotEng PotEng Enthalpy 
   60000    2255.0654    31.063212   -15245.036   -20973.107   -15232.804 
   60495    2220.3258   -107.72274   -15526.095   -21165.925   -15568.173 
Loop time of 54.7207 on 1 procs for 495 steps with 19652 atoms

Performance: 0.782 ns/day, 30.707 hours/ns, 9.046 timesteps/s
98.5% CPU use with 1 MPI tasks x no OpenMP threads

MPI task timing breakdown:
Section |  min time  |  avg time  |  max time  |%varavg| %total
---------------------------------------------------------------
Pair    | 28.219     | 28.219     | 28.219     |   0.0 | 51.57
Neigh   | 24.978     | 24.978     | 24.978     |   0.0 | 45.65
Comm    | 0.55498    | 0.55498    | 0.55498    |   0.0 |  1.01
Output  | 0.00017691 | 0.00017691 | 0.00017691 |   0.0 |  0.00
Modify  | 0.77194    | 0.77194    | 0.77194    |   0.0 |  1.41
Other   |            | 0.1968     |            |       |  0.36

Nlocal:    19652 ave 19652 max 19652 min
Histogram: 1 0 0 0 0 0 0 0 0 0
Nghost:    14270 ave 14270 max 14270 min
Histogram: 1 0 0 0 0 0 0 0 0 0
Neighs:    784464 ave 784464 max 784464 min
Histogram: 1 0 0 0 0 0 0 0 0 0

Total # of neighbors = 784464
Ave neighs/atom = 39.9178
Neighbor list builds = 495
Dangerous builds not checked
Setting up Verlet run ...
  Unit style    : metal
  Current step  : 60495
  Time step     : 0.001
Per MPI rank memory allocation (min/avg/max) = 18.22 | 18.22 | 18.22 Mbytes
Step Temp Press TotEng PotEng Enthalpy 
   60495    2220.3258   -107.72274   -15526.095   -21165.925   -15568.173 
   65000    2206.4328   -146.12917   -15584.353   -21188.893   -15641.321 
Loop time of 540.377 on 1 procs for 4505 steps with 19652 atoms

Performance: 0.720 ns/day, 33.320 hours/ns, 8.337 timesteps/s
95.6% CPU use with 1 MPI tasks x no OpenMP threads

MPI task timing breakdown:
Section |  min time  |  avg time  |  max time  |%varavg| %total
---------------------------------------------------------------
Pair    | 280.42     | 280.42     | 280.42     |   0.0 | 51.89
Neigh   | 245.74     | 245.74     | 245.74     |   0.0 | 45.47
Comm    | 5.2497     | 5.2497     | 5.2497     |   0.0 |  0.97
Output  | 0.069973   | 0.069973   | 0.069973   |   0.0 |  0.01
Modify  | 7.0674     | 7.0674     | 7.0674     |   0.0 |  1.31
Other   |            | 1.83       |            |       |  0.34

Nlocal:    19652 ave 19652 max 19652 min
Histogram: 1 0 0 0 0 0 0 0 0 0
Nghost:    14285 ave 14285 max 14285 min
Histogram: 1 0 0 0 0 0 0 0 0 0
Neighs:    785079 ave 785079 max 785079 min
Histogram: 1 0 0 0 0 0 0 0 0 0

Total # of neighbors = 785079
Ave neighs/atom = 39.9491
Neighbor list builds = 4505
Dangerous builds not checked
Setting up Verlet run ...
  Unit style    : metal
  Current step  : 65000
  Time step     : 0.001
Per MPI rank memory allocation (min/avg/max) = 18.22 | 18.22 | 18.22 Mbytes
Step Temp Press TotEng PotEng Enthalpy 
   65000    2206.4328   -146.12917   -15584.353   -21188.893   -15641.321 
   65495    2169.0773    203.52887   -15810.435   -21320.089   -15731.813 
Loop time of 55.4147 on 1 procs for 495 steps with 19652 atoms

Performance: 0.772 ns/day, 31.097 hours/ns, 8.933 timesteps/s
98.4% CPU use with 1 MPI tasks x no OpenMP threads

MPI task timing breakdown:
Section |  min time  |  avg time  |  max time  |%varavg| %total
---------------------------------------------------------------
Pair    | 28.617     | 28.617     | 28.617     |   0.0 | 51.64
Neigh   | 25.315     | 25.315     | 25.315     |   0.0 | 45.68
Comm    | 0.53604    | 0.53604    | 0.53604    |   0.0 |  0.97
Output  | 0.00026298 | 0.00026298 | 0.00026298 |   0.0 |  0.00
Modify  | 0.74777    | 0.74777    | 0.74777    |   0.0 |  1.35
Other   |            | 0.1991     |            |       |  0.36

Nlocal:    19652 ave 19652 max 19652 min
Histogram: 1 0 0 0 0 0 0 0 0 0
Nghost:    14181 ave 14181 max 14181 min
Histogram: 1 0 0 0 0 0 0 0 0 0
Neighs:    792282 ave 792282 max 792282 min
Histogram: 1 0 0 0 0 0 0 0 0 0

Total # of neighbors = 792282
Ave neighs/atom = 40.3156
Neighbor list builds = 495
Dangerous builds not checked
Setting up Verlet run ...
  Unit style    : metal
  Current step  : 65495
  Time step     : 0.001
Per MPI rank memory allocation (min/avg/max) = 18.22 | 18.22 | 18.22 Mbytes
Step Temp Press TotEng PotEng Enthalpy 
   65495    2169.0773    203.52887   -15810.435   -21320.089   -15731.813 
   70000    2152.6472    379.90768   -15982.564   -21450.484   -15836.769 
Loop time of 529.68 on 1 procs for 4505 steps with 19652 atoms

Performance: 0.735 ns/day, 32.660 hours/ns, 8.505 timesteps/s
98.8% CPU use with 1 MPI tasks x no OpenMP threads

MPI task timing breakdown:
Section |  min time  |  avg time  |  max time  |%varavg| %total
---------------------------------------------------------------
Pair    | 276.49     | 276.49     | 276.49     |   0.0 | 52.20
Neigh   | 239.38     | 239.38     | 239.38     |   0.0 | 45.19
Comm    | 5.0406     | 5.0406     | 5.0406     |   0.0 |  0.95
Output  | 0.06655    | 0.06655    | 0.06655    |   0.0 |  0.01
Modify  | 6.8873     | 6.8873     | 6.8873     |   0.0 |  1.30
Other   |            | 1.812      |            |       |  0.34

Nlocal:    19652 ave 19652 max 19652 min
Histogram: 1 0 0 0 0 0 0 0 0 0
Nghost:    14327 ave 14327 max 14327 min
Histogram: 1 0 0 0 0 0 0 0 0 0
Neighs:    798180 ave 798180 max 798180 min
Histogram: 1 0 0 0 0 0 0 0 0 0

Total # of neighbors = 798180
Ave neighs/atom = 40.6157
Neighbor list builds = 4505
Dangerous builds not checked
Setting up Verlet run ...
  Unit style    : metal
  Current step  : 70000
  Time step     : 0.001
Per MPI rank memory allocation (min/avg/max) = 18.22 | 18.22 | 18.22 Mbytes
Step Temp Press TotEng PotEng Enthalpy 
   70000    2152.6472    379.90768   -15982.564   -21450.484   -15836.769 
   70495    2109.3858    198.99721   -16145.618    -21503.65   -16069.413 
Loop time of 54.9057 on 1 procs for 495 steps with 19652 atoms

Performance: 0.779 ns/day, 30.811 hours/ns, 9.015 timesteps/s
98.8% CPU use with 1 MPI tasks x no OpenMP threads

MPI task timing breakdown:
Section |  min time  |  avg time  |  max time  |%varavg| %total
---------------------------------------------------------------
Pair    | 28.182     | 28.182     | 28.182     |   0.0 | 51.33
Neigh   | 25.222     | 25.222     | 25.222     |   0.0 | 45.94
Comm    | 0.55672    | 0.55672    | 0.55672    |   0.0 |  1.01
Output  | 0.00021601 | 0.00021601 | 0.00021601 |   0.0 |  0.00
Modify  | 0.75281    | 0.75281    | 0.75281    |   0.0 |  1.37
Other   |            | 0.1921     |            |       |  0.35

Nlocal:    19652 ave 19652 max 19652 min
Histogram: 1 0 0 0 0 0 0 0 0 0
Nghost:    14413 ave 14413 max 14413 min
Histogram: 1 0 0 0 0 0 0 0 0 0
Neighs:    799627 ave 799627 max 799627 min
Histogram: 1 0 0 0 0 0 0 0 0 0

Total # of neighbors = 799627
Ave neighs/atom = 40.6893
Neighbor list builds = 495
Dangerous builds not checked
Setting up Verlet run ...
  Unit style    : metal
  Current step  : 70495
  Time step     : 0.001
Per MPI rank memory allocation (min/avg/max) = 18.22 | 18.22 | 18.22 Mbytes
Step Temp Press TotEng PotEng Enthalpy 
   70495    2109.3858    198.99721   -16145.618    -21503.65   -16069.413 
   75000    2073.7347   -46.274226   -16342.902   -21610.378   -16360.527 
Loop time of 532.727 on 1 procs for 4505 steps with 19652 atoms

Performance: 0.731 ns/day, 32.848 hours/ns, 8.456 timesteps/s
98.5% CPU use with 1 MPI tasks x no OpenMP threads

MPI task timing breakdown:
Section |  min time  |  avg time  |  max time  |%varavg| %total
---------------------------------------------------------------
Pair    | 268.91     | 268.91     | 268.91     |   0.0 | 50.48
Neigh   | 249.79     | 249.79     | 249.79     |   0.0 | 46.89
Comm    | 5.0932     | 5.0932     | 5.0932     |   0.0 |  0.96
Output  | 0.067016   | 0.067016   | 0.067016   |   0.0 |  0.01
Modify  | 7.08       | 7.08       | 7.08       |   0.0 |  1.33
Other   |            | 1.784      |            |       |  0.33

Nlocal:    19652 ave 19652 max 19652 min
Histogram: 1 0 0 0 0 0 0 0 0 0
Nghost:    14339 ave 14339 max 14339 min
Histogram: 1 0 0 0 0 0 0 0 0 0
Neighs:    804158 ave 804158 max 804158 min
Histogram: 1 0 0 0 0 0 0 0 0 0

Total # of neighbors = 804158
Ave neighs/atom = 40.9199
Neighbor list builds = 4505
Dangerous builds not checked
Setting up Verlet run ...
  Unit style    : metal
  Current step  : 75000
  Time step     : 0.001
Per MPI rank memory allocation (min/avg/max) = 18.22 | 18.22 | 18.22 Mbytes
Step Temp Press TotEng PotEng Enthalpy 
   75000    2073.7347   -46.274226   -16342.902   -21610.378   -16360.527 
   75495    2073.8684   -463.03563   -16439.051   -21706.866   -16615.055 
Loop time of 55.9912 on 1 procs for 495 steps with 19652 atoms

Performance: 0.764 ns/day, 31.420 hours/ns, 8.841 timesteps/s
98.2% CPU use with 1 MPI tasks x no OpenMP threads

MPI task timing breakdown:
Section |  min time  |  avg time  |  max time  |%varavg| %total
---------------------------------------------------------------
Pair    | 27.662     | 27.662     | 27.662     |   0.0 | 49.40
Neigh   | 26.819     | 26.819     | 26.819     |   0.0 | 47.90
Comm    | 0.53343    | 0.53343    | 0.53343    |   0.0 |  0.95
Output  | 0.00032306 | 0.00032306 | 0.00032306 |   0.0 |  0.00
Modify  | 0.7741     | 0.7741     | 0.7741     |   0.0 |  1.38
Other   |            | 0.2023     |            |       |  0.36

Nlocal:    19652 ave 19652 max 19652 min
Histogram: 1 0 0 0 0 0 0 0 0 0
Nghost:    14445 ave 14445 max 14445 min
Histogram: 1 0 0 0 0 0 0 0 0 0
Neighs:    805552 ave 805552 max 805552 min
Histogram: 1 0 0 0 0 0 0 0 0 0

Total # of neighbors = 805552
Ave neighs/atom = 40.9908
Neighbor list builds = 495
Dangerous builds not checked
Setting up Verlet run ...
  Unit style    : metal
  Current step  : 75495
  Time step     : 0.001
Per MPI rank memory allocation (min/avg/max) = 18.22 | 18.22 | 18.22 Mbytes
Step Temp Press TotEng PotEng Enthalpy 
   75495    2073.8684   -463.03563   -16439.051   -21706.866   -16615.055 
   80000     2048.472    -238.0553   -16432.203   -21635.508   -16522.818 
Loop time of 533.78 on 1 procs for 4505 steps with 19652 atoms

Performance: 0.729 ns/day, 32.913 hours/ns, 8.440 timesteps/s
98.3% CPU use with 1 MPI tasks x no OpenMP threads

MPI task timing breakdown:
Section |  min time  |  avg time  |  max time  |%varavg| %total
---------------------------------------------------------------
Pair    | 268.42     | 268.42     | 268.42     |   0.0 | 50.29
Neigh   | 251.25     | 251.25     | 251.25     |   0.0 | 47.07
Comm    | 5.1262     | 5.1262     | 5.1262     |   0.0 |  0.96
Output  | 0.15551    | 0.15551    | 0.15551    |   0.0 |  0.03
Modify  | 7.0301     | 7.0301     | 7.0301     |   0.0 |  1.32
Other   |            | 1.801      |            |       |  0.34

Nlocal:    19652 ave 19652 max 19652 min
Histogram: 1 0 0 0 0 0 0 0 0 0
Nghost:    14243 ave 14243 max 14243 min
Histogram: 1 0 0 0 0 0 0 0 0 0
Neighs:    804708 ave 804708 max 804708 min
Histogram: 1 0 0 0 0 0 0 0 0 0

Total # of neighbors = 804708
Ave neighs/atom = 40.9479
Neighbor list builds = 4505
Dangerous builds not checked
Setting up Verlet run ...
  Unit style    : metal
  Current step  : 80000
  Time step     : 0.001
Per MPI rank memory allocation (min/avg/max) = 18.22 | 18.22 | 18.22 Mbytes
Step Temp Press TotEng PotEng Enthalpy 
   80000     2048.472    -238.0553   -16432.203   -21635.508   -16522.818 
   80495    2019.7383    167.91724   -16710.873   -21841.192   -16647.704 
Loop time of 56.2454 on 1 procs for 495 steps with 19652 atoms

Performance: 0.760 ns/day, 31.563 hours/ns, 8.801 timesteps/s
99.7% CPU use with 1 MPI tasks x no OpenMP threads

MPI task timing breakdown:
Section |  min time  |  avg time  |  max time  |%varavg| %total
---------------------------------------------------------------
Pair    | 28.029     | 28.029     | 28.029     |   0.0 | 49.83
Neigh   | 26.733     | 26.733     | 26.733     |   0.0 | 47.53
Comm    | 0.53132    | 0.53132    | 0.53132    |   0.0 |  0.94
Output  | 0.00021887 | 0.00021887 | 0.00021887 |   0.0 |  0.00
Modify  | 0.75627    | 0.75627    | 0.75627    |   0.0 |  1.34
Other   |            | 0.1957     |            |       |  0.35

Nlocal:    19652 ave 19652 max 19652 min
Histogram: 1 0 0 0 0 0 0 0 0 0
Nghost:    14501 ave 14501 max 14501 min
Histogram: 1 0 0 0 0 0 0 0 0 0
Neighs:    813808 ave 813808 max 813808 min
Histogram: 1 0 0 0 0 0 0 0 0 0

Total # of neighbors = 813808
Ave neighs/atom = 41.411
Neighbor list builds = 495
Dangerous builds not checked
Setting up Verlet run ...
  Unit style    : metal
  Current step  : 80495
  Time step     : 0.001
Per MPI rank memory allocation (min/avg/max) = 18.22 | 18.22 | 18.22 Mbytes
Step Temp Press TotEng PotEng Enthalpy 
   80495    2019.7383    167.91724   -16710.873   -21841.192   -16647.704 
   85000    1998.2881   -68.449701   -16879.036    -21954.87   -16904.671 
Loop time of 532.297 on 1 procs for 4505 steps with 19652 atoms

Performance: 0.731 ns/day, 32.821 hours/ns, 8.463 timesteps/s
99.2% CPU use with 1 MPI tasks x no OpenMP threads

MPI task timing breakdown:
Section |  min time  |  avg time  |  max time  |%varavg| %total
---------------------------------------------------------------
Pair    | 268.81     | 268.81     | 268.81     |   0.0 | 50.50
Neigh   | 249.48     | 249.48     | 249.48     |   0.0 | 46.87
Comm    | 5.085      | 5.085      | 5.085      |   0.0 |  0.96
Output  | 0.061968   | 0.061968   | 0.061968   |   0.0 |  0.01
Modify  | 7.0595     | 7.0595     | 7.0595     |   0.0 |  1.33
Other   |            | 1.801      |            |       |  0.34

Nlocal:    19652 ave 19652 max 19652 min
Histogram: 1 0 0 0 0 0 0 0 0 0
Nghost:    14376 ave 14376 max 14376 min
Histogram: 1 0 0 0 0 0 0 0 0 0
Neighs:    817536 ave 817536 max 817536 min
Histogram: 1 0 0 0 0 0 0 0 0 0

Total # of neighbors = 817536
Ave neighs/atom = 41.6007
Neighbor list builds = 4505
Dangerous builds not checked
Setting up Verlet run ...
  Unit style    : metal
  Current step  : 85000
  Time step     : 0.001
Per MPI rank memory allocation (min/avg/max) = 18.22 | 18.22 | 18.22 Mbytes
Step Temp Press TotEng PotEng Enthalpy 
   85000    1998.2881   -68.449701   -16879.036    -21954.87   -16904.671 
   85495     1965.274   -211.12887   -17071.409   -22063.384   -17150.129 
Loop time of 60.2133 on 1 procs for 495 steps with 19652 atoms

Performance: 0.710 ns/day, 33.790 hours/ns, 8.221 timesteps/s
99.8% CPU use with 1 MPI tasks x no OpenMP threads

MPI task timing breakdown:
Section |  min time  |  avg time  |  max time  |%varavg| %total
---------------------------------------------------------------
Pair    | 31.12      | 31.12      | 31.12      |   0.0 | 51.68
Neigh   | 27.492     | 27.492     | 27.492     |   0.0 | 45.66
Comm    | 0.58374    | 0.58374    | 0.58374    |   0.0 |  0.97
Output  | 0.00025678 | 0.00025678 | 0.00025678 |   0.0 |  0.00
Modify  | 0.81482    | 0.81482    | 0.81482    |   0.0 |  1.35
Other   |            | 0.2035     |            |       |  0.34

Nlocal:    19652 ave 19652 max 19652 min
Histogram: 1 0 0 0 0 0 0 0 0 0
Nghost:    14400 ave 14400 max 14400 min
Histogram: 1 0 0 0 0 0 0 0 0 0
Neighs:    821324 ave 821324 max 821324 min
Histogram: 1 0 0 0 0 0 0 0 0 0

Total # of neighbors = 821324
Ave neighs/atom = 41.7934
Neighbor list builds = 495
Dangerous builds not checked
Setting up Verlet run ...
  Unit style    : metal
  Current step  : 85495
  Time step     : 0.001
Per MPI rank memory allocation (min/avg/max) = 18.22 | 18.22 | 18.22 Mbytes
Step Temp Press TotEng PotEng Enthalpy 
   85495     1965.274   -211.12887   -17071.409   -22063.384   -17150.129 
   90000    1936.4353    356.88777   -17192.358    -22111.08   -17060.151 
Loop time of 567.205 on 1 procs for 4505 steps with 19652 atoms

Performance: 0.686 ns/day, 34.974 hours/ns, 7.942 timesteps/s
99.5% CPU use with 1 MPI tasks x no OpenMP threads

MPI task timing breakdown:
Section |  min time  |  avg time  |  max time  |%varavg| %total
---------------------------------------------------------------
Pair    | 295        | 295        | 295        |   0.0 | 52.01
Neigh   | 257.28     | 257.28     | 257.28     |   0.0 | 45.36
Comm    | 5.497      | 5.497      | 5.497      |   0.0 |  0.97
Output  | 0.14196    | 0.14196    | 0.14196    |   0.0 |  0.03
Modify  | 7.4348     | 7.4348     | 7.4348     |   0.0 |  1.31
Other   |            | 1.855      |            |       |  0.33

Nlocal:    19652 ave 19652 max 19652 min
Histogram: 1 0 0 0 0 0 0 0 0 0
Nghost:    14510 ave 14510 max 14510 min
Histogram: 1 0 0 0 0 0 0 0 0 0
Neighs:    826830 ave 826830 max 826830 min
Histogram: 1 0 0 0 0 0 0 0 0 0

Total # of neighbors = 826830
Ave neighs/atom = 42.0736
Neighbor list builds = 4505
Dangerous builds not checked
Setting up Verlet run ...
  Unit style    : metal
  Current step  : 90000
  Time step     : 0.001
Per MPI rank memory allocation (min/avg/max) = 18.22 | 18.22 | 18.22 Mbytes
Step Temp Press TotEng PotEng Enthalpy 
   90000    1936.4353    356.88777   -17192.358    -22111.08   -17060.151 
   90495    1908.5607   -42.160136   -17278.791   -22126.709   -17294.444 
Loop time of 56.7575 on 1 procs for 495 steps with 19652 atoms

Performance: 0.754 ns/day, 31.850 hours/ns, 8.721 timesteps/s
99.5% CPU use with 1 MPI tasks x no OpenMP threads

MPI task timing breakdown:
Section |  min time  |  avg time  |  max time  |%varavg| %total
---------------------------------------------------------------
Pair    | 28.892     | 28.892     | 28.892     |   0.0 | 50.90
Neigh   | 26.343     | 26.343     | 26.343     |   0.0 | 46.41
Comm    | 0.54827    | 0.54827    | 0.54827    |   0.0 |  0.97
Output  | 0.00018883 | 0.00018883 | 0.00018883 |   0.0 |  0.00
Modify  | 0.77678    | 0.77678    | 0.77678    |   0.0 |  1.37
Other   |            | 0.1972     |            |       |  0.35

Nlocal:    19652 ave 19652 max 19652 min
Histogram: 1 0 0 0 0 0 0 0 0 0
Nghost:    14420 ave 14420 max 14420 min
Histogram: 1 0 0 0 0 0 0 0 0 0
Neighs:    825165 ave 825165 max 825165 min
Histogram: 1 0 0 0 0 0 0 0 0 0

Total # of neighbors = 825165
Ave neighs/atom = 41.9889
Neighbor list builds = 495
Dangerous builds not checked
Setting up Verlet run ...
  Unit style    : metal
  Current step  : 90495
  Time step     : 0.001
Per MPI rank memory allocation (min/avg/max) = 18.22 | 18.22 | 18.22 Mbytes
Step Temp Press TotEng PotEng Enthalpy 
   90495    1908.5607   -42.160136   -17278.791   -22126.709   -17294.444 
   95000    1914.0886   -50.376883   -17372.219   -22234.178   -17390.825 
Loop time of 554.948 on 1 procs for 4505 steps with 19652 atoms

Performance: 0.701 ns/day, 34.218 hours/ns, 8.118 timesteps/s
99.3% CPU use with 1 MPI tasks x no OpenMP threads

MPI task timing breakdown:
Section |  min time  |  avg time  |  max time  |%varavg| %total
---------------------------------------------------------------
Pair    | 287.78     | 287.78     | 287.78     |   0.0 | 51.86
Neigh   | 252.82     | 252.82     | 252.82     |   0.0 | 45.56
Comm    | 5.2029     | 5.2029     | 5.2029     |   0.0 |  0.94
Output  | 0.068115   | 0.068115   | 0.068115   |   0.0 |  0.01
Modify  | 7.2425     | 7.2425     | 7.2425     |   0.0 |  1.31
Other   |            | 1.841      |            |       |  0.33

Nlocal:    19652 ave 19652 max 19652 min
Histogram: 1 0 0 0 0 0 0 0 0 0
Nghost:    14524 ave 14524 max 14524 min
Histogram: 1 0 0 0 0 0 0 0 0 0
Neighs:    829404 ave 829404 max 829404 min
Histogram: 1 0 0 0 0 0 0 0 0 0

Total # of neighbors = 829404
Ave neighs/atom = 42.2046
Neighbor list builds = 4505
Dangerous builds not checked
Setting up Verlet run ...
  Unit style    : metal
  Current step  : 95000
  Time step     : 0.001
Per MPI rank memory allocation (min/avg/max) = 18.22 | 18.22 | 18.22 Mbytes
Step Temp Press TotEng PotEng Enthalpy 
   95000    1914.0886   -50.376883   -17372.219   -22234.178   -17390.825 
   95495    1863.5018    11.100173   -17623.906    -22357.37   -17619.833 
Loop time of 56.9291 on 1 procs for 495 steps with 19652 atoms

Performance: 0.751 ns/day, 31.947 hours/ns, 8.695 timesteps/s
99.7% CPU use with 1 MPI tasks x no OpenMP threads

MPI task timing breakdown:
Section |  min time  |  avg time  |  max time  |%varavg| %total
---------------------------------------------------------------
Pair    | 29.013     | 29.013     | 29.013     |   0.0 | 50.96
Neigh   | 26.362     | 26.362     | 26.362     |   0.0 | 46.31
Comm    | 0.55406    | 0.55406    | 0.55406    |   0.0 |  0.97
Output  | 0.0001862  | 0.0001862  | 0.0001862  |   0.0 |  0.00
Modify  | 0.7945     | 0.7945     | 0.7945     |   0.0 |  1.40
Other   |            | 0.2059     |            |       |  0.36

Nlocal:    19652 ave 19652 max 19652 min
Histogram: 1 0 0 0 0 0 0 0 0 0
Nghost:    14623 ave 14623 max 14623 min
Histogram: 1 0 0 0 0 0 0 0 0 0
Neighs:    834477 ave 834477 max 834477 min
Histogram: 1 0 0 0 0 0 0 0 0 0

Total # of neighbors = 834477
Ave neighs/atom = 42.4627
Neighbor list builds = 495
Dangerous builds not checked
Setting up Verlet run ...
  Unit style    : metal
  Current step  : 95495
  Time step     : 0.001
Per MPI rank memory allocation (min/avg/max) = 18.22 | 18.22 | 18.22 Mbytes
Step Temp Press TotEng PotEng Enthalpy 
   95495    1863.5018    11.100173   -17623.906    -22357.37   -17619.833 
  100000    1860.1571   -156.28907   -17636.228   -22361.196   -17693.631 
Loop time of 571.061 on 1 procs for 4505 steps with 19652 atoms

Performance: 0.682 ns/day, 35.212 hours/ns, 7.889 timesteps/s
99.3% CPU use with 1 MPI tasks x no OpenMP threads

MPI task timing breakdown:
Section |  min time  |  avg time  |  max time  |%varavg| %total
---------------------------------------------------------------
Pair    | 298.88     | 298.88     | 298.88     |   0.0 | 52.34
Neigh   | 257.4      | 257.4      | 257.4      |   0.0 | 45.07
Comm    | 5.4309     | 5.4309     | 5.4309     |   0.0 |  0.95
Output  | 0.063672   | 0.063672   | 0.063672   |   0.0 |  0.01
Modify  | 7.3862     | 7.3862     | 7.3862     |   0.0 |  1.29
Other   |            | 1.906      |            |       |  0.33

Nlocal:    19652 ave 19652 max 19652 min
Histogram: 1 0 0 0 0 0 0 0 0 0
Nghost:    14637 ave 14637 max 14637 min
Histogram: 1 0 0 0 0 0 0 0 0 0
Neighs:    834185 ave 834185 max 834185 min
Histogram: 1 0 0 0 0 0 0 0 0 0

Total # of neighbors = 834185
Ave neighs/atom = 42.4478
Neighbor list builds = 4505
Dangerous builds not checked
Setting up Verlet run ...
  Unit style    : metal
  Current step  : 100000
  Time step     : 0.001
Per MPI rank memory allocation (min/avg/max) = 18.22 | 18.22 | 18.22 Mbytes
Step Temp Press TotEng PotEng Enthalpy 
  100000    1860.1571   -156.28907   -17636.228   -22361.196   -17693.631 
  100495    1822.7992    379.72604   -17898.087   -22528.163   -17760.072 
Loop time of 60.7452 on 1 procs for 495 steps with 19652 atoms

Performance: 0.704 ns/day, 34.088 hours/ns, 8.149 timesteps/s
99.7% CPU use with 1 MPI tasks x no OpenMP threads

MPI task timing breakdown:
Section |  min time  |  avg time  |  max time  |%varavg| %total
---------------------------------------------------------------
Pair    | 31.69      | 31.69      | 31.69      |   0.0 | 52.17
Neigh   | 27.437     | 27.437     | 27.437     |   0.0 | 45.17
Comm    | 0.60241    | 0.60241    | 0.60241    |   0.0 |  0.99
Output  | 0.00021291 | 0.00021291 | 0.00021291 |   0.0 |  0.00
Modify  | 0.80889    | 0.80889    | 0.80889    |   0.0 |  1.33
Other   |            | 0.2064     |            |       |  0.34

Nlocal:    19652 ave 19652 max 19652 min
Histogram: 1 0 0 0 0 0 0 0 0 0
Nghost:    14622 ave 14622 max 14622 min
Histogram: 1 0 0 0 0 0 0 0 0 0
Neighs:    842915 ave 842915 max 842915 min
Histogram: 1 0 0 0 0 0 0 0 0 0

Total # of neighbors = 842915
Ave neighs/atom = 42.8921
Neighbor list builds = 495
Dangerous builds not checked
Setting up Verlet run ...
  Unit style    : metal
  Current step  : 100495
  Time step     : 0.001
Per MPI rank memory allocation (min/avg/max) = 18.22 | 18.22 | 18.22 Mbytes
Step Temp Press TotEng PotEng Enthalpy 
  100495    1822.7992    379.72604   -17898.087   -22528.163   -17760.072 
  105000    1796.1794   -674.61702   -17940.524   -22502.984   -18186.947 
Loop time of 557.342 on 1 procs for 4505 steps with 19652 atoms

Performance: 0.698 ns/day, 34.366 hours/ns, 8.083 timesteps/s
99.6% CPU use with 1 MPI tasks x no OpenMP threads

MPI task timing breakdown:
Section |  min time  |  avg time  |  max time  |%varavg| %total
---------------------------------------------------------------
Pair    | 291.19     | 291.19     | 291.19     |   0.0 | 52.25
Neigh   | 251.65     | 251.65     | 251.65     |   0.0 | 45.15
Comm    | 5.3109     | 5.3109     | 5.3109     |   0.0 |  0.95
Output  | 0.070219   | 0.070219   | 0.070219   |   0.0 |  0.01
Modify  | 7.2757     | 7.2757     | 7.2757     |   0.0 |  1.31
Other   |            | 1.851      |            |       |  0.33

Nlocal:    19652 ave 19652 max 19652 min
Histogram: 1 0 0 0 0 0 0 0 0 0
Nghost:    14495 ave 14495 max 14495 min
Histogram: 1 0 0 0 0 0 0 0 0 0
Neighs:    838809 ave 838809 max 838809 min
Histogram: 1 0 0 0 0 0 0 0 0 0

Total # of neighbors = 838809
Ave neighs/atom = 42.6831
Neighbor list builds = 4505
Dangerous builds not checked
Setting up Verlet run ...
  Unit style    : metal
  Current step  : 105000
  Time step     : 0.001
Per MPI rank memory allocation (min/avg/max) = 18.22 | 18.22 | 18.22 Mbytes
Step Temp Press TotEng PotEng Enthalpy 
  105000    1796.1794   -674.61702   -17940.524   -22502.984   -18186.947 
  105495    1759.1439    204.79203   -18204.334   -22672.719   -18130.353 
Loop time of 59.1177 on 1 procs for 495 steps with 19652 atoms

Performance: 0.723 ns/day, 33.175 hours/ns, 8.373 timesteps/s
99.7% CPU use with 1 MPI tasks x no OpenMP threads

MPI task timing breakdown:
Section |  min time  |  avg time  |  max time  |%varavg| %total
---------------------------------------------------------------
Pair    | 30.65      | 30.65      | 30.65      |   0.0 | 51.85
Neigh   | 26.858     | 26.858     | 26.858     |   0.0 | 45.43
Comm    | 0.58767    | 0.58767    | 0.58767    |   0.0 |  0.99
Output  | 0.000211   | 0.000211   | 0.000211   |   0.0 |  0.00
Modify  | 0.8168     | 0.8168     | 0.8168     |   0.0 |  1.38
Other   |            | 0.2052     |            |       |  0.35

Nlocal:    19652 ave 19652 max 19652 min
Histogram: 1 0 0 0 0 0 0 0 0 0
Nghost:    14680 ave 14680 max 14680 min
Histogram: 1 0 0 0 0 0 0 0 0 0
Neighs:    848153 ave 848153 max 848153 min
Histogram: 1 0 0 0 0 0 0 0 0 0

Total # of neighbors = 848153
Ave neighs/atom = 43.1586
Neighbor list builds = 495
Dangerous builds not checked
Setting up Verlet run ...
  Unit style    : metal
  Current step  : 105495
  Time step     : 0.001
Per MPI rank memory allocation (min/avg/max) = 18.22 | 18.22 | 18.22 Mbytes
Step Temp Press TotEng PotEng Enthalpy 
  105495    1759.1439    204.79203   -18204.334   -22672.719   -18130.353 
  110000    1749.7962   -212.33114   -18306.594   -22751.236   -18383.157 
Loop time of 564.403 on 1 procs for 4505 steps with 19652 atoms

Performance: 0.690 ns/day, 34.801 hours/ns, 7.982 timesteps/s
99.5% CPU use with 1 MPI tasks x no OpenMP threads

MPI task timing breakdown:
Section |  min time  |  avg time  |  max time  |%varavg| %total
---------------------------------------------------------------
Pair    | 296.53     | 296.53     | 296.53     |   0.0 | 52.54
Neigh   | 253.13     | 253.13     | 253.13     |   0.0 | 44.85
Comm    | 5.4291     | 5.4291     | 5.4291     |   0.0 |  0.96
Output  | 0.063944   | 0.063944   | 0.063944   |   0.0 |  0.01
Modify  | 7.3805     | 7.3805     | 7.3805     |   0.0 |  1.31
Other   |            | 1.872      |            |       |  0.33

Nlocal:    19652 ave 19652 max 19652 min
Histogram: 1 0 0 0 0 0 0 0 0 0
Nghost:    14654 ave 14654 max 14654 min
Histogram: 1 0 0 0 0 0 0 0 0 0
Neighs:    849768 ave 849768 max 849768 min
Histogram: 1 0 0 0 0 0 0 0 0 0

Total # of neighbors = 849768
Ave neighs/atom = 43.2408
Neighbor list builds = 4505
Dangerous builds not checked
Setting up Verlet run ...
  Unit style    : metal
  Current step  : 110000
  Time step     : 0.001
Per MPI rank memory allocation (min/avg/max) = 18.22 | 18.22 | 18.22 Mbytes
Step Temp Press TotEng PotEng Enthalpy 
  110000    1749.7962   -212.33114   -18306.594   -22751.236   -18383.157 
  110495    1715.9396    16.589574   -18498.983   -22857.626   -18493.035 
Loop time of 58.5015 on 1 procs for 495 steps with 19652 atoms

Performance: 0.731 ns/day, 32.829 hours/ns, 8.461 timesteps/s
99.5% CPU use with 1 MPI tasks x no OpenMP threads

MPI task timing breakdown:
Section |  min time  |  avg time  |  max time  |%varavg| %total
---------------------------------------------------------------
Pair    | 30.238     | 30.238     | 30.238     |   0.0 | 51.69
Neigh   | 26.709     | 26.709     | 26.709     |   0.0 | 45.66
Comm    | 0.55958    | 0.55958    | 0.55958    |   0.0 |  0.96
Output  | 0.00019193 | 0.00019193 | 0.00019193 |   0.0 |  0.00
Modify  | 0.79216    | 0.79216    | 0.79216    |   0.0 |  1.35
Other   |            | 0.2028     |            |       |  0.35

Nlocal:    19652 ave 19652 max 19652 min
Histogram: 1 0 0 0 0 0 0 0 0 0
Nghost:    14668 ave 14668 max 14668 min
Histogram: 1 0 0 0 0 0 0 0 0 0
Neighs:    854821 ave 854821 max 854821 min
Histogram: 1 0 0 0 0 0 0 0 0 0

Total # of neighbors = 854821
Ave neighs/atom = 43.4979
Neighbor list builds = 495
Dangerous builds not checked
Setting up Verlet run ...
  Unit style    : metal
  Current step  : 110495
  Time step     : 0.001
Per MPI rank memory allocation (min/avg/max) = 18.22 | 18.22 | 18.22 Mbytes
Step Temp Press TotEng PotEng Enthalpy 
  110495    1715.9396    16.589574   -18498.983   -22857.626   -18493.035 
  115000    1683.5574    30.569117   -18614.924   -22891.313   -18603.992 
Loop time of 533.174 on 1 procs for 4505 steps with 19652 atoms

Performance: 0.730 ns/day, 32.875 hours/ns, 8.449 timesteps/s
99.8% CPU use with 1 MPI tasks x no OpenMP threads

MPI task timing breakdown:
Section |  min time  |  avg time  |  max time  |%varavg| %total
---------------------------------------------------------------
Pair    | 276.81     | 276.81     | 276.81     |   0.0 | 51.92
Neigh   | 242.48     | 242.48     | 242.48     |   0.0 | 45.48
Comm    | 5.0712     | 5.0712     | 5.0712     |   0.0 |  0.95
Output  | 0.067593   | 0.067593   | 0.067593   |   0.0 |  0.01
Modify  | 6.9544     | 6.9544     | 6.9544     |   0.0 |  1.30
Other   |            | 1.788      |            |       |  0.34

Nlocal:    19652 ave 19652 max 19652 min
Histogram: 1 0 0 0 0 0 0 0 0 0
Nghost:    14726 ave 14726 max 14726 min
Histogram: 1 0 0 0 0 0 0 0 0 0
Neighs:    857209 ave 857209 max 857209 min
Histogram: 1 0 0 0 0 0 0 0 0 0

Total # of neighbors = 857209
Ave neighs/atom = 43.6194
Neighbor list builds = 4505
Dangerous builds not checked
Setting up Verlet run ...
  Unit style    : metal
  Current step  : 115000
  Time step     : 0.001
Per MPI rank memory allocation (min/avg/max) = 18.22 | 18.22 | 18.22 Mbytes
Step Temp Press TotEng PotEng Enthalpy 
  115000    1683.5574    30.569117   -18614.924   -22891.313   -18603.992 
  115495    1663.6515   -101.30906   -18790.218   -23016.045   -18826.321 
Loop time of 59.0242 on 1 procs for 495 steps with 19652 atoms

Performance: 0.725 ns/day, 33.122 hours/ns, 8.386 timesteps/s
99.7% CPU use with 1 MPI tasks x no OpenMP threads

MPI task timing breakdown:
Section |  min time  |  avg time  |  max time  |%varavg| %total
---------------------------------------------------------------
Pair    | 30.866     | 30.866     | 30.866     |   0.0 | 52.29
Neigh   | 26.598     | 26.598     | 26.598     |   0.0 | 45.06
Comm    | 0.57642    | 0.57642    | 0.57642    |   0.0 |  0.98
Output  | 0.00023198 | 0.00023198 | 0.00023198 |   0.0 |  0.00
Modify  | 0.78129    | 0.78129    | 0.78129    |   0.0 |  1.32
Other   |            | 0.202      |            |       |  0.34

Nlocal:    19652 ave 19652 max 19652 min
Histogram: 1 0 0 0 0 0 0 0 0 0
Nghost:    14688 ave 14688 max 14688 min
Histogram: 1 0 0 0 0 0 0 0 0 0
Neighs:    860255 ave 860255 max 860255 min
Histogram: 1 0 0 0 0 0 0 0 0 0

Total # of neighbors = 860255
Ave neighs/atom = 43.7744
Neighbor list builds = 495
Dangerous builds not checked
Setting up Verlet run ...
  Unit style    : metal
  Current step  : 115495
  Time step     : 0.001
Per MPI rank memory allocation (min/avg/max) = 18.22 | 18.22 | 18.22 Mbytes
Step Temp Press TotEng PotEng Enthalpy 
  115495    1663.6515   -101.30906   -18790.218   -23016.045   -18826.321 
  120000    1634.3265   -516.72007   -18907.531    -23058.87   -19091.542 
Loop time of 537.68 on 1 procs for 4505 steps with 19652 atoms

Performance: 0.724 ns/day, 33.153 hours/ns, 8.379 timesteps/s
99.7% CPU use with 1 MPI tasks x no OpenMP threads

MPI task timing breakdown:
Section |  min time  |  avg time  |  max time  |%varavg| %total
---------------------------------------------------------------
Pair    | 280.2      | 280.2      | 280.2      |   0.0 | 52.11
Neigh   | 242.59     | 242.59     | 242.59     |   0.0 | 45.12
Comm    | 5.157      | 5.157      | 5.157      |   0.0 |  0.96
Output  | 0.93705    | 0.93705    | 0.93705    |   0.0 |  0.17
Modify  | 6.9929     | 6.9929     | 6.9929     |   0.0 |  1.30
Other   |            | 1.805      |            |       |  0.34

Nlocal:    19652 ave 19652 max 19652 min
Histogram: 1 0 0 0 0 0 0 0 0 0
Nghost:    14808 ave 14808 max 14808 min
Histogram: 1 0 0 0 0 0 0 0 0 0
Neighs:    860550 ave 860550 max 860550 min
Histogram: 1 0 0 0 0 0 0 0 0 0

Total # of neighbors = 860550
Ave neighs/atom = 43.7894
Neighbor list builds = 4505
Dangerous builds not checked
Setting up Verlet run ...
  Unit style    : metal
  Current step  : 120000
  Time step     : 0.001
Per MPI rank memory allocation (min/avg/max) = 18.22 | 18.22 | 18.22 Mbytes
Step Temp Press TotEng PotEng Enthalpy 
  120000    1634.3265   -516.72007   -18907.531    -23058.87   -19091.542 
  120495     1622.004    129.44244   -19072.111   -23192.149   -19026.418 
Loop time of 55.6794 on 1 procs for 495 steps with 19652 atoms

Performance: 0.768 ns/day, 31.245 hours/ns, 8.890 timesteps/s
99.1% CPU use with 1 MPI tasks x no OpenMP threads

MPI task timing breakdown:
Section |  min time  |  avg time  |  max time  |%varavg| %total
---------------------------------------------------------------
Pair    | 28.561     | 28.561     | 28.561     |   0.0 | 51.30
Neigh   | 25.644     | 25.644     | 25.644     |   0.0 | 46.06
Comm    | 0.53608    | 0.53608    | 0.53608    |   0.0 |  0.96
Output  | 0.00020695 | 0.00020695 | 0.00020695 |   0.0 |  0.00
Modify  | 0.74311    | 0.74311    | 0.74311    |   0.0 |  1.33
Other   |            | 0.195      |            |       |  0.35

Nlocal:    19652 ave 19652 max 19652 min
Histogram: 1 0 0 0 0 0 0 0 0 0
Nghost:    14742 ave 14742 max 14742 min
Histogram: 1 0 0 0 0 0 0 0 0 0
Neighs:    868002 ave 868002 max 868002 min
Histogram: 1 0 0 0 0 0 0 0 0 0

Total # of neighbors = 868002
Ave neighs/atom = 44.1686
Neighbor list builds = 495
Dangerous builds not checked
Setting up Verlet run ...
  Unit style    : metal
  Current step  : 120495
  Time step     : 0.001
Per MPI rank memory allocation (min/avg/max) = 18.22 | 18.22 | 18.22 Mbytes
Step Temp Press TotEng PotEng Enthalpy 
  120495     1622.004    129.44244   -19072.111   -23192.149   -19026.418 
  125000    1584.0839   -464.98281   -19182.618   -23206.335   -19347.123 
Loop time of 515.423 on 1 procs for 4505 steps with 19652 atoms

Performance: 0.755 ns/day, 31.781 hours/ns, 8.740 timesteps/s
99.3% CPU use with 1 MPI tasks x no OpenMP threads

MPI task timing breakdown:
Section |  min time  |  avg time  |  max time  |%varavg| %total
---------------------------------------------------------------
Pair    | 266.85     | 266.85     | 266.85     |   0.0 | 51.77
Neigh   | 235.19     | 235.19     | 235.19     |   0.0 | 45.63
Comm    | 4.9053     | 4.9053     | 4.9053     |   0.0 |  0.95
Output  | 0.067507   | 0.067507   | 0.067507   |   0.0 |  0.01
Modify  | 6.6654     | 6.6654     | 6.6654     |   0.0 |  1.29
Other   |            | 1.748      |            |       |  0.34

Nlocal:    19652 ave 19652 max 19652 min
Histogram: 1 0 0 0 0 0 0 0 0 0
Nghost:    14790 ave 14790 max 14790 min
Histogram: 1 0 0 0 0 0 0 0 0 0
Neighs:    865812 ave 865812 max 865812 min
Histogram: 1 0 0 0 0 0 0 0 0 0

Total # of neighbors = 865812
Ave neighs/atom = 44.0572
Neighbor list builds = 4505
Dangerous builds not checked
Setting up Verlet run ...
  Unit style    : metal
  Current step  : 125000
  Time step     : 0.001
Per MPI rank memory allocation (min/avg/max) = 18.22 | 18.22 | 18.22 Mbytes
Step Temp Press TotEng PotEng Enthalpy 
  125000    1584.0839   -464.98281   -19182.618   -23206.335   -19347.123 
  125495    1565.5947   -249.51772   -19347.749   -23324.502     -19435.5 
Loop time of 53.2603 on 1 procs for 495 steps with 19652 atoms

Performance: 0.803 ns/day, 29.888 hours/ns, 9.294 timesteps/s
99.8% CPU use with 1 MPI tasks x no OpenMP threads

MPI task timing breakdown:
Section |  min time  |  avg time  |  max time  |%varavg| %total
---------------------------------------------------------------
Pair    | 27.317     | 27.317     | 27.317     |   0.0 | 51.29
Neigh   | 24.539     | 24.539     | 24.539     |   0.0 | 46.07
Comm    | 0.5124     | 0.5124     | 0.5124     |   0.0 |  0.96
Output  | 0.00020504 | 0.00020504 | 0.00020504 |   0.0 |  0.00
Modify  | 0.70675    | 0.70675    | 0.70675    |   0.0 |  1.33
Other   |            | 0.185      |            |       |  0.35

Nlocal:    19652 ave 19652 max 19652 min
Histogram: 1 0 0 0 0 0 0 0 0 0
Nghost:    14837 ave 14837 max 14837 min
Histogram: 1 0 0 0 0 0 0 0 0 0
Neighs:    871903 ave 871903 max 871903 min
Histogram: 1 0 0 0 0 0 0 0 0 0

Total # of neighbors = 871903
Ave neighs/atom = 44.3671
Neighbor list builds = 495
Dangerous builds not checked
Setting up Verlet run ...
  Unit style    : metal
  Current step  : 125495
  Time step     : 0.001
Per MPI rank memory allocation (min/avg/max) = 18.22 | 18.22 | 18.22 Mbytes
Step Temp Press TotEng PotEng Enthalpy 
  125495    1565.5947   -249.51772   -19347.749   -23324.502     -19435.5 
  130000    1554.5405   -21.968858   -19423.361   -23372.035   -19431.055 
Loop time of 507.472 on 1 procs for 4505 steps with 19652 atoms

Performance: 0.767 ns/day, 31.291 hours/ns, 8.877 timesteps/s
99.7% CPU use with 1 MPI tasks x no OpenMP threads

MPI task timing breakdown:
Section |  min time  |  avg time  |  max time  |%varavg| %total
---------------------------------------------------------------
Pair    | 263.46     | 263.46     | 263.46     |   0.0 | 51.92
Neigh   | 230.9      | 230.9      | 230.9      |   0.0 | 45.50
Comm    | 4.8366     | 4.8366     | 4.8366     |   0.0 |  0.95
Output  | 0.042958   | 0.042958   | 0.042958   |   0.0 |  0.01
Modify  | 6.5297     | 6.5297     | 6.5297     |   0.0 |  1.29
Other   |            | 1.705      |            |       |  0.34

Nlocal:    19652 ave 19652 max 19652 min
Histogram: 1 0 0 0 0 0 0 0 0 0
Nghost:    14884 ave 14884 max 14884 min
Histogram: 1 0 0 0 0 0 0 0 0 0
Neighs:    875145 ave 875145 max 875145 min
Histogram: 1 0 0 0 0 0 0 0 0 0

Total # of neighbors = 875145
Ave neighs/atom = 44.5321
Neighbor list builds = 4505
Dangerous builds not checked
Setting up Verlet run ...
  Unit style    : metal
  Current step  : 130000
  Time step     : 0.001
Per MPI rank memory allocation (min/avg/max) = 18.22 | 18.22 | 18.22 Mbytes
Step Temp Press TotEng PotEng Enthalpy 
  130000    1554.5405   -21.968858   -19423.361   -23372.035   -19431.055 
  130495    1517.3722    63.919061   -19625.565   -23479.829   -19603.262 
Loop time of 47.9941 on 1 procs for 495 steps with 19652 atoms

Performance: 0.891 ns/day, 26.933 hours/ns, 10.314 timesteps/s
99.7% CPU use with 1 MPI tasks x no OpenMP threads

MPI task timing breakdown:
Section |  min time  |  avg time  |  max time  |%varavg| %total
---------------------------------------------------------------
Pair    | 24.175     | 24.175     | 24.175     |   0.0 | 50.37
Neigh   | 22.584     | 22.584     | 22.584     |   0.0 | 47.06
Comm    | 0.44707    | 0.44707    | 0.44707    |   0.0 |  0.93
Output  | 0.00017905 | 0.00017905 | 0.00017905 |   0.0 |  0.00
Modify  | 0.61788    | 0.61788    | 0.61788    |   0.0 |  1.29
Other   |            | 0.1701     |            |       |  0.35

Nlocal:    19652 ave 19652 max 19652 min
Histogram: 1 0 0 0 0 0 0 0 0 0
Nghost:    14875 ave 14875 max 14875 min
Histogram: 1 0 0 0 0 0 0 0 0 0
Neighs:    878744 ave 878744 max 878744 min
Histogram: 1 0 0 0 0 0 0 0 0 0

Total # of neighbors = 878744
Ave neighs/atom = 44.7152
Neighbor list builds = 495
Dangerous builds not checked
Setting up Verlet run ...
  Unit style    : metal
  Current step  : 130495
  Time step     : 0.001
Per MPI rank memory allocation (min/avg/max) = 18.22 | 18.22 | 18.22 Mbytes
Step Temp Press TotEng PotEng Enthalpy 
  130495    1517.3722    63.919061   -19625.565   -23479.829   -19603.262 
  135000    1508.4319    121.68998   -19752.603   -23584.158   -19710.348 
Loop time of 468.607 on 1 procs for 4505 steps with 19652 atoms

Performance: 0.831 ns/day, 28.894 hours/ns, 9.614 timesteps/s
99.6% CPU use with 1 MPI tasks x no OpenMP threads

MPI task timing breakdown:
Section |  min time  |  avg time  |  max time  |%varavg| %total
---------------------------------------------------------------
Pair    | 240.61     | 240.61     | 240.61     |   0.0 | 51.35
Neigh   | 216.01     | 216.01     | 216.01     |   0.0 | 46.10
Comm    | 4.3973     | 4.3973     | 4.3973     |   0.0 |  0.94
Output  | 0.059641   | 0.059641   | 0.059641   |   0.0 |  0.01
Modify  | 5.9475     | 5.9475     | 5.9475     |   0.0 |  1.27
Other   |            | 1.585      |            |       |  0.34

Nlocal:    19652 ave 19652 max 19652 min
Histogram: 1 0 0 0 0 0 0 0 0 0
Nghost:    14840 ave 14840 max 14840 min
Histogram: 1 0 0 0 0 0 0 0 0 0
Neighs:    883674 ave 883674 max 883674 min
Histogram: 1 0 0 0 0 0 0 0 0 0

Total # of neighbors = 883674
Ave neighs/atom = 44.9661
Neighbor list builds = 4505
Dangerous builds not checked
Setting up Verlet run ...
  Unit style    : metal
  Current step  : 135000
  Time step     : 0.001
Per MPI rank memory allocation (min/avg/max) = 18.22 | 18.22 | 18.22 Mbytes
Step Temp Press TotEng PotEng Enthalpy 
  135000    1508.4319    121.68998   -19752.603   -23584.158   -19710.348 
  135495    1458.6447   -16.296864   -19922.562   -23627.653   -19928.211 
Loop time of 49.5975 on 1 procs for 495 steps with 19652 atoms

Performance: 0.862 ns/day, 27.832 hours/ns, 9.980 timesteps/s
99.9% CPU use with 1 MPI tasks x no OpenMP threads

MPI task timing breakdown:
Section |  min time  |  avg time  |  max time  |%varavg| %total
---------------------------------------------------------------
Pair    | 25.197     | 25.197     | 25.197     |   0.0 | 50.80
Neigh   | 23.119     | 23.119     | 23.119     |   0.0 | 46.61
Comm    | 0.46931    | 0.46931    | 0.46931    |   0.0 |  0.95
Output  | 0.00021291 | 0.00021291 | 0.00021291 |   0.0 |  0.00
Modify  | 0.64115    | 0.64115    | 0.64115    |   0.0 |  1.29
Other   |            | 0.171      |            |       |  0.34

Nlocal:    19652 ave 19652 max 19652 min
Histogram: 1 0 0 0 0 0 0 0 0 0
Nghost:    14836 ave 14836 max 14836 min
Histogram: 1 0 0 0 0 0 0 0 0 0
Neighs:    885341 ave 885341 max 885341 min
Histogram: 1 0 0 0 0 0 0 0 0 0

Total # of neighbors = 885341
Ave neighs/atom = 45.0509
Neighbor list builds = 495
Dangerous builds not checked
Setting up Verlet run ...
  Unit style    : metal
  Current step  : 135495
  Time step     : 0.001
Per MPI rank memory allocation (min/avg/max) = 18.22 | 18.22 | 18.22 Mbytes
Step Temp Press TotEng PotEng Enthalpy 
  135495    1458.6447   -16.296864   -19922.562   -23627.653   -19928.211 
  140000    1428.4755    15.376332   -20081.397   -23709.855    -20076.09 
Loop time of 527.742 on 1 procs for 4505 steps with 19652 atoms

Performance: 0.738 ns/day, 32.540 hours/ns, 8.536 timesteps/s
99.8% CPU use with 1 MPI tasks x no OpenMP threads

MPI task timing breakdown:
Section |  min time  |  avg time  |  max time  |%varavg| %total
---------------------------------------------------------------
Pair    | 278.86     | 278.86     | 278.86     |   0.0 | 52.84
Neigh   | 234.82     | 234.82     | 234.82     |   0.0 | 44.50
Comm    | 5.1474     | 5.1474     | 5.1474     |   0.0 |  0.98
Output  | 0.070168   | 0.070168   | 0.070168   |   0.0 |  0.01
Modify  | 6.9624     | 6.9624     | 6.9624     |   0.0 |  1.32
Other   |            | 1.88       |            |       |  0.36

Nlocal:    19652 ave 19652 max 19652 min
Histogram: 1 0 0 0 0 0 0 0 0 0
Nghost:    14879 ave 14879 max 14879 min
Histogram: 1 0 0 0 0 0 0 0 0 0
Neighs:    888557 ave 888557 max 888557 min
Histogram: 1 0 0 0 0 0 0 0 0 0

Total # of neighbors = 888557
Ave neighs/atom = 45.2146
Neighbor list builds = 4505
Dangerous builds not checked
Setting up Verlet run ...
  Unit style    : metal
  Current step  : 140000
  Time step     : 0.001
Per MPI rank memory allocation (min/avg/max) = 18.22 | 18.22 | 18.22 Mbytes
Step Temp Press TotEng PotEng Enthalpy 
  140000    1428.4755    15.376332   -20081.397   -23709.855    -20076.09 
  140495    1408.0238   -491.66778   -20172.201    -23748.71   -20341.979 
Loop time of 67.8305 on 1 procs for 495 steps with 19652 atoms

Performance: 0.631 ns/day, 38.064 hours/ns, 7.298 timesteps/s
99.8% CPU use with 1 MPI tasks x no OpenMP threads

MPI task timing breakdown:
Section |  min time  |  avg time  |  max time  |%varavg| %total
---------------------------------------------------------------
Pair    | 36.583     | 36.583     | 36.583     |   0.0 | 53.93
Neigh   | 29.329     | 29.329     | 29.329     |   0.0 | 43.24
Comm    | 0.69188    | 0.69188    | 0.69188    |   0.0 |  1.02
Output  | 0.00031686 | 0.00031686 | 0.00031686 |   0.0 |  0.00
Modify  | 0.9577     | 0.9577     | 0.9577     |   0.0 |  1.41
Other   |            | 0.2686     |            |       |  0.40

Nlocal:    19652 ave 19652 max 19652 min
Histogram: 1 0 0 0 0 0 0 0 0 0
Nghost:    14830 ave 14830 max 14830 min
Histogram: 1 0 0 0 0 0 0 0 0 0
Neighs:    888171 ave 888171 max 888171 min
Histogram: 1 0 0 0 0 0 0 0 0 0

Total # of neighbors = 888171
Ave neighs/atom = 45.1949
Neighbor list builds = 495
Dangerous builds not checked
Setting up Verlet run ...
  Unit style    : metal
  Current step  : 140495
  Time step     : 0.001
Per MPI rank memory allocation (min/avg/max) = 18.22 | 18.22 | 18.22 Mbytes
Step Temp Press TotEng PotEng Enthalpy 
  140495    1408.0238   -491.66778   -20172.201    -23748.71   -20341.979 
  145000    1392.8309   -123.29229   -20294.883     -23832.8   -20337.299 
Loop time of 633.604 on 1 procs for 4505 steps with 19652 atoms

Performance: 0.614 ns/day, 39.068 hours/ns, 7.110 timesteps/s
99.5% CPU use with 1 MPI tasks x no OpenMP threads

MPI task timing breakdown:
Section |  min time  |  avg time  |  max time  |%varavg| %total
---------------------------------------------------------------
Pair    | 349.61     | 349.61     | 349.61     |   0.0 | 55.18
Neigh   | 266.27     | 266.27     | 266.27     |   0.0 | 42.02
Comm    | 6.5273     | 6.5273     | 6.5273     |   0.0 |  1.03
Output  | 0.075731   | 0.075731   | 0.075731   |   0.0 |  0.01
Modify  | 8.6836     | 8.6836     | 8.6836     |   0.0 |  1.37
Other   |            | 2.44       |            |       |  0.39

Nlocal:    19652 ave 19652 max 19652 min
Histogram: 1 0 0 0 0 0 0 0 0 0
Nghost:    14932 ave 14932 max 14932 min
Histogram: 1 0 0 0 0 0 0 0 0 0
Neighs:    892064 ave 892064 max 892064 min
Histogram: 1 0 0 0 0 0 0 0 0 0

Total # of neighbors = 892064
Ave neighs/atom = 45.393
Neighbor list builds = 4505
Dangerous builds not checked
Setting up Verlet run ...
  Unit style    : metal
  Current step  : 145000
  Time step     : 0.001
Per MPI rank memory allocation (min/avg/max) = 18.22 | 18.22 | 18.22 Mbytes
Step Temp Press TotEng PotEng Enthalpy 
  145000    1392.8309   -123.29229   -20294.883     -23832.8   -20337.299 
  145495    1367.0109    151.46305   -20481.846   -23954.178   -20430.091 
Loop time of 65.4984 on 1 procs for 495 steps with 19652 atoms

Performance: 0.653 ns/day, 36.756 hours/ns, 7.557 timesteps/s
99.9% CPU use with 1 MPI tasks x no OpenMP threads

MPI task timing breakdown:
Section |  min time  |  avg time  |  max time  |%varavg| %total
---------------------------------------------------------------
Pair    | 35.635     | 35.635     | 35.635     |   0.0 | 54.41
Neigh   | 27.907     | 27.907     | 27.907     |   0.0 | 42.61
Comm    | 0.72044    | 0.72044    | 0.72044    |   0.0 |  1.10
Output  | 0.00030708 | 0.00030708 | 0.00030708 |   0.0 |  0.00
Modify  | 0.95695    | 0.95695    | 0.95695    |   0.0 |  1.46
Other   |            | 0.2788     |            |       |  0.43

Nlocal:    19652 ave 19652 max 19652 min
Histogram: 1 0 0 0 0 0 0 0 0 0
Nghost:    14995 ave 14995 max 14995 min
Histogram: 1 0 0 0 0 0 0 0 0 0
Neighs:    897857 ave 897857 max 897857 min
Histogram: 1 0 0 0 0 0 0 0 0 0

Total # of neighbors = 897857
Ave neighs/atom = 45.6878
Neighbor list builds = 495
Dangerous builds not checked
Setting up Verlet run ...
  Unit style    : metal
  Current step  : 145495
  Time step     : 0.001
Per MPI rank memory allocation (min/avg/max) = 18.22 | 18.22 | 18.22 Mbytes
Step Temp Press TotEng PotEng Enthalpy 
  145495    1367.0109    151.46305   -20481.846   -23954.178   -20430.091 
  150000    1352.8972   -563.55415   -20539.212   -23975.694   -20732.215 
Loop time of 642.692 on 1 procs for 4505 steps with 19652 atoms

Performance: 0.606 ns/day, 39.628 hours/ns, 7.010 timesteps/s
99.8% CPU use with 1 MPI tasks x no OpenMP threads

MPI task timing breakdown:
Section |  min time  |  avg time  |  max time  |%varavg| %total
---------------------------------------------------------------
Pair    | 355.6      | 355.6      | 355.6      |   0.0 | 55.33
Neigh   | 268.73     | 268.73     | 268.73     |   0.0 | 41.81
Comm    | 6.7797     | 6.7797     | 6.7797     |   0.0 |  1.05
Output  | 0.11966    | 0.11966    | 0.11966    |   0.0 |  0.02
Modify  | 8.9451     | 8.9451     | 8.9451     |   0.0 |  1.39
Other   |            | 2.519      |            |       |  0.39

Nlocal:    19652 ave 19652 max 19652 min
Histogram: 1 0 0 0 0 0 0 0 0 0
Nghost:    14962 ave 14962 max 14962 min
Histogram: 1 0 0 0 0 0 0 0 0 0
Neighs:    895870 ave 895870 max 895870 min
Histogram: 1 0 0 0 0 0 0 0 0 0

Total # of neighbors = 895870
Ave neighs/atom = 45.5867
Neighbor list builds = 4505
Dangerous builds not checked
Setting up Verlet run ...
  Unit style    : metal
  Current step  : 150000
  Time step     : 0.001
Per MPI rank memory allocation (min/avg/max) = 18.22 | 18.22 | 18.22 Mbytes
Step Temp Press TotEng PotEng Enthalpy 
  150000    1352.8972   -563.55415   -20539.212   -23975.694   -20732.215 
  150495    1311.4452    164.20049   -20766.602   -24097.792   -20710.824 
Loop time of 67.6339 on 1 procs for 495 steps with 19652 atoms

Performance: 0.632 ns/day, 37.954 hours/ns, 7.319 timesteps/s
99.9% CPU use with 1 MPI tasks x no OpenMP threads

MPI task timing breakdown:
Section |  min time  |  avg time  |  max time  |%varavg| %total
---------------------------------------------------------------
Pair    | 36.863     | 36.863     | 36.863     |   0.0 | 54.50
Neigh   | 28.773     | 28.773     | 28.773     |   0.0 | 42.54
Comm    | 0.73741    | 0.73741    | 0.73741    |   0.0 |  1.09
Output  | 0.00029302 | 0.00029302 | 0.00029302 |   0.0 |  0.00
Modify  | 0.98305    | 0.98305    | 0.98305    |   0.0 |  1.45
Other   |            | 0.2779     |            |       |  0.41

Nlocal:    19652 ave 19652 max 19652 min
Histogram: 1 0 0 0 0 0 0 0 0 0
Nghost:    15042 ave 15042 max 15042 min
Histogram: 1 0 0 0 0 0 0 0 0 0
Neighs:    903720 ave 903720 max 903720 min
Histogram: 1 0 0 0 0 0 0 0 0 0

Total # of neighbors = 903720
Ave neighs/atom = 45.9862
Neighbor list builds = 495
Dangerous builds not checked
Setting up Verlet run ...
  Unit style    : metal
  Current step  : 150495
  Time step     : 0.001
Per MPI rank memory allocation (min/avg/max) = 18.22 | 18.22 | 18.22 Mbytes
Step Temp Press TotEng PotEng Enthalpy 
  150495    1311.4452    164.20049   -20766.602   -24097.792   -20710.824 
  155000    1299.8156   -118.66636   -20834.336   -24135.986   -20874.624 
Loop time of 652.386 on 1 procs for 4505 steps with 19652 atoms

Performance: 0.597 ns/day, 40.226 hours/ns, 6.905 timesteps/s
99.8% CPU use with 1 MPI tasks x no OpenMP threads

MPI task timing breakdown:
Section |  min time  |  avg time  |  max time  |%varavg| %total
---------------------------------------------------------------
Pair    | 362.8      | 362.8      | 362.8      |   0.0 | 55.61
Neigh   | 270.66     | 270.66     | 270.66     |   0.0 | 41.49
Comm    | 7.0436     | 7.0436     | 7.0436     |   0.0 |  1.08
Output  | 0.071255   | 0.071255   | 0.071255   |   0.0 |  0.01
Modify  | 9.2255     | 9.2255     | 9.2255     |   0.0 |  1.41
Other   |            | 2.584      |            |       |  0.40

Nlocal:    19652 ave 19652 max 19652 min
Histogram: 1 0 0 0 0 0 0 0 0 0
Nghost:    15007 ave 15007 max 15007 min
Histogram: 1 0 0 0 0 0 0 0 0 0
Neighs:    904235 ave 904235 max 904235 min
Histogram: 1 0 0 0 0 0 0 0 0 0

Total # of neighbors = 904235
Ave neighs/atom = 46.0124
Neighbor list builds = 4505
Dangerous builds not checked
Setting up Verlet run ...
  Unit style    : metal
  Current step  : 155000
  Time step     : 0.001
Per MPI rank memory allocation (min/avg/max) = 18.22 | 18.22 | 18.22 Mbytes
Step Temp Press TotEng PotEng Enthalpy 
  155000    1299.8156   -118.66636   -20834.336   -24135.986   -20874.624 
  155495    1264.3005    138.59438   -21050.558   -24261.997   -21003.768 
Loop time of 73.3578 on 1 procs for 495 steps with 19652 atoms

Performance: 0.583 ns/day, 41.166 hours/ns, 6.748 timesteps/s
98.6% CPU use with 1 MPI tasks x no OpenMP threads

MPI task timing breakdown:
Section |  min time  |  avg time  |  max time  |%varavg| %total
---------------------------------------------------------------
Pair    | 40.715     | 40.715     | 40.715     |   0.0 | 55.50
Neigh   | 30.351     | 30.351     | 30.351     |   0.0 | 41.37
Comm    | 0.85071    | 0.85071    | 0.85071    |   0.0 |  1.16
Output  | 0.000247   | 0.000247   | 0.000247   |   0.0 |  0.00
Modify  | 1.1348     | 1.1348     | 1.1348     |   0.0 |  1.55
Other   |            | 0.3061     |            |       |  0.42

Nlocal:    19652 ave 19652 max 19652 min
Histogram: 1 0 0 0 0 0 0 0 0 0
Nghost:    15056 ave 15056 max 15056 min
Histogram: 1 0 0 0 0 0 0 0 0 0
Neighs:    909908 ave 909908 max 909908 min
Histogram: 1 0 0 0 0 0 0 0 0 0

Total # of neighbors = 909908
Ave neighs/atom = 46.301
Neighbor list builds = 495
Dangerous builds not checked
Setting up Verlet run ...
  Unit style    : metal
  Current step  : 155495
  Time step     : 0.001
Per MPI rank memory allocation (min/avg/max) = 18.22 | 18.22 | 18.22 Mbytes
Step Temp Press TotEng PotEng Enthalpy 
  155495    1264.3005    138.59438   -21050.558   -24261.997   -21003.768 
  160000    1251.6489   -408.73508   -21157.929   -24337.231   -21295.728 
Loop time of 644.03 on 1 procs for 4505 steps with 19652 atoms

Performance: 0.604 ns/day, 39.711 hours/ns, 6.995 timesteps/s
99.6% CPU use with 1 MPI tasks x no OpenMP threads

MPI task timing breakdown:
Section |  min time  |  avg time  |  max time  |%varavg| %total
---------------------------------------------------------------
Pair    | 357.91     | 357.91     | 357.91     |   0.0 | 55.57
Neigh   | 267.27     | 267.27     | 267.27     |   0.0 | 41.50
Comm    | 6.9798     | 6.9798     | 6.9798     |   0.0 |  1.08
Output  | 0.073073   | 0.073073   | 0.073073   |   0.0 |  0.01
Modify  | 9.1952     | 9.1952     | 9.1952     |   0.0 |  1.43
Other   |            | 2.6        |            |       |  0.40

Nlocal:    19652 ave 19652 max 19652 min
Histogram: 1 0 0 0 0 0 0 0 0 0
Nghost:    15054 ave 15054 max 15054 min
Histogram: 1 0 0 0 0 0 0 0 0 0
Neighs:    911050 ave 911050 max 911050 min
Histogram: 1 0 0 0 0 0 0 0 0 0

Total # of neighbors = 911050
Ave neighs/atom = 46.3591
Neighbor list builds = 4505
Dangerous builds not checked
Setting up Verlet run ...
  Unit style    : metal
  Current step  : 160000
  Time step     : 0.001
Per MPI rank memory allocation (min/avg/max) = 18.22 | 18.22 | 18.22 Mbytes
Step Temp Press TotEng PotEng Enthalpy 
  160000    1251.6489   -408.73508   -21157.929   -24337.231   -21295.728 
  160495    1217.8556    163.78536   -21330.331   -24423.795   -21275.376 
Loop time of 69.0638 on 1 procs for 495 steps with 19652 atoms

Performance: 0.619 ns/day, 38.756 hours/ns, 7.167 timesteps/s
99.1% CPU use with 1 MPI tasks x no OpenMP threads

MPI task timing breakdown:
Section |  min time  |  avg time  |  max time  |%varavg| %total
---------------------------------------------------------------
Pair    | 38.121     | 38.121     | 38.121     |   0.0 | 55.20
Neigh   | 28.772     | 28.772     | 28.772     |   0.0 | 41.66
Comm    | 0.79977    | 0.79977    | 0.79977    |   0.0 |  1.16
Output  | 0.0001781  | 0.0001781  | 0.0001781  |   0.0 |  0.00
Modify  | 1.0732     | 1.0732     | 1.0732     |   0.0 |  1.55
Other   |            | 0.2982     |            |       |  0.43

Nlocal:    19652 ave 19652 max 19652 min
Histogram: 1 0 0 0 0 0 0 0 0 0
Nghost:    15151 ave 15151 max 15151 min
Histogram: 1 0 0 0 0 0 0 0 0 0
Neighs:    915571 ave 915571 max 915571 min
Histogram: 1 0 0 0 0 0 0 0 0 0

Total # of neighbors = 915571
Ave neighs/atom = 46.5892
Neighbor list builds = 495
Dangerous builds not checked
Setting up Verlet run ...
  Unit style    : metal
  Current step  : 160495
  Time step     : 0.001
Per MPI rank memory allocation (min/avg/max) = 18.22 | 18.22 | 18.22 Mbytes
Step Temp Press TotEng PotEng Enthalpy 
  160495    1217.8556    163.78536   -21330.331   -24423.795   -21275.376 
  165000    1205.7268   -347.05571   -21410.699   -24473.355   -21527.043 
Loop time of 649.994 on 1 procs for 4505 steps with 19652 atoms

Performance: 0.599 ns/day, 40.079 hours/ns, 6.931 timesteps/s
99.5% CPU use with 1 MPI tasks x no OpenMP threads

MPI task timing breakdown:
Section |  min time  |  avg time  |  max time  |%varavg| %total
---------------------------------------------------------------
Pair    | 361.4      | 361.4      | 361.4      |   0.0 | 55.60
Neigh   | 269.77     | 269.77     | 269.77     |   0.0 | 41.50
Comm    | 6.9828     | 6.9828     | 6.9828     |   0.0 |  1.07
Output  | 0.079429   | 0.079429   | 0.079429   |   0.0 |  0.01
Modify  | 9.1949     | 9.1949     | 9.1949     |   0.0 |  1.41
Other   |            | 2.567      |            |       |  0.39

Nlocal:    19652 ave 19652 max 19652 min
Histogram: 1 0 0 0 0 0 0 0 0 0
Nghost:    15063 ave 15063 max 15063 min
Histogram: 1 0 0 0 0 0 0 0 0 0
Neighs:    915939 ave 915939 max 915939 min
Histogram: 1 0 0 0 0 0 0 0 0 0

Total # of neighbors = 915939
Ave neighs/atom = 46.6079
Neighbor list builds = 4505
Dangerous builds not checked
Setting up Verlet run ...
  Unit style    : metal
  Current step  : 165000
  Time step     : 0.001
Per MPI rank memory allocation (min/avg/max) = 18.22 | 18.22 | 18.22 Mbytes
Step Temp Press TotEng PotEng Enthalpy 
  165000    1205.7268   -347.05571   -21410.699   -24473.355   -21527.043 
  165495      1163.27   -323.30948   -21613.851   -24568.663   -21721.734 
Loop time of 68.4314 on 1 procs for 495 steps with 19652 atoms

Performance: 0.625 ns/day, 38.401 hours/ns, 7.234 timesteps/s
99.6% CPU use with 1 MPI tasks x no OpenMP threads

MPI task timing breakdown:
Section |  min time  |  avg time  |  max time  |%varavg| %total
---------------------------------------------------------------
Pair    | 37.411     | 37.411     | 37.411     |   0.0 | 54.67
Neigh   | 28.982     | 28.982     | 28.982     |   0.0 | 42.35
Comm    | 0.74204    | 0.74204    | 0.74204    |   0.0 |  1.08
Output  | 0.00028086 | 0.00028086 | 0.00028086 |   0.0 |  0.00
Modify  | 1.0095     | 1.0095     | 1.0095     |   0.0 |  1.48
Other   |            | 0.2865     |            |       |  0.42

Nlocal:    19652 ave 19652 max 19652 min
Histogram: 1 0 0 0 0 0 0 0 0 0
Nghost:    15097 ave 15097 max 15097 min
Histogram: 1 0 0 0 0 0 0 0 0 0
Neighs:    920748 ave 920748 max 920748 min
Histogram: 1 0 0 0 0 0 0 0 0 0

Total # of neighbors = 920748
Ave neighs/atom = 46.8526
Neighbor list builds = 495
Dangerous builds not checked
Setting up Verlet run ...
  Unit style    : metal
  Current step  : 165495
  Time step     : 0.001
Per MPI rank memory allocation (min/avg/max) = 18.22 | 18.22 | 18.22 Mbytes
Step Temp Press TotEng PotEng Enthalpy 
  165495      1163.27   -323.30948   -21613.851   -24568.663   -21721.734 
  170000    1155.6468   -441.90842   -21689.366   -24624.814    -21836.76 
Loop time of 652.969 on 1 procs for 4505 steps with 19652 atoms

Performance: 0.596 ns/day, 40.262 hours/ns, 6.899 timesteps/s
99.8% CPU use with 1 MPI tasks x no OpenMP threads

MPI task timing breakdown:
Section |  min time  |  avg time  |  max time  |%varavg| %total
---------------------------------------------------------------
Pair    | 364.83     | 364.83     | 364.83     |   0.0 | 55.87
Neigh   | 269.05     | 269.05     | 269.05     |   0.0 | 41.20
Comm    | 7.0844     | 7.0844     | 7.0844     |   0.0 |  1.08
Output  | 0.070742   | 0.070742   | 0.070742   |   0.0 |  0.01
Modify  | 9.3423     | 9.3423     | 9.3423     |   0.0 |  1.43
Other   |            | 2.596      |            |       |  0.40

Nlocal:    19652 ave 19652 max 19652 min
Histogram: 1 0 0 0 0 0 0 0 0 0
Nghost:    15111 ave 15111 max 15111 min
Histogram: 1 0 0 0 0 0 0 0 0 0
Neighs:    921702 ave 921702 max 921702 min
Histogram: 1 0 0 0 0 0 0 0 0 0

[...]
Setting up Verlet run ...
  Unit style    : metal
  Current step  : 240000
  Time step     : 0.001
Per MPI rank memory allocation (min/avg/max) = 18.22 | 18.22 | 18.22 Mbytes
Step Temp Press TotEng PotEng Enthalpy 
  240000    450.57498    322.53081   -26076.461   -27220.962   -25979.046 
  240495    418.94962     -357.582   -26237.244   -27301.415   -26345.168 
Loop time of 73.0369 on 1 procs for 495 steps with 19652 atoms

Performance: 0.586 ns/day, 40.986 hours/ns, 6.777 timesteps/s
99.4% CPU use with 1 MPI tasks x no OpenMP threads

MPI task timing breakdown:
Section |  min time  |  avg time  |  max time  |%varavg| %total
---------------------------------------------------------------
Pair    | 39.814     | 39.814     | 39.814     |   0.0 | 54.51
Neigh   | 31.016     | 31.016     | 31.016     |   0.0 | 42.47
Comm    | 0.81079    | 0.81079    | 0.81079    |   0.0 |  1.11
Output  | 0.000453   | 0.000453   | 0.000453   |   0.0 |  0.00
Modify  | 1.0966     | 1.0966     | 1.0966     |   0.0 |  1.50
Other   |            | 0.299      |            |       |  0.41

Nlocal:    19652 ave 19652 max 19652 min
Histogram: 1 0 0 0 0 0 0 0 0 0
Nghost:    15762 ave 15762 max 15762 min
Histogram: 1 0 0 0 0 0 0 0 0 0
Neighs:    1.03722e+06 ave 1.03722e+06 max 1.03722e+06 min
Histogram: 1 0 0 0 0 0 0 0 0 0

Total # of neighbors = 1037215
Ave neighs/atom = 52.7791
Neighbor list builds = 495
Dangerous builds not checked
Setting up Verlet run ...
  Unit style    : metal
  Current step  : 240495
  Time step     : 0.001
Per MPI rank memory allocation (min/avg/max) = 18.22 | 18.22 | 18.22 Mbytes
Step Temp Press TotEng PotEng Enthalpy 
  240495    418.94962     -357.582   -26237.244   -27301.415   -26345.168 
  245000    399.25874   -97.516016    -26401.99   -27416.144   -26431.259 
Loop time of 660.502 on 1 procs for 4505 steps with 19652 atoms

Performance: 0.589 ns/day, 40.726 hours/ns, 6.821 timesteps/s
99.5% CPU use with 1 MPI tasks x no OpenMP threads

MPI task timing breakdown:
Section |  min time  |  avg time  |  max time  |%varavg| %total
---------------------------------------------------------------
Pair    | 359.48     | 359.48     | 359.48     |   0.0 | 54.42
Neigh   | 281.1      | 281.1      | 281.1      |   0.0 | 42.56
Comm    | 7.4058     | 7.4058     | 7.4058     |   0.0 |  1.12
Output  | 0.077782   | 0.077782   | 0.077782   |   0.0 |  0.01
Modify  | 9.7148     | 9.7148     | 9.7148     |   0.0 |  1.47
Other   |            | 2.724      |            |       |  0.41

Nlocal:    19652 ave 19652 max 19652 min
Histogram: 1 0 0 0 0 0 0 0 0 0
Nghost:    15799 ave 15799 max 15799 min
Histogram: 1 0 0 0 0 0 0 0 0 0
Neighs:    1.04448e+06 ave 1.04448e+06 max 1.04448e+06 min
Histogram: 1 0 0 0 0 0 0 0 0 0

Total # of neighbors = 1044485
Ave neighs/atom = 53.149
Neighbor list builds = 4505
Dangerous builds not checked
Setting up Verlet run ...
  Unit style    : metal
  Current step  : 245000
  Time step     : 0.001
Per MPI rank memory allocation (min/avg/max) = 18.22 | 18.22 | 18.22 Mbytes
Step Temp Press TotEng PotEng Enthalpy 
  245000    399.25874   -97.516016    -26401.99   -27416.144   -26431.259 
  245495    373.94191  -0.56083174   -26550.762   -27500.608   -26550.929 
Loop time of 72.8314 on 1 procs for 495 steps with 19652 atoms

Performance: 0.587 ns/day, 40.871 hours/ns, 6.797 timesteps/s
99.7% CPU use with 1 MPI tasks x no OpenMP threads

MPI task timing breakdown:
Section |  min time  |  avg time  |  max time  |%varavg| %total
---------------------------------------------------------------
Pair    | 39.699     | 39.699     | 39.699     |   0.0 | 54.51
Neigh   | 30.863     | 30.863     | 30.863     |   0.0 | 42.38
Comm    | 0.84702    | 0.84702    | 0.84702    |   0.0 |  1.16
Output  | 0.00048208 | 0.00048208 | 0.00048208 |   0.0 |  0.00
Modify  | 1.1153     | 1.1153     | 1.1153     |   0.0 |  1.53
Other   |            | 0.3059     |            |       |  0.42

Nlocal:    19652 ave 19652 max 19652 min
Histogram: 1 0 0 0 0 0 0 0 0 0
Nghost:    15781 ave 15781 max 15781 min
Histogram: 1 0 0 0 0 0 0 0 0 0
Neighs:    1.04834e+06 ave 1.04834e+06 max 1.04834e+06 min
Histogram: 1 0 0 0 0 0 0 0 0 0

Total # of neighbors = 1048344
Ave neighs/atom = 53.3454
Neighbor list builds = 495
Dangerous builds not checked
Setting up Verlet run ...
  Unit style    : metal
  Current step  : 245495
  Time step     : 0.001
Per MPI rank memory allocation (min/avg/max) = 18.22 | 18.22 | 18.22 Mbytes
Step Temp Press TotEng PotEng Enthalpy 
  245495    373.94191  -0.56083174   -26550.762   -27500.608   -26550.929 
  250000    347.21175   -182.41849   -26733.841   -27615.791   -26788.212 
Loop time of 660.899 on 1 procs for 4505 steps with 19652 atoms

Performance: 0.589 ns/day, 40.751 hours/ns, 6.816 timesteps/s
99.8% CPU use with 1 MPI tasks x no OpenMP threads

MPI task timing breakdown:
Section |  min time  |  avg time  |  max time  |%varavg| %total
---------------------------------------------------------------
Pair    | 362.31     | 362.31     | 362.31     |   0.0 | 54.82
Neigh   | 278.24     | 278.24     | 278.24     |   0.0 | 42.10
Comm    | 7.5781     | 7.5781     | 7.5781     |   0.0 |  1.15
Output  | 0.073012   | 0.073012   | 0.073012   |   0.0 |  0.01
Modify  | 9.931      | 9.931      | 9.931      |   0.0 |  1.50
Other   |            | 2.762      |            |       |  0.42

Nlocal:    19652 ave 19652 max 19652 min
Histogram: 1 0 0 0 0 0 0 0 0 0
Nghost:    15782 ave 15782 max 15782 min
Histogram: 1 0 0 0 0 0 0 0 0 0
Neighs:    1.0539e+06 ave 1.0539e+06 max 1.0539e+06 min
Histogram: 1 0 0 0 0 0 0 0 0 0

Total # of neighbors = 1053898
Ave neighs/atom = 53.628
Neighbor list builds = 4505
Dangerous builds not checked
Setting up Verlet run ...
  Unit style    : metal
  Current step  : 250000
  Time step     : 0.001
Per MPI rank memory allocation (min/avg/max) = 18.22 | 18.22 | 18.22 Mbytes
Step Temp Press TotEng PotEng Enthalpy 
  250000    347.21175   -182.41849   -26733.841   -27615.791   -26788.212 
  250495    321.93015    95.465106   -26868.596   -27686.328   -26840.247 
Loop time of 71.1014 on 1 procs for 495 steps with 19652 atoms

Performance: 0.602 ns/day, 39.900 hours/ns, 6.962 timesteps/s
98.9% CPU use with 1 MPI tasks x no OpenMP threads

MPI task timing breakdown:
Section |  min time  |  avg time  |  max time  |%varavg| %total
---------------------------------------------------------------
Pair    | 38.448     | 38.448     | 38.448     |   0.0 | 54.07
Neigh   | 30.462     | 30.462     | 30.462     |   0.0 | 42.84
Comm    | 0.81445    | 0.81445    | 0.81445    |   0.0 |  1.15
Output  | 0.00018811 | 0.00018811 | 0.00018811 |   0.0 |  0.00
Modify  | 1.0708     | 1.0708     | 1.0708     |   0.0 |  1.51
Other   |            | 0.3063     |            |       |  0.43

Nlocal:    19652 ave 19652 max 19652 min
Histogram: 1 0 0 0 0 0 0 0 0 0
Nghost:    15854 ave 15854 max 15854 min
Histogram: 1 0 0 0 0 0 0 0 0 0
Neighs:    1.05831e+06 ave 1.05831e+06 max 1.05831e+06 min
Histogram: 1 0 0 0 0 0 0 0 0 0

Total # of neighbors = 1058313
Ave neighs/atom = 53.8527
Neighbor list builds = 495
Dangerous builds not checked
Setting up Verlet run ...
  Unit style    : metal
  Current step  : 250495
  Time step     : 0.001
Per MPI rank memory allocation (min/avg/max) = 18.22 | 18.22 | 18.22 Mbytes
Step Temp Press TotEng PotEng Enthalpy 
  250495    321.93015    95.465106   -26868.596   -27686.328   -26840.247 
  255000    298.63208    399.10463   -27019.807   -27778.359   -26901.785 
Loop time of 561.834 on 1 procs for 4505 steps with 19652 atoms

Performance: 0.693 ns/day, 34.643 hours/ns, 8.018 timesteps/s
99.9% CPU use with 1 MPI tasks x no OpenMP threads

MPI task timing breakdown:
Section |  min time  |  avg time  |  max time  |%varavg| %total
---------------------------------------------------------------
Pair    | 298.97     | 298.97     | 298.97     |   0.0 | 53.21
Neigh   | 246.38     | 246.38     | 246.38     |   0.0 | 43.85
Comm    | 6.0829     | 6.0829     | 6.0829     |   0.0 |  1.08
Output  | 0.047099   | 0.047099   | 0.047099   |   0.0 |  0.01
Modify  | 7.9588     | 7.9588     | 7.9588     |   0.0 |  1.42
Other   |            | 2.396      |            |       |  0.43

Nlocal:    19652 ave 19652 max 19652 min
Histogram: 1 0 0 0 0 0 0 0 0 0
Nghost:    15892 ave 15892 max 15892 min
Histogram: 1 0 0 0 0 0 0 0 0 0
Neighs:    1.06429e+06 ave 1.06429e+06 max 1.06429e+06 min
Histogram: 1 0 0 0 0 0 0 0 0 0

Total # of neighbors = 1064289
Ave neighs/atom = 54.1568
Neighbor list builds = 4505
Dangerous builds not checked
Setting up Verlet run ...
  Unit style    : metal
  Current step  : 255000
  Time step     : 0.001
Per MPI rank memory allocation (min/avg/max) = 18.22 | 18.22 | 18.22 Mbytes
Step Temp Press TotEng PotEng Enthalpy 
  255000    298.63208    399.10463   -27019.807   -27778.359   -26901.785 
  255495    272.92259    31.277766   -27160.518   -27853.766   -27151.285 
Loop time of 59.2982 on 1 procs for 495 steps with 19652 atoms

Performance: 0.721 ns/day, 33.276 hours/ns, 8.348 timesteps/s
100.0% CPU use with 1 MPI tasks x no OpenMP threads

MPI task timing breakdown:
Section |  min time  |  avg time  |  max time  |%varavg| %total
---------------------------------------------------------------
Pair    | 31.395     | 31.395     | 31.395     |   0.0 | 52.94
Neigh   | 26.262     | 26.262     | 26.262     |   0.0 | 44.29
Comm    | 0.5988     | 0.5988     | 0.5988     |   0.0 |  1.01
Output  | 0.00025606 | 0.00025606 | 0.00025606 |   0.0 |  0.00
Modify  | 0.80367    | 0.80367    | 0.80367    |   0.0 |  1.36
Other   |            | 0.2379     |            |       |  0.40

Nlocal:    19652 ave 19652 max 19652 min
Histogram: 1 0 0 0 0 0 0 0 0 0
Nghost:    15910 ave 15910 max 15910 min
Histogram: 1 0 0 0 0 0 0 0 0 0
Neighs:    1.06651e+06 ave 1.06651e+06 max 1.06651e+06 min
Histogram: 1 0 0 0 0 0 0 0 0 0

Total # of neighbors = 1066514
Ave neighs/atom = 54.27
Neighbor list builds = 495
Dangerous builds not checked
Setting up Verlet run ...
  Unit style    : metal
  Current step  : 255495
  Time step     : 0.001
Per MPI rank memory allocation (min/avg/max) = 18.22 | 18.22 | 18.22 Mbytes
Step Temp Press TotEng PotEng Enthalpy 
  255495    272.92259    31.277766   -27160.518   -27853.766   -27151.285 
  260000    247.92448   -307.60404   -27311.397   -27941.148   -27402.026 
Loop time of 527.497 on 1 procs for 4505 steps with 19652 atoms

Performance: 0.738 ns/day, 32.525 hours/ns, 8.540 timesteps/s
99.8% CPU use with 1 MPI tasks x no OpenMP threads

MPI task timing breakdown:
Section |  min time  |  avg time  |  max time  |%varavg| %total
---------------------------------------------------------------
Pair    | 276.86     | 276.86     | 276.86     |   0.0 | 52.49
Neigh   | 236.84     | 236.84     | 236.84     |   0.0 | 44.90
Comm    | 4.8895     | 4.8895     | 4.8895     |   0.0 |  0.93
Output  | 0.23125    | 0.23125    | 0.23125    |   0.0 |  0.04
Modify  | 6.7853     | 6.7853     | 6.7853     |   0.0 |  1.29
Other   |            | 1.886      |            |       |  0.36

Nlocal:    19652 ave 19652 max 19652 min
Histogram: 1 0 0 0 0 0 0 0 0 0
Nghost:    15848 ave 15848 max 15848 min
Histogram: 1 0 0 0 0 0 0 0 0 0
Neighs:    1.06988e+06 ave 1.06988e+06 max 1.06988e+06 min
Histogram: 1 0 0 0 0 0 0 0 0 0

Total # of neighbors = 1069882
Ave neighs/atom = 54.4414
Neighbor list builds = 4505
Dangerous builds not checked
Setting up Verlet run ...
  Unit style    : metal
  Current step  : 260000
  Time step     : 0.001
Per MPI rank memory allocation (min/avg/max) = 18.22 | 18.22 | 18.22 Mbytes
Step Temp Press TotEng PotEng Enthalpy 
  260000    247.92448   -307.60404   -27311.397   -27941.148   -27402.026 
  260495    222.84726   -226.78035   -27446.933   -28012.985   -27513.545 
Loop time of 58.9142 on 1 procs for 495 steps with 19652 atoms

Performance: 0.726 ns/day, 33.061 hours/ns, 8.402 timesteps/s
99.8% CPU use with 1 MPI tasks x no OpenMP threads

MPI task timing breakdown:
Section |  min time  |  avg time  |  max time  |%varavg| %total
---------------------------------------------------------------
Pair    | 31.022     | 31.022     | 31.022     |   0.0 | 52.66
Neigh   | 26.418     | 26.418     | 26.418     |   0.0 | 44.84
Comm    | 0.52246    | 0.52246    | 0.52246    |   0.0 |  0.89
Output  | 0.00027704 | 0.00027704 | 0.00027704 |   0.0 |  0.00
Modify  | 0.7435     | 0.7435     | 0.7435     |   0.0 |  1.26
Other   |            | 0.2081     |            |       |  0.35

Nlocal:    19652 ave 19652 max 19652 min
Histogram: 1 0 0 0 0 0 0 0 0 0
Nghost:    15903 ave 15903 max 15903 min
Histogram: 1 0 0 0 0 0 0 0 0 0
Neighs:    1.07376e+06 ave 1.07376e+06 max 1.07376e+06 min
Histogram: 1 0 0 0 0 0 0 0 0 0

Total # of neighbors = 1073758
Ave neighs/atom = 54.6386
Neighbor list builds = 495
Dangerous builds not checked
Setting up Verlet run ...
  Unit style    : metal
  Current step  : 260495
  Time step     : 0.001
Per MPI rank memory allocation (min/avg/max) = 18.22 | 18.22 | 18.22 Mbytes
Step Temp Press TotEng PotEng Enthalpy 
  260495    222.84726   -226.78035   -27446.933   -28012.985   -27513.545 
  265000    201.05729   -231.67937   -27589.233   -28099.937   -27657.111 
Loop time of 522.209 on 1 procs for 4505 steps with 19652 atoms

Performance: 0.745 ns/day, 32.199 hours/ns, 8.627 timesteps/s
99.8% CPU use with 1 MPI tasks x no OpenMP threads

MPI task timing breakdown:
Section |  min time  |  avg time  |  max time  |%varavg| %total
---------------------------------------------------------------
Pair    | 274.23     | 274.23     | 274.23     |   0.0 | 52.51
Neigh   | 234.86     | 234.86     | 234.86     |   0.0 | 44.97
Comm    | 4.6632     | 4.6632     | 4.6632     |   0.0 |  0.89
Output  | 0.070616   | 0.070616   | 0.070616   |   0.0 |  0.01
Modify  | 6.5797     | 6.5797     | 6.5797     |   0.0 |  1.26
Other   |            | 1.806      |            |       |  0.35

Nlocal:    19652 ave 19652 max 19652 min
Histogram: 1 0 0 0 0 0 0 0 0 0
Nghost:    15893 ave 15893 max 15893 min
Histogram: 1 0 0 0 0 0 0 0 0 0
Neighs:    1.07781e+06 ave 1.07781e+06 max 1.07781e+06 min
Histogram: 1 0 0 0 0 0 0 0 0 0

Total # of neighbors = 1077808
Ave neighs/atom = 54.8447
Neighbor list builds = 4505
Dangerous builds not checked
Setting up Verlet run ...
  Unit style    : metal
  Current step  : 265000
  Time step     : 0.001
Per MPI rank memory allocation (min/avg/max) = 18.22 | 18.22 | 18.22 Mbytes
Step Temp Press TotEng PotEng Enthalpy 
  265000    201.05729   -231.67937   -27589.233   -28099.937   -27657.111 
  265495    176.51139   -117.62173   -27719.738   -28168.093   -27754.096 
Loop time of 58.1044 on 1 procs for 495 steps with 19652 atoms

Performance: 0.736 ns/day, 32.606 hours/ns, 8.519 timesteps/s
99.9% CPU use with 1 MPI tasks x no OpenMP threads

MPI task timing breakdown:
Section |  min time  |  avg time  |  max time  |%varavg| %total
---------------------------------------------------------------
Pair    | 30.645     | 30.645     | 30.645     |   0.0 | 52.74
Neigh   | 26.004     | 26.004     | 26.004     |   0.0 | 44.75
Comm    | 0.51959    | 0.51959    | 0.51959    |   0.0 |  0.89
Output  | 0.00038695 | 0.00038695 | 0.00038695 |   0.0 |  0.00
Modify  | 0.7322     | 0.7322     | 0.7322     |   0.0 |  1.26
Other   |            | 0.2033     |            |       |  0.35

Nlocal:    19652 ave 19652 max 19652 min
Histogram: 1 0 0 0 0 0 0 0 0 0
Nghost:    15927 ave 15927 max 15927 min
Histogram: 1 0 0 0 0 0 0 0 0 0
Neighs:    1.08175e+06 ave 1.08175e+06 max 1.08175e+06 min
Histogram: 1 0 0 0 0 0 0 0 0 0

Total # of neighbors = 1081748
Ave neighs/atom = 55.0452
Neighbor list builds = 495
Dangerous builds not checked
Setting up Verlet run ...
  Unit style    : metal
  Current step  : 265495
  Time step     : 0.001
Per MPI rank memory allocation (min/avg/max) = 18.22 | 18.22 | 18.22 Mbytes
Step Temp Press TotEng PotEng Enthalpy 
  265495    176.51139   -117.62173   -27719.738   -28168.093   -27754.096 
  270000    150.50607    7.0048156   -27861.676   -28243.976   -27859.636 
Loop time of 538.595 on 1 procs for 4505 steps with 19652 atoms

Performance: 0.723 ns/day, 33.210 hours/ns, 8.364 timesteps/s
99.7% CPU use with 1 MPI tasks x no OpenMP threads

MPI task timing breakdown:
Section |  min time  |  avg time  |  max time  |%varavg| %total
---------------------------------------------------------------
Pair    | 285.04     | 285.04     | 285.04     |   0.0 | 52.92
Neigh   | 239.69     | 239.69     | 239.69     |   0.0 | 44.50
Comm    | 4.9086     | 4.9086     | 4.9086     |   0.0 |  0.91
Output  | 0.10796    | 0.10796    | 0.10796    |   0.0 |  0.02
Modify  | 6.9294     | 6.9294     | 6.9294     |   0.0 |  1.29
Other   |            | 1.914      |            |       |  0.36

Nlocal:    19652 ave 19652 max 19652 min
Histogram: 1 0 0 0 0 0 0 0 0 0
Nghost:    15933 ave 15933 max 15933 min
Histogram: 1 0 0 0 0 0 0 0 0 0
Neighs:    1.08575e+06 ave 1.08575e+06 max 1.08575e+06 min
Histogram: 1 0 0 0 0 0 0 0 0 0

Total # of neighbors = 1085747
Ave neighs/atom = 55.2487
Neighbor list builds = 4505
Dangerous builds not checked
Setting up Verlet run ...
  Unit style    : metal
  Current step  : 270000
  Time step     : 0.001
Per MPI rank memory allocation (min/avg/max) = 18.22 | 18.22 | 18.22 Mbytes
Step Temp Press TotEng PotEng Enthalpy 
  270000    150.50607    7.0048156   -27861.676   -28243.976   -27859.636 
  270495    127.24954   -82.356206     -27986.8   -28310.026   -28010.742 
Loop time of 58.4373 on 1 procs for 495 steps with 19652 atoms

Performance: 0.732 ns/day, 32.793 hours/ns, 8.471 timesteps/s
99.6% CPU use with 1 MPI tasks x no OpenMP threads

MPI task timing breakdown:
Section |  min time  |  avg time  |  max time  |%varavg| %total
---------------------------------------------------------------
Pair    | 30.917     | 30.917     | 30.917     |   0.0 | 52.91
Neigh   | 26.035     | 26.035     | 26.035     |   0.0 | 44.55
Comm    | 0.52791    | 0.52791    | 0.52791    |   0.0 |  0.90
Output  | 0.00018191 | 0.00018191 | 0.00018191 |   0.0 |  0.00
Modify  | 0.74862    | 0.74862    | 0.74862    |   0.0 |  1.28
Other   |            | 0.2087     |            |       |  0.36

Nlocal:    19652 ave 19652 max 19652 min
Histogram: 1 0 0 0 0 0 0 0 0 0
Nghost:    15935 ave 15935 max 15935 min
Histogram: 1 0 0 0 0 0 0 0 0 0
Neighs:    1.08795e+06 ave 1.08795e+06 max 1.08795e+06 min
Histogram: 1 0 0 0 0 0 0 0 0 0

Total # of neighbors = 1087948
Ave neighs/atom = 55.3607
Neighbor list builds = 495
Dangerous builds not checked
Setting up Verlet run ...
  Unit style    : metal
  Current step  : 270495
  Time step     : 0.001
Per MPI rank memory allocation (min/avg/max) = 18.22 | 18.22 | 18.22 Mbytes
Step Temp Press TotEng PotEng Enthalpy 
  270495    127.24954   -82.356206     -27986.8   -28310.026   -28010.742 
  275000    99.526639   -166.37037   -28135.823    -28388.63   -28184.057 
Loop time of 531.248 on 1 procs for 4505 steps with 19652 atoms

Performance: 0.733 ns/day, 32.757 hours/ns, 8.480 timesteps/s
99.8% CPU use with 1 MPI tasks x no OpenMP threads

MPI task timing breakdown:
Section |  min time  |  avg time  |  max time  |%varavg| %total
---------------------------------------------------------------
Pair    | 280.21     | 280.21     | 280.21     |   0.0 | 52.75
Neigh   | 237.47     | 237.47     | 237.47     |   0.0 | 44.70
Comm    | 4.7822     | 4.7822     | 4.7822     |   0.0 |  0.90
Output  | 0.058744   | 0.058744   | 0.058744   |   0.0 |  0.01
Modify  | 6.8301     | 6.8301     | 6.8301     |   0.0 |  1.29
Other   |            | 1.89       |            |       |  0.36

Nlocal:    19652 ave 19652 max 19652 min
Histogram: 1 0 0 0 0 0 0 0 0 0
Nghost:    15952 ave 15952 max 15952 min
Histogram: 1 0 0 0 0 0 0 0 0 0
Neighs:    1.09142e+06 ave 1.09142e+06 max 1.09142e+06 min
Histogram: 1 0 0 0 0 0 0 0 0 0

Total # of neighbors = 1091422
Ave neighs/atom = 55.5375
Neighbor list builds = 4505
Dangerous builds not checked
Total wall time: 10:03:17
