LAMMPS (12 Dec 2018)
Lattice spacing in x,y,z = 4 4 4
Created orthogonal box = (0 0 0) to (68 68 68)
  1 by 1 by 1 MPI processor grid
Created 19652 atoms
  Time spent = 0.00369501 secs
Setting atom values ...
  206 settings made for type/fraction
Neighbor list info ...
  update every 1 steps, delay 0 steps, check no
  max neighbors/atom: 2000, page size: 100000
  master list distance cutoff = 8.5
  ghost atom cutoff = 8.5
  binsize = 4.25, bins = 16 16 16
  1 neighbor lists, perpetual/occasional/extra = 1 0 0
  (1) pair eam/alloy, perpetual
      attributes: half, newton on
      pair build: half/bin/atomonly/newton
      stencil: half/bin/3d/newton
      bin: standard
Setting up Verlet run ...
  Unit style    : metal
  Current step  : 0
  Time step     : 0.001
Per MPI rank memory allocation (min/avg/max) = 18.19 | 18.19 | 18.19 Mbytes
Step Temp Press TotEng PotEng Enthalpy Volume 
       0          300    647872.02   -100670.87    -101432.9    26475.981       314432 
    1000      277.652    563317.19   -100670.81   -101376.07    9881.9001       314432 
Loop time of 140.68 on 1 procs for 1000 steps with 19652 atoms

Performance: 0.614 ns/day, 39.078 hours/ns, 7.108 timesteps/s
99.3% CPU use with 1 MPI tasks x no OpenMP threads

MPI task timing breakdown:
Section |  min time  |  avg time  |  max time  |%varavg| %total
---------------------------------------------------------------
Pair    | 79.137     | 79.137     | 79.137     |   0.0 | 56.25
Neigh   | 58.334     | 58.334     | 58.334     |   0.0 | 41.47
Comm    | 1.6764     | 1.6764     | 1.6764     |   0.0 |  1.19
Output  | 0.088811   | 0.088811   | 0.088811   |   0.0 |  0.06
Modify  | 0.74238    | 0.74238    | 0.74238    |   0.0 |  0.53
Other   |            | 0.7019     |            |       |  0.50

Nlocal:    19652 ave 19652 max 19652 min
Histogram: 1 0 0 0 0 0 0 0 0 0
Nghost:    19375 ave 19375 max 19375 min
Histogram: 1 0 0 0 0 0 0 0 0 0
Neighs:    1.57995e+06 ave 1.57995e+06 max 1.57995e+06 min
Histogram: 1 0 0 0 0 0 0 0 0 0

Total # of neighbors = 1579954
Ave neighs/atom = 80.3966
Neighbor list builds = 1000
Dangerous builds not checked
Setting up Verlet run ...
  Unit style    : metal
  Current step  : 1000
  Time step     : 0.001
Per MPI rank memory allocation (min/avg/max) = 18.19 | 18.19 | 18.19 Mbytes
Step Temp Press TotEng PotEng Enthalpy Volume 
    1000      277.652    563317.19   -100670.81   -101376.07    9881.9001       314432 
    2000    293.61394     -11.3577   -122427.33   -123173.14    -122430.6    461361.85 
Loop time of 113.283 on 1 procs for 1000 steps with 19652 atoms

Performance: 0.763 ns/day, 31.468 hours/ns, 8.827 timesteps/s
99.7% CPU use with 1 MPI tasks x no OpenMP threads

MPI task timing breakdown:
Section |  min time  |  avg time  |  max time  |%varavg| %total
---------------------------------------------------------------
Pair    | 60.515     | 60.515     | 60.515     |   0.0 | 53.42
Neigh   | 49.491     | 49.491     | 49.491     |   0.0 | 43.69
Comm    | 1.0726     | 1.0726     | 1.0726     |   0.0 |  0.95
Output  | 0.042935   | 0.042935   | 0.042935   |   0.0 |  0.04
Modify  | 1.5581     | 1.5581     | 1.5581     |   0.0 |  1.38
Other   |            | 0.6039     |            |       |  0.53

Nlocal:    19652 ave 19652 max 19652 min
Histogram: 1 0 0 0 0 0 0 0 0 0
Nghost:    14808 ave 14808 max 14808 min
Histogram: 1 0 0 0 0 0 0 0 0 0
Neighs:    1.07209e+06 ave 1.07209e+06 max 1.07209e+06 min
Histogram: 1 0 0 0 0 0 0 0 0 0

Total # of neighbors = 1072089
Ave neighs/atom = 54.5537
Neighbor list builds = 1000
Dangerous builds not checked
Setting up Verlet run ...
  Unit style    : metal
  Current step  : 2000
  Time step     : 0.001
Per MPI rank memory allocation (min/avg/max) = 18.19 | 18.19 | 18.19 Mbytes
Step Temp Press TotEng PotEng Enthalpy Volume 
    2000    293.61394     -11.3577   -122427.33   -123173.14    -122430.6    461361.85 
    3000    429.13842    116.74766   -121489.28   -122579.33   -121455.62       461935 
    4000     806.3618   -123.42418    -119613.8   -121662.03   -119649.57    464330.01 
    5000    1115.7354    -1148.552   -117966.77   -120800.84   -118302.06    467717.56 
    6000    1355.0516    -1161.057   -116349.36   -119791.32   -116690.31    470483.15 
    7000    1626.1552     -894.725   -114614.51   -118745.09   -114878.76    473190.72 
    8000    1895.8035   -849.37014   -112817.17   -117632.68   -113069.92       476760 
    9000    2143.2577   -1718.2408   -110568.06   -116012.13   -111084.77    481802.89 
   10000     2390.591   -1106.6249   -107426.93   -113499.25   -107765.07    489549.87 
Loop time of 851.329 on 1 procs for 8000 steps with 19652 atoms

Performance: 0.812 ns/day, 29.560 hours/ns, 9.397 timesteps/s
99.6% CPU use with 1 MPI tasks x no OpenMP threads

MPI task timing breakdown:
Section |  min time  |  avg time  |  max time  |%varavg| %total
---------------------------------------------------------------
Pair    | 461.74     | 461.74     | 461.74     |   0.0 | 54.24
Neigh   | 361.08     | 361.08     | 361.08     |   0.0 | 42.41
Comm    | 9.4169     | 9.4169     | 9.4169     |   0.0 |  1.11
Output  | 0.33749    | 0.33749    | 0.33749    |   0.0 |  0.04
Modify  | 13.374     | 13.374     | 13.374     |   0.0 |  1.57
Other   |            | 5.377      |            |       |  0.63

Nlocal:    19652 ave 19652 max 19652 min
Histogram: 1 0 0 0 0 0 0 0 0 0
Nghost:    15488 ave 15488 max 15488 min
Histogram: 1 0 0 0 0 0 0 0 0 0
Neighs:    1.00479e+06 ave 1.00479e+06 max 1.00479e+06 min
Histogram: 1 0 0 0 0 0 0 0 0 0

Total # of neighbors = 1004792
Ave neighs/atom = 51.1292
Neighbor list builds = 8000
Dangerous builds not checked
Setting up Verlet run ...
  Unit style    : metal
  Current step  : 10000
  Time step     : 0.001
Per MPI rank memory allocation (min/avg/max) = 18.19 | 18.19 | 18.19 Mbytes
Step Temp Press TotEng PotEng Enthalpy Volume 
   10000     2390.591   -1106.6249   -107426.93   -113499.25   -107765.07    489549.87 
   11000    2453.7896   -1348.7376   -106078.14   -112310.99   -106494.15    494176.19 
   12000      2439.47   -1699.5156   -106161.87   -112358.34   -106686.01    494121.16 
   13000    2452.2565   -550.36794   -106005.11   -112234.06   -106174.75     493850.5 
   14000    2454.8887   -993.67295   -106103.55   -112339.19   -106409.82    493832.51 
   15000    2446.1779   -1833.3424   -106187.01   -112400.52   -106752.24    493957.58 
   16000    2440.0307    172.66888   -106119.68   -112317.58   -106066.56    492955.49 
   17000    2469.9548    -231.5617   -106095.36   -112369.27   -106166.65    493299.11 
   18000    2444.6215    307.42282   -106152.19   -112361.75   -106057.67    492617.76 
   19000    2475.6451    932.21653   -106071.16   -112359.53   -105784.69    492359.06 
   20000    2460.5188    2245.5092   -106160.66    -112410.6   -105472.49    491007.77 
   21000    2432.0873    556.12346   -106218.22   -112395.95   -106047.25     492563.4 
   22000    2436.4189   -324.67277   -106127.45   -112316.17   -106227.45    493506.58 
   23000    2477.8799     1074.629   -106036.86    -112330.9   -105706.43    492642.35 
   24000    2459.1149    1298.9465   -106072.55   -112318.93   -105673.58    492113.38 
   25000    2444.5354    1100.8179   -106028.08   -112237.42   -105689.57    492681.35 
   26000     2450.976    1511.1643   -106035.74   -112261.45   -105571.51    492198.07 
   27000    2436.9505    823.79363   -106144.01   -112334.09   -105890.99    492096.07 
   28000    2474.1088    1484.7606   -106038.32   -112322.78    -105582.3    492085.55 
   29000    2453.2952    1435.4659      -106092   -112323.59   -105651.19    492001.38 
   30000    2468.6839    496.81418   -106110.35   -112381.03   -105957.54    492777.59 
   31000    2447.9744   -178.19458    -106158.4   -112376.48   -106213.26    493267.49 
   32000    2441.7116   -1174.5568   -106115.63    -112317.8   -106477.77    493982.08 
   33000    2439.8121   -734.09454   -106148.63   -112345.97   -106374.78    493584.83 
   34000     2440.792   -1001.8374   -106107.01   -112306.85   -106415.66    493603.75 
   35000    2428.9212   -551.00569   -106198.79   -112368.47   -106368.58    493698.74 
   36000    2443.7229    29.599598   -106109.66   -112316.94   -106100.55    493232.87 
   37000     2455.853   -527.51507   -106139.17   -112377.26   -106301.62    493393.77 
   38000    2431.9704   -299.67754    -106183.7   -112361.13   -106275.99     493385.9 
   39000    2467.0726    971.18559   -106046.87   -112313.46   -105748.24    492648.59 
   40000    2456.6036    1949.6582    -106088.2    -112328.2   -105489.96    491612.71 
Loop time of 3170.82 on 1 procs for 30000 steps with 19652 atoms

Performance: 0.817 ns/day, 29.359 hours/ns, 9.461 timesteps/s
99.6% CPU use with 1 MPI tasks x no OpenMP threads

MPI task timing breakdown:
Section |  min time  |  avg time  |  max time  |%varavg| %total
---------------------------------------------------------------
Pair    | 1648.6     | 1648.6     | 1648.6     |   0.0 | 51.99
Neigh   | 1425.1     | 1425.1     | 1425.1     |   0.0 | 44.94
Comm    | 31.623     | 31.623     | 31.623     |   0.0 |  1.00
Output  | 1.235      | 1.235      | 1.235      |   0.0 |  0.04
Modify  | 46.185     | 46.185     | 46.185     |   0.0 |  1.46
Other   |            | 18.15      |            |       |  0.57

Nlocal:    19652 ave 19652 max 19652 min
Histogram: 1 0 0 0 0 0 0 0 0 0
Nghost:    15610 ave 15610 max 15610 min
Histogram: 1 0 0 0 0 0 0 0 0 0
Neighs:    1.00241e+06 ave 1.00241e+06 max 1.00241e+06 min
Histogram: 1 0 0 0 0 0 0 0 0 0

Total # of neighbors = 1002411
Ave neighs/atom = 51.0081
Neighbor list builds = 30000
Dangerous builds not checked
Setting up Verlet run ...
  Unit style    : metal
  Current step  : 40000
  Time step     : 0.001
Per MPI rank memory allocation (min/avg/max) = 18.19 | 18.19 | 18.19 Mbytes
Step Temp Press TotEng PotEng Enthalpy Volume 
   40000    2456.6036    1949.6582    -106088.2    -112328.2   -105489.96    491612.71 
   40495    2408.1951    801.08526   -106335.36    -112452.4   -106089.49    491739.21 
Loop time of 50.4784 on 1 procs for 495 steps with 19652 atoms

Performance: 0.847 ns/day, 28.327 hours/ns, 9.806 timesteps/s
99.8% CPU use with 1 MPI tasks x no OpenMP threads

MPI task timing breakdown:
Section |  min time  |  avg time  |  max time  |%varavg| %total
---------------------------------------------------------------
Pair    | 26.265     | 26.265     | 26.265     |   0.0 | 52.03
Neigh   | 22.677     | 22.677     | 22.677     |   0.0 | 44.92
Comm    | 0.49825    | 0.49825    | 0.49825    |   0.0 |  0.99
Output  | 0.00016403 | 0.00016403 | 0.00016403 |   0.0 |  0.00
Modify  | 0.74567    | 0.74567    | 0.74567    |   0.0 |  1.48
Other   |            | 0.2917     |            |       |  0.58

Nlocal:    19652 ave 19652 max 19652 min
Histogram: 1 0 0 0 0 0 0 0 0 0
Nghost:    15546 ave 15546 max 15546 min
Histogram: 1 0 0 0 0 0 0 0 0 0
Neighs:    1.00239e+06 ave 1.00239e+06 max 1.00239e+06 min
Histogram: 1 0 0 0 0 0 0 0 0 0

Total # of neighbors = 1002391
Ave neighs/atom = 51.0071
Neighbor list builds = 495
Dangerous builds not checked
Setting up Verlet run ...
  Unit style    : metal
  Current step  : 40495
  Time step     : 0.001
Per MPI rank memory allocation (min/avg/max) = 18.19 | 18.19 | 18.19 Mbytes
Step Temp Press TotEng PotEng Enthalpy Volume 
   40495    2408.1951    801.08526   -106335.36    -112452.4   -106089.49    491739.21 
   41000    2399.4946    364.92712   -106380.86    -112475.8   -106268.77    492124.24 
Loop time of 51.4848 on 1 procs for 505 steps with 19652 atoms

Performance: 0.847 ns/day, 28.319 hours/ns, 9.809 timesteps/s
99.9% CPU use with 1 MPI tasks x no OpenMP threads

MPI task timing breakdown:
Section |  min time  |  avg time  |  max time  |%varavg| %total
---------------------------------------------------------------
Pair    | 26.75      | 26.75      | 26.75      |   0.0 | 51.96
Neigh   | 23.124     | 23.124     | 23.124     |   0.0 | 44.91
Comm    | 0.51092    | 0.51092    | 0.51092    |   0.0 |  0.99
Output  | 0.041016   | 0.041016   | 0.041016   |   0.0 |  0.08
Modify  | 0.76051    | 0.76051    | 0.76051    |   0.0 |  1.48
Other   |            | 0.2976     |            |       |  0.58

Nlocal:    19652 ave 19652 max 19652 min
Histogram: 1 0 0 0 0 0 0 0 0 0
Nghost:    15685 ave 15685 max 15685 min
Histogram: 1 0 0 0 0 0 0 0 0 0
Neighs:    1.00151e+06 ave 1.00151e+06 max 1.00151e+06 min
Histogram: 1 0 0 0 0 0 0 0 0 0

Total # of neighbors = 1001512
Ave neighs/atom = 50.9623
Neighbor list builds = 505
Dangerous builds not checked
Setting up Verlet run ...
  Unit style    : metal
  Current step  : 41000
  Time step     : 0.001
Per MPI rank memory allocation (min/avg/max) = 18.19 | 18.19 | 18.19 Mbytes
Step Temp Press TotEng PotEng Enthalpy Volume 
   41000    2399.4946    364.92712   -106380.86    -112475.8   -106268.77    492124.24 
   41495    2359.4831   -420.77817    -106650.3   -112643.61   -106779.52    492014.69 
Loop time of 50.2708 on 1 procs for 495 steps with 19652 atoms

Performance: 0.851 ns/day, 28.210 hours/ns, 9.847 timesteps/s
99.9% CPU use with 1 MPI tasks x no OpenMP threads

MPI task timing breakdown:
Section |  min time  |  avg time  |  max time  |%varavg| %total
---------------------------------------------------------------
Pair    | 26.172     | 26.172     | 26.172     |   0.0 | 52.06
Neigh   | 22.578     | 22.578     | 22.578     |   0.0 | 44.91
Comm    | 0.49168    | 0.49168    | 0.49168    |   0.0 |  0.98
Output  | 0.00018811 | 0.00018811 | 0.00018811 |   0.0 |  0.00
Modify  | 0.73985    | 0.73985    | 0.73985    |   0.0 |  1.47
Other   |            | 0.2897     |            |       |  0.58

Nlocal:    19652 ave 19652 max 19652 min
Histogram: 1 0 0 0 0 0 0 0 0 0
Nghost:    15577 ave 15577 max 15577 min
Histogram: 1 0 0 0 0 0 0 0 0 0
Neighs:    1.00165e+06 ave 1.00165e+06 max 1.00165e+06 min
Histogram: 1 0 0 0 0 0 0 0 0 0

Total # of neighbors = 1001652
Ave neighs/atom = 50.9695
Neighbor list builds = 495
Dangerous builds not checked
Setting up Verlet run ...
  Unit style    : metal
  Current step  : 41495
  Time step     : 0.001
Per MPI rank memory allocation (min/avg/max) = 18.19 | 18.19 | 18.19 Mbytes
Step Temp Press TotEng PotEng Enthalpy Volume 
   41495    2359.4831   -420.77817    -106650.3   -112643.61   -106779.52    492014.69 
   42000    2341.1584    365.38507    -106778.3   -112725.05    -106666.3    491067.85 
Loop time of 51.4623 on 1 procs for 505 steps with 19652 atoms

Performance: 0.848 ns/day, 28.307 hours/ns, 9.813 timesteps/s
99.8% CPU use with 1 MPI tasks x no OpenMP threads

MPI task timing breakdown:
Section |  min time  |  avg time  |  max time  |%varavg| %total
---------------------------------------------------------------
Pair    | 26.8       | 26.8       | 26.8       |   0.0 | 52.08
Neigh   | 23.037     | 23.037     | 23.037     |   0.0 | 44.77
Comm    | 0.52168    | 0.52168    | 0.52168    |   0.0 |  1.01
Output  | 0.040553   | 0.040553   | 0.040553   |   0.0 |  0.08
Modify  | 0.76674    | 0.76674    | 0.76674    |   0.0 |  1.49
Other   |            | 0.296      |            |       |  0.58

Nlocal:    19652 ave 19652 max 19652 min
Histogram: 1 0 0 0 0 0 0 0 0 0
Nghost:    15701 ave 15701 max 15701 min
Histogram: 1 0 0 0 0 0 0 0 0 0
Neighs:    1.004e+06 ave 1.004e+06 max 1.004e+06 min
Histogram: 1 0 0 0 0 0 0 0 0 0

Total # of neighbors = 1003997
Ave neighs/atom = 51.0888
Neighbor list builds = 505
Dangerous builds not checked
Setting up Verlet run ...
  Unit style    : metal
  Current step  : 42000
  Time step     : 0.001
Per MPI rank memory allocation (min/avg/max) = 18.19 | 18.19 | 18.19 Mbytes
Step Temp Press TotEng PotEng Enthalpy Volume 
   42000    2341.1584    365.38507    -106778.3   -112725.05    -106666.3    491067.85 
   42495    2284.8696    257.12116   -107022.35   -112826.13   -106943.63    490497.15 
Loop time of 50.4063 on 1 procs for 495 steps with 19652 atoms

Performance: 0.848 ns/day, 28.286 hours/ns, 9.820 timesteps/s
99.7% CPU use with 1 MPI tasks x no OpenMP threads

MPI task timing breakdown:
Section |  min time  |  avg time  |  max time  |%varavg| %total
---------------------------------------------------------------
Pair    | 26.29      | 26.29      | 26.29      |   0.0 | 52.16
Neigh   | 22.59      | 22.59      | 22.59      |   0.0 | 44.82
Comm    | 0.49433    | 0.49433    | 0.49433    |   0.0 |  0.98
Output  | 0.00026989 | 0.00026989 | 0.00026989 |   0.0 |  0.00
Modify  | 0.74121    | 0.74121    | 0.74121    |   0.0 |  1.47
Other   |            | 0.2898     |            |       |  0.57

Nlocal:    19652 ave 19652 max 19652 min
Histogram: 1 0 0 0 0 0 0 0 0 0
Nghost:    15680 ave 15680 max 15680 min
Histogram: 1 0 0 0 0 0 0 0 0 0
Neighs:    1.00536e+06 ave 1.00536e+06 max 1.00536e+06 min
Histogram: 1 0 0 0 0 0 0 0 0 0

Total # of neighbors = 1005357
Ave neighs/atom = 51.158
Neighbor list builds = 495
Dangerous builds not checked
Setting up Verlet run ...
  Unit style    : metal
  Current step  : 42495
  Time step     : 0.001
Per MPI rank memory allocation (min/avg/max) = 18.19 | 18.19 | 18.19 Mbytes
Step Temp Press TotEng PotEng Enthalpy Volume 
   42495    2284.8696    257.12116   -107022.35   -112826.13   -106943.63    490497.15 
   43000    2303.6653    1076.4618   -107004.32   -112855.84   -106675.27     489760.2 
Loop time of 51.537 on 1 procs for 505 steps with 19652 atoms

Performance: 0.847 ns/day, 28.348 hours/ns, 9.799 timesteps/s
99.5% CPU use with 1 MPI tasks x no OpenMP threads

MPI task timing breakdown:
Section |  min time  |  avg time  |  max time  |%varavg| %total
---------------------------------------------------------------
Pair    | 26.905     | 26.905     | 26.905     |   0.0 | 52.20
Neigh   | 23.042     | 23.042     | 23.042     |   0.0 | 44.71
Comm    | 0.50209    | 0.50209    | 0.50209    |   0.0 |  0.97
Output  | 0.040897   | 0.040897   | 0.040897   |   0.0 |  0.08
Modify  | 0.75465    | 0.75465    | 0.75465    |   0.0 |  1.46
Other   |            | 0.2926     |            |       |  0.57

Nlocal:    19652 ave 19652 max 19652 min
Histogram: 1 0 0 0 0 0 0 0 0 0
Nghost:    15602 ave 15602 max 15602 min
Histogram: 1 0 0 0 0 0 0 0 0 0
Neighs:    1.00677e+06 ave 1.00677e+06 max 1.00677e+06 min
Histogram: 1 0 0 0 0 0 0 0 0 0

Total # of neighbors = 1006771
Ave neighs/atom = 51.23
Neighbor list builds = 505
Dangerous builds not checked
Setting up Verlet run ...
  Unit style    : metal
  Current step  : 43000
  Time step     : 0.001
Per MPI rank memory allocation (min/avg/max) = 18.19 | 18.19 | 18.19 Mbytes
Step Temp Press TotEng PotEng Enthalpy Volume 
   43000    2303.6653    1076.4618   -107004.32   -112855.84   -106675.27     489760.2 
   43495    2269.3313      487.242   -107292.83   -113057.14   -107144.06    489210.97 
Loop time of 50.4655 on 1 procs for 495 steps with 19652 atoms

Performance: 0.847 ns/day, 28.320 hours/ns, 9.809 timesteps/s
99.7% CPU use with 1 MPI tasks x no OpenMP threads

MPI task timing breakdown:
Section |  min time  |  avg time  |  max time  |%varavg| %total
---------------------------------------------------------------
Pair    | 26.376     | 26.376     | 26.376     |   0.0 | 52.27
Neigh   | 22.57      | 22.57      | 22.57      |   0.0 | 44.72
Comm    | 0.49021    | 0.49021    | 0.49021    |   0.0 |  0.97
Output  | 0.0001719  | 0.0001719  | 0.0001719  |   0.0 |  0.00
Modify  | 0.7401     | 0.7401     | 0.7401     |   0.0 |  1.47
Other   |            | 0.2882     |            |       |  0.57

Nlocal:    19652 ave 19652 max 19652 min
Histogram: 1 0 0 0 0 0 0 0 0 0
Nghost:    15606 ave 15606 max 15606 min
Histogram: 1 0 0 0 0 0 0 0 0 0
Neighs:    1.0086e+06 ave 1.0086e+06 max 1.0086e+06 min
Histogram: 1 0 0 0 0 0 0 0 0 0

Total # of neighbors = 1008605
Ave neighs/atom = 51.3233
Neighbor list builds = 495
Dangerous builds not checked
Setting up Verlet run ...
  Unit style    : metal
  Current step  : 43495
  Time step     : 0.001
Per MPI rank memory allocation (min/avg/max) = 18.19 | 18.19 | 18.19 Mbytes
Step Temp Press TotEng PotEng Enthalpy Volume 
   43495    2269.3313      487.242   -107292.83   -113057.14   -107144.06    489210.97 
   44000    2258.8961    755.38063    -107405.4    -113143.2   -107175.03    488619.71 
Loop time of 51.8352 on 1 procs for 505 steps with 19652 atoms

Performance: 0.842 ns/day, 28.512 hours/ns, 9.742 timesteps/s
99.9% CPU use with 1 MPI tasks x no OpenMP threads

MPI task timing breakdown:
Section |  min time  |  avg time  |  max time  |%varavg| %total
---------------------------------------------------------------
Pair    | 26.975     | 26.975     | 26.975     |   0.0 | 52.04
Neigh   | 23.168     | 23.168     | 23.168     |   0.0 | 44.69
Comm    | 0.56788    | 0.56788    | 0.56788    |   0.0 |  1.10
Output  | 0.042039   | 0.042039   | 0.042039   |   0.0 |  0.08
Modify  | 0.77877    | 0.77877    | 0.77877    |   0.0 |  1.50
Other   |            | 0.3039     |            |       |  0.59

Nlocal:    19652 ave 19652 max 19652 min
Histogram: 1 0 0 0 0 0 0 0 0 0
Nghost:    15656 ave 15656 max 15656 min
Histogram: 1 0 0 0 0 0 0 0 0 0
Neighs:    1.0094e+06 ave 1.0094e+06 max 1.0094e+06 min
Histogram: 1 0 0 0 0 0 0 0 0 0

Total # of neighbors = 1009398
Ave neighs/atom = 51.3636
Neighbor list builds = 505
Dangerous builds not checked
Setting up Verlet run ...
  Unit style    : metal
  Current step  : 44000
  Time step     : 0.001
Per MPI rank memory allocation (min/avg/max) = 18.19 | 18.19 | 18.19 Mbytes
Step Temp Press TotEng PotEng Enthalpy Volume 
   44000    2258.8961    755.38063    -107405.4    -113143.2   -107175.03    488619.71 
   44495    2200.9229    1567.7775    -107636.6   -113227.14   -107159.22     487852.1 
Loop time of 51.817 on 1 procs for 495 steps with 19652 atoms

Performance: 0.825 ns/day, 29.078 hours/ns, 9.553 timesteps/s
99.8% CPU use with 1 MPI tasks x no OpenMP threads

MPI task timing breakdown:
Section |  min time  |  avg time  |  max time  |%varavg| %total
---------------------------------------------------------------
Pair    | 27.305     | 27.305     | 27.305     |   0.0 | 52.70
Neigh   | 22.865     | 22.865     | 22.865     |   0.0 | 44.13
Comm    | 0.53879    | 0.53879    | 0.53879    |   0.0 |  1.04
Output  | 0.00017214 | 0.00017214 | 0.00017214 |   0.0 |  0.00
Modify  | 0.79929    | 0.79929    | 0.79929    |   0.0 |  1.54
Other   |            | 0.3085     |            |       |  0.60

Nlocal:    19652 ave 19652 max 19652 min
Histogram: 1 0 0 0 0 0 0 0 0 0
Nghost:    15713 ave 15713 max 15713 min
Histogram: 1 0 0 0 0 0 0 0 0 0
Neighs:    1.01148e+06 ave 1.01148e+06 max 1.01148e+06 min
Histogram: 1 0 0 0 0 0 0 0 0 0

Total # of neighbors = 1011480
Ave neighs/atom = 51.4696
Neighbor list builds = 495
Dangerous builds not checked
Setting up Verlet run ...
  Unit style    : metal
  Current step  : 44495
  Time step     : 0.001
Per MPI rank memory allocation (min/avg/max) = 18.19 | 18.19 | 18.19 Mbytes
Step Temp Press TotEng PotEng Enthalpy Volume 
   44495    2200.9229    1567.7775    -107636.6   -113227.14   -107159.22     487852.1 
   45000    2201.8934    1089.9706   -107629.17   -113222.18   -107296.98    488297.25 
Loop time of 52.5491 on 1 procs for 505 steps with 19652 atoms

Performance: 0.830 ns/day, 28.905 hours/ns, 9.610 timesteps/s
99.3% CPU use with 1 MPI tasks x no OpenMP threads

MPI task timing breakdown:
Section |  min time  |  avg time  |  max time  |%varavg| %total
---------------------------------------------------------------
Pair    | 27.43      | 27.43      | 27.43      |   0.0 | 52.20
Neigh   | 23.436     | 23.436     | 23.436     |   0.0 | 44.60
Comm    | 0.53546    | 0.53546    | 0.53546    |   0.0 |  1.02
Output  | 0.040974   | 0.040974   | 0.040974   |   0.0 |  0.08
Modify  | 0.7964     | 0.7964     | 0.7964     |   0.0 |  1.52
Other   |            | 0.3106     |            |       |  0.59

Nlocal:    19652 ave 19652 max 19652 min
Histogram: 1 0 0 0 0 0 0 0 0 0
Nghost:    15616 ave 15616 max 15616 min
Histogram: 1 0 0 0 0 0 0 0 0 0
Neighs:    1.01037e+06 ave 1.01037e+06 max 1.01037e+06 min
Histogram: 1 0 0 0 0 0 0 0 0 0

Total # of neighbors = 1010366
Ave neighs/atom = 51.4129
Neighbor list builds = 505
Dangerous builds not checked
Setting up Verlet run ...
  Unit style    : metal
  Current step  : 45000
  Time step     : 0.001
Per MPI rank memory allocation (min/avg/max) = 18.19 | 18.19 | 18.19 Mbytes
Step Temp Press TotEng PotEng Enthalpy Volume 
   45000    2201.8934    1089.9706   -107629.17   -113222.18   -107296.98    488297.25 
   45495     2173.854     955.0873   -107849.49   -113371.28   -107558.84     487574.6 
Loop time of 50.8946 on 1 procs for 495 steps with 19652 atoms

Performance: 0.840 ns/day, 28.560 hours/ns, 9.726 timesteps/s
99.8% CPU use with 1 MPI tasks x no OpenMP threads

MPI task timing breakdown:
Section |  min time  |  avg time  |  max time  |%varavg| %total
---------------------------------------------------------------
Pair    | 26.599     | 26.599     | 26.599     |   0.0 | 52.26
Neigh   | 22.722     | 22.722     | 22.722     |   0.0 | 44.65
Comm    | 0.51245    | 0.51245    | 0.51245    |   0.0 |  1.01
Output  | 0.00016689 | 0.00016689 | 0.00016689 |   0.0 |  0.00
Modify  | 0.75484    | 0.75484    | 0.75484    |   0.0 |  1.48
Other   |            | 0.3056     |            |       |  0.60

Nlocal:    19652 ave 19652 max 19652 min
Histogram: 1 0 0 0 0 0 0 0 0 0
Nghost:    15643 ave 15643 max 15643 min
Histogram: 1 0 0 0 0 0 0 0 0 0
Neighs:    1.01239e+06 ave 1.01239e+06 max 1.01239e+06 min
Histogram: 1 0 0 0 0 0 0 0 0 0

Total # of neighbors = 1012394
Ave neighs/atom = 51.5161
Neighbor list builds = 495
Dangerous builds not checked
Setting up Verlet run ...
  Unit style    : metal
  Current step  : 45495
  Time step     : 0.001
Per MPI rank memory allocation (min/avg/max) = 18.19 | 18.19 | 18.19 Mbytes
Step Temp Press TotEng PotEng Enthalpy Volume 
   45495     2173.854     955.0873   -107849.49   -113371.28   -107558.84     487574.6 
   46000     2161.832    1258.0206   -107957.94   -113449.19   -107575.43    487150.27 
Loop time of 51.9554 on 1 procs for 505 steps with 19652 atoms

Performance: 0.840 ns/day, 28.578 hours/ns, 9.720 timesteps/s
99.2% CPU use with 1 MPI tasks x no OpenMP threads

MPI task timing breakdown:
Section |  min time  |  avg time  |  max time  |%varavg| %total
---------------------------------------------------------------
Pair    | 27.112     | 27.112     | 27.112     |   0.0 | 52.18
Neigh   | 23.195     | 23.195     | 23.195     |   0.0 | 44.64
Comm    | 0.52773    | 0.52773    | 0.52773    |   0.0 |  1.02
Output  | 0.040713   | 0.040713   | 0.040713   |   0.0 |  0.08
Modify  | 0.77374    | 0.77374    | 0.77374    |   0.0 |  1.49
Other   |            | 0.3061     |            |       |  0.59

Nlocal:    19652 ave 19652 max 19652 min
Histogram: 1 0 0 0 0 0 0 0 0 0
Nghost:    15674 ave 15674 max 15674 min
Histogram: 1 0 0 0 0 0 0 0 0 0
Neighs:    1.01296e+06 ave 1.01296e+06 max 1.01296e+06 min
Histogram: 1 0 0 0 0 0 0 0 0 0

Total # of neighbors = 1012964
Ave neighs/atom = 51.5451
Neighbor list builds = 505
Dangerous builds not checked
Setting up Verlet run ...
  Unit style    : metal
  Current step  : 46000
  Time step     : 0.001
Per MPI rank memory allocation (min/avg/max) = 18.19 | 18.19 | 18.19 Mbytes
Step Temp Press TotEng PotEng Enthalpy Volume 
   46000     2161.832    1258.0206   -107957.94   -113449.19   -107575.43    487150.27 
   46495    2116.4581    1050.3901   -108230.92   -113606.91   -107911.86    486665.28 
Loop time of 50.7343 on 1 procs for 495 steps with 19652 atoms

Performance: 0.843 ns/day, 28.470 hours/ns, 9.757 timesteps/s
99.8% CPU use with 1 MPI tasks x no OpenMP threads

MPI task timing breakdown:
Section |  min time  |  avg time  |  max time  |%varavg| %total
---------------------------------------------------------------
Pair    | 26.579     | 26.579     | 26.579     |   0.0 | 52.39
Neigh   | 22.606     | 22.606     | 22.606     |   0.0 | 44.56
Comm    | 0.50435    | 0.50435    | 0.50435    |   0.0 |  0.99
Output  | 0.00020194 | 0.00020194 | 0.00020194 |   0.0 |  0.00
Modify  | 0.74838    | 0.74838    | 0.74838    |   0.0 |  1.48
Other   |            | 0.2966     |            |       |  0.58

Nlocal:    19652 ave 19652 max 19652 min
Histogram: 1 0 0 0 0 0 0 0 0 0
Nghost:    15673 ave 15673 max 15673 min
Histogram: 1 0 0 0 0 0 0 0 0 0
Neighs:    1.0143e+06 ave 1.0143e+06 max 1.0143e+06 min
Histogram: 1 0 0 0 0 0 0 0 0 0

Total # of neighbors = 1014301
Ave neighs/atom = 51.6131
Neighbor list builds = 495
Dangerous builds not checked
Setting up Verlet run ...
  Unit style    : metal
  Current step  : 46495
  Time step     : 0.001
Per MPI rank memory allocation (min/avg/max) = 18.19 | 18.19 | 18.19 Mbytes
Step Temp Press TotEng PotEng Enthalpy Volume 
   46495    2116.4581    1050.3901   -108230.92   -113606.91   -107911.86    486665.28 
   47000     2090.191     982.7459   -108347.97   -113657.25   -108049.74    486208.83 
Loop time of 51.9209 on 1 procs for 505 steps with 19652 atoms

Performance: 0.840 ns/day, 28.559 hours/ns, 9.726 timesteps/s
99.7% CPU use with 1 MPI tasks x no OpenMP threads

MPI task timing breakdown:
Section |  min time  |  avg time  |  max time  |%varavg| %total
---------------------------------------------------------------
Pair    | 27.116     | 27.116     | 27.116     |   0.0 | 52.23
Neigh   | 23.167     | 23.167     | 23.167     |   0.0 | 44.62
Comm    | 0.52578    | 0.52578    | 0.52578    |   0.0 |  1.01
Output  | 0.041141   | 0.041141   | 0.041141   |   0.0 |  0.08
Modify  | 0.7659     | 0.7659     | 0.7659     |   0.0 |  1.48
Other   |            | 0.3047     |            |       |  0.59

Nlocal:    19652 ave 19652 max 19652 min
Histogram: 1 0 0 0 0 0 0 0 0 0
Nghost:    15708 ave 15708 max 15708 min
Histogram: 1 0 0 0 0 0 0 0 0 0
Neighs:    1.01551e+06 ave 1.01551e+06 max 1.01551e+06 min
Histogram: 1 0 0 0 0 0 0 0 0 0

Total # of neighbors = 1015508
Ave neighs/atom = 51.6745
Neighbor list builds = 505
Dangerous builds not checked
Setting up Verlet run ...
  Unit style    : metal
  Current step  : 47000
  Time step     : 0.001
Per MPI rank memory allocation (min/avg/max) = 18.19 | 18.19 | 18.19 Mbytes
Step Temp Press TotEng PotEng Enthalpy Volume 
   47000     2090.191     982.7459   -108347.97   -113657.25   -108049.74    486208.83 
   47495    2076.4613    644.98508   -108561.59   -113835.99   -108365.91    486074.14 
Loop time of 50.8352 on 1 procs for 495 steps with 19652 atoms

Performance: 0.841 ns/day, 28.527 hours/ns, 9.737 timesteps/s
99.4% CPU use with 1 MPI tasks x no OpenMP threads

MPI task timing breakdown:
Section |  min time  |  avg time  |  max time  |%varavg| %total
---------------------------------------------------------------
Pair    | 26.706     | 26.706     | 26.706     |   0.0 | 52.53
Neigh   | 22.587     | 22.587     | 22.587     |   0.0 | 44.43
Comm    | 0.49682    | 0.49682    | 0.49682    |   0.0 |  0.98
Output  | 0.000175   | 0.000175   | 0.000175   |   0.0 |  0.00
Modify  | 0.74886    | 0.74886    | 0.74886    |   0.0 |  1.47
Other   |            | 0.297      |            |       |  0.58

Nlocal:    19652 ave 19652 max 19652 min
Histogram: 1 0 0 0 0 0 0 0 0 0
Nghost:    15711 ave 15711 max 15711 min
Histogram: 1 0 0 0 0 0 0 0 0 0
Neighs:    1.01616e+06 ave 1.01616e+06 max 1.01616e+06 min
Histogram: 1 0 0 0 0 0 0 0 0 0

Total # of neighbors = 1016163
Ave neighs/atom = 51.7079
Neighbor list builds = 495
Dangerous builds not checked
Setting up Verlet run ...
  Unit style    : metal
  Current step  : 47495
  Time step     : 0.001
Per MPI rank memory allocation (min/avg/max) = 18.19 | 18.19 | 18.19 Mbytes
Step Temp Press TotEng PotEng Enthalpy Volume 
   47495    2076.4613    644.98508   -108561.59   -113835.99   -108365.91    486074.14 
   48000    2071.1248    183.15311   -108571.88   -113832.73   -108516.32    486049.38 
Loop time of 51.9775 on 1 procs for 505 steps with 19652 atoms

Performance: 0.839 ns/day, 28.590 hours/ns, 9.716 timesteps/s
99.2% CPU use with 1 MPI tasks x no OpenMP threads

MPI task timing breakdown:
Section |  min time  |  avg time  |  max time  |%varavg| %total
---------------------------------------------------------------
Pair    | 27.263     | 27.263     | 27.263     |   0.0 | 52.45
Neigh   | 23.092     | 23.092     | 23.092     |   0.0 | 44.43
Comm    | 0.50692    | 0.50692    | 0.50692    |   0.0 |  0.98
Output  | 0.041498   | 0.041498   | 0.041498   |   0.0 |  0.08
Modify  | 0.77144    | 0.77144    | 0.77144    |   0.0 |  1.48
Other   |            | 0.3028     |            |       |  0.58

Nlocal:    19652 ave 19652 max 19652 min
Histogram: 1 0 0 0 0 0 0 0 0 0
Nghost:    15695 ave 15695 max 15695 min
Histogram: 1 0 0 0 0 0 0 0 0 0
Neighs:    1.01555e+06 ave 1.01555e+06 max 1.01555e+06 min
Histogram: 1 0 0 0 0 0 0 0 0 0

Total # of neighbors = 1015553
Ave neighs/atom = 51.6768
Neighbor list builds = 505
Dangerous builds not checked
Setting up Verlet run ...
  Unit style    : metal
  Current step  : 48000
  Time step     : 0.001
Per MPI rank memory allocation (min/avg/max) = 18.19 | 18.19 | 18.19 Mbytes
Step Temp Press TotEng PotEng Enthalpy Volume 
   48000    2071.1248    183.15311   -108571.88   -113832.73   -108516.32    486049.38 
   48495    2003.9648    480.61135   -108880.05    -113970.3    -108734.5     485183.5 
Loop time of 50.6781 on 1 procs for 495 steps with 19652 atoms

Performance: 0.844 ns/day, 28.439 hours/ns, 9.768 timesteps/s
99.3% CPU use with 1 MPI tasks x no OpenMP threads

MPI task timing breakdown:
Section |  min time  |  avg time  |  max time  |%varavg| %total
---------------------------------------------------------------
Pair    | 26.62      | 26.62      | 26.62      |   0.0 | 52.53
Neigh   | 22.52      | 22.52      | 22.52      |   0.0 | 44.44
Comm    | 0.48979    | 0.48979    | 0.48979    |   0.0 |  0.97
Output  | 0.00017309 | 0.00017309 | 0.00017309 |   0.0 |  0.00
Modify  | 0.75737    | 0.75737    | 0.75737    |   0.0 |  1.49
Other   |            | 0.2899     |            |       |  0.57

Nlocal:    19652 ave 19652 max 19652 min
Histogram: 1 0 0 0 0 0 0 0 0 0
Nghost:    15665 ave 15665 max 15665 min
Histogram: 1 0 0 0 0 0 0 0 0 0
Neighs:    1.01739e+06 ave 1.01739e+06 max 1.01739e+06 min
Histogram: 1 0 0 0 0 0 0 0 0 0

Total # of neighbors = 1017393
Ave neighs/atom = 51.7705
Neighbor list builds = 495
Dangerous builds not checked
Setting up Verlet run ...
  Unit style    : metal
  Current step  : 48495
  Time step     : 0.001
Per MPI rank memory allocation (min/avg/max) = 18.19 | 18.19 | 18.19 Mbytes
Step Temp Press TotEng PotEng Enthalpy Volume 
   48495    2003.9648    480.61135   -108880.05    -113970.3    -108734.5     485183.5 
   49000    2014.6107    248.64092   -108940.67   -114057.96   -108865.38     485109.2 
Loop time of 51.8936 on 1 procs for 505 steps with 19652 atoms

Performance: 0.841 ns/day, 28.544 hours/ns, 9.731 timesteps/s
99.1% CPU use with 1 MPI tasks x no OpenMP threads

MPI task timing breakdown:
Section |  min time  |  avg time  |  max time  |%varavg| %total
---------------------------------------------------------------
Pair    | 27.244     | 27.244     | 27.244     |   0.0 | 52.50
Neigh   | 23.025     | 23.025     | 23.025     |   0.0 | 44.37
Comm    | 0.5075     | 0.5075     | 0.5075     |   0.0 |  0.98
Output  | 0.040844   | 0.040844   | 0.040844   |   0.0 |  0.08
Modify  | 0.77734    | 0.77734    | 0.77734    |   0.0 |  1.50
Other   |            | 0.2986     |            |       |  0.58

Nlocal:    19652 ave 19652 max 19652 min
Histogram: 1 0 0 0 0 0 0 0 0 0
Nghost:    15722 ave 15722 max 15722 min
Histogram: 1 0 0 0 0 0 0 0 0 0
Neighs:    1.01809e+06 ave 1.01809e+06 max 1.01809e+06 min
Histogram: 1 0 0 0 0 0 0 0 0 0

Total # of neighbors = 1018091
Ave neighs/atom = 51.806
Neighbor list builds = 505
Dangerous builds not checked
Setting up Verlet run ...
  Unit style    : metal
  Current step  : 49000
  Time step     : 0.001
Per MPI rank memory allocation (min/avg/max) = 18.19 | 18.19 | 18.19 Mbytes
Step Temp Press TotEng PotEng Enthalpy Volume 
   49000    2014.6107    248.64092   -108940.67   -114057.96   -108865.38     485109.2 
   49495    1972.9804   -65.919278   -109174.43   -114185.98   -109194.37    484755.01 
Loop time of 51.8922 on 1 procs for 495 steps with 19652 atoms

Performance: 0.824 ns/day, 29.120 hours/ns, 9.539 timesteps/s
97.9% CPU use with 1 MPI tasks x no OpenMP threads

MPI task timing breakdown:
Section |  min time  |  avg time  |  max time  |%varavg| %total
---------------------------------------------------------------
Pair    | 27.32      | 27.32      | 27.32      |   0.0 | 52.65
Neigh   | 22.969     | 22.969     | 22.969     |   0.0 | 44.26
Comm    | 0.52986    | 0.52986    | 0.52986    |   0.0 |  1.02
Output  | 0.00018096 | 0.00018096 | 0.00018096 |   0.0 |  0.00
Modify  | 0.77417    | 0.77417    | 0.77417    |   0.0 |  1.49
Other   |            | 0.2989     |            |       |  0.58

Nlocal:    19652 ave 19652 max 19652 min
Histogram: 1 0 0 0 0 0 0 0 0 0
Nghost:    15675 ave 15675 max 15675 min
Histogram: 1 0 0 0 0 0 0 0 0 0
Neighs:    1.01947e+06 ave 1.01947e+06 max 1.01947e+06 min
Histogram: 1 0 0 0 0 0 0 0 0 0

Total # of neighbors = 1019467
Ave neighs/atom = 51.876
Neighbor list builds = 495
Dangerous builds not checked
Setting up Verlet run ...
  Unit style    : metal
  Current step  : 49495
  Time step     : 0.001
Per MPI rank memory allocation (min/avg/max) = 18.19 | 18.19 | 18.19 Mbytes
Step Temp Press TotEng PotEng Enthalpy Volume 
   49495    1972.9804   -65.919278   -109174.43   -114185.98   -109194.37    484755.01 
   50000    1943.3122    5.1301204   -109341.59   -114277.78   -109340.04    484492.66 
Loop time of 53.0587 on 1 procs for 505 steps with 19652 atoms

Performance: 0.822 ns/day, 29.185 hours/ns, 9.518 timesteps/s
98.1% CPU use with 1 MPI tasks x no OpenMP threads

MPI task timing breakdown:
Section |  min time  |  avg time  |  max time  |%varavg| %total
---------------------------------------------------------------
Pair    | 27.931     | 27.931     | 27.931     |   0.0 | 52.64
Neigh   | 23.457     | 23.457     | 23.457     |   0.0 | 44.21
Comm    | 0.53709    | 0.53709    | 0.53709    |   0.0 |  1.01
Output  | 0.040969   | 0.040969   | 0.040969   |   0.0 |  0.08
Modify  | 0.78744    | 0.78744    | 0.78744    |   0.0 |  1.48
Other   |            | 0.305      |            |       |  0.57

Nlocal:    19652 ave 19652 max 19652 min
Histogram: 1 0 0 0 0 0 0 0 0 0
Nghost:    15729 ave 15729 max 15729 min
Histogram: 1 0 0 0 0 0 0 0 0 0
Neighs:    1.01982e+06 ave 1.01982e+06 max 1.01982e+06 min
Histogram: 1 0 0 0 0 0 0 0 0 0

Total # of neighbors = 1019816
Ave neighs/atom = 51.8938
Neighbor list builds = 505
Dangerous builds not checked
Setting up Verlet run ...
  Unit style    : metal
  Current step  : 50000
  Time step     : 0.001
Per MPI rank memory allocation (min/avg/max) = 18.19 | 18.19 | 18.19 Mbytes
Step Temp Press TotEng PotEng Enthalpy Volume 
   50000    1943.3122    5.1301204   -109341.59   -114277.78   -109340.04    484492.66 
   50495     1909.186    32.485716   -109533.39   -114382.89   -109523.58    483848.56 
Loop time of 51.209 on 1 procs for 495 steps with 19652 atoms

Performance: 0.835 ns/day, 28.737 hours/ns, 9.666 timesteps/s
99.5% CPU use with 1 MPI tasks x no OpenMP threads

MPI task timing breakdown:
Section |  min time  |  avg time  |  max time  |%varavg| %total
---------------------------------------------------------------
Pair    | 26.939     | 26.939     | 26.939     |   0.0 | 52.61
Neigh   | 22.676     | 22.676     | 22.676     |   0.0 | 44.28
Comm    | 0.52524    | 0.52524    | 0.52524    |   0.0 |  1.03
Output  | 0.00016308 | 0.00016308 | 0.00016308 |   0.0 |  0.00
Modify  | 0.76829    | 0.76829    | 0.76829    |   0.0 |  1.50
Other   |            | 0.2999     |            |       |  0.59

Nlocal:    19652 ave 19652 max 19652 min
Histogram: 1 0 0 0 0 0 0 0 0 0
Nghost:    15794 ave 15794 max 15794 min
Histogram: 1 0 0 0 0 0 0 0 0 0
Neighs:    1.02131e+06 ave 1.02131e+06 max 1.02131e+06 min
Histogram: 1 0 0 0 0 0 0 0 0 0

Total # of neighbors = 1021312
Ave neighs/atom = 51.9699
Neighbor list builds = 495
Dangerous builds not checked
Setting up Verlet run ...
  Unit style    : metal
  Current step  : 50495
  Time step     : 0.001
Per MPI rank memory allocation (min/avg/max) = 18.19 | 18.19 | 18.19 Mbytes
Step Temp Press TotEng PotEng Enthalpy Volume 
   50495     1909.186    32.485716   -109533.39   -114382.89   -109523.58    483848.56 
   51000    1916.6914   -514.54652   -109627.95   -114496.52   -109783.34    483832.19 
Loop time of 52.9076 on 1 procs for 505 steps with 19652 atoms

Performance: 0.825 ns/day, 29.102 hours/ns, 9.545 timesteps/s
99.5% CPU use with 1 MPI tasks x no OpenMP threads

MPI task timing breakdown:
Section |  min time  |  avg time  |  max time  |%varavg| %total
---------------------------------------------------------------
Pair    | 27.975     | 27.975     | 27.975     |   0.0 | 52.88
Neigh   | 23.215     | 23.215     | 23.215     |   0.0 | 43.88
Comm    | 0.54343    | 0.54343    | 0.54343    |   0.0 |  1.03
Output  | 0.041373   | 0.041373   | 0.041373   |   0.0 |  0.08
Modify  | 0.81239    | 0.81239    | 0.81239    |   0.0 |  1.54
Other   |            | 0.32       |            |       |  0.60

Nlocal:    19652 ave 19652 max 19652 min
Histogram: 1 0 0 0 0 0 0 0 0 0
Nghost:    15783 ave 15783 max 15783 min
Histogram: 1 0 0 0 0 0 0 0 0 0
Neighs:    1.0211e+06 ave 1.0211e+06 max 1.0211e+06 min
Histogram: 1 0 0 0 0 0 0 0 0 0

Total # of neighbors = 1021096
Ave neighs/atom = 51.9589
Neighbor list builds = 505
Dangerous builds not checked
Setting up Verlet run ...
  Unit style    : metal
  Current step  : 51000
  Time step     : 0.001
Per MPI rank memory allocation (min/avg/max) = 18.19 | 18.19 | 18.19 Mbytes
Step Temp Press TotEng PotEng Enthalpy Volume 
   51000    1916.6914   -514.54652   -109627.95   -114496.52   -109783.34    483832.19 
   51495    1856.2188     109.8816   -109879.39   -114594.35   -109846.26    483081.43 
Loop time of 51.6991 on 1 procs for 495 steps with 19652 atoms

Performance: 0.827 ns/day, 29.012 hours/ns, 9.575 timesteps/s
99.8% CPU use with 1 MPI tasks x no OpenMP threads

MPI task timing breakdown:
Section |  min time  |  avg time  |  max time  |%varavg| %total
---------------------------------------------------------------
Pair    | 27.359     | 27.359     | 27.359     |   0.0 | 52.92
Neigh   | 22.719     | 22.719     | 22.719     |   0.0 | 43.95
Comm    | 0.52551    | 0.52551    | 0.52551    |   0.0 |  1.02
Output  | 0.0002079  | 0.0002079  | 0.0002079  |   0.0 |  0.00
Modify  | 0.78184    | 0.78184    | 0.78184    |   0.0 |  1.51
Other   |            | 0.3136     |            |       |  0.61

Nlocal:    19652 ave 19652 max 19652 min
Histogram: 1 0 0 0 0 0 0 0 0 0
Nghost:    15826 ave 15826 max 15826 min
Histogram: 1 0 0 0 0 0 0 0 0 0
Neighs:    1.02347e+06 ave 1.02347e+06 max 1.02347e+06 min
Histogram: 1 0 0 0 0 0 0 0 0 0

Total # of neighbors = 1023469
Ave neighs/atom = 52.0796
Neighbor list builds = 495
Dangerous builds not checked
Setting up Verlet run ...
  Unit style    : metal
  Current step  : 51495
  Time step     : 0.001
Per MPI rank memory allocation (min/avg/max) = 18.19 | 18.19 | 18.19 Mbytes
Step Temp Press TotEng PotEng Enthalpy Volume 
   51495    1856.2188     109.8816   -109879.39   -114594.35   -109846.26    483081.43 
   52000    1864.5638    -979.0236   -109934.23    -114670.4   -110229.65    483445.81 
Loop time of 52.5382 on 1 procs for 505 steps with 19652 atoms

Performance: 0.830 ns/day, 28.899 hours/ns, 9.612 timesteps/s
98.9% CPU use with 1 MPI tasks x no OpenMP threads

MPI task timing breakdown:
Section |  min time  |  avg time  |  max time  |%varavg| %total
---------------------------------------------------------------
Pair    | 27.726     | 27.726     | 27.726     |   0.0 | 52.77
Neigh   | 23.163     | 23.163     | 23.163     |   0.0 | 44.09
Comm    | 0.52469    | 0.52469    | 0.52469    |   0.0 |  1.00
Output  | 0.040862   | 0.040862   | 0.040862   |   0.0 |  0.08
Modify  | 0.77895    | 0.77895    | 0.77895    |   0.0 |  1.48
Other   |            | 0.3045     |            |       |  0.58

Nlocal:    19652 ave 19652 max 19652 min
Histogram: 1 0 0 0 0 0 0 0 0 0
Nghost:    15678 ave 15678 max 15678 min
Histogram: 1 0 0 0 0 0 0 0 0 0
Neighs:    1.02184e+06 ave 1.02184e+06 max 1.02184e+06 min
Histogram: 1 0 0 0 0 0 0 0 0 0

Total # of neighbors = 1021842
Ave neighs/atom = 51.9968
Neighbor list builds = 505
Dangerous builds not checked
Setting up Verlet run ...
  Unit style    : metal
  Current step  : 52000
  Time step     : 0.001
Per MPI rank memory allocation (min/avg/max) = 18.19 | 18.19 | 18.19 Mbytes
Step Temp Press TotEng PotEng Enthalpy Volume 
   52000    1864.5638    -979.0236   -109934.23    -114670.4   -110229.65    483445.81 
   52495    1825.3113   -1010.2846   -110170.79   -114807.25   -110475.29    482898.04 
Loop time of 51.4619 on 1 procs for 495 steps with 19652 atoms

Performance: 0.831 ns/day, 28.879 hours/ns, 9.619 timesteps/s
98.6% CPU use with 1 MPI tasks x no OpenMP threads

MPI task timing breakdown:
Section |  min time  |  avg time  |  max time  |%varavg| %total
---------------------------------------------------------------
Pair    | 27.141     | 27.141     | 27.141     |   0.0 | 52.74
Neigh   | 22.768     | 22.768     | 22.768     |   0.0 | 44.24
Comm    | 0.50205    | 0.50205    | 0.50205    |   0.0 |  0.98
Output  | 0.00016809 | 0.00016809 | 0.00016809 |   0.0 |  0.00
Modify  | 0.75098    | 0.75098    | 0.75098    |   0.0 |  1.46
Other   |            | 0.2993     |            |       |  0.58

Nlocal:    19652 ave 19652 max 19652 min
Histogram: 1 0 0 0 0 0 0 0 0 0
Nghost:    15741 ave 15741 max 15741 min
Histogram: 1 0 0 0 0 0 0 0 0 0
Neighs:    1.02401e+06 ave 1.02401e+06 max 1.02401e+06 min
Histogram: 1 0 0 0 0 0 0 0 0 0

Total # of neighbors = 1024011
Ave neighs/atom = 52.1072
Neighbor list builds = 495
Dangerous builds not checked
Setting up Verlet run ...
  Unit style    : metal
  Current step  : 52495
  Time step     : 0.001
Per MPI rank memory allocation (min/avg/max) = 18.19 | 18.19 | 18.19 Mbytes
Step Temp Press TotEng PotEng Enthalpy Volume 
   52495    1825.3113   -1010.2846   -110170.79   -114807.25   -110475.29    482898.04 
   53000    1786.6857    -1257.954   -110372.27   -114910.62    -110751.2    482616.44 
Loop time of 51.8085 on 1 procs for 505 steps with 19652 atoms

Performance: 0.842 ns/day, 28.498 hours/ns, 9.747 timesteps/s
99.8% CPU use with 1 MPI tasks x no OpenMP threads

MPI task timing breakdown:
Section |  min time  |  avg time  |  max time  |%varavg| %total
---------------------------------------------------------------
Pair    | 27.32      | 27.32      | 27.32      |   0.0 | 52.73
Neigh   | 22.886     | 22.886     | 22.886     |   0.0 | 44.17
Comm    | 0.50433    | 0.50433    | 0.50433    |   0.0 |  0.97
Output  | 0.040962   | 0.040962   | 0.040962   |   0.0 |  0.08
Modify  | 0.76138    | 0.76138    | 0.76138    |   0.0 |  1.47
Other   |            | 0.2961     |            |       |  0.57

Nlocal:    19652 ave 19652 max 19652 min
Histogram: 1 0 0 0 0 0 0 0 0 0
Nghost:    15760 ave 15760 max 15760 min
Histogram: 1 0 0 0 0 0 0 0 0 0
Neighs:    1.02496e+06 ave 1.02496e+06 max 1.02496e+06 min
Histogram: 1 0 0 0 0 0 0 0 0 0

Total # of neighbors = 1024961
Ave neighs/atom = 52.1556
Neighbor list builds = 505
Dangerous builds not checked
Setting up Verlet run ...
  Unit style    : metal
  Current step  : 53000
  Time step     : 0.001
Per MPI rank memory allocation (min/avg/max) = 18.19 | 18.19 | 18.19 Mbytes
Step Temp Press TotEng PotEng Enthalpy Volume 
   53000    1786.6857    -1257.954   -110372.27   -114910.62    -110751.2    482616.44 
   53495    1770.8745   -1214.5092   -110513.38   -115011.56   -110878.87    482160.88 
Loop time of 51.3207 on 1 procs for 495 steps with 19652 atoms

Performance: 0.833 ns/day, 28.799 hours/ns, 9.645 timesteps/s
99.5% CPU use with 1 MPI tasks x no OpenMP threads

MPI task timing breakdown:
Section |  min time  |  avg time  |  max time  |%varavg| %total
---------------------------------------------------------------
Pair    | 27.053     | 27.053     | 27.053     |   0.0 | 52.71
Neigh   | 22.682     | 22.682     | 22.682     |   0.0 | 44.20
Comm    | 0.52876    | 0.52876    | 0.52876    |   0.0 |  1.03
Output  | 0.00016999 | 0.00016999 | 0.00016999 |   0.0 |  0.00
Modify  | 0.75793    | 0.75793    | 0.75793    |   0.0 |  1.48
Other   |            | 0.2989     |            |       |  0.58

Nlocal:    19652 ave 19652 max 19652 min
Histogram: 1 0 0 0 0 0 0 0 0 0
Nghost:    15747 ave 15747 max 15747 min
Histogram: 1 0 0 0 0 0 0 0 0 0
Neighs:    1.02582e+06 ave 1.02582e+06 max 1.02582e+06 min
Histogram: 1 0 0 0 0 0 0 0 0 0

Total # of neighbors = 1025823
Ave neighs/atom = 52.1994
Neighbor list builds = 495
Dangerous builds not checked
Setting up Verlet run ...
  Unit style    : metal
  Current step  : 53495
  Time step     : 0.001
Per MPI rank memory allocation (min/avg/max) = 18.19 | 18.19 | 18.19 Mbytes
Step Temp Press TotEng PotEng Enthalpy Volume 
   53495    1770.8745   -1214.5092   -110513.38   -115011.56   -110878.87    482160.88 
   54000    1751.4371   -592.43284      -110681   -115129.81   -110858.98    481343.39 
Loop time of 52.843 on 1 procs for 505 steps with 19652 atoms

Performance: 0.826 ns/day, 29.067 hours/ns, 9.557 timesteps/s
99.4% CPU use with 1 MPI tasks x no OpenMP threads

MPI task timing breakdown:
Section |  min time  |  avg time  |  max time  |%varavg| %total
---------------------------------------------------------------
Pair    | 27.822     | 27.822     | 27.822     |   0.0 | 52.65
Neigh   | 23.283     | 23.283     | 23.283     |   0.0 | 44.06
Comm    | 0.58903    | 0.58903    | 0.58903    |   0.0 |  1.11
Output  | 0.042375   | 0.042375   | 0.042375   |   0.0 |  0.08
Modify  | 0.79228    | 0.79228    | 0.79228    |   0.0 |  1.50
Other   |            | 0.3153     |            |       |  0.60

Nlocal:    19652 ave 19652 max 19652 min
Histogram: 1 0 0 0 0 0 0 0 0 0
Nghost:    15795 ave 15795 max 15795 min
Histogram: 1 0 0 0 0 0 0 0 0 0
Neighs:    1.02806e+06 ave 1.02806e+06 max 1.02806e+06 min
Histogram: 1 0 0 0 0 0 0 0 0 0

Total # of neighbors = 1028059
Ave neighs/atom = 52.3132
Neighbor list builds = 505
Dangerous builds not checked
Setting up Verlet run ...
  Unit style    : metal
  Current step  : 54000
  Time step     : 0.001
Per MPI rank memory allocation (min/avg/max) = 18.19 | 18.19 | 18.19 Mbytes
Step Temp Press TotEng PotEng Enthalpy Volume 
   54000    1751.4371   -592.43284      -110681   -115129.81   -110858.98    481343.39 
   54495    1725.5076   -730.81369    -110863.3   -115246.25   -111082.68    480945.07 
Loop time of 51.227 on 1 procs for 495 steps with 19652 atoms

Performance: 0.835 ns/day, 28.747 hours/ns, 9.663 timesteps/s
99.5% CPU use with 1 MPI tasks x no OpenMP threads

MPI task timing breakdown:
Section |  min time  |  avg time  |  max time  |%varavg| %total
---------------------------------------------------------------
Pair    | 27.009     | 27.009     | 27.009     |   0.0 | 52.72
Neigh   | 22.617     | 22.617     | 22.617     |   0.0 | 44.15
Comm    | 0.52427    | 0.52427    | 0.52427    |   0.0 |  1.02
Output  | 0.00017309 | 0.00017309 | 0.00017309 |   0.0 |  0.00
Modify  | 0.77141    | 0.77141    | 0.77141    |   0.0 |  1.51
Other   |            | 0.3043     |            |       |  0.59

Nlocal:    19652 ave 19652 max 19652 min
Histogram: 1 0 0 0 0 0 0 0 0 0
Nghost:    15731 ave 15731 max 15731 min
Histogram: 1 0 0 0 0 0 0 0 0 0
Neighs:    1.02924e+06 ave 1.02924e+06 max 1.02924e+06 min
Histogram: 1 0 0 0 0 0 0 0 0 0

Total # of neighbors = 1029235
Ave neighs/atom = 52.373
Neighbor list builds = 495
Dangerous builds not checked
Setting up Verlet run ...
  Unit style    : metal
  Current step  : 54495
  Time step     : 0.001
Per MPI rank memory allocation (min/avg/max) = 18.19 | 18.19 | 18.19 Mbytes
Step Temp Press TotEng PotEng Enthalpy Volume 
   54495    1725.5076   -730.81369    -110863.3   -115246.25   -111082.68    480945.07 
   55000    1710.2626   -450.76678   -110975.88    -115320.1   -111111.13    480716.72 
Loop time of 51.9727 on 1 procs for 505 steps with 19652 atoms

Performance: 0.840 ns/day, 28.588 hours/ns, 9.717 timesteps/s
99.6% CPU use with 1 MPI tasks x no OpenMP threads

MPI task timing breakdown:
Section |  min time  |  avg time  |  max time  |%varavg| %total
---------------------------------------------------------------
Pair    | 27.493     | 27.493     | 27.493     |   0.0 | 52.90
Neigh   | 22.875     | 22.875     | 22.875     |   0.0 | 44.01
Comm    | 0.50439    | 0.50439    | 0.50439    |   0.0 |  0.97
Output  | 0.042599   | 0.042599   | 0.042599   |   0.0 |  0.08
Modify  | 0.76117    | 0.76117    | 0.76117    |   0.0 |  1.46
Other   |            | 0.2973     |            |       |  0.57

Nlocal:    19652 ave 19652 max 19652 min
Histogram: 1 0 0 0 0 0 0 0 0 0
Nghost:    15782 ave 15782 max 15782 min
Histogram: 1 0 0 0 0 0 0 0 0 0
Neighs:    1.02981e+06 ave 1.02981e+06 max 1.02981e+06 min
Histogram: 1 0 0 0 0 0 0 0 0 0

Total # of neighbors = 1029808
Ave neighs/atom = 52.4022
Neighbor list builds = 505
Dangerous builds not checked
Setting up Verlet run ...
  Unit style    : metal
  Current step  : 55000
  Time step     : 0.001
Per MPI rank memory allocation (min/avg/max) = 18.19 | 18.19 | 18.19 Mbytes
Step Temp Press TotEng PotEng Enthalpy Volume 
   55000    1710.2626   -450.76678   -110975.88    -115320.1   -111111.13    480716.72 
   55495     1657.793   -327.68935   -111241.16    -115452.1   -111339.32    479956.72 
Loop time of 50.9998 on 1 procs for 495 steps with 19652 atoms

Performance: 0.839 ns/day, 28.619 hours/ns, 9.706 timesteps/s
99.4% CPU use with 1 MPI tasks x no OpenMP threads

MPI task timing breakdown:
Section |  min time  |  avg time  |  max time  |%varavg| %total
---------------------------------------------------------------
Pair    | 27.02      | 27.02      | 27.02      |   0.0 | 52.98
Neigh   | 22.449     | 22.449     | 22.449     |   0.0 | 44.02
Comm    | 0.49265    | 0.49265    | 0.49265    |   0.0 |  0.97
Output  | 0.00017214 | 0.00017214 | 0.00017214 |   0.0 |  0.00
Modify  | 0.74708    | 0.74708    | 0.74708    |   0.0 |  1.46
Other   |            | 0.2909     |            |       |  0.57

Nlocal:    19652 ave 19652 max 19652 min
Histogram: 1 0 0 0 0 0 0 0 0 0
Nghost:    15807 ave 15807 max 15807 min
Histogram: 1 0 0 0 0 0 0 0 0 0
Neighs:    1.03206e+06 ave 1.03206e+06 max 1.03206e+06 min
Histogram: 1 0 0 0 0 0 0 0 0 0

Total # of neighbors = 1032058
Ave neighs/atom = 52.5167
Neighbor list builds = 495
Dangerous builds not checked
Setting up Verlet run ...
  Unit style    : metal
  Current step  : 55495
  Time step     : 0.001
Per MPI rank memory allocation (min/avg/max) = 18.19 | 18.19 | 18.19 Mbytes
Step Temp Press TotEng PotEng Enthalpy Volume 
   55495     1657.793   -327.68935   -111241.16    -115452.1   -111339.32    479956.72 
   56000    1648.6781   -388.06549   -111367.05   -115554.84    -111483.2    479548.71 
Loop time of 52.0381 on 1 procs for 505 steps with 19652 atoms

Performance: 0.838 ns/day, 28.624 hours/ns, 9.704 timesteps/s
99.5% CPU use with 1 MPI tasks x no OpenMP threads

MPI task timing breakdown:
Section |  min time  |  avg time  |  max time  |%varavg| %total
---------------------------------------------------------------
Pair    | 27.558     | 27.558     | 27.558     |   0.0 | 52.96
Neigh   | 22.881     | 22.881     | 22.881     |   0.0 | 43.97
Comm    | 0.50172    | 0.50172    | 0.50172    |   0.0 |  0.96
Output  | 0.040933   | 0.040933   | 0.040933   |   0.0 |  0.08
Modify  | 0.75951    | 0.75951    | 0.75951    |   0.0 |  1.46
Other   |            | 0.2965     |            |       |  0.57

Nlocal:    19652 ave 19652 max 19652 min
Histogram: 1 0 0 0 0 0 0 0 0 0
Nghost:    15844 ave 15844 max 15844 min
Histogram: 1 0 0 0 0 0 0 0 0 0
Neighs:    1.03266e+06 ave 1.03266e+06 max 1.03266e+06 min
Histogram: 1 0 0 0 0 0 0 0 0 0

Total # of neighbors = 1032657
Ave neighs/atom = 52.5472
Neighbor list builds = 505
Dangerous builds not checked
Setting up Verlet run ...
  Unit style    : metal
  Current step  : 56000
  Time step     : 0.001
Per MPI rank memory allocation (min/avg/max) = 18.19 | 18.19 | 18.19 Mbytes
Step Temp Press TotEng PotEng Enthalpy Volume 
   56000    1648.6781   -388.06549   -111367.05   -115554.84    -111483.2    479548.71 
   56495    1603.6595    91.754382   -111560.71   -115634.15   -111533.28    478939.57 
Loop time of 50.9249 on 1 procs for 495 steps with 19652 atoms

Performance: 0.840 ns/day, 28.577 hours/ns, 9.720 timesteps/s
99.6% CPU use with 1 MPI tasks x no OpenMP threads

MPI task timing breakdown:
Section |  min time  |  avg time  |  max time  |%varavg| %total
---------------------------------------------------------------
Pair    | 27.031     | 27.031     | 27.031     |   0.0 | 53.08
Neigh   | 22.369     | 22.369     | 22.369     |   0.0 | 43.93
Comm    | 0.49       | 0.49       | 0.49       |   0.0 |  0.96
Output  | 0.00019789 | 0.00019789 | 0.00019789 |   0.0 |  0.00
Modify  | 0.74394    | 0.74394    | 0.74394    |   0.0 |  1.46
Other   |            | 0.2907     |            |       |  0.57

Nlocal:    19652 ave 19652 max 19652 min
Histogram: 1 0 0 0 0 0 0 0 0 0
Nghost:    15770 ave 15770 max 15770 min
Histogram: 1 0 0 0 0 0 0 0 0 0
Neighs:    1.03476e+06 ave 1.03476e+06 max 1.03476e+06 min
Histogram: 1 0 0 0 0 0 0 0 0 0

Total # of neighbors = 1034765
Ave neighs/atom = 52.6544
Neighbor list builds = 495
Dangerous builds not checked
Setting up Verlet run ...
  Unit style    : metal
  Current step  : 56495
  Time step     : 0.001
Per MPI rank memory allocation (min/avg/max) = 18.19 | 18.19 | 18.19 Mbytes
Step Temp Press TotEng PotEng Enthalpy Volume 
   56495    1603.6595    91.754382   -111560.71   -115634.15   -111533.28    478939.57 
   57000    1602.2979    470.27108   -111683.56   -115753.55   -111543.14    478426.07 
Loop time of 53.0157 on 1 procs for 505 steps with 19652 atoms

Performance: 0.823 ns/day, 29.162 hours/ns, 9.525 timesteps/s
99.4% CPU use with 1 MPI tasks x no OpenMP threads

MPI task timing breakdown:
Section |  min time  |  avg time  |  max time  |%varavg| %total
---------------------------------------------------------------
Pair    | 27.931     | 27.931     | 27.931     |   0.0 | 52.68
Neigh   | 23.306     | 23.306     | 23.306     |   0.0 | 43.96
Comm    | 0.6014     | 0.6014     | 0.6014     |   0.0 |  1.13
Output  | 0.043866   | 0.043866   | 0.043866   |   0.0 |  0.08
Modify  | 0.80667    | 0.80667    | 0.80667    |   0.0 |  1.52
Other   |            | 0.3265     |            |       |  0.62

Nlocal:    19652 ave 19652 max 19652 min
Histogram: 1 0 0 0 0 0 0 0 0 0
Nghost:    15784 ave 15784 max 15784 min
Histogram: 1 0 0 0 0 0 0 0 0 0
Neighs:    1.03621e+06 ave 1.03621e+06 max 1.03621e+06 min
Histogram: 1 0 0 0 0 0 0 0 0 0

Total # of neighbors = 1036214
Ave neighs/atom = 52.7282
Neighbor list builds = 505
Dangerous builds not checked
Setting up Verlet run ...
  Unit style    : metal
  Current step  : 57000
  Time step     : 0.001
Per MPI rank memory allocation (min/avg/max) = 18.19 | 18.19 | 18.19 Mbytes
Step Temp Press TotEng PotEng Enthalpy Volume 
   57000    1602.2979    470.27108   -111683.56   -115753.55   -111543.14    478426.07 
   57495    1570.8901   -515.85285   -111871.31   -115861.51   -112025.35    478436.74 
Loop time of 52.2421 on 1 procs for 495 steps with 19652 atoms

Performance: 0.819 ns/day, 29.317 hours/ns, 9.475 timesteps/s
99.0% CPU use with 1 MPI tasks x no OpenMP threads

MPI task timing breakdown:
Section |  min time  |  avg time  |  max time  |%varavg| %total
---------------------------------------------------------------
Pair    | 27.613     | 27.613     | 27.613     |   0.0 | 52.86
Neigh   | 22.9       | 22.9       | 22.9       |   0.0 | 43.83
Comm    | 0.61129    | 0.61129    | 0.61129    |   0.0 |  1.17
Output  | 0.000175   | 0.000175   | 0.000175   |   0.0 |  0.00
Modify  | 0.8036     | 0.8036     | 0.8036     |   0.0 |  1.54
Other   |            | 0.3142     |            |       |  0.60

Nlocal:    19652 ave 19652 max 19652 min
Histogram: 1 0 0 0 0 0 0 0 0 0
Nghost:    15799 ave 15799 max 15799 min
Histogram: 1 0 0 0 0 0 0 0 0 0
Neighs:    1.03617e+06 ave 1.03617e+06 max 1.03617e+06 min
Histogram: 1 0 0 0 0 0 0 0 0 0

Total # of neighbors = 1036173
Ave neighs/atom = 52.7261
Neighbor list builds = 495
Dangerous builds not checked
Setting up Verlet run ...
  Unit style    : metal
  Current step  : 57495
  Time step     : 0.001
Per MPI rank memory allocation (min/avg/max) = 18.19 | 18.19 | 18.19 Mbytes
Step Temp Press TotEng PotEng Enthalpy Volume 
   57495    1570.8901   -515.85285   -111871.31   -115861.51   -112025.35    478436.74 
   58000    1541.7566    600.98435   -112079.57   -115995.78    -111900.5    477391.72 
Loop time of 53.1274 on 1 procs for 505 steps with 19652 atoms

Performance: 0.821 ns/day, 29.223 hours/ns, 9.505 timesteps/s
99.6% CPU use with 1 MPI tasks x no OpenMP threads

MPI task timing breakdown:
Section |  min time  |  avg time  |  max time  |%varavg| %total
---------------------------------------------------------------
Pair    | 28.072     | 28.072     | 28.072     |   0.0 | 52.84
Neigh   | 23.251     | 23.251     | 23.251     |   0.0 | 43.76
Comm    | 0.62296    | 0.62296    | 0.62296    |   0.0 |  1.17
Output  | 0.043004   | 0.043004   | 0.043004   |   0.0 |  0.08
Modify  | 0.81922    | 0.81922    | 0.81922    |   0.0 |  1.54
Other   |            | 0.3193     |            |       |  0.60

Nlocal:    19652 ave 19652 max 19652 min
Histogram: 1 0 0 0 0 0 0 0 0 0
Nghost:    15830 ave 15830 max 15830 min
Histogram: 1 0 0 0 0 0 0 0 0 0
Neighs:    1.03917e+06 ave 1.03917e+06 max 1.03917e+06 min
Histogram: 1 0 0 0 0 0 0 0 0 0

Total # of neighbors = 1039169
Ave neighs/atom = 52.8785
Neighbor list builds = 505
Dangerous builds not checked
Setting up Verlet run ...
  Unit style    : metal
  Current step  : 58000
  Time step     : 0.001
Per MPI rank memory allocation (min/avg/max) = 18.19 | 18.19 | 18.19 Mbytes
Step Temp Press TotEng PotEng Enthalpy Volume 
   58000    1541.7566    600.98435   -112079.57   -115995.78    -111900.5    477391.72 
   58495    1533.3225    262.19667   -112253.39   -116148.17   -112175.32     477041.4 
Loop time of 52.932 on 1 procs for 495 steps with 19652 atoms

Performance: 0.808 ns/day, 29.704 hours/ns, 9.352 timesteps/s
97.6% CPU use with 1 MPI tasks x no OpenMP threads

MPI task timing breakdown:
Section |  min time  |  avg time  |  max time  |%varavg| %total
---------------------------------------------------------------
Pair    | 27.953     | 27.953     | 27.953     |   0.0 | 52.81
Neigh   | 23.23      | 23.23      | 23.23      |   0.0 | 43.89
Comm    | 0.60908    | 0.60908    | 0.60908    |   0.0 |  1.15
Output  | 0.0001688  | 0.0001688  | 0.0001688  |   0.0 |  0.00
Modify  | 0.82345    | 0.82345    | 0.82345    |   0.0 |  1.56
Other   |            | 0.3161     |            |       |  0.60

Nlocal:    19652 ave 19652 max 19652 min
Histogram: 1 0 0 0 0 0 0 0 0 0
Nghost:    15892 ave 15892 max 15892 min
Histogram: 1 0 0 0 0 0 0 0 0 0
Neighs:    1.03934e+06 ave 1.03934e+06 max 1.03934e+06 min
Histogram: 1 0 0 0 0 0 0 0 0 0

Total # of neighbors = 1039337
Ave neighs/atom = 52.8871
Neighbor list builds = 495
Dangerous builds not checked
Setting up Verlet run ...
  Unit style    : metal
  Current step  : 58495
  Time step     : 0.001
Per MPI rank memory allocation (min/avg/max) = 18.19 | 18.19 | 18.19 Mbytes
Step Temp Press TotEng PotEng Enthalpy Volume 
   58495    1533.3225    262.19667   -112253.39   -116148.17   -112175.32     477041.4 
   59000    1494.6031   -128.54432   -112398.73   -116195.16   -112437.02    477191.22 
Loop time of 53.3471 on 1 procs for 505 steps with 19652 atoms

Performance: 0.818 ns/day, 29.344 hours/ns, 9.466 timesteps/s
97.2% CPU use with 1 MPI tasks x no OpenMP threads

MPI task timing breakdown:
Section |  min time  |  avg time  |  max time  |%varavg| %total
---------------------------------------------------------------
Pair    | 28.246     | 28.246     | 28.246     |   0.0 | 52.95
Neigh   | 23.466     | 23.466     | 23.466     |   0.0 | 43.99
Comm    | 0.51491    | 0.51491    | 0.51491    |   0.0 |  0.97
Output  | 0.041093   | 0.041093   | 0.041093   |   0.0 |  0.08
Modify  | 0.78171    | 0.78171    | 0.78171    |   0.0 |  1.47
Other   |            | 0.2978     |            |       |  0.56

Nlocal:    19652 ave 19652 max 19652 min
Histogram: 1 0 0 0 0 0 0 0 0 0
Nghost:    15853 ave 15853 max 15853 min
Histogram: 1 0 0 0 0 0 0 0 0 0
Neighs:    1.03963e+06 ave 1.03963e+06 max 1.03963e+06 min
Histogram: 1 0 0 0 0 0 0 0 0 0

Total # of neighbors = 1039633
Ave neighs/atom = 52.9021
Neighbor list builds = 505
Dangerous builds not checked
Setting up Verlet run ...
  Unit style    : metal
  Current step  : 59000
  Time step     : 0.001
Per MPI rank memory allocation (min/avg/max) = 18.19 | 18.19 | 18.19 Mbytes
Step Temp Press TotEng PotEng Enthalpy Volume 
   59000    1494.6031   -128.54432   -112398.73   -116195.16   -112437.02    477191.22 
   59495    1456.6816    164.68612   -112597.36   -116297.47   -112548.39    476451.63 
Loop time of 51.0409 on 1 procs for 495 steps with 19652 atoms

Performance: 0.838 ns/day, 28.642 hours/ns, 9.698 timesteps/s
99.5% CPU use with 1 MPI tasks x no OpenMP threads

MPI task timing breakdown:
Section |  min time  |  avg time  |  max time  |%varavg| %total
---------------------------------------------------------------
Pair    | 27.112     | 27.112     | 27.112     |   0.0 | 53.12
Neigh   | 22.394     | 22.394     | 22.394     |   0.0 | 43.87
Comm    | 0.49609    | 0.49609    | 0.49609    |   0.0 |  0.97
Output  | 0.00016809 | 0.00016809 | 0.00016809 |   0.0 |  0.00
Modify  | 0.74713    | 0.74713    | 0.74713    |   0.0 |  1.46
Other   |            | 0.2909     |            |       |  0.57

Nlocal:    19652 ave 19652 max 19652 min
Histogram: 1 0 0 0 0 0 0 0 0 0
Nghost:    15813 ave 15813 max 15813 min
Histogram: 1 0 0 0 0 0 0 0 0 0
Neighs:    1.04186e+06 ave 1.04186e+06 max 1.04186e+06 min
Histogram: 1 0 0 0 0 0 0 0 0 0

Total # of neighbors = 1041863
Ave neighs/atom = 53.0156
Neighbor list builds = 495
Dangerous builds not checked
Setting up Verlet run ...
  Unit style    : metal
  Current step  : 59495
  Time step     : 0.001
Per MPI rank memory allocation (min/avg/max) = 18.19 | 18.19 | 18.19 Mbytes
Step Temp Press TotEng PotEng Enthalpy Volume 
   59495    1456.6816    164.68612   -112597.36   -116297.47   -112548.39    476451.63 
   60000    1446.7455    -540.7399   -112692.42   -116367.28   -112853.37    476876.91 
Loop time of 52.2899 on 1 procs for 505 steps with 19652 atoms

Performance: 0.834 ns/day, 28.762 hours/ns, 9.658 timesteps/s
99.5% CPU use with 1 MPI tasks x no OpenMP threads

MPI task timing breakdown:
Section |  min time  |  avg time  |  max time  |%varavg| %total
---------------------------------------------------------------
Pair    | 27.736     | 27.736     | 27.736     |   0.0 | 53.04
Neigh   | 22.941     | 22.941     | 22.941     |   0.0 | 43.87
Comm    | 0.51009    | 0.51009    | 0.51009    |   0.0 |  0.98
Output  | 0.040565   | 0.040565   | 0.040565   |   0.0 |  0.08
Modify  | 0.76308    | 0.76308    | 0.76308    |   0.0 |  1.46
Other   |            | 0.2988     |            |       |  0.57

Nlocal:    19652 ave 19652 max 19652 min
Histogram: 1 0 0 0 0 0 0 0 0 0
Nghost:    15854 ave 15854 max 15854 min
Histogram: 1 0 0 0 0 0 0 0 0 0
Neighs:    1.04129e+06 ave 1.04129e+06 max 1.04129e+06 min
Histogram: 1 0 0 0 0 0 0 0 0 0

Total # of neighbors = 1041293
Ave neighs/atom = 52.9866
Neighbor list builds = 505
Dangerous builds not checked
Setting up Verlet run ...
  Unit style    : metal
  Current step  : 60000
  Time step     : 0.001
Per MPI rank memory allocation (min/avg/max) = 18.19 | 18.19 | 18.19 Mbytes
Step Temp Press TotEng PotEng Enthalpy Volume 
   60000    1446.7455    -540.7399   -112692.42   -116367.28   -112853.37    476876.91 
   60495    1414.3408   -88.428557   -112913.02   -116505.57   -112939.29    476013.11 
Loop time of 51.0986 on 1 procs for 495 steps with 19652 atoms

Performance: 0.837 ns/day, 28.675 hours/ns, 9.687 timesteps/s
99.5% CPU use with 1 MPI tasks x no OpenMP threads

MPI task timing breakdown:
Section |  min time  |  avg time  |  max time  |%varavg| %total
---------------------------------------------------------------
Pair    | 27.196     | 27.196     | 27.196     |   0.0 | 53.22
Neigh   | 22.376     | 22.376     | 22.376     |   0.0 | 43.79
Comm    | 0.49168    | 0.49168    | 0.49168    |   0.0 |  0.96
Output  | 0.00016785 | 0.00016785 | 0.00016785 |   0.0 |  0.00
Modify  | 0.74344    | 0.74344    | 0.74344    |   0.0 |  1.45
Other   |            | 0.2915     |            |       |  0.57

Nlocal:    19652 ave 19652 max 19652 min
Histogram: 1 0 0 0 0 0 0 0 0 0
Nghost:    15852 ave 15852 max 15852 min
Histogram: 1 0 0 0 0 0 0 0 0 0
Neighs:    1.04365e+06 ave 1.04365e+06 max 1.04365e+06 min
Histogram: 1 0 0 0 0 0 0 0 0 0

Total # of neighbors = 1043651
Ave neighs/atom = 53.1066
Neighbor list builds = 495
Dangerous builds not checked
Setting up Verlet run ...
  Unit style    : metal
  Current step  : 60495
  Time step     : 0.001
Per MPI rank memory allocation (min/avg/max) = 18.19 | 18.19 | 18.19 Mbytes
Step Temp Press TotEng PotEng Enthalpy Volume 
   60495    1414.3408   -88.428557   -112913.02   -116505.57   -112939.29    476013.11 
   61000    1396.9221   -604.23151   -113054.78   -116603.09   -113234.33    476089.27 
Loop time of 52.2368 on 1 procs for 505 steps with 19652 atoms

Performance: 0.835 ns/day, 28.733 hours/ns, 9.668 timesteps/s
99.3% CPU use with 1 MPI tasks x no OpenMP threads

MPI task timing breakdown:
Section |  min time  |  avg time  |  max time  |%varavg| %total
---------------------------------------------------------------
Pair    | 27.704     | 27.704     | 27.704     |   0.0 | 53.04
Neigh   | 22.931     | 22.931     | 22.931     |   0.0 | 43.90
Comm    | 0.50465    | 0.50465    | 0.50465    |   0.0 |  0.97
Output  | 0.041095   | 0.041095   | 0.041095   |   0.0 |  0.08
Modify  | 0.75937    | 0.75937    | 0.75937    |   0.0 |  1.45
Other   |            | 0.2962     |            |       |  0.57

Nlocal:    19652 ave 19652 max 19652 min
Histogram: 1 0 0 0 0 0 0 0 0 0
Nghost:    15835 ave 15835 max 15835 min
Histogram: 1 0 0 0 0 0 0 0 0 0
Neighs:    1.04359e+06 ave 1.04359e+06 max 1.04359e+06 min
Histogram: 1 0 0 0 0 0 0 0 0 0

Total # of neighbors = 1043594
Ave neighs/atom = 53.1037
Neighbor list builds = 505
Dangerous builds not checked
Setting up Verlet run ...
  Unit style    : metal
  Current step  : 61000
  Time step     : 0.001
Per MPI rank memory allocation (min/avg/max) = 18.19 | 18.19 | 18.19 Mbytes
Step Temp Press TotEng PotEng Enthalpy Volume 
   61000    1396.9221   -604.23151   -113054.78   -116603.09   -113234.33    476089.27 
   61495    1366.9747   -29.897151   -113250.19   -116722.43   -113259.06    475236.84 
Loop time of 51.1571 on 1 procs for 495 steps with 19652 atoms

Performance: 0.836 ns/day, 28.708 hours/ns, 9.676 timesteps/s
99.4% CPU use with 1 MPI tasks x no OpenMP threads

MPI task timing breakdown:
Section |  min time  |  avg time  |  max time  |%varavg| %total
---------------------------------------------------------------
Pair    | 27.241     | 27.241     | 27.241     |   0.0 | 53.25
Neigh   | 22.379     | 22.379     | 22.379     |   0.0 | 43.75
Comm    | 0.49359    | 0.49359    | 0.49359    |   0.0 |  0.96
Output  | 0.00018787 | 0.00018787 | 0.00018787 |   0.0 |  0.00
Modify  | 0.75363    | 0.75363    | 0.75363    |   0.0 |  1.47
Other   |            | 0.2895     |            |       |  0.57

Nlocal:    19652 ave 19652 max 19652 min
Histogram: 1 0 0 0 0 0 0 0 0 0
Nghost:    15805 ave 15805 max 15805 min
Histogram: 1 0 0 0 0 0 0 0 0 0
Neighs:    1.0459e+06 ave 1.0459e+06 max 1.0459e+06 min
Histogram: 1 0 0 0 0 0 0 0 0 0

Total # of neighbors = 1045896
Ave neighs/atom = 53.2208
Neighbor list builds = 495
Dangerous builds not checked
Setting up Verlet run ...
  Unit style    : metal
  Current step  : 61495
  Time step     : 0.001
Per MPI rank memory allocation (min/avg/max) = 18.19 | 18.19 | 18.19 Mbytes
Step Temp Press TotEng PotEng Enthalpy Volume 
   61495    1366.9747   -29.897151   -113250.19   -116722.43   -113259.06    475236.84 
   62000    1351.8512    475.94517   -113355.36   -116789.18   -113214.33    474743.92 
Loop time of 52.1318 on 1 procs for 505 steps with 19652 atoms

Performance: 0.837 ns/day, 28.675 hours/ns, 9.687 timesteps/s
99.5% CPU use with 1 MPI tasks x no OpenMP threads

MPI task timing breakdown:
Section |  min time  |  avg time  |  max time  |%varavg| %total
---------------------------------------------------------------
Pair    | 27.732     | 27.732     | 27.732     |   0.0 | 53.20
Neigh   | 22.788     | 22.788     | 22.788     |   0.0 | 43.71
Comm    | 0.50422    | 0.50422    | 0.50422    |   0.0 |  0.97
Output  | 0.040917   | 0.040917   | 0.040917   |   0.0 |  0.08
Modify  | 0.77011    | 0.77011    | 0.77011    |   0.0 |  1.48
Other   |            | 0.2962     |            |       |  0.57

Nlocal:    19652 ave 19652 max 19652 min
Histogram: 1 0 0 0 0 0 0 0 0 0
Nghost:    15834 ave 15834 max 15834 min
Histogram: 1 0 0 0 0 0 0 0 0 0
Neighs:    1.0475e+06 ave 1.0475e+06 max 1.0475e+06 min
Histogram: 1 0 0 0 0 0 0 0 0 0

Total # of neighbors = 1047499
Ave neighs/atom = 53.3024
Neighbor list builds = 505
Dangerous builds not checked
Setting up Verlet run ...
  Unit style    : metal
  Current step  : 62000
  Time step     : 0.001
Per MPI rank memory allocation (min/avg/max) = 18.19 | 18.19 | 18.19 Mbytes
Step Temp Press TotEng PotEng Enthalpy Volume 
   62000    1351.8512    475.94517   -113355.36   -116789.18   -113214.33    474743.92 
   62495    1314.5594   -682.61192      -113590    -116929.1   -113792.32    474872.01 
Loop time of 50.9553 on 1 procs for 495 steps with 19652 atoms

Performance: 0.839 ns/day, 28.594 hours/ns, 9.714 timesteps/s
99.8% CPU use with 1 MPI tasks x no OpenMP threads

MPI task timing breakdown:
Section |  min time  |  avg time  |  max time  |%varavg| %total
---------------------------------------------------------------
Pair    | 27.132     | 27.132     | 27.132     |   0.0 | 53.25
Neigh   | 22.297     | 22.297     | 22.297     |   0.0 | 43.76
Comm    | 0.49242    | 0.49242    | 0.49242    |   0.0 |  0.97
Output  | 0.00017214 | 0.00017214 | 0.00017214 |   0.0 |  0.00
Modify  | 0.74377    | 0.74377    | 0.74377    |   0.0 |  1.46
Other   |            | 0.2907     |            |       |  0.57

Nlocal:    19652 ave 19652 max 19652 min
Histogram: 1 0 0 0 0 0 0 0 0 0
Nghost:    15844 ave 15844 max 15844 min
Histogram: 1 0 0 0 0 0 0 0 0 0
Neighs:    1.04732e+06 ave 1.04732e+06 max 1.04732e+06 min
Histogram: 1 0 0 0 0 0 0 0 0 0

Total # of neighbors = 1047315
Ave neighs/atom = 53.293
Neighbor list builds = 495
Dangerous builds not checked
Setting up Verlet run ...
  Unit style    : metal
  Current step  : 62495
  Time step     : 0.001
Per MPI rank memory allocation (min/avg/max) = 18.19 | 18.19 | 18.19 Mbytes
Step Temp Press TotEng PotEng Enthalpy Volume 
   62495    1314.5594   -682.61192      -113590    -116929.1   -113792.32    474872.01 
   63000    1301.9153    870.32555   -113727.28   -117034.27   -113469.93    473763.84 
Loop time of 52.6253 on 1 procs for 505 steps with 19652 atoms

Performance: 0.829 ns/day, 28.947 hours/ns, 9.596 timesteps/s
98.8% CPU use with 1 MPI tasks x no OpenMP threads

MPI task timing breakdown:
Section |  min time  |  avg time  |  max time  |%varavg| %total
---------------------------------------------------------------
Pair    | 28.043     | 28.043     | 28.043     |   0.0 | 53.29
Neigh   | 22.965     | 22.965     | 22.965     |   0.0 | 43.64
Comm    | 0.50557    | 0.50557    | 0.50557    |   0.0 |  0.96
Output  | 0.040669   | 0.040669   | 0.040669   |   0.0 |  0.08
Modify  | 0.77392    | 0.77392    | 0.77392    |   0.0 |  1.47
Other   |            | 0.2967     |            |       |  0.56

Nlocal:    19652 ave 19652 max 19652 min
Histogram: 1 0 0 0 0 0 0 0 0 0
Nghost:    15860 ave 15860 max 15860 min
Histogram: 1 0 0 0 0 0 0 0 0 0
Neighs:    1.05055e+06 ave 1.05055e+06 max 1.05055e+06 min
Histogram: 1 0 0 0 0 0 0 0 0 0

Total # of neighbors = 1050549
Ave neighs/atom = 53.4576
Neighbor list builds = 505
Dangerous builds not checked
Setting up Verlet run ...
  Unit style    : metal
  Current step  : 63000
  Time step     : 0.001
Per MPI rank memory allocation (min/avg/max) = 18.19 | 18.19 | 18.19 Mbytes
Step Temp Press TotEng PotEng Enthalpy Volume 
   63000    1301.9153    870.32555   -113727.28   -117034.27   -113469.93    473763.84 
   63495    1256.8659   -193.46755   -113930.77   -117123.32   -113988.01    473998.82 
Loop time of 51.2345 on 1 procs for 495 steps with 19652 atoms

Performance: 0.835 ns/day, 28.751 hours/ns, 9.661 timesteps/s
99.4% CPU use with 1 MPI tasks x no OpenMP threads

MPI task timing breakdown:
Section |  min time  |  avg time  |  max time  |%varavg| %total
---------------------------------------------------------------
Pair    | 27.318     | 27.318     | 27.318     |   0.0 | 53.32
Neigh   | 22.384     | 22.384     | 22.384     |   0.0 | 43.69
Comm    | 0.4939     | 0.4939     | 0.4939     |   0.0 |  0.96
Output  | 0.00016809 | 0.00016809 | 0.00016809 |   0.0 |  0.00
Modify  | 0.74564    | 0.74564    | 0.74564    |   0.0 |  1.46
Other   |            | 0.2928     |            |       |  0.57

Nlocal:    19652 ave 19652 max 19652 min
Histogram: 1 0 0 0 0 0 0 0 0 0
Nghost:    15804 ave 15804 max 15804 min
Histogram: 1 0 0 0 0 0 0 0 0 0
Neighs:    1.04998e+06 ave 1.04998e+06 max 1.04998e+06 min
Histogram: 1 0 0 0 0 0 0 0 0 0

Total # of neighbors = 1049979
Ave neighs/atom = 53.4286
Neighbor list builds = 495
Dangerous builds not checked
Setting up Verlet run ...
  Unit style    : metal
  Current step  : 63495
  Time step     : 0.001
Per MPI rank memory allocation (min/avg/max) = 18.19 | 18.19 | 18.19 Mbytes
Step Temp Press TotEng PotEng Enthalpy Volume 
   63495    1256.8659   -193.46755   -113930.77   -117123.32   -113988.01    473998.82 
   64000    1246.4523    153.23514   -114086.55   -117252.65   -114041.27    473388.84 
Loop time of 53.0135 on 1 procs for 505 steps with 19652 atoms

Performance: 0.823 ns/day, 29.160 hours/ns, 9.526 timesteps/s
99.1% CPU use with 1 MPI tasks x no OpenMP threads

MPI task timing breakdown:
Section |  min time  |  avg time  |  max time  |%varavg| %total
---------------------------------------------------------------
Pair    | 28.196     | 28.196     | 28.196     |   0.0 | 53.19
Neigh   | 23.093     | 23.093     | 23.093     |   0.0 | 43.56
Comm    | 0.57926    | 0.57926    | 0.57926    |   0.0 |  1.09
Output  | 0.04099    | 0.04099    | 0.04099    |   0.0 |  0.08
Modify  | 0.79517    | 0.79517    | 0.79517    |   0.0 |  1.50
Other   |            | 0.3088     |            |       |  0.58

Nlocal:    19652 ave 19652 max 19652 min
Histogram: 1 0 0 0 0 0 0 0 0 0
Nghost:    15844 ave 15844 max 15844 min
Histogram: 1 0 0 0 0 0 0 0 0 0
Neighs:    1.05152e+06 ave 1.05152e+06 max 1.05152e+06 min
Histogram: 1 0 0 0 0 0 0 0 0 0

Total # of neighbors = 1051515
Ave neighs/atom = 53.5068
Neighbor list builds = 505
Dangerous builds not checked
Setting up Verlet run ...
  Unit style    : metal
  Current step  : 64000
  Time step     : 0.001
Per MPI rank memory allocation (min/avg/max) = 18.19 | 18.19 | 18.19 Mbytes
Step Temp Press TotEng PotEng Enthalpy Volume 
   64000    1246.4523    153.23514   -114086.55   -117252.65   -114041.27    473388.84 
   64495    1217.1635   -522.03191   -114292.02   -117383.73   -114446.29    473456.47 
[...]

Performance: 0.828 ns/day, 28.995 hours/ns, 9.580 timesteps/s
99.3% CPU use with 1 MPI tasks x no OpenMP threads

MPI task timing breakdown:
Section |  min time  |  avg time  |  max time  |%varavg| %total
---------------------------------------------------------------
Pair    | 27.92      | 27.92      | 27.92      |   0.0 | 54.04
Neigh   | 22.204     | 22.204     | 22.204     |   0.0 | 42.97
Comm    | 0.49409    | 0.49409    | 0.49409    |   0.0 |  0.96
Output  | 0.00022602 | 0.00022602 | 0.00022602 |   0.0 |  0.00
Modify  | 0.75741    | 0.75741    | 0.75741    |   0.0 |  1.47
Other   |            | 0.2934     |            |       |  0.57

Nlocal:    19652 ave 19652 max 19652 min
Histogram: 1 0 0 0 0 0 0 0 0 0
Nghost:    15962 ave 15962 max 15962 min
Histogram: 1 0 0 0 0 0 0 0 0 0
Neighs:    1.08694e+06 ave 1.08694e+06 max 1.08694e+06 min
Histogram: 1 0 0 0 0 0 0 0 0 0

Total # of neighbors = 1086943
Ave neighs/atom = 55.3095
Neighbor list builds = 495
Dangerous builds not checked
Setting up Verlet run ...
  Unit style    : metal
  Current step  : 80495
  Time step     : 0.001
Per MPI rank memory allocation (min/avg/max) = 18.19 | 18.19 | 18.19 Mbytes
Step Temp Press TotEng PotEng Enthalpy Volume 
   80495    422.69656    192.49501   -119279.89   -120353.58   -119224.16    463817.51 
   81000    396.80351   -19.937128    -119410.5   -120418.42   -119416.27    463786.69 
Loop time of 52.4657 on 1 procs for 505 steps with 19652 atoms

Performance: 0.832 ns/day, 28.859 hours/ns, 9.625 timesteps/s
99.6% CPU use with 1 MPI tasks x no OpenMP threads

MPI task timing breakdown:
Section |  min time  |  avg time  |  max time  |%varavg| %total
---------------------------------------------------------------
Pair    | 28.344     | 28.344     | 28.344     |   0.0 | 54.02
Neigh   | 22.529     | 22.529     | 22.529     |   0.0 | 42.94
Comm    | 0.49671    | 0.49671    | 0.49671    |   0.0 |  0.95
Output  | 0.040758   | 0.040758   | 0.040758   |   0.0 |  0.08
Modify  | 0.75789    | 0.75789    | 0.75789    |   0.0 |  1.44
Other   |            | 0.2977     |            |       |  0.57

Nlocal:    19652 ave 19652 max 19652 min
Histogram: 1 0 0 0 0 0 0 0 0 0
Nghost:    15983 ave 15983 max 15983 min
Histogram: 1 0 0 0 0 0 0 0 0 0
Neighs:    1.08758e+06 ave 1.08758e+06 max 1.08758e+06 min
Histogram: 1 0 0 0 0 0 0 0 0 0

Total # of neighbors = 1087581
Ave neighs/atom = 55.342
Neighbor list builds = 505
Dangerous builds not checked
Setting up Verlet run ...
  Unit style    : metal
  Current step  : 81000
  Time step     : 0.001
Per MPI rank memory allocation (min/avg/max) = 18.19 | 18.19 | 18.19 Mbytes
Step Temp Press TotEng PotEng Enthalpy Volume 
   81000    396.80351   -19.937128    -119410.5   -120418.42   -119416.27    463786.69 
   81495    368.16708   -56.924244   -119552.01   -120487.19   -119568.48    463544.24 
Loop time of 51.3531 on 1 procs for 495 steps with 19652 atoms

Performance: 0.833 ns/day, 28.818 hours/ns, 9.639 timesteps/s
99.7% CPU use with 1 MPI tasks x no OpenMP threads

MPI task timing breakdown:
Section |  min time  |  avg time  |  max time  |%varavg| %total
---------------------------------------------------------------
Pair    | 27.796     | 27.796     | 27.796     |   0.0 | 54.13
Neigh   | 22.037     | 22.037     | 22.037     |   0.0 | 42.91
Comm    | 0.48755    | 0.48755    | 0.48755    |   0.0 |  0.95
Output  | 0.00017786 | 0.00017786 | 0.00017786 |   0.0 |  0.00
Modify  | 0.74106    | 0.74106    | 0.74106    |   0.0 |  1.44
Other   |            | 0.2912     |            |       |  0.57

Nlocal:    19652 ave 19652 max 19652 min
Histogram: 1 0 0 0 0 0 0 0 0 0
Nghost:    15941 ave 15941 max 15941 min
Histogram: 1 0 0 0 0 0 0 0 0 0
Neighs:    1.0883e+06 ave 1.0883e+06 max 1.0883e+06 min
Histogram: 1 0 0 0 0 0 0 0 0 0

Total # of neighbors = 1088298
Ave neighs/atom = 55.3785
Neighbor list builds = 495
Dangerous builds not checked
Setting up Verlet run ...
  Unit style    : metal
  Current step  : 81495
  Time step     : 0.001
Per MPI rank memory allocation (min/avg/max) = 18.19 | 18.19 | 18.19 Mbytes
Step Temp Press TotEng PotEng Enthalpy Volume 
   81495    368.16708   -56.924244   -119552.01   -120487.19   -119568.48    463544.24 
   82000    348.86518   -50.455099   -119684.52   -120570.67   -119699.11    463298.72 
Loop time of 52.3519 on 1 procs for 505 steps with 19652 atoms

Performance: 0.833 ns/day, 28.796 hours/ns, 9.646 timesteps/s
99.9% CPU use with 1 MPI tasks x no OpenMP threads

MPI task timing breakdown:
Section |  min time  |  avg time  |  max time  |%varavg| %total
---------------------------------------------------------------
Pair    | 28.314     | 28.314     | 28.314     |   0.0 | 54.08
Neigh   | 22.446     | 22.446     | 22.446     |   0.0 | 42.88
Comm    | 0.49784    | 0.49784    | 0.49784    |   0.0 |  0.95
Output  | 0.04057    | 0.04057    | 0.04057    |   0.0 |  0.08
Modify  | 0.75647    | 0.75647    | 0.75647    |   0.0 |  1.44
Other   |            | 0.2965     |            |       |  0.57

Nlocal:    19652 ave 19652 max 19652 min
Histogram: 1 0 0 0 0 0 0 0 0 0
Nghost:    15977 ave 15977 max 15977 min
Histogram: 1 0 0 0 0 0 0 0 0 0
Neighs:    1.08895e+06 ave 1.08895e+06 max 1.08895e+06 min
Histogram: 1 0 0 0 0 0 0 0 0 0

Total # of neighbors = 1088953
Ave neighs/atom = 55.4118
Neighbor list builds = 505
Dangerous builds not checked
Setting up Verlet run ...
  Unit style    : metal
  Current step  : 82000
  Time step     : 0.001
Per MPI rank memory allocation (min/avg/max) = 18.19 | 18.19 | 18.19 Mbytes
Step Temp Press TotEng PotEng Enthalpy Volume 
   82000    348.86518   -50.455099   -119684.52   -120570.67   -119699.11    463298.72 
   82495    324.07607   -126.08348   -119820.61   -120643.79   -119857.05    463120.42 
Loop time of 51.1759 on 1 procs for 495 steps with 19652 atoms

Performance: 0.836 ns/day, 28.718 hours/ns, 9.673 timesteps/s
99.9% CPU use with 1 MPI tasks x no OpenMP threads

MPI task timing breakdown:
Section |  min time  |  avg time  |  max time  |%varavg| %total
---------------------------------------------------------------
Pair    | 27.721     | 27.721     | 27.721     |   0.0 | 54.17
Neigh   | 21.938     | 21.938     | 21.938     |   0.0 | 42.87
Comm    | 0.48341    | 0.48341    | 0.48341    |   0.0 |  0.94
Output  | 0.00017595 | 0.00017595 | 0.00017595 |   0.0 |  0.00
Modify  | 0.74245    | 0.74245    | 0.74245    |   0.0 |  1.45
Other   |            | 0.2913     |            |       |  0.57

Nlocal:    19652 ave 19652 max 19652 min
Histogram: 1 0 0 0 0 0 0 0 0 0
Nghost:    15966 ave 15966 max 15966 min
Histogram: 1 0 0 0 0 0 0 0 0 0
Neighs:    1.09009e+06 ave 1.09009e+06 max 1.09009e+06 min
Histogram: 1 0 0 0 0 0 0 0 0 0

Total # of neighbors = 1090090
Ave neighs/atom = 55.4697
Neighbor list builds = 495
Dangerous builds not checked
Setting up Verlet run ...
  Unit style    : metal
  Current step  : 82495
  Time step     : 0.001
Per MPI rank memory allocation (min/avg/max) = 18.19 | 18.19 | 18.19 Mbytes
Step Temp Press TotEng PotEng Enthalpy Volume 
   82495    324.07607   -126.08348   -119820.61   -120643.79   -119857.05    463120.42 
   83000    301.16939   -3.4796694   -119953.63   -120718.63   -119954.63    462897.36 
Loop time of 52.2928 on 1 procs for 505 steps with 19652 atoms

Performance: 0.834 ns/day, 28.764 hours/ns, 9.657 timesteps/s
99.9% CPU use with 1 MPI tasks x no OpenMP threads

MPI task timing breakdown:
Section |  min time  |  avg time  |  max time  |%varavg| %total
---------------------------------------------------------------
Pair    | 28.285     | 28.285     | 28.285     |   0.0 | 54.09
Neigh   | 22.413     | 22.413     | 22.413     |   0.0 | 42.86
Comm    | 0.4979     | 0.4979     | 0.4979     |   0.0 |  0.95
Output  | 0.040767   | 0.040767   | 0.040767   |   0.0 |  0.08
Modify  | 0.75719    | 0.75719    | 0.75719    |   0.0 |  1.45
Other   |            | 0.2997     |            |       |  0.57

Nlocal:    19652 ave 19652 max 19652 min
Histogram: 1 0 0 0 0 0 0 0 0 0
Nghost:    15982 ave 15982 max 15982 min
Histogram: 1 0 0 0 0 0 0 0 0 0
Neighs:    1.09088e+06 ave 1.09088e+06 max 1.09088e+06 min
Histogram: 1 0 0 0 0 0 0 0 0 0

Total # of neighbors = 1090879
Ave neighs/atom = 55.5098
Neighbor list builds = 505
Dangerous builds not checked
Setting up Verlet run ...
  Unit style    : metal
  Current step  : 83000
  Time step     : 0.001
Per MPI rank memory allocation (min/avg/max) = 18.19 | 18.19 | 18.19 Mbytes
Step Temp Press TotEng PotEng Enthalpy Volume 
   83000    301.16939   -3.4796694   -119953.63   -120718.63   -119954.63    462897.36 
   83495    274.92713   -94.551104   -120086.87   -120785.21   -120114.18    462722.36 
Loop time of 51.6425 on 1 procs for 495 steps with 19652 atoms

Performance: 0.828 ns/day, 28.980 hours/ns, 9.585 timesteps/s
99.9% CPU use with 1 MPI tasks x no OpenMP threads

MPI task timing breakdown:
Section |  min time  |  avg time  |  max time  |%varavg| %total
---------------------------------------------------------------
Pair    | 28.028     | 28.028     | 28.028     |   0.0 | 54.27
Neigh   | 22.051     | 22.051     | 22.051     |   0.0 | 42.70
Comm    | 0.50053    | 0.50053    | 0.50053    |   0.0 |  0.97
Output  | 0.00016999 | 0.00016999 | 0.00016999 |   0.0 |  0.00
Modify  | 0.75983    | 0.75983    | 0.75983    |   0.0 |  1.47
Other   |            | 0.3022     |            |       |  0.59

Nlocal:    19652 ave 19652 max 19652 min
Histogram: 1 0 0 0 0 0 0 0 0 0
Nghost:    15961 ave 15961 max 15961 min
Histogram: 1 0 0 0 0 0 0 0 0 0
Neighs:    1.09123e+06 ave 1.09123e+06 max 1.09123e+06 min
Histogram: 1 0 0 0 0 0 0 0 0 0

Total # of neighbors = 1091227
Ave neighs/atom = 55.5275
Neighbor list builds = 495
Dangerous builds not checked
Setting up Verlet run ...
  Unit style    : metal
  Current step  : 83495
  Time step     : 0.001
Per MPI rank memory allocation (min/avg/max) = 18.19 | 18.19 | 18.19 Mbytes
Step Temp Press TotEng PotEng Enthalpy Volume 
   83495    274.92713   -94.551104   -120086.87   -120785.21   -120114.18    462722.36 
   84000    251.36475    20.473978   -120219.21    -120857.7    -120213.3    462479.55 
Loop time of 52.8642 on 1 procs for 505 steps with 19652 atoms

Performance: 0.825 ns/day, 29.078 hours/ns, 9.553 timesteps/s
99.5% CPU use with 1 MPI tasks x no OpenMP threads

MPI task timing breakdown:
Section |  min time  |  avg time  |  max time  |%varavg| %total
---------------------------------------------------------------
Pair    | 28.724     | 28.724     | 28.724     |   0.0 | 54.34
Neigh   | 22.508     | 22.508     | 22.508     |   0.0 | 42.58
Comm    | 0.50999    | 0.50999    | 0.50999    |   0.0 |  0.96
Output  | 0.040892   | 0.040892   | 0.040892   |   0.0 |  0.08
Modify  | 0.77373    | 0.77373    | 0.77373    |   0.0 |  1.46
Other   |            | 0.3081     |            |       |  0.58

Nlocal:    19652 ave 19652 max 19652 min
Histogram: 1 0 0 0 0 0 0 0 0 0
Nghost:    16004 ave 16004 max 16004 min
Histogram: 1 0 0 0 0 0 0 0 0 0
Neighs:    1.09233e+06 ave 1.09233e+06 max 1.09233e+06 min
Histogram: 1 0 0 0 0 0 0 0 0 0

Total # of neighbors = 1092331
Ave neighs/atom = 55.5837
Neighbor list builds = 505
Dangerous builds not checked
Setting up Verlet run ...
  Unit style    : metal
  Current step  : 84000
  Time step     : 0.001
Per MPI rank memory allocation (min/avg/max) = 18.19 | 18.19 | 18.19 Mbytes
Step Temp Press TotEng PotEng Enthalpy Volume 
   84000    251.36475    20.473978   -120219.21    -120857.7    -120213.3    462479.55 
   84495    222.92516    35.393983   -120348.85    -120915.1   -120338.64     462355.4 
Loop time of 51.3862 on 1 procs for 495 steps with 19652 atoms

Performance: 0.832 ns/day, 28.836 hours/ns, 9.633 timesteps/s
99.6% CPU use with 1 MPI tasks x no OpenMP threads

MPI task timing breakdown:
Section |  min time  |  avg time  |  max time  |%varavg| %total
---------------------------------------------------------------
Pair    | 27.864     | 27.864     | 27.864     |   0.0 | 54.23
Neigh   | 21.99      | 21.99      | 21.99      |   0.0 | 42.79
Comm    | 0.49047    | 0.49047    | 0.49047    |   0.0 |  0.95
Output  | 0.00017691 | 0.00017691 | 0.00017691 |   0.0 |  0.00
Modify  | 0.75096    | 0.75096    | 0.75096    |   0.0 |  1.46
Other   |            | 0.2899     |            |       |  0.56

Nlocal:    19652 ave 19652 max 19652 min
Histogram: 1 0 0 0 0 0 0 0 0 0
Nghost:    15990 ave 15990 max 15990 min
Histogram: 1 0 0 0 0 0 0 0 0 0
Neighs:    1.09314e+06 ave 1.09314e+06 max 1.09314e+06 min
Histogram: 1 0 0 0 0 0 0 0 0 0

Total # of neighbors = 1093140
Ave neighs/atom = 55.6249
Neighbor list builds = 495
Dangerous builds not checked
Setting up Verlet run ...
  Unit style    : metal
  Current step  : 84495
  Time step     : 0.001
Per MPI rank memory allocation (min/avg/max) = 18.19 | 18.19 | 18.19 Mbytes
Step Temp Press TotEng PotEng Enthalpy Volume 
   84495    222.92516    35.393983   -120348.85    -120915.1   -120338.64     462355.4 
   85000    199.29453    12.176214   -120481.82   -120988.04   -120478.31    462113.44 
Loop time of 52.3647 on 1 procs for 505 steps with 19652 atoms

Performance: 0.833 ns/day, 28.803 hours/ns, 9.644 timesteps/s
99.7% CPU use with 1 MPI tasks x no OpenMP threads

MPI task timing breakdown:
Section |  min time  |  avg time  |  max time  |%varavg| %total
---------------------------------------------------------------
Pair    | 28.413     | 28.413     | 28.413     |   0.0 | 54.26
Neigh   | 22.359     | 22.359     | 22.359     |   0.0 | 42.70
Comm    | 0.49702    | 0.49702    | 0.49702    |   0.0 |  0.95
Output  | 0.040392   | 0.040392   | 0.040392   |   0.0 |  0.08
Modify  | 0.75861    | 0.75861    | 0.75861    |   0.0 |  1.45
Other   |            | 0.2967     |            |       |  0.57

Nlocal:    19652 ave 19652 max 19652 min
Histogram: 1 0 0 0 0 0 0 0 0 0
Nghost:    16041 ave 16041 max 16041 min
Histogram: 1 0 0 0 0 0 0 0 0 0
Neighs:    1.09356e+06 ave 1.09356e+06 max 1.09356e+06 min
Histogram: 1 0 0 0 0 0 0 0 0 0

Total # of neighbors = 1093563
Ave neighs/atom = 55.6464
Neighbor list builds = 505
Dangerous builds not checked
Setting up Verlet run ...
  Unit style    : metal
  Current step  : 85000
  Time step     : 0.001
Per MPI rank memory allocation (min/avg/max) = 18.19 | 18.19 | 18.19 Mbytes
Step Temp Press TotEng PotEng Enthalpy Volume 
   85000    199.29453    12.176214   -120481.82   -120988.04   -120478.31    462113.44 
   85495    174.75716    6.8134209    -120607.2    -121051.1   -120605.24    461888.88 
Loop time of 51.1686 on 1 procs for 495 steps with 19652 atoms

Performance: 0.836 ns/day, 28.714 hours/ns, 9.674 timesteps/s
99.5% CPU use with 1 MPI tasks x no OpenMP threads

MPI task timing breakdown:
Section |  min time  |  avg time  |  max time  |%varavg| %total
---------------------------------------------------------------
Pair    | 27.778     | 27.778     | 27.778     |   0.0 | 54.29
Neigh   | 21.876     | 21.876     | 21.876     |   0.0 | 42.75
Comm    | 0.49119    | 0.49119    | 0.49119    |   0.0 |  0.96
Output  | 0.00016809 | 0.00016809 | 0.00016809 |   0.0 |  0.00
Modify  | 0.73628    | 0.73628    | 0.73628    |   0.0 |  1.44
Other   |            | 0.2875     |            |       |  0.56

Nlocal:    19652 ave 19652 max 19652 min
Histogram: 1 0 0 0 0 0 0 0 0 0
Nghost:    15980 ave 15980 max 15980 min
Histogram: 1 0 0 0 0 0 0 0 0 0
Neighs:    1.09449e+06 ave 1.09449e+06 max 1.09449e+06 min
Histogram: 1 0 0 0 0 0 0 0 0 0

Total # of neighbors = 1094492
Ave neighs/atom = 55.6937
Neighbor list builds = 495
Dangerous builds not checked
Setting up Verlet run ...
  Unit style    : metal
  Current step  : 85495
  Time step     : 0.001
Per MPI rank memory allocation (min/avg/max) = 18.19 | 18.19 | 18.19 Mbytes
Step Temp Press TotEng PotEng Enthalpy Volume 
   85495    174.75716    6.8134209    -120607.2    -121051.1   -120605.24    461888.88 
   86000    151.83446   -97.090982    -120738.2   -121123.87   -120766.19    461805.66 
Loop time of 52.5833 on 1 procs for 505 steps with 19652 atoms

Performance: 0.830 ns/day, 28.924 hours/ns, 9.604 timesteps/s
99.3% CPU use with 1 MPI tasks x no OpenMP threads

MPI task timing breakdown:
Section |  min time  |  avg time  |  max time  |%varavg| %total
---------------------------------------------------------------
Pair    | 28.509     | 28.509     | 28.509     |   0.0 | 54.22
Neigh   | 22.473     | 22.473     | 22.473     |   0.0 | 42.74
Comm    | 0.50174    | 0.50174    | 0.50174    |   0.0 |  0.95
Output  | 0.040581   | 0.040581   | 0.040581   |   0.0 |  0.08
Modify  | 0.76101    | 0.76101    | 0.76101    |   0.0 |  1.45
Other   |            | 0.2973     |            |       |  0.57

Nlocal:    19652 ave 19652 max 19652 min
Histogram: 1 0 0 0 0 0 0 0 0 0
Nghost:    16001 ave 16001 max 16001 min
Histogram: 1 0 0 0 0 0 0 0 0 0
Neighs:    1.0947e+06 ave 1.0947e+06 max 1.0947e+06 min
Histogram: 1 0 0 0 0 0 0 0 0 0

Total # of neighbors = 1094702
Ave neighs/atom = 55.7044
Neighbor list builds = 505
Dangerous builds not checked
Setting up Verlet run ...
  Unit style    : metal
  Current step  : 86000
  Time step     : 0.001
Per MPI rank memory allocation (min/avg/max) = 18.19 | 18.19 | 18.19 Mbytes
Step Temp Press TotEng PotEng Enthalpy Volume 
   86000    151.83446   -97.090982    -120738.2   -121123.87   -120766.19    461805.66 
   86495    127.48901    12.325467   -120862.22   -121186.05   -120858.67    461526.42 
Loop time of 51.3229 on 1 procs for 495 steps with 19652 atoms

Performance: 0.833 ns/day, 28.801 hours/ns, 9.645 timesteps/s
99.6% CPU use with 1 MPI tasks x no OpenMP threads

MPI task timing breakdown:
Section |  min time  |  avg time  |  max time  |%varavg| %total
---------------------------------------------------------------
Pair    | 27.836     | 27.836     | 27.836     |   0.0 | 54.24
Neigh   | 21.956     | 21.956     | 21.956     |   0.0 | 42.78
Comm    | 0.48844    | 0.48844    | 0.48844    |   0.0 |  0.95
Output  | 0.00017691 | 0.00017691 | 0.00017691 |   0.0 |  0.00
Modify  | 0.74449    | 0.74449    | 0.74449    |   0.0 |  1.45
Other   |            | 0.2983     |            |       |  0.58

Nlocal:    19652 ave 19652 max 19652 min
Histogram: 1 0 0 0 0 0 0 0 0 0
Nghost:    16019 ave 16019 max 16019 min
Histogram: 1 0 0 0 0 0 0 0 0 0
Neighs:    1.09591e+06 ave 1.09591e+06 max 1.09591e+06 min
Histogram: 1 0 0 0 0 0 0 0 0 0

Total # of neighbors = 1095914
Ave neighs/atom = 55.766
Neighbor list builds = 495
Dangerous builds not checked
Setting up Verlet run ...
  Unit style    : metal
  Current step  : 86495
  Time step     : 0.001
Per MPI rank memory allocation (min/avg/max) = 18.19 | 18.19 | 18.19 Mbytes
Step Temp Press TotEng PotEng Enthalpy Volume 
   86495    127.48901    12.325467   -120862.22   -121186.05   -120858.67    461526.42 
   87000    102.98076   -18.727423   -120990.78   -121252.36   -120996.17       461401 
Loop time of 52.2322 on 1 procs for 505 steps with 19652 atoms

Performance: 0.835 ns/day, 28.731 hours/ns, 9.668 timesteps/s
99.8% CPU use with 1 MPI tasks x no OpenMP threads

MPI task timing breakdown:
Section |  min time  |  avg time  |  max time  |%varavg| %total
---------------------------------------------------------------
Pair    | 28.351     | 28.351     | 28.351     |   0.0 | 54.28
Neigh   | 22.28      | 22.28      | 22.28      |   0.0 | 42.66
Comm    | 0.49455    | 0.49455    | 0.49455    |   0.0 |  0.95
Output  | 0.040779   | 0.040779   | 0.040779   |   0.0 |  0.08
Modify  | 0.75664    | 0.75664    | 0.75664    |   0.0 |  1.45
Other   |            | 0.3099     |            |       |  0.59

Nlocal:    19652 ave 19652 max 19652 min
Histogram: 1 0 0 0 0 0 0 0 0 0
Nghost:    16029 ave 16029 max 16029 min
Histogram: 1 0 0 0 0 0 0 0 0 0
Neighs:    1.09616e+06 ave 1.09616e+06 max 1.09616e+06 min
Histogram: 1 0 0 0 0 0 0 0 0 0

Total # of neighbors = 1096159
Ave neighs/atom = 55.7785
Neighbor list builds = 505
Dangerous builds not checked
Total wall time: 2:32:46
