LAMMPS (12 Dec 2018)
Lattice spacing in x,y,z = 4 4 4
Created orthogonal box = (0 0 0) to (68 68 68)
  1 by 1 by 1 MPI processor grid
Created 19652 atoms
  Time spent = 0.00437713 secs
Setting atom values ...
  19281 settings made for type/fraction
Neighbor list info ...
  update every 1 steps, delay 0 steps, check no
  max neighbors/atom: 2000, page size: 100000
  master list distance cutoff = 8.5
  ghost atom cutoff = 8.5
  binsize = 4.25, bins = 16 16 16
  1 neighbor lists, perpetual/occasional/extra = 1 0 0
  (1) pair eam/alloy, perpetual
      attributes: half, newton on
      pair build: half/bin/atomonly/newton
      stencil: half/bin/3d/newton
      bin: standard
Setting up Verlet run ...
  Unit style    : metal
  Current step  : 0
  Time step     : 0.001
Per MPI rank memory allocation (min/avg/max) = 18.19 | 18.19 | 18.19 Mbytes
Step Temp Press TotEng PotEng Enthalpy Volume 
       0          300    20088.665   -66737.626   -67499.653   -62795.164       314432 
    1000    161.13089    26333.014   -66737.454   -67146.741    -61569.52       314432 
Loop time of 170.34 on 1 procs for 1000 steps with 19652 atoms

Performance: 0.507 ns/day, 47.317 hours/ns, 5.871 timesteps/s
99.9% CPU use with 1 MPI tasks x no OpenMP threads

MPI task timing breakdown:
Section |  min time  |  avg time  |  max time  |%varavg| %total
---------------------------------------------------------------
Pair    | 106.94     | 106.94     | 106.94     |   0.0 | 62.78
Neigh   | 60.856     | 60.856     | 60.856     |   0.0 | 35.73
Comm    | 1.2821     | 1.2821     | 1.2821     |   0.0 |  0.75
Output  | 0.050762   | 0.050762   | 0.050762   |   0.0 |  0.03
Modify  | 0.58637    | 0.58637    | 0.58637    |   0.0 |  0.34
Other   |            | 0.6204     |            |       |  0.36

Nlocal:    19652 ave 19652 max 19652 min
Histogram: 1 0 0 0 0 0 0 0 0 0
Nghost:    20102 ave 20102 max 20102 min
Histogram: 1 0 0 0 0 0 0 0 0 0
Neighs:    1.57211e+06 ave 1.57211e+06 max 1.57211e+06 min
Histogram: 1 0 0 0 0 0 0 0 0 0

Total # of neighbors = 1572106
Ave neighs/atom = 79.9973
Neighbor list builds = 1000
Dangerous builds not checked
Setting up Verlet run ...
  Unit style    : metal
  Current step  : 1000
  Time step     : 0.001
Per MPI rank memory allocation (min/avg/max) = 18.2 | 18.2 | 18.2 Mbytes
Step Temp Press TotEng PotEng Enthalpy Volume 
    1000    161.13089    26333.014   -66737.454   -67146.741    -61569.52       314432 
    2000    299.48955    70.045698   -66015.407   -66776.138   -66001.037    328691.56 
Loop time of 166.439 on 1 procs for 1000 steps with 19652 atoms

Performance: 0.519 ns/day, 46.233 hours/ns, 6.008 timesteps/s
99.9% CPU use with 1 MPI tasks x no OpenMP threads

MPI task timing breakdown:
Section |  min time  |  avg time  |  max time  |%varavg| %total
---------------------------------------------------------------
Pair    | 102.43     | 102.43     | 102.43     |   0.0 | 61.54
Neigh   | 60.51      | 60.51      | 60.51      |   0.0 | 36.36
Comm    | 1.1677     | 1.1677     | 1.1677     |   0.0 |  0.70
Output  | 0.049192   | 0.049192   | 0.049192   |   0.0 |  0.03
Modify  | 1.6807     | 1.6807     | 1.6807     |   0.0 |  1.01
Other   |            | 0.6063     |            |       |  0.36

Nlocal:    19652 ave 19652 max 19652 min
Histogram: 1 0 0 0 0 0 0 0 0 0
Nghost:    20102 ave 20102 max 20102 min
Histogram: 1 0 0 0 0 0 0 0 0 0
Neighs:    1.45284e+06 ave 1.45284e+06 max 1.45284e+06 min
Histogram: 1 0 0 0 0 0 0 0 0 0

Total # of neighbors = 1452835
Ave neighs/atom = 73.9281
Neighbor list builds = 1000
Dangerous builds not checked
Setting up Verlet run ...
  Unit style    : metal
  Current step  : 2000
  Time step     : 0.001
Per MPI rank memory allocation (min/avg/max) = 18.2 | 18.2 | 18.2 Mbytes
Step Temp Press TotEng PotEng Enthalpy Volume 
    2000    299.48955    70.045698   -66015.407   -66776.138   -66001.037    328691.56 
    3000    466.90787    284.87412    -65093.87   -66279.858   -65034.573    333493.88 
    4000    778.97566    -518.4948   -63188.778   -65167.447   -63300.616    345583.27 
    5000    1060.9616    134.02341   -61021.863   -63716.802   -60991.535    362557.48 
    6000    1324.7778    527.04365   -58183.891   -61548.947   -58055.127     391432.4 
    7000    1617.4163     757.2581   -56348.983   -60457.368   -56156.668    406892.93 
    8000    1893.6056   -1203.2955   -54808.211   -59618.141    -55124.45    421069.75 
    9000    2174.7796    145.26989   -53295.592   -58819.731   -53256.328    433045.38 
   10000    2410.9357   -450.38888   -51802.073   -57926.069   -51927.997    447953.13 
Loop time of 1213.68 on 1 procs for 8000 steps with 19652 atoms

Performance: 0.570 ns/day, 42.142 hours/ns, 6.592 timesteps/s
99.9% CPU use with 1 MPI tasks x no OpenMP threads

MPI task timing breakdown:
Section |  min time  |  avg time  |  max time  |%varavg| %total
---------------------------------------------------------------
Pair    | 702.39     | 702.39     | 702.39     |   0.0 | 57.87
Neigh   | 484.01     | 484.01     | 484.01     |   0.0 | 39.88
Comm    | 8.8022     | 8.8022     | 8.8022     |   0.0 |  0.73
Output  | 0.39431    | 0.39431    | 0.39431    |   0.0 |  0.03
Modify  | 13.41      | 13.41      | 13.41      |   0.0 |  1.10
Other   |            | 4.67       |            |       |  0.38

Nlocal:    19652 ave 19652 max 19652 min
Histogram: 1 0 0 0 0 0 0 0 0 0
Nghost:    16193 ave 16193 max 16193 min
Histogram: 1 0 0 0 0 0 0 0 0 0
Neighs:    1.10082e+06 ave 1.10082e+06 max 1.10082e+06 min
Histogram: 1 0 0 0 0 0 0 0 0 0

Total # of neighbors = 1100817
Ave neighs/atom = 56.0155
Neighbor list builds = 8000
Dangerous builds not checked
Setting up Verlet run ...
  Unit style    : metal
  Current step  : 10000
  Time step     : 0.001
Per MPI rank memory allocation (min/avg/max) = 18.21 | 18.21 | 18.21 Mbytes
Step Temp Press TotEng PotEng Enthalpy Volume 
   10000    2410.9357   -450.38888   -51802.073   -57926.069   -51927.997    447953.13 
   11000    2441.3522   -256.28841   -51719.766   -57921.023   -51791.479    448313.43 
   12000    2464.4018   -815.78372   -51678.269   -57938.074   -51906.972    449166.26 
   13000    2466.2654   -1715.6865   -51545.931    -57810.47   -52029.507    451581.93 
   14000    2442.8074   -1067.7751   -51713.758   -57918.711   -52012.787    448687.41 
   15000    2429.8032   -288.61573   -51730.153   -57902.075   -51811.011    448859.53 
   16000    2473.6924    621.70103   -51728.412   -58011.816   -51555.221    446327.01 
   17000    2433.4579    333.72154    -51863.61   -58044.815   -51770.808    445539.27 
   18000    2450.3885    573.42561   -51773.951   -57998.161   -51614.319    446018.99 
   19000    2476.2836   -897.19434   -51655.891   -57945.877   -51907.357    449057.36 
   20000    2457.1089   -836.93237   -51658.923   -57900.204   -51893.517    449094.15 
   21000    2444.8266    234.23354   -51782.365   -57992.447   -51717.077    446574.06 
   22000    2432.6466   -570.76875   -51854.054   -58033.198   -52013.272    446934.12 
   23000     2421.987   -461.80259   -51760.855   -57912.923   -51890.076    448319.45 
   24000    2436.1059    101.20235   -51732.186   -57920.117   -51703.907    447696.03 
   25000    2452.0241   -197.96114   -51671.488   -57899.852   -51726.936    448763.88 
   26000    2451.2815    260.94712   -51669.118   -57895.597   -51596.084    448422.09 
   27000    2466.2415    520.68156   -51641.889   -57906.367   -51496.197    448304.63 
   28000    2457.5653    311.66987   -51657.014   -57899.453   -51569.814    448261.14 
   29000    2464.1152     360.7185   -51603.635   -57862.712   -51502.592    448794.26 
   30000    2448.1977   -1531.0962   -51675.421   -57894.066   -52105.182    449712.48 
   31000    2440.6779   -1125.1086   -51704.117   -57903.662   -52019.612    449269.95 
   32000    2449.5442    348.88554    -51735.43   -57957.495   -51638.009    447382.87 
   33000    2440.8481    1531.1661   -51744.395   -57944.372   -51318.212     445948.2 
   34000    2436.0752   -112.81107   -51817.598   -58005.451   -51849.055    446765.83 
   35000    2435.9484   -486.35449   -51802.767   -57990.298   -51938.523    447214.32 
   36000    2453.8558   -688.01816   -51675.551   -57908.568   -51868.383    449045.15 
   37000    2440.0699   -240.76734   -51693.448   -57891.448   -51760.866    448630.69 
   38000    2439.8781   -1016.9044   -51811.883   -58009.396    -52095.97    447591.01 
   39000    2454.7609    921.28128   -51709.123   -57944.439   -51452.133     446924.1 
   40000    2464.0566    321.65717   -51733.833   -57992.761   -51644.147    446725.83 
Loop time of 4051.29 on 1 procs for 30000 steps with 19652 atoms

Performance: 0.640 ns/day, 37.512 hours/ns, 7.405 timesteps/s
99.8% CPU use with 1 MPI tasks x no OpenMP threads

MPI task timing breakdown:
Section |  min time  |  avg time  |  max time  |%varavg| %total
---------------------------------------------------------------
Pair    | 2259.7     | 2259.7     | 2259.7     |   0.0 | 55.78
Neigh   | 1692.1     | 1692.1     | 1692.1     |   0.0 | 41.77
Comm    | 31.607     | 31.607     | 31.607     |   0.0 |  0.78
Output  | 1.503      | 1.503      | 1.503      |   0.0 |  0.04
Modify  | 49.948     | 49.948     | 49.948     |   0.0 |  1.23
Other   |            | 16.38      |            |       |  0.40

Nlocal:    19652 ave 19652 max 19652 min
Histogram: 1 0 0 0 0 0 0 0 0 0
Nghost:    16230 ave 16230 max 16230 min
Histogram: 1 0 0 0 0 0 0 0 0 0
Neighs:    1.1049e+06 ave 1.1049e+06 max 1.1049e+06 min
Histogram: 1 0 0 0 0 0 0 0 0 0

Total # of neighbors = 1104899
Ave neighs/atom = 56.2232
Neighbor list builds = 30000
Dangerous builds not checked
Setting up Verlet run ...
  Unit style    : metal
  Current step  : 40000
  Time step     : 0.001
Per MPI rank memory allocation (min/avg/max) = 18.21 | 18.21 | 18.21 Mbytes
Step Temp Press TotEng PotEng Enthalpy Volume 
   40000    2464.0566    321.65717   -51733.833   -57992.761   -51644.147    446725.83 
   40495    2425.4147   -115.07011   -51835.374   -57996.148   -51867.449    446589.34 
Loop time of 65.9151 on 1 procs for 495 steps with 19652 atoms

Performance: 0.649 ns/day, 36.989 hours/ns, 7.510 timesteps/s
100.0% CPU use with 1 MPI tasks x no OpenMP threads

MPI task timing breakdown:
Section |  min time  |  avg time  |  max time  |%varavg| %total
---------------------------------------------------------------
Pair    | 36.759     | 36.759     | 36.759     |   0.0 | 55.77
Neigh   | 27.559     | 27.559     | 27.559     |   0.0 | 41.81
Comm    | 0.50553    | 0.50553    | 0.50553    |   0.0 |  0.77
Output  | 0.00016403 | 0.00016403 | 0.00016403 |   0.0 |  0.00
Modify  | 0.8207     | 0.8207     | 0.8207     |   0.0 |  1.25
Other   |            | 0.271      |            |       |  0.41

Nlocal:    19652 ave 19652 max 19652 min
Histogram: 1 0 0 0 0 0 0 0 0 0
Nghost:    16184 ave 16184 max 16184 min
Histogram: 1 0 0 0 0 0 0 0 0 0
Neighs:    1.10534e+06 ave 1.10534e+06 max 1.10534e+06 min
Histogram: 1 0 0 0 0 0 0 0 0 0

Total # of neighbors = 1105342
Ave neighs/atom = 56.2458
Neighbor list builds = 495
Dangerous builds not checked
Setting up Verlet run ...
  Unit style    : metal
  Current step  : 40495
  Time step     : 0.001
Per MPI rank memory allocation (min/avg/max) = 18.21 | 18.21 | 18.21 Mbytes
Step Temp Press TotEng PotEng Enthalpy Volume 
   40495    2425.4147   -115.07011   -51835.374   -57996.148   -51867.449    446589.34 
   41000    2406.4993    260.92066   -51969.877   -58082.604   -51897.466    444633.27 
Loop time of 68.0115 on 1 procs for 505 steps with 19652 atoms

Performance: 0.642 ns/day, 37.410 hours/ns, 7.425 timesteps/s
100.0% CPU use with 1 MPI tasks x no OpenMP threads

MPI task timing breakdown:
Section |  min time  |  avg time  |  max time  |%varavg| %total
---------------------------------------------------------------
Pair    | 37.623     | 37.623     | 37.623     |   0.0 | 55.32
Neigh   | 28.708     | 28.708     | 28.708     |   0.0 | 42.21
Comm    | 0.51765    | 0.51765    | 0.51765    |   0.0 |  0.76
Output  | 0.050203   | 0.050203   | 0.050203   |   0.0 |  0.07
Modify  | 0.83654    | 0.83654    | 0.83654    |   0.0 |  1.23
Other   |            | 0.2768     |            |       |  0.41

Nlocal:    19652 ave 19652 max 19652 min
Histogram: 1 0 0 0 0 0 0 0 0 0
Nghost:    16243 ave 16243 max 16243 min
Histogram: 1 0 0 0 0 0 0 0 0 0
Neighs:    1.11021e+06 ave 1.11021e+06 max 1.11021e+06 min
Histogram: 1 0 0 0 0 0 0 0 0 0

Total # of neighbors = 1110214
Ave neighs/atom = 56.4937
Neighbor list builds = 505
Dangerous builds not checked
Setting up Verlet run ...
  Unit style    : metal
  Current step  : 41000
  Time step     : 0.001
Per MPI rank memory allocation (min/avg/max) = 18.21 | 18.21 | 18.21 Mbytes
Step Temp Press TotEng PotEng Enthalpy Volume 
   41000    2406.4993    260.92066   -51969.877   -58082.604   -51897.466    444633.27 
   41495    2331.8191   -169.61503   -52283.358   -58206.391    -52330.27    443136.57 
Loop time of 66.5091 on 1 procs for 495 steps with 19652 atoms

Performance: 0.643 ns/day, 37.323 hours/ns, 7.443 timesteps/s
100.0% CPU use with 1 MPI tasks x no OpenMP threads

MPI task timing breakdown:
Section |  min time  |  avg time  |  max time  |%varavg| %total
---------------------------------------------------------------
Pair    | 36.806     | 36.806     | 36.806     |   0.0 | 55.34
Neigh   | 28.107     | 28.107     | 28.107     |   0.0 | 42.26
Comm    | 0.50471    | 0.50471    | 0.50471    |   0.0 |  0.76
Output  | 0.00018096 | 0.00018096 | 0.00018096 |   0.0 |  0.00
Modify  | 0.82004    | 0.82004    | 0.82004    |   0.0 |  1.23
Other   |            | 0.2708     |            |       |  0.41

Nlocal:    19652 ave 19652 max 19652 min
Histogram: 1 0 0 0 0 0 0 0 0 0
Nghost:    16295 ave 16295 max 16295 min
Histogram: 1 0 0 0 0 0 0 0 0 0
Neighs:    1.11399e+06 ave 1.11399e+06 max 1.11399e+06 min
Histogram: 1 0 0 0 0 0 0 0 0 0

Total # of neighbors = 1113990
Ave neighs/atom = 56.6858
Neighbor list builds = 495
Dangerous builds not checked
Setting up Verlet run ...
  Unit style    : metal
  Current step  : 41495
  Time step     : 0.001
Per MPI rank memory allocation (min/avg/max) = 18.21 | 18.21 | 18.21 Mbytes
Step Temp Press TotEng PotEng Enthalpy Volume 
   41495    2331.8191   -169.61503   -52283.358   -58206.391    -52330.27    443136.57 
   42000    2346.5696   -1202.4435   -52283.393   -58243.893   -52616.295    443569.97 
Loop time of 68.1775 on 1 procs for 505 steps with 19652 atoms

Performance: 0.640 ns/day, 37.501 hours/ns, 7.407 timesteps/s
100.0% CPU use with 1 MPI tasks x no OpenMP threads

MPI task timing breakdown:
Section |  min time  |  avg time  |  max time  |%varavg| %total
---------------------------------------------------------------
Pair    | 37.836     | 37.836     | 37.836     |   0.0 | 55.50
Neigh   | 28.663     | 28.663     | 28.663     |   0.0 | 42.04
Comm    | 0.51703    | 0.51703    | 0.51703    |   0.0 |  0.76
Output  | 0.050314   | 0.050314   | 0.050314   |   0.0 |  0.07
Modify  | 0.83653    | 0.83653    | 0.83653    |   0.0 |  1.23
Other   |            | 0.2752     |            |       |  0.40

Nlocal:    19652 ave 19652 max 19652 min
Histogram: 1 0 0 0 0 0 0 0 0 0
Nghost:    16295 ave 16295 max 16295 min
Histogram: 1 0 0 0 0 0 0 0 0 0
Neighs:    1.11248e+06 ave 1.11248e+06 max 1.11248e+06 min
Histogram: 1 0 0 0 0 0 0 0 0 0

Total # of neighbors = 1112475
Ave neighs/atom = 56.6087
Neighbor list builds = 505
Dangerous builds not checked
Setting up Verlet run ...
  Unit style    : metal
  Current step  : 42000
  Time step     : 0.001
Per MPI rank memory allocation (min/avg/max) = 18.21 | 18.21 | 18.21 Mbytes
Step Temp Press TotEng PotEng Enthalpy Volume 
   42000    2346.5696   -1202.4435   -52283.393   -58243.893   -52616.295    443569.97 
   42495    2308.3239   -1008.1813   -52473.331   -58336.684   -52751.237     441639.8 
Loop time of 66.568 on 1 procs for 495 steps with 19652 atoms

Performance: 0.642 ns/day, 37.356 hours/ns, 7.436 timesteps/s
99.9% CPU use with 1 MPI tasks x no OpenMP threads

MPI task timing breakdown:
Section |  min time  |  avg time  |  max time  |%varavg| %total
---------------------------------------------------------------
Pair    | 36.893     | 36.893     | 36.893     |   0.0 | 55.42
Neigh   | 28.078     | 28.078     | 28.078     |   0.0 | 42.18
Comm    | 0.50549    | 0.50549    | 0.50549    |   0.0 |  0.76
Output  | 0.00016618 | 0.00016618 | 0.00016618 |   0.0 |  0.00
Modify  | 0.82095    | 0.82095    | 0.82095    |   0.0 |  1.23
Other   |            | 0.2701     |            |       |  0.41

Nlocal:    19652 ave 19652 max 19652 min
Histogram: 1 0 0 0 0 0 0 0 0 0
Nghost:    16244 ave 16244 max 16244 min
Histogram: 1 0 0 0 0 0 0 0 0 0
Neighs:    1.11792e+06 ave 1.11792e+06 max 1.11792e+06 min
Histogram: 1 0 0 0 0 0 0 0 0 0

Total # of neighbors = 1117916
Ave neighs/atom = 56.8856
Neighbor list builds = 495
Dangerous builds not checked
Setting up Verlet run ...
  Unit style    : metal
  Current step  : 42495
  Time step     : 0.001
Per MPI rank memory allocation (min/avg/max) = 18.21 | 18.21 | 18.21 Mbytes
Step Temp Press TotEng PotEng Enthalpy Volume 
   42495    2308.3239   -1008.1813   -52473.331   -58336.684   -52751.237     441639.8 
   43000    2290.2356    635.36287    -52591.47   -58408.877   -52417.295    439210.47 
Loop time of 68.2844 on 1 procs for 505 steps with 19652 atoms

Performance: 0.639 ns/day, 37.560 hours/ns, 7.396 timesteps/s
100.0% CPU use with 1 MPI tasks x no OpenMP threads

MPI task timing breakdown:
Section |  min time  |  avg time  |  max time  |%varavg| %total
---------------------------------------------------------------
Pair    | 37.972     | 37.972     | 37.972     |   0.0 | 55.61
Neigh   | 28.632     | 28.632     | 28.632     |   0.0 | 41.93
Comm    | 0.51767    | 0.51767    | 0.51767    |   0.0 |  0.76
Output  | 0.050243   | 0.050243   | 0.050243   |   0.0 |  0.07
Modify  | 0.83576    | 0.83576    | 0.83576    |   0.0 |  1.22
Other   |            | 0.2767     |            |       |  0.41

Nlocal:    19652 ave 19652 max 19652 min
Histogram: 1 0 0 0 0 0 0 0 0 0
Nghost:    16278 ave 16278 max 16278 min
Histogram: 1 0 0 0 0 0 0 0 0 0
Neighs:    1.12441e+06 ave 1.12441e+06 max 1.12441e+06 min
Histogram: 1 0 0 0 0 0 0 0 0 0

Total # of neighbors = 1124412
Ave neighs/atom = 57.2162
Neighbor list builds = 505
Dangerous builds not checked
Setting up Verlet run ...
  Unit style    : metal
  Current step  : 43000
  Time step     : 0.001
Per MPI rank memory allocation (min/avg/max) = 18.21 | 18.21 | 18.21 Mbytes
Step Temp Press TotEng PotEng Enthalpy Volume 
   43000    2290.2356    635.36287    -52591.47   -58408.877   -52417.295    439210.47 
   43495    2251.2451    917.75287   -52743.008   -58461.376   -52492.141    437953.98 
Loop time of 67.0742 on 1 procs for 495 steps with 19652 atoms

Performance: 0.638 ns/day, 37.640 hours/ns, 7.380 timesteps/s
99.8% CPU use with 1 MPI tasks x no OpenMP threads

MPI task timing breakdown:
Section |  min time  |  avg time  |  max time  |%varavg| %total
---------------------------------------------------------------
Pair    | 37.36      | 37.36      | 37.36      |   0.0 | 55.70
Neigh   | 28.112     | 28.112     | 28.112     |   0.0 | 41.91
Comm    | 0.51104    | 0.51104    | 0.51104    |   0.0 |  0.76
Output  | 0.00015521 | 0.00015521 | 0.00015521 |   0.0 |  0.00
Modify  | 0.82387    | 0.82387    | 0.82387    |   0.0 |  1.23
Other   |            | 0.2669     |            |       |  0.40

Nlocal:    19652 ave 19652 max 19652 min
Histogram: 1 0 0 0 0 0 0 0 0 0
Nghost:    16352 ave 16352 max 16352 min
Histogram: 1 0 0 0 0 0 0 0 0 0
Neighs:    1.12719e+06 ave 1.12719e+06 max 1.12719e+06 min
Histogram: 1 0 0 0 0 0 0 0 0 0

Total # of neighbors = 1127190
Ave neighs/atom = 57.3575
Neighbor list builds = 495
Dangerous builds not checked
Setting up Verlet run ...
  Unit style    : metal
  Current step  : 43495
  Time step     : 0.001
Per MPI rank memory allocation (min/avg/max) = 18.21 | 18.21 | 18.21 Mbytes
Step Temp Press TotEng PotEng Enthalpy Volume 
   43495    2251.2451    917.75287   -52743.008   -58461.376   -52492.141    437953.98 
   44000    2246.4778    268.06758   -52846.147   -58552.405   -52773.013    437102.04 
Loop time of 69.7588 on 1 procs for 505 steps with 19652 atoms

Performance: 0.625 ns/day, 38.371 hours/ns, 7.239 timesteps/s
99.5% CPU use with 1 MPI tasks x no OpenMP threads

MPI task timing breakdown:
Section |  min time  |  avg time  |  max time  |%varavg| %total
---------------------------------------------------------------
Pair    | 38.987     | 38.987     | 38.987     |   0.0 | 55.89
Neigh   | 28.982     | 28.982     | 28.982     |   0.0 | 41.55
Comm    | 0.5717     | 0.5717     | 0.5717     |   0.0 |  0.82
Output  | 0.051363   | 0.051363   | 0.051363   |   0.0 |  0.07
Modify  | 0.88011    | 0.88011    | 0.88011    |   0.0 |  1.26
Other   |            | 0.2865     |            |       |  0.41

Nlocal:    19652 ave 19652 max 19652 min
Histogram: 1 0 0 0 0 0 0 0 0 0
Nghost:    16361 ave 16361 max 16361 min
Histogram: 1 0 0 0 0 0 0 0 0 0
Neighs:    1.12974e+06 ave 1.12974e+06 max 1.12974e+06 min
Histogram: 1 0 0 0 0 0 0 0 0 0

Total # of neighbors = 1129740
Ave neighs/atom = 57.4873
Neighbor list builds = 505
Dangerous builds not checked
Setting up Verlet run ...
  Unit style    : metal
  Current step  : 44000
  Time step     : 0.001
Per MPI rank memory allocation (min/avg/max) = 18.21 | 18.21 | 18.21 Mbytes
Step Temp Press TotEng PotEng Enthalpy Volume 
   44000    2246.4778    268.06758   -52846.147   -58552.405   -52773.013    437102.04 
   44495    2212.8728   -651.77374   -53053.473   -58674.372    -53230.75    435777.21 
Loop time of 69.1266 on 1 procs for 495 steps with 19652 atoms

Performance: 0.619 ns/day, 38.792 hours/ns, 7.161 timesteps/s
99.8% CPU use with 1 MPI tasks x no OpenMP threads

MPI task timing breakdown:
Section |  min time  |  avg time  |  max time  |%varavg| %total
---------------------------------------------------------------
Pair    | 38.749     | 38.749     | 38.749     |   0.0 | 56.06
Neigh   | 28.573     | 28.573     | 28.573     |   0.0 | 41.33
Comm    | 0.60525    | 0.60525    | 0.60525    |   0.0 |  0.88
Output  | 0.00019789 | 0.00019789 | 0.00019789 |   0.0 |  0.00
Modify  | 0.90158    | 0.90158    | 0.90158    |   0.0 |  1.30
Other   |            | 0.2979     |            |       |  0.43

Nlocal:    19652 ave 19652 max 19652 min
Histogram: 1 0 0 0 0 0 0 0 0 0
Nghost:    16420 ave 16420 max 16420 min
Histogram: 1 0 0 0 0 0 0 0 0 0
Neighs:    1.13276e+06 ave 1.13276e+06 max 1.13276e+06 min
Histogram: 1 0 0 0 0 0 0 0 0 0

Total # of neighbors = 1132757
Ave neighs/atom = 57.6408
Neighbor list builds = 495
Dangerous builds not checked
Setting up Verlet run ...
  Unit style    : metal
  Current step  : 44495
  Time step     : 0.001
Per MPI rank memory allocation (min/avg/max) = 18.21 | 18.21 | 18.21 Mbytes
Step Temp Press TotEng PotEng Enthalpy Volume 
   44495    2212.8728   -651.77374   -53053.473   -58674.372    -53230.75    435777.21 
   45000    2208.8381     1041.884   -53077.598   -58688.248   -52795.263    434166.98 
Loop time of 70.6316 on 1 procs for 505 steps with 19652 atoms

Performance: 0.618 ns/day, 38.851 hours/ns, 7.150 timesteps/s
99.2% CPU use with 1 MPI tasks x no OpenMP threads

MPI task timing breakdown:
Section |  min time  |  avg time  |  max time  |%varavg| %total
---------------------------------------------------------------
Pair    | 39.629     | 39.629     | 39.629     |   0.0 | 56.11
Neigh   | 29.041     | 29.041     | 29.041     |   0.0 | 41.12
Comm    | 0.59441    | 0.59441    | 0.59441    |   0.0 |  0.84
Output  | 0.11395    | 0.11395    | 0.11395    |   0.0 |  0.16
Modify  | 0.9026     | 0.9026     | 0.9026     |   0.0 |  1.28
Other   |            | 0.3511     |            |       |  0.50

Nlocal:    19652 ave 19652 max 19652 min
Histogram: 1 0 0 0 0 0 0 0 0 0
Nghost:    16467 ave 16467 max 16467 min
Histogram: 1 0 0 0 0 0 0 0 0 0
Neighs:    1.13704e+06 ave 1.13704e+06 max 1.13704e+06 min
Histogram: 1 0 0 0 0 0 0 0 0 0

Total # of neighbors = 1137042
Ave neighs/atom = 57.8588
Neighbor list builds = 505
Dangerous builds not checked
Setting up Verlet run ...
  Unit style    : metal
  Current step  : 45000
  Time step     : 0.001
Per MPI rank memory allocation (min/avg/max) = 18.21 | 18.21 | 18.21 Mbytes
Step Temp Press TotEng PotEng Enthalpy Volume 
   45000    2208.8381     1041.884   -53077.598   -58688.248   -52795.263    434166.98 
   45495    2170.3705   -720.44535   -53283.167   -58796.106   -53478.241    433819.38 
Loop time of 68.2184 on 1 procs for 495 steps with 19652 atoms

Performance: 0.627 ns/day, 38.282 hours/ns, 7.256 timesteps/s
99.9% CPU use with 1 MPI tasks x no OpenMP threads

MPI task timing breakdown:
Section |  min time  |  avg time  |  max time  |%varavg| %total
---------------------------------------------------------------
Pair    | 38.281     | 38.281     | 38.281     |   0.0 | 56.12
Neigh   | 28.265     | 28.265     | 28.265     |   0.0 | 41.43
Comm    | 0.55423    | 0.55423    | 0.55423    |   0.0 |  0.81
Output  | 0.00015998 | 0.00015998 | 0.00015998 |   0.0 |  0.00
Modify  | 0.85029    | 0.85029    | 0.85029    |   0.0 |  1.25
Other   |            | 0.2677     |            |       |  0.39

Nlocal:    19652 ave 19652 max 19652 min
Histogram: 1 0 0 0 0 0 0 0 0 0
Nghost:    16373 ave 16373 max 16373 min
Histogram: 1 0 0 0 0 0 0 0 0 0
Neighs:    1.13815e+06 ave 1.13815e+06 max 1.13815e+06 min
Histogram: 1 0 0 0 0 0 0 0 0 0

Total # of neighbors = 1138146
Ave neighs/atom = 57.915
Neighbor list builds = 495
Dangerous builds not checked
Setting up Verlet run ...
  Unit style    : metal
  Current step  : 45495
  Time step     : 0.001
Per MPI rank memory allocation (min/avg/max) = 18.21 | 18.21 | 18.21 Mbytes
Step Temp Press TotEng PotEng Enthalpy Volume 
   45495    2170.3705   -720.44535   -53283.167   -58796.106   -53478.241    433819.38 
   46000    2158.6198    66.119313   -53363.002   -58846.093   -53345.159    432347.18 
Loop time of 69.6129 on 1 procs for 505 steps with 19652 atoms

Performance: 0.627 ns/day, 38.291 hours/ns, 7.254 timesteps/s
99.8% CPU use with 1 MPI tasks x no OpenMP threads

MPI task timing breakdown:
Section |  min time  |  avg time  |  max time  |%varavg| %total
---------------------------------------------------------------
Pair    | 38.94      | 38.94      | 38.94      |   0.0 | 55.94
Neigh   | 28.881     | 28.881     | 28.881     |   0.0 | 41.49
Comm    | 0.57901    | 0.57901    | 0.57901    |   0.0 |  0.83
Output  | 0.064308   | 0.064308   | 0.064308   |   0.0 |  0.09
Modify  | 0.87695    | 0.87695    | 0.87695    |   0.0 |  1.26
Other   |            | 0.2712     |            |       |  0.39

Nlocal:    19652 ave 19652 max 19652 min
Histogram: 1 0 0 0 0 0 0 0 0 0
Nghost:    16413 ave 16413 max 16413 min
Histogram: 1 0 0 0 0 0 0 0 0 0
Neighs:    1.14219e+06 ave 1.14219e+06 max 1.14219e+06 min
Histogram: 1 0 0 0 0 0 0 0 0 0

Total # of neighbors = 1142187
Ave neighs/atom = 58.1206
Neighbor list builds = 505
Dangerous builds not checked
Setting up Verlet run ...
  Unit style    : metal
  Current step  : 46000
  Time step     : 0.001
Per MPI rank memory allocation (min/avg/max) = 18.21 | 18.21 | 18.21 Mbytes
Step Temp Press TotEng PotEng Enthalpy Volume 
   46000    2158.6198    66.119313   -53363.002   -58846.093   -53345.159    432347.18 
   46495    2114.2478   -175.05245   -53552.963   -58923.345   -53600.099    431415.37 
Loop time of 68.2459 on 1 procs for 495 steps with 19652 atoms

Performance: 0.627 ns/day, 38.297 hours/ns, 7.253 timesteps/s
99.8% CPU use with 1 MPI tasks x no OpenMP threads

MPI task timing breakdown:
Section |  min time  |  avg time  |  max time  |%varavg| %total
---------------------------------------------------------------
Pair    | 38.337     | 38.337     | 38.337     |   0.0 | 56.17
Neigh   | 28.211     | 28.211     | 28.211     |   0.0 | 41.34
Comm    | 0.56798    | 0.56798    | 0.56798    |   0.0 |  0.83
Output  | 0.00018001 | 0.00018001 | 0.00018001 |   0.0 |  0.00
Modify  | 0.8622     | 0.8622     | 0.8622     |   0.0 |  1.26
Other   |            | 0.2679     |            |       |  0.39

Nlocal:    19652 ave 19652 max 19652 min
Histogram: 1 0 0 0 0 0 0 0 0 0
Nghost:    16486 ave 16486 max 16486 min
Histogram: 1 0 0 0 0 0 0 0 0 0
Neighs:    1.14502e+06 ave 1.14502e+06 max 1.14502e+06 min
Histogram: 1 0 0 0 0 0 0 0 0 0

Total # of neighbors = 1145016
Ave neighs/atom = 58.2646
Neighbor list builds = 495
Dangerous builds not checked
Setting up Verlet run ...
  Unit style    : metal
  Current step  : 46495
  Time step     : 0.001
Per MPI rank memory allocation (min/avg/max) = 18.21 | 18.21 | 18.21 Mbytes
Step Temp Press TotEng PotEng Enthalpy Volume 
   46495    2114.2478   -175.05245   -53552.963   -58923.345   -53600.099    431415.37 
   47000    2111.5963    1705.9968   -53622.147   -58985.794   -53165.673     428695.3 
Loop time of 69.6178 on 1 procs for 505 steps with 19652 atoms

Performance: 0.627 ns/day, 38.294 hours/ns, 7.254 timesteps/s
99.9% CPU use with 1 MPI tasks x no OpenMP threads

MPI task timing breakdown:
Section |  min time  |  avg time  |  max time  |%varavg| %total
---------------------------------------------------------------
Pair    | 39.082     | 39.082     | 39.082     |   0.0 | 56.14
Neigh   | 28.756     | 28.756     | 28.756     |   0.0 | 41.31
Comm    | 0.57854    | 0.57854    | 0.57854    |   0.0 |  0.83
Output  | 0.050575   | 0.050575   | 0.050575   |   0.0 |  0.07
Modify  | 0.87922    | 0.87922    | 0.87922    |   0.0 |  1.26
Other   |            | 0.2713     |            |       |  0.39

Nlocal:    19652 ave 19652 max 19652 min
Histogram: 1 0 0 0 0 0 0 0 0 0
Nghost:    16426 ave 16426 max 16426 min
Histogram: 1 0 0 0 0 0 0 0 0 0
Neighs:    1.15181e+06 ave 1.15181e+06 max 1.15181e+06 min
Histogram: 1 0 0 0 0 0 0 0 0 0

Total # of neighbors = 1151806
Ave neighs/atom = 58.6101
Neighbor list builds = 505
Dangerous builds not checked
Setting up Verlet run ...
  Unit style    : metal
  Current step  : 47000
  Time step     : 0.001
Per MPI rank memory allocation (min/avg/max) = 18.21 | 18.21 | 18.21 Mbytes
Step Temp Press TotEng PotEng Enthalpy Volume 
   47000    2111.5963    1705.9968   -53622.147   -58985.794   -53165.673     428695.3 
   47495    2046.6565   -114.15996   -53815.278   -59013.972    -53845.88    429476.08 
Loop time of 68.6047 on 1 procs for 495 steps with 19652 atoms

Performance: 0.623 ns/day, 38.499 hours/ns, 7.215 timesteps/s
99.9% CPU use with 1 MPI tasks x no OpenMP threads

MPI task timing breakdown:
Section |  min time  |  avg time  |  max time  |%varavg| %total
---------------------------------------------------------------
Pair    | 38.599     | 38.599     | 38.599     |   0.0 | 56.26
Neigh   | 28.291     | 28.291     | 28.291     |   0.0 | 41.24
Comm    | 0.58396    | 0.58396    | 0.58396    |   0.0 |  0.85
Output  | 0.00015211 | 0.00015211 | 0.00015211 |   0.0 |  0.00
Modify  | 0.87086    | 0.87086    | 0.87086    |   0.0 |  1.27
Other   |            | 0.2597     |            |       |  0.38

Nlocal:    19652 ave 19652 max 19652 min
Histogram: 1 0 0 0 0 0 0 0 0 0
Nghost:    16495 ave 16495 max 16495 min
Histogram: 1 0 0 0 0 0 0 0 0 0
Neighs:    1.15011e+06 ave 1.15011e+06 max 1.15011e+06 min
Histogram: 1 0 0 0 0 0 0 0 0 0

Total # of neighbors = 1150108
Ave neighs/atom = 58.5237
Neighbor list builds = 495
Dangerous builds not checked
Setting up Verlet run ...
  Unit style    : metal
  Current step  : 47495
  Time step     : 0.001
Per MPI rank memory allocation (min/avg/max) = 18.21 | 18.21 | 18.21 Mbytes
Step Temp Press TotEng PotEng Enthalpy Volume 
   47495    2046.6565   -114.15996   -53815.278   -59013.972    -53845.88    429476.08 
   48000    2030.0483    480.73918   -53987.814   -59144.321   -53859.735    426852.87 
Loop time of 70.5079 on 1 procs for 505 steps with 19652 atoms

Performance: 0.619 ns/day, 38.783 hours/ns, 7.162 timesteps/s
99.0% CPU use with 1 MPI tasks x no OpenMP threads

MPI task timing breakdown:
Section |  min time  |  avg time  |  max time  |%varavg| %total
---------------------------------------------------------------
Pair    | 39.611     | 39.611     | 39.611     |   0.0 | 56.18
Neigh   | 28.954     | 28.954     | 28.954     |   0.0 | 41.06
Comm    | 0.57961    | 0.57961    | 0.57961    |   0.0 |  0.82
Output  | 0.061735   | 0.061735   | 0.061735   |   0.0 |  0.09
Modify  | 0.87922    | 0.87922    | 0.87922    |   0.0 |  1.25
Other   |            | 0.4225     |            |       |  0.60

Nlocal:    19652 ave 19652 max 19652 min
Histogram: 1 0 0 0 0 0 0 0 0 0
Nghost:    16513 ave 16513 max 16513 min
Histogram: 1 0 0 0 0 0 0 0 0 0
Neighs:    1.15759e+06 ave 1.15759e+06 max 1.15759e+06 min
Histogram: 1 0 0 0 0 0 0 0 0 0

Total # of neighbors = 1157588
Ave neighs/atom = 58.9043
Neighbor list builds = 505
Dangerous builds not checked
Setting up Verlet run ...
  Unit style    : metal
  Current step  : 48000
  Time step     : 0.001
Per MPI rank memory allocation (min/avg/max) = 18.21 | 18.21 | 18.21 Mbytes
Step Temp Press TotEng PotEng Enthalpy Volume 
   48000    2030.0483    480.73918   -53987.814   -59144.321   -53859.735    426852.87 
   48495    2000.0385    -73.61231   -54121.419   -59201.699   -54141.026    426752.85 
Loop time of 68.5901 on 1 procs for 495 steps with 19652 atoms

Performance: 0.624 ns/day, 38.490 hours/ns, 7.217 timesteps/s
99.9% CPU use with 1 MPI tasks x no OpenMP threads

MPI task timing breakdown:
Section |  min time  |  avg time  |  max time  |%varavg| %total
---------------------------------------------------------------
Pair    | 38.734     | 38.734     | 38.734     |   0.0 | 56.47
Neigh   | 28.173     | 28.173     | 28.173     |   0.0 | 41.07
Comm    | 0.56317    | 0.56317    | 0.56317    |   0.0 |  0.82
Output  | 0.00015402 | 0.00015402 | 0.00015402 |   0.0 |  0.00
Modify  | 0.85564    | 0.85564    | 0.85564    |   0.0 |  1.25
Other   |            | 0.2644     |            |       |  0.39

Nlocal:    19652 ave 19652 max 19652 min
Histogram: 1 0 0 0 0 0 0 0 0 0
Nghost:    16599 ave 16599 max 16599 min
Histogram: 1 0 0 0 0 0 0 0 0 0
Neighs:    1.15777e+06 ave 1.15777e+06 max 1.15777e+06 min
Histogram: 1 0 0 0 0 0 0 0 0 0

Total # of neighbors = 1157767
Ave neighs/atom = 58.9134
Neighbor list builds = 495
Dangerous builds not checked
Setting up Verlet run ...
  Unit style    : metal
  Current step  : 48495
  Time step     : 0.001
Per MPI rank memory allocation (min/avg/max) = 18.21 | 18.21 | 18.21 Mbytes
Step Temp Press TotEng PotEng Enthalpy Volume 
   48495    2000.0385    -73.61231   -54121.419   -59201.699   -54141.026    426752.85 
   49000    2020.5762     863.5724   -54219.265   -59351.712   -53990.857    423761.29 
Loop time of 69.9059 on 1 procs for 505 steps with 19652 atoms

Performance: 0.624 ns/day, 38.452 hours/ns, 7.224 timesteps/s
99.9% CPU use with 1 MPI tasks x no OpenMP threads

MPI task timing breakdown:
Section |  min time  |  avg time  |  max time  |%varavg| %total
---------------------------------------------------------------
Pair    | 39.382     | 39.382     | 39.382     |   0.0 | 56.34
Neigh   | 28.759     | 28.759     | 28.759     |   0.0 | 41.14
Comm    | 0.57149    | 0.57149    | 0.57149    |   0.0 |  0.82
Output  | 0.053101   | 0.053101   | 0.053101   |   0.0 |  0.08
Modify  | 0.86976    | 0.86976    | 0.86976    |   0.0 |  1.24
Other   |            | 0.2698     |            |       |  0.39

Nlocal:    19652 ave 19652 max 19652 min
Histogram: 1 0 0 0 0 0 0 0 0 0
Nghost:    16542 ave 16542 max 16542 min
Histogram: 1 0 0 0 0 0 0 0 0 0
Neighs:    1.16617e+06 ave 1.16617e+06 max 1.16617e+06 min
Histogram: 1 0 0 0 0 0 0 0 0 0

Total # of neighbors = 1166172
Ave neighs/atom = 59.3411
Neighbor list builds = 505
Dangerous builds not checked
Setting up Verlet run ...
  Unit style    : metal
  Current step  : 49000
  Time step     : 0.001
Per MPI rank memory allocation (min/avg/max) = 18.21 | 18.21 | 18.21 Mbytes
Step Temp Press TotEng PotEng Enthalpy Volume 
   49000    2020.5762     863.5724   -54219.265   -59351.712   -53990.857    423761.29 
   49495    1955.0452     -566.848   -54402.497    -59368.49   -54552.659    424427.05 
Loop time of 70.2466 on 1 procs for 495 steps with 19652 atoms

Performance: 0.609 ns/day, 39.420 hours/ns, 7.047 timesteps/s
98.6% CPU use with 1 MPI tasks x no OpenMP threads

MPI task timing breakdown:
Section |  min time  |  avg time  |  max time  |%varavg| %total
---------------------------------------------------------------
Pair    | 40.107     | 40.107     | 40.107     |   0.0 | 57.09
Neigh   | 28.403     | 28.403     | 28.403     |   0.0 | 40.43
Comm    | 0.60143    | 0.60143    | 0.60143    |   0.0 |  0.86
Output  | 0.00019097 | 0.00019097 | 0.00019097 |   0.0 |  0.00
Modify  | 0.88157    | 0.88157    | 0.88157    |   0.0 |  1.25
Other   |            | 0.2536     |            |       |  0.36

Nlocal:    19652 ave 19652 max 19652 min
Histogram: 1 0 0 0 0 0 0 0 0 0
Nghost:    16608 ave 16608 max 16608 min
Histogram: 1 0 0 0 0 0 0 0 0 0
Neighs:    1.16463e+06 ave 1.16463e+06 max 1.16463e+06 min
Histogram: 1 0 0 0 0 0 0 0 0 0

Total # of neighbors = 1164627
Ave neighs/atom = 59.2625
Neighbor list builds = 495
Dangerous builds not checked
Setting up Verlet run ...
  Unit style    : metal
  Current step  : 49495
  Time step     : 0.001
Per MPI rank memory allocation (min/avg/max) = 18.21 | 18.21 | 18.21 Mbytes
Step Temp Press TotEng PotEng Enthalpy Volume 
   49495    1955.0452     -566.848   -54402.497    -59368.49   -54552.659    424427.05 
   50000    1951.6407    802.38666    -54535.31   -59492.656   -54324.118    421700.59 
Loop time of 70.284 on 1 procs for 505 steps with 19652 atoms

Performance: 0.621 ns/day, 38.660 hours/ns, 7.185 timesteps/s
99.8% CPU use with 1 MPI tasks x no OpenMP threads

MPI task timing breakdown:
Section |  min time  |  avg time  |  max time  |%varavg| %total
---------------------------------------------------------------
Pair    | 39.661     | 39.661     | 39.661     |   0.0 | 56.43
Neigh   | 28.792     | 28.792     | 28.792     |   0.0 | 40.97
Comm    | 0.58191    | 0.58191    | 0.58191    |   0.0 |  0.83
Output  | 0.1022     | 0.1022     | 0.1022     |   0.0 |  0.15
Modify  | 0.87781    | 0.87781    | 0.87781    |   0.0 |  1.25
Other   |            | 0.2682     |            |       |  0.38

Nlocal:    19652 ave 19652 max 19652 min
Histogram: 1 0 0 0 0 0 0 0 0 0
Nghost:    16680 ave 16680 max 16680 min
Histogram: 1 0 0 0 0 0 0 0 0 0
Neighs:    1.17223e+06 ave 1.17223e+06 max 1.17223e+06 min
Histogram: 1 0 0 0 0 0 0 0 0 0

Total # of neighbors = 1172229
Ave neighs/atom = 59.6493
Neighbor list builds = 505
Dangerous builds not checked
Setting up Verlet run ...
  Unit style    : metal
  Current step  : 50000
  Time step     : 0.001
Per MPI rank memory allocation (min/avg/max) = 18.21 | 18.21 | 18.21 Mbytes
Step Temp Press TotEng PotEng Enthalpy Volume 
   50000    1951.6407    802.38666    -54535.31   -59492.656   -54324.118    421700.59 
   50495      1925.52    441.38429   -54699.709   -59590.705   -54583.937    420240.87 
Loop time of 69.6487 on 1 procs for 495 steps with 19652 atoms

Performance: 0.614 ns/day, 39.085 hours/ns, 7.107 timesteps/s
99.9% CPU use with 1 MPI tasks x no OpenMP threads

MPI task timing breakdown:
Section |  min time  |  avg time  |  max time  |%varavg| %total
---------------------------------------------------------------
Pair    | 39.552     | 39.552     | 39.552     |   0.0 | 56.79
Neigh   | 28.382     | 28.382     | 28.382     |   0.0 | 40.75
Comm    | 0.57508    | 0.57508    | 0.57508    |   0.0 |  0.83
Output  | 0.00015903 | 0.00015903 | 0.00015903 |   0.0 |  0.00
Modify  | 0.87046    | 0.87046    | 0.87046    |   0.0 |  1.25
Other   |            | 0.2699     |            |       |  0.39

Nlocal:    19652 ave 19652 max 19652 min
Histogram: 1 0 0 0 0 0 0 0 0 0
Nghost:    16622 ave 16622 max 16622 min
Histogram: 1 0 0 0 0 0 0 0 0 0
Neighs:    1.17657e+06 ave 1.17657e+06 max 1.17657e+06 min
Histogram: 1 0 0 0 0 0 0 0 0 0

Total # of neighbors = 1176572
Ave neighs/atom = 59.8703
Neighbor list builds = 495
Dangerous builds not checked
Setting up Verlet run ...
  Unit style    : metal
  Current step  : 50495
  Time step     : 0.001
Per MPI rank memory allocation (min/avg/max) = 18.21 | 18.21 | 18.21 Mbytes
Step Temp Press TotEng PotEng Enthalpy Volume 
   50495      1925.52    441.38429   -54699.709   -59590.705   -54583.937    420240.87 
   51000    1891.1193    804.59336   -54767.477   -59571.092   -54556.478    420159.06 
Loop time of 71.4257 on 1 procs for 505 steps with 19652 atoms

Performance: 0.611 ns/day, 39.288 hours/ns, 7.070 timesteps/s
99.7% CPU use with 1 MPI tasks x no OpenMP threads

MPI task timing breakdown:
Section |  min time  |  avg time  |  max time  |%varavg| %total
---------------------------------------------------------------
Pair    | 40.506     | 40.506     | 40.506     |   0.0 | 56.71
Neigh   | 29.083     | 29.083     | 29.083     |   0.0 | 40.72
Comm    | 0.60721    | 0.60721    | 0.60721    |   0.0 |  0.85
Output  | 0.051943   | 0.051943   | 0.051943   |   0.0 |  0.07
Modify  | 0.90123    | 0.90123    | 0.90123    |   0.0 |  1.26
Other   |            | 0.2764     |            |       |  0.39

Nlocal:    19652 ave 19652 max 19652 min
Histogram: 1 0 0 0 0 0 0 0 0 0
Nghost:    16637 ave 16637 max 16637 min
Histogram: 1 0 0 0 0 0 0 0 0 0
Neighs:    1.17643e+06 ave 1.17643e+06 max 1.17643e+06 min
Histogram: 1 0 0 0 0 0 0 0 0 0

Total # of neighbors = 1176426
Ave neighs/atom = 59.8629
Neighbor list builds = 505
Dangerous builds not checked
Setting up Verlet run ...
  Unit style    : metal
  Current step  : 51000
  Time step     : 0.001
Per MPI rank memory allocation (min/avg/max) = 18.21 | 18.21 | 18.21 Mbytes
Step Temp Press TotEng PotEng Enthalpy Volume 
   51000    1891.1193    804.59336   -54767.477   -59571.092   -54556.478    420159.06 
   51495    1864.4914     1009.662   -54976.806   -59712.784   -54713.433    417931.24 
Loop time of 70.8334 on 1 procs for 495 steps with 19652 atoms

Performance: 0.604 ns/day, 39.749 hours/ns, 6.988 timesteps/s
99.9% CPU use with 1 MPI tasks x no OpenMP threads

MPI task timing breakdown:
Section |  min time  |  avg time  |  max time  |%varavg| %total
---------------------------------------------------------------
Pair    | 40.408     | 40.408     | 40.408     |   0.0 | 57.05
Neigh   | 28.597     | 28.597     | 28.597     |   0.0 | 40.37
Comm    | 0.61916    | 0.61916    | 0.61916    |   0.0 |  0.87
Output  | 0.00031495 | 0.00031495 | 0.00031495 |   0.0 |  0.00
Modify  | 0.91656    | 0.91656    | 0.91656    |   0.0 |  1.29
Other   |            | 0.292      |            |       |  0.41

Nlocal:    19652 ave 19652 max 19652 min
Histogram: 1 0 0 0 0 0 0 0 0 0
Nghost:    16587 ave 16587 max 16587 min
Histogram: 1 0 0 0 0 0 0 0 0 0
Neighs:    1.18257e+06 ave 1.18257e+06 max 1.18257e+06 min
Histogram: 1 0 0 0 0 0 0 0 0 0

Total # of neighbors = 1182566
Ave neighs/atom = 60.1754
Neighbor list builds = 495
Dangerous builds not checked
Setting up Verlet run ...
  Unit style    : metal
  Current step  : 51495
  Time step     : 0.001
Per MPI rank memory allocation (min/avg/max) = 18.21 | 18.21 | 18.21 Mbytes
Step Temp Press TotEng PotEng Enthalpy Volume 
   51495    1864.4914     1009.662   -54976.806   -59712.784   -54713.433    417931.24 
   52000    1866.7959    33.820851   -55043.147   -59784.979   -55034.327    417796.73 
Loop time of 72.5852 on 1 procs for 505 steps with 19652 atoms

Performance: 0.601 ns/day, 39.926 hours/ns, 6.957 timesteps/s
99.9% CPU use with 1 MPI tasks x no OpenMP threads

MPI task timing breakdown:
Section |  min time  |  avg time  |  max time  |%varavg| %total
---------------------------------------------------------------
Pair    | 41.365     | 41.365     | 41.365     |   0.0 | 56.99
Neigh   | 29.291     | 29.291     | 29.291     |   0.0 | 40.35
Comm    | 0.64558    | 0.64558    | 0.64558    |   0.0 |  0.89
Output  | 0.05217    | 0.05217    | 0.05217    |   0.0 |  0.07
Modify  | 0.9318     | 0.9318     | 0.9318     |   0.0 |  1.28
Other   |            | 0.2998     |            |       |  0.41

Nlocal:    19652 ave 19652 max 19652 min
Histogram: 1 0 0 0 0 0 0 0 0 0
Nghost:    16670 ave 16670 max 16670 min
Histogram: 1 0 0 0 0 0 0 0 0 0
Neighs:    1.18364e+06 ave 1.18364e+06 max 1.18364e+06 min
Histogram: 1 0 0 0 0 0 0 0 0 0

Total # of neighbors = 1183644
Ave neighs/atom = 60.2302
Neighbor list builds = 505
Dangerous builds not checked
Setting up Verlet run ...
  Unit style    : metal
  Current step  : 52000
  Time step     : 0.001
Per MPI rank memory allocation (min/avg/max) = 18.21 | 18.21 | 18.21 Mbytes
Step Temp Press TotEng PotEng Enthalpy Volume 
   52000    1866.7959    33.820851   -55043.147   -59784.979   -55034.327    417796.73 
   52495    1816.0621    392.74896   -55257.658   -59870.621   -55155.729    415811.22 
Loop time of 70.5471 on 1 procs for 495 steps with 19652 atoms

Performance: 0.606 ns/day, 39.589 hours/ns, 7.017 timesteps/s
99.7% CPU use with 1 MPI tasks x no OpenMP threads

MPI task timing breakdown:
Section |  min time  |  avg time  |  max time  |%varavg| %total
---------------------------------------------------------------
Pair    | 40.307     | 40.307     | 40.307     |   0.0 | 57.13
Neigh   | 28.474     | 28.474     | 28.474     |   0.0 | 40.36
Comm    | 0.59527    | 0.59527    | 0.59527    |   0.0 |  0.84
Output  | 0.00015688 | 0.00015688 | 0.00015688 |   0.0 |  0.00
Modify  | 0.88453    | 0.88453    | 0.88453    |   0.0 |  1.25
Other   |            | 0.2865     |            |       |  0.41

Nlocal:    19652 ave 19652 max 19652 min
Histogram: 1 0 0 0 0 0 0 0 0 0
Nghost:    16656 ave 16656 max 16656 min
Histogram: 1 0 0 0 0 0 0 0 0 0
Neighs:    1.18845e+06 ave 1.18845e+06 max 1.18845e+06 min
Histogram: 1 0 0 0 0 0 0 0 0 0

Total # of neighbors = 1188448
Ave neighs/atom = 60.4747
Neighbor list builds = 495
Dangerous builds not checked
Setting up Verlet run ...
  Unit style    : metal
  Current step  : 52495
  Time step     : 0.001
Per MPI rank memory allocation (min/avg/max) = 18.21 | 18.21 | 18.21 Mbytes
Step Temp Press TotEng PotEng Enthalpy Volume 
   52495    1816.0621    392.74896   -55257.658   -59870.621   -55155.729    415811.22 
   53000    1800.4445    888.70724   -55383.975   -59957.269   -55154.161    414312.82 
Loop time of 72.05 on 1 procs for 505 steps with 19652 atoms

Performance: 0.606 ns/day, 39.631 hours/ns, 7.009 timesteps/s
99.6% CPU use with 1 MPI tasks x no OpenMP threads

MPI task timing breakdown:
Section |  min time  |  avg time  |  max time  |%varavg| %total
---------------------------------------------------------------
Pair    | 41.11      | 41.11      | 41.11      |   0.0 | 57.06
Neigh   | 29.061     | 29.061     | 29.061     |   0.0 | 40.33
Comm    | 0.61496    | 0.61496    | 0.61496    |   0.0 |  0.85
Output  | 0.05135    | 0.05135    | 0.05135    |   0.0 |  0.07
Modify  | 0.90832    | 0.90832    | 0.90832    |   0.0 |  1.26
Other   |            | 0.304      |            |       |  0.42

Nlocal:    19652 ave 19652 max 19652 min
Histogram: 1 0 0 0 0 0 0 0 0 0
Nghost:    16783 ave 16783 max 16783 min
Histogram: 1 0 0 0 0 0 0 0 0 0
Neighs:    1.19323e+06 ave 1.19323e+06 max 1.19323e+06 min
Histogram: 1 0 0 0 0 0 0 0 0 0

Total # of neighbors = 1193231
Ave neighs/atom = 60.718
Neighbor list builds = 505
Dangerous builds not checked
Setting up Verlet run ...
  Unit style    : metal
  Current step  : 53000
  Time step     : 0.001
Per MPI rank memory allocation (min/avg/max) = 18.21 | 18.21 | 18.21 Mbytes
Step Temp Press TotEng PotEng Enthalpy Volume 
   53000    1800.4445    888.70724   -55383.975   -59957.269   -55154.161    414312.82 
   53495    1762.7082    681.34348    -55523.13    -60000.57   -55347.232     413624.9 
Loop time of 70.3074 on 1 procs for 495 steps with 19652 atoms

Performance: 0.608 ns/day, 39.454 hours/ns, 7.041 timesteps/s
100.0% CPU use with 1 MPI tasks x no OpenMP threads

MPI task timing breakdown:
Section |  min time  |  avg time  |  max time  |%varavg| %total
---------------------------------------------------------------
Pair    | 40.245     | 40.245     | 40.245     |   0.0 | 57.24
Neigh   | 28.343     | 28.343     | 28.343     |   0.0 | 40.31
Comm    | 0.58534    | 0.58534    | 0.58534    |   0.0 |  0.83
Output  | 0.00016189 | 0.00016189 | 0.00016189 |   0.0 |  0.00
Modify  | 0.87142    | 0.87142    | 0.87142    |   0.0 |  1.24
Other   |            | 0.2627     |            |       |  0.37

Nlocal:    19652 ave 19652 max 19652 min
Histogram: 1 0 0 0 0 0 0 0 0 0
Nghost:    16714 ave 16714 max 16714 min
Histogram: 1 0 0 0 0 0 0 0 0 0
Neighs:    1.19525e+06 ave 1.19525e+06 max 1.19525e+06 min
Histogram: 1 0 0 0 0 0 0 0 0 0

Total # of neighbors = 1195249
Ave neighs/atom = 60.8207
Neighbor list builds = 495
Dangerous builds not checked
Setting up Verlet run ...
  Unit style    : metal
  Current step  : 53495
  Time step     : 0.001
Per MPI rank memory allocation (min/avg/max) = 18.21 | 18.21 | 18.21 Mbytes
Step Temp Press TotEng PotEng Enthalpy Volume 
   53495    1762.7082    681.34348    -55523.13    -60000.57   -55347.232     413624.9 
   54000    1761.4205    311.88237   -55591.346   -60065.514   -55510.943    413037.09 
Loop time of 71.2248 on 1 procs for 505 steps with 19652 atoms

Performance: 0.613 ns/day, 39.178 hours/ns, 7.090 timesteps/s
99.9% CPU use with 1 MPI tasks x no OpenMP threads

MPI task timing breakdown:
Section |  min time  |  avg time  |  max time  |%varavg| %total
---------------------------------------------------------------
Pair    | 40.712     | 40.712     | 40.712     |   0.0 | 57.16
Neigh   | 28.752     | 28.752     | 28.752     |   0.0 | 40.37
Comm    | 0.5721     | 0.5721     | 0.5721     |   0.0 |  0.80
Output  | 0.050448   | 0.050448   | 0.050448   |   0.0 |  0.07
Modify  | 0.87033    | 0.87033    | 0.87033    |   0.0 |  1.22
Other   |            | 0.2679     |            |       |  0.38

Nlocal:    19652 ave 19652 max 19652 min
Histogram: 1 0 0 0 0 0 0 0 0 0
Nghost:    16735 ave 16735 max 16735 min
Histogram: 1 0 0 0 0 0 0 0 0 0
Neighs:    1.19704e+06 ave 1.19704e+06 max 1.19704e+06 min
Histogram: 1 0 0 0 0 0 0 0 0 0

Total # of neighbors = 1197036
Ave neighs/atom = 60.9117
Neighbor list builds = 505
Dangerous builds not checked
Setting up Verlet run ...
  Unit style    : metal
  Current step  : 54000
  Time step     : 0.001
Per MPI rank memory allocation (min/avg/max) = 18.21 | 18.21 | 18.21 Mbytes
Step Temp Press TotEng PotEng Enthalpy Volume 
   54000    1761.4205    311.88237   -55591.346   -60065.514   -55510.943    413037.09 
   54495    1709.1928     958.8988   -55839.506   -60181.012   -55593.594    410883.06 
Loop time of 70.3621 on 1 procs for 495 steps with 19652 atoms

Performance: 0.608 ns/day, 39.485 hours/ns, 7.035 timesteps/s
100.0% CPU use with 1 MPI tasks x no OpenMP threads

MPI task timing breakdown:
Section |  min time  |  avg time  |  max time  |%varavg| %total
---------------------------------------------------------------
Pair    | 40.351     | 40.351     | 40.351     |   0.0 | 57.35
Neigh   | 28.283     | 28.283     | 28.283     |   0.0 | 40.20
Comm    | 0.57863    | 0.57863    | 0.57863    |   0.0 |  0.82
Output  | 0.00016904 | 0.00016904 | 0.00016904 |   0.0 |  0.00
Modify  | 0.87185    | 0.87185    | 0.87185    |   0.0 |  1.24
Other   |            | 0.2774     |            |       |  0.39

Nlocal:    19652 ave 19652 max 19652 min
Histogram: 1 0 0 0 0 0 0 0 0 0
Nghost:    16763 ave 16763 max 16763 min
Histogram: 1 0 0 0 0 0 0 0 0 0
Neighs:    1.20404e+06 ave 1.20404e+06 max 1.20404e+06 min
Histogram: 1 0 0 0 0 0 0 0 0 0

Total # of neighbors = 1204038
Ave neighs/atom = 61.268
Neighbor list builds = 495
Dangerous builds not checked
Setting up Verlet run ...
  Unit style    : metal
  Current step  : 54495
  Time step     : 0.001
Per MPI rank memory allocation (min/avg/max) = 18.21 | 18.21 | 18.21 Mbytes
Step Temp Press TotEng PotEng Enthalpy Volume 
   54495    1709.1928     958.8988   -55839.506   -60181.012   -55593.594    410883.06 
   55000    1692.1759    376.71518   -55962.279    -60260.56   -55865.856    410088.41 
Loop time of 71.9605 on 1 procs for 505 steps with 19652 atoms

Performance: 0.606 ns/day, 39.582 hours/ns, 7.018 timesteps/s
99.8% CPU use with 1 MPI tasks x no OpenMP threads

MPI task timing breakdown:
Section |  min time  |  avg time  |  max time  |%varavg| %total
---------------------------------------------------------------
Pair    | 41.231     | 41.231     | 41.231     |   0.0 | 57.30
Neigh   | 28.908     | 28.908     | 28.908     |   0.0 | 40.17
Comm    | 0.59668    | 0.59668    | 0.59668    |   0.0 |  0.83
Output  | 0.052415   | 0.052415   | 0.052415   |   0.0 |  0.07
Modify  | 0.89028    | 0.89028    | 0.89028    |   0.0 |  1.24
Other   |            | 0.2825     |            |       |  0.39

Nlocal:    19652 ave 19652 max 19652 min
Histogram: 1 0 0 0 0 0 0 0 0 0
Nghost:    16802 ave 16802 max 16802 min
Histogram: 1 0 0 0 0 0 0 0 0 0
Neighs:    1.20616e+06 ave 1.20616e+06 max 1.20616e+06 min
Histogram: 1 0 0 0 0 0 0 0 0 0

Total # of neighbors = 1206161
Ave neighs/atom = 61.376
Neighbor list builds = 505
Dangerous builds not checked
Setting up Verlet run ...
  Unit style    : metal
  Current step  : 55000
  Time step     : 0.001
Per MPI rank memory allocation (min/avg/max) = 18.21 | 18.21 | 18.21 Mbytes
Step Temp Press TotEng PotEng Enthalpy Volume 
   55000    1692.1759    376.71518   -55962.279    -60260.56   -55865.856    410088.41 
   55495    1672.3594     451.4274   -56122.433   -60370.379   -56007.248    408807.71 
Loop time of 70.9833 on 1 procs for 495 steps with 19652 atoms

Performance: 0.603 ns/day, 39.834 hours/ns, 6.973 timesteps/s
99.9% CPU use with 1 MPI tasks x no OpenMP threads

MPI task timing breakdown:
Section |  min time  |  avg time  |  max time  |%varavg| %total
---------------------------------------------------------------
Pair    | 40.893     | 40.893     | 40.893     |   0.0 | 57.61
Neigh   | 28.327     | 28.327     | 28.327     |   0.0 | 39.91
Comm    | 0.59933    | 0.59933    | 0.59933    |   0.0 |  0.84
Output  | 0.00017905 | 0.00017905 | 0.00017905 |   0.0 |  0.00
Modify  | 0.88601    | 0.88601    | 0.88601    |   0.0 |  1.25
Other   |            | 0.2777     |            |       |  0.39

Nlocal:    19652 ave 19652 max 19652 min
Histogram: 1 0 0 0 0 0 0 0 0 0
Nghost:    16882 ave 16882 max 16882 min
Histogram: 1 0 0 0 0 0 0 0 0 0
Neighs:    1.21024e+06 ave 1.21024e+06 max 1.21024e+06 min
Histogram: 1 0 0 0 0 0 0 0 0 0

Total # of neighbors = 1210239
Ave neighs/atom = 61.5835
Neighbor list builds = 495
Dangerous builds not checked
Setting up Verlet run ...
  Unit style    : metal
  Current step  : 55495
  Time step     : 0.001
Per MPI rank memory allocation (min/avg/max) = 18.21 | 18.21 | 18.21 Mbytes
Step Temp Press TotEng PotEng Enthalpy Volume 
   55495    1672.3594     451.4274   -56122.433   -60370.379   -56007.248    408807.71 
   56000    1656.7451    326.89721   -56223.033   -60431.316   -56139.883    407529.51 
Loop time of 73.0258 on 1 procs for 505 steps with 19652 atoms

Performance: 0.597 ns/day, 40.168 hours/ns, 6.915 timesteps/s
99.9% CPU use with 1 MPI tasks x no OpenMP threads

MPI task timing breakdown:
Section |  min time  |  avg time  |  max time  |%varavg| %total
---------------------------------------------------------------
Pair    | 41.982     | 41.982     | 41.982     |   0.0 | 57.49
Neigh   | 29.134     | 29.134     | 29.134     |   0.0 | 39.90
Comm    | 0.64152    | 0.64152    | 0.64152    |   0.0 |  0.88
Output  | 0.053129   | 0.053129   | 0.053129   |   0.0 |  0.07
Modify  | 0.92788    | 0.92788    | 0.92788    |   0.0 |  1.27
Other   |            | 0.2872     |            |       |  0.39

Nlocal:    19652 ave 19652 max 19652 min
Histogram: 1 0 0 0 0 0 0 0 0 0
Nghost:    16851 ave 16851 max 16851 min
Histogram: 1 0 0 0 0 0 0 0 0 0
Neighs:    1.21428e+06 ave 1.21428e+06 max 1.21428e+06 min
Histogram: 1 0 0 0 0 0 0 0 0 0

Total # of neighbors = 1214279
Ave neighs/atom = 61.7891
Neighbor list builds = 505
Dangerous builds not checked
Setting up Verlet run ...
  Unit style    : metal
  Current step  : 56000
  Time step     : 0.001
Per MPI rank memory allocation (min/avg/max) = 18.21 | 18.21 | 18.21 Mbytes
Step Temp Press TotEng PotEng Enthalpy Volume 
   56000    1656.7451    326.89721   -56223.033   -60431.316   -56139.883    407529.51 
   56495    1624.4159    174.74344   -56396.857   -60523.022   -56352.523    406487.42 
Loop time of 71.6893 on 1 procs for 495 steps with 19652 atoms

Performance: 0.597 ns/day, 40.230 hours/ns, 6.905 timesteps/s
99.7% CPU use with 1 MPI tasks x no OpenMP threads

MPI task timing breakdown:
Section |  min time  |  avg time  |  max time  |%varavg| %total
---------------------------------------------------------------
Pair    | 41.303     | 41.303     | 41.303     |   0.0 | 57.61
Neigh   | 28.543     | 28.543     | 28.543     |   0.0 | 39.81
Comm    | 0.62499    | 0.62499    | 0.62499    |   0.0 |  0.87
Output  | 0.00019693 | 0.00019693 | 0.00019693 |   0.0 |  0.00
Modify  | 0.91466    | 0.91466    | 0.91466    |   0.0 |  1.28
Other   |            | 0.3037     |            |       |  0.42

Nlocal:    19652 ave 19652 max 19652 min
Histogram: 1 0 0 0 0 0 0 0 0 0
Nghost:    16930 ave 16930 max 16930 min
Histogram: 1 0 0 0 0 0 0 0 0 0
Neighs:    1.21712e+06 ave 1.21712e+06 max 1.21712e+06 min
Histogram: 1 0 0 0 0 0 0 0 0 0

Total # of neighbors = 1217122
Ave neighs/atom = 61.9337
Neighbor list builds = 495
Dangerous builds not checked
Setting up Verlet run ...
  Unit style    : metal
  Current step  : 56495
  Time step     : 0.001
Per MPI rank memory allocation (min/avg/max) = 18.21 | 18.21 | 18.21 Mbytes
Step Temp Press TotEng PotEng Enthalpy Volume 
   56495    1624.4159    174.74344   -56396.857   -60523.022   -56352.523    406487.42 
   57000    1596.1745    389.72131   -56560.245   -60614.674   -56461.784    404784.34 
Loop time of 72.7559 on 1 procs for 505 steps with 19652 atoms

Performance: 0.600 ns/day, 40.020 hours/ns, 6.941 timesteps/s
99.9% CPU use with 1 MPI tasks x no OpenMP threads

MPI task timing breakdown:
Section |  min time  |  avg time  |  max time  |%varavg| %total
---------------------------------------------------------------
Pair    | 41.862     | 41.862     | 41.862     |   0.0 | 57.54
Neigh   | 29.02      | 29.02      | 29.02      |   0.0 | 39.89
Comm    | 0.61651    | 0.61651    | 0.61651    |   0.0 |  0.85
Output  | 0.051318   | 0.051318   | 0.051318   |   0.0 |  0.07
Modify  | 0.90969    | 0.90969    | 0.90969    |   0.0 |  1.25
Other   |            | 0.2968     |            |       |  0.41

Nlocal:    19652 ave 19652 max 19652 min
Histogram: 1 0 0 0 0 0 0 0 0 0
Nghost:    16832 ave 16832 max 16832 min
Histogram: 1 0 0 0 0 0 0 0 0 0
Neighs:    1.22313e+06 ave 1.22313e+06 max 1.22313e+06 min
Histogram: 1 0 0 0 0 0 0 0 0 0

Total # of neighbors = 1223132
Ave neighs/atom = 62.2396
Neighbor list builds = 505
Dangerous builds not checked
Setting up Verlet run ...
  Unit style    : metal
  Current step  : 57000
  Time step     : 0.001
Per MPI rank memory allocation (min/avg/max) = 18.21 | 18.21 | 18.21 Mbytes
Step Temp Press TotEng PotEng Enthalpy Volume 
   57000    1596.1745    389.72131   -56560.245   -60614.674   -56461.784    404784.34 
   57495    1573.1787   -170.43267   -56694.165   -60690.182   -56737.149    404078.98 
Loop time of 72.3197 on 1 procs for 495 steps with 19652 atoms

Performance: 0.591 ns/day, 40.583 hours/ns, 6.845 timesteps/s
99.5% CPU use with 1 MPI tasks x no OpenMP threads

MPI task timing breakdown:
Section |  min time  |  avg time  |  max time  |%varavg| %total
---------------------------------------------------------------
Pair    | 41.954     | 41.954     | 41.954     |   0.0 | 58.01
Neigh   | 28.517     | 28.517     | 28.517     |   0.0 | 39.43
Comm    | 0.62946    | 0.62946    | 0.62946    |   0.0 |  0.87
Output  | 0.00080204 | 0.00080204 | 0.00080204 |   0.0 |  0.00
Modify  | 0.92355    | 0.92355    | 0.92355    |   0.0 |  1.28
Other   |            | 0.2947     |            |       |  0.41

Nlocal:    19652 ave 19652 max 19652 min
Histogram: 1 0 0 0 0 0 0 0 0 0
Nghost:    16976 ave 16976 max 16976 min
Histogram: 1 0 0 0 0 0 0 0 0 0
Neighs:    1.22476e+06 ave 1.22476e+06 max 1.22476e+06 min
Histogram: 1 0 0 0 0 0 0 0 0 0

Total # of neighbors = 1224762
Ave neighs/atom = 62.3225
Neighbor list builds = 495
Dangerous builds not checked
Setting up Verlet run ...
  Unit style    : metal
  Current step  : 57495
  Time step     : 0.001
Per MPI rank memory allocation (min/avg/max) = 18.21 | 18.21 | 18.21 Mbytes
Step Temp Press TotEng PotEng Enthalpy Volume 
   57495    1573.1787   -170.43267   -56694.165   -60690.182   -56737.149    404078.98 
   58000    1537.9237    196.16491   -56818.183   -60724.649   -56768.817    403197.84 
Loop time of 72.7842 on 1 procs for 505 steps with 19652 atoms

Performance: 0.599 ns/day, 40.035 hours/ns, 6.938 timesteps/s
99.8% CPU use with 1 MPI tasks x no OpenMP threads

MPI task timing breakdown:
Section |  min time  |  avg time  |  max time  |%varavg| %total
---------------------------------------------------------------
Pair    | 41.998     | 41.998     | 41.998     |   0.0 | 57.70
Neigh   | 28.92      | 28.92      | 28.92      |   0.0 | 39.73
Comm    | 0.60027    | 0.60027    | 0.60027    |   0.0 |  0.82
Output  | 0.069589   | 0.069589   | 0.069589   |   0.0 |  0.10
Modify  | 0.89696    | 0.89696    | 0.89696    |   0.0 |  1.23
Other   |            | 0.2999     |            |       |  0.41

Nlocal:    19652 ave 19652 max 19652 min
Histogram: 1 0 0 0 0 0 0 0 0 0
Nghost:    16969 ave 16969 max 16969 min
Histogram: 1 0 0 0 0 0 0 0 0 0
Neighs:    1.2272e+06 ave 1.2272e+06 max 1.2272e+06 min
Histogram: 1 0 0 0 0 0 0 0 0 0

Total # of neighbors = 1227204
Ave neighs/atom = 62.4468
Neighbor list builds = 505
Dangerous builds not checked
Setting up Verlet run ...
  Unit style    : metal
  Current step  : 58000
  Time step     : 0.001
Per MPI rank memory allocation (min/avg/max) = 18.21 | 18.21 | 18.21 Mbytes
Step Temp Press TotEng PotEng Enthalpy Volume 
   58000    1537.9237    196.16491   -56818.183   -60724.649   -56768.817    403197.84 
   58495    1515.2902    651.20826   -56997.838   -60846.814   -56834.753    401240.37 
Loop time of 71.9699 on 1 procs for 495 steps with 19652 atoms

Performance: 0.594 ns/day, 40.387 hours/ns, 6.878 timesteps/s
99.8% CPU use with 1 MPI tasks x no OpenMP threads

MPI task timing breakdown:
Section |  min time  |  avg time  |  max time  |%varavg| %total
---------------------------------------------------------------
Pair    | 41.739     | 41.739     | 41.739     |   0.0 | 57.99
Neigh   | 28.426     | 28.426     | 28.426     |   0.0 | 39.50
Comm    | 0.60801    | 0.60801    | 0.60801    |   0.0 |  0.84
Output  | 0.00018096 | 0.00018096 | 0.00018096 |   0.0 |  0.00
Modify  | 0.89774    | 0.89774    | 0.89774    |   0.0 |  1.25
Other   |            | 0.2991     |            |       |  0.42

Nlocal:    19652 ave 19652 max 19652 min
Histogram: 1 0 0 0 0 0 0 0 0 0
Nghost:    17067 ave 17067 max 17067 min
Histogram: 1 0 0 0 0 0 0 0 0 0
Neighs:    1.23396e+06 ave 1.23396e+06 max 1.23396e+06 min
Histogram: 1 0 0 0 0 0 0 0 0 0

Total # of neighbors = 1233960
Ave neighs/atom = 62.7906
Neighbor list builds = 495
Dangerous builds not checked
Setting up Verlet run ...
  Unit style    : metal
  Current step  : 58495
  Time step     : 0.001
Per MPI rank memory allocation (min/avg/max) = 18.21 | 18.21 | 18.21 Mbytes
Step Temp Press TotEng PotEng Enthalpy Volume 
   58495    1515.2902    651.20826   -56997.838   -60846.814   -56834.753    401240.37 
   59000    1503.0585    20.220398   -57079.197   -60897.102   -57074.136    400996.32 
Loop time of 72.74 on 1 procs for 505 steps with 19652 atoms

Performance: 0.600 ns/day, 40.011 hours/ns, 6.943 timesteps/s
99.9% CPU use with 1 MPI tasks x no OpenMP threads

MPI task timing breakdown:
Section |  min time  |  avg time  |  max time  |%varavg| %total
---------------------------------------------------------------
Pair    | 42.056     | 42.056     | 42.056     |   0.0 | 57.82
Neigh   | 28.838     | 28.838     | 28.838     |   0.0 | 39.65
Comm    | 0.60282    | 0.60282    | 0.60282    |   0.0 |  0.83
Output  | 0.053737   | 0.053737   | 0.053737   |   0.0 |  0.07
Modify  | 0.90126    | 0.90126    | 0.90126    |   0.0 |  1.24
Other   |            | 0.2885     |            |       |  0.40

Nlocal:    19652 ave 19652 max 19652 min
Histogram: 1 0 0 0 0 0 0 0 0 0
Nghost:    16963 ave 16963 max 16963 min
Histogram: 1 0 0 0 0 0 0 0 0 0
Neighs:    1.23467e+06 ave 1.23467e+06 max 1.23467e+06 min
Histogram: 1 0 0 0 0 0 0 0 0 0

Total # of neighbors = 1234671
Ave neighs/atom = 62.8267
Neighbor list builds = 505
Dangerous builds not checked
Setting up Verlet run ...
  Unit style    : metal
  Current step  : 59000
  Time step     : 0.001
Per MPI rank memory allocation (min/avg/max) = 18.21 | 18.21 | 18.21 Mbytes
Step Temp Press TotEng PotEng Enthalpy Volume 
   59000    1503.0585    20.220398   -57079.197   -60897.102   -57074.136    400996.32 
   59495    1468.3533     306.3724   -57253.712   -60983.463   -57177.317    399507.02 
Loop time of 70.9976 on 1 procs for 495 steps with 19652 atoms

Performance: 0.602 ns/day, 39.842 hours/ns, 6.972 timesteps/s
99.8% CPU use with 1 MPI tasks x no OpenMP threads

MPI task timing breakdown:
Section |  min time  |  avg time  |  max time  |%varavg| %total
---------------------------------------------------------------
Pair    | 41.144     | 41.144     | 41.144     |   0.0 | 57.95
Neigh   | 28.147     | 28.147     | 28.147     |   0.0 | 39.64
Comm    | 0.57382    | 0.57382    | 0.57382    |   0.0 |  0.81
Output  | 0.00016785 | 0.00016785 | 0.00016785 |   0.0 |  0.00
Modify  | 0.86368    | 0.86368    | 0.86368    |   0.0 |  1.22
Other   |            | 0.2688     |            |       |  0.38

Nlocal:    19652 ave 19652 max 19652 min
Histogram: 1 0 0 0 0 0 0 0 0 0
Nghost:    16991 ave 16991 max 16991 min
Histogram: 1 0 0 0 0 0 0 0 0 0
Neighs:    1.23982e+06 ave 1.23982e+06 max 1.23982e+06 min
Histogram: 1 0 0 0 0 0 0 0 0 0

Total # of neighbors = 1239815
Ave neighs/atom = 63.0885
Neighbor list builds = 495
Dangerous builds not checked
Setting up Verlet run ...
  Unit style    : metal
  Current step  : 59495
  Time step     : 0.001
Per MPI rank memory allocation (min/avg/max) = 18.21 | 18.21 | 18.21 Mbytes
Step Temp Press TotEng PotEng Enthalpy Volume 
   59495    1468.3533     306.3724   -57253.712   -60983.463   -57177.317    399507.02 
   60000    1443.7284    800.78543   -57423.969   -61091.171   -57225.244    397600.19 
Loop time of 72.0575 on 1 procs for 505 steps with 19652 atoms

Performance: 0.606 ns/day, 39.636 hours/ns, 7.008 timesteps/s
99.9% CPU use with 1 MPI tasks x no OpenMP threads

MPI task timing breakdown:
Section |  min time  |  avg time  |  max time  |%varavg| %total
---------------------------------------------------------------
Pair    | 41.704     | 41.704     | 41.704     |   0.0 | 57.88
Neigh   | 28.575     | 28.575     | 28.575     |   0.0 | 39.66
Comm    | 0.57733    | 0.57733    | 0.57733    |   0.0 |  0.80
Output  | 0.050958   | 0.050958   | 0.050958   |   0.0 |  0.07
Modify  | 0.87417    | 0.87417    | 0.87417    |   0.0 |  1.21
Other   |            | 0.2766     |            |       |  0.38

Nlocal:    19652 ave 19652 max 19652 min
Histogram: 1 0 0 0 0 0 0 0 0 0
Nghost:    17024 ave 17024 max 17024 min
Histogram: 1 0 0 0 0 0 0 0 0 0
Neighs:    1.24619e+06 ave 1.24619e+06 max 1.24619e+06 min
Histogram: 1 0 0 0 0 0 0 0 0 0

Total # of neighbors = 1246187
Ave neighs/atom = 63.4127
Neighbor list builds = 505
Dangerous builds not checked
Setting up Verlet run ...
  Unit style    : metal
  Current step  : 60000
  Time step     : 0.001
Per MPI rank memory allocation (min/avg/max) = 18.21 | 18.21 | 18.21 Mbytes
Step Temp Press TotEng PotEng Enthalpy Volume 
   60000    1443.7284    800.78543   -57423.969   -61091.171   -57225.244    397600.19 
   60495    1417.6646    301.45754   -57591.986   -61192.983   -57517.399       396412 
Loop time of 71.6401 on 1 procs for 495 steps with 19652 atoms

Performance: 0.597 ns/day, 40.202 hours/ns, 6.910 timesteps/s
99.9% CPU use with 1 MPI tasks x no OpenMP threads

MPI task timing breakdown:
Section |  min time  |  avg time  |  max time  |%varavg| %total
---------------------------------------------------------------
Pair    | 41.675     | 41.675     | 41.675     |   0.0 | 58.17
Neigh   | 28.2       | 28.2       | 28.2       |   0.0 | 39.36
Comm    | 0.60193    | 0.60193    | 0.60193    |   0.0 |  0.84
Output  | 0.00016117 | 0.00016117 | 0.00016117 |   0.0 |  0.00
Modify  | 0.88646    | 0.88646    | 0.88646    |   0.0 |  1.24
Other   |            | 0.2764     |            |       |  0.39

Nlocal:    19652 ave 19652 max 19652 min
Histogram: 1 0 0 0 0 0 0 0 0 0
Nghost:    17017 ave 17017 max 17017 min
Histogram: 1 0 0 0 0 0 0 0 0 0
Neighs:    1.25003e+06 ave 1.25003e+06 max 1.25003e+06 min
Histogram: 1 0 0 0 0 0 0 0 0 0

Total # of neighbors = 1250026
Ave neighs/atom = 63.6081
Neighbor list builds = 495
Dangerous builds not checked
Setting up Verlet run ...
  Unit style    : metal
  Current step  : 60495
  Time step     : 0.001
Per MPI rank memory allocation (min/avg/max) = 18.21 | 18.21 | 18.21 Mbytes
Step Temp Press TotEng PotEng Enthalpy Volume 
   60495    1417.6646    301.45754   -57591.986   -61192.983   -57517.399       396412 
   61000    1389.8922    732.65019   -57721.519   -61251.972    -57540.71    395398.04 
Loop time of 73.701 on 1 procs for 505 steps with 19652 atoms

Performance: 0.592 ns/day, 40.540 hours/ns, 6.852 timesteps/s
99.6% CPU use with 1 MPI tasks x no OpenMP threads

MPI task timing breakdown:
Section |  min time  |  avg time  |  max time  |%varavg| %total
---------------------------------------------------------------
Pair    | 42.818     | 42.818     | 42.818     |   0.0 | 58.10
Neigh   | 28.952     | 28.952     | 28.952     |   0.0 | 39.28
Comm    | 0.63465    | 0.63465    | 0.63465    |   0.0 |  0.86
Output  | 0.052492   | 0.052492   | 0.052492   |   0.0 |  0.07
Modify  | 0.9298     | 0.9298     | 0.9298     |   0.0 |  1.26
Other   |            | 0.3137     |            |       |  0.43

Nlocal:    19652 ave 19652 max 19652 min
Histogram: 1 0 0 0 0 0 0 0 0 0
Nghost:    17062 ave 17062 max 17062 min
Histogram: 1 0 0 0 0 0 0 0 0 0
Neighs:    1.25256e+06 ave 1.25256e+06 max 1.25256e+06 min
Histogram: 1 0 0 0 0 0 0 0 0 0

Total # of neighbors = 1252564
Ave neighs/atom = 63.7372
Neighbor list builds = 505
Dangerous builds not checked
Setting up Verlet run ...
  Unit style    : metal
  Current step  : 61000
  Time step     : 0.001
Per MPI rank memory allocation (min/avg/max) = 18.21 | 18.21 | 18.21 Mbytes
Step Temp Press TotEng PotEng Enthalpy Volume 
   61000    1389.8922    732.65019   -57721.519   -61251.972    -57540.71    395398.04 
   61495    1363.4403    302.20408   -57847.697   -61310.959   -57773.219    394853.35 
Loop time of 72.4998 on 1 procs for 495 steps with 19652 atoms

Performance: 0.590 ns/day, 40.685 hours/ns, 6.828 timesteps/s
99.9% CPU use with 1 MPI tasks x no OpenMP threads

MPI task timing breakdown:
Section |  min time  |  avg time  |  max time  |%varavg| %total
---------------------------------------------------------------
Pair    | 42.316     | 42.316     | 42.316     |   0.0 | 58.37
Neigh   | 28.374     | 28.374     | 28.374     |   0.0 | 39.14
Comm    | 0.61244    | 0.61244    | 0.61244    |   0.0 |  0.84
Output  | 0.00028491 | 0.00028491 | 0.00028491 |   0.0 |  0.00
Modify  | 0.89065    | 0.89065    | 0.89065    |   0.0 |  1.23
Other   |            | 0.3061     |            |       |  0.42

Nlocal:    19652 ave 19652 max 19652 min
Histogram: 1 0 0 0 0 0 0 0 0 0
Nghost:    17099 ave 17099 max 17099 min
Histogram: 1 0 0 0 0 0 0 0 0 0
Neighs:    1.25491e+06 ave 1.25491e+06 max 1.25491e+06 min
Histogram: 1 0 0 0 0 0 0 0 0 0

Total # of neighbors = 1254910
Ave neighs/atom = 63.8566
Neighbor list builds = 495
Dangerous builds not checked
Setting up Verlet run ...
  Unit style    : metal
  Current step  : 61495
  Time step     : 0.001
Per MPI rank memory allocation (min/avg/max) = 18.21 | 18.21 | 18.21 Mbytes
Step Temp Press TotEng PotEng Enthalpy Volume 
   61495    1363.4403    302.20408   -57847.697   -61310.959   -57773.219    394853.35 
   62000    1335.3905    36.245602   -58006.115   -61398.128   -57997.206    393820.18 
Loop time of 73.7185 on 1 procs for 505 steps with 19652 atoms

Performance: 0.592 ns/day, 40.549 hours/ns, 6.850 timesteps/s
99.9% CPU use with 1 MPI tasks x no OpenMP threads

MPI task timing breakdown:
Section |  min time  |  avg time  |  max time  |%varavg| %total
---------------------------------------------------------------
Pair    | 42.877     | 42.877     | 42.877     |   0.0 | 58.16
Neigh   | 28.932     | 28.932     | 28.932     |   0.0 | 39.25
Comm    | 0.62228    | 0.62228    | 0.62228    |   0.0 |  0.84
Output  | 0.052449   | 0.052449   | 0.052449   |   0.0 |  0.07
Modify  | 0.9174     | 0.9174     | 0.9174     |   0.0 |  1.24
Other   |            | 0.3177     |            |       |  0.43

Nlocal:    19652 ave 19652 max 19652 min
Histogram: 1 0 0 0 0 0 0 0 0 0
Nghost:    17087 ave 17087 max 17087 min
Histogram: 1 0 0 0 0 0 0 0 0 0
Neighs:    1.25797e+06 ave 1.25797e+06 max 1.25797e+06 min
Histogram: 1 0 0 0 0 0 0 0 0 0

Total # of neighbors = 1257966
Ave neighs/atom = 64.0121
Neighbor list builds = 505
Dangerous builds not checked
Setting up Verlet run ...
  Unit style    : metal
  Current step  : 62000
  Time step     : 0.001
Per MPI rank memory allocation (min/avg/max) = 18.21 | 18.21 | 18.21 Mbytes
Step Temp Press TotEng PotEng Enthalpy Volume 
   62000    1335.3905    36.245602   -58006.115   -61398.128   -57997.206    393820.18 
   62495    1323.7043    601.90542   -58194.701   -61557.031   -58047.616    391516.44 
Loop time of 72.9603 on 1 procs for 495 steps with 19652 atoms

Performance: 0.586 ns/day, 40.943 hours/ns, 6.785 timesteps/s
99.9% CPU use with 1 MPI tasks x no OpenMP threads

MPI task timing breakdown:
Section |  min time  |  avg time  |  max time  |%varavg| %total
---------------------------------------------------------------
Pair    | 42.699     | 42.699     | 42.699     |   0.0 | 58.52
Neigh   | 28.453     | 28.453     | 28.453     |   0.0 | 39.00
Comm    | 0.61513    | 0.61513    | 0.61513    |   0.0 |  0.84
Output  | 0.00019002 | 0.00019002 | 0.00019002 |   0.0 |  0.00
Modify  | 0.90268    | 0.90268    | 0.90268    |   0.0 |  1.24
Other   |            | 0.2903     |            |       |  0.40

Nlocal:    19652 ave 19652 max 19652 min
Histogram: 1 0 0 0 0 0 0 0 0 0
Nghost:    17105 ave 17105 max 17105 min
Histogram: 1 0 0 0 0 0 0 0 0 0
Neighs:    1.26588e+06 ave 1.26588e+06 max 1.26588e+06 min
Histogram: 1 0 0 0 0 0 0 0 0 0

Total # of neighbors = 1265879
Ave neighs/atom = 64.4148
Neighbor list builds = 495
Dangerous builds not checked
Setting up Verlet run ...
  Unit style    : metal
  Current step  : 62495
  Time step     : 0.001
Per MPI rank memory allocation (min/avg/max) = 18.21 | 18.21 | 18.21 Mbytes
Step Temp Press TotEng PotEng Enthalpy Volume 
   62495    1323.7043    601.90542   -58194.701   -61557.031   -58047.616    391516.44 
   63000    1295.5845     455.2273   -58326.998   -61617.901   -58216.008    390631.45 
Loop time of 73.1799 on 1 procs for 505 steps with 19652 atoms

Performance: 0.596 ns/day, 40.253 hours/ns, 6.901 timesteps/s
99.9% CPU use with 1 MPI tasks x no OpenMP threads

MPI task timing breakdown:
Section |  min time  |  avg time  |  max time  |%varavg| %total
---------------------------------------------------------------
Pair    | 42.71      | 42.71      | 42.71      |   0.0 | 58.36
Neigh   | 28.685     | 28.685     | 28.685     |   0.0 | 39.20
Comm    | 0.58648    | 0.58648    | 0.58648    |   0.0 |  0.80
Output  | 0.050964   | 0.050964   | 0.050964   |   0.0 |  0.07
Modify  | 0.87844    | 0.87844    | 0.87844    |   0.0 |  1.20
Other   |            | 0.269      |            |       |  0.37

Nlocal:    19652 ave 19652 max 19652 min
Histogram: 1 0 0 0 0 0 0 0 0 0
Nghost:    17090 ave 17090 max 17090 min
Histogram: 1 0 0 0 0 0 0 0 0 0
Neighs:    1.26919e+06 ave 1.26919e+06 max 1.26919e+06 min
Histogram: 1 0 0 0 0 0 0 0 0 0

Total # of neighbors = 1269194
Ave neighs/atom = 64.5835
Neighbor list builds = 505
Dangerous builds not checked
Setting up Verlet run ...
  Unit style    : metal
  Current step  : 63000
  Time step     : 0.001
Per MPI rank memory allocation (min/avg/max) = 18.21 | 18.21 | 18.21 Mbytes
Step Temp Press TotEng PotEng Enthalpy Volume 
   63000    1295.5845     455.2273   -58326.998   -61617.901   -58216.008    390631.45 
   63495    1268.1582    247.69332   -58482.509   -61703.746   -58422.304     389428.8 
Loop time of 71.7103 on 1 procs for 495 steps with 19652 atoms

Performance: 0.596 ns/day, 40.241 hours/ns, 6.903 timesteps/s
100.0% CPU use with 1 MPI tasks x no OpenMP threads

MPI task timing breakdown:
Section |  min time  |  avg time  |  max time  |%varavg| %total
---------------------------------------------------------------
Pair    | 42.018     | 42.018     | 42.018     |   0.0 | 58.59
Neigh   | 27.967     | 27.967     | 27.967     |   0.0 | 39.00
Comm    | 0.56837    | 0.56837    | 0.56837    |   0.0 |  0.79
Output  | 0.00016713 | 0.00016713 | 0.00016713 |   0.0 |  0.00
Modify  | 0.86314    | 0.86314    | 0.86314    |   0.0 |  1.20
Other   |            | 0.2938     |            |       |  0.41

Nlocal:    19652 ave 19652 max 19652 min
Histogram: 1 0 0 0 0 0 0 0 0 0
Nghost:    17196 ave 17196 max 17196 min
Histogram: 1 0 0 0 0 0 0 0 0 0
Neighs:    1.27294e+06 ave 1.27294e+06 max 1.27294e+06 min
Histogram: 1 0 0 0 0 0 0 0 0 0

Total # of neighbors = 1272941
Ave neighs/atom = 64.7741
Neighbor list builds = 495
Dangerous builds not checked
Setting up Verlet run ...
  Unit style    : metal
  Current step  : 63495
  Time step     : 0.001
Per MPI rank memory allocation (min/avg/max) = 18.21 | 18.21 | 18.21 Mbytes
Step Temp Press TotEng PotEng Enthalpy Volume 
   63495    1268.1582    247.69332   -58482.509   -61703.746   -58422.304     389428.8 
   64000    1246.4629    612.18896   -58641.323   -61807.452    -58493.11    387891.34 
Loop time of 73.6473 on 1 procs for 505 steps with 19652 atoms

Performance: 0.592 ns/day, 40.510 hours/ns, 6.857 timesteps/s
99.9% CPU use with 1 MPI tasks x no OpenMP threads

MPI task timing breakdown:
Section |  min time  |  avg time  |  max time  |%varavg| %total
---------------------------------------------------------------
Pair    | 43.05      | 43.05      | 43.05      |   0.0 | 58.45
Neigh   | 28.767     | 28.767     | 28.767     |   0.0 | 39.06
Comm    | 0.59122    | 0.59122    | 0.59122    |   0.0 |  0.80
Output  | 0.051061   | 0.051061   | 0.051061   |   0.0 |  0.07
Modify  | 0.89672    | 0.89672    | 0.89672    |   0.0 |  1.22
Other   |            | 0.2919     |            |       |  0.40

Nlocal:    19652 ave 19652 max 19652 min
Histogram: 1 0 0 0 0 0 0 0 0 0
Nghost:    17200 ave 17200 max 17200 min
Histogram: 1 0 0 0 0 0 0 0 0 0
Neighs:    1.27836e+06 ave 1.27836e+06 max 1.27836e+06 min
Histogram: 1 0 0 0 0 0 0 0 0 0

Total # of neighbors = 1278361
Ave neighs/atom = 65.0499
Neighbor list builds = 505
Dangerous builds not checked
Setting up Verlet run ...
  Unit style    : metal
  Current step  : 64000
  Time step     : 0.001
Per MPI rank memory allocation (min/avg/max) = 18.21 | 18.21 | 18.21 Mbytes
Step Temp Press TotEng PotEng Enthalpy Volume 
   64000    1246.4629    612.18896   -58641.323   -61807.452    -58493.11    387891.34 
   64495    1213.8673    765.84482    -58802.96   -61886.294   -58618.152    386625.74 
[...]

Performance: 0.547 ns/day, 43.903 hours/ns, 6.327 timesteps/s
99.7% CPU use with 1 MPI tasks x no OpenMP threads

MPI task timing breakdown:
Section |  min time  |  avg time  |  max time  |%varavg| %total
---------------------------------------------------------------
Pair    | 45.534     | 45.534     | 45.534     |   0.0 | 58.20
Neigh   | 31.022     | 31.022     | 31.022     |   0.0 | 39.65
Comm    | 0.53205    | 0.53205    | 0.53205    |   0.0 |  0.68
Output  | 0.00018096 | 0.00018096 | 0.00018096 |   0.0 |  0.00
Modify  | 0.83877    | 0.83877    | 0.83877    |   0.0 |  1.07
Other   |            | 0.3085     |            |       |  0.39

Nlocal:    19652 ave 19652 max 19652 min
Histogram: 1 0 0 0 0 0 0 0 0 0
Nghost:    18013 ave 18013 max 18013 min
Histogram: 1 0 0 0 0 0 0 0 0 0
Neighs:    1.43742e+06 ave 1.43742e+06 max 1.43742e+06 min
Histogram: 1 0 0 0 0 0 0 0 0 0

Total # of neighbors = 1437425
Ave neighs/atom = 73.144
Neighbor list builds = 495
Dangerous builds not checked
Setting up Verlet run ...
  Unit style    : metal
  Current step  : 80495
  Time step     : 0.001
Per MPI rank memory allocation (min/avg/max) = 18.21 | 18.21 | 18.21 Mbytes
Step Temp Press TotEng PotEng Enthalpy Volume 
   80495    425.89985    290.63211   -64072.726   -65154.551   -64009.933    346164.97 
   81000    401.07361    190.82556    -64232.65   -65251.413   -64191.539    345167.54 
Loop time of 80.0019 on 1 procs for 505 steps with 19652 atoms

Performance: 0.545 ns/day, 44.005 hours/ns, 6.312 timesteps/s
99.7% CPU use with 1 MPI tasks x no OpenMP threads

MPI task timing breakdown:
Section |  min time  |  avg time  |  max time  |%varavg| %total
---------------------------------------------------------------
Pair    | 46.568     | 46.568     | 46.568     |   0.0 | 58.21
Neigh   | 31.642     | 31.642     | 31.642     |   0.0 | 39.55
Comm    | 0.55109    | 0.55109    | 0.55109    |   0.0 |  0.69
Output  | 0.050565   | 0.050565   | 0.050565   |   0.0 |  0.06
Modify  | 0.86392    | 0.86392    | 0.86392    |   0.0 |  1.08
Other   |            | 0.3256     |            |       |  0.41

Nlocal:    19652 ave 19652 max 19652 min
Histogram: 1 0 0 0 0 0 0 0 0 0
Nghost:    18012 ave 18012 max 18012 min
Histogram: 1 0 0 0 0 0 0 0 0 0
Neighs:    1.44204e+06 ave 1.44204e+06 max 1.44204e+06 min
Histogram: 1 0 0 0 0 0 0 0 0 0

Total # of neighbors = 1442038
Ave neighs/atom = 73.3787
Neighbor list builds = 505
Dangerous builds not checked
Setting up Verlet run ...
  Unit style    : metal
  Current step  : 81000
  Time step     : 0.001
Per MPI rank memory allocation (min/avg/max) = 18.21 | 18.21 | 18.21 Mbytes
Step Temp Press TotEng PotEng Enthalpy Volume 
   81000    401.07361    190.82556    -64232.65   -65251.413   -64191.539    345167.54 
   81495    375.27046    183.04586   -64393.177   -65346.398   -64353.863    344104.74 
Loop time of 78.3243 on 1 procs for 495 steps with 19652 atoms

Performance: 0.546 ns/day, 43.953 hours/ns, 6.320 timesteps/s
99.7% CPU use with 1 MPI tasks x no OpenMP threads

MPI task timing breakdown:
Section |  min time  |  avg time  |  max time  |%varavg| %total
---------------------------------------------------------------
Pair    | 45.667     | 45.667     | 45.667     |   0.0 | 58.31
Neigh   | 30.957     | 30.957     | 30.957     |   0.0 | 39.52
Comm    | 0.53936    | 0.53936    | 0.53936    |   0.0 |  0.69
Output  | 0.00017095 | 0.00017095 | 0.00017095 |   0.0 |  0.00
Modify  | 0.84492    | 0.84492    | 0.84492    |   0.0 |  1.08
Other   |            | 0.3153     |            |       |  0.40

Nlocal:    19652 ave 19652 max 19652 min
Histogram: 1 0 0 0 0 0 0 0 0 0
Nghost:    18083 ave 18083 max 18083 min
Histogram: 1 0 0 0 0 0 0 0 0 0
Neighs:    1.44629e+06 ave 1.44629e+06 max 1.44629e+06 min
Histogram: 1 0 0 0 0 0 0 0 0 0

Total # of neighbors = 1446294
Ave neighs/atom = 73.5953
Neighbor list builds = 495
Dangerous builds not checked
Setting up Verlet run ...
  Unit style    : metal
  Current step  : 81495
  Time step     : 0.001
Per MPI rank memory allocation (min/avg/max) = 18.21 | 18.21 | 18.21 Mbytes
Step Temp Press TotEng PotEng Enthalpy Volume 
   81495    375.27046    183.04586   -64393.177   -65346.398   -64353.863    344104.74 
   82000    345.97065   -434.90422   -64553.632   -65432.429   -64646.845    343394.97 
Loop time of 80.1571 on 1 procs for 505 steps with 19652 atoms

Performance: 0.544 ns/day, 44.091 hours/ns, 6.300 timesteps/s
99.8% CPU use with 1 MPI tasks x no OpenMP threads

MPI task timing breakdown:
Section |  min time  |  avg time  |  max time  |%varavg| %total
---------------------------------------------------------------
Pair    | 46.749     | 46.749     | 46.749     |   0.0 | 58.32
Neigh   | 31.607     | 31.607     | 31.607     |   0.0 | 39.43
Comm    | 0.55492    | 0.55492    | 0.55492    |   0.0 |  0.69
Output  | 0.051357   | 0.051357   | 0.051357   |   0.0 |  0.06
Modify  | 0.86557    | 0.86557    | 0.86557    |   0.0 |  1.08
Other   |            | 0.3299     |            |       |  0.41

Nlocal:    19652 ave 19652 max 19652 min
Histogram: 1 0 0 0 0 0 0 0 0 0
Nghost:    18042 ave 18042 max 18042 min
Histogram: 1 0 0 0 0 0 0 0 0 0
Neighs:    1.44921e+06 ave 1.44921e+06 max 1.44921e+06 min
Histogram: 1 0 0 0 0 0 0 0 0 0

Total # of neighbors = 1449211
Ave neighs/atom = 73.7437
Neighbor list builds = 505
Dangerous builds not checked
Setting up Verlet run ...
  Unit style    : metal
  Current step  : 82000
  Time step     : 0.001
Per MPI rank memory allocation (min/avg/max) = 18.21 | 18.21 | 18.21 Mbytes
Step Temp Press TotEng PotEng Enthalpy Volume 
   82000    345.97065   -434.90422   -64553.632   -65432.429   -64646.845    343394.97 
   82495    324.24425    58.472799   -64706.395   -65530.005    -64693.91    342086.81 
Loop time of 78.2429 on 1 procs for 495 steps with 19652 atoms

Performance: 0.547 ns/day, 43.907 hours/ns, 6.326 timesteps/s
100.0% CPU use with 1 MPI tasks x no OpenMP threads

MPI task timing breakdown:
Section |  min time  |  avg time  |  max time  |%varavg| %total
---------------------------------------------------------------
Pair    | 45.65      | 45.65      | 45.65      |   0.0 | 58.34
Neigh   | 30.91      | 30.91      | 30.91      |   0.0 | 39.51
Comm    | 0.52967    | 0.52967    | 0.52967    |   0.0 |  0.68
Output  | 0.00016022 | 0.00016022 | 0.00016022 |   0.0 |  0.00
Modify  | 0.83795    | 0.83795    | 0.83795    |   0.0 |  1.07
Other   |            | 0.315      |            |       |  0.40

Nlocal:    19652 ave 19652 max 19652 min
Histogram: 1 0 0 0 0 0 0 0 0 0
Nghost:    18074 ave 18074 max 18074 min
Histogram: 1 0 0 0 0 0 0 0 0 0
Neighs:    1.45502e+06 ave 1.45502e+06 max 1.45502e+06 min
Histogram: 1 0 0 0 0 0 0 0 0 0

Total # of neighbors = 1455018
Ave neighs/atom = 74.0392
Neighbor list builds = 495
Dangerous builds not checked
Setting up Verlet run ...
  Unit style    : metal
  Current step  : 82495
  Time step     : 0.001
Per MPI rank memory allocation (min/avg/max) = 18.21 | 18.21 | 18.21 Mbytes
Step Temp Press TotEng PotEng Enthalpy Volume 
   82495    324.24425    58.472799   -64706.395   -65530.005    -64693.91    342086.81 
   83000    300.28367   -293.75422   -64862.935   -65625.683   -64925.494    341202.07 
Loop time of 80.4234 on 1 procs for 505 steps with 19652 atoms

Performance: 0.543 ns/day, 44.237 hours/ns, 6.279 timesteps/s
99.9% CPU use with 1 MPI tasks x no OpenMP threads

MPI task timing breakdown:
Section |  min time  |  avg time  |  max time  |%varavg| %total
---------------------------------------------------------------
Pair    | 47.012     | 47.012     | 47.012     |   0.0 | 58.46
Neigh   | 31.603     | 31.603     | 31.603     |   0.0 | 39.30
Comm    | 0.56779    | 0.56779    | 0.56779    |   0.0 |  0.71
Output  | 0.050721   | 0.050721   | 0.050721   |   0.0 |  0.06
Modify  | 0.87558    | 0.87558    | 0.87558    |   0.0 |  1.09
Other   |            | 0.3144     |            |       |  0.39

Nlocal:    19652 ave 19652 max 19652 min
Histogram: 1 0 0 0 0 0 0 0 0 0
Nghost:    18081 ave 18081 max 18081 min
Histogram: 1 0 0 0 0 0 0 0 0 0
Neighs:    1.45817e+06 ave 1.45817e+06 max 1.45817e+06 min
Histogram: 1 0 0 0 0 0 0 0 0 0

Total # of neighbors = 1458166
Ave neighs/atom = 74.1994
Neighbor list builds = 505
Dangerous builds not checked
Setting up Verlet run ...
  Unit style    : metal
  Current step  : 83000
  Time step     : 0.001
Per MPI rank memory allocation (min/avg/max) = 18.21 | 18.21 | 18.21 Mbytes
Step Temp Press TotEng PotEng Enthalpy Volume 
   83000    300.28367   -293.75422   -64862.935   -65625.683   -64925.494    341202.07 
   83495    276.69439    58.072652   -65008.684   -65711.513   -64996.357    340082.64 
Loop time of 78.3097 on 1 procs for 495 steps with 19652 atoms

Performance: 0.546 ns/day, 43.945 hours/ns, 6.321 timesteps/s
100.0% CPU use with 1 MPI tasks x no OpenMP threads

MPI task timing breakdown:
Section |  min time  |  avg time  |  max time  |%varavg| %total
---------------------------------------------------------------
Pair    | 45.798     | 45.798     | 45.798     |   0.0 | 58.48
Neigh   | 30.842     | 30.842     | 30.842     |   0.0 | 39.38
Comm    | 0.52667    | 0.52667    | 0.52667    |   0.0 |  0.67
Output  | 0.00016403 | 0.00016403 | 0.00016403 |   0.0 |  0.00
Modify  | 0.83363    | 0.83363    | 0.83363    |   0.0 |  1.06
Other   |            | 0.3094     |            |       |  0.40

Nlocal:    19652 ave 19652 max 19652 min
Histogram: 1 0 0 0 0 0 0 0 0 0
Nghost:    18100 ave 18100 max 18100 min
Histogram: 1 0 0 0 0 0 0 0 0 0
Neighs:    1.46221e+06 ave 1.46221e+06 max 1.46221e+06 min
Histogram: 1 0 0 0 0 0 0 0 0 0

Total # of neighbors = 1462213
Ave neighs/atom = 74.4053
Neighbor list builds = 495
Dangerous builds not checked
Setting up Verlet run ...
  Unit style    : metal
  Current step  : 83495
  Time step     : 0.001
Per MPI rank memory allocation (min/avg/max) = 18.21 | 18.21 | 18.21 Mbytes
Step Temp Press TotEng PotEng Enthalpy Volume 
   83495    276.69439    58.072652   -65008.684   -65711.513   -64996.357    340082.64 
   84000    249.94805   -328.77601   -65157.848   -65792.739     -65227.5    339424.84 
Loop time of 80.2843 on 1 procs for 505 steps with 19652 atoms

Performance: 0.543 ns/day, 44.161 hours/ns, 6.290 timesteps/s
99.7% CPU use with 1 MPI tasks x no OpenMP threads

MPI task timing breakdown:
Section |  min time  |  avg time  |  max time  |%varavg| %total
---------------------------------------------------------------
Pair    | 46.942     | 46.942     | 46.942     |   0.0 | 58.47
Neigh   | 31.552     | 31.552     | 31.552     |   0.0 | 39.30
Comm    | 0.55306    | 0.55306    | 0.55306    |   0.0 |  0.69
Output  | 0.050385   | 0.050385   | 0.050385   |   0.0 |  0.06
Modify  | 0.86323    | 0.86323    | 0.86323    |   0.0 |  1.08
Other   |            | 0.3236     |            |       |  0.40

Nlocal:    19652 ave 19652 max 19652 min
Histogram: 1 0 0 0 0 0 0 0 0 0
Nghost:    18156 ave 18156 max 18156 min
Histogram: 1 0 0 0 0 0 0 0 0 0
Neighs:    1.46502e+06 ave 1.46502e+06 max 1.46502e+06 min
Histogram: 1 0 0 0 0 0 0 0 0 0

Total # of neighbors = 1465019
Ave neighs/atom = 74.5481
Neighbor list builds = 505
Dangerous builds not checked
Setting up Verlet run ...
  Unit style    : metal
  Current step  : 84000
  Time step     : 0.001
Per MPI rank memory allocation (min/avg/max) = 18.21 | 18.21 | 18.21 Mbytes
Step Temp Press TotEng PotEng Enthalpy Volume 
   84000    249.94805   -328.77601   -65157.848   -65792.739     -65227.5    339424.84 
   84495    226.21142    38.838773   -65295.838   -65870.435   -65287.632    338483.95 
Loop time of 78.5649 on 1 procs for 495 steps with 19652 atoms

Performance: 0.544 ns/day, 44.088 hours/ns, 6.301 timesteps/s
99.7% CPU use with 1 MPI tasks x no OpenMP threads

MPI task timing breakdown:
Section |  min time  |  avg time  |  max time  |%varavg| %total
---------------------------------------------------------------
Pair    | 46.033     | 46.033     | 46.033     |   0.0 | 58.59
Neigh   | 30.837     | 30.837     | 30.837     |   0.0 | 39.25
Comm    | 0.53518    | 0.53518    | 0.53518    |   0.0 |  0.68
Output  | 0.00015402 | 0.00015402 | 0.00015402 |   0.0 |  0.00
Modify  | 0.84293    | 0.84293    | 0.84293    |   0.0 |  1.07
Other   |            | 0.3169     |            |       |  0.40

Nlocal:    19652 ave 19652 max 19652 min
Histogram: 1 0 0 0 0 0 0 0 0 0
Nghost:    18145 ave 18145 max 18145 min
Histogram: 1 0 0 0 0 0 0 0 0 0
Neighs:    1.46898e+06 ave 1.46898e+06 max 1.46898e+06 min
Histogram: 1 0 0 0 0 0 0 0 0 0

Total # of neighbors = 1468980
Ave neighs/atom = 74.7496
Neighbor list builds = 495
Dangerous builds not checked
Setting up Verlet run ...
  Unit style    : metal
  Current step  : 84495
  Time step     : 0.001
Per MPI rank memory allocation (min/avg/max) = 18.21 | 18.21 | 18.21 Mbytes
Step Temp Press TotEng PotEng Enthalpy Volume 
   84495    226.21142    38.838773   -65295.838   -65870.435   -65287.632    338483.95 
   85000    202.50505   -197.15066   -65438.459    -65952.84    -65480.01    337671.79 
Loop time of 79.9506 on 1 procs for 505 steps with 19652 atoms

Performance: 0.546 ns/day, 43.977 hours/ns, 6.316 timesteps/s
99.9% CPU use with 1 MPI tasks x no OpenMP threads

MPI task timing breakdown:
Section |  min time  |  avg time  |  max time  |%varavg| %total
---------------------------------------------------------------
Pair    | 46.824     | 46.824     | 46.824     |   0.0 | 58.57
Neigh   | 31.38      | 31.38      | 31.38      |   0.0 | 39.25
Comm    | 0.53619    | 0.53619    | 0.53619    |   0.0 |  0.67
Output  | 0.050396   | 0.050396   | 0.050396   |   0.0 |  0.06
Modify  | 0.84856    | 0.84856    | 0.84856    |   0.0 |  1.06
Other   |            | 0.3106     |            |       |  0.39

Nlocal:    19652 ave 19652 max 19652 min
Histogram: 1 0 0 0 0 0 0 0 0 0
Nghost:    18157 ave 18157 max 18157 min
Histogram: 1 0 0 0 0 0 0 0 0 0
Neighs:    1.47188e+06 ave 1.47188e+06 max 1.47188e+06 min
Histogram: 1 0 0 0 0 0 0 0 0 0

Total # of neighbors = 1471881
Ave neighs/atom = 74.8973
Neighbor list builds = 505
Dangerous builds not checked
Setting up Verlet run ...
  Unit style    : metal
  Current step  : 85000
  Time step     : 0.001
Per MPI rank memory allocation (min/avg/max) = 18.21 | 18.21 | 18.21 Mbytes
Step Temp Press TotEng PotEng Enthalpy Volume 
   85000    202.50505   -197.15066   -65438.459    -65952.84    -65480.01    337671.79 
   85495    175.78653   -160.73965    -65571.43   -66017.944   -65605.245    337049.74 
Loop time of 78.3625 on 1 procs for 495 steps with 19652 atoms

Performance: 0.546 ns/day, 43.974 hours/ns, 6.317 timesteps/s
99.9% CPU use with 1 MPI tasks x no OpenMP threads

MPI task timing breakdown:
Section |  min time  |  avg time  |  max time  |%varavg| %total
---------------------------------------------------------------
Pair    | 45.958     | 45.958     | 45.958     |   0.0 | 58.65
Neigh   | 30.735     | 30.735     | 30.735     |   0.0 | 39.22
Comm    | 0.52684    | 0.52684    | 0.52684    |   0.0 |  0.67
Output  | 0.00016189 | 0.00016189 | 0.00016189 |   0.0 |  0.00
Modify  | 0.83553    | 0.83553    | 0.83553    |   0.0 |  1.07
Other   |            | 0.307      |            |       |  0.39

Nlocal:    19652 ave 19652 max 19652 min
Histogram: 1 0 0 0 0 0 0 0 0 0
Nghost:    18156 ave 18156 max 18156 min
Histogram: 1 0 0 0 0 0 0 0 0 0
Neighs:    1.47486e+06 ave 1.47486e+06 max 1.47486e+06 min
Histogram: 1 0 0 0 0 0 0 0 0 0

Total # of neighbors = 1474861
Ave neighs/atom = 75.0489
Neighbor list builds = 495
Dangerous builds not checked
Setting up Verlet run ...
  Unit style    : metal
  Current step  : 85495
  Time step     : 0.001
Per MPI rank memory allocation (min/avg/max) = 18.21 | 18.21 | 18.21 Mbytes
Step Temp Press TotEng PotEng Enthalpy Volume 
   85495    175.78653   -160.73965    -65571.43   -66017.944   -65605.245    337049.74 
   86000     151.4117    87.889501   -65710.904   -66095.504   -65692.467    336106.06 
Loop time of 80.4641 on 1 procs for 505 steps with 19652 atoms

Performance: 0.542 ns/day, 44.260 hours/ns, 6.276 timesteps/s
99.8% CPU use with 1 MPI tasks x no OpenMP threads

MPI task timing breakdown:
Section |  min time  |  avg time  |  max time  |%varavg| %total
---------------------------------------------------------------
Pair    | 47.174     | 47.174     | 47.174     |   0.0 | 58.63
Neigh   | 31.501     | 31.501     | 31.501     |   0.0 | 39.15
Comm    | 0.56262    | 0.56262    | 0.56262    |   0.0 |  0.70
Output  | 0.050331   | 0.050331   | 0.050331   |   0.0 |  0.06
Modify  | 0.86887    | 0.86887    | 0.86887    |   0.0 |  1.08
Other   |            | 0.3079     |            |       |  0.38

Nlocal:    19652 ave 19652 max 19652 min
Histogram: 1 0 0 0 0 0 0 0 0 0
Nghost:    18215 ave 18215 max 18215 min
Histogram: 1 0 0 0 0 0 0 0 0 0
Neighs:    1.47852e+06 ave 1.47852e+06 max 1.47852e+06 min
Histogram: 1 0 0 0 0 0 0 0 0 0

Total # of neighbors = 1478525
Ave neighs/atom = 75.2353
Neighbor list builds = 505
Dangerous builds not checked
Setting up Verlet run ...
  Unit style    : metal
  Current step  : 86000
  Time step     : 0.001
Per MPI rank memory allocation (min/avg/max) = 18.21 | 18.21 | 18.21 Mbytes
Step Temp Press TotEng PotEng Enthalpy Volume 
   86000     151.4117    87.889501   -65710.904   -66095.504   -65692.467    336106.06 
   86495    127.17551    13.753706   -65838.962       -66162   -65836.083     335444.7 
Loop time of 78.4563 on 1 procs for 495 steps with 19652 atoms

Performance: 0.545 ns/day, 44.027 hours/ns, 6.309 timesteps/s
99.9% CPU use with 1 MPI tasks x no OpenMP threads

MPI task timing breakdown:
Section |  min time  |  avg time  |  max time  |%varavg| %total
---------------------------------------------------------------
Pair    | 46.054     | 46.054     | 46.054     |   0.0 | 58.70
Neigh   | 30.738     | 30.738     | 30.738     |   0.0 | 39.18
Comm    | 0.52581    | 0.52581    | 0.52581    |   0.0 |  0.67
Output  | 0.00016093 | 0.00016093 | 0.00016093 |   0.0 |  0.00
Modify  | 0.83423    | 0.83423    | 0.83423    |   0.0 |  1.06
Other   |            | 0.3042     |            |       |  0.39

Nlocal:    19652 ave 19652 max 19652 min
Histogram: 1 0 0 0 0 0 0 0 0 0
Nghost:    18204 ave 18204 max 18204 min
Histogram: 1 0 0 0 0 0 0 0 0 0
Neighs:    1.4811e+06 ave 1.4811e+06 max 1.4811e+06 min
Histogram: 1 0 0 0 0 0 0 0 0 0

Total # of neighbors = 1481097
Ave neighs/atom = 75.3662
Neighbor list builds = 495
Dangerous builds not checked
Setting up Verlet run ...
  Unit style    : metal
  Current step  : 86495
  Time step     : 0.001
Per MPI rank memory allocation (min/avg/max) = 18.21 | 18.21 | 18.21 Mbytes
Step Temp Press TotEng PotEng Enthalpy Volume 
   86495    127.17551    13.753706   -65838.962       -66162   -65836.083     335444.7 
   87000    103.51128    114.60656   -65971.674   -66234.602   -65947.733    334680.34 
Loop time of 80.1684 on 1 procs for 505 steps with 19652 atoms

Performance: 0.544 ns/day, 44.097 hours/ns, 6.299 timesteps/s
99.9% CPU use with 1 MPI tasks x no OpenMP threads

MPI task timing breakdown:
Section |  min time  |  avg time  |  max time  |%varavg| %total
---------------------------------------------------------------
Pair    | 47.08      | 47.08      | 47.08      |   0.0 | 58.73
Neigh   | 31.33      | 31.33      | 31.33      |   0.0 | 39.08
Comm    | 0.54092    | 0.54092    | 0.54092    |   0.0 |  0.67
Output  | 0.050441   | 0.050441   | 0.050441   |   0.0 |  0.06
Modify  | 0.85253    | 0.85253    | 0.85253    |   0.0 |  1.06
Other   |            | 0.3148     |            |       |  0.39

Nlocal:    19652 ave 19652 max 19652 min
Histogram: 1 0 0 0 0 0 0 0 0 0
Nghost:    18237 ave 18237 max 18237 min
Histogram: 1 0 0 0 0 0 0 0 0 0
Neighs:    1.48402e+06 ave 1.48402e+06 max 1.48402e+06 min
Histogram: 1 0 0 0 0 0 0 0 0 0

Total # of neighbors = 1484025
Ave neighs/atom = 75.5152
Neighbor list builds = 505
Dangerous builds not checked
Total wall time: 3:29:58
