LAMMPS (12 Dec 2018)
Lattice spacing in x,y,z = 4 4 4
Created orthogonal box = (0 0 0) to (68 68 68)
  1 by 1 by 1 MPI processor grid
Created 19652 atoms
  Time spent = 0.004179 secs
Setting atom values ...
  206 settings made for type/fraction
Neighbor list info ...
  update every 1 steps, delay 0 steps, check no
  max neighbors/atom: 2000, page size: 100000
  master list distance cutoff = 8.5
  ghost atom cutoff = 8.5
  binsize = 4.25, bins = 16 16 16
  1 neighbor lists, perpetual/occasional/extra = 1 0 0
  (1) pair eam/alloy, perpetual
      attributes: half, newton on
      pair build: half/bin/atomonly/newton
      stencil: half/bin/3d/newton
      bin: standard
Setting up Verlet run ...
  Unit style    : metal
  Current step  : 0
  Time step     : 0.001
Per MPI rank memory allocation (min/avg/max) = 18.19 | 18.19 | 18.19 Mbytes
Step Temp Press TotEng PotEng Enthalpy Volume 
       0          300    275404.51    -21190.05   -21952.077    32858.922       314432 
     667    156.17207    273481.09    -21189.82   -21586.511    32481.674       314432 
    1000    157.88243    273499.82   -21189.823   -21590.859    32485.348       314432 
Loop time of 196.437 on 1 procs for 1000 steps with 19652 atoms

Performance: 0.440 ns/day, 54.566 hours/ns, 5.091 timesteps/s
98.7% CPU use with 1 MPI tasks x no OpenMP threads

MPI task timing breakdown:
Section |  min time  |  avg time  |  max time  |%varavg| %total
---------------------------------------------------------------
Pair    | 112.84     | 112.84     | 112.84     |   0.0 | 57.44
Neigh   | 80.982     | 80.982     | 80.982     |   0.0 | 41.23
Comm    | 1.4982     | 1.4982     | 1.4982     |   0.0 |  0.76
Output  | 0.069034   | 0.069034   | 0.069034   |   0.0 |  0.04
Modify  | 0.56622    | 0.56622    | 0.56622    |   0.0 |  0.29
Other   |            | 0.4802     |            |       |  0.24

Nlocal:    19652 ave 19652 max 19652 min
Histogram: 1 0 0 0 0 0 0 0 0 0
Nghost:    20102 ave 20102 max 20102 min
Histogram: 1 0 0 0 0 0 0 0 0 0
Neighs:    1.57342e+06 ave 1.57342e+06 max 1.57342e+06 min
Histogram: 1 0 0 0 0 0 0 0 0 0

Total # of neighbors = 1573424
Ave neighs/atom = 80.0643
Neighbor list builds = 1000
Dangerous builds not checked
Setting up Verlet run ...
  Unit style    : metal
  Current step  : 1000
  Time step     : 0.001
Per MPI rank memory allocation (min/avg/max) = 18.19 | 18.19 | 18.19 Mbytes
Step Temp Press TotEng PotEng Enthalpy Volume 
    1000    157.88243    273499.82   -21189.823   -21590.859    32485.348       314432 
    1334    151.87485    27518.196   -29335.564    -29721.34    -22047.87    424307.32 
    2000    260.86005    296.44838   -28931.795   -29594.404   -28847.052    458004.48 
Loop time of 164.077 on 1 procs for 1000 steps with 19652 atoms

Performance: 0.527 ns/day, 45.577 hours/ns, 6.095 timesteps/s
98.3% CPU use with 1 MPI tasks x no OpenMP threads

MPI task timing breakdown:
Section |  min time  |  avg time  |  max time  |%varavg| %total
---------------------------------------------------------------
Pair    | 86.36      | 86.36      | 86.36      |   0.0 | 52.63
Neigh   | 73.812     | 73.812     | 73.812     |   0.0 | 44.99
Comm    | 1.3044     | 1.3044     | 1.3044     |   0.0 |  0.80
Output  | 0.067078   | 0.067078   | 0.067078   |   0.0 |  0.04
Modify  | 2.0588     | 2.0588     | 2.0588     |   0.0 |  1.25
Other   |            | 0.4749     |            |       |  0.29

Nlocal:    19652 ave 19652 max 19652 min
Histogram: 1 0 0 0 0 0 0 0 0 0
Nghost:    14808 ave 14808 max 14808 min
Histogram: 1 0 0 0 0 0 0 0 0 0
Neighs:    1.09704e+06 ave 1.09704e+06 max 1.09704e+06 min
Histogram: 1 0 0 0 0 0 0 0 0 0

Total # of neighbors = 1097035
Ave neighs/atom = 55.8231
Neighbor list builds = 1000
Dangerous builds not checked
Setting up Verlet run ...
  Unit style    : metal
  Current step  : 2000
  Time step     : 0.001
Per MPI rank memory allocation (min/avg/max) = 18.19 | 18.19 | 18.19 Mbytes
Step Temp Press TotEng PotEng Enthalpy Volume 
    2000    260.86005    296.44838   -28931.795   -29594.404   -28847.052    458004.48 
    2001    260.60078    300.65898   -28931.787   -29593.736   -28845.839     458004.6 
    2668    368.16574   -258.86342   -28346.383   -29281.558   -28421.241    463319.58 
    3335    567.43155    211.58096   -27211.977   -28653.305   -27149.581    472486.29 
    4002    787.60162    45.875078   -25807.882   -27808.462   -25793.954    486420.08 
    4669    992.67047    192.64497   -24436.438   -26957.911    -24376.27    500394.04 
    5336    1153.9968    18.078674   -22981.761   -25913.018   -22975.901     519353.6 
    6003    1356.8747    121.58115   -21200.743   -24647.328   -21159.294    546199.22 
    6670    1552.1404   -13.649945   -20066.965   -24009.543    -20071.75    561600.67 
    7337    1728.6246    19.474677   -19035.183   -23426.047   -19028.178    576275.72 
    8004    1912.8477   -234.45098   -18012.393   -22871.201   -18099.048    592174.69 
    8671    2103.5262    269.93868   -16907.869   -22251.017   -16805.316    608686.78 
    9338     2259.424    285.81995   -15897.647    -21636.79   -15785.577    628213.83 
   10000    2453.3213    297.34977   -14785.141   -21016.801   -14664.345    650871.46 
Loop time of 1037.44 on 1 procs for 8000 steps with 19652 atoms

Performance: 0.666 ns/day, 36.022 hours/ns, 7.711 timesteps/s
98.6% CPU use with 1 MPI tasks x no OpenMP threads

MPI task timing breakdown:
Section |  min time  |  avg time  |  max time  |%varavg| %total
---------------------------------------------------------------
Pair    | 535.39     | 535.39     | 535.39     |   0.0 | 51.61
Neigh   | 471.96     | 471.96     | 471.96     |   0.0 | 45.49
Comm    | 9.8721     | 9.8721     | 9.8721     |   0.0 |  0.95
Output  | 0.82314    | 0.82314    | 0.82314    |   0.0 |  0.08
Modify  | 15.752     | 15.752     | 15.752     |   0.0 |  1.52
Other   |            | 3.639      |            |       |  0.35

Nlocal:    19652 ave 19652 max 19652 min
Histogram: 1 0 0 0 0 0 0 0 0 0
Nghost:    13936 ave 13936 max 13936 min
Histogram: 1 0 0 0 0 0 0 0 0 0
Neighs:    753568 ave 753568 max 753568 min
Histogram: 1 0 0 0 0 0 0 0 0 0

Total # of neighbors = 753568
Ave neighs/atom = 38.3456
Neighbor list builds = 8000
Dangerous builds not checked
Setting up Verlet run ...
  Unit style    : metal
  Current step  : 10000
  Time step     : 0.001
Per MPI rank memory allocation (min/avg/max) = 18.22 | 18.22 | 18.22 Mbytes
Step Temp Press TotEng PotEng Enthalpy Volume 
   10000    2453.3213    297.34977   -14785.141   -21016.801   -14664.345    650871.46 
   10005    2452.8706    357.45932   -14785.176   -21015.691   -14639.961    650872.22 
   10672    2455.3292   -156.84177    -14608.38    -20845.14    -14672.91    659194.04 
   11339    2456.7886     108.4521   -14604.168   -20844.635   -14559.596    658462.98 
   12006    2427.3506    28.378485   -14816.113   -20981.805    -14804.55    652854.68 
   12673    2459.1231   -89.353509   -14526.654   -20773.051   -14563.552    661611.88 
   13340    2482.4872    265.70422    -14479.35   -20785.094   -14369.797    660599.93 
   14007    2442.5484    97.049551   -14732.439   -20936.734   -14692.778    654750.76 
   14674    2455.4747   -692.05864    -14550.53    -20787.66   -14836.613    662306.79 
   15341     2474.507    450.33893   -14610.976   -20896.449   -14426.401    656665.35 
   16008     2449.176   -113.07901   -14651.291   -20872.421   -14697.785    658747.06 
   16675    2463.1673     377.3501   -14542.815   -20799.485   -14387.575     659130.3 
   17342    2432.8374    249.58022    -14598.68   -20778.309   -14495.997    659177.61 
   18009    2446.8578     363.5323   -14701.647   -20916.889   -14553.102    654674.27 
   18676     2458.739   -512.63704   -14502.414   -20747.835   -14714.561    663038.54 
   19343    2446.3661    460.02196    -14666.03   -20880.023     -14477.8    655572.89 
   20010    2465.6479    302.34567   -14640.999    -20903.97   -14517.196    656053.01 
   20677    2451.1734   -237.91072   -14633.554   -20859.758    -14731.65    660609.99 
   21344    2424.1003   -66.109188   -14741.432   -20898.868    -14768.53    656729.82 
   22011    2450.4955   -154.81655   -14527.137   -20751.619   -14591.269    663696.24 
   22678    2464.6259    256.11997   -14672.945   -20933.319   -14568.296    654636.97 
   23345    2431.4769   -302.16926   -14549.271   -20725.444   -14674.221    662516.38 
   24012    2451.2788    678.48032   -14705.915   -20932.386    -14428.75    654503.64 
   24679    2452.0817   -225.71459   -14565.947   -20794.458   -14659.097    661201.47 
   25346    2441.5053   -76.612239   -14612.835   -20814.481   -14644.378    659648.84 
   26013    2445.1006    191.21901   -14653.336   -20864.114   -14575.053    655915.39 
   26680    2470.4809    4.9020414   -14649.632   -20924.879   -14647.627    655382.13 
   27347    2456.3093    171.93787   -14602.982   -20842.231   -14532.244     659161.2 
   28014    2436.0298    1.0393214   -14638.621   -20826.359   -14638.193    660695.07 
   28681    2462.2292    921.85367   -14643.849   -20898.136   -14267.943    653322.92 
   29348    2468.5837   -644.86593   -14550.244   -20820.671   -14816.862    662416.78 
   30015    2452.1134    237.91903   -14683.833   -20912.424   -14586.516    655339.18 
   30682    2429.5744    106.15006   -14766.729   -20938.069   -14723.365    654507.24 
   31349    2434.8688   -248.36377   -14531.998   -20716.787   -14635.079    664969.18 
   32016    2448.1363   -251.33696   -14690.237   -20908.726   -14793.275    656827.95 
   32683    2455.7397   -550.04412   -14583.748    -20821.55   -14810.598    660773.09 
   33350    2450.1969      290.838   -14586.847    -20810.57   -14467.529     657298.3 
   34017    2448.0629   -251.57107   -14556.473   -20774.776    -14660.47    662322.57 
   34684     2462.277    321.89986   -14647.611   -20902.019   -14515.682    656641.43 
   35351    2438.5432   -32.545015   -14656.179   -20850.301   -14669.581    659736.73 
   36018    2428.9615    94.061636   -14636.522   -20806.305   -14597.758    660272.96 
   36685    2451.9979   -175.30682   -14551.614   -20779.912   -14623.935    660953.57 
   37352    2442.0377    391.02839   -14646.216   -20849.215   -14485.841    657113.25 
   38019    2448.2619   -141.02198   -14681.345   -20900.153   -14739.263    658016.62 
   38686    2459.4664   -377.75885   -14542.849   -20790.118   -14698.897    661844.15 
   39353    2443.9743   -253.48596   -14729.178   -20937.095   -14833.073    656673.11 
   40000    2472.8059   -61.305178   -14592.498    -20873.65   -14617.703    658729.71 
Loop time of 2775.15 on 1 procs for 30000 steps with 19652 atoms

Performance: 0.934 ns/day, 25.696 hours/ns, 10.810 timesteps/s
99.9% CPU use with 1 MPI tasks x no OpenMP threads

MPI task timing breakdown:
Section |  min time  |  avg time  |  max time  |%varavg| %total
---------------------------------------------------------------
Pair    | 1393.1     | 1393.1     | 1393.1     |   0.0 | 50.20
Neigh   | 1290.4     | 1290.4     | 1290.4     |   0.0 | 46.50
Comm    | 30.439     | 30.439     | 30.439     |   0.0 |  1.10
Output  | 2.2642     | 2.2642     | 2.2642     |   0.0 |  0.08
Modify  | 47.496     | 47.496     | 47.496     |   0.0 |  1.71
Other   |            | 11.47      |            |       |  0.41

Nlocal:    19652 ave 19652 max 19652 min
Histogram: 1 0 0 0 0 0 0 0 0 0
Nghost:    13872 ave 13872 max 13872 min
Histogram: 1 0 0 0 0 0 0 0 0 0
Neighs:    744818 ave 744818 max 744818 min
Histogram: 1 0 0 0 0 0 0 0 0 0

Total # of neighbors = 744818
Ave neighs/atom = 37.9004
Neighbor list builds = 30000
Dangerous builds not checked
Setting up Verlet run ...
  Unit style    : metal
  Current step  : 40000
  Time step     : 0.001
Per MPI rank memory allocation (min/avg/max) = 18.22 | 18.22 | 18.22 Mbytes
Step Temp Press TotEng PotEng Enthalpy Volume 
   40000    2472.8059   -61.305178   -14592.498    -20873.65   -14617.703    658729.71 
   40020    2451.6473    171.44396   -14594.371   -20821.779   -14523.882    658729.84 
   40495     2403.437    41.684489   -14804.389   -20909.337   -14787.332    655586.32 
Loop time of 38.1004 on 1 procs for 495 steps with 19652 atoms

Performance: 1.123 ns/day, 21.381 hours/ns, 12.992 timesteps/s
100.1% CPU use with 1 MPI tasks x no OpenMP threads

MPI task timing breakdown:
Section |  min time  |  avg time  |  max time  |%varavg| %total
---------------------------------------------------------------
Pair    | 18.899     | 18.899     | 18.899     |   0.0 | 49.60
Neigh   | 17.958     | 17.958     | 17.958     |   0.0 | 47.13
Comm    | 0.39375    | 0.39375    | 0.39375    |   0.0 |  1.03
Output  | 0.04056    | 0.04056    | 0.04056    |   0.0 |  0.11
Modify  | 0.66094    | 0.66094    | 0.66094    |   0.0 |  1.73
Other   |            | 0.1476     |            |       |  0.39

Nlocal:    19652 ave 19652 max 19652 min
Histogram: 1 0 0 0 0 0 0 0 0 0
Nghost:    13969 ave 13969 max 13969 min
Histogram: 1 0 0 0 0 0 0 0 0 0
Neighs:    748660 ave 748660 max 748660 min
Histogram: 1 0 0 0 0 0 0 0 0 0

Total # of neighbors = 748660
Ave neighs/atom = 38.0959
Neighbor list builds = 495
Dangerous builds not checked
Setting up Verlet run ...
  Unit style    : metal
  Current step  : 40495
  Time step     : 0.001
Per MPI rank memory allocation (min/avg/max) = 18.22 | 18.22 | 18.22 Mbytes
Step Temp Press TotEng PotEng Enthalpy Volume 
   40495     2403.437    41.684489   -14804.389   -20909.337   -14787.332    655586.32 
   40667    2393.3826   -350.19177   -14909.304   -20988.713   -15052.444    654885.82 
Loop time of 13.0943 on 1 procs for 172 steps with 19652 atoms

Performance: 1.135 ns/day, 21.147 hours/ns, 13.135 timesteps/s
100.1% CPU use with 1 MPI tasks x no OpenMP threads

MPI task timing breakdown:
Section |  min time  |  avg time  |  max time  |%varavg| %total
---------------------------------------------------------------
Pair    | 6.5148     | 6.5148     | 6.5148     |   0.0 | 49.75
Neigh   | 6.1631     | 6.1631     | 6.1631     |   0.0 | 47.07
Comm    | 0.13403    | 0.13403    | 0.13403    |   0.0 |  1.02
Output  | 0.00013089 | 0.00013089 | 0.00013089 |   0.0 |  0.00
Modify  | 0.23064    | 0.23064    | 0.23064    |   0.0 |  1.76
Other   |            | 0.05157    |            |       |  0.39

Nlocal:    19652 ave 19652 max 19652 min
Histogram: 1 0 0 0 0 0 0 0 0 0
Nghost:    13989 ave 13989 max 13989 min
Histogram: 1 0 0 0 0 0 0 0 0 0
Neighs:    749266 ave 749266 max 749266 min
Histogram: 1 0 0 0 0 0 0 0 0 0

Total # of neighbors = 749266
Ave neighs/atom = 38.1267
Neighbor list builds = 172
Dangerous builds not checked
Setting up Verlet run ...
  Unit style    : metal
  Current step  : 40667
  Time step     : 0.001
Per MPI rank memory allocation (min/avg/max) = 18.22 | 18.22 | 18.22 Mbytes
Step Temp Press TotEng PotEng Enthalpy Volume 
   40667    2393.3826   -350.19177   -14909.304   -20988.713   -15052.444    654885.82 
   40687    2393.9126   -361.33824   -14908.466   -20989.223    -15056.16    654873.34 
   41162    2358.8721    150.91247   -15151.012   -21142.762   -15090.115    646519.01 
Loop time of 38.0185 on 1 procs for 495 steps with 19652 atoms

Performance: 1.125 ns/day, 21.335 hours/ns, 13.020 timesteps/s
100.1% CPU use with 1 MPI tasks x no OpenMP threads

MPI task timing breakdown:
Section |  min time  |  avg time  |  max time  |%varavg| %total
---------------------------------------------------------------
Pair    | 18.936     | 18.936     | 18.936     |   0.0 | 49.81
Neigh   | 17.84      | 17.84      | 17.84      |   0.0 | 46.93
Comm    | 0.39087    | 0.39087    | 0.39087    |   0.0 |  1.03
Output  | 0.040513   | 0.040513   | 0.040513   |   0.0 |  0.11
Modify  | 0.6618     | 0.6618     | 0.6618     |   0.0 |  1.74
Other   |            | 0.1487     |            |       |  0.39

Nlocal:    19652 ave 19652 max 19652 min
Histogram: 1 0 0 0 0 0 0 0 0 0
Nghost:    14062 ave 14062 max 14062 min
Histogram: 1 0 0 0 0 0 0 0 0 0
Neighs:    758497 ave 758497 max 758497 min
Histogram: 1 0 0 0 0 0 0 0 0 0

Total # of neighbors = 758497
Ave neighs/atom = 38.5964
Neighbor list builds = 495
Dangerous builds not checked
Setting up Verlet run ...
  Unit style    : metal
  Current step  : 41162
  Time step     : 0.001
Per MPI rank memory allocation (min/avg/max) = 18.22 | 18.22 | 18.22 Mbytes
Step Temp Press TotEng PotEng Enthalpy Volume 
   41162    2358.8721    150.91247   -15151.012   -21142.762   -15090.115    646519.01 
   41334     2346.274   -284.90654   -15248.529   -21208.279   -15363.407    646017.66 
Loop time of 13.2675 on 1 procs for 172 steps with 19652 atoms

Performance: 1.120 ns/day, 21.427 hours/ns, 12.964 timesteps/s
100.1% CPU use with 1 MPI tasks x no OpenMP threads

MPI task timing breakdown:
Section |  min time  |  avg time  |  max time  |%varavg| %total
---------------------------------------------------------------
Pair    | 6.6345     | 6.6345     | 6.6345     |   0.0 | 50.01
Neigh   | 6.214      | 6.214      | 6.214      |   0.0 | 46.84
Comm    | 0.13454    | 0.13454    | 0.13454    |   0.0 |  1.01
Output  | 0.00013208 | 0.00013208 | 0.00013208 |   0.0 |  0.00
Modify  | 0.23236    | 0.23236    | 0.23236    |   0.0 |  1.75
Other   |            | 0.05194    |            |       |  0.39

Nlocal:    19652 ave 19652 max 19652 min
Histogram: 1 0 0 0 0 0 0 0 0 0
Nghost:    14025 ave 14025 max 14025 min
Histogram: 1 0 0 0 0 0 0 0 0 0
Neighs:    760038 ave 760038 max 760038 min
Histogram: 1 0 0 0 0 0 0 0 0 0

Total # of neighbors = 760038
Ave neighs/atom = 38.6748
Neighbor list builds = 172
Dangerous builds not checked
Setting up Verlet run ...
  Unit style    : metal
  Current step  : 41334
  Time step     : 0.001
Per MPI rank memory allocation (min/avg/max) = 18.22 | 18.22 | 18.22 Mbytes
Step Temp Press TotEng PotEng Enthalpy Volume 
   41334     2346.274   -284.90654   -15248.529   -21208.279   -15363.407    646017.66 
   41354    2349.6799   -321.96531   -15248.523   -21216.924   -15378.341    646005.97 
   41829    2311.4673    -252.5117   -15441.614   -21312.952   -15542.746    641675.25 
Loop time of 44.3548 on 1 procs for 495 steps with 19652 atoms

Performance: 0.964 ns/day, 24.890 hours/ns, 11.160 timesteps/s
100.0% CPU use with 1 MPI tasks x no OpenMP threads

MPI task timing breakdown:
Section |  min time  |  avg time  |  max time  |%varavg| %total
---------------------------------------------------------------
Pair    | 22.066     | 22.066     | 22.066     |   0.0 | 49.75
Neigh   | 20.84      | 20.84      | 20.84      |   0.0 | 46.98
Comm    | 0.46382    | 0.46382    | 0.46382    |   0.0 |  1.05
Output  | 0.040931   | 0.040931   | 0.040931   |   0.0 |  0.09
Modify  | 0.77059    | 0.77059    | 0.77059    |   0.0 |  1.74
Other   |            | 0.1736     |            |       |  0.39

Nlocal:    19652 ave 19652 max 19652 min
Histogram: 1 0 0 0 0 0 0 0 0 0
Nghost:    14055 ave 14055 max 14055 min
Histogram: 1 0 0 0 0 0 0 0 0 0
Neighs:    764716 ave 764716 max 764716 min
Histogram: 1 0 0 0 0 0 0 0 0 0

Total # of neighbors = 764716
Ave neighs/atom = 38.9129
Neighbor list builds = 495
Dangerous builds not checked
Setting up Verlet run ...
  Unit style    : metal
  Current step  : 41829
  Time step     : 0.001
Per MPI rank memory allocation (min/avg/max) = 18.22 | 18.22 | 18.22 Mbytes
Step Temp Press TotEng PotEng Enthalpy Volume 
   41829    2311.4673    -252.5117   -15441.614   -21312.952   -15542.746    641675.25 
   42001    2299.7042    -298.6473    -15535.18   -21376.639   -15654.601    640665.61 
Loop time of 15.7705 on 1 procs for 172 steps with 19652 atoms

Performance: 0.942 ns/day, 25.469 hours/ns, 10.906 timesteps/s
100.0% CPU use with 1 MPI tasks x no OpenMP threads

MPI task timing breakdown:
Section |  min time  |  avg time  |  max time  |%varavg| %total
---------------------------------------------------------------
Pair    | 7.8962     | 7.8962     | 7.8962     |   0.0 | 50.07
Neigh   | 7.3625     | 7.3625     | 7.3625     |   0.0 | 46.68
Comm    | 0.16597    | 0.16597    | 0.16597    |   0.0 |  1.05
Output  | 0.00019693 | 0.00019693 | 0.00019693 |   0.0 |  0.00
Modify  | 0.28168    | 0.28168    | 0.28168    |   0.0 |  1.79
Other   |            | 0.06399    |            |       |  0.41

Nlocal:    19652 ave 19652 max 19652 min
Histogram: 1 0 0 0 0 0 0 0 0 0
Nghost:    14004 ave 14004 max 14004 min
Histogram: 1 0 0 0 0 0 0 0 0 0
Neighs:    766006 ave 766006 max 766006 min
Histogram: 1 0 0 0 0 0 0 0 0 0

Total # of neighbors = 766006
Ave neighs/atom = 38.9785
Neighbor list builds = 172
Dangerous builds not checked
Setting up Verlet run ...
  Unit style    : metal
  Current step  : 42001
  Time step     : 0.001
Per MPI rank memory allocation (min/avg/max) = 18.22 | 18.22 | 18.22 Mbytes
Step Temp Press TotEng PotEng Enthalpy Volume 
   42001    2299.7042    -298.6473    -15535.18   -21376.639   -15654.601    640665.61 
   42021    2298.2678   -412.51711   -15535.518   -21373.328   -15700.469    640651.95 
   42496    2279.6772   -69.474033   -15797.214   -21587.802   -15824.621    632047.69 
Loop time of 45.1949 on 1 procs for 495 steps with 19652 atoms

Performance: 0.946 ns/day, 25.362 hours/ns, 10.953 timesteps/s
100.0% CPU use with 1 MPI tasks x no OpenMP threads

MPI task timing breakdown:
Section |  min time  |  avg time  |  max time  |%varavg| %total
---------------------------------------------------------------
Pair    | 22.676     | 22.676     | 22.676     |   0.0 | 50.17
Neigh   | 21.029     | 21.029     | 21.029     |   0.0 | 46.53
Comm    | 0.47695    | 0.47695    | 0.47695    |   0.0 |  1.06
Output  | 0.041884   | 0.041884   | 0.041884   |   0.0 |  0.09
Modify  | 0.79064    | 0.79064    | 0.79064    |   0.0 |  1.75
Other   |            | 0.1798     |            |       |  0.40

Nlocal:    19652 ave 19652 max 19652 min
Histogram: 1 0 0 0 0 0 0 0 0 0
Nghost:    14026 ave 14026 max 14026 min
Histogram: 1 0 0 0 0 0 0 0 0 0
Neighs:    775754 ave 775754 max 775754 min
Histogram: 1 0 0 0 0 0 0 0 0 0

Total # of neighbors = 775754
Ave neighs/atom = 39.4746
Neighbor list builds = 495
Dangerous builds not checked
Setting up Verlet run ...
  Unit style    : metal
  Current step  : 42496
  Time step     : 0.001
Per MPI rank memory allocation (min/avg/max) = 18.22 | 18.22 | 18.22 Mbytes
Step Temp Press TotEng PotEng Enthalpy Volume 
   42496    2279.6772   -69.474033   -15797.214   -21587.802   -15824.621    632047.69 
   42668    2249.1948   -253.47188   -15902.082   -21615.241   -16002.023    631722.03 
Loop time of 13.9346 on 1 procs for 172 steps with 19652 atoms

Performance: 1.066 ns/day, 22.504 hours/ns, 12.343 timesteps/s
100.1% CPU use with 1 MPI tasks x no OpenMP threads

MPI task timing breakdown:
Section |  min time  |  avg time  |  max time  |%varavg| %total
---------------------------------------------------------------
Pair    | 7.0231     | 7.0231     | 7.0231     |   0.0 | 50.40
Neigh   | 6.4724     | 6.4724     | 6.4724     |   0.0 | 46.45
Comm    | 0.14246    | 0.14246    | 0.14246    |   0.0 |  1.02
Output  | 0.00013614 | 0.00013614 | 0.00013614 |   0.0 |  0.00
Modify  | 0.24185    | 0.24185    | 0.24185    |   0.0 |  1.74
Other   |            | 0.05462    |            |       |  0.39

Nlocal:    19652 ave 19652 max 19652 min
Histogram: 1 0 0 0 0 0 0 0 0 0
Nghost:    14118 ave 14118 max 14118 min
Histogram: 1 0 0 0 0 0 0 0 0 0
Neighs:    776291 ave 776291 max 776291 min
Histogram: 1 0 0 0 0 0 0 0 0 0

Total # of neighbors = 776291
Ave neighs/atom = 39.5019
Neighbor list builds = 172
Dangerous builds not checked
Setting up Verlet run ...
  Unit style    : metal
  Current step  : 42668
  Time step     : 0.001
Per MPI rank memory allocation (min/avg/max) = 18.22 | 18.22 | 18.22 Mbytes
Step Temp Press TotEng PotEng Enthalpy Volume 
   42668    2249.1948   -253.47188   -15902.082   -21615.241   -16002.023    631722.03 
   42688    2259.5999   -376.91323   -15902.623   -21642.213   -16051.233    631710.29 
   43163    2224.1762    425.28065   -16133.516   -21783.127   -15967.788    624357.27 
Loop time of 44.251 on 1 procs for 495 steps with 19652 atoms

Performance: 0.966 ns/day, 24.832 hours/ns, 11.186 timesteps/s
100.0% CPU use with 1 MPI tasks x no OpenMP threads

MPI task timing breakdown:
Section |  min time  |  avg time  |  max time  |%varavg| %total
---------------------------------------------------------------
Pair    | 22.208     | 22.208     | 22.208     |   0.0 | 50.19
Neigh   | 20.594     | 20.594     | 20.594     |   0.0 | 46.54
Comm    | 0.46215    | 0.46215    | 0.46215    |   0.0 |  1.04
Output  | 0.041547   | 0.041547   | 0.041547   |   0.0 |  0.09
Modify  | 0.77011    | 0.77011    | 0.77011    |   0.0 |  1.74
Other   |            | 0.1757     |            |       |  0.40

Nlocal:    19652 ave 19652 max 19652 min
Histogram: 1 0 0 0 0 0 0 0 0 0
Nghost:    14170 ave 14170 max 14170 min
Histogram: 1 0 0 0 0 0 0 0 0 0
Neighs:    786171 ave 786171 max 786171 min
Histogram: 1 0 0 0 0 0 0 0 0 0

Total # of neighbors = 786171
Ave neighs/atom = 40.0046
Neighbor list builds = 495
Dangerous builds not checked
Setting up Verlet run ...
  Unit style    : metal
  Current step  : 43163
  Time step     : 0.001
Per MPI rank memory allocation (min/avg/max) = 18.22 | 18.22 | 18.22 Mbytes
Step Temp Press TotEng PotEng Enthalpy Volume 
   43163    2224.1762    425.28065   -16133.516   -21783.127   -15967.788    624357.27 
   43335    2196.3682   -640.06298   -16223.123   -21802.099   -16472.979    625425.93 
Loop time of 13.4606 on 1 procs for 172 steps with 19652 atoms

Performance: 1.104 ns/day, 21.739 hours/ns, 12.778 timesteps/s
100.0% CPU use with 1 MPI tasks x no OpenMP threads

MPI task timing breakdown:
Section |  min time  |  avg time  |  max time  |%varavg| %total
---------------------------------------------------------------
Pair    | 6.821      | 6.821      | 6.821      |   0.0 | 50.67
Neigh   | 6.2217     | 6.2217     | 6.2217     |   0.0 | 46.22
Comm    | 0.13503    | 0.13503    | 0.13503    |   0.0 |  1.00
Output  | 0.00013685 | 0.00013685 | 0.00013685 |   0.0 |  0.00
Modify  | 0.23096    | 0.23096    | 0.23096    |   0.0 |  1.72
Other   |            | 0.05168    |            |       |  0.38

Nlocal:    19652 ave 19652 max 19652 min
Histogram: 1 0 0 0 0 0 0 0 0 0
Nghost:    14143 ave 14143 max 14143 min
Histogram: 1 0 0 0 0 0 0 0 0 0
Neighs:    784432 ave 784432 max 784432 min
Histogram: 1 0 0 0 0 0 0 0 0 0

Total # of neighbors = 784432
Ave neighs/atom = 39.9161
Neighbor list builds = 172
Dangerous builds not checked
Setting up Verlet run ...
  Unit style    : metal
  Current step  : 43335
  Time step     : 0.001
Per MPI rank memory allocation (min/avg/max) = 18.22 | 18.22 | 18.22 Mbytes
Step Temp Press TotEng PotEng Enthalpy Volume 
   43335    2196.3682   -640.06298   -16223.123   -21802.099   -16472.979    625425.93 
   43355     2201.291   -750.58119   -16223.099   -21814.578   -16516.083    625398.66 
   43830    2160.9938     217.1017    -16475.66   -21964.781   -16391.853       618484 
Loop time of 39.4429 on 1 procs for 495 steps with 19652 atoms

Performance: 1.084 ns/day, 22.134 hours/ns, 12.550 timesteps/s
100.1% CPU use with 1 MPI tasks x no OpenMP threads

MPI task timing breakdown:
Section |  min time  |  avg time  |  max time  |%varavg| %total
---------------------------------------------------------------
Pair    | 20.029     | 20.029     | 20.029     |   0.0 | 50.78
Neigh   | 18.156     | 18.156     | 18.156     |   0.0 | 46.03
Comm    | 0.4019     | 0.4019     | 0.4019     |   0.0 |  1.02
Output  | 0.04058    | 0.04058    | 0.04058    |   0.0 |  0.10
Modify  | 0.66561    | 0.66561    | 0.66561    |   0.0 |  1.69
Other   |            | 0.1498     |            |       |  0.38

Nlocal:    19652 ave 19652 max 19652 min
Histogram: 1 0 0 0 0 0 0 0 0 0
Nghost:    14266 ave 14266 max 14266 min
Histogram: 1 0 0 0 0 0 0 0 0 0
Neighs:    793413 ave 793413 max 793413 min
Histogram: 1 0 0 0 0 0 0 0 0 0

Total # of neighbors = 793413
Ave neighs/atom = 40.3731
Neighbor list builds = 495
Dangerous builds not checked
Setting up Verlet run ...
  Unit style    : metal
  Current step  : 43830
  Time step     : 0.001
Per MPI rank memory allocation (min/avg/max) = 18.22 | 18.22 | 18.22 Mbytes
Step Temp Press TotEng PotEng Enthalpy Volume 
   43830    2160.9938     217.1017    -16475.66   -21964.781   -16391.853       618484 
   44002    2136.2997   -189.22763   -16553.126   -21979.522    -16626.19    618629.39 
Loop time of 13.5274 on 1 procs for 172 steps with 19652 atoms

Performance: 1.099 ns/day, 21.847 hours/ns, 12.715 timesteps/s
100.1% CPU use with 1 MPI tasks x no OpenMP threads

MPI task timing breakdown:
Section |  min time  |  avg time  |  max time  |%varavg| %total
---------------------------------------------------------------
Pair    | 6.8851     | 6.8851     | 6.8851     |   0.0 | 50.90
Neigh   | 6.2219     | 6.2219     | 6.2219     |   0.0 | 45.99
Comm    | 0.13674    | 0.13674    | 0.13674    |   0.0 |  1.01
Output  | 0.000139   | 0.000139   | 0.000139   |   0.0 |  0.00
Modify  | 0.23135    | 0.23135    | 0.23135    |   0.0 |  1.71
Other   |            | 0.0522     |            |       |  0.39

Nlocal:    19652 ave 19652 max 19652 min
Histogram: 1 0 0 0 0 0 0 0 0 0
Nghost:    14256 ave 14256 max 14256 min
Histogram: 1 0 0 0 0 0 0 0 0 0
Neighs:    792872 ave 792872 max 792872 min
Histogram: 1 0 0 0 0 0 0 0 0 0

Total # of neighbors = 792872
Ave neighs/atom = 40.3456
Neighbor list builds = 172
Dangerous builds not checked
Setting up Verlet run ...
  Unit style    : metal
  Current step  : 44002
  Time step     : 0.001
Per MPI rank memory allocation (min/avg/max) = 18.22 | 18.22 | 18.22 Mbytes
Step Temp Press TotEng PotEng Enthalpy Volume 
   44002    2136.2997   -189.22763   -16553.126   -21979.522    -16626.19    618629.39 
   44022    2156.5991   -381.64129   -16552.448   -22030.406   -16699.804    618619.41 
   44497    2121.7338   -200.74739   -16707.424   -22096.821   -16784.564    615658.41 
Loop time of 39.8469 on 1 procs for 495 steps with 19652 atoms

Performance: 1.073 ns/day, 22.361 hours/ns, 12.423 timesteps/s
100.1% CPU use with 1 MPI tasks x no OpenMP threads

MPI task timing breakdown:
Section |  min time  |  avg time  |  max time  |%varavg| %total
---------------------------------------------------------------
Pair    | 20.298     | 20.298     | 20.298     |   0.0 | 50.94
Neigh   | 18.278     | 18.278     | 18.278     |   0.0 | 45.87
Comm    | 0.40774    | 0.40774    | 0.40774    |   0.0 |  1.02
Output  | 0.040775   | 0.040775   | 0.040775   |   0.0 |  0.10
Modify  | 0.67       | 0.67       | 0.67       |   0.0 |  1.68
Other   |            | 0.1519     |            |       |  0.38

Nlocal:    19652 ave 19652 max 19652 min
Histogram: 1 0 0 0 0 0 0 0 0 0
Nghost:    14365 ave 14365 max 14365 min
Histogram: 1 0 0 0 0 0 0 0 0 0
Neighs:    796333 ave 796333 max 796333 min
Histogram: 1 0 0 0 0 0 0 0 0 0

Total # of neighbors = 796333
Ave neighs/atom = 40.5217
Neighbor list builds = 495
Dangerous builds not checked
Setting up Verlet run ...
  Unit style    : metal
  Current step  : 44497
  Time step     : 0.001
Per MPI rank memory allocation (min/avg/max) = 18.22 | 18.22 | 18.22 Mbytes
Step Temp Press TotEng PotEng Enthalpy Volume 
   44497    2121.7338   -200.74739   -16707.424   -22096.821   -16784.564    615658.41 
   44669    2096.1043   -577.14628   -16793.962   -22118.258    -17015.44    614829.82 
Loop time of 13.6377 on 1 procs for 172 steps with 19652 atoms

Performance: 1.090 ns/day, 22.025 hours/ns, 12.612 timesteps/s
100.0% CPU use with 1 MPI tasks x no OpenMP threads

MPI task timing breakdown:
Section |  min time  |  avg time  |  max time  |%varavg| %total
---------------------------------------------------------------
Pair    | 6.9539     | 6.9539     | 6.9539     |   0.0 | 50.99
Neigh   | 6.2611     | 6.2611     | 6.2611     |   0.0 | 45.91
Comm    | 0.13721    | 0.13721    | 0.13721    |   0.0 |  1.01
Output  | 0.000144   | 0.000144   | 0.000144   |   0.0 |  0.00
Modify  | 0.23265    | 0.23265    | 0.23265    |   0.0 |  1.71
Other   |            | 0.0527     |            |       |  0.39

Nlocal:    19652 ave 19652 max 19652 min
Histogram: 1 0 0 0 0 0 0 0 0 0
Nghost:    14373 ave 14373 max 14373 min
Histogram: 1 0 0 0 0 0 0 0 0 0
Neighs:    797584 ave 797584 max 797584 min
Histogram: 1 0 0 0 0 0 0 0 0 0

Total # of neighbors = 797584
Ave neighs/atom = 40.5854
Neighbor list builds = 172
Dangerous builds not checked
Setting up Verlet run ...
  Unit style    : metal
  Current step  : 44669
  Time step     : 0.001
Per MPI rank memory allocation (min/avg/max) = 18.22 | 18.22 | 18.22 Mbytes
Step Temp Press TotEng PotEng Enthalpy Volume 
   44669    2096.1043   -577.14628   -16793.962   -22118.258    -17015.44    614829.82 
   44689    2093.0642   -513.14047   -16793.668   -22110.241   -16990.576    614806.63 
   45164    2056.1042    62.367907   -17048.671   -22271.363   -17025.002    608041.59 
Loop time of 40.2415 on 1 procs for 495 steps with 19652 atoms

Performance: 1.063 ns/day, 22.582 hours/ns, 12.301 timesteps/s
100.0% CPU use with 1 MPI tasks x no OpenMP threads

MPI task timing breakdown:
Section |  min time  |  avg time  |  max time  |%varavg| %total
---------------------------------------------------------------
Pair    | 20.125     | 20.125     | 20.125     |   0.0 | 50.01
Neigh   | 18.861     | 18.861     | 18.861     |   0.0 | 46.87
Comm    | 0.39707    | 0.39707    | 0.39707    |   0.0 |  0.99
Output  | 0.040627   | 0.040627   | 0.040627   |   0.0 |  0.10
Modify  | 0.66761    | 0.66761    | 0.66761    |   0.0 |  1.66
Other   |            | 0.1501     |            |       |  0.37

Nlocal:    19652 ave 19652 max 19652 min
Histogram: 1 0 0 0 0 0 0 0 0 0
Nghost:    14402 ave 14402 max 14402 min
Histogram: 1 0 0 0 0 0 0 0 0 0
Neighs:    806824 ave 806824 max 806824 min
Histogram: 1 0 0 0 0 0 0 0 0 0

Total # of neighbors = 806824
Ave neighs/atom = 41.0556
Neighbor list builds = 495
Dangerous builds not checked
Setting up Verlet run ...
  Unit style    : metal
  Current step  : 45164
  Time step     : 0.001
Per MPI rank memory allocation (min/avg/max) = 18.22 | 18.22 | 18.22 Mbytes
Step Temp Press TotEng PotEng Enthalpy Volume 
   45164    2056.1042    62.367907   -17048.671   -22271.363   -17025.002    608041.59 
   45336    2052.0564   -108.06291   -17137.101   -22349.511   -17178.089    607701.18 
Loop time of 14.0476 on 1 procs for 172 steps with 19652 atoms

Performance: 1.058 ns/day, 22.687 hours/ns, 12.244 timesteps/s
100.0% CPU use with 1 MPI tasks x no OpenMP threads

MPI task timing breakdown:
Section |  min time  |  avg time  |  max time  |%varavg| %total
---------------------------------------------------------------
Pair    | 6.9968     | 6.9968     | 6.9968     |   0.0 | 49.81
Neigh   | 6.6308     | 6.6308     | 6.6308     |   0.0 | 47.20
Comm    | 0.13634    | 0.13634    | 0.13634    |   0.0 |  0.97
Output  | 0.00013399 | 0.00013399 | 0.00013399 |   0.0 |  0.00
Modify  | 0.2314     | 0.2314     | 0.2314     |   0.0 |  1.65
Other   |            | 0.05212    |            |       |  0.37

Nlocal:    19652 ave 19652 max 19652 min
Histogram: 1 0 0 0 0 0 0 0 0 0
Nghost:    14374 ave 14374 max 14374 min
Histogram: 1 0 0 0 0 0 0 0 0 0
Neighs:    807539 ave 807539 max 807539 min
Histogram: 1 0 0 0 0 0 0 0 0 0

Total # of neighbors = 807539
Ave neighs/atom = 41.0919
Neighbor list builds = 172
Dangerous builds not checked
Setting up Verlet run ...
  Unit style    : metal
  Current step  : 45336
  Time step     : 0.001
Per MPI rank memory allocation (min/avg/max) = 18.22 | 18.22 | 18.22 Mbytes
Step Temp Press TotEng PotEng Enthalpy Volume 
   45336    2052.0564   -108.06291   -17137.101   -22349.511   -17178.089    607701.18 
   45356    2049.1599   -201.19637   -17137.113   -22342.166   -17213.426    607696.09 
   45831    2010.0641   -16.795912   -17361.208   -22466.954   -17367.537    603748.12 
Loop time of 41.1294 on 1 procs for 495 steps with 19652 atoms

Performance: 1.040 ns/day, 23.080 hours/ns, 12.035 timesteps/s
100.0% CPU use with 1 MPI tasks x no OpenMP threads

MPI task timing breakdown:
Section |  min time  |  avg time  |  max time  |%varavg| %total
---------------------------------------------------------------
Pair    | 20.501     | 20.501     | 20.501     |   0.0 | 49.84
Neigh   | 19.366     | 19.366     | 19.366     |   0.0 | 47.09
Comm    | 0.40444    | 0.40444    | 0.40444    |   0.0 |  0.98
Output  | 0.040981   | 0.040981   | 0.040981   |   0.0 |  0.10
Modify  | 0.66677    | 0.66677    | 0.66677    |   0.0 |  1.62
Other   |            | 0.1502     |            |       |  0.37

Nlocal:    19652 ave 19652 max 19652 min
Histogram: 1 0 0 0 0 0 0 0 0 0
Nghost:    14433 ave 14433 max 14433 min
Histogram: 1 0 0 0 0 0 0 0 0 0
Neighs:    813004 ave 813004 max 813004 min
Histogram: 1 0 0 0 0 0 0 0 0 0

Total # of neighbors = 813004
Ave neighs/atom = 41.37
Neighbor list builds = 495
Dangerous builds not checked
Setting up Verlet run ...
  Unit style    : metal
  Current step  : 45831
  Time step     : 0.001
Per MPI rank memory allocation (min/avg/max) = 18.22 | 18.22 | 18.22 Mbytes
Step Temp Press TotEng PotEng Enthalpy Volume 
   45831    2010.0641   -16.795912   -17361.208   -22466.954   -17367.537    603748.12 
   46003    1992.3218   -194.97342   -17413.757   -22474.436   -17487.207    603571.31 
Loop time of 13.6201 on 1 procs for 172 steps with 19652 atoms

Performance: 1.091 ns/day, 21.996 hours/ns, 12.628 timesteps/s
100.1% CPU use with 1 MPI tasks x no OpenMP threads

MPI task timing breakdown:
Section |  min time  |  avg time  |  max time  |%varavg| %total
---------------------------------------------------------------
Pair    | 6.8154     | 6.8154     | 6.8154     |   0.0 | 50.04
Neigh   | 6.3985     | 6.3985     | 6.3985     |   0.0 | 46.98
Comm    | 0.13196    | 0.13196    | 0.13196    |   0.0 |  0.97
Output  | 0.00013185 | 0.00013185 | 0.00013185 |   0.0 |  0.00
Modify  | 0.22377    | 0.22377    | 0.22377    |   0.0 |  1.64
Other   |            | 0.05032    |            |       |  0.37

Nlocal:    19652 ave 19652 max 19652 min
Histogram: 1 0 0 0 0 0 0 0 0 0
Nghost:    14353 ave 14353 max 14353 min
Histogram: 1 0 0 0 0 0 0 0 0 0
Neighs:    812242 ave 812242 max 812242 min
Histogram: 1 0 0 0 0 0 0 0 0 0

Total # of neighbors = 812242
Ave neighs/atom = 41.3313
Neighbor list builds = 172
Dangerous builds not checked
Setting up Verlet run ...
  Unit style    : metal
  Current step  : 46003
  Time step     : 0.001
Per MPI rank memory allocation (min/avg/max) = 18.22 | 18.22 | 18.22 Mbytes
Step Temp Press TotEng PotEng Enthalpy Volume 
   46003    1992.3218   -194.97342   -17413.757   -22474.436   -17487.207    603571.31 
   46023    2001.4565   -306.84284   -17413.333   -22497.215   -17528.925    603561.68 
   46498    1952.3717    330.60676   -17655.769   -22614.971   -17532.567     597058.4 
Loop time of 39.9876 on 1 procs for 495 steps with 19652 atoms

Performance: 1.070 ns/day, 22.440 hours/ns, 12.379 timesteps/s
100.0% CPU use with 1 MPI tasks x no OpenMP threads

MPI task timing breakdown:
Section |  min time  |  avg time  |  max time  |%varavg| %total
---------------------------------------------------------------
Pair    | 20.043     | 20.043     | 20.043     |   0.0 | 50.12
Neigh   | 18.725     | 18.725     | 18.725     |   0.0 | 46.83
Comm    | 0.38925    | 0.38925    | 0.38925    |   0.0 |  0.97
Output  | 0.040316   | 0.040316   | 0.040316   |   0.0 |  0.10
Modify  | 0.64617    | 0.64617    | 0.64617    |   0.0 |  1.62
Other   |            | 0.1448     |            |       |  0.36

Nlocal:    19652 ave 19652 max 19652 min
Histogram: 1 0 0 0 0 0 0 0 0 0
Nghost:    14433 ave 14433 max 14433 min
Histogram: 1 0 0 0 0 0 0 0 0 0
Neighs:    821684 ave 821684 max 821684 min
Histogram: 1 0 0 0 0 0 0 0 0 0

Total # of neighbors = 821684
Ave neighs/atom = 41.8117
Neighbor list builds = 495
Dangerous builds not checked
Setting up Verlet run ...
  Unit style    : metal
  Current step  : 46498
  Time step     : 0.001
Per MPI rank memory allocation (min/avg/max) = 18.22 | 18.22 | 18.22 Mbytes
Step Temp Press TotEng PotEng Enthalpy Volume 
   46498    1952.3717    330.60676   -17655.769   -22614.971   -17532.567     597058.4 
   46670    1941.7038   -213.99602   -17737.269   -22669.374   -17817.094    597643.24 
Loop time of 14.1827 on 1 procs for 172 steps with 19652 atoms

Performance: 1.048 ns/day, 22.905 hours/ns, 12.127 timesteps/s
100.1% CPU use with 1 MPI tasks x no OpenMP threads

MPI task timing breakdown:
Section |  min time  |  avg time  |  max time  |%varavg| %total
---------------------------------------------------------------
Pair    | 7.1132     | 7.1132     | 7.1132     |   0.0 | 50.15
Neigh   | 6.6503     | 6.6503     | 6.6503     |   0.0 | 46.89
Comm    | 0.13579    | 0.13579    | 0.13579    |   0.0 |  0.96
Output  | 0.00012994 | 0.00012994 | 0.00012994 |   0.0 |  0.00
Modify  | 0.2311     | 0.2311     | 0.2311     |   0.0 |  1.63
Other   |            | 0.05218    |            |       |  0.37

Nlocal:    19652 ave 19652 max 19652 min
Histogram: 1 0 0 0 0 0 0 0 0 0
Nghost:    14432 ave 14432 max 14432 min
Histogram: 1 0 0 0 0 0 0 0 0 0
Neighs:    820855 ave 820855 max 820855 min
Histogram: 1 0 0 0 0 0 0 0 0 0

Total # of neighbors = 820855
Ave neighs/atom = 41.7695
Neighbor list builds = 172
Dangerous builds not checked
Setting up Verlet run ...
  Unit style    : metal
  Current step  : 46670
  Time step     : 0.001
Per MPI rank memory allocation (min/avg/max) = 18.22 | 18.22 | 18.22 Mbytes
Step Temp Press TotEng PotEng Enthalpy Volume 
   46670    1941.7038   -213.99602   -17737.269   -22669.374   -17817.094    597643.24 
   46690      1941.45   -205.83078   -17736.586   -22668.045   -17813.363    597634.66 
   47165    1917.8153   -38.939638   -17917.575   -22789.001   -17932.025    594563.31 
Loop time of 40.8424 on 1 procs for 495 steps with 19652 atoms

Performance: 1.047 ns/day, 22.919 hours/ns, 12.120 timesteps/s
100.1% CPU use with 1 MPI tasks x no OpenMP threads

MPI task timing breakdown:
Section |  min time  |  avg time  |  max time  |%varavg| %total
---------------------------------------------------------------
Pair    | 20.48      | 20.48      | 20.48      |   0.0 | 50.14
Neigh   | 19.113     | 19.113     | 19.113     |   0.0 | 46.80
Comm    | 0.39448    | 0.39448    | 0.39448    |   0.0 |  0.97
Output  | 0.040693   | 0.040693   | 0.040693   |   0.0 |  0.10
Modify  | 0.66476    | 0.66476    | 0.66476    |   0.0 |  1.63
Other   |            | 0.1492     |            |       |  0.37

Nlocal:    19652 ave 19652 max 19652 min
Histogram: 1 0 0 0 0 0 0 0 0 0
Nghost:    14413 ave 14413 max 14413 min
Histogram: 1 0 0 0 0 0 0 0 0 0
Neighs:    825040 ave 825040 max 825040 min
Histogram: 1 0 0 0 0 0 0 0 0 0

Total # of neighbors = 825040
Ave neighs/atom = 41.9825
Neighbor list builds = 495
Dangerous builds not checked
Setting up Verlet run ...
  Unit style    : metal
  Current step  : 47165
  Time step     : 0.001
Per MPI rank memory allocation (min/avg/max) = 18.22 | 18.22 | 18.22 Mbytes
Step Temp Press TotEng PotEng Enthalpy Volume 
   47165    1917.8153   -38.939638   -17917.575   -22789.001   -17932.025    594563.31 
   47337    1891.1143   -208.08039   -17987.885   -22791.488   -18065.031    594009.13 
Loop time of 13.9371 on 1 procs for 172 steps with 19652 atoms

Performance: 1.066 ns/day, 22.508 hours/ns, 12.341 timesteps/s
100.1% CPU use with 1 MPI tasks x no OpenMP threads

MPI task timing breakdown:
Section |  min time  |  avg time  |  max time  |%varavg| %total
---------------------------------------------------------------
Pair    | 7.0104     | 7.0104     | 7.0104     |   0.0 | 50.30
Neigh   | 6.5186     | 6.5186     | 6.5186     |   0.0 | 46.77
Comm    | 0.13149    | 0.13149    | 0.13149    |   0.0 |  0.94
Output  | 0.00012803 | 0.00012803 | 0.00012803 |   0.0 |  0.00
Modify  | 0.22593    | 0.22593    | 0.22593    |   0.0 |  1.62
Other   |            | 0.05056    |            |       |  0.36

Nlocal:    19652 ave 19652 max 19652 min
Histogram: 1 0 0 0 0 0 0 0 0 0
Nghost:    14408 ave 14408 max 14408 min
Histogram: 1 0 0 0 0 0 0 0 0 0
Neighs:    825474 ave 825474 max 825474 min
Histogram: 1 0 0 0 0 0 0 0 0 0

Total # of neighbors = 825474
Ave neighs/atom = 42.0046
Neighbor list builds = 172
Dangerous builds not checked
Setting up Verlet run ...
  Unit style    : metal
  Current step  : 47337
  Time step     : 0.001
Per MPI rank memory allocation (min/avg/max) = 18.22 | 18.22 | 18.22 Mbytes
Step Temp Press TotEng PotEng Enthalpy Volume 
   47337    1891.1143   -208.08039   -17987.885   -22791.488   -18065.031    594009.13 
   47357    1905.5788   -330.58981   -17987.539   -22827.883   -18110.104    593998.85 
   47832    1868.7975    471.54052   -18226.413   -22973.329   -18053.522    587439.48 
Loop time of 41.4079 on 1 procs for 495 steps with 19652 atoms

Performance: 1.033 ns/day, 23.237 hours/ns, 11.954 timesteps/s
100.1% CPU use with 1 MPI tasks x no OpenMP threads

MPI task timing breakdown:
Section |  min time  |  avg time  |  max time  |%varavg| %total
---------------------------------------------------------------
Pair    | 20.817     | 20.817     | 20.817     |   0.0 | 50.27
Neigh   | 19.342     | 19.342     | 19.342     |   0.0 | 46.71
Comm    | 0.39611    | 0.39611    | 0.39611    |   0.0 |  0.96
Output  | 0.04043    | 0.04043    | 0.04043    |   0.0 |  0.10
Modify  | 0.66368    | 0.66368    | 0.66368    |   0.0 |  1.60
Other   |            | 0.1482     |            |       |  0.36

Nlocal:    19652 ave 19652 max 19652 min
Histogram: 1 0 0 0 0 0 0 0 0 0
Nghost:    14445 ave 14445 max 14445 min
Histogram: 1 0 0 0 0 0 0 0 0 0
Neighs:    835286 ave 835286 max 835286 min
Histogram: 1 0 0 0 0 0 0 0 0 0

Total # of neighbors = 835286
Ave neighs/atom = 42.5039
Neighbor list builds = 495
Dangerous builds not checked
Setting up Verlet run ...
  Unit style    : metal
  Current step  : 47832
  Time step     : 0.001
Per MPI rank memory allocation (min/avg/max) = 18.22 | 18.22 | 18.22 Mbytes
Step Temp Press TotEng PotEng Enthalpy Volume 
   47832    1868.7975    471.54052   -18226.413   -22973.329   -18053.522    587439.48 
   48004    1844.4004   -167.28993   -18300.943   -22985.888   -18362.368    588287.47 
Loop time of 14.3644 on 1 procs for 172 steps with 19652 atoms

Performance: 1.035 ns/day, 23.198 hours/ns, 11.974 timesteps/s
100.1% CPU use with 1 MPI tasks x no OpenMP threads

MPI task timing breakdown:
Section |  min time  |  avg time  |  max time  |%varavg| %total
---------------------------------------------------------------
Pair    | 7.2431     | 7.2431     | 7.2431     |   0.0 | 50.42
Neigh   | 6.7002     | 6.7002     | 6.7002     |   0.0 | 46.64
Comm    | 0.13651    | 0.13651    | 0.13651    |   0.0 |  0.95
Output  | 0.00013494 | 0.00013494 | 0.00013494 |   0.0 |  0.00
Modify  | 0.23245    | 0.23245    | 0.23245    |   0.0 |  1.62
Other   |            | 0.05201    |            |       |  0.36

Nlocal:    19652 ave 19652 max 19652 min
Histogram: 1 0 0 0 0 0 0 0 0 0
Nghost:    14528 ave 14528 max 14528 min
Histogram: 1 0 0 0 0 0 0 0 0 0
Neighs:    833708 ave 833708 max 833708 min
Histogram: 1 0 0 0 0 0 0 0 0 0

Total # of neighbors = 833708
Ave neighs/atom = 42.4236
Neighbor list builds = 172
Dangerous builds not checked
Setting up Verlet run ...
  Unit style    : metal
  Current step  : 48004
  Time step     : 0.001
Per MPI rank memory allocation (min/avg/max) = 18.22 | 18.22 | 18.22 Mbytes
Step Temp Press TotEng PotEng Enthalpy Volume 
   48004    1844.4004   -167.28993   -18300.943   -22985.888   -18362.368    588287.47 
   48024    1845.0135   -153.99981   -18300.523   -22987.025   -18357.068    588280.66 
   48499    1822.6269    42.936266   -18527.814   -23157.452    -18512.17    583764.68 
Loop time of 42.3123 on 1 procs for 495 steps with 19652 atoms

Performance: 1.011 ns/day, 23.744 hours/ns, 11.699 timesteps/s
100.1% CPU use with 1 MPI tasks x no OpenMP threads

MPI task timing breakdown:
Section |  min time  |  avg time  |  max time  |%varavg| %total
---------------------------------------------------------------
Pair    | 21.398     | 21.398     | 21.398     |   0.0 | 50.57
Neigh   | 19.637     | 19.637     | 19.637     |   0.0 | 46.41
Comm    | 0.40786    | 0.40786    | 0.40786    |   0.0 |  0.96
Output  | 0.040816   | 0.040816   | 0.040816   |   0.0 |  0.10
Modify  | 0.67672    | 0.67672    | 0.67672    |   0.0 |  1.60
Other   |            | 0.1526     |            |       |  0.36

Nlocal:    19652 ave 19652 max 19652 min
Histogram: 1 0 0 0 0 0 0 0 0 0
Nghost:    14579 ave 14579 max 14579 min
Histogram: 1 0 0 0 0 0 0 0 0 0
Neighs:    840718 ave 840718 max 840718 min
Histogram: 1 0 0 0 0 0 0 0 0 0

Total # of neighbors = 840718
Ave neighs/atom = 42.7803
Neighbor list builds = 495
Dangerous builds not checked
Setting up Verlet run ...
  Unit style    : metal
  Current step  : 48499
  Time step     : 0.001
Per MPI rank memory allocation (min/avg/max) = 18.22 | 18.22 | 18.22 Mbytes
Step Temp Press TotEng PotEng Enthalpy Volume 
   48499    1822.6269    42.936266   -18527.814   -23157.452    -18512.17    583764.68 
   48671    1794.5772    -254.1693   -18603.397   -23161.786   -18696.012    583808.09 
Loop time of 14.7658 on 1 procs for 172 steps with 19652 atoms

Performance: 1.006 ns/day, 23.847 hours/ns, 11.649 timesteps/s
100.0% CPU use with 1 MPI tasks x no OpenMP threads

MPI task timing breakdown:
Section |  min time  |  avg time  |  max time  |%varavg| %total
---------------------------------------------------------------
Pair    | 7.4844     | 7.4844     | 7.4844     |   0.0 | 50.69
Neigh   | 6.8457     | 6.8457     | 6.8457     |   0.0 | 46.36
Comm    | 0.14225    | 0.14225    | 0.14225    |   0.0 |  0.96
Output  | 0.00013018 | 0.00013018 | 0.00013018 |   0.0 |  0.00
Modify  | 0.23923    | 0.23923    | 0.23923    |   0.0 |  1.62
Other   |            | 0.05407    |            |       |  0.37

Nlocal:    19652 ave 19652 max 19652 min
Histogram: 1 0 0 0 0 0 0 0 0 0
Nghost:    14500 ave 14500 max 14500 min
Histogram: 1 0 0 0 0 0 0 0 0 0
Neighs:    840567 ave 840567 max 840567 min
Histogram: 1 0 0 0 0 0 0 0 0 0

Total # of neighbors = 840567
Ave neighs/atom = 42.7726
Neighbor list builds = 172
Dangerous builds not checked
Setting up Verlet run ...
  Unit style    : metal
  Current step  : 48671
  Time step     : 0.001
Per MPI rank memory allocation (min/avg/max) = 18.22 | 18.22 | 18.22 Mbytes
Step Temp Press TotEng PotEng Enthalpy Volume 
   48671    1794.5772    -254.1693   -18603.397   -23161.786   -18696.012    583808.09 
   48691    1799.0865   -292.35034   -18603.003   -23172.846   -18709.528    583797.02 
   49166    1769.0456    265.39978   -18822.888   -23316.425   -18727.071    578434.96 
Loop time of 42.5198 on 1 procs for 495 steps with 19652 atoms

Performance: 1.006 ns/day, 23.861 hours/ns, 11.642 timesteps/s
100.0% CPU use with 1 MPI tasks x no OpenMP threads

MPI task timing breakdown:
Section |  min time  |  avg time  |  max time  |%varavg| %total
---------------------------------------------------------------
Pair    | 21.561     | 21.561     | 21.561     |   0.0 | 50.71
Neigh   | 19.671     | 19.671     | 19.671     |   0.0 | 46.26
Comm    | 0.40734    | 0.40734    | 0.40734    |   0.0 |  0.96
Output  | 0.043108   | 0.043108   | 0.043108   |   0.0 |  0.10
Modify  | 0.68461    | 0.68461    | 0.68461    |   0.0 |  1.61
Other   |            | 0.153      |            |       |  0.36

Nlocal:    19652 ave 19652 max 19652 min
Histogram: 1 0 0 0 0 0 0 0 0 0
Nghost:    14654 ave 14654 max 14654 min
Histogram: 1 0 0 0 0 0 0 0 0 0
Neighs:    848642 ave 848642 max 848642 min
Histogram: 1 0 0 0 0 0 0 0 0 0

Total # of neighbors = 848642
Ave neighs/atom = 43.1835
Neighbor list builds = 495
Dangerous builds not checked
Setting up Verlet run ...
  Unit style    : metal
  Current step  : 49166
  Time step     : 0.001
Per MPI rank memory allocation (min/avg/max) = 18.22 | 18.22 | 18.22 Mbytes
Step Temp Press TotEng PotEng Enthalpy Volume 
   49166    1769.0456    265.39978   -18822.888   -23316.425   -18727.071    578434.96 
   49338     1746.698   -253.96117   -18899.029   -23335.801   -18990.816     579060.6 
Loop time of 14.5822 on 1 procs for 172 steps with 19652 atoms

Performance: 1.019 ns/day, 23.550 hours/ns, 11.795 timesteps/s
100.0% CPU use with 1 MPI tasks x no OpenMP threads

MPI task timing breakdown:
Section |  min time  |  avg time  |  max time  |%varavg| %total
---------------------------------------------------------------
Pair    | 7.4494     | 7.4494     | 7.4494     |   0.0 | 51.09
Neigh   | 6.7028     | 6.7028     | 6.7028     |   0.0 | 45.97
Comm    | 0.14158    | 0.14158    | 0.14158    |   0.0 |  0.97
Output  | 0.000139   | 0.000139   | 0.000139   |   0.0 |  0.00
Modify  | 0.23433    | 0.23433    | 0.23433    |   0.0 |  1.61
Other   |            | 0.05393    |            |       |  0.37

Nlocal:    19652 ave 19652 max 19652 min
Histogram: 1 0 0 0 0 0 0 0 0 0
Nghost:    14592 ave 14592 max 14592 min
Histogram: 1 0 0 0 0 0 0 0 0 0
Neighs:    847445 ave 847445 max 847445 min
Histogram: 1 0 0 0 0 0 0 0 0 0

Total # of neighbors = 847445
Ave neighs/atom = 43.1226
Neighbor list builds = 172
Dangerous builds not checked
Setting up Verlet run ...
  Unit style    : metal
  Current step  : 49338
  Time step     : 0.001
Per MPI rank memory allocation (min/avg/max) = 18.22 | 18.22 | 18.22 Mbytes
Step Temp Press TotEng PotEng Enthalpy Volume 
   49338     1746.698   -253.96117   -18899.029   -23335.801   -18990.816     579060.6 
   49358    1730.7856   -70.129725   -18898.181   -23294.534   -18923.527    579052.35 
   49833    1712.4152   -239.13153   -19068.451   -23418.141   -19154.508    576583.94 
Loop time of 42.6168 on 1 procs for 495 steps with 19652 atoms

Performance: 1.004 ns/day, 23.915 hours/ns, 11.615 timesteps/s
99.8% CPU use with 1 MPI tasks x no OpenMP threads

MPI task timing breakdown:
Section |  min time  |  avg time  |  max time  |%varavg| %total
---------------------------------------------------------------
Pair    | 21.726     | 21.726     | 21.726     |   0.0 | 50.98
Neigh   | 19.579     | 19.579     | 19.579     |   0.0 | 45.94
Comm    | 0.41903    | 0.41903    | 0.41903    |   0.0 |  0.98
Output  | 0.050694   | 0.050694   | 0.050694   |   0.0 |  0.12
Modify  | 0.68208    | 0.68208    | 0.68208    |   0.0 |  1.60
Other   |            | 0.1597     |            |       |  0.37

Nlocal:    19652 ave 19652 max 19652 min
Histogram: 1 0 0 0 0 0 0 0 0 0
Nghost:    14667 ave 14667 max 14667 min
Histogram: 1 0 0 0 0 0 0 0 0 0
Neighs:    851520 ave 851520 max 851520 min
Histogram: 1 0 0 0 0 0 0 0 0 0

Total # of neighbors = 851520
Ave neighs/atom = 43.3299
Neighbor list builds = 495
Dangerous builds not checked
Setting up Verlet run ...
  Unit style    : metal
  Current step  : 49833
  Time step     : 0.001
Per MPI rank memory allocation (min/avg/max) = 18.22 | 18.22 | 18.22 Mbytes
Step Temp Press TotEng PotEng Enthalpy Volume 
   49833    1712.4152   -239.13153   -19068.451   -23418.141   -19154.508    576583.94 
   50005    1694.5695   -125.53703   -19143.418   -23447.779   -19188.536    575816.83 
Loop time of 14.9088 on 1 procs for 172 steps with 19652 atoms

Performance: 0.997 ns/day, 24.078 hours/ns, 11.537 timesteps/s
100.0% CPU use with 1 MPI tasks x no OpenMP threads

MPI task timing breakdown:
Section |  min time  |  avg time  |  max time  |%varavg| %total
---------------------------------------------------------------
Pair    | 7.5988     | 7.5988     | 7.5988     |   0.0 | 50.97
Neigh   | 6.8738     | 6.8738     | 6.8738     |   0.0 | 46.11
Comm    | 0.14261    | 0.14261    | 0.14261    |   0.0 |  0.96
Output  | 0.00012922 | 0.00012922 | 0.00012922 |   0.0 |  0.00
Modify  | 0.23952    | 0.23952    | 0.23952    |   0.0 |  1.61
Other   |            | 0.05401    |            |       |  0.36

Nlocal:    19652 ave 19652 max 19652 min
Histogram: 1 0 0 0 0 0 0 0 0 0
Nghost:    14646 ave 14646 max 14646 min
Histogram: 1 0 0 0 0 0 0 0 0 0
Neighs:    851520 ave 851520 max 851520 min
Histogram: 1 0 0 0 0 0 0 0 0 0

Total # of neighbors = 851520
Ave neighs/atom = 43.3299
Neighbor list builds = 172
Dangerous builds not checked
Setting up Verlet run ...
  Unit style    : metal
  Current step  : 50005
  Time step     : 0.001
Per MPI rank memory allocation (min/avg/max) = 18.22 | 18.22 | 18.22 Mbytes
Step Temp Press TotEng PotEng Enthalpy Volume 
   50005    1694.5695   -125.53703   -19143.418   -23447.779   -19188.536    575816.83 
   50025    1705.5976   -171.40488   -19143.329   -23475.703   -19204.931       575811 
   50500    1671.1077    431.60887    -19380.54   -23625.306   -19226.823    570614.71 
Loop time of 42.2144 on 1 procs for 495 steps with 19652 atoms

Performance: 1.013 ns/day, 23.689 hours/ns, 11.726 timesteps/s
100.1% CPU use with 1 MPI tasks x no OpenMP threads

MPI task timing breakdown:
Section |  min time  |  avg time  |  max time  |%varavg| %total
---------------------------------------------------------------
Pair    | 21.524     | 21.524     | 21.524     |   0.0 | 50.99
Neigh   | 19.431     | 19.431     | 19.431     |   0.0 | 46.03
Comm    | 0.40086    | 0.40086    | 0.40086    |   0.0 |  0.95
Output  | 0.041509   | 0.041509   | 0.041509   |   0.0 |  0.10
Modify  | 0.66655    | 0.66655    | 0.66655    |   0.0 |  1.58
Other   |            | 0.1505     |            |       |  0.36

Nlocal:    19652 ave 19652 max 19652 min
Histogram: 1 0 0 0 0 0 0 0 0 0
Nghost:    14637 ave 14637 max 14637 min
Histogram: 1 0 0 0 0 0 0 0 0 0
Neighs:    860109 ave 860109 max 860109 min
Histogram: 1 0 0 0 0 0 0 0 0 0

Total # of neighbors = 860109
Ave neighs/atom = 43.767
Neighbor list builds = 495
Dangerous builds not checked
Setting up Verlet run ...
  Unit style    : metal
  Current step  : 50500
  Time step     : 0.001
Per MPI rank memory allocation (min/avg/max) = 18.22 | 18.22 | 18.22 Mbytes
Step Temp Press TotEng PotEng Enthalpy Volume 
   50500    1671.1077    431.60887    -19380.54   -23625.306   -19226.823    570614.71 
   50672    1642.8705   -268.19646   -19453.205   -23626.246   -19548.895    571638.68 
Loop time of 14.7387 on 1 procs for 172 steps with 19652 atoms

Performance: 1.008 ns/day, 23.803 hours/ns, 11.670 timesteps/s
100.1% CPU use with 1 MPI tasks x no OpenMP threads

MPI task timing breakdown:
Section |  min time  |  avg time  |  max time  |%varavg| %total
---------------------------------------------------------------
Pair    | 7.5264     | 7.5264     | 7.5264     |   0.0 | 51.07
Neigh   | 6.7847     | 6.7847     | 6.7847     |   0.0 | 46.03
Comm    | 0.13897    | 0.13897    | 0.13897    |   0.0 |  0.94
Output  | 0.00020003 | 0.00020003 | 0.00020003 |   0.0 |  0.00
Modify  | 0.23515    | 0.23515    | 0.23515    |   0.0 |  1.60
Other   |            | 0.05334    |            |       |  0.36

Nlocal:    19652 ave 19652 max 19652 min
Histogram: 1 0 0 0 0 0 0 0 0 0
Nghost:    14698 ave 14698 max 14698 min
Histogram: 1 0 0 0 0 0 0 0 0 0
Neighs:    858225 ave 858225 max 858225 min
Histogram: 1 0 0 0 0 0 0 0 0 0

Total # of neighbors = 858225
Ave neighs/atom = 43.6711
Neighbor list builds = 172
Dangerous builds not checked
Setting up Verlet run ...
  Unit style    : metal
  Current step  : 50672
  Time step     : 0.001
Per MPI rank memory allocation (min/avg/max) = 18.22 | 18.22 | 18.22 Mbytes
Step Temp Press TotEng PotEng Enthalpy Volume 
   50672    1642.8705   -268.19646   -19453.205   -23626.246   -19548.895    571638.68 
   50692    1637.3696   -230.14748   -19452.204   -23611.272   -19534.317    571628.61 
   51167    1606.9177    168.43304   -19692.676   -23774.393   -19633.078    566909.52 
Loop time of 43.3324 on 1 procs for 495 steps with 19652 atoms

Performance: 0.987 ns/day, 24.317 hours/ns, 11.423 timesteps/s
99.7% CPU use with 1 MPI tasks x no OpenMP threads

MPI task timing breakdown:
Section |  min time  |  avg time  |  max time  |%varavg| %total
---------------------------------------------------------------
Pair    | 22.431     | 22.431     | 22.431     |   0.0 | 51.76
Neigh   | 19.5       | 19.5       | 19.5       |   0.0 | 45.00
Comm    | 0.45895    | 0.45895    | 0.45895    |   0.0 |  1.06
Output  | 0.04886    | 0.04886    | 0.04886    |   0.0 |  0.11
Modify  | 0.71343    | 0.71343    | 0.71343    |   0.0 |  1.65
Other   |            | 0.1809     |            |       |  0.42

Nlocal:    19652 ave 19652 max 19652 min
Histogram: 1 0 0 0 0 0 0 0 0 0
Nghost:    14786 ave 14786 max 14786 min
Histogram: 1 0 0 0 0 0 0 0 0 0
Neighs:    866307 ave 866307 max 866307 min
Histogram: 1 0 0 0 0 0 0 0 0 0

Total # of neighbors = 866307
Ave neighs/atom = 44.0824
Neighbor list builds = 495
Dangerous builds not checked
Setting up Verlet run ...
  Unit style    : metal
  Current step  : 51167
  Time step     : 0.001
Per MPI rank memory allocation (min/avg/max) = 18.22 | 18.22 | 18.22 Mbytes
Step Temp Press TotEng PotEng Enthalpy Volume 
   51167    1606.9177    168.43304   -19692.676   -23774.393   -19633.078    566909.52 
   51339    1599.7338   -296.67901   -19758.398   -23821.867    -19863.38    566939.29 
Loop time of 15.4327 on 1 procs for 172 steps with 19652 atoms

Performance: 0.963 ns/day, 24.924 hours/ns, 11.145 timesteps/s
100.0% CPU use with 1 MPI tasks x no OpenMP threads

MPI task timing breakdown:
Section |  min time  |  avg time  |  max time  |%varavg| %total
---------------------------------------------------------------
Pair    | 7.9647     | 7.9647     | 7.9647     |   0.0 | 51.61
Neigh   | 6.9835     | 6.9835     | 6.9835     |   0.0 | 45.25
Comm    | 0.16398    | 0.16398    | 0.16398    |   0.0 |  1.06
Output  | 0.00014591 | 0.00014591 | 0.00014591 |   0.0 |  0.00
Modify  | 0.25636    | 0.25636    | 0.25636    |   0.0 |  1.66
Other   |            | 0.06406    |            |       |  0.42

Nlocal:    19652 ave 19652 max 19652 min
Histogram: 1 0 0 0 0 0 0 0 0 0
Nghost:    14731 ave 14731 max 14731 min
Histogram: 1 0 0 0 0 0 0 0 0 0
Neighs:    866134 ave 866134 max 866134 min
Histogram: 1 0 0 0 0 0 0 0 0 0

Total # of neighbors = 866134
Ave neighs/atom = 44.0736
Neighbor list builds = 172
Dangerous builds not checked
Setting up Verlet run ...
  Unit style    : metal
  Current step  : 51339
  Time step     : 0.001
Per MPI rank memory allocation (min/avg/max) = 18.22 | 18.22 | 18.22 Mbytes
Step Temp Press TotEng PotEng Enthalpy Volume 
   51339    1599.7338   -296.67901   -19758.398   -23821.867    -19863.38    566939.29 
   51359    1600.9745   -297.19302   -19758.605   -23825.226   -19863.766    566925.58 
   51834    1554.3793    72.377761   -19962.424   -23910.689   -19936.951     563868.6 
Loop time of 46.6607 on 1 procs for 495 steps with 19652 atoms

Performance: 0.917 ns/day, 26.184 hours/ns, 10.609 timesteps/s
99.9% CPU use with 1 MPI tasks x no OpenMP threads

MPI task timing breakdown:
Section |  min time  |  avg time  |  max time  |%varavg| %total
---------------------------------------------------------------
Pair    | 24.201     | 24.201     | 24.201     |   0.0 | 51.87
Neigh   | 20.974     | 20.974     | 20.974     |   0.0 | 44.95
Comm    | 0.48957    | 0.48957    | 0.48957    |   0.0 |  1.05
Output  | 0.050328   | 0.050328   | 0.050328   |   0.0 |  0.11
Modify  | 0.75662    | 0.75662    | 0.75662    |   0.0 |  1.62
Other   |            | 0.1883     |            |       |  0.40

Nlocal:    19652 ave 19652 max 19652 min
Histogram: 1 0 0 0 0 0 0 0 0 0
Nghost:    14831 ave 14831 max 14831 min
Histogram: 1 0 0 0 0 0 0 0 0 0
Neighs:    870964 ave 870964 max 870964 min
Histogram: 1 0 0 0 0 0 0 0 0 0

Total # of neighbors = 870964
Ave neighs/atom = 44.3194
Neighbor list builds = 495
Dangerous builds not checked
Setting up Verlet run ...
  Unit style    : metal
  Current step  : 51834
  Time step     : 0.001
Per MPI rank memory allocation (min/avg/max) = 18.22 | 18.22 | 18.22 Mbytes
Step Temp Press TotEng PotEng Enthalpy Volume 
   51834    1554.3793    72.377761   -19962.424   -23910.689   -19936.951     563868.6 
   52006     1548.908   -194.03228   -20017.085   -23951.452   -20085.382    563945.25 
Loop time of 14.9003 on 1 procs for 172 steps with 19652 atoms

Performance: 0.997 ns/day, 24.064 hours/ns, 11.543 timesteps/s
100.0% CPU use with 1 MPI tasks x no OpenMP threads

MPI task timing breakdown:
Section |  min time  |  avg time  |  max time  |%varavg| %total
---------------------------------------------------------------
Pair    | 7.7436     | 7.7436     | 7.7436     |   0.0 | 51.97
Neigh   | 6.6949     | 6.6949     | 6.6949     |   0.0 | 44.93
Comm    | 0.1558     | 0.1558     | 0.1558     |   0.0 |  1.05
Output  | 0.0001421  | 0.0001421  | 0.0001421  |   0.0 |  0.00
Modify  | 0.24452    | 0.24452    | 0.24452    |   0.0 |  1.64
Other   |            | 0.0613     |            |       |  0.41

Nlocal:    19652 ave 19652 max 19652 min
Histogram: 1 0 0 0 0 0 0 0 0 0
Nghost:    14783 ave 14783 max 14783 min
Histogram: 1 0 0 0 0 0 0 0 0 0
Neighs:    870775 ave 870775 max 870775 min
Histogram: 1 0 0 0 0 0 0 0 0 0

Total # of neighbors = 870775
Ave neighs/atom = 44.3097
Neighbor list builds = 172
Dangerous builds not checked
Setting up Verlet run ...
  Unit style    : metal
  Current step  : 52006
  Time step     : 0.001
Per MPI rank memory allocation (min/avg/max) = 18.22 | 18.22 | 18.22 Mbytes
Step Temp Press TotEng PotEng Enthalpy Volume 
   52006     1548.908   -194.03228   -20017.085   -23951.452   -20085.382    563945.25 
   52026    1550.0892   -249.00289   -20017.053   -23954.421   -20104.697     563935.6 
   52501    1511.1724    240.45949   -20232.494    -24071.01   -20148.446    560008.72 
Loop time of 46.4313 on 1 procs for 495 steps with 19652 atoms

Performance: 0.921 ns/day, 26.056 hours/ns, 10.661 timesteps/s
99.9% CPU use with 1 MPI tasks x no OpenMP threads

MPI task timing breakdown:
Section |  min time  |  avg time  |  max time  |%varavg| %total
---------------------------------------------------------------
Pair    | 24.077     | 24.077     | 24.077     |   0.0 | 51.86
Neigh   | 20.886     | 20.886     | 20.886     |   0.0 | 44.98
Comm    | 0.48767    | 0.48767    | 0.48767    |   0.0 |  1.05
Output  | 0.041661   | 0.041661   | 0.041661   |   0.0 |  0.09
Modify  | 0.75015    | 0.75015    | 0.75015    |   0.0 |  1.62
Other   |            | 0.1886     |            |       |  0.41

Nlocal:    19652 ave 19652 max 19652 min
Histogram: 1 0 0 0 0 0 0 0 0 0
Nghost:    14835 ave 14835 max 14835 min
Histogram: 1 0 0 0 0 0 0 0 0 0
Neighs:    877090 ave 877090 max 877090 min
Histogram: 1 0 0 0 0 0 0 0 0 0

Total # of neighbors = 877090
Ave neighs/atom = 44.6311
Neighbor list builds = 495
Dangerous builds not checked
Setting up Verlet run ...
  Unit style    : metal
  Current step  : 52501
  Time step     : 0.001
Per MPI rank memory allocation (min/avg/max) = 18.22 | 18.22 | 18.22 Mbytes
Step Temp Press TotEng PotEng Enthalpy Volume 
   52501    1511.1724    240.45949   -20232.494    -24071.01   -20148.446    560008.72 
   52673    1495.8827   -425.31906   -20294.686   -24094.365   -20443.523    560668.09 
Loop time of 14.9458 on 1 procs for 172 steps with 19652 atoms

Performance: 0.994 ns/day, 24.137 hours/ns, 11.508 timesteps/s
100.0% CPU use with 1 MPI tasks x no OpenMP threads

MPI task timing breakdown:
Section |  min time  |  avg time  |  max time  |%varavg| %total
---------------------------------------------------------------
Pair    | 7.7957     | 7.7957     | 7.7957     |   0.0 | 52.16
Neigh   | 6.6834     | 6.6834     | 6.6834     |   0.0 | 44.72
Comm    | 0.15758    | 0.15758    | 0.15758    |   0.0 |  1.05
Output  | 0.00013113 | 0.00013113 | 0.00013113 |   0.0 |  0.00
Modify  | 0.24661    | 0.24661    | 0.24661    |   0.0 |  1.65
Other   |            | 0.06238    |            |       |  0.42

Nlocal:    19652 ave 19652 max 19652 min
Histogram: 1 0 0 0 0 0 0 0 0 0
Nghost:    14796 ave 14796 max 14796 min
Histogram: 1 0 0 0 0 0 0 0 0 0
Neighs:    875902 ave 875902 max 875902 min
Histogram: 1 0 0 0 0 0 0 0 0 0

Total # of neighbors = 875902
Ave neighs/atom = 44.5706
Neighbor list builds = 172
Dangerous builds not checked
Setting up Verlet run ...
  Unit style    : metal
  Current step  : 52673
  Time step     : 0.001
Per MPI rank memory allocation (min/avg/max) = 18.22 | 18.22 | 18.22 Mbytes
Step Temp Press TotEng PotEng Enthalpy Volume 
   52673    1495.8827   -425.31906   -20294.686   -24094.365   -20443.523    560668.09 
   52693    1508.9406   -649.41104   -20294.787   -24127.634   -20522.033    560644.17 
   53168    1455.9458    135.95271   -20540.112   -24238.347   -20492.979    555452.63 
Loop time of 44.3045 on 1 procs for 495 steps with 19652 atoms

Performance: 0.965 ns/day, 24.862 hours/ns, 11.173 timesteps/s
100.0% CPU use with 1 MPI tasks x no OpenMP threads

MPI task timing breakdown:
Section |  min time  |  avg time  |  max time  |%varavg| %total
---------------------------------------------------------------
Pair    | 23.141     | 23.141     | 23.141     |   0.0 | 52.23
Neigh   | 19.764     | 19.764     | 19.764     |   0.0 | 44.61
Comm    | 0.4595     | 0.4595     | 0.4595     |   0.0 |  1.04
Output  | 0.041107   | 0.041107   | 0.041107   |   0.0 |  0.09
Modify  | 0.71686    | 0.71686    | 0.71686    |   0.0 |  1.62
Other   |            | 0.1822     |            |       |  0.41

Nlocal:    19652 ave 19652 max 19652 min
Histogram: 1 0 0 0 0 0 0 0 0 0
Nghost:    14944 ave 14944 max 14944 min
Histogram: 1 0 0 0 0 0 0 0 0 0
Neighs:    884075 ave 884075 max 884075 min
Histogram: 1 0 0 0 0 0 0 0 0 0

Total # of neighbors = 884075
Ave neighs/atom = 44.9865
Neighbor list builds = 495
Dangerous builds not checked
Setting up Verlet run ...
  Unit style    : metal
  Current step  : 53168
  Time step     : 0.001
Per MPI rank memory allocation (min/avg/max) = 18.22 | 18.22 | 18.22 Mbytes
Step Temp Press TotEng PotEng Enthalpy Volume 
   53168    1455.9458    135.95271   -20540.112   -24238.347   -20492.979    555452.63 
   53340    1453.9971   -321.35905   -20597.519   -24290.804   -20709.037    555985.82 
Loop time of 14.9177 on 1 procs for 172 steps with 19652 atoms

Performance: 0.996 ns/day, 24.092 hours/ns, 11.530 timesteps/s
100.1% CPU use with 1 MPI tasks x no OpenMP threads

MPI task timing breakdown:
Section |  min time  |  avg time  |  max time  |%varavg| %total
---------------------------------------------------------------
Pair    | 7.7972     | 7.7972     | 7.7972     |   0.0 | 52.27
Neigh   | 6.6801     | 6.6801     | 6.6801     |   0.0 | 44.78
Comm    | 0.14359    | 0.14359    | 0.14359    |   0.0 |  0.96
Output  | 0.0001359  | 0.0001359  | 0.0001359  |   0.0 |  0.00
Modify  | 0.23648    | 0.23648    | 0.23648    |   0.0 |  1.59
Other   |            | 0.06017    |            |       |  0.40

Nlocal:    19652 ave 19652 max 19652 min
Histogram: 1 0 0 0 0 0 0 0 0 0
Nghost:    14916 ave 14916 max 14916 min
Histogram: 1 0 0 0 0 0 0 0 0 0
Neighs:    883933 ave 883933 max 883933 min
Histogram: 1 0 0 0 0 0 0 0 0 0

Total # of neighbors = 883933
Ave neighs/atom = 44.9793
Neighbor list builds = 172
Dangerous builds not checked
Setting up Verlet run ...
  Unit style    : metal
  Current step  : 53340
  Time step     : 0.001
Per MPI rank memory allocation (min/avg/max) = 18.22 | 18.22 | 18.22 Mbytes
Step Temp Press TotEng PotEng Enthalpy Volume 
   53340    1453.9971   -321.35905   -20597.519   -24290.804   -20709.037    555985.82 
   53360    1456.5871   -361.50484   -20598.111   -24297.975   -20723.557    555969.94 
   53835    1413.4476    206.00314   -20821.125    -24411.41   -20750.158    551935.57 
Loop time of 44.9901 on 1 procs for 495 steps with 19652 atoms

Performance: 0.951 ns/day, 25.247 hours/ns, 11.002 timesteps/s
99.6% CPU use with 1 MPI tasks x no OpenMP threads

MPI task timing breakdown:
Section |  min time  |  avg time  |  max time  |%varavg| %total
---------------------------------------------------------------
Pair    | 23.372     | 23.372     | 23.372     |   0.0 | 51.95
Neigh   | 20.13      | 20.13      | 20.13      |   0.0 | 44.74
Comm    | 0.43233    | 0.43233    | 0.43233    |   0.0 |  0.96
Output  | 0.17889    | 0.17889    | 0.17889    |   0.0 |  0.40
Modify  | 0.70133    | 0.70133    | 0.70133    |   0.0 |  1.56
Other   |            | 0.1757     |            |       |  0.39

Nlocal:    19652 ave 19652 max 19652 min
Histogram: 1 0 0 0 0 0 0 0 0 0
Nghost:    14896 ave 14896 max 14896 min
Histogram: 1 0 0 0 0 0 0 0 0 0
Neighs:    890115 ave 890115 max 890115 min
Histogram: 1 0 0 0 0 0 0 0 0 0

Total # of neighbors = 890115
Ave neighs/atom = 45.2939
Neighbor list builds = 495
Dangerous builds not checked
Setting up Verlet run ...
  Unit style    : metal
  Current step  : 53835
  Time step     : 0.001
Per MPI rank memory allocation (min/avg/max) = 18.22 | 18.22 | 18.22 Mbytes
Step Temp Press TotEng PotEng Enthalpy Volume 
   53835    1413.4476    206.00314   -20821.125    -24411.41   -20750.158    551935.57 
   54007    1396.4384   -142.38168   -20881.706   -24428.787   -20930.796    552390.04 
Loop time of 15.0228 on 1 procs for 172 steps with 19652 atoms

Performance: 0.989 ns/day, 24.262 hours/ns, 11.449 timesteps/s
100.0% CPU use with 1 MPI tasks x no OpenMP threads

MPI task timing breakdown:
Section |  min time  |  avg time  |  max time  |%varavg| %total
---------------------------------------------------------------
Pair    | 7.7944     | 7.7944     | 7.7944     |   0.0 | 51.88
Neigh   | 6.7932     | 6.7932     | 6.7932     |   0.0 | 45.22
Comm    | 0.14377    | 0.14377    | 0.14377    |   0.0 |  0.96
Output  | 0.00013185 | 0.00013185 | 0.00013185 |   0.0 |  0.00
Modify  | 0.23671    | 0.23671    | 0.23671    |   0.0 |  1.58
Other   |            | 0.05462    |            |       |  0.36

Nlocal:    19652 ave 19652 max 19652 min
Histogram: 1 0 0 0 0 0 0 0 0 0
Nghost:    14927 ave 14927 max 14927 min
Histogram: 1 0 0 0 0 0 0 0 0 0
Neighs:    889675 ave 889675 max 889675 min
Histogram: 1 0 0 0 0 0 0 0 0 0

Total # of neighbors = 889675
Ave neighs/atom = 45.2715
Neighbor list builds = 172
Dangerous builds not checked
Setting up Verlet run ...
  Unit style    : metal
  Current step  : 54007
  Time step     : 0.001
Per MPI rank memory allocation (min/avg/max) = 18.22 | 18.22 | 18.22 Mbytes
Step Temp Press TotEng PotEng Enthalpy Volume 
   54007    1396.4384   -142.38168   -20881.706   -24428.787   -20930.796    552390.04 
   54027    1394.3318   -160.86111   -20881.384   -24423.114   -20936.845    552382.64 
   54502    1363.4166   -76.899791    -21066.98   -24530.182   -21093.356    549535.82 
Loop time of 45.1761 on 1 procs for 495 steps with 19652 atoms

Performance: 0.947 ns/day, 25.351 hours/ns, 10.957 timesteps/s
99.8% CPU use with 1 MPI tasks x no OpenMP threads

MPI task timing breakdown:
Section |  min time  |  avg time  |  max time  |%varavg| %total
---------------------------------------------------------------
Pair    | 23.423     | 23.423     | 23.423     |   0.0 | 51.85
Neigh   | 20.396     | 20.396     | 20.396     |   0.0 | 45.15
Comm    | 0.44339    | 0.44339    | 0.44339    |   0.0 |  0.98
Output  | 0.041627   | 0.041627   | 0.041627   |   0.0 |  0.09
Modify  | 0.70973    | 0.70973    | 0.70973    |   0.0 |  1.57
Other   |            | 0.1622     |            |       |  0.36

Nlocal:    19652 ave 19652 max 19652 min
Histogram: 1 0 0 0 0 0 0 0 0 0
Nghost:    14869 ave 14869 max 14869 min
Histogram: 1 0 0 0 0 0 0 0 0 0
Neighs:    894392 ave 894392 max 894392 min
Histogram: 1 0 0 0 0 0 0 0 0 0

Total # of neighbors = 894392
Ave neighs/atom = 45.5115
Neighbor list builds = 495
Dangerous builds not checked
Setting up Verlet run ...
  Unit style    : metal
  Current step  : 54502
  Time step     : 0.001
Per MPI rank memory allocation (min/avg/max) = 18.22 | 18.22 | 18.22 Mbytes
Step Temp Press TotEng PotEng Enthalpy Volume 
   54502    1363.4166   -76.899791    -21066.98   -24530.182   -21093.356    549535.82 
   54674    1348.2378   -256.01445   -21134.636   -24559.283   -21222.392    549192.53 
Loop time of 16.2654 on 1 procs for 172 steps with 19652 atoms

Performance: 0.914 ns/day, 26.268 hours/ns, 10.575 timesteps/s
100.0% CPU use with 1 MPI tasks x no OpenMP threads

MPI task timing breakdown:
Section |  min time  |  avg time  |  max time  |%varavg| %total
---------------------------------------------------------------
Pair    | 8.464      | 8.464      | 8.464      |   0.0 | 52.04
Neigh   | 7.3239     | 7.3239     | 7.3239     |   0.0 | 45.03
Comm    | 0.15688    | 0.15688    | 0.15688    |   0.0 |  0.96
Output  | 0.00013781 | 0.00013781 | 0.00013781 |   0.0 |  0.00
Modify  | 0.25772    | 0.25772    | 0.25772    |   0.0 |  1.58
Other   |            | 0.0627     |            |       |  0.39

Nlocal:    19652 ave 19652 max 19652 min
Histogram: 1 0 0 0 0 0 0 0 0 0
Nghost:    14900 ave 14900 max 14900 min
Histogram: 1 0 0 0 0 0 0 0 0 0
Neighs:    894987 ave 894987 max 894987 min
Histogram: 1 0 0 0 0 0 0 0 0 0

Total # of neighbors = 894987
Ave neighs/atom = 45.5418
Neighbor list builds = 172
Dangerous builds not checked
Setting up Verlet run ...
  Unit style    : metal
  Current step  : 54674
  Time step     : 0.001
Per MPI rank memory allocation (min/avg/max) = 18.22 | 18.22 | 18.22 Mbytes
Step Temp Press TotEng PotEng Enthalpy Volume 
   54674    1348.2378   -256.01445   -21134.636   -24559.283   -21222.392    549192.53 
   54694    1351.0874   -303.12638   -21134.411   -24566.296   -21238.314    549180.71 
   55169    1313.7458   -52.836216   -21363.474   -24700.508   -21381.476    545906.13 
Loop time of 43.7587 on 1 procs for 495 steps with 19652 atoms

Performance: 0.977 ns/day, 24.556 hours/ns, 11.312 timesteps/s
99.8% CPU use with 1 MPI tasks x no OpenMP threads

MPI task timing breakdown:
Section |  min time  |  avg time  |  max time  |%varavg| %total
---------------------------------------------------------------
Pair    | 22.856     | 22.856     | 22.856     |   0.0 | 52.23
Neigh   | 19.582     | 19.582     | 19.582     |   0.0 | 44.75
Comm    | 0.41993    | 0.41993    | 0.41993    |   0.0 |  0.96
Output  | 0.048393   | 0.048393   | 0.048393   |   0.0 |  0.11
Modify  | 0.6867     | 0.6867     | 0.6867     |   0.0 |  1.57
Other   |            | 0.1663     |            |       |  0.38

Nlocal:    19652 ave 19652 max 19652 min
Histogram: 1 0 0 0 0 0 0 0 0 0
Nghost:    14973 ave 14973 max 14973 min
Histogram: 1 0 0 0 0 0 0 0 0 0
Neighs:    900594 ave 900594 max 900594 min
Histogram: 1 0 0 0 0 0 0 0 0 0

Total # of neighbors = 900594
Ave neighs/atom = 45.8271
Neighbor list builds = 495
Dangerous builds not checked
Setting up Verlet run ...
  Unit style    : metal
  Current step  : 55169
  Time step     : 0.001
Per MPI rank memory allocation (min/avg/max) = 18.22 | 18.22 | 18.22 Mbytes
Step Temp Press TotEng PotEng Enthalpy Volume 
   55169    1313.7458   -52.836216   -21363.474   -24700.508   -21381.476    545906.13 
   55341    1298.9738    72.948857   -21422.905   -24722.416   -21398.071    545410.82 
Loop time of 15.0135 on 1 procs for 172 steps with 19652 atoms

Performance: 0.990 ns/day, 24.247 hours/ns, 11.456 timesteps/s
100.0% CPU use with 1 MPI tasks x no OpenMP threads

MPI task timing breakdown:
Section |  min time  |  avg time  |  max time  |%varavg| %total
---------------------------------------------------------------
Pair    | 7.8256     | 7.8256     | 7.8256     |   0.0 | 52.12
Neigh   | 6.7501     | 6.7501     | 6.7501     |   0.0 | 44.96
Comm    | 0.14674    | 0.14674    | 0.14674    |   0.0 |  0.98
Output  | 0.00014305 | 0.00014305 | 0.00014305 |   0.0 |  0.00
Modify  | 0.23643    | 0.23643    | 0.23643    |   0.0 |  1.57
Other   |            | 0.05453    |            |       |  0.36

Nlocal:    19652 ave 19652 max 19652 min
Histogram: 1 0 0 0 0 0 0 0 0 0
Nghost:    15067 ave 15067 max 15067 min
Histogram: 1 0 0 0 0 0 0 0 0 0
Neighs:    901537 ave 901537 max 901537 min
Histogram: 1 0 0 0 0 0 0 0 0 0

Total # of neighbors = 901537
[...]
Modify  | 0.73383    | 0.73383    | 0.73383    |   0.0 |  1.44
Other   |            | 0.1851     |            |       |  0.36

Nlocal:    19652 ave 19652 max 19652 min
Histogram: 1 0 0 0 0 0 0 0 0 0
Nghost:    15742 ave 15742 max 15742 min
Histogram: 1 0 0 0 0 0 0 0 0 0
Neighs:    1.03026e+06 ave 1.03026e+06 max 1.03026e+06 min
Histogram: 1 0 0 0 0 0 0 0 0 0

Total # of neighbors = 1030261
Ave neighs/atom = 52.4252
Neighbor list builds = 495
Dangerous builds not checked
Setting up Verlet run ...
  Unit style    : metal
  Current step  : 67175
  Time step     : 0.001
Per MPI rank memory allocation (min/avg/max) = 18.22 | 18.22 | 18.22 Mbytes
Step Temp Press TotEng PotEng Enthalpy Volume 
   67175    426.13152   -61.485519   -26801.631   -27884.044    -26820.28    485967.39 
   67347    414.95274    162.17834   -26865.179   -27919.197   -26816.093    484928.63 
Loop time of 19.4047 on 1 procs for 172 steps with 19652 atoms

Performance: 0.766 ns/day, 31.338 hours/ns, 8.864 timesteps/s
100.1% CPU use with 1 MPI tasks x no OpenMP threads

MPI task timing breakdown:
Section |  min time  |  avg time  |  max time  |%varavg| %total
---------------------------------------------------------------
Pair    | 10.368     | 10.368     | 10.368     |   0.0 | 53.43
Neigh   | 8.5026     | 8.5026     | 8.5026     |   0.0 | 43.82
Comm    | 0.18122    | 0.18122    | 0.18122    |   0.0 |  0.93
Output  | 0.00018811 | 0.00018811 | 0.00018811 |   0.0 |  0.00
Modify  | 0.28205    | 0.28205    | 0.28205    |   0.0 |  1.45
Other   |            | 0.0705     |            |       |  0.36

Nlocal:    19652 ave 19652 max 19652 min
Histogram: 1 0 0 0 0 0 0 0 0 0
Nghost:    15705 ave 15705 max 15705 min
Histogram: 1 0 0 0 0 0 0 0 0 0
Neighs:    1.03287e+06 ave 1.03287e+06 max 1.03287e+06 min
Histogram: 1 0 0 0 0 0 0 0 0 0

Total # of neighbors = 1032872
Ave neighs/atom = 52.5581
Neighbor list builds = 172
Dangerous builds not checked
Setting up Verlet run ...
  Unit style    : metal
  Current step  : 67347
  Time step     : 0.001
Per MPI rank memory allocation (min/avg/max) = 18.22 | 18.22 | 18.22 Mbytes
Step Temp Press TotEng PotEng Enthalpy Volume 
   67347    414.95274    162.17834   -26865.179   -27919.197   -26816.093    484928.63 
   67367    415.61376    145.44543   -26866.863    -27922.56    -26822.84    484949.97 
   67842    373.29177   -138.43006   -27107.106   -28055.301   -27148.835    482970.86 
Loop time of 60.1833 on 1 procs for 495 steps with 19652 atoms

Performance: 0.711 ns/day, 33.773 hours/ns, 8.225 timesteps/s
100.0% CPU use with 1 MPI tasks x no OpenMP threads

MPI task timing breakdown:
Section |  min time  |  avg time  |  max time  |%varavg| %total
---------------------------------------------------------------
Pair    | 31.958     | 31.958     | 31.958     |   0.0 | 53.10
Neigh   | 26.537     | 26.537     | 26.537     |   0.0 | 44.09
Comm    | 0.54702    | 0.54702    | 0.54702    |   0.0 |  0.91
Output  | 0.067136   | 0.067136   | 0.067136   |   0.0 |  0.11
Modify  | 0.86701    | 0.86701    | 0.86701    |   0.0 |  1.44
Other   |            | 0.2068     |            |       |  0.34

Nlocal:    19652 ave 19652 max 19652 min
Histogram: 1 0 0 0 0 0 0 0 0 0
Nghost:    15783 ave 15783 max 15783 min
Histogram: 1 0 0 0 0 0 0 0 0 0
Neighs:    1.03845e+06 ave 1.03845e+06 max 1.03845e+06 min
Histogram: 1 0 0 0 0 0 0 0 0 0

Total # of neighbors = 1038447
Ave neighs/atom = 52.8418
Neighbor list builds = 495
Dangerous builds not checked
Setting up Verlet run ...
  Unit style    : metal
  Current step  : 67842
  Time step     : 0.001
Per MPI rank memory allocation (min/avg/max) = 18.22 | 18.22 | 18.22 Mbytes
Step Temp Press TotEng PotEng Enthalpy Volume 
   67842    373.29177   -138.43006   -27107.106   -28055.301   -27148.835    482970.86 
   68014    366.72617    231.25348   -27167.522    -28099.04   -27098.014    481562.75 
Loop time of 18.1772 on 1 procs for 172 steps with 19652 atoms

Performance: 0.818 ns/day, 29.356 hours/ns, 9.462 timesteps/s
100.1% CPU use with 1 MPI tasks x no OpenMP threads

MPI task timing breakdown:
Section |  min time  |  avg time  |  max time  |%varavg| %total
---------------------------------------------------------------
Pair    | 9.7075     | 9.7075     | 9.7075     |   0.0 | 53.40
Neigh   | 7.9858     | 7.9858     | 7.9858     |   0.0 | 43.93
Comm    | 0.16321    | 0.16321    | 0.16321    |   0.0 |  0.90
Output  | 0.00014305 | 0.00014305 | 0.00014305 |   0.0 |  0.00
Modify  | 0.25959    | 0.25959    | 0.25959    |   0.0 |  1.43
Other   |            | 0.0609     |            |       |  0.34

Nlocal:    19652 ave 19652 max 19652 min
Histogram: 1 0 0 0 0 0 0 0 0 0
Nghost:    15769 ave 15769 max 15769 min
Histogram: 1 0 0 0 0 0 0 0 0 0
Neighs:    1.04175e+06 ave 1.04175e+06 max 1.04175e+06 min
Histogram: 1 0 0 0 0 0 0 0 0 0

Total # of neighbors = 1041747
Ave neighs/atom = 53.0097
Neighbor list builds = 172
Dangerous builds not checked
Setting up Verlet run ...
  Unit style    : metal
  Current step  : 68014
  Time step     : 0.001
Per MPI rank memory allocation (min/avg/max) = 18.22 | 18.22 | 18.22 Mbytes
Step Temp Press TotEng PotEng Enthalpy Volume 
   68014    366.72617    231.25348   -27167.522    -28099.04   -27098.014    481562.75 
   68034    368.12043    157.51779   -27169.422   -28104.481   -27122.074     481594.1 
   68509    328.04551   -145.47284   -27401.567   -28234.832   -27445.144    479935.38 
Loop time of 50.4339 on 1 procs for 495 steps with 19652 atoms

Performance: 0.848 ns/day, 28.302 hours/ns, 9.815 timesteps/s
100.0% CPU use with 1 MPI tasks x no OpenMP threads

MPI task timing breakdown:
Section |  min time  |  avg time  |  max time  |%varavg| %total
---------------------------------------------------------------
Pair    | 27.107     | 27.107     | 27.107     |   0.0 | 53.75
Neigh   | 21.96      | 21.96      | 21.96      |   0.0 | 43.54
Comm    | 0.43853    | 0.43853    | 0.43853    |   0.0 |  0.87
Output  | 0.042102   | 0.042102   | 0.042102   |   0.0 |  0.08
Modify  | 0.70809    | 0.70809    | 0.70809    |   0.0 |  1.40
Other   |            | 0.1785     |            |       |  0.35

Nlocal:    19652 ave 19652 max 19652 min
Histogram: 1 0 0 0 0 0 0 0 0 0
Nghost:    15875 ave 15875 max 15875 min
Histogram: 1 0 0 0 0 0 0 0 0 0
Neighs:    1.04656e+06 ave 1.04656e+06 max 1.04656e+06 min
Histogram: 1 0 0 0 0 0 0 0 0 0

Total # of neighbors = 1046556
Ave neighs/atom = 53.2544
Neighbor list builds = 495
Dangerous builds not checked
Setting up Verlet run ...
  Unit style    : metal
  Current step  : 68509
  Time step     : 0.001
Per MPI rank memory allocation (min/avg/max) = 18.22 | 18.22 | 18.22 Mbytes
Step Temp Press TotEng PotEng Enthalpy Volume 
   68509    328.04551   -145.47284   -27401.567   -28234.832   -27445.144    479935.38 
   68681    318.97618     27.95231     -27460.9   -28271.128   -27452.543    479007.94 
Loop time of 17.5496 on 1 procs for 172 steps with 19652 atoms

Performance: 0.847 ns/day, 28.342 hours/ns, 9.801 timesteps/s
99.3% CPU use with 1 MPI tasks x no OpenMP threads

MPI task timing breakdown:
Section |  min time  |  avg time  |  max time  |%varavg| %total
---------------------------------------------------------------
Pair    | 9.4754     | 9.4754     | 9.4754     |   0.0 | 53.99
Neigh   | 7.6146     | 7.6146     | 7.6146     |   0.0 | 43.39
Comm    | 0.15017    | 0.15017    | 0.15017    |   0.0 |  0.86
Output  | 0.0001781  | 0.0001781  | 0.0001781  |   0.0 |  0.00
Modify  | 0.24684    | 0.24684    | 0.24684    |   0.0 |  1.41
Other   |            | 0.06248    |            |       |  0.36

Nlocal:    19652 ave 19652 max 19652 min
Histogram: 1 0 0 0 0 0 0 0 0 0
Nghost:    15812 ave 15812 max 15812 min
Histogram: 1 0 0 0 0 0 0 0 0 0
Neighs:    1.04888e+06 ave 1.04888e+06 max 1.04888e+06 min
Histogram: 1 0 0 0 0 0 0 0 0 0

Total # of neighbors = 1048880
Ave neighs/atom = 53.3727
Neighbor list builds = 172
Dangerous builds not checked
Setting up Verlet run ...
  Unit style    : metal
  Current step  : 68681
  Time step     : 0.001
Per MPI rank memory allocation (min/avg/max) = 18.22 | 18.22 | 18.22 Mbytes
Step Temp Press TotEng PotEng Enthalpy Volume 
   68681    318.97618     27.95231     -27460.9   -28271.128   -27452.543    479007.94 
   68701    320.93887   -41.461295   -27463.142   -28278.356   -27475.538    479008.79 
   69176    280.38822    10.728128   -27692.792   -28405.004   -27689.599    476845.08 
Loop time of 52.6941 on 1 procs for 495 steps with 19652 atoms

Performance: 0.812 ns/day, 29.570 hours/ns, 9.394 timesteps/s
100.0% CPU use with 1 MPI tasks x no OpenMP threads

MPI task timing breakdown:
Section |  min time  |  avg time  |  max time  |%varavg| %total
---------------------------------------------------------------
Pair    | 28.291     | 28.291     | 28.291     |   0.0 | 53.69
Neigh   | 22.98      | 22.98      | 22.98      |   0.0 | 43.61
Comm    | 0.45943    | 0.45943    | 0.45943    |   0.0 |  0.87
Output  | 0.039336   | 0.039336   | 0.039336   |   0.0 |  0.07
Modify  | 0.74229    | 0.74229    | 0.74229    |   0.0 |  1.41
Other   |            | 0.1824     |            |       |  0.35

Nlocal:    19652 ave 19652 max 19652 min
Histogram: 1 0 0 0 0 0 0 0 0 0
Nghost:    15860 ave 15860 max 15860 min
Histogram: 1 0 0 0 0 0 0 0 0 0
Neighs:    1.05493e+06 ave 1.05493e+06 max 1.05493e+06 min
Histogram: 1 0 0 0 0 0 0 0 0 0

Total # of neighbors = 1054927
Ave neighs/atom = 53.6804
Neighbor list builds = 495
Dangerous builds not checked
Setting up Verlet run ...
  Unit style    : metal
  Current step  : 69176
  Time step     : 0.001
Per MPI rank memory allocation (min/avg/max) = 18.22 | 18.22 | 18.22 Mbytes
Step Temp Press TotEng PotEng Enthalpy Volume 
   69176    280.38822    10.728128   -27692.792   -28405.004   -27689.599    476845.08 
   69348    270.90226    -8.769846   -27752.729   -28440.846   -27755.337    476312.06 
Loop time of 16.1184 on 1 procs for 172 steps with 19652 atoms

Performance: 0.922 ns/day, 26.031 hours/ns, 10.671 timesteps/s
100.1% CPU use with 1 MPI tasks x no OpenMP threads

MPI task timing breakdown:
Section |  min time  |  avg time  |  max time  |%varavg| %total
---------------------------------------------------------------
Pair    | 8.6812     | 8.6812     | 8.6812     |   0.0 | 53.86
Neigh   | 7.023      | 7.023      | 7.023      |   0.0 | 43.57
Comm    | 0.137      | 0.137      | 0.137      |   0.0 |  0.85
Output  | 0.00013304 | 0.00013304 | 0.00013304 |   0.0 |  0.00
Modify  | 0.22545    | 0.22545    | 0.22545    |   0.0 |  1.40
Other   |            | 0.05149    |            |       |  0.32

Nlocal:    19652 ave 19652 max 19652 min
Histogram: 1 0 0 0 0 0 0 0 0 0
Nghost:    15873 ave 15873 max 15873 min
Histogram: 1 0 0 0 0 0 0 0 0 0
Neighs:    1.0566e+06 ave 1.0566e+06 max 1.0566e+06 min
Histogram: 1 0 0 0 0 0 0 0 0 0

Total # of neighbors = 1056596
Ave neighs/atom = 53.7653
Neighbor list builds = 172
Dangerous builds not checked
Setting up Verlet run ...
  Unit style    : metal
  Current step  : 69348
  Time step     : 0.001
Per MPI rank memory allocation (min/avg/max) = 18.22 | 18.22 | 18.22 Mbytes
Step Temp Press TotEng PotEng Enthalpy Volume 
   69348    270.90226    -8.769846   -27752.729   -28440.846   -27755.337    476312.06 
   69368    271.96792   -44.196992   -27755.236   -28446.059   -27768.375    476305.83 
   69843    229.51354    37.868424   -27975.024    -28558.01   -27963.817    474165.32 
Loop time of 46.7129 on 1 procs for 495 steps with 19652 atoms

Performance: 0.916 ns/day, 26.214 hours/ns, 10.597 timesteps/s
100.1% CPU use with 1 MPI tasks x no OpenMP threads

MPI task timing breakdown:
Section |  min time  |  avg time  |  max time  |%varavg| %total
---------------------------------------------------------------
Pair    | 25.167     | 25.167     | 25.167     |   0.0 | 53.88
Neigh   | 20.314     | 20.314     | 20.314     |   0.0 | 43.49
Comm    | 0.39549    | 0.39549    | 0.39549    |   0.0 |  0.85
Output  | 0.039491   | 0.039491   | 0.039491   |   0.0 |  0.08
Modify  | 0.64792    | 0.64792    | 0.64792    |   0.0 |  1.39
Other   |            | 0.1488     |            |       |  0.32

Nlocal:    19652 ave 19652 max 19652 min
Histogram: 1 0 0 0 0 0 0 0 0 0
Nghost:    15888 ave 15888 max 15888 min
Histogram: 1 0 0 0 0 0 0 0 0 0
Neighs:    1.06253e+06 ave 1.06253e+06 max 1.06253e+06 min
Histogram: 1 0 0 0 0 0 0 0 0 0

Total # of neighbors = 1062530
Ave neighs/atom = 54.0673
Neighbor list builds = 495
Dangerous builds not checked
Setting up Verlet run ...
  Unit style    : metal
  Current step  : 69843
  Time step     : 0.001
Per MPI rank memory allocation (min/avg/max) = 18.22 | 18.22 | 18.22 Mbytes
Step Temp Press TotEng PotEng Enthalpy Volume 
   69843    229.51354    37.868424   -27975.024    -28558.01   -27963.817    474165.32 
   70015     218.6825    15.455362   -28033.284   -28588.758   -28028.715    473720.35 
Loop time of 17.4092 on 1 procs for 172 steps with 19652 atoms

Performance: 0.854 ns/day, 28.116 hours/ns, 9.880 timesteps/s
99.9% CPU use with 1 MPI tasks x no OpenMP threads

MPI task timing breakdown:
Section |  min time  |  avg time  |  max time  |%varavg| %total
---------------------------------------------------------------
Pair    | 9.3899     | 9.3899     | 9.3899     |   0.0 | 53.94
Neigh   | 7.5698     | 7.5698     | 7.5698     |   0.0 | 43.48
Comm    | 0.14887    | 0.14887    | 0.14887    |   0.0 |  0.86
Output  | 0.00012398 | 0.00012398 | 0.00012398 |   0.0 |  0.00
Modify  | 0.24331    | 0.24331    | 0.24331    |   0.0 |  1.40
Other   |            | 0.05717    |            |       |  0.33

Nlocal:    19652 ave 19652 max 19652 min
Histogram: 1 0 0 0 0 0 0 0 0 0
Nghost:    15891 ave 15891 max 15891 min
Histogram: 1 0 0 0 0 0 0 0 0 0
Neighs:    1.06404e+06 ave 1.06404e+06 max 1.06404e+06 min
Histogram: 1 0 0 0 0 0 0 0 0 0

Total # of neighbors = 1064038
Ave neighs/atom = 54.144
Neighbor list builds = 172
Dangerous builds not checked
Setting up Verlet run ...
  Unit style    : metal
  Current step  : 70015
  Time step     : 0.001
Per MPI rank memory allocation (min/avg/max) = 18.22 | 18.22 | 18.22 Mbytes
Step Temp Press TotEng PotEng Enthalpy Volume 
   70015     218.6825    15.455362   -28033.284   -28588.758   -28028.715    473720.35 
   70035    220.31329   -53.547086   -28035.494    -28595.11   -28051.326    473718.79 
   70510    182.58703    23.253765    -28249.22   -28713.007   -28242.373     471713.8 
Loop time of 47.4347 on 1 procs for 495 steps with 19652 atoms

Performance: 0.902 ns/day, 26.619 hours/ns, 10.435 timesteps/s
100.1% CPU use with 1 MPI tasks x no OpenMP threads

MPI task timing breakdown:
Section |  min time  |  avg time  |  max time  |%varavg| %total
---------------------------------------------------------------
Pair    | 25.586     | 25.586     | 25.586     |   0.0 | 53.94
Neigh   | 20.616     | 20.616     | 20.616     |   0.0 | 43.46
Comm    | 0.39162    | 0.39162    | 0.39162    |   0.0 |  0.83
Output  | 0.039227   | 0.039227   | 0.039227   |   0.0 |  0.08
Modify  | 0.65177    | 0.65177    | 0.65177    |   0.0 |  1.37
Other   |            | 0.1494     |            |       |  0.31

Nlocal:    19652 ave 19652 max 19652 min
Histogram: 1 0 0 0 0 0 0 0 0 0
Nghost:    15916 ave 15916 max 15916 min
Histogram: 1 0 0 0 0 0 0 0 0 0
Neighs:    1.06946e+06 ave 1.06946e+06 max 1.06946e+06 min
Histogram: 1 0 0 0 0 0 0 0 0 0

Total # of neighbors = 1069461
Ave neighs/atom = 54.42
Neighbor list builds = 495
Dangerous builds not checked
Setting up Verlet run ...
  Unit style    : metal
  Current step  : 70510
  Time step     : 0.001
Per MPI rank memory allocation (min/avg/max) = 18.22 | 18.22 | 18.22 Mbytes
Step Temp Press TotEng PotEng Enthalpy Volume 
   70510    182.58703    23.253765    -28249.22   -28713.007   -28242.373     471713.8 
   70682    171.67906    90.358712   -28305.446   -28741.526   -28278.873    471177.67 
Loop time of 16.6749 on 1 procs for 172 steps with 19652 atoms

Performance: 0.891 ns/day, 26.930 hours/ns, 10.315 timesteps/s
100.1% CPU use with 1 MPI tasks x no OpenMP threads

MPI task timing breakdown:
Section |  min time  |  avg time  |  max time  |%varavg| %total
---------------------------------------------------------------
Pair    | 9.0121     | 9.0121     | 9.0121     |   0.0 | 54.05
Neigh   | 7.2373     | 7.2373     | 7.2373     |   0.0 | 43.40
Comm    | 0.14026    | 0.14026    | 0.14026    |   0.0 |  0.84
Output  | 0.000139   | 0.000139   | 0.000139   |   0.0 |  0.00
Modify  | 0.23124    | 0.23124    | 0.23124    |   0.0 |  1.39
Other   |            | 0.05389    |            |       |  0.32

Nlocal:    19652 ave 19652 max 19652 min
Histogram: 1 0 0 0 0 0 0 0 0 0
Nghost:    15917 ave 15917 max 15917 min
Histogram: 1 0 0 0 0 0 0 0 0 0
Neighs:    1.07082e+06 ave 1.07082e+06 max 1.07082e+06 min
Histogram: 1 0 0 0 0 0 0 0 0 0

Total # of neighbors = 1070819
Ave neighs/atom = 54.4891
Neighbor list builds = 172
Dangerous builds not checked
Setting up Verlet run ...
  Unit style    : metal
  Current step  : 70682
  Time step     : 0.001
Per MPI rank memory allocation (min/avg/max) = 18.22 | 18.22 | 18.22 Mbytes
Step Temp Press TotEng PotEng Enthalpy Volume 
   70682    171.67906    90.358712   -28305.446   -28741.526   -28278.873    471177.67 
   70702    173.19191    23.952887   -28308.059   -28747.982   -28301.014    471201.49 
   71177    133.75178   -13.212272   -28516.523   -28856.265   -28520.395    469455.06 
Loop time of 57.9535 on 1 procs for 495 steps with 19652 atoms

Performance: 0.738 ns/day, 32.522 hours/ns, 8.541 timesteps/s
100.0% CPU use with 1 MPI tasks x no OpenMP threads

MPI task timing breakdown:
Section |  min time  |  avg time  |  max time  |%varavg| %total
---------------------------------------------------------------
Pair    | 31.245     | 31.245     | 31.245     |   0.0 | 53.91
Neigh   | 25.152     | 25.152     | 25.152     |   0.0 | 43.40
Comm    | 0.50811    | 0.50811    | 0.50811    |   0.0 |  0.88
Output  | 0.039369   | 0.039369   | 0.039369   |   0.0 |  0.07
Modify  | 0.82027    | 0.82027    | 0.82027    |   0.0 |  1.42
Other   |            | 0.1893     |            |       |  0.33

Nlocal:    19652 ave 19652 max 19652 min
Histogram: 1 0 0 0 0 0 0 0 0 0
Nghost:    15977 ave 15977 max 15977 min
Histogram: 1 0 0 0 0 0 0 0 0 0
Neighs:    1.07604e+06 ave 1.07604e+06 max 1.07604e+06 min
Histogram: 1 0 0 0 0 0 0 0 0 0

Total # of neighbors = 1076036
Ave neighs/atom = 54.7545
Neighbor list builds = 495
Dangerous builds not checked
Setting up Verlet run ...
  Unit style    : metal
  Current step  : 71177
  Time step     : 0.001
Per MPI rank memory allocation (min/avg/max) = 18.22 | 18.22 | 18.22 Mbytes
Step Temp Press TotEng PotEng Enthalpy Volume 
   71177    133.75178   -13.212272   -28516.523   -28856.265   -28520.395    469455.06 
   71349    123.57051   -91.856914   -28572.964   -28886.844    -28599.86    469119.91 
Loop time of 20.4784 on 1 procs for 172 steps with 19652 atoms

Performance: 0.726 ns/day, 33.072 hours/ns, 8.399 timesteps/s
99.9% CPU use with 1 MPI tasks x no OpenMP threads

MPI task timing breakdown:
Section |  min time  |  avg time  |  max time  |%varavg| %total
---------------------------------------------------------------
Pair    | 11.105     | 11.105     | 11.105     |   0.0 | 54.23
Neigh   | 8.8205     | 8.8205     | 8.8205     |   0.0 | 43.07
Comm    | 0.1888     | 0.1888     | 0.1888     |   0.0 |  0.92
Output  | 0.00020003 | 0.00020003 | 0.00020003 |   0.0 |  0.00
Modify  | 0.29358    | 0.29358    | 0.29358    |   0.0 |  1.43
Other   |            | 0.07056    |            |       |  0.34

Nlocal:    19652 ave 19652 max 19652 min
Histogram: 1 0 0 0 0 0 0 0 0 0
Nghost:    15973 ave 15973 max 15973 min
Histogram: 1 0 0 0 0 0 0 0 0 0
Neighs:    1.07717e+06 ave 1.07717e+06 max 1.07717e+06 min
Histogram: 1 0 0 0 0 0 0 0 0 0

Total # of neighbors = 1077169
Ave neighs/atom = 54.8122
Neighbor list builds = 172
Dangerous builds not checked
Total wall time: 1:57:09
