LAMMPS (12 Dec 2018)
Lattice spacing in x,y,z = 4 4 4
Created orthogonal box = (0 0 0) to (68 68 68)
  1 by 1 by 2 MPI processor grid
Created 19652 atoms
  Time spent = 0.00167799 secs
Setting atom values ...
  19480 settings made for type/fraction
Neighbor list info ...
  update every 1 steps, delay 0 steps, check no
  max neighbors/atom: 2000, page size: 100000
  master list distance cutoff = 8.5
  ghost atom cutoff = 8.5
  binsize = 4.25, bins = 16 16 16
  1 neighbor lists, perpetual/occasional/extra = 1 0 0
  (1) pair eam/alloy, perpetual
      attributes: half, newton on
      pair build: half/bin/atomonly/newton
      stencil: half/bin/3d/newton
      bin: standard
Setting up Verlet run ...
  Unit style    : metal
  Current step  : 0
  Time step     : 0.001
Per MPI rank memory allocation (min/avg/max) = 11.15 | 11.15 | 11.15 Mbytes
Step Temp Press TotEng PotEng Enthalpy 
       0          300    644501.64   -38570.515   -39332.543    87914.888 
    1000    891.09555    634321.18   -38570.722   -40834.186    85916.734 
Loop time of 103.397 on 2 procs for 1000 steps with 19652 atoms

Performance: 0.836 ns/day, 28.721 hours/ns, 9.671 timesteps/s
98.4% CPU use with 2 MPI tasks x no OpenMP threads

MPI task timing breakdown:
Section |  min time  |  avg time  |  max time  |%varavg| %total
---------------------------------------------------------------
Pair    | 59.477     | 59.576     | 59.676     |   1.3 | 57.62
Neigh   | 35.048     | 37.507     | 39.966     |  40.2 | 36.28
Comm    | 3.2787     | 5.8658     | 8.4529     | 106.8 |  5.67
Output  | 0.00021291 | 0.00021303 | 0.00021315 |   0.0 |  0.00
Modify  | 0.21441    | 0.22685    | 0.23929    |   2.6 |  0.22
Other   |            | 0.22       |            |       |  0.21

Nlocal:    9826 ave 9834 max 9818 min
Histogram: 1 0 0 0 0 0 0 0 0 1
Nghost:    13292 ave 13308 max 13276 min
Histogram: 1 0 0 0 0 0 0 0 0 1
Neighs:    791570 ave 792134 max 791006 min
Histogram: 1 0 0 0 0 0 0 0 0 1

Total # of neighbors = 1583140
Ave neighs/atom = 80.5587
Neighbor list builds = 1000
Dangerous builds not checked
Setting up Verlet run ...
  Unit style    : metal
  Current step  : 1000
  Time step     : 0.001
Per MPI rank memory allocation (min/avg/max) = 11.15 | 11.15 | 11.15 Mbytes
Step Temp Press TotEng PotEng Enthalpy 
    1000    891.09555    634321.18   -38570.722   -40834.186    85916.734 
    2000    349.87438   -112.80738   -81191.254   -82079.967   -81236.981 
Loop time of 70.6812 on 2 procs for 1000 steps with 19652 atoms

Performance: 1.222 ns/day, 19.634 hours/ns, 14.148 timesteps/s
99.0% CPU use with 2 MPI tasks x no OpenMP threads

MPI task timing breakdown:
Section |  min time  |  avg time  |  max time  |%varavg| %total
---------------------------------------------------------------
Pair    | 37.682     | 38.145     | 38.609     |   7.5 | 53.97
Neigh   | 23.104     | 26.108     | 29.112     |  58.8 | 36.94
Comm    | 1.8073     | 5.3819     | 8.9564     | 154.1 |  7.61
Output  | 8.9884e-05 | 0.00012994 | 0.00016999 |   0.0 |  0.00
Modify  | 0.76955    | 0.83771    | 0.90586    |   7.4 |  1.19
Other   |            | 0.2081     |            |       |  0.29

Nlocal:    9826 ave 9855 max 9797 min
Histogram: 1 0 0 0 0 0 0 0 0 1
Nghost:    9791 ave 9827 max 9755 min
Histogram: 1 0 0 0 0 0 0 0 0 1
Neighs:    361074 ave 362051 max 360097 min
Histogram: 1 0 0 0 0 0 0 0 0 1

Total # of neighbors = 722148
Ave neighs/atom = 36.7468
Neighbor list builds = 1000
Dangerous builds not checked
Setting up Verlet run ...
  Unit style    : metal
  Current step  : 2000
  Time step     : 0.001
Per MPI rank memory allocation (min/avg/max) = 11.16 | 11.16 | 11.16 Mbytes
Step Temp Press TotEng PotEng Enthalpy 
    2000    349.87438   -112.80738   -81191.254   -82079.967   -81236.981 
   10000    2442.1347   -760.05214   -69105.497   -75308.742    -69440.55 
Loop time of 467.619 on 2 procs for 8000 steps with 19652 atoms

Performance: 1.478 ns/day, 16.237 hours/ns, 17.108 timesteps/s
99.2% CPU use with 2 MPI tasks x no OpenMP threads

MPI task timing breakdown:
Section |  min time  |  avg time  |  max time  |%varavg| %total
---------------------------------------------------------------
Pair    | 233.51     | 240.44     | 247.37     |  44.7 | 51.42
Neigh   | 182.08     | 189.16     | 196.25     |  51.5 | 40.45
Comm    | 14.723     | 29.05      | 43.377     | 265.8 |  6.21
Output  | 0.049609   | 0.049644   | 0.049679   |   0.0 |  0.01
Modify  | 6.9791     | 7.1553     | 7.3316     |   6.6 |  1.53
Other   |            | 1.762      |            |       |  0.38

Nlocal:    9826 ave 9842 max 9810 min
Histogram: 1 0 0 0 0 0 0 0 0 1
Nghost:    9414 ave 9446 max 9382 min
Histogram: 1 0 0 0 0 0 0 0 0 1
Neighs:    341808 ave 343148 max 340468 min
Histogram: 1 0 0 0 0 0 0 0 0 1

Total # of neighbors = 683616
Ave neighs/atom = 34.7861
Neighbor list builds = 8000
Dangerous builds not checked
Setting up Verlet run ...
  Unit style    : metal
  Current step  : 10000
  Time step     : 0.001
Per MPI rank memory allocation (min/avg/max) = 11.18 | 11.18 | 11.18 Mbytes
Step Temp Press TotEng PotEng Enthalpy 
   10000    2442.1347   -760.05214   -69105.497   -75308.742    -69440.55 
   20000    2452.1732    18.813449   -68955.164   -75183.907   -68946.877 
   30000    2439.5656    153.65585   -68963.041    -75159.76   -68895.417 
   40000    2439.4774    403.78426   -68967.643   -75164.138   -68790.056 
Loop time of 1755.1 on 2 procs for 30000 steps with 19652 atoms

Performance: 1.477 ns/day, 16.251 hours/ns, 17.093 timesteps/s
98.5% CPU use with 2 MPI tasks x no OpenMP threads

MPI task timing breakdown:
Section |  min time  |  avg time  |  max time  |%varavg| %total
---------------------------------------------------------------
Pair    | 854.53     | 883.57     | 912.6      |  97.7 | 50.34
Neigh   | 703.29     | 727        | 750.72     |  88.0 | 41.42
Comm    | 58.259     | 111.66     | 165.07     | 505.4 |  6.36
Output  | 0.46184    | 0.4619     | 0.46196    |   0.0 |  0.03
Modify  | 25.642     | 25.951     | 26.259     |   6.1 |  1.48
Other   |            | 6.451      |            |       |  0.37

Nlocal:    9826 ave 9844 max 9808 min
Histogram: 1 0 0 0 0 0 0 0 0 1
Nghost:    9426.5 ave 9440 max 9413 min
Histogram: 1 0 0 0 0 0 0 0 0 1
Neighs:    342793 ave 344066 max 341520 min
Histogram: 1 0 0 0 0 0 0 0 0 1

Total # of neighbors = 685586
Ave neighs/atom = 34.8863
Neighbor list builds = 30000
Dangerous builds not checked
Setting up Verlet run ...
  Unit style    : metal
  Current step  : 40000
  Time step     : 0.001
Per MPI rank memory allocation (min/avg/max) = 11.22 | 11.22 | 11.22 Mbytes
Step Temp Press TotEng PotEng Enthalpy 
   40000    2439.4774    403.78426   -68967.643   -75164.138   -68790.056 
   40495    2400.9622    82.236946   -69166.797    -75265.46    -69130.62 
Loop time of 29.0477 on 2 procs for 495 steps with 19652 atoms

Performance: 1.472 ns/day, 16.301 hours/ns, 17.041 timesteps/s
96.3% CPU use with 2 MPI tasks x no OpenMP threads

MPI task timing breakdown:
Section |  min time  |  avg time  |  max time  |%varavg| %total
---------------------------------------------------------------
Pair    | 14.764     | 14.892     | 15.021     |   3.3 | 51.27
Neigh   | 12.218     | 12.233     | 12.249     |   0.4 | 42.11
Comm    | 1.2419     | 1.3622     | 1.4825     |  10.3 |  4.69
Output  | 7.1049e-05 | 0.00010502 | 0.000139   |   0.0 |  0.00
Modify  | 0.42877    | 0.4482     | 0.46763    |   2.9 |  1.54
Other   |            | 0.1115     |            |       |  0.38

Nlocal:    9826 ave 9837 max 9815 min
Histogram: 1 0 0 0 0 0 0 0 0 1
Nghost:    9420 ave 9447 max 9393 min
Histogram: 1 0 0 0 0 0 0 0 0 1
Neighs:    342434 ave 342717 max 342150 min
Histogram: 1 0 0 0 0 0 0 0 0 1

Total # of neighbors = 684867
Ave neighs/atom = 34.8497
Neighbor list builds = 495
Dangerous builds not checked
Setting up Verlet run ...
  Unit style    : metal
  Current step  : 40495
  Time step     : 0.001
Per MPI rank memory allocation (min/avg/max) = 11.22 | 11.22 | 11.22 Mbytes
Step Temp Press TotEng PotEng Enthalpy 
   40495    2400.9622    82.236946   -69166.797    -75265.46    -69130.62 
   50000    2421.1668   -764.23007   -69173.285   -75323.269   -69510.193 
Loop time of 585.128 on 2 procs for 9505 steps with 19652 atoms

Performance: 1.404 ns/day, 17.100 hours/ns, 16.244 timesteps/s
97.5% CPU use with 2 MPI tasks x no OpenMP threads

MPI task timing breakdown:
Section |  min time  |  avg time  |  max time  |%varavg| %total
---------------------------------------------------------------
Pair    | 287.72     | 297.98     | 308.23     |  59.4 | 50.92
Neigh   | 226.11     | 239.4      | 252.7      |  85.9 | 40.91
Comm    | 13.072     | 37.027     | 60.982     | 393.7 |  6.33
Output  | 0.05375    | 0.05377    | 0.053791   |   0.0 |  0.01
Modify  | 8.2887     | 8.5204     | 8.7521     |   7.9 |  1.46
Other   |            | 2.147      |            |       |  0.37

Nlocal:    9826 ave 9833 max 9819 min
Histogram: 1 0 0 0 0 0 0 0 0 1
Nghost:    9435.5 ave 9440 max 9431 min
Histogram: 1 0 0 0 0 0 0 0 0 1
Neighs:    341590 ave 342042 max 341139 min
Histogram: 1 0 0 0 0 0 0 0 0 1

Total # of neighbors = 683181
Ave neighs/atom = 34.7639
Neighbor list builds = 9505
Dangerous builds not checked
Setting up Verlet run ...
  Unit style    : metal
  Current step  : 50000
  Time step     : 0.001
Per MPI rank memory allocation (min/avg/max) = 11.23 | 11.23 | 11.23 Mbytes
Step Temp Press TotEng PotEng Enthalpy 
   50000    2421.1668   -764.23007   -69173.285   -75323.269   -69510.193 
   50495    2347.8647   -1.6026235   -69469.426   -75433.216   -69470.129 
Loop time of 28.3916 on 2 procs for 495 steps with 19652 atoms

Performance: 1.506 ns/day, 15.932 hours/ns, 17.435 timesteps/s
99.9% CPU use with 2 MPI tasks x no OpenMP threads

MPI task timing breakdown:
Section |  min time  |  avg time  |  max time  |%varavg| %total
---------------------------------------------------------------
Pair    | 13.472     | 14.236     | 15         |  20.3 | 50.14
Neigh   | 11.33      | 11.806     | 12.282     |  13.9 | 41.58
Comm    | 0.55482    | 1.8145     | 3.0742     |  93.5 |  6.39
Output  | 8.1062e-05 | 0.00011551 | 0.00014997 |   0.0 |  0.00
Modify  | 0.41601    | 0.42583    | 0.43565    |   1.5 |  1.50
Other   |            | 0.1085     |            |       |  0.38

Nlocal:    9826 ave 9841 max 9811 min
Histogram: 1 0 0 0 0 0 0 0 0 1
Nghost:    9447.5 ave 9480 max 9415 min
Histogram: 1 0 0 0 0 0 0 0 0 1
Neighs:    343199 ave 343677 max 342721 min
Histogram: 1 0 0 0 0 0 0 0 0 1

Total # of neighbors = 686398
Ave neighs/atom = 34.9276
Neighbor list builds = 495
Dangerous builds not checked
Setting up Verlet run ...
  Unit style    : metal
  Current step  : 50495
  Time step     : 0.001
Per MPI rank memory allocation (min/avg/max) = 11.23 | 11.23 | 11.23 Mbytes
Step Temp Press TotEng PotEng Enthalpy 
   50495    2347.8647   -1.6026235   -69469.426   -75433.216   -69470.129 
   60000    2367.1342    177.80093   -69495.573   -75508.309   -69417.633 
Loop time of 581.51 on 2 procs for 9505 steps with 19652 atoms

Performance: 1.412 ns/day, 16.994 hours/ns, 16.345 timesteps/s
99.1% CPU use with 2 MPI tasks x no OpenMP threads

MPI task timing breakdown:
Section |  min time  |  avg time  |  max time  |%varavg| %total
---------------------------------------------------------------
Pair    | 285.54     | 297.02     | 308.5      |  66.6 | 51.08
Neigh   | 234.16     | 239.78     | 245.4      |  36.3 | 41.23
Comm    | 16.064     | 33.453     | 50.843     | 300.7 |  5.75
Output  | 0.14864    | 0.14867    | 0.14869    |   0.0 |  0.03
Modify  | 8.7517     | 8.8992     | 9.0468     |   4.9 |  1.53
Other   |            | 2.207      |            |       |  0.38

Nlocal:    9826 ave 9843 max 9809 min
Histogram: 1 0 0 0 0 0 0 0 0 1
Nghost:    9474.5 ave 9479 max 9470 min
Histogram: 1 0 0 0 0 0 0 0 0 1
Neighs:    343330 ave 343812 max 342849 min
Histogram: 1 0 0 0 0 0 0 0 0 1

Total # of neighbors = 686661
Ave neighs/atom = 34.941
Neighbor list builds = 9505
Dangerous builds not checked
Setting up Verlet run ...
  Unit style    : metal
  Current step  : 60000
  Time step     : 0.001
Per MPI rank memory allocation (min/avg/max) = 11.24 | 11.24 | 11.24 Mbytes
Step Temp Press TotEng PotEng Enthalpy 
   60000    2367.1342    177.80093   -69495.573   -75508.309   -69417.633 
   60495    2308.1703    -277.3438   -69740.323   -75603.286   -69861.928 
Loop time of 28.8765 on 2 procs for 495 steps with 19652 atoms

Performance: 1.481 ns/day, 16.205 hours/ns, 17.142 timesteps/s
98.2% CPU use with 2 MPI tasks x no OpenMP threads

MPI task timing breakdown:
Section |  min time  |  avg time  |  max time  |%varavg| %total
---------------------------------------------------------------
Pair    | 14.411     | 14.615     | 14.819     |   5.3 | 50.61
Neigh   | 12.553     | 12.565     | 12.578     |   0.3 | 43.51
Comm    | 0.91199    | 1.1168     | 1.3216     |  19.4 |  3.87
Output  | 7.987e-05  | 0.00010943 | 0.000139   |   0.0 |  0.00
Modify  | 0.45466    | 0.4613     | 0.46794    |   1.0 |  1.60
Other   |            | 0.1178     |            |       |  0.41

Nlocal:    9826 ave 9867 max 9785 min
Histogram: 1 0 0 0 0 0 0 0 0 1
Nghost:    9469.5 ave 9531 max 9408 min
Histogram: 1 0 0 0 0 0 0 0 0 1
Neighs:    343312 ave 345307 max 341318 min
Histogram: 1 0 0 0 0 0 0 0 0 1

Total # of neighbors = 686625
Ave neighs/atom = 34.9392
Neighbor list builds = 495
Dangerous builds not checked
Setting up Verlet run ...
  Unit style    : metal
  Current step  : 60495
  Time step     : 0.001
Per MPI rank memory allocation (min/avg/max) = 11.24 | 11.24 | 11.24 Mbytes
Step Temp Press TotEng PotEng Enthalpy 
   60495    2308.1703    -277.3438   -69740.323   -75603.286   -69861.928 
   70000    2310.5504   -753.38817   -69793.202   -75662.211   -70123.898 
Loop time of 551.225 on 2 procs for 9505 steps with 19652 atoms

Performance: 1.490 ns/day, 16.109 hours/ns, 17.243 timesteps/s
98.6% CPU use with 2 MPI tasks x no OpenMP threads

MPI task timing breakdown:
Section |  min time  |  avg time  |  max time  |%varavg| %total
---------------------------------------------------------------
Pair    | 270.95     | 277.33     | 283.71     |  38.3 | 50.31
Neigh   | 225        | 233.52     | 242.04     |  55.8 | 42.36
Comm    | 14.976     | 30.036     | 45.095     | 274.8 |  5.45
Output  | 0.061691   | 0.06172    | 0.061748   |   0.0 |  0.01
Modify  | 8.153      | 8.2149     | 8.2768     |   2.2 |  1.49
Other   |            | 2.067      |            |       |  0.37

Nlocal:    9826 ave 9827 max 9825 min
Histogram: 1 0 0 0 0 0 0 0 0 1
Nghost:    9400.5 ave 9425 max 9376 min
Histogram: 1 0 0 0 0 0 0 0 0 1
Neighs:    342798 ave 343086 max 342509 min
Histogram: 1 0 0 0 0 0 0 0 0 1

Total # of neighbors = 685595
Ave neighs/atom = 34.8868
Neighbor list builds = 9505
Dangerous builds not checked
Setting up Verlet run ...
  Unit style    : metal
  Current step  : 70000
  Time step     : 0.001
Per MPI rank memory allocation (min/avg/max) = 11.24 | 11.24 | 11.24 Mbytes
Step Temp Press TotEng PotEng Enthalpy 
   70000    2310.5504   -753.38817   -69793.202   -75662.211   -70123.898 
   70495    2243.9713   -169.28224   -70079.024   -75778.916   -70153.031 
Loop time of 27.9171 on 2 procs for 495 steps with 19652 atoms

Performance: 1.532 ns/day, 15.666 hours/ns, 17.731 timesteps/s
100.0% CPU use with 2 MPI tasks x no OpenMP threads

MPI task timing breakdown:
Section |  min time  |  avg time  |  max time  |%varavg| %total
---------------------------------------------------------------
Pair    | 13.532     | 13.941     | 14.351     |  11.0 | 49.94
Neigh   | 11.723     | 12.005     | 12.286     |   8.1 | 43.00
Comm    | 0.71164    | 1.4162     | 2.1208     |  59.2 |  5.07
Output  | 7.7963e-05 | 0.00011206 | 0.00014615 |   0.0 |  0.00
Modify  | 0.43906    | 0.44363    | 0.4482     |   0.7 |  1.59
Other   |            | 0.1112     |            |       |  0.40

Nlocal:    9826 ave 9856 max 9796 min
Histogram: 1 0 0 0 0 0 0 0 0 1
Nghost:    9478.5 ave 9498 max 9459 min
Histogram: 1 0 0 0 0 0 0 0 0 1
Neighs:    344228 ave 345617 max 342839 min
Histogram: 1 0 0 0 0 0 0 0 0 1

Total # of neighbors = 688456
Ave neighs/atom = 35.0324
Neighbor list builds = 495
Dangerous builds not checked
Setting up Verlet run ...
  Unit style    : metal
  Current step  : 70495
  Time step     : 0.001
Per MPI rank memory allocation (min/avg/max) = 11.24 | 11.24 | 11.24 Mbytes
Step Temp Press TotEng PotEng Enthalpy 
   70495    2243.9713   -169.28224   -70079.024   -75778.916   -70153.031 
   80000    2250.7422   -43.230963   -70164.945   -75882.035   -70183.844 
Loop time of 566.552 on 2 procs for 9505 steps with 19652 atoms

Performance: 1.450 ns/day, 16.557 hours/ns, 16.777 timesteps/s
98.7% CPU use with 2 MPI tasks x no OpenMP threads

MPI task timing breakdown:
Section |  min time  |  avg time  |  max time  |%varavg| %total
---------------------------------------------------------------
Pair    | 278.59     | 287.08     | 295.57     |  50.1 | 50.67
Neigh   | 228.24     | 236.25     | 244.27     |  52.1 | 41.70
Comm    | 15.714     | 32.456     | 49.197     | 293.9 |  5.73
Output  | 0.059803   | 0.059825   | 0.059848   |   0.0 |  0.01
Modify  | 8.4749     | 8.6009     | 8.7268     |   4.3 |  1.52
Other   |            | 2.106      |            |       |  0.37

Nlocal:    9826 ave 9843 max 9809 min
Histogram: 1 0 0 0 0 0 0 0 0 1
Nghost:    9489.5 ave 9490 max 9489 min
Histogram: 1 0 0 0 0 0 0 0 0 1
Neighs:    343835 ave 344510 max 343160 min
Histogram: 1 0 0 0 0 0 0 0 0 1

Total # of neighbors = 687670
Ave neighs/atom = 34.9924
Neighbor list builds = 9505
Dangerous builds not checked
Setting up Verlet run ...
  Unit style    : metal
  Current step  : 80000
  Time step     : 0.001
Per MPI rank memory allocation (min/avg/max) = 11.25 | 11.25 | 11.25 Mbytes
Step Temp Press TotEng PotEng Enthalpy 
   80000    2250.7422   -43.230963   -70164.945   -75882.035   -70183.844 
   80495    2213.8514   -202.81685   -70341.202   -75964.587   -70429.764 
Loop time of 32.6682 on 2 procs for 495 steps with 19652 atoms

Performance: 1.309 ns/day, 18.332 hours/ns, 15.152 timesteps/s
94.5% CPU use with 2 MPI tasks x no OpenMP threads

MPI task timing breakdown:
Section |  min time  |  avg time  |  max time  |%varavg| %total
---------------------------------------------------------------
Pair    | 17.242     | 17.294     | 17.346     |   1.3 | 52.94
Neigh   | 12.523     | 12.852     | 13.18      |   9.2 | 39.34
Comm    | 1.4674     | 1.8553     | 2.2431     |  28.5 |  5.68
Output  | 9.2983e-05 | 0.00012493 | 0.00015688 |   0.0 |  0.00
Modify  | 0.52874    | 0.53084    | 0.53294    |   0.3 |  1.62
Other   |            | 0.1364     |            |       |  0.42

Nlocal:    9826 ave 9845 max 9807 min
Histogram: 1 0 0 0 0 0 0 0 0 1
Nghost:    9463 ave 9476 max 9450 min
Histogram: 1 0 0 0 0 0 0 0 0 1
Neighs:    344382 ave 344985 max 343780 min
Histogram: 1 0 0 0 0 0 0 0 0 1

Total # of neighbors = 688765
Ave neighs/atom = 35.0481
Neighbor list builds = 495
Dangerous builds not checked
Setting up Verlet run ...
  Unit style    : metal
  Current step  : 80495
  Time step     : 0.001
Per MPI rank memory allocation (min/avg/max) = 11.25 | 11.25 | 11.25 Mbytes
Step Temp Press TotEng PotEng Enthalpy 
   80495    2213.8514   -202.81685   -70341.202   -75964.587   -70429.764 
   90000    2209.7752   -277.82617   -70427.312   -76040.343    -70548.53 
Loop time of 546.389 on 2 procs for 9505 steps with 19652 atoms

Performance: 1.503 ns/day, 15.968 hours/ns, 17.396 timesteps/s
99.4% CPU use with 2 MPI tasks x no OpenMP threads

MPI task timing breakdown:
Section |  min time  |  avg time  |  max time  |%varavg| %total
---------------------------------------------------------------
Pair    | 272.02     | 277.21     | 282.4      |  31.2 | 50.74
Neigh   | 227.58     | 233.01     | 238.44     |  35.6 | 42.65
Comm    | 14.788     | 25.54      | 36.293     | 212.8 |  4.67
Output  | 0.23868    | 0.2387     | 0.23872    |   0.0 |  0.04
Modify  | 8.303      | 8.3062     | 8.3093     |   0.1 |  1.52
Other   |            | 2.076      |            |       |  0.38

Nlocal:    9826 ave 9837 max 9815 min
Histogram: 1 0 0 0 0 0 0 0 0 1
Nghost:    9463.5 ave 9467 max 9460 min
Histogram: 1 0 0 0 0 0 0 0 0 1
Neighs:    344488 ave 344841 max 344134 min
Histogram: 1 0 0 0 0 0 0 0 0 1

Total # of neighbors = 688975
Ave neighs/atom = 35.0588
Neighbor list builds = 9505
Dangerous builds not checked
Setting up Verlet run ...
  Unit style    : metal
  Current step  : 90000
  Time step     : 0.001
Per MPI rank memory allocation (min/avg/max) = 11.25 | 11.25 | 11.25 Mbytes
Step Temp Press TotEng PotEng Enthalpy 
   90000    2209.7752   -277.82617   -70427.312   -76040.343    -70548.53 
   90495    2163.1371    108.30756   -70689.417   -76183.982   -70642.323 
Loop time of 27.4438 on 2 procs for 495 steps with 19652 atoms

Performance: 1.558 ns/day, 15.401 hours/ns, 18.037 timesteps/s
99.3% CPU use with 2 MPI tasks x no OpenMP threads

MPI task timing breakdown:
Section |  min time  |  avg time  |  max time  |%varavg| %total
---------------------------------------------------------------
Pair    | 13.341     | 13.808     | 14.274     |  12.5 | 50.31
Neigh   | 11.776     | 11.798     | 11.82      |   0.6 | 42.99
Comm    | 0.85219    | 1.2997     | 1.7473     |  39.3 |  4.74
Output  | 7.6056e-05 | 0.00010705 | 0.00013804 |   0.0 |  0.00
Modify  | 0.42775    | 0.43132    | 0.43488    |   0.5 |  1.57
Other   |            | 0.107      |            |       |  0.39

Nlocal:    9826 ave 9828 max 9824 min
Histogram: 1 0 0 0 0 0 0 0 0 1
Nghost:    9438.5 ave 9442 max 9435 min
Histogram: 1 0 0 0 0 0 0 0 0 1
Neighs:    345396 ave 345627 max 345165 min
Histogram: 1 0 0 0 0 0 0 0 0 1

Total # of neighbors = 690792
Ave neighs/atom = 35.1512
Neighbor list builds = 495
Dangerous builds not checked
Setting up Verlet run ...
  Unit style    : metal
  Current step  : 90495
  Time step     : 0.001
Per MPI rank memory allocation (min/avg/max) = 11.25 | 11.25 | 11.25 Mbytes
Step Temp Press TotEng PotEng Enthalpy 
   90495    2163.1371    108.30756   -70689.417   -76183.982   -70642.323 
  100000    2136.5009     617.4667   -70806.334   -76233.241   -70538.475 
Loop time of 550.261 on 2 procs for 9505 steps with 19652 atoms

Performance: 1.492 ns/day, 16.081 hours/ns, 17.274 timesteps/s
98.2% CPU use with 2 MPI tasks x no OpenMP threads

MPI task timing breakdown:
Section |  min time  |  avg time  |  max time  |%varavg| %total
---------------------------------------------------------------
Pair    | 272.3      | 275.32     | 278.34     |  18.2 | 50.03
Neigh   | 229.83     | 231.1      | 232.38     |   8.4 | 42.00
Comm    | 28.958     | 30.895     | 32.832     |  34.9 |  5.61
Output  | 0.048978   | 0.048988   | 0.048998   |   0.0 |  0.01
Modify  | 8.4698     | 10.84      | 13.211     |  72.0 |  1.97
Other   |            | 2.053      |            |       |  0.37

Nlocal:    9826 ave 9829 max 9823 min
Histogram: 1 0 0 0 0 0 0 0 0 1
Nghost:    9488 ave 9495 max 9481 min
Histogram: 1 0 0 0 0 0 0 0 0 1
Neighs:    346364 ave 346678 max 346050 min
Histogram: 1 0 0 0 0 0 0 0 0 1

Total # of neighbors = 692728
Ave neighs/atom = 35.2497
Neighbor list builds = 9505
Dangerous builds not checked
Setting up Verlet run ...
  Unit style    : metal
  Current step  : 100000
  Time step     : 0.001
Per MPI rank memory allocation (min/avg/max) = 11.26 | 11.26 | 11.26 Mbytes
Step Temp Press TotEng PotEng Enthalpy 
  100000    2136.5009     617.4667   -70806.334   -76233.241   -70538.475 
  100495    2116.6876    333.73839   -70960.636   -76337.215   -70815.818 
Loop time of 26.9493 on 2 procs for 495 steps with 19652 atoms

Performance: 1.587 ns/day, 15.123 hours/ns, 18.368 timesteps/s
99.8% CPU use with 2 MPI tasks x no OpenMP threads

MPI task timing breakdown:
Section |  min time  |  avg time  |  max time  |%varavg| %total
---------------------------------------------------------------
Pair    | 12.971     | 13.563     | 14.156     |  16.1 | 50.33
Neigh   | 11.088     | 11.354     | 11.619     |   7.9 | 42.13
Comm    | 0.63715    | 1.5207     | 2.4042     |  71.6 |  5.64
Output  | 6.3181e-05 | 9.3579e-05 | 0.00012398 |   0.0 |  0.00
Modify  | 0.39352    | 0.41227    | 0.43103    |   2.9 |  1.53
Other   |            | 0.09909    |            |       |  0.37

Nlocal:    9826 ave 9834 max 9818 min
Histogram: 1 0 0 0 0 0 0 0 0 1
Nghost:    9502.5 ave 9503 max 9502 min
Histogram: 1 0 0 0 0 0 0 0 0 1
Neighs:    345906 ave 346054 max 345757 min
Histogram: 1 0 0 0 0 0 0 0 0 1

Total # of neighbors = 691811
Ave neighs/atom = 35.2031
Neighbor list builds = 495
Dangerous builds not checked
Setting up Verlet run ...
  Unit style    : metal
  Current step  : 100495
  Time step     : 0.001
Per MPI rank memory allocation (min/avg/max) = 11.26 | 11.26 | 11.26 Mbytes
Step Temp Press TotEng PotEng Enthalpy 
  100495    2116.6876    333.73839   -70960.636   -76337.215   -70815.818 
  110000    2116.2094   -275.10385   -71011.293   -76386.658   -71130.735 
Loop time of 553.891 on 2 procs for 9505 steps with 19652 atoms

Performance: 1.483 ns/day, 16.187 hours/ns, 17.160 timesteps/s
98.7% CPU use with 2 MPI tasks x no OpenMP threads

MPI task timing breakdown:
Section |  min time  |  avg time  |  max time  |%varavg| %total
---------------------------------------------------------------
Pair    | 277.52     | 282.01     | 286.49     |  26.7 | 50.91
Neigh   | 230.9      | 234.3      | 237.71     |  22.3 | 42.30
Comm    | 18.914     | 26.898     | 34.882     | 153.9 |  4.86
Output  | 0.066929   | 0.066952   | 0.066975   |   0.0 |  0.01
Modify  | 8.4684     | 8.5081     | 8.5478     |   1.4 |  1.54
Other   |            | 2.108      |            |       |  0.38

Nlocal:    9826 ave 9835 max 9817 min
Histogram: 1 0 0 0 0 0 0 0 0 1
Nghost:    9510 ave 9514 max 9506 min
Histogram: 1 0 0 0 0 0 0 0 0 1
Neighs:    345858 ave 346466 max 345251 min
Histogram: 1 0 0 0 0 0 0 0 0 1

Total # of neighbors = 691717
Ave neighs/atom = 35.1983
Neighbor list builds = 9505
Dangerous builds not checked
Setting up Verlet run ...
  Unit style    : metal
  Current step  : 110000
  Time step     : 0.001
Per MPI rank memory allocation (min/avg/max) = 11.26 | 11.26 | 11.26 Mbytes
Step Temp Press TotEng PotEng Enthalpy 
  110000    2116.2094   -275.10385   -71011.293   -76386.658   -71130.735 
  110495    2071.6209   -36.873936   -71256.043   -76518.149   -71272.014 
Loop time of 28.9509 on 2 procs for 495 steps with 19652 atoms

Performance: 1.477 ns/day, 16.246 hours/ns, 17.098 timesteps/s
97.5% CPU use with 2 MPI tasks x no OpenMP threads

MPI task timing breakdown:
Section |  min time  |  avg time  |  max time  |%varavg| %total
---------------------------------------------------------------
Pair    | 14.416     | 14.735     | 15.054     |   8.3 | 50.90
Neigh   | 11.786     | 12.116     | 12.447     |   9.5 | 41.85
Comm    | 0.8771     | 1.5425     | 2.2079     |  53.6 |  5.33
Output  | 7.7963e-05 | 0.00011003 | 0.0001421  |   0.0 |  0.00
Modify  | 0.4352     | 0.44346    | 0.45171    |   1.2 |  1.53
Other   |            | 0.1135     |            |       |  0.39

Nlocal:    9826 ave 9832 max 9820 min
Histogram: 1 0 0 0 0 0 0 0 0 1
Nghost:    9530.5 ave 9546 max 9515 min
Histogram: 1 0 0 0 0 0 0 0 0 1
Neighs:    346356 ave 346886 max 345825 min
Histogram: 1 0 0 0 0 0 0 0 0 1

Total # of neighbors = 692711
Ave neighs/atom = 35.2489
Neighbor list builds = 495
Dangerous builds not checked
Setting up Verlet run ...
  Unit style    : metal
  Current step  : 110495
  Time step     : 0.001
Per MPI rank memory allocation (min/avg/max) = 11.26 | 11.26 | 11.26 Mbytes
Step Temp Press TotEng PotEng Enthalpy 
  110495    2071.6209   -36.873936   -71256.043   -76518.149   -71272.014 
  120000    2042.8712    298.92168   -71365.429   -76554.508   -71236.209 
Loop time of 572.478 on 2 procs for 9505 steps with 19652 atoms

Performance: 1.435 ns/day, 16.730 hours/ns, 16.603 timesteps/s
98.5% CPU use with 2 MPI tasks x no OpenMP threads

MPI task timing breakdown:
Section |  min time  |  avg time  |  max time  |%varavg| %total
---------------------------------------------------------------
Pair    | 291.65     | 294.62     | 297.58     |  17.3 | 51.46
Neigh   | 241.98     | 242.98     | 243.98     |   6.4 | 42.44
Comm    | 21.969     | 23.885     | 25.8       |  39.2 |  4.17
Output  | 0.11159    | 0.11161    | 0.11164    |   0.0 |  0.02
Modify  | 8.5949     | 8.6456     | 8.6962     |   1.7 |  1.51
Other   |            | 2.239      |            |       |  0.39

Nlocal:    9826 ave 9846 max 9806 min
Histogram: 1 0 0 0 0 0 0 0 0 1
Nghost:    9472.5 ave 9509 max 9436 min
Histogram: 1 0 0 0 0 0 0 0 0 1
Neighs:    347012 ave 348797 max 345227 min
Histogram: 1 0 0 0 0 0 0 0 0 1

Total # of neighbors = 694024
Ave neighs/atom = 35.3157
Neighbor list builds = 9505
Dangerous builds not checked
Setting up Verlet run ...
  Unit style    : metal
  Current step  : 120000
  Time step     : 0.001
Per MPI rank memory allocation (min/avg/max) = 11.26 | 11.27 | 11.27 Mbytes
Step Temp Press TotEng PotEng Enthalpy 
  120000    2042.8712    298.92168   -71365.429   -76554.508   -71236.209 
  120495    2025.4218    96.871496   -71601.221   -76745.977   -71559.375 
Loop time of 28.5129 on 2 procs for 495 steps with 19652 atoms

Performance: 1.500 ns/day, 16.001 hours/ns, 17.361 timesteps/s
99.4% CPU use with 2 MPI tasks x no OpenMP threads

MPI task timing breakdown:
Section |  min time  |  avg time  |  max time  |%varavg| %total
---------------------------------------------------------------
Pair    | 14.812     | 14.832     | 14.853     |   0.5 | 52.02
Neigh   | 11.547     | 11.923     | 12.298     |  10.9 | 41.82
Comm    | 0.78611    | 1.1987     | 1.6113     |  37.7 |  4.20
Output  | 8.9169e-05 | 0.00013602 | 0.00018287 |   0.0 |  0.00
Modify  | 0.42808    | 0.44148    | 0.45488    |   2.0 |  1.55
Other   |            | 0.1176     |            |       |  0.41

Nlocal:    9826 ave 9835 max 9817 min
Histogram: 1 0 0 0 0 0 0 0 0 1
Nghost:    9481 ave 9505 max 9457 min
Histogram: 1 0 0 0 0 0 0 0 0 1
Neighs:    346776 ave 347456 max 346095 min
Histogram: 1 0 0 0 0 0 0 0 0 1

Total # of neighbors = 693551
Ave neighs/atom = 35.2916
Neighbor list builds = 495
Dangerous builds not checked
Setting up Verlet run ...
  Unit style    : metal
  Current step  : 120495
  Time step     : 0.001
Per MPI rank memory allocation (min/avg/max) = 11.26 | 11.27 | 11.27 Mbytes
Step Temp Press TotEng PotEng Enthalpy 
  120495    2025.4218    96.871496   -71601.221   -76745.977   -71559.375 
  130000    1978.3885   -332.15423   -71749.733   -76775.021   -71893.271 
Loop time of 555.937 on 2 procs for 9505 steps with 19652 atoms

Performance: 1.477 ns/day, 16.247 hours/ns, 17.097 timesteps/s
99.1% CPU use with 2 MPI tasks x no OpenMP threads

MPI task timing breakdown:
Section |  min time  |  avg time  |  max time  |%varavg| %total
---------------------------------------------------------------
Pair    | 282.26     | 285.88     | 289.5      |  21.4 | 51.42
Neigh   | 235.63     | 236.01     | 236.4      |   2.5 | 42.45
Comm    | 20.175     | 23.515     | 26.855     |  68.9 |  4.23
Output  | 0.053752   | 0.053766   | 0.05378    |   0.0 |  0.01
Modify  | 8.1993     | 8.3224     | 8.4454     |   4.3 |  1.50
Other   |            | 2.155      |            |       |  0.39

Nlocal:    9826 ave 9834 max 9818 min
Histogram: 1 0 0 0 0 0 0 0 0 1
Nghost:    9521 ave 9534 max 9508 min
Histogram: 1 0 0 0 0 0 0 0 0 1
Neighs:    346714 ave 346888 max 346540 min
Histogram: 1 0 0 0 0 0 0 0 0 1

Total # of neighbors = 693428
Ave neighs/atom = 35.2854
Neighbor list builds = 9505
Dangerous builds not checked
Setting up Verlet run ...
  Unit style    : metal
  Current step  : 130000
  Time step     : 0.001
Per MPI rank memory allocation (min/avg/max) = 11.27 | 11.27 | 11.27 Mbytes
Step Temp Press TotEng PotEng Enthalpy 
  130000    1978.3885   -332.15423   -71749.733   -76775.021   -71893.271 
  130495    1948.9539   -42.758333   -71908.465   -76858.985   -71926.911 
Loop time of 28.0211 on 2 procs for 495 steps with 19652 atoms

Performance: 1.526 ns/day, 15.725 hours/ns, 17.665 timesteps/s
99.0% CPU use with 2 MPI tasks x no OpenMP threads

MPI task timing breakdown:
Section |  min time  |  avg time  |  max time  |%varavg| %total
---------------------------------------------------------------
Pair    | 14.217     | 14.251     | 14.284     |   0.9 | 50.86
Neigh   | 11.721     | 11.987     | 12.253     |   7.7 | 42.78
Comm    | 0.91168    | 1.2315     | 1.5514     |  28.8 |  4.40
Output  | 8.1062e-05 | 0.00010157 | 0.00012207 |   0.0 |  0.00
Modify  | 0.43147    | 0.44092    | 0.45037    |   1.4 |  1.57
Other   |            | 0.1111     |            |       |  0.40

Nlocal:    9826 ave 9831 max 9821 min
Histogram: 1 0 0 0 0 0 0 0 0 1
Nghost:    9536 ave 9557 max 9515 min
Histogram: 1 0 0 0 0 0 0 0 0 1
Neighs:    347449 ave 348024 max 346874 min
Histogram: 1 0 0 0 0 0 0 0 0 1

Total # of neighbors = 694898
Ave neighs/atom = 35.3602
Neighbor list builds = 495
Dangerous builds not checked
Setting up Verlet run ...
  Unit style    : metal
  Current step  : 130495
  Time step     : 0.001
Per MPI rank memory allocation (min/avg/max) = 11.27 | 11.27 | 11.27 Mbytes
Step Temp Press TotEng PotEng Enthalpy 
  130495    1948.9539   -42.758333   -71908.465   -76858.985   -71926.911 
  140000    1961.6072   -573.01211   -72004.812   -76987.473   -72252.218 
Loop time of 554.282 on 2 procs for 9505 steps with 19652 atoms

Performance: 1.482 ns/day, 16.199 hours/ns, 17.148 timesteps/s
99.3% CPU use with 2 MPI tasks x no OpenMP threads

MPI task timing breakdown:
Section |  min time  |  avg time  |  max time  |%varavg| %total
---------------------------------------------------------------
Pair    | 283.56     | 283.72     | 283.88     |   0.9 | 51.19
Neigh   | 224.57     | 233.06     | 241.56     |  55.6 | 42.05
Comm    | 17.899     | 26.912     | 35.925     | 173.7 |  4.86
Output  | 0.056852   | 0.056877   | 0.056902   |   0.0 |  0.01
Modify  | 8.232      | 8.4214     | 8.6108     |   6.5 |  1.52
Other   |            | 2.107      |            |       |  0.38

Nlocal:    9826 ave 9848 max 9804 min
Histogram: 1 0 0 0 0 0 0 0 0 1
Nghost:    9497 ave 9503 max 9491 min
Histogram: 1 0 0 0 0 0 0 0 0 1
Neighs:    346698 ave 347813 max 345584 min
Histogram: 1 0 0 0 0 0 0 0 0 1

Total # of neighbors = 693397
Ave neighs/atom = 35.2838
Neighbor list builds = 9505
Dangerous builds not checked
Setting up Verlet run ...
  Unit style    : metal
  Current step  : 140000
  Time step     : 0.001
Per MPI rank memory allocation (min/avg/max) = 11.27 | 11.27 | 11.27 Mbytes
Step Temp Press TotEng PotEng Enthalpy 
  140000    1961.6072   -573.01211   -72004.812   -76987.473   -72252.218 
  140495    1929.9744   -96.799439   -72199.415   -77101.726   -72241.109 
Loop time of 27.4909 on 2 procs for 495 steps with 19652 atoms

Performance: 1.556 ns/day, 15.427 hours/ns, 18.006 timesteps/s
99.4% CPU use with 2 MPI tasks x no OpenMP threads

MPI task timing breakdown:
Section |  min time  |  avg time  |  max time  |%varavg| %total
---------------------------------------------------------------
Pair    | 13.876     | 13.916     | 13.956     |   1.1 | 50.62
Neigh   | 11.383     | 11.806     | 12.229     |  12.3 | 42.95
Comm    | 0.73742    | 1.2224     | 1.7074     |  43.9 |  4.45
Output  | 8.1778e-05 | 0.00010037 | 0.00011897 |   0.0 |  0.00
Modify  | 0.42487    | 0.43556    | 0.44626    |   1.6 |  1.58
Other   |            | 0.111      |            |       |  0.40

Nlocal:    9826 ave 9837 max 9815 min
Histogram: 1 0 0 0 0 0 0 0 0 1
Nghost:    9539.5 ave 9552 max 9527 min
Histogram: 1 0 0 0 0 0 0 0 0 1
Neighs:    347488 ave 347760 max 347215 min
Histogram: 1 0 0 0 0 0 0 0 0 1

Total # of neighbors = 694975
Ave neighs/atom = 35.3641
Neighbor list builds = 495
Dangerous builds not checked
Setting up Verlet run ...
  Unit style    : metal
  Current step  : 140495
  Time step     : 0.001
Per MPI rank memory allocation (min/avg/max) = 11.27 | 11.27 | 11.27 Mbytes
Step Temp Press TotEng PotEng Enthalpy 
  140495    1929.9744   -96.799439   -72199.415   -77101.726   -72241.109 
  150000    1897.2065     149.8463   -72356.332    -77175.41   -72291.953 
Loop time of 584.78 on 2 procs for 9505 steps with 19652 atoms

Performance: 1.404 ns/day, 17.090 hours/ns, 16.254 timesteps/s
97.5% CPU use with 2 MPI tasks x no OpenMP threads

MPI task timing breakdown:
Section |  min time  |  avg time  |  max time  |%varavg| %total
---------------------------------------------------------------
Pair    | 296.62     | 304.22     | 311.82     |  43.6 | 52.02
Neigh   | 223.3      | 234.13     | 244.96     |  70.8 | 40.04
Comm    | 16.436     | 35.348     | 54.26      | 318.1 |  6.04
Output  | 0.051922   | 0.05195    | 0.051978   |   0.0 |  0.01
Modify  | 8.6423     | 8.8755     | 9.1087     |   7.8 |  1.52
Other   |            | 2.159      |            |       |  0.37

Nlocal:    9826 ave 9839 max 9813 min
Histogram: 1 0 0 0 0 0 0 0 0 1
Nghost:    9544 ave 9545 max 9543 min
Histogram: 1 0 0 0 0 0 0 0 0 1
Neighs:    348270 ave 349602 max 346938 min
Histogram: 1 0 0 0 0 0 0 0 0 1

Total # of neighbors = 696540
Ave neighs/atom = 35.4437
Neighbor list builds = 9505
Dangerous builds not checked
Setting up Verlet run ...
  Unit style    : metal
  Current step  : 150000
  Time step     : 0.001
Per MPI rank memory allocation (min/avg/max) = 11.27 | 11.27 | 11.27 Mbytes
Step Temp Press TotEng PotEng Enthalpy 
  150000    1897.2065     149.8463   -72356.332    -77175.41   -72291.953 
  150495    1857.8416    131.03491   -72528.161   -77247.248   -72471.913 
Loop time of 34.2573 on 2 procs for 495 steps with 19652 atoms

Performance: 1.248 ns/day, 19.224 hours/ns, 14.449 timesteps/s
92.6% CPU use with 2 MPI tasks x no OpenMP threads

MPI task timing breakdown:
Section |  min time  |  avg time  |  max time  |%varavg| %total
---------------------------------------------------------------
Pair    | 17.747     | 18.043     | 18.34      |   7.0 | 52.67
Neigh   | 11.61      | 12.882     | 14.155     |  35.5 | 37.60
Comm    | 1.0817     | 2.6962     | 4.3107     |  98.3 |  7.87
Output  | 0.00011301 | 0.00014198 | 0.00017095 |   0.0 |  0.00
Modify  | 0.48633    | 0.51942    | 0.55251    |   4.6 |  1.52
Other   |            | 0.1159     |            |       |  0.34

Nlocal:    9826 ave 9842 max 9810 min
Histogram: 1 0 0 0 0 0 0 0 0 1
Nghost:    9539 ave 9547 max 9531 min
Histogram: 1 0 0 0 0 0 0 0 0 1
Neighs:    348522 ave 349516 max 347528 min
Histogram: 1 0 0 0 0 0 0 0 0 1

Total # of neighbors = 697044
Ave neighs/atom = 35.4694
Neighbor list builds = 495
Dangerous builds not checked
Setting up Verlet run ...
  Unit style    : metal
  Current step  : 150495
  Time step     : 0.001
Per MPI rank memory allocation (min/avg/max) = 11.27 | 11.27 | 11.27 Mbytes
Step Temp Press TotEng PotEng Enthalpy 
  150495    1857.8416    131.03491   -72528.161   -77247.248   -72471.913 
  160000    1858.0127   -22.089404   -72571.405   -77290.927   -72580.885 
Loop time of 532.369 on 2 procs for 9505 steps with 19652 atoms

Performance: 1.543 ns/day, 15.558 hours/ns, 17.854 timesteps/s
99.1% CPU use with 2 MPI tasks x no OpenMP threads

MPI task timing breakdown:
Section |  min time  |  avg time  |  max time  |%varavg| %total
---------------------------------------------------------------
Pair    | 265.2      | 269.75     | 274.3      |  27.7 | 50.67
Neigh   | 227.74     | 228.65     | 229.56     |   6.0 | 42.95
Comm    | 20.074     | 23.685     | 27.296     |  74.2 |  4.45
Output  | 0.048356   | 0.048374   | 0.048392   |   0.0 |  0.01
Modify  | 8.2089     | 8.233      | 8.2571     |   0.8 |  1.55
Other   |            | 2.003      |            |       |  0.38

Nlocal:    9826 ave 9848 max 9804 min
Histogram: 1 0 0 0 0 0 0 0 0 1
Nghost:    9522.5 ave 9554 max 9491 min
Histogram: 1 0 0 0 0 0 0 0 0 1
Neighs:    348508 ave 349208 max 347807 min
Histogram: 1 0 0 0 0 0 0 0 0 1

Total # of neighbors = 697015
Ave neighs/atom = 35.4679
Neighbor list builds = 9505
Dangerous builds not checked
Setting up Verlet run ...
  Unit style    : metal
  Current step  : 160000
  Time step     : 0.001
Per MPI rank memory allocation (min/avg/max) = 11.28 | 11.28 | 11.28 Mbytes
Step Temp Press TotEng PotEng Enthalpy 
  160000    1858.0127   -22.089404   -72571.405   -77290.927   -72580.885 
  160495    1803.3302    224.07234   -72854.543   -77435.166   -72758.628 
Loop time of 25.9015 on 2 procs for 495 steps with 19652 atoms

Performance: 1.651 ns/day, 14.535 hours/ns, 19.111 timesteps/s
99.7% CPU use with 2 MPI tasks x no OpenMP threads

MPI task timing breakdown:
Section |  min time  |  avg time  |  max time  |%varavg| %total
---------------------------------------------------------------
Pair    | 12.858     | 13.026     | 13.194     |   4.7 | 50.29
Neigh   | 11.178     | 11.405     | 11.633     |   6.7 | 44.03
Comm    | 0.86771    | 0.93557    | 1.0034     |   7.0 |  3.61
Output  | 9.0122e-05 | 0.00012457 | 0.00015903 |   0.0 |  0.00
Modify  | 0.42234    | 0.42835    | 0.43436    |   0.9 |  1.65
Other   |            | 0.1057     |            |       |  0.41

Nlocal:    9826 ave 9848 max 9804 min
Histogram: 1 0 0 0 0 0 0 0 0 1
Nghost:    9520 ave 9527 max 9513 min
Histogram: 1 0 0 0 0 0 0 0 0 1
Neighs:    349056 ave 350121 max 347992 min
Histogram: 1 0 0 0 0 0 0 0 0 1

Total # of neighbors = 698113
Ave neighs/atom = 35.5238
Neighbor list builds = 495
Dangerous builds not checked
Setting up Verlet run ...
  Unit style    : metal
  Current step  : 160495
  Time step     : 0.001
Per MPI rank memory allocation (min/avg/max) = 11.28 | 11.28 | 11.28 Mbytes
Step Temp Press TotEng PotEng Enthalpy 
  160495    1803.3302    224.07234   -72854.543   -77435.166   -72758.628 
  170000    1795.6461   -768.63275    -72917.92   -77479.025   -73247.916 
Loop time of 542.359 on 2 procs for 9505 steps with 19652 atoms

Performance: 1.514 ns/day, 15.850 hours/ns, 17.525 timesteps/s
99.1% CPU use with 2 MPI tasks x no OpenMP threads

MPI task timing breakdown:
Section |  min time  |  avg time  |  max time  |%varavg| %total
---------------------------------------------------------------
Pair    | 275.49     | 276.8      | 278.11     |   7.9 | 51.04
Neigh   | 225.86     | 226.43     | 226.99     |   3.8 | 41.75
Comm    | 26.686     | 28.543     | 30.4       |  34.8 |  5.26
Output  | 0.058593   | 0.058604   | 0.058616   |   0.0 |  0.01
Modify  | 8.4797     | 8.4822     | 8.4847     |   0.1 |  1.56
Other   |            | 2.051      |            |       |  0.38

Nlocal:    9826 ave 9854 max 9798 min
Histogram: 1 0 0 0 0 0 0 0 0 1
Nghost:    9531 ave 9543 max 9519 min
Histogram: 1 0 0 0 0 0 0 0 0 1
Neighs:    347800 ave 349369 max 346232 min
Histogram: 1 0 0 0 0 0 0 0 0 1

Total # of neighbors = 695601
Ave neighs/atom = 35.3959
Neighbor list builds = 9505
Dangerous builds not checked
Setting up Verlet run ...
  Unit style    : metal
  Current step  : 170000
  Time step     : 0.001
Per MPI rank memory allocation (min/avg/max) = 11.28 | 11.28 | 11.28 Mbytes
Step Temp Press TotEng PotEng Enthalpy 
  170000    1795.6461   -768.63275    -72917.92   -77479.025   -73247.916 
  170495    1748.5078   -116.23047    -73188.51   -77629.879   -73238.195 
Loop time of 25.8183 on 2 procs for 495 steps with 19652 atoms

Performance: 1.656 ns/day, 14.488 hours/ns, 19.172 timesteps/s
99.2% CPU use with 2 MPI tasks x no OpenMP threads

MPI task timing breakdown:
Section |  min time  |  avg time  |  max time  |%varavg| %total
---------------------------------------------------------------
Pair    | 12.763     | 12.955     | 13.147     |   5.3 | 50.18
Neigh   | 11.321     | 11.391     | 11.462     |   2.1 | 44.12
Comm    | 0.67972    | 0.95674    | 1.2338     |  28.3 |  3.71
Output  | 8.7023e-05 | 0.00010347 | 0.00011992 |   0.0 |  0.00
Modify  | 0.40444    | 0.40729    | 0.41013    |   0.4 |  1.58
Other   |            | 0.108      |            |       |  0.42

Nlocal:    9826 ave 9849 max 9803 min
Histogram: 1 0 0 0 0 0 0 0 0 1
Nghost:    9553.5 ave 9583 max 9524 min
Histogram: 1 0 0 0 0 0 0 0 0 1
Neighs:    349352 ave 350331 max 348374 min
Histogram: 1 0 0 0 0 0 0 0 0 1

Total # of neighbors = 698705
Ave neighs/atom = 35.5539
Neighbor list builds = 495
Dangerous builds not checked
Setting up Verlet run ...
  Unit style    : metal
  Current step  : 170495
  Time step     : 0.001
Per MPI rank memory allocation (min/avg/max) = 11.28 | 11.28 | 11.28 Mbytes
Step Temp Press TotEng PotEng Enthalpy 
  170495    1748.5078   -116.23047    -73188.51   -77629.879   -73238.195 
  180000    1738.4674   -646.92733   -73315.834     -77731.7   -73592.639 
Loop time of 545.049 on 2 procs for 9505 steps with 19652 atoms

Performance: 1.507 ns/day, 15.929 hours/ns, 17.439 timesteps/s
98.4% CPU use with 2 MPI tasks x no OpenMP threads

MPI task timing breakdown:
Section |  min time  |  avg time  |  max time  |%varavg| %total
---------------------------------------------------------------
Pair    | 275.2      | 277.85     | 280.51     |  15.9 | 50.98
Neigh   | 232.55     | 233.13     | 233.71     |   3.8 | 42.77
Comm    | 21.434     | 23.565     | 25.696     |  43.9 |  4.32
Output  | 0.052352   | 0.052384   | 0.052417   |   0.0 |  0.01
Modify  | 8.2757     | 8.335      | 8.3943     |   2.1 |  1.53
Other   |            | 2.118      |            |       |  0.39

Nlocal:    9826 ave 9834 max 9818 min
Histogram: 1 0 0 0 0 0 0 0 0 1
Nghost:    9582.5 ave 9587 max 9578 min
Histogram: 1 0 0 0 0 0 0 0 0 1
Neighs:    348680 ave 348813 max 348547 min
Histogram: 1 0 0 0 0 0 0 0 0 1

Total # of neighbors = 697360
Ave neighs/atom = 35.4854
Neighbor list builds = 9505
Dangerous builds not checked
Setting up Verlet run ...
  Unit style    : metal
  Current step  : 180000
  Time step     : 0.001
Per MPI rank memory allocation (min/avg/max) = 11.28 | 11.28 | 11.28 Mbytes
Step Temp Press TotEng PotEng Enthalpy 
  180000    1738.4674   -646.92733   -73315.834     -77731.7   -73592.639 
  180495     1723.665   -251.10369   -73475.857   -77854.123    -73583.01 
Loop time of 26.7218 on 2 procs for 495 steps with 19652 atoms

Performance: 1.600 ns/day, 14.995 hours/ns, 18.524 timesteps/s
99.8% CPU use with 2 MPI tasks x no OpenMP threads

MPI task timing breakdown:
Section |  min time  |  avg time  |  max time  |%varavg| %total
---------------------------------------------------------------
Pair    | 13.239     | 13.511     | 13.784     |   7.4 | 50.56
Neigh   | 11.278     | 11.672     | 12.066     |  11.5 | 43.68
Comm    | 0.89203    | 1.0127     | 1.1334     |  12.0 |  3.79
Output  | 9.7036e-05 | 0.00012255 | 0.00014806 |   0.0 |  0.00
Modify  | 0.41701    | 0.41856    | 0.4201     |   0.2 |  1.57
Other   |            | 0.107      |            |       |  0.40

Nlocal:    9826 ave 9835 max 9817 min
Histogram: 1 0 0 0 0 0 0 0 0 1
Nghost:    9552 ave 9562 max 9542 min
Histogram: 1 0 0 0 0 0 0 0 0 1
Neighs:    349741 ave 349846 max 349636 min
Histogram: 1 0 0 0 0 0 0 0 0 1

Total # of neighbors = 699482
Ave neighs/atom = 35.5934
Neighbor list builds = 495
Dangerous builds not checked
Setting up Verlet run ...
  Unit style    : metal
  Current step  : 180495
  Time step     : 0.001
Per MPI rank memory allocation (min/avg/max) = 11.28 | 11.28 | 11.28 Mbytes
Step Temp Press TotEng PotEng Enthalpy 
  180495     1723.665   -251.10369   -73475.857   -77854.123    -73583.01 
  190000    1707.4699   -386.98157   -73547.676   -77884.805   -73712.917 
Loop time of 538.954 on 2 procs for 9505 steps with 19652 atoms

Performance: 1.524 ns/day, 15.751 hours/ns, 17.636 timesteps/s
99.0% CPU use with 2 MPI tasks x no OpenMP threads

MPI task timing breakdown:
Section |  min time  |  avg time  |  max time  |%varavg| %total
---------------------------------------------------------------
Pair    | 272.61     | 274.94     | 277.28     |  14.1 | 51.01
Neigh   | 222.57     | 228.99     | 235.41     |  42.5 | 42.49
Comm    | 20.239     | 24.499     | 28.76      |  86.1 |  4.55
Output  | 0.056058   | 0.056089   | 0.056121   |   0.0 |  0.01
Modify  | 8.2846     | 8.3629     | 8.4413     |   2.7 |  1.55
Other   |            | 2.102      |            |       |  0.39

Nlocal:    9826 ave 9829 max 9823 min
Histogram: 1 0 0 0 0 0 0 0 0 1
Nghost:    9513 ave 9514 max 9512 min
Histogram: 1 0 0 0 0 0 0 0 0 1
Neighs:    349274 ave 349374 max 349174 min
Histogram: 1 0 0 0 0 0 0 0 0 1

Total # of neighbors = 698548
Ave neighs/atom = 35.5459
Neighbor list builds = 9505
Dangerous builds not checked
Setting up Verlet run ...
  Unit style    : metal
  Current step  : 190000
  Time step     : 0.001
Per MPI rank memory allocation (min/avg/max) = 11.28 | 11.28 | 11.28 Mbytes
Step Temp Press TotEng PotEng Enthalpy 
  190000    1707.4699   -386.98157   -73547.676   -77884.805   -73712.917 
  190495    1654.2858    -370.9926   -73815.716   -78017.753   -73973.809 
Loop time of 27.5838 on 2 procs for 495 steps with 19652 atoms

Performance: 1.550 ns/day, 15.479 hours/ns, 17.945 timesteps/s
99.8% CPU use with 2 MPI tasks x no OpenMP threads

MPI task timing breakdown:
Section |  min time  |  avg time  |  max time  |%varavg| %total
---------------------------------------------------------------
Pair    | 14.028     | 14.031     | 14.033     |   0.1 | 50.87
Neigh   | 11.074     | 11.75      | 12.426     |  19.7 | 42.60
Comm    | 0.5758     | 1.2697     | 1.9636     |  61.6 |  4.60
Output  | 9.2983e-05 | 0.00012696 | 0.00016093 |   0.0 |  0.00
Modify  | 0.41242    | 0.42599    | 0.43955    |   2.1 |  1.54
Other   |            | 0.1077     |            |       |  0.39

Nlocal:    9826 ave 9831 max 9821 min
Histogram: 1 0 0 0 0 0 0 0 0 1
Nghost:    9591.5 ave 9609 max 9574 min
Histogram: 1 0 0 0 0 0 0 0 0 1
Neighs:    349836 ave 350019 max 349654 min
Histogram: 1 0 0 0 0 0 0 0 0 1

Total # of neighbors = 699673
Ave neighs/atom = 35.6031
Neighbor list builds = 495
Dangerous builds not checked
Setting up Verlet run ...
  Unit style    : metal
  Current step  : 190495
  Time step     : 0.001
Per MPI rank memory allocation (min/avg/max) = 11.28 | 11.28 | 11.28 Mbytes
Step Temp Press TotEng PotEng Enthalpy 
  190495    1654.2858    -370.9926   -73815.716   -78017.753   -73973.809 
  200000    1629.9207   -10.510011   -73981.252   -78121.399   -73985.719 
Loop time of 534.073 on 2 procs for 9505 steps with 19652 atoms

Performance: 1.538 ns/day, 15.608 hours/ns, 17.797 timesteps/s
98.8% CPU use with 2 MPI tasks x no OpenMP threads

MPI task timing breakdown:
Section |  min time  |  avg time  |  max time  |%varavg| %total
---------------------------------------------------------------
Pair    | 269.07     | 271.98     | 274.89     |  17.7 | 50.93
Neigh   | 221.8      | 223.84     | 225.89     |  13.7 | 41.91
Comm    | 27.053     | 27.92      | 28.788     |  16.4 |  5.23
Output  | 0.15985    | 0.15986    | 0.15987    |   0.0 |  0.03
Modify  | 8.1628     | 8.1668     | 8.1707     |   0.1 |  1.53
Other   |            | 2.007      |            |       |  0.38

Nlocal:    9826 ave 9837 max 9815 min
Histogram: 1 0 0 0 0 0 0 0 0 1
Nghost:    9580.5 ave 9598 max 9563 min
Histogram: 1 0 0 0 0 0 0 0 0 1
Neighs:    350348 ave 351397 max 349298 min
Histogram: 1 0 0 0 0 0 0 0 0 1

Total # of neighbors = 700695
Ave neighs/atom = 35.6551
Neighbor list builds = 9505
Dangerous builds not checked
Setting up Verlet run ...
  Unit style    : metal
  Current step  : 200000
  Time step     : 0.001
Per MPI rank memory allocation (min/avg/max) = 11.28 | 11.28 | 11.28 Mbytes
Step Temp Press TotEng PotEng Enthalpy 
  200000    1629.9207   -10.510011   -73981.252   -78121.399   -73985.719 
  200495    1619.7567    75.192064   -74125.258   -78239.588   -74093.341 
Loop time of 27.8186 on 2 procs for 495 steps with 19652 atoms

Performance: 1.537 ns/day, 15.611 hours/ns, 17.794 timesteps/s
99.2% CPU use with 2 MPI tasks x no OpenMP threads

MPI task timing breakdown:
Section |  min time  |  avg time  |  max time  |%varavg| %total
---------------------------------------------------------------
Pair    | 13.882     | 14.092     | 14.302     |   5.6 | 50.66
Neigh   | 11.587     | 11.976     | 12.364     |  11.2 | 43.05
Comm    | 0.60609    | 1.2152     | 1.8243     |  55.3 |  4.37
Output  | 8.297e-05  | 0.00011587 | 0.00014877 |   0.0 |  0.00
Modify  | 0.41549    | 0.42484    | 0.43419    |   1.4 |  1.53
Other   |            | 0.1107     |            |       |  0.40

Nlocal:    9826 ave 9844 max 9808 min
Histogram: 1 0 0 0 0 0 0 0 0 1
Nghost:    9566.5 ave 9568 max 9565 min
Histogram: 1 0 0 0 0 0 0 0 0 1
Neighs:    350618 ave 351246 max 349989 min
Histogram: 1 0 0 0 0 0 0 0 0 1

Total # of neighbors = 701235
Ave neighs/atom = 35.6826
Neighbor list builds = 495
Dangerous builds not checked
Setting up Verlet run ...
  Unit style    : metal
  Current step  : 200495
  Time step     : 0.001
Per MPI rank memory allocation (min/avg/max) = 11.28 | 11.28 | 11.28 Mbytes
Step Temp Press TotEng PotEng Enthalpy 
  200495    1619.7567    75.192064   -74125.258   -78239.588   -74093.341 
  210000    1594.4174   -966.51569   -74288.267   -78338.233   -74699.439 
Loop time of 582.453 on 2 procs for 9505 steps with 19652 atoms

Performance: 1.410 ns/day, 17.022 hours/ns, 16.319 timesteps/s
98.4% CPU use with 2 MPI tasks x no OpenMP threads

MPI task timing breakdown:
Section |  min time  |  avg time  |  max time  |%varavg| %total
---------------------------------------------------------------
Pair    | 290.74     | 299.72     | 308.7      |  51.9 | 51.46
Neigh   | 224.62     | 236.12     | 247.63     |  74.9 | 40.54
Comm    | 14.536     | 35.48      | 56.425     | 351.6 |  6.09
Output  | 0.052686   | 0.052712   | 0.052738   |   0.0 |  0.01
Modify  | 8.6054     | 8.8819     | 9.1584     |   9.3 |  1.52
Other   |            | 2.199      |            |       |  0.38

Nlocal:    9826 ave 9838 max 9814 min
Histogram: 1 0 0 0 0 0 0 0 0 1
Nghost:    9591.5 ave 9601 max 9582 min
Histogram: 1 0 0 0 0 0 0 0 0 1
Neighs:    349687 ave 350158 max 349216 min
Histogram: 1 0 0 0 0 0 0 0 0 1

Total # of neighbors = 699374
Ave neighs/atom = 35.5879
Neighbor list builds = 9505
Dangerous builds not checked
Setting up Verlet run ...
  Unit style    : metal
  Current step  : 210000
  Time step     : 0.001
Per MPI rank memory allocation (min/avg/max) = 11.28 | 11.28 | 11.28 Mbytes
Step Temp Press TotEng PotEng Enthalpy 
  210000    1594.4174   -966.51569   -74288.267   -78338.233   -74699.439 
  210495    1561.2338   -990.77084   -74505.886   -78471.562   -74926.694 
Loop time of 27.3871 on 2 procs for 495 steps with 19652 atoms

Performance: 1.562 ns/day, 15.369 hours/ns, 18.074 timesteps/s
99.9% CPU use with 2 MPI tasks x no OpenMP threads

MPI task timing breakdown:
Section |  min time  |  avg time  |  max time  |%varavg| %total
---------------------------------------------------------------
Pair    | 13.665     | 13.85      | 14.036     |   5.0 | 50.57
Neigh   | 11.39      | 11.833     | 12.276     |  12.9 | 43.21
Comm    | 0.52324    | 1.1648     | 1.8064     |  59.4 |  4.25
Output  | 8.7023e-05 | 0.00011504 | 0.00014305 |   0.0 |  0.00
Modify  | 0.42129    | 0.42997    | 0.43866    |   1.3 |  1.57
Other   |            | 0.1086     |            |       |  0.40

Nlocal:    9826 ave 9838 max 9814 min
Histogram: 1 0 0 0 0 0 0 0 0 1
Nghost:    9612 ave 9612 max 9612 min
Histogram: 2 0 0 0 0 0 0 0 0 0
Neighs:    349963 ave 350525 max 349401 min
Histogram: 1 0 0 0 0 0 0 0 0 1

Total # of neighbors = 699926
Ave neighs/atom = 35.616
Neighbor list builds = 495
Dangerous builds not checked
Setting up Verlet run ...
  Unit style    : metal
  Current step  : 210495
  Time step     : 0.001
Per MPI rank memory allocation (min/avg/max) = 11.28 | 11.28 | 11.28 Mbytes
Step Temp Press TotEng PotEng Enthalpy 
  210495    1561.2338   -990.77084   -74505.886   -78471.562   -74926.694 
  220000    1553.1165    129.34286   -74608.459   -78553.516   -74553.763 
Loop time of 558.918 on 2 procs for 9505 steps with 19652 atoms

Performance: 1.469 ns/day, 16.334 hours/ns, 17.006 timesteps/s
99.0% CPU use with 2 MPI tasks x no OpenMP threads

MPI task timing breakdown:
Section |  min time  |  avg time  |  max time  |%varavg| %total
---------------------------------------------------------------
Pair    | 280.09     | 286.07     | 292.06     |  35.4 | 51.18
Neigh   | 224.83     | 231.27     | 237.7      |  42.3 | 41.38
Comm    | 18.14      | 30.794     | 43.447     | 228.0 |  5.51
Output  | 0.069812   | 0.069839   | 0.069867   |   0.0 |  0.01
Modify  | 8.4624     | 8.5679     | 8.6734     |   3.6 |  1.53
Other   |            | 2.147      |            |       |  0.38

Nlocal:    9826 ave 9827 max 9825 min
Histogram: 1 0 0 0 0 0 0 0 0 1
Nghost:    9593 ave 9595 max 9591 min
Histogram: 1 0 0 0 0 0 0 0 0 1
Neighs:    351326 ave 351447 max 351206 min
Histogram: 1 0 0 0 0 0 0 0 0 1

Total # of neighbors = 702653
Ave neighs/atom = 35.7548
Neighbor list builds = 9505
Dangerous builds not checked
Setting up Verlet run ...
  Unit style    : metal
  Current step  : 220000
  Time step     : 0.001
Per MPI rank memory allocation (min/avg/max) = 11.28 | 11.28 | 11.28 Mbytes
Step Temp Press TotEng PotEng Enthalpy 
  220000    1553.1165    129.34286   -74608.459   -78553.516   -74553.763 
  220495    1498.2545    306.62505   -74818.859   -78624.562   -74689.355 
Loop time of 30.9996 on 2 procs for 495 steps with 19652 atoms

Performance: 1.380 ns/day, 17.396 hours/ns, 15.968 timesteps/s
98.9% CPU use with 2 MPI tasks x no OpenMP threads

MPI task timing breakdown:
Section |  min time  |  avg time  |  max time  |%varavg| %total
---------------------------------------------------------------
Pair    | 15.433     | 16.243     | 17.053     |  20.1 | 52.40
Neigh   | 11.915     | 12.256     | 12.598     |   9.7 | 39.54
Comm    | 0.68378    | 1.8867     | 3.0897     |  87.6 |  6.09
Output  | 9.2983e-05 | 0.00012803 | 0.00016308 |   0.0 |  0.00
Modify  | 0.44828    | 0.48459    | 0.52091    |   5.2 |  1.56
Other   |            | 0.1289     |            |       |  0.42

Nlocal:    9826 ave 9832 max 9820 min
Histogram: 1 0 0 0 0 0 0 0 0 1
Nghost:    9629 ave 9646 max 9612 min
Histogram: 1 0 0 0 0 0 0 0 0 1
Neighs:    351684 ave 351962 max 351405 min
Histogram: 1 0 0 0 0 0 0 0 0 1

Total # of neighbors = 703367
Ave neighs/atom = 35.7911
Neighbor list builds = 495
Dangerous builds not checked
Setting up Verlet run ...
  Unit style    : metal
  Current step  : 220495
  Time step     : 0.001
Per MPI rank memory allocation (min/avg/max) = 11.28 | 11.28 | 11.28 Mbytes
Step Temp Press TotEng PotEng Enthalpy 
  220495    1498.2545    306.62505   -74818.859   -78624.562   -74689.355 
  230000    1492.1333    455.86041    -74983.03   -78773.184   -74790.901 
Loop time of 569.514 on 2 procs for 9505 steps with 19652 atoms

Performance: 1.442 ns/day, 16.644 hours/ns, 16.690 timesteps/s
97.0% CPU use with 2 MPI tasks x no OpenMP threads

MPI task timing breakdown:
Section |  min time  |  avg time  |  max time  |%varavg| %total
---------------------------------------------------------------
Pair    | 291.69     | 292.6      | 293.5      |   5.3 | 51.38
Neigh   | 228.87     | 229.31     | 229.75     |   2.9 | 40.26
Comm    | 35.502     | 36.875     | 38.247     |  22.6 |  6.47
Output  | 0.043925   | 0.043943   | 0.04396    |   0.0 |  0.01
Modify  | 8.5835     | 8.6101     | 8.6368     |   0.9 |  1.51
Other   |            | 2.083      |            |       |  0.37

Nlocal:    9826 ave 9840 max 9812 min
Histogram: 1 0 0 0 0 0 0 0 0 1
Nghost:    9571 ave 9578 max 9564 min
Histogram: 1 0 0 0 0 0 0 0 0 1
Neighs:    352047 ave 352940 max 351154 min
Histogram: 1 0 0 0 0 0 0 0 0 1

Total # of neighbors = 704094
Ave neighs/atom = 35.8281
Neighbor list builds = 9505
Dangerous builds not checked
Setting up Verlet run ...
  Unit style    : metal
  Current step  : 230000
  Time step     : 0.001
Per MPI rank memory allocation (min/avg/max) = 11.29 | 11.29 | 11.29 Mbytes
Step Temp Press TotEng PotEng Enthalpy 
  230000    1492.1333    455.86041    -74983.03   -78773.184   -74790.901 
  230495    1460.0946    797.66501   -75152.558   -78861.332   -74817.109 
Loop time of 27.1837 on 2 procs for 495 steps with 19652 atoms

Performance: 1.573 ns/day, 15.255 hours/ns, 18.209 timesteps/s
99.9% CPU use with 2 MPI tasks x no OpenMP threads

MPI task timing breakdown:
Section |  min time  |  avg time  |  max time  |%varavg| %total
---------------------------------------------------------------
Pair    | 13.393     | 13.815     | 14.238     |  11.4 | 50.82
Neigh   | 10.642     | 11.281     | 11.919     |  19.0 | 41.50
Comm    | 0.50064    | 1.5822     | 2.6638     |  86.0 |  5.82
Output  | 7.4863e-05 | 0.00010943 | 0.000144   |   0.0 |  0.00
Modify  | 0.39088    | 0.40339    | 0.4159     |   2.0 |  1.48
Other   |            | 0.102      |            |       |  0.38

Nlocal:    9826 ave 9849 max 9803 min
Histogram: 1 0 0 0 0 0 0 0 0 1
Nghost:    9608 ave 9637 max 9579 min
Histogram: 1 0 0 0 0 0 0 0 0 1
Neighs:    352558 ave 353727 max 351390 min
Histogram: 1 0 0 0 0 0 0 0 0 1

Total # of neighbors = 705117
Ave neighs/atom = 35.8802
Neighbor list builds = 495
Dangerous builds not checked
Setting up Verlet run ...
  Unit style    : metal
  Current step  : 230495
  Time step     : 0.001
Per MPI rank memory allocation (min/avg/max) = 11.29 | 11.29 | 11.29 Mbytes
Step Temp Press TotEng PotEng Enthalpy 
  230495    1460.0946    797.66501   -75152.558   -78861.332   -74817.109 
  240000    1447.1703   -686.70935   -75279.553   -78955.498   -75569.237 
Loop time of 539.012 on 2 procs for 9505 steps with 19652 atoms

Performance: 1.524 ns/day, 15.752 hours/ns, 17.634 timesteps/s
99.6% CPU use with 2 MPI tasks x no OpenMP threads

MPI task timing breakdown:
Section |  min time  |  avg time  |  max time  |%varavg| %total
---------------------------------------------------------------
Pair    | 264.14     | 273.45     | 282.77     |  56.4 | 50.73
Neigh   | 220.55     | 226.07     | 231.59     |  36.7 | 41.94
Comm    | 14.115     | 29.195     | 44.274     | 279.1 |  5.42
Output  | 0.053674   | 0.053689   | 0.053704   |   0.0 |  0.01
Modify  | 8.0777     | 8.1827     | 8.2878     |   3.7 |  1.52
Other   |            | 2.055      |            |       |  0.38

Nlocal:    9826 ave 9854 max 9798 min
Histogram: 1 0 0 0 0 0 0 0 0 1
Nghost:    9598.5 ave 9601 max 9596 min
Histogram: 1 0 0 0 0 0 0 0 0 1
Neighs:    351362 ave 353227 max 349497 min
Histogram: 1 0 0 0 0 0 0 0 0 1

Total # of neighbors = 702724
Ave neighs/atom = 35.7584
Neighbor list builds = 9505
Dangerous builds not checked
Setting up Verlet run ...
  Unit style    : metal
  Current step  : 240000
  Time step     : 0.001
Per MPI rank memory allocation (min/avg/max) = 11.29 | 11.29 | 11.29 Mbytes
Step Temp Press TotEng PotEng Enthalpy 
  240000    1447.1703   -686.70935   -75279.553   -78955.498   -75569.237 
  240495    1416.3801   -739.09458   -75457.387   -79055.121   -75768.957 
Loop time of 27.2752 on 2 procs for 495 steps with 19652 atoms

Performance: 1.568 ns/day, 15.306 hours/ns, 18.148 timesteps/s
99.8% CPU use with 2 MPI tasks x no OpenMP threads

MPI task timing breakdown:
Section |  min time  |  avg time  |  max time  |%varavg| %total
---------------------------------------------------------------
Pair    | 13.289     | 13.81      | 14.331     |  14.0 | 50.63
Neigh   | 10.811     | 11.274     | 11.737     |  13.8 | 41.34
Comm    | 0.63456    | 1.6408     | 2.6471     |  78.6 |  6.02
Output  | 9.1076e-05 | 0.00012505 | 0.00015903 |   0.0 |  0.00
Modify  | 0.42061    | 0.44016    | 0.45971    |   2.9 |  1.61
Other   |            | 0.1101     |            |       |  0.40

Nlocal:    9826 ave 9847 max 9805 min
Histogram: 1 0 0 0 0 0 0 0 0 1
Nghost:    9641.5 ave 9644 max 9639 min
Histogram: 1 0 0 0 0 0 0 0 0 1
Neighs:    351582 ave 352936 max 350228 min
Histogram: 1 0 0 0 0 0 0 0 0 1

Total # of neighbors = 703164
Ave neighs/atom = 35.7808
Neighbor list builds = 495
Dangerous builds not checked
Setting up Verlet run ...
  Unit style    : metal
  Current step  : 240495
  Time step     : 0.001
Per MPI rank memory allocation (min/avg/max) = 11.29 | 11.29 | 11.29 Mbytes
Step Temp Press TotEng PotEng Enthalpy 
  240495    1416.3801   -739.09458   -75457.387   -79055.121   -75768.957 
  250000    1403.0925   -357.97754   -75571.484   -79135.467    -75722.12 
Loop time of 545.422 on 2 procs for 9505 steps with 19652 atoms

Performance: 1.506 ns/day, 15.940 hours/ns, 17.427 timesteps/s
98.9% CPU use with 2 MPI tasks x no OpenMP threads

MPI task timing breakdown:
Section |  min time  |  avg time  |  max time  |%varavg| %total
---------------------------------------------------------------
Pair    | 274.63     | 280.4      | 286.17     |  34.5 | 51.41
Neigh   | 225.95     | 228.94     | 231.93     |  19.8 | 41.97
Comm    | 16.036     | 25.03      | 34.025     | 179.8 |  4.59
Output  | 0.23526    | 0.23529    | 0.23531    |   0.0 |  0.04
Modify  | 8.4772     | 8.6113     | 8.7454     |   4.6 |  1.58
Other   |            | 2.208      |            |       |  0.40

Nlocal:    9826 ave 9827 max 9825 min
Histogram: 1 0 0 0 0 0 0 0 0 1
Nghost:    9628 ave 9635 max 9621 min
Histogram: 1 0 0 0 0 0 0 0 0 1
Neighs:    351552 ave 351939 max 351164 min
Histogram: 1 0 0 0 0 0 0 0 0 1

Total # of neighbors = 703103
Ave neighs/atom = 35.7777
Neighbor list builds = 9505
Dangerous builds not checked
Setting up Verlet run ...
  Unit style    : metal
  Current step  : 250000
  Time step     : 0.001
Per MPI rank memory allocation (min/avg/max) = 11.29 | 11.29 | 11.29 Mbytes
Step Temp Press TotEng PotEng Enthalpy 
  250000    1403.0925   -357.97754   -75571.484   -79135.467    -75722.12 
  250495    1359.6218    33.104466    -75816.65   -79270.213   -75802.751 
Loop time of 28.6536 on 2 procs for 495 steps with 19652 atoms

Performance: 1.493 ns/day, 16.079 hours/ns, 17.275 timesteps/s
98.3% CPU use with 2 MPI tasks x no OpenMP threads

MPI task timing breakdown:
Section |  min time  |  avg time  |  max time  |%varavg| %total
---------------------------------------------------------------
Pair    | 13.977     | 14.547     | 15.117     |  14.9 | 50.77
Neigh   | 11.559     | 11.903     | 12.246     |  10.0 | 41.54
Comm    | 0.71299    | 1.6477     | 2.5824     |  72.8 |  5.75
Output  | 8.297e-05  | 0.00011289 | 0.00014281 |   0.0 |  0.00
Modify  | 0.43002    | 0.44265    | 0.45527    |   1.9 |  1.54
Other   |            | 0.1135     |            |       |  0.40

Nlocal:    9826 ave 9832 max 9820 min
Histogram: 1 0 0 0 0 0 0 0 0 1
Nghost:    9601.5 ave 9605 max 9598 min
Histogram: 1 0 0 0 0 0 0 0 0 1
Neighs:    352162 ave 352732 max 351591 min
Histogram: 1 0 0 0 0 0 0 0 0 1

Total # of neighbors = 704323
Ave neighs/atom = 35.8398
Neighbor list builds = 495
Dangerous builds not checked
Setting up Verlet run ...
  Unit style    : metal
  Current step  : 250495
  Time step     : 0.001
Per MPI rank memory allocation (min/avg/max) = 11.29 | 11.29 | 11.29 Mbytes
Step Temp Press TotEng PotEng Enthalpy 
  250495    1359.6218    33.104466    -75816.65   -79270.213   -75802.751 
  260000    1372.1433    125.91914   -75899.776   -79385.145   -75847.013 
Loop time of 555.997 on 2 procs for 9505 steps with 19652 atoms

Performance: 1.477 ns/day, 16.249 hours/ns, 17.095 timesteps/s
98.1% CPU use with 2 MPI tasks x no OpenMP threads

MPI task timing breakdown:
Section |  min time  |  avg time  |  max time  |%varavg| %total
---------------------------------------------------------------
Pair    | 283.34     | 285.05     | 286.76     |  10.1 | 51.27
Neigh   | 227.63     | 229.67     | 231.71     |  13.5 | 41.31
Comm    | 26.683     | 30.511     | 34.338     |  69.3 |  5.49
Output  | 0.061935   | 0.061959   | 0.061984   |   0.0 |  0.01
Modify  | 8.55       | 8.5535     | 8.5569     |   0.1 |  1.54
Other   |            | 2.149      |            |       |  0.39

Nlocal:    9826 ave 9845 max 9807 min
Histogram: 1 0 0 0 0 0 0 0 0 1
Nghost:    9624.5 ave 9633 max 9616 min
Histogram: 1 0 0 0 0 0 0 0 0 1
Neighs:    352882 ave 353983 max 351780 min
Histogram: 1 0 0 0 0 0 0 0 0 1

Total # of neighbors = 705763
Ave neighs/atom = 35.913
Neighbor list builds = 9505
Dangerous builds not checked
Setting up Verlet run ...
  Unit style    : metal
  Current step  : 260000
  Time step     : 0.001
Per MPI rank memory allocation (min/avg/max) = 11.29 | 11.29 | 11.29 Mbytes
Step Temp Press TotEng PotEng Enthalpy 
  260000    1372.1433    125.91914   -75899.776   -79385.145   -75847.013 
  260495    1323.8852    263.89515   -76121.058   -79483.846   -76010.596 
Loop time of 26.8754 on 2 procs for 495 steps with 19652 atoms

Performance: 1.591 ns/day, 15.082 hours/ns, 18.418 timesteps/s
99.9% CPU use with 2 MPI tasks x no OpenMP threads

MPI task timing breakdown:
Section |  min time  |  avg time  |  max time  |%varavg| %total
---------------------------------------------------------------
Pair    | 13.577     | 13.687     | 13.797     |   3.0 | 50.93
Neigh   | 11.729     | 11.755     | 11.781     |   0.8 | 43.74
Comm    | 0.80258    | 0.89979    | 0.99699    |  10.2 |  3.35
Output  | 7.2956e-05 | 0.0001055  | 0.00013804 |   0.0 |  0.00
Modify  | 0.41041    | 0.42066    | 0.43091    |   1.6 |  1.57
Other   |            | 0.1127     |            |       |  0.42

Nlocal:    9826 ave 9837 max 9815 min
Histogram: 1 0 0 0 0 0 0 0 0 1
Nghost:    9650.5 ave 9678 max 9623 min
Histogram: 1 0 0 0 0 0 0 0 0 1
Neighs:    352848 ave 353587 max 352110 min
Histogram: 1 0 0 0 0 0 0 0 0 1

Total # of neighbors = 705697
Ave neighs/atom = 35.9097
Neighbor list builds = 495
Dangerous builds not checked
Setting up Verlet run ...
  Unit style    : metal
  Current step  : 260495
  Time step     : 0.001
Per MPI rank memory allocation (min/avg/max) = 11.29 | 11.29 | 11.29 Mbytes
Step Temp Press TotEng PotEng Enthalpy 
  260495    1323.8852    263.89515   -76121.058   -79483.846   -76010.596 
  270000    1309.0781    468.01524   -76262.125   -79587.303   -76066.587 
Loop time of 520.942 on 2 procs for 9505 steps with 19652 atoms

Performance: 1.576 ns/day, 15.224 hours/ns, 18.246 timesteps/s
99.1% CPU use with 2 MPI tasks x no OpenMP threads

MPI task timing breakdown:
Section |  min time  |  avg time  |  max time  |%varavg| %total
---------------------------------------------------------------
Pair    | 260.97     | 263.54     | 266.11     |  15.8 | 50.59
Neigh   | 227.06     | 227.49     | 227.92     |   2.9 | 43.67
Comm    | 16.606     | 19.649     | 22.691     |  68.6 |  3.77
Output  | 0.076844   | 0.076867   | 0.076891   |   0.0 |  0.01
Modify  | 8.0292     | 8.0406     | 8.052      |   0.4 |  1.54
Other   |            | 2.147      |            |       |  0.41

Nlocal:    9826 ave 9834 max 9818 min
Histogram: 1 0 0 0 0 0 0 0 0 1
Nghost:    9612.5 ave 9618 max 9607 min
Histogram: 1 0 0 0 0 0 0 0 0 1
Neighs:    353040 ave 353151 max 352930 min
Histogram: 1 0 0 0 0 0 0 0 0 1

Total # of neighbors = 706081
Ave neighs/atom = 35.9292
Neighbor list builds = 9505
Dangerous builds not checked
Setting up Verlet run ...
  Unit style    : metal
  Current step  : 270000
  Time step     : 0.001
Per MPI rank memory allocation (min/avg/max) = 11.29 | 11.29 | 11.29 Mbytes
Step Temp Press TotEng PotEng Enthalpy 
  270000    1309.0781    468.01524   -76262.125   -79587.303   -76066.587 
  270495     1276.124    444.22292   -76480.812   -79722.283   -76295.497 
Loop time of 27.0337 on 2 procs for 495 steps with 19652 atoms

Performance: 1.582 ns/day, 15.170 hours/ns, 18.310 timesteps/s
99.1% CPU use with 2 MPI tasks x no OpenMP threads

MPI task timing breakdown:
Section |  min time  |  avg time  |  max time  |%varavg| %total
---------------------------------------------------------------
Pair    | 13.612     | 13.706     | 13.8       |   2.5 | 50.70
Neigh   | 11.616     | 11.864     | 12.112     |   7.2 | 43.89
Comm    | 0.75989    | 0.93833    | 1.1168     |  18.4 |  3.47
Output  | 8.893e-05  | 0.00014198 | 0.00019503 |   0.0 |  0.00
Modify  | 0.39435    | 0.41414    | 0.43392    |   3.1 |  1.53
Other   |            | 0.1113     |            |       |  0.41

Nlocal:    9826 ave 9828 max 9824 min
Histogram: 1 0 0 0 0 0 0 0 0 1
Nghost:    9649 ave 9665 max 9633 min
Histogram: 1 0 0 0 0 0 0 0 0 1
Neighs:    353296 ave 353669 max 352923 min
Histogram: 1 0 0 0 0 0 0 0 0 1

Total # of neighbors = 706592
Ave neighs/atom = 35.9552
Neighbor list builds = 495
Dangerous builds not checked
Setting up Verlet run ...
  Unit style    : metal
  Current step  : 270495
  Time step     : 0.001
Per MPI rank memory allocation (min/avg/max) = 11.29 | 11.29 | 11.29 Mbytes
Step Temp Press TotEng PotEng Enthalpy 
  270495     1276.124    444.22292   -76480.812   -79722.283   -76295.497 
  280000    1252.7755   -496.99819    -76625.16   -79807.324   -76832.893 
Loop time of 548.676 on 2 procs for 9505 steps with 19652 atoms

Performance: 1.497 ns/day, 16.035 hours/ns, 17.324 timesteps/s
97.5% CPU use with 2 MPI tasks x no OpenMP threads

MPI task timing breakdown:
Section |  min time  |  avg time  |  max time  |%varavg| %total
---------------------------------------------------------------
Pair    | 273.18     | 278.56     | 283.94     |  32.2 | 50.77
Neigh   | 222.26     | 228.75     | 235.25     |  43.0 | 41.69
Comm    | 18.222     | 30.414     | 42.605     | 221.1 |  5.54
Output  | 0.084947   | 0.084956   | 0.084966   |   0.0 |  0.02
Modify  | 8.5265     | 8.7313     | 8.9361     |   6.9 |  1.59
Other   |            | 2.135      |            |       |  0.39

Nlocal:    9826 ave 9827 max 9825 min
Histogram: 1 0 0 0 0 0 0 0 0 1
Nghost:    9637.5 ave 9641 max 9634 min
Histogram: 1 0 0 0 0 0 0 0 0 1
Neighs:    352340 ave 352490 max 352190 min
Histogram: 1 0 0 0 0 0 0 0 0 1

Total # of neighbors = 704680
Ave neighs/atom = 35.8579
Neighbor list builds = 9505
Dangerous builds not checked
Setting up Verlet run ...
  Unit style    : metal
  Current step  : 280000
  Time step     : 0.001
Per MPI rank memory allocation (min/avg/max) = 11.29 | 11.29 | 11.29 Mbytes
Step Temp Press TotEng PotEng Enthalpy 
  280000    1252.7755   -496.99819    -76625.16   -79807.324   -76832.893 
  280495    1216.8467   -137.76535   -76826.581   -79917.483   -76884.033 
Loop time of 23.4419 on 2 procs for 495 steps with 19652 atoms

Performance: 1.824 ns/day, 13.155 hours/ns, 21.116 timesteps/s
100.0% CPU use with 2 MPI tasks x no OpenMP threads

MPI task timing breakdown:
Section |  min time  |  avg time  |  max time  |%varavg| %total
---------------------------------------------------------------
Pair    | 11.276     | 11.473     | 11.669     |   5.8 | 48.94
Neigh   | 10.819     | 10.952     | 11.086     |   4.0 | 46.72
Comm    | 0.49683    | 0.54295    | 0.58908    |   6.3 |  2.32
Output  | 6.6042e-05 | 0.00010502 | 0.000144   |   0.0 |  0.00
Modify  | 0.36574    | 0.37852    | 0.39129    |   2.1 |  1.61
Other   |            | 0.0954     |            |       |  0.41

Nlocal:    9826 ave 9839 max 9813 min
Histogram: 1 0 0 0 0 0 0 0 0 1
Nghost:    9661 ave 9670 max 9652 min
Histogram: 1 0 0 0 0 0 0 0 0 1
Neighs:    353068 ave 353712 max 352425 min
Histogram: 1 0 0 0 0 0 0 0 0 1

Total # of neighbors = 706137
Ave neighs/atom = 35.9321
Neighbor list builds = 495
Dangerous builds not checked
Setting up Verlet run ...
  Unit style    : metal
  Current step  : 280495
  Time step     : 0.001
Per MPI rank memory allocation (min/avg/max) = 11.29 | 11.29 | 11.29 Mbytes
Step Temp Press TotEng PotEng Enthalpy 
  280495    1216.8467   -137.76535   -76826.581   -79917.483   -76884.033 
  290000    1209.3222    501.35081   -76923.561   -79995.349   -76714.984 
Loop time of 530.955 on 2 procs for 9505 steps with 19652 atoms

Performance: 1.547 ns/day, 15.517 hours/ns, 17.902 timesteps/s
99.4% CPU use with 2 MPI tasks x no OpenMP threads

MPI task timing breakdown:
Section |  min time  |  avg time  |  max time  |%varavg| %total
---------------------------------------------------------------
Pair    | 268.44     | 269.72     | 271        |   7.8 | 50.80
Neigh   | 224.51     | 227.38     | 230.26     |  19.1 | 42.83
Comm    | 21.502     | 23.154     | 24.806     |  34.3 |  4.36
Output  | 0.057417   | 0.057441   | 0.057466   |   0.0 |  0.01
Modify  | 8.4889     | 8.489      | 8.4892     |   0.0 |  1.60
Other   |            | 2.156      |            |       |  0.41

Nlocal:    9826 ave 9828 max 9824 min
Histogram: 1 0 0 0 0 0 0 0 0 1
Nghost:    9690 ave 9696 max 9684 min
Histogram: 1 0 0 0 0 0 0 0 0 1
Neighs:    353798 ave 353892 max 353703 min
Histogram: 1 0 0 0 0 0 0 0 0 1

Total # of neighbors = 707595
Ave neighs/atom = 36.0063
Neighbor list builds = 9505
Dangerous builds not checked
Setting up Verlet run ...
  Unit style    : metal
  Current step  : 290000
  Time step     : 0.001
Per MPI rank memory allocation (min/avg/max) = 11.29 | 11.29 | 11.29 Mbytes
Step Temp Press TotEng PotEng Enthalpy 
  290000    1209.3222    501.35081   -76923.561   -79995.349   -76714.984 
  290495    1169.0883    129.29897   -77164.027   -80133.618   -77110.273 
Loop time of 29.2615 on 2 procs for 495 steps with 19652 atoms

Performance: 1.462 ns/day, 16.421 hours/ns, 16.916 timesteps/s
98.8% CPU use with 2 MPI tasks x no OpenMP threads

MPI task timing breakdown:
Section |  min time  |  avg time  |  max time  |%varavg| %total
---------------------------------------------------------------
Pair    | 15.843     | 15.885     | 15.926     |   1.0 | 54.28
Neigh   | 11.803     | 11.951     | 12.099     |   4.3 | 40.84
Comm    | 0.69404    | 0.80379    | 0.91353    |  12.2 |  2.75
Output  | 8.3923e-05 | 0.00011837 | 0.00015283 |   0.0 |  0.00
Modify  | 0.48607    | 0.49365    | 0.50124    |   1.1 |  1.69
Other   |            | 0.1286     |            |       |  0.44

Nlocal:    9826 ave 9848 max 9804 min
Histogram: 1 0 0 0 0 0 0 0 0 1
Nghost:    9669.5 ave 9683 max 9656 min
Histogram: 1 0 0 0 0 0 0 0 0 1
Neighs:    353626 ave 355166 max 352087 min
Histogram: 1 0 0 0 0 0 0 0 0 1

Total # of neighbors = 707253
Ave neighs/atom = 35.9889
Neighbor list builds = 495
Dangerous builds not checked
Setting up Verlet run ...
  Unit style    : metal
  Current step  : 290495
  Time step     : 0.001
Per MPI rank memory allocation (min/avg/max) = 11.29 | 11.29 | 11.29 Mbytes
Step Temp Press TotEng PotEng Enthalpy 
  290495    1169.0883    129.29897   -77164.027   -80133.618   -77110.273 
  300000    1145.4773      372.167   -77321.128   -80230.745   -77166.613 
Loop time of 527.96 on 2 procs for 9505 steps with 19652 atoms

Performance: 1.555 ns/day, 15.429 hours/ns, 18.003 timesteps/s
99.3% CPU use with 2 MPI tasks x no OpenMP threads

MPI task timing breakdown:
Section |  min time  |  avg time  |  max time  |%varavg| %total
---------------------------------------------------------------
Pair    | 261.65     | 268.01     | 274.37     |  38.8 | 50.76
Neigh   | 224.14     | 224.27     | 224.4      |   0.9 | 42.48
Comm    | 18.372     | 24.857     | 31.341     | 130.1 |  4.71
Output  | 0.059152   | 0.059176   | 0.059201   |   0.0 |  0.01
Modify  | 8.3838     | 8.5748     | 8.7658     |   6.5 |  1.62
Other   |            | 2.189      |            |       |  0.41

Nlocal:    9826 ave 9830 max 9822 min
Histogram: 1 0 0 0 0 0 0 0 0 1
Nghost:    9699 ave 9706 max 9692 min
Histogram: 1 0 0 0 0 0 0 0 0 1
Neighs:    353674 ave 353815 max 353534 min
Histogram: 1 0 0 0 0 0 0 0 0 1

Total # of neighbors = 707349
Ave neighs/atom = 35.9937
Neighbor list builds = 9505
Dangerous builds not checked
Setting up Verlet run ...
  Unit style    : metal
  Current step  : 300000
  Time step     : 0.001
Per MPI rank memory allocation (min/avg/max) = 11.29 | 11.29 | 11.29 Mbytes
Step Temp Press TotEng PotEng Enthalpy 
  300000    1145.4773      372.167   -77321.128   -80230.745   -77166.613 
  300495    1115.5804     36.19187   -77532.465   -80366.141   -77517.456 
Loop time of 28.4211 on 2 procs for 495 steps with 19652 atoms

[...]
Histogram: 1 0 0 0 0 0 0 0 0 1
Nghost:    9787.5 ave 9794 max 9781 min
Histogram: 1 0 0 0 0 0 0 0 0 1
Neighs:    354012 ave 354334 max 353689 min
Histogram: 1 0 0 0 0 0 0 0 0 1

Total # of neighbors = 708023
Ave neighs/atom = 36.028
Neighbor list builds = 9505
Dangerous builds not checked
Setting up Verlet run ...
  Unit style    : metal
  Current step  : 440000
  Time step     : 0.001
Per MPI rank memory allocation (min/avg/max) = 11.29 | 11.29 | 11.29 Mbytes
Step Temp Press TotEng PotEng Enthalpy 
  440000     444.5631    257.67712   -82141.441   -83270.672   -82038.102 
  440495    420.15235    304.10934   -82283.407   -83350.632   -82161.611 
Loop time of 27.0903 on 2 procs for 495 steps with 19652 atoms

Performance: 1.579 ns/day, 15.202 hours/ns, 18.272 timesteps/s
99.1% CPU use with 2 MPI tasks x no OpenMP threads

MPI task timing breakdown:
Section |  min time  |  avg time  |  max time  |%varavg| %total
---------------------------------------------------------------
Pair    | 13.936     | 13.999     | 14.062     |   1.7 | 51.67
Neigh   | 11.29      | 11.293     | 11.295     |   0.1 | 41.69
Comm    | 1.1612     | 1.2345     | 1.3078     |   6.6 |  4.56
Output  | 8.5831e-05 | 0.00010991 | 0.00013399 |   0.0 |  0.00
Modify  | 0.44284    | 0.4532     | 0.46355    |   1.5 |  1.67
Other   |            | 0.1107     |            |       |  0.41

Nlocal:    9826 ave 9839 max 9813 min
Histogram: 1 0 0 0 0 0 0 0 0 1
Nghost:    9811.5 ave 9820 max 9803 min
Histogram: 1 0 0 0 0 0 0 0 0 1
Neighs:    354166 ave 355023 max 353310 min
Histogram: 1 0 0 0 0 0 0 0 0 1

Total # of neighbors = 708333
Ave neighs/atom = 36.0438
Neighbor list builds = 495
Dangerous builds not checked
Setting up Verlet run ...
  Unit style    : metal
  Current step  : 440495
  Time step     : 0.001
Per MPI rank memory allocation (min/avg/max) = 11.29 | 11.29 | 11.29 Mbytes
Step Temp Press TotEng PotEng Enthalpy 
  440495    420.15235    304.10934   -82283.407   -83350.632   -82161.611 
  450000    401.37313    396.71111   -82407.609   -83427.133   -82248.903 
Loop time of 503.085 on 2 procs for 9505 steps with 19652 atoms

Performance: 1.632 ns/day, 14.702 hours/ns, 18.893 timesteps/s
99.2% CPU use with 2 MPI tasks x no OpenMP threads

MPI task timing breakdown:
Section |  min time  |  avg time  |  max time  |%varavg| %total
---------------------------------------------------------------
Pair    | 250.65     | 254.89     | 259.13     |  26.6 | 50.67
Neigh   | 204.15     | 211.21     | 218.26     |  48.6 | 41.98
Comm    | 15.349     | 26.943     | 38.538     | 223.4 |  5.36
Output  | 0.058071   | 0.058087   | 0.058102   |   0.0 |  0.01
Modify  | 7.837      | 7.9847     | 8.1325     |   5.2 |  1.59
Other   |            | 2.001      |            |       |  0.40

Nlocal:    9826 ave 9837 max 9815 min
Histogram: 1 0 0 0 0 0 0 0 0 1
Nghost:    9815 ave 9825 max 9805 min
Histogram: 1 0 0 0 0 0 0 0 0 1
Neighs:    354208 ave 355268 max 353147 min
Histogram: 1 0 0 0 0 0 0 0 0 1

Total # of neighbors = 708415
Ave neighs/atom = 36.048
Neighbor list builds = 9505
Dangerous builds not checked
Setting up Verlet run ...
  Unit style    : metal
  Current step  : 450000
  Time step     : 0.001
Per MPI rank memory allocation (min/avg/max) = 11.29 | 11.29 | 11.29 Mbytes
Step Temp Press TotEng PotEng Enthalpy 
  450000    401.37313    396.71111   -82407.609   -83427.133   -82248.903 
  450495    372.73129    173.96335   -82556.527   -83503.299   -82486.966 
Loop time of 26.0458 on 2 procs for 495 steps with 19652 atoms

Performance: 1.642 ns/day, 14.616 hours/ns, 19.005 timesteps/s
99.2% CPU use with 2 MPI tasks x no OpenMP threads

MPI task timing breakdown:
Section |  min time  |  avg time  |  max time  |%varavg| %total
---------------------------------------------------------------
Pair    | 12.748     | 13.157     | 13.566     |  11.3 | 50.52
Neigh   | 10.848     | 11.075     | 11.302     |   6.8 | 42.52
Comm    | 0.65161    | 1.2887     | 1.9257     |  56.1 |  4.95
Output  | 9.799e-05  | 0.00013351 | 0.00016904 |   0.0 |  0.00
Modify  | 0.41774    | 0.42109    | 0.42444    |   0.5 |  1.62
Other   |            | 0.104      |            |       |  0.40

Nlocal:    9826 ave 9838 max 9814 min
Histogram: 1 0 0 0 0 0 0 0 0 1
Nghost:    9800 ave 9809 max 9791 min
Histogram: 1 0 0 0 0 0 0 0 0 1
Neighs:    354076 ave 355708 max 352443 min
Histogram: 1 0 0 0 0 0 0 0 0 1

Total # of neighbors = 708151
Ave neighs/atom = 36.0346
Neighbor list builds = 495
Dangerous builds not checked
Setting up Verlet run ...
  Unit style    : metal
  Current step  : 450495
  Time step     : 0.001
Per MPI rank memory allocation (min/avg/max) = 11.29 | 11.29 | 11.29 Mbytes
Step Temp Press TotEng PotEng Enthalpy 
  450495    372.73129    173.96335   -82556.527   -83503.299   -82486.966 
  460000    349.47132    -61.46526   -82680.055   -83567.744   -82704.625 
Loop time of 521.719 on 2 procs for 9505 steps with 19652 atoms

Performance: 1.574 ns/day, 15.247 hours/ns, 18.219 timesteps/s
97.5% CPU use with 2 MPI tasks x no OpenMP threads

MPI task timing breakdown:
Section |  min time  |  avg time  |  max time  |%varavg| %total
---------------------------------------------------------------
Pair    | 251.81     | 258.86     | 265.91     |  43.8 | 49.62
Neigh   | 204.47     | 210.58     | 216.69     |  42.1 | 40.36
Comm    | 16.247     | 29.687     | 43.127     | 246.7 |  5.69
Output  | 0.15695    | 0.15697    | 0.15699    |   0.0 |  0.03
Modify  | 20.284     | 20.433     | 20.583     |   3.3 |  3.92
Other   |            | 2.003      |            |       |  0.38

Nlocal:    9826 ave 9843 max 9809 min
Histogram: 1 0 0 0 0 0 0 0 0 1
Nghost:    9791 ave 9796 max 9786 min
Histogram: 1 0 0 0 0 0 0 0 0 1
Neighs:    353686 ave 354806 max 352565 min
Histogram: 1 0 0 0 0 0 0 0 0 1

Total # of neighbors = 707371
Ave neighs/atom = 35.9949
Neighbor list builds = 9505
Dangerous builds not checked
Setting up Verlet run ...
  Unit style    : metal
  Current step  : 460000
  Time step     : 0.001
Per MPI rank memory allocation (min/avg/max) = 11.29 | 11.29 | 11.29 Mbytes
Step Temp Press TotEng PotEng Enthalpy 
  460000    349.47132    -61.46526   -82680.055   -83567.744   -82704.625 
  460495     322.6039    36.950909   -82828.233   -83647.676   -82813.483 
Loop time of 25.4187 on 2 procs for 495 steps with 19652 atoms

Performance: 1.683 ns/day, 14.264 hours/ns, 19.474 timesteps/s
97.9% CPU use with 2 MPI tasks x no OpenMP threads

MPI task timing breakdown:
Section |  min time  |  avg time  |  max time  |%varavg| %total
---------------------------------------------------------------
Pair    | 12.595     | 12.705     | 12.816     |   3.1 | 49.98
Neigh   | 9.9177     | 10.609     | 11.3       |  21.2 | 41.74
Comm    | 0.77993    | 1.6052     | 2.4305     |  65.1 |  6.32
Output  | 8.0109e-05 | 0.00010157 | 0.00012302 |   0.0 |  0.00
Modify  | 0.38058    | 0.39661    | 0.41265    |   2.5 |  1.56
Other   |            | 0.1028     |            |       |  0.40

Nlocal:    9826 ave 9831 max 9821 min
Histogram: 1 0 0 0 0 0 0 0 0 1
Nghost:    9815.5 ave 9822 max 9809 min
Histogram: 1 0 0 0 0 0 0 0 0 1
Neighs:    353948 ave 354706 max 353189 min
Histogram: 1 0 0 0 0 0 0 0 0 1

Total # of neighbors = 707895
Ave neighs/atom = 36.0215
Neighbor list builds = 495
Dangerous builds not checked
Setting up Verlet run ...
  Unit style    : metal
  Current step  : 460495
  Time step     : 0.001
Per MPI rank memory allocation (min/avg/max) = 11.29 | 11.29 | 11.29 Mbytes
Step Temp Press TotEng PotEng Enthalpy 
  460495     322.6039    36.950909   -82828.233   -83647.676   -82813.483 
  470000    301.09036   -161.04536   -82957.134   -83721.931   -83021.401 
Loop time of 545.896 on 2 procs for 9505 steps with 19652 atoms

Performance: 1.504 ns/day, 15.953 hours/ns, 17.412 timesteps/s
95.5% CPU use with 2 MPI tasks x no OpenMP threads

MPI task timing breakdown:
Section |  min time  |  avg time  |  max time  |%varavg| %total
---------------------------------------------------------------
Pair    | 246.98     | 255.48     | 263.97     |  53.1 | 46.80
Neigh   | 190.15     | 202.96     | 215.76     |  89.9 | 37.18
Comm    | 46.578     | 68.568     | 90.558     | 265.6 | 12.56
Output  | 0.10681    | 0.10683    | 0.10685    |   0.0 |  0.02
Modify  | 16.453     | 16.866     | 17.28      |  10.1 |  3.09
Other   |            | 1.92       |            |       |  0.35

Nlocal:    9826 ave 9838 max 9814 min
Histogram: 1 0 0 0 0 0 0 0 0 1
Nghost:    9805.5 ave 9806 max 9805 min
Histogram: 1 0 0 0 0 0 0 0 0 1
Neighs:    353904 ave 354899 max 352910 min
Histogram: 1 0 0 0 0 0 0 0 0 1

Total # of neighbors = 707809
Ave neighs/atom = 36.0171
Neighbor list builds = 9505
Dangerous builds not checked
Setting up Verlet run ...
  Unit style    : metal
  Current step  : 470000
  Time step     : 0.001
Per MPI rank memory allocation (min/avg/max) = 11.29 | 11.29 | 11.29 Mbytes
Step Temp Press TotEng PotEng Enthalpy 
  470000    301.09036   -161.04536   -82957.134   -83721.931   -83021.401 
  470495    271.24372    205.60615   -83092.872   -83781.855   -83010.977 
Loop time of 24.5088 on 2 procs for 495 steps with 19652 atoms

Performance: 1.745 ns/day, 13.754 hours/ns, 20.197 timesteps/s
99.5% CPU use with 2 MPI tasks x no OpenMP threads

MPI task timing breakdown:
Section |  min time  |  avg time  |  max time  |%varavg| %total
---------------------------------------------------------------
Pair    | 12.148     | 12.259     | 12.369     |   3.2 | 50.02
Neigh   | 10.511     | 10.656     | 10.802     |   4.5 | 43.48
Comm    | 0.83492    | 1.0973     | 1.3596     |  25.0 |  4.48
Output  | 6.6042e-05 | 0.0001061  | 0.00014615 |   0.0 |  0.00
Modify  | 0.39418    | 0.39445    | 0.39472    |   0.0 |  1.61
Other   |            | 0.1021     |            |       |  0.42

Nlocal:    9826 ave 9837 max 9815 min
Histogram: 1 0 0 0 0 0 0 0 0 1
Nghost:    9818.5 ave 9828 max 9809 min
Histogram: 1 0 0 0 0 0 0 0 0 1
Neighs:    354286 ave 355111 max 353461 min
Histogram: 1 0 0 0 0 0 0 0 0 1

Total # of neighbors = 708572
Ave neighs/atom = 36.056
Neighbor list builds = 495
Dangerous builds not checked
Setting up Verlet run ...
  Unit style    : metal
  Current step  : 470495
  Time step     : 0.001
Per MPI rank memory allocation (min/avg/max) = 11.29 | 11.29 | 11.29 Mbytes
Step Temp Press TotEng PotEng Enthalpy 
  470495    271.24372    205.60615   -83092.872   -83781.855   -83010.977 
  480000    252.09339    201.42881   -83212.068   -83852.408   -83131.901 
Loop time of 491.626 on 2 procs for 9505 steps with 19652 atoms

Performance: 1.670 ns/day, 14.367 hours/ns, 19.334 timesteps/s
99.4% CPU use with 2 MPI tasks x no OpenMP threads

MPI task timing breakdown:
Section |  min time  |  avg time  |  max time  |%varavg| %total
---------------------------------------------------------------
Pair    | 243.56     | 249.71     | 255.86     |  38.9 | 50.79
Neigh   | 200.36     | 203.86     | 207.36     |  24.5 | 41.47
Comm    | 18.393     | 28.28      | 38.168     | 185.9 |  5.75
Output  | 0.17637    | 0.1764     | 0.17642    |   0.0 |  0.04
Modify  | 7.5479     | 7.6724     | 7.797      |   4.5 |  1.56
Other   |            | 1.931      |            |       |  0.39

Nlocal:    9826 ave 9837 max 9815 min
Histogram: 1 0 0 0 0 0 0 0 0 1
Nghost:    9822 ave 9827 max 9817 min
Histogram: 1 0 0 0 0 0 0 0 0 1
Neighs:    354404 ave 355591 max 353218 min
Histogram: 1 0 0 0 0 0 0 0 0 1

Total # of neighbors = 708809
Ave neighs/atom = 36.068
Neighbor list builds = 9505
Dangerous builds not checked
Setting up Verlet run ...
  Unit style    : metal
  Current step  : 480000
  Time step     : 0.001
Per MPI rank memory allocation (min/avg/max) = 11.29 | 11.29 | 11.29 Mbytes
Step Temp Press TotEng PotEng Enthalpy 
  480000    252.09339    201.42881   -83212.068   -83852.408   -83131.901 
  480495    224.81994   -76.855096    -83349.93   -83920.993   -83380.506 
Loop time of 25.3792 on 2 procs for 495 steps with 19652 atoms

Performance: 1.685 ns/day, 14.242 hours/ns, 19.504 timesteps/s
98.0% CPU use with 2 MPI tasks x no OpenMP threads

MPI task timing breakdown:
Section |  min time  |  avg time  |  max time  |%varavg| %total
---------------------------------------------------------------
Pair    | 12.6       | 12.691     | 12.782     |   2.6 | 50.01
Neigh   | 10.253     | 10.289     | 10.325     |   1.1 | 40.54
Comm    | 1.7891     | 1.9225     | 2.0559     |   9.6 |  7.58
Output  | 7.6056e-05 | 8.8096e-05 | 0.00010014 |   0.0 |  0.00
Modify  | 0.37157    | 0.37612    | 0.38067    |   0.7 |  1.48
Other   |            | 0.1005     |            |       |  0.40

Nlocal:    9826 ave 9840 max 9812 min
Histogram: 1 0 0 0 0 0 0 0 0 1
Nghost:    9811 ave 9820 max 9802 min
Histogram: 1 0 0 0 0 0 0 0 0 1
Neighs:    354146 ave 355420 max 352873 min
Histogram: 1 0 0 0 0 0 0 0 0 1

Total # of neighbors = 708293
Ave neighs/atom = 36.0418
Neighbor list builds = 495
Dangerous builds not checked
Setting up Verlet run ...
  Unit style    : metal
  Current step  : 480495
  Time step     : 0.001
Per MPI rank memory allocation (min/avg/max) = 11.29 | 11.29 | 11.29 Mbytes
Step Temp Press TotEng PotEng Enthalpy 
  480495    224.81994   -76.855096    -83349.93   -83920.993   -83380.506 
  490000     202.7333    312.30836   -83474.149    -83989.11   -83350.113 
Loop time of 538.769 on 2 procs for 9505 steps with 19652 atoms

Performance: 1.524 ns/day, 15.745 hours/ns, 17.642 timesteps/s
96.2% CPU use with 2 MPI tasks x no OpenMP threads

MPI task timing breakdown:
Section |  min time  |  avg time  |  max time  |%varavg| %total
---------------------------------------------------------------
Pair    | 269.99     | 270.83     | 271.68     |   5.1 | 50.27
Neigh   | 211.78     | 211.86     | 211.94     |   0.6 | 39.32
Comm    | 44.983     | 45.753     | 46.523     |  11.4 |  8.49
Output  | 0.0591     | 0.059127   | 0.059154   |   0.0 |  0.01
Modify  | 8.1608     | 8.1652     | 8.1695     |   0.2 |  1.52
Other   |            | 2.098      |            |       |  0.39

Nlocal:    9826 ave 9831 max 9821 min
Histogram: 1 0 0 0 0 0 0 0 0 1
Nghost:    9824 ave 9829 max 9819 min
Histogram: 1 0 0 0 0 0 0 0 0 1
Neighs:    354597 ave 355331 max 353863 min
Histogram: 1 0 0 0 0 0 0 0 0 1

Total # of neighbors = 709194
Ave neighs/atom = 36.0876
Neighbor list builds = 9505
Dangerous builds not checked
Setting up Verlet run ...
  Unit style    : metal
  Current step  : 490000
  Time step     : 0.001
Per MPI rank memory allocation (min/avg/max) = 11.29 | 11.29 | 11.29 Mbytes
Step Temp Press TotEng PotEng Enthalpy 
  490000     202.7333    312.30836   -83474.149    -83989.11   -83350.113 
  490495    176.05054    288.66754   -83605.713   -84052.898   -83491.185 
Loop time of 26.9302 on 2 procs for 495 steps with 19652 atoms

Performance: 1.588 ns/day, 15.112 hours/ns, 18.381 timesteps/s
98.9% CPU use with 2 MPI tasks x no OpenMP threads

MPI task timing breakdown:
Section |  min time  |  avg time  |  max time  |%varavg| %total
---------------------------------------------------------------
Pair    | 13.533     | 13.882     | 14.232     |   9.4 | 51.55
Neigh   | 11.131     | 11.256     | 11.38      |   3.7 | 41.80
Comm    | 0.74415    | 1.2237     | 1.7032     |  43.3 |  4.54
Output  | 6.9857e-05 | 9.7394e-05 | 0.00012493 |   0.0 |  0.00
Modify  | 0.44306    | 0.44978    | 0.45649    |   1.0 |  1.67
Other   |            | 0.1183     |            |       |  0.44

Nlocal:    9826 ave 9833 max 9819 min
Histogram: 1 0 0 0 0 0 0 0 0 1
Nghost:    9838 ave 9840 max 9836 min
Histogram: 1 0 0 0 0 0 0 0 0 1
Neighs:    354619 ave 355562 max 353676 min
Histogram: 1 0 0 0 0 0 0 0 0 1

Total # of neighbors = 709238
Ave neighs/atom = 36.0899
Neighbor list builds = 495
Dangerous builds not checked
Setting up Verlet run ...
  Unit style    : metal
  Current step  : 490495
  Time step     : 0.001
Per MPI rank memory allocation (min/avg/max) = 11.29 | 11.29 | 11.29 Mbytes
Step Temp Press TotEng PotEng Enthalpy 
  490495    176.05054    288.66754   -83605.713   -84052.898   -83491.185 
  500000    149.72922   -163.36312   -83741.581   -84121.907   -83806.406 
Loop time of 513.26 on 2 procs for 9505 steps with 19652 atoms

Performance: 1.600 ns/day, 15.000 hours/ns, 18.519 timesteps/s
98.1% CPU use with 2 MPI tasks x no OpenMP threads

MPI task timing breakdown:
Section |  min time  |  avg time  |  max time  |%varavg| %total
---------------------------------------------------------------
Pair    | 266.12     | 267.15     | 268.19     |   6.4 | 52.05
Neigh   | 203.97     | 206.07     | 208.17     |  14.6 | 40.15
Comm    | 28.338     | 29.62      | 30.903     |  23.6 |  5.77
Output  | 0.057931   | 0.057943   | 0.057955   |   0.0 |  0.01
Modify  | 8.1        | 8.3141     | 8.5282     |   7.4 |  1.62
Other   |            | 2.047      |            |       |  0.40

Nlocal:    9826 ave 9828 max 9824 min
Histogram: 1 0 0 0 0 0 0 0 0 1
Nghost:    9840.5 ave 9845 max 9836 min
Histogram: 1 0 0 0 0 0 0 0 0 1
Neighs:    354169 ave 354991 max 353347 min
Histogram: 1 0 0 0 0 0 0 0 0 1

Total # of neighbors = 708338
Ave neighs/atom = 36.0441
Neighbor list builds = 9505
Dangerous builds not checked
Setting up Verlet run ...
  Unit style    : metal
  Current step  : 500000
  Time step     : 0.001
Per MPI rank memory allocation (min/avg/max) = 11.29 | 11.29 | 11.29 Mbytes
Step Temp Press TotEng PotEng Enthalpy 
  500000    149.72922   -163.36312   -83741.581   -84121.907   -83806.406 
  500495    126.07995    158.42545   -83859.543   -84179.798   -83796.775 
Loop time of 27.5185 on 2 procs for 495 steps with 19652 atoms

Performance: 1.554 ns/day, 15.442 hours/ns, 17.988 timesteps/s
96.9% CPU use with 2 MPI tasks x no OpenMP threads

MPI task timing breakdown:
Section |  min time  |  avg time  |  max time  |%varavg| %total
---------------------------------------------------------------
Pair    | 14.252     | 14.39      | 14.528     |   3.6 | 52.29
Neigh   | 10.581     | 10.634     | 10.687     |   1.6 | 38.64
Comm    | 1.8841     | 1.9697     | 2.0552     |   6.1 |  7.16
Output  | 8.893e-05  | 0.00011396 | 0.000139   |   0.0 |  0.00
Modify  | 0.41712    | 0.41847    | 0.41982    |   0.2 |  1.52
Other   |            | 0.1065     |            |       |  0.39

Nlocal:    9826 ave 9842 max 9810 min
Histogram: 1 0 0 0 0 0 0 0 0 1
Nghost:    9842.5 ave 9854 max 9831 min
Histogram: 1 0 0 0 0 0 0 0 0 1
Neighs:    354682 ave 356229 max 353136 min
Histogram: 1 0 0 0 0 0 0 0 0 1

Total # of neighbors = 709365
Ave neighs/atom = 36.0963
Neighbor list builds = 495
Dangerous builds not checked
Setting up Verlet run ...
  Unit style    : metal
  Current step  : 500495
  Time step     : 0.001
Per MPI rank memory allocation (min/avg/max) = 11.29 | 11.29 | 11.29 Mbytes
Step Temp Press TotEng PotEng Enthalpy 
  500495    126.07995    158.42545   -83859.543   -84179.798   -83796.775 
  510000    99.643888    165.84224   -84000.296   -84253.401   -83934.654 
Loop time of 565.095 on 2 procs for 9505 steps with 19652 atoms

Performance: 1.453 ns/day, 16.515 hours/ns, 16.820 timesteps/s
91.0% CPU use with 2 MPI tasks x no OpenMP threads

MPI task timing breakdown:
Section |  min time  |  avg time  |  max time  |%varavg| %total
---------------------------------------------------------------
Pair    | 282.75     | 283.5      | 284.25     |   4.5 | 50.17
Neigh   | 197.02     | 197.45     | 197.88     |   3.1 | 34.94
Comm    | 54.409     | 55.677     | 56.946     |  17.0 |  9.85
Output  | 6.9441     | 6.9441     | 6.9441     |   0.0 |  1.23
Modify  | 19.507     | 19.585     | 19.663     |   1.8 |  3.47
Other   |            | 1.944      |            |       |  0.34

Nlocal:    9826 ave 9833 max 9819 min
Histogram: 1 0 0 0 0 0 0 0 0 1
Nghost:    9846.5 ave 9858 max 9835 min
Histogram: 1 0 0 0 0 0 0 0 0 1
Neighs:    354654 ave 355637 max 353671 min
Histogram: 1 0 0 0 0 0 0 0 0 1

Total # of neighbors = 709308
Ave neighs/atom = 36.0934
Neighbor list builds = 9505
Dangerous builds not checked
Total wall time: 8:05:14
