LAMMPS (12 Dec 2018)
Lattice spacing in x,y,z = 4 4 4
Created orthogonal box = (0 0 0) to (68 68 68)
  1 by 1 by 1 MPI processor grid
Created 19652 atoms
  Time spent = 0.00392699 secs
Setting atom values ...
  19652 settings made for type/fraction
Neighbor list info ...
  update every 1 steps, delay 0 steps, check no
  max neighbors/atom: 2000, page size: 100000
  master list distance cutoff = 8.5
  ghost atom cutoff = 8.5
  binsize = 4.25, bins = 16 16 16
  1 neighbor lists, perpetual/occasional/extra = 1 0 0
  (1) pair eam/alloy, perpetual
      attributes: half, newton on
      pair build: half/bin/atomonly/newton
      stencil: half/bin/3d/newton
      bin: standard
Setting up Verlet run ...
  Unit style    : metal
  Current step  : 0
  Time step     : 0.001
Per MPI rank memory allocation (min/avg/max) = 18.19 | 18.19 | 18.19 Mbytes
Step Temp Press TotEng PotEng Enthalpy Volume 
       0          300   -186199.32   -61187.265   -61949.292   -97729.446       314432 
    1000    542.37137   -70980.655   -61187.303   -62564.976   -75117.472       314432 
Loop time of 161.559 on 1 procs for 1000 steps with 19652 atoms

Performance: 0.535 ns/day, 44.878 hours/ns, 6.190 timesteps/s
99.5% CPU use with 1 MPI tasks x no OpenMP threads

MPI task timing breakdown:
Section |  min time  |  avg time  |  max time  |%varavg| %total
---------------------------------------------------------------
Pair    | 89.637     | 89.637     | 89.637     |   0.0 | 55.48
Neigh   | 69.766     | 69.766     | 69.766     |   0.0 | 43.18
Comm    | 1.2418     | 1.2418     | 1.2418     |   0.0 |  0.77
Output  | 0.068715   | 0.068715   | 0.068715   |   0.0 |  0.04
Modify  | 0.42753    | 0.42753    | 0.42753    |   0.0 |  0.26
Other   |            | 0.4184     |            |       |  0.26

Nlocal:    19652 ave 19652 max 19652 min
Histogram: 1 0 0 0 0 0 0 0 0 0
Nghost:    19302 ave 19302 max 19302 min
Histogram: 1 0 0 0 0 0 0 0 0 0
Neighs:    1.58619e+06 ave 1.58619e+06 max 1.58619e+06 min
Histogram: 1 0 0 0 0 0 0 0 0 0

Total # of neighbors = 1586189
Ave neighs/atom = 80.7139
Neighbor list builds = 1000
Dangerous builds not checked
Setting up Verlet run ...
  Unit style    : metal
  Current step  : 1000
  Time step     : 0.001
Per MPI rank memory allocation (min/avg/max) = 18.19 | 18.19 | 18.19 Mbytes
Step Temp Press TotEng PotEng Enthalpy Volume 
    1000    542.37137   -70980.655   -61187.303   -62564.976   -75117.472       314432 
    2000    395.98651   -1920.0901   -65638.066   -66643.908   -65933.351    246394.45 
Loop time of 199.534 on 1 procs for 1000 steps with 19652 atoms

Performance: 0.433 ns/day, 55.426 hours/ns, 5.012 timesteps/s
98.0% CPU use with 1 MPI tasks x no OpenMP threads

MPI task timing breakdown:
Section |  min time  |  avg time  |  max time  |%varavg| %total
---------------------------------------------------------------
Pair    | 108.23     | 108.23     | 108.23     |   0.0 | 54.24
Neigh   | 88.243     | 88.243     | 88.243     |   0.0 | 44.22
Comm    | 1.1322     | 1.1322     | 1.1322     |   0.0 |  0.57
Output  | 0.068148   | 0.068148   | 0.068148   |   0.0 |  0.03
Modify  | 1.461      | 1.461      | 1.461      |   0.0 |  0.73
Other   |            | 0.3972     |            |       |  0.20

Nlocal:    19652 ave 19652 max 19652 min
Histogram: 1 0 0 0 0 0 0 0 0 0
Nghost:    20334 ave 20334 max 20334 min
Histogram: 1 0 0 0 0 0 0 0 0 0
Neighs:    1.99783e+06 ave 1.99783e+06 max 1.99783e+06 min
Histogram: 1 0 0 0 0 0 0 0 0 0

Total # of neighbors = 1997834
Ave neighs/atom = 101.661
Neighbor list builds = 1000
Dangerous builds not checked
Setting up Verlet run ...
  Unit style    : metal
  Current step  : 2000
  Time step     : 0.001
Per MPI rank memory allocation (min/avg/max) = 19.34 | 19.34 | 19.34 Mbytes
Step Temp Press TotEng PotEng Enthalpy Volume 
    2000    395.98651   -1920.0901   -65638.066   -66643.908   -65933.351    246394.45 
    3000    556.28127    675.28695   -65789.184   -67202.189    -65687.93    240233.58 
    4000     819.7469    672.34568   -64728.166   -66810.398   -64626.603    242021.89 
    5000    1070.7312    -1236.398   -63264.064   -65983.819   -63454.388    246629.92 
    6000    1351.0036   -1163.3684   -61516.111   -64947.783   -61699.325    252320.43 
    7000    1593.6929    1001.8737   -59289.123   -63337.248   -59125.593     261513.4 
    8000    1885.4488    430.78757   -56450.216   -61239.428   -56375.986    276073.81 
    9000    2159.1093    73.218886   -54658.454   -60142.789   -54645.467     284194.9 
   10000    2443.6246    564.84836   -53063.124   -59270.154    -52960.46    291205.72 
Loop time of 1563.26 on 1 procs for 8000 steps with 19652 atoms

Performance: 0.442 ns/day, 54.280 hours/ns, 5.118 timesteps/s
98.1% CPU use with 1 MPI tasks x no OpenMP threads

MPI task timing breakdown:
Section |  min time  |  avg time  |  max time  |%varavg| %total
---------------------------------------------------------------
Pair    | 841.87     | 841.87     | 841.87     |   0.0 | 53.85
Neigh   | 693.7      | 693.7      | 693.7      |   0.0 | 44.38
Comm    | 8.6138     | 8.6138     | 8.6138     |   0.0 |  0.55
Output  | 4.7227     | 4.7227     | 4.7227     |   0.0 |  0.30
Modify  | 11.305     | 11.305     | 11.305     |   0.0 |  0.72
Other   |            | 3.049      |            |       |  0.20

Nlocal:    19652 ave 19652 max 19652 min
Histogram: 1 0 0 0 0 0 0 0 0 0
Nghost:    19335 ave 19335 max 19335 min
Histogram: 1 0 0 0 0 0 0 0 0 0
Neighs:    1.69294e+06 ave 1.69294e+06 max 1.69294e+06 min
Histogram: 1 0 0 0 0 0 0 0 0 0

Total # of neighbors = 1692935
Ave neighs/atom = 86.1457
Neighbor list builds = 8000
Dangerous builds not checked
Setting up Verlet run ...
  Unit style    : metal
  Current step  : 10000
  Time step     : 0.001
Per MPI rank memory allocation (min/avg/max) = 19.34 | 19.34 | 19.34 Mbytes
Step Temp Press TotEng PotEng Enthalpy Volume 
   10000    2443.6246    564.84836   -53063.124   -59270.154    -52960.46    291205.72 
   11000    2465.3977   -381.90433   -52963.601   -59225.936   -53033.225    292089.23 
   12000    2445.8588   -340.62875   -52971.979   -59184.683   -53034.112    292246.61 
   13000    2455.9692   -110.91928   -52837.402   -59075.788   -52857.685    292972.93 
   14000    2455.6552   -2092.9142   -52923.822    -59161.41   -53306.303    292798.31 
   15000    2465.8721    1645.2881   -52965.699   -59229.238   -52666.495    291363.67 
   16000    2439.1239    340.20614    -52947.47   -59143.067   -52885.401    292308.24 
   17000    2412.7084   -1088.2838   -53025.419   -59153.918   -53224.237    292700.82 
   18000    2478.6768   -1926.2127   -52833.779   -59129.844   -53186.293    293212.61 
   19000    2464.8025   -1863.0299   -52886.085   -59146.908   -53226.798    293007.49 
   20000    2451.3136     1038.151   -52942.854   -59169.414    -52753.69    291936.58 
   21000    2435.9393    2119.3185   -53045.642   -59233.149   -52660.669    291034.22 
   22000    2462.4965    744.84596   -52957.644    -59212.61   -52822.018    291735.56 
   23000    2460.9784   -501.88272   -52934.487   -59185.597   -53026.081    292396.61 
   24000    2464.3006    250.55453   -52929.638   -59189.186   -52883.981     291955.3 
   25000    2467.7873    161.03247   -52913.623   -59182.028   -52884.268     292066.5 
   26000    2454.0864   -98.539061   -52929.277    -59162.88   -52947.256    292331.15 
   27000    2462.6247   -387.12576   -52988.144   -59243.435   -53058.663    291853.84 
   28000    2454.1033   -141.94824   -53007.077   -59240.723    -53032.92    291694.98 
   29000    2494.5206   -216.45282   -52855.631    -59191.94   -52895.107    292204.94 
   30000    2464.2707   -628.48824   -52848.107    -59107.58   -52963.046    293007.61 
   31000    2477.1014    472.28985   -52969.627    -59261.69    -52883.71    291460.72 
   32000    2474.6417   -1074.9458   -52885.623   -59171.438   -53082.037    292748.67 
   33000    2444.0636   -2239.8953   -52867.552   -59075.696   -53277.915    293529.02 
   34000    2448.1897   -51.502299   -52953.614   -59172.239   -52963.008    292227.43 
   35000    2433.0749   -1078.6189   -53031.739   -59211.971   -53228.546    292337.09 
   36000    2453.2575   -1447.7815   -52961.512   -59193.009   -53225.925    292611.06 
   37000    2462.2298   -239.44383   -52935.906   -59190.194   -52979.573    292187.19 
   38000    2456.0687    480.05725   -52950.546   -59189.185    -52863.06    291983.09 
   39000    2443.1771   -170.24817   -52944.671   -59150.563   -52975.754    292520.43 
   40000    2443.0505   -912.15806   -52968.825   -59174.396   -53135.318    292439.98 
Loop time of 4573.79 on 1 procs for 30000 steps with 19652 atoms

Performance: 0.567 ns/day, 42.350 hours/ns, 6.559 timesteps/s
99.2% CPU use with 1 MPI tasks x no OpenMP threads

MPI task timing breakdown:
Section |  min time  |  avg time  |  max time  |%varavg| %total
---------------------------------------------------------------
Pair    | 2429.8     | 2429.8     | 2429.8     |   0.0 | 53.12
Neigh   | 2062.3     | 2062.3     | 2062.3     |   0.0 | 45.09
Comm    | 28.032     | 28.032     | 28.032     |   0.0 |  0.61
Output  | 9.4411     | 9.4411     | 9.4411     |   0.0 |  0.21
Modify  | 34.629     | 34.629     | 34.629     |   0.0 |  0.76
Other   |            | 9.612      |            |       |  0.21

Nlocal:    19652 ave 19652 max 19652 min
Histogram: 1 0 0 0 0 0 0 0 0 0
Nghost:    19268 ave 19268 max 19268 min
Histogram: 1 0 0 0 0 0 0 0 0 0
Neighs:    1.68574e+06 ave 1.68574e+06 max 1.68574e+06 min
Histogram: 1 0 0 0 0 0 0 0 0 0

Total # of neighbors = 1685744
Ave neighs/atom = 85.7798
Neighbor list builds = 30000
Dangerous builds not checked
Setting up Verlet run ...
  Unit style    : metal
  Current step  : 40000
  Time step     : 0.001
Per MPI rank memory allocation (min/avg/max) = 19.34 | 19.34 | 19.34 Mbytes
Step Temp Press TotEng PotEng Enthalpy Volume 
   40000    2443.0505   -912.15806   -52968.825   -59174.396   -53135.318    292439.98 
   40495    2397.4365    572.13274   -53232.345   -59322.053   -53128.458    290922.47 
Loop time of 64.8085 on 1 procs for 495 steps with 19652 atoms

Performance: 0.660 ns/day, 36.368 hours/ns, 7.638 timesteps/s
100.0% CPU use with 1 MPI tasks x no OpenMP threads

MPI task timing breakdown:
Section |  min time  |  avg time  |  max time  |%varavg| %total
---------------------------------------------------------------
Pair    | 34.343     | 34.343     | 34.343     |   0.0 | 52.99
Neigh   | 29.415     | 29.415     | 29.415     |   0.0 | 45.39
Comm    | 0.4071     | 0.4071     | 0.4071     |   0.0 |  0.63
Output  | 0.00013518 | 0.00013518 | 0.00013518 |   0.0 |  0.00
Modify  | 0.49455    | 0.49455    | 0.49455    |   0.0 |  0.76
Other   |            | 0.1485     |            |       |  0.23

Nlocal:    19652 ave 19652 max 19652 min
Histogram: 1 0 0 0 0 0 0 0 0 0
Nghost:    19197 ave 19197 max 19197 min
Histogram: 1 0 0 0 0 0 0 0 0 0
Neighs:    1.69426e+06 ave 1.69426e+06 max 1.69426e+06 min
Histogram: 1 0 0 0 0 0 0 0 0 0

Total # of neighbors = 1694256
Ave neighs/atom = 86.2129
Neighbor list builds = 495
Dangerous builds not checked
Setting up Verlet run ...
  Unit style    : metal
  Current step  : 40495
  Time step     : 0.001
Per MPI rank memory allocation (min/avg/max) = 19.34 | 19.34 | 19.34 Mbytes
Step Temp Press TotEng PotEng Enthalpy Volume 
   40495    2397.4365    572.13274   -53232.345   -59322.053   -53128.458    290922.47 
   41000    2403.9718    1358.8992   -53251.757   -59358.064    -53005.57     290259.8 
Loop time of 64.2924 on 1 procs for 505 steps with 19652 atoms

Performance: 0.679 ns/day, 35.364 hours/ns, 7.855 timesteps/s
99.9% CPU use with 1 MPI tasks x no OpenMP threads

MPI task timing breakdown:
Section |  min time  |  avg time  |  max time  |%varavg| %total
---------------------------------------------------------------
Pair    | 33.814     | 33.814     | 33.814     |   0.0 | 52.59
Neigh   | 29.324     | 29.324     | 29.324     |   0.0 | 45.61
Comm    | 0.39769    | 0.39769    | 0.39769    |   0.0 |  0.62
Output  | 0.13217    | 0.13217    | 0.13217    |   0.0 |  0.21
Modify  | 0.48734    | 0.48734    | 0.48734    |   0.0 |  0.76
Other   |            | 0.137      |            |       |  0.21

Nlocal:    19652 ave 19652 max 19652 min
Histogram: 1 0 0 0 0 0 0 0 0 0
Nghost:    19352 ave 19352 max 19352 min
Histogram: 1 0 0 0 0 0 0 0 0 0
Neighs:    1.698e+06 ave 1.698e+06 max 1.698e+06 min
Histogram: 1 0 0 0 0 0 0 0 0 0

Total # of neighbors = 1698001
Ave neighs/atom = 86.4035
Neighbor list builds = 505
Dangerous builds not checked
Setting up Verlet run ...
  Unit style    : metal
  Current step  : 41000
  Time step     : 0.001
Per MPI rank memory allocation (min/avg/max) = 19.34 | 19.34 | 19.34 Mbytes
Step Temp Press TotEng PotEng Enthalpy Volume 
   41000    2403.9718    1358.8992   -53251.757   -59358.064    -53005.57     290259.8 
   41495    2349.5852    1455.3372   -53473.456   -59441.616   -53210.522    289463.54 
Loop time of 63.3903 on 1 procs for 495 steps with 19652 atoms

Performance: 0.675 ns/day, 35.573 hours/ns, 7.809 timesteps/s
99.8% CPU use with 1 MPI tasks x no OpenMP threads

MPI task timing breakdown:
Section |  min time  |  avg time  |  max time  |%varavg| %total
---------------------------------------------------------------
Pair    | 33.39      | 33.39      | 33.39      |   0.0 | 52.67
Neigh   | 29.005     | 29.005     | 29.005     |   0.0 | 45.76
Comm    | 0.38082    | 0.38082    | 0.38082    |   0.0 |  0.60
Output  | 0.00013995 | 0.00013995 | 0.00013995 |   0.0 |  0.00
Modify  | 0.48284    | 0.48284    | 0.48284    |   0.0 |  0.76
Other   |            | 0.1316     |            |       |  0.21

Nlocal:    19652 ave 19652 max 19652 min
Histogram: 1 0 0 0 0 0 0 0 0 0
Nghost:    19464 ave 19464 max 19464 min
Histogram: 1 0 0 0 0 0 0 0 0 0
Neighs:    1.7029e+06 ave 1.7029e+06 max 1.7029e+06 min
Histogram: 1 0 0 0 0 0 0 0 0 0

Total # of neighbors = 1702899
Ave neighs/atom = 86.6527
Neighbor list builds = 495
Dangerous builds not checked
Setting up Verlet run ...
  Unit style    : metal
  Current step  : 41495
  Time step     : 0.001
Per MPI rank memory allocation (min/avg/max) = 19.34 | 19.34 | 19.34 Mbytes
Step Temp Press TotEng PotEng Enthalpy Volume 
   41495    2349.5852    1455.3372   -53473.456   -59441.616   -53210.522    289463.54 
   42000    2362.5308     3253.308   -53466.221   -59467.264   -52879.694    288850.53 
Loop time of 65.6451 on 1 procs for 505 steps with 19652 atoms

Performance: 0.665 ns/day, 36.108 hours/ns, 7.693 timesteps/s
99.7% CPU use with 1 MPI tasks x no OpenMP threads

MPI task timing breakdown:
Section |  min time  |  avg time  |  max time  |%varavg| %total
---------------------------------------------------------------
Pair    | 34.511     | 34.511     | 34.511     |   0.0 | 52.57
Neigh   | 29.903     | 29.903     | 29.903     |   0.0 | 45.55
Comm    | 0.39233    | 0.39233    | 0.39233    |   0.0 |  0.60
Output  | 0.20829    | 0.20829    | 0.20829    |   0.0 |  0.32
Modify  | 0.49654    | 0.49654    | 0.49654    |   0.0 |  0.76
Other   |            | 0.1347     |            |       |  0.21

Nlocal:    19652 ave 19652 max 19652 min
Histogram: 1 0 0 0 0 0 0 0 0 0
Nghost:    19369 ave 19369 max 19369 min
Histogram: 1 0 0 0 0 0 0 0 0 0
Neighs:    1.70641e+06 ave 1.70641e+06 max 1.70641e+06 min
Histogram: 1 0 0 0 0 0 0 0 0 0

Total # of neighbors = 1706409
Ave neighs/atom = 86.8313
Neighbor list builds = 505
Dangerous builds not checked
Setting up Verlet run ...
  Unit style    : metal
  Current step  : 42000
  Time step     : 0.001
Per MPI rank memory allocation (min/avg/max) = 19.34 | 19.34 | 19.34 Mbytes
Step Temp Press TotEng PotEng Enthalpy Volume 
   42000    2362.5308     3253.308   -53466.221   -59467.264   -52879.694    288850.53 
   42495    2332.1827    393.73836   -53708.564   -59632.521   -53637.656    288533.99 
Loop time of 67.0823 on 1 procs for 495 steps with 19652 atoms

Performance: 0.638 ns/day, 37.644 hours/ns, 7.379 timesteps/s
99.7% CPU use with 1 MPI tasks x no OpenMP threads

MPI task timing breakdown:
Section |  min time  |  avg time  |  max time  |%varavg| %total
---------------------------------------------------------------
Pair    | 35.492     | 35.492     | 35.492     |   0.0 | 52.91
Neigh   | 30.527     | 30.527     | 30.527     |   0.0 | 45.51
Comm    | 0.40619    | 0.40619    | 0.40619    |   0.0 |  0.61
Output  | 0.00014496 | 0.00014496 | 0.00014496 |   0.0 |  0.00
Modify  | 0.51642    | 0.51642    | 0.51642    |   0.0 |  0.77
Other   |            | 0.1399     |            |       |  0.21

Nlocal:    19652 ave 19652 max 19652 min
Histogram: 1 0 0 0 0 0 0 0 0 0
Nghost:    19336 ave 19336 max 19336 min
Histogram: 1 0 0 0 0 0 0 0 0 0
Neighs:    1.70707e+06 ave 1.70707e+06 max 1.70707e+06 min
Histogram: 1 0 0 0 0 0 0 0 0 0

Total # of neighbors = 1707067
Ave neighs/atom = 86.8648
Neighbor list builds = 495
Dangerous builds not checked
Setting up Verlet run ...
  Unit style    : metal
  Current step  : 42495
  Time step     : 0.001
Per MPI rank memory allocation (min/avg/max) = 19.34 | 19.34 | 19.34 Mbytes
Step Temp Press TotEng PotEng Enthalpy Volume 
   42495    2332.1827    393.73836   -53708.564   -59632.521   -53637.656    288533.99 
   43000    2300.3754    109.61867   -53868.341   -59711.505   -53848.647    287847.16 
Loop time of 63.7428 on 1 procs for 505 steps with 19652 atoms

Performance: 0.685 ns/day, 35.062 hours/ns, 7.922 timesteps/s
100.0% CPU use with 1 MPI tasks x no OpenMP threads

MPI task timing breakdown:
Section |  min time  |  avg time  |  max time  |%varavg| %total
---------------------------------------------------------------
Pair    | 33.618     | 33.618     | 33.618     |   0.0 | 52.74
Neigh   | 29.071     | 29.071     | 29.071     |   0.0 | 45.61
Comm    | 0.38288    | 0.38288    | 0.38288    |   0.0 |  0.60
Output  | 0.059834   | 0.059834   | 0.059834   |   0.0 |  0.09
Modify  | 0.48029    | 0.48029    | 0.48029    |   0.0 |  0.75
Other   |            | 0.131      |            |       |  0.21

Nlocal:    19652 ave 19652 max 19652 min
Histogram: 1 0 0 0 0 0 0 0 0 0
Nghost:    19377 ave 19377 max 19377 min
Histogram: 1 0 0 0 0 0 0 0 0 0
Neighs:    1.71179e+06 ave 1.71179e+06 max 1.71179e+06 min
Histogram: 1 0 0 0 0 0 0 0 0 0

Total # of neighbors = 1711791
Ave neighs/atom = 87.1052
Neighbor list builds = 505
Dangerous builds not checked
Setting up Verlet run ...
  Unit style    : metal
  Current step  : 43000
  Time step     : 0.001
Per MPI rank memory allocation (min/avg/max) = 19.34 | 19.34 | 19.34 Mbytes
Step Temp Press TotEng PotEng Enthalpy Volume 
   43000    2300.3754    109.61867   -53868.341   -59711.505   -53848.647    287847.16 
   43495    2258.4258   -182.88307   -54007.343    -59743.95   -54040.173    287616.37 
Loop time of 62.5602 on 1 procs for 495 steps with 19652 atoms

Performance: 0.684 ns/day, 35.107 hours/ns, 7.912 timesteps/s
100.0% CPU use with 1 MPI tasks x no OpenMP threads

MPI task timing breakdown:
Section |  min time  |  avg time  |  max time  |%varavg| %total
---------------------------------------------------------------
Pair    | 33.032     | 33.032     | 33.032     |   0.0 | 52.80
Neigh   | 28.548     | 28.548     | 28.548     |   0.0 | 45.63
Comm    | 0.37748    | 0.37748    | 0.37748    |   0.0 |  0.60
Output  | 0.00012589 | 0.00012589 | 0.00012589 |   0.0 |  0.00
Modify  | 0.47339    | 0.47339    | 0.47339    |   0.0 |  0.76
Other   |            | 0.1289     |            |       |  0.21

Nlocal:    19652 ave 19652 max 19652 min
Histogram: 1 0 0 0 0 0 0 0 0 0
Nghost:    19481 ave 19481 max 19481 min
Histogram: 1 0 0 0 0 0 0 0 0 0
Neighs:    1.7135e+06 ave 1.7135e+06 max 1.7135e+06 min
Histogram: 1 0 0 0 0 0 0 0 0 0

Total # of neighbors = 1713501
Ave neighs/atom = 87.1922
Neighbor list builds = 495
Dangerous builds not checked
Setting up Verlet run ...
  Unit style    : metal
  Current step  : 43495
  Time step     : 0.001
Per MPI rank memory allocation (min/avg/max) = 19.34 | 19.34 | 19.34 Mbytes
Step Temp Press TotEng PotEng Enthalpy Volume 
   43495    2258.4258   -182.88307   -54007.343    -59743.95   -54040.173    287616.37 
   44000    2258.1476    731.50349   -54199.558   -59935.459   -54069.001    285952.37 
Loop time of 63.7348 on 1 procs for 505 steps with 19652 atoms

Performance: 0.685 ns/day, 35.058 hours/ns, 7.923 timesteps/s
99.9% CPU use with 1 MPI tasks x no OpenMP threads

MPI task timing breakdown:
Section |  min time  |  avg time  |  max time  |%varavg| %total
---------------------------------------------------------------
Pair    | 33.649     | 33.649     | 33.649     |   0.0 | 52.79
Neigh   | 29.003     | 29.003     | 29.003     |   0.0 | 45.51
Comm    | 0.38518    | 0.38518    | 0.38518    |   0.0 |  0.60
Output  | 0.087489   | 0.087489   | 0.087489   |   0.0 |  0.14
Modify  | 0.47966    | 0.47966    | 0.47966    |   0.0 |  0.75
Other   |            | 0.1306     |            |       |  0.20

Nlocal:    19652 ave 19652 max 19652 min
Histogram: 1 0 0 0 0 0 0 0 0 0
Nghost:    19441 ave 19441 max 19441 min
Histogram: 1 0 0 0 0 0 0 0 0 0
Neighs:    1.72329e+06 ave 1.72329e+06 max 1.72329e+06 min
Histogram: 1 0 0 0 0 0 0 0 0 0

Total # of neighbors = 1723293
Ave neighs/atom = 87.6905
Neighbor list builds = 505
Dangerous builds not checked
Setting up Verlet run ...
  Unit style    : metal
  Current step  : 44000
  Time step     : 0.001
Per MPI rank memory allocation (min/avg/max) = 19.34 | 19.34 | 19.34 Mbytes
Step Temp Press TotEng PotEng Enthalpy Volume 
   44000    2258.1476    731.50349   -54199.558   -59935.459   -54069.001    285952.37 
   44495    2203.3327    751.68365   -54315.796   -59912.461    -54181.62    285988.48 
Loop time of 62.7953 on 1 procs for 495 steps with 19652 atoms

Performance: 0.681 ns/day, 35.239 hours/ns, 7.883 timesteps/s
100.0% CPU use with 1 MPI tasks x no OpenMP threads

MPI task timing breakdown:
Section |  min time  |  avg time  |  max time  |%varavg| %total
---------------------------------------------------------------
Pair    | 33.191     | 33.191     | 33.191     |   0.0 | 52.86
Neigh   | 28.619     | 28.619     | 28.619     |   0.0 | 45.58
Comm    | 0.37928    | 0.37928    | 0.37928    |   0.0 |  0.60
Output  | 0.00012589 | 0.00012589 | 0.00012589 |   0.0 |  0.00
Modify  | 0.47599    | 0.47599    | 0.47599    |   0.0 |  0.76
Other   |            | 0.1292     |            |       |  0.21

Nlocal:    19652 ave 19652 max 19652 min
Histogram: 1 0 0 0 0 0 0 0 0 0
Nghost:    19432 ave 19432 max 19432 min
Histogram: 1 0 0 0 0 0 0 0 0 0
Neighs:    1.72273e+06 ave 1.72273e+06 max 1.72273e+06 min
Histogram: 1 0 0 0 0 0 0 0 0 0

Total # of neighbors = 1722734
Ave neighs/atom = 87.662
Neighbor list builds = 495
Dangerous builds not checked
Setting up Verlet run ...
  Unit style    : metal
  Current step  : 44495
  Time step     : 0.001
Per MPI rank memory allocation (min/avg/max) = 19.34 | 19.34 | 19.34 Mbytes
Step Temp Press TotEng PotEng Enthalpy Volume 
   44495    2203.3327    751.68365   -54315.796   -59912.461    -54181.62    285988.48 
   45000    2196.6603   -283.75344   -54439.244   -60018.961    -54489.81    285512.59 
Loop time of 69.036 on 1 procs for 505 steps with 19652 atoms

Performance: 0.632 ns/day, 37.974 hours/ns, 7.315 timesteps/s
92.6% CPU use with 1 MPI tasks x no OpenMP threads

MPI task timing breakdown:
Section |  min time  |  avg time  |  max time  |%varavg| %total
---------------------------------------------------------------
Pair    | 33.908     | 33.908     | 33.908     |   0.0 | 49.12
Neigh   | 29.023     | 29.023     | 29.023     |   0.0 | 42.04
Comm    | 0.386      | 0.386      | 0.386      |   0.0 |  0.56
Output  | 5.1058     | 5.1058     | 5.1058     |   0.0 |  7.40
Modify  | 0.48184    | 0.48184    | 0.48184    |   0.0 |  0.70
Other   |            | 0.1309     |            |       |  0.19

Nlocal:    19652 ave 19652 max 19652 min
Histogram: 1 0 0 0 0 0 0 0 0 0
Nghost:    19424 ave 19424 max 19424 min
Histogram: 1 0 0 0 0 0 0 0 0 0
Neighs:    1.72512e+06 ave 1.72512e+06 max 1.72512e+06 min
Histogram: 1 0 0 0 0 0 0 0 0 0

Total # of neighbors = 1725117
Ave neighs/atom = 87.7833
Neighbor list builds = 505
Dangerous builds not checked
Setting up Verlet run ...
  Unit style    : metal
  Current step  : 45000
  Time step     : 0.001
Per MPI rank memory allocation (min/avg/max) = 19.34 | 19.34 | 19.34 Mbytes
Step Temp Press TotEng PotEng Enthalpy Volume 
   45000    2196.6603   -283.75344   -54439.244   -60018.961    -54489.81    285512.59 
   45495    2168.2675     358.6374   -54644.437   -60152.034   -54580.808    284254.15 
Loop time of 65.2072 on 1 procs for 495 steps with 19652 atoms

Performance: 0.656 ns/day, 36.592 hours/ns, 7.591 timesteps/s
100.0% CPU use with 1 MPI tasks x no OpenMP threads

MPI task timing breakdown:
Section |  min time  |  avg time  |  max time  |%varavg| %total
---------------------------------------------------------------
Pair    | 34.658     | 34.658     | 34.658     |   0.0 | 53.15
Neigh   | 29.523     | 29.523     | 29.523     |   0.0 | 45.28
Comm    | 0.39562    | 0.39562    | 0.39562    |   0.0 |  0.61
Output  | 0.00011611 | 0.00011611 | 0.00011611 |   0.0 |  0.00
Modify  | 0.49503    | 0.49503    | 0.49503    |   0.0 |  0.76
Other   |            | 0.1354     |            |       |  0.21

Nlocal:    19652 ave 19652 max 19652 min
Histogram: 1 0 0 0 0 0 0 0 0 0
Nghost:    19491 ave 19491 max 19491 min
Histogram: 1 0 0 0 0 0 0 0 0 0
Neighs:    1.73266e+06 ave 1.73266e+06 max 1.73266e+06 min
Histogram: 1 0 0 0 0 0 0 0 0 0

Total # of neighbors = 1732660
Ave neighs/atom = 88.1671
Neighbor list builds = 495
Dangerous builds not checked
Setting up Verlet run ...
  Unit style    : metal
  Current step  : 45495
  Time step     : 0.001
Per MPI rank memory allocation (min/avg/max) = 19.34 | 19.34 | 19.34 Mbytes
Step Temp Press TotEng PotEng Enthalpy Volume 
   45495    2168.2675     358.6374   -54644.437   -60152.034   -54580.808    284254.15 
   46000    2164.7369    848.18467   -54683.537   -60182.166   -54533.237    283908.32 
Loop time of 64.4424 on 1 procs for 505 steps with 19652 atoms

Performance: 0.677 ns/day, 35.447 hours/ns, 7.836 timesteps/s
99.3% CPU use with 1 MPI tasks x no OpenMP threads

MPI task timing breakdown:
Section |  min time  |  avg time  |  max time  |%varavg| %total
---------------------------------------------------------------
Pair    | 33.948     | 33.948     | 33.948     |   0.0 | 52.68
Neigh   | 28.987     | 28.987     | 28.987     |   0.0 | 44.98
Comm    | 0.38579    | 0.38579    | 0.38579    |   0.0 |  0.60
Output  | 0.50943    | 0.50943    | 0.50943    |   0.0 |  0.79
Modify  | 0.48095    | 0.48095    | 0.48095    |   0.0 |  0.75
Other   |            | 0.1313     |            |       |  0.20

Nlocal:    19652 ave 19652 max 19652 min
Histogram: 1 0 0 0 0 0 0 0 0 0
Nghost:    19544 ave 19544 max 19544 min
Histogram: 1 0 0 0 0 0 0 0 0 0
Neighs:    1.73495e+06 ave 1.73495e+06 max 1.73495e+06 min
Histogram: 1 0 0 0 0 0 0 0 0 0

Total # of neighbors = 1734952
Ave neighs/atom = 88.2837
Neighbor list builds = 505
Dangerous builds not checked
Setting up Verlet run ...
  Unit style    : metal
  Current step  : 46000
  Time step     : 0.001
Per MPI rank memory allocation (min/avg/max) = 19.34 | 19.34 | 19.34 Mbytes
Step Temp Press TotEng PotEng Enthalpy Volume 
   46000    2164.7369    848.18467   -54683.537   -60182.166   -54533.237    283908.32 
   46495    2110.6309    281.88188    -54902.89   -60264.085    -54853.03    283397.59 
Loop time of 64.3221 on 1 procs for 495 steps with 19652 atoms

Performance: 0.665 ns/day, 36.095 hours/ns, 7.696 timesteps/s
99.3% CPU use with 1 MPI tasks x no OpenMP threads

MPI task timing breakdown:
Section |  min time  |  avg time  |  max time  |%varavg| %total
---------------------------------------------------------------
Pair    | 34.209     | 34.209     | 34.209     |   0.0 | 53.18
Neigh   | 29.109     | 29.109     | 29.109     |   0.0 | 45.25
Comm    | 0.38581    | 0.38581    | 0.38581    |   0.0 |  0.60
Output  | 0.00013995 | 0.00013995 | 0.00013995 |   0.0 |  0.00
Modify  | 0.48611    | 0.48611    | 0.48611    |   0.0 |  0.76
Other   |            | 0.1325     |            |       |  0.21

Nlocal:    19652 ave 19652 max 19652 min
Histogram: 1 0 0 0 0 0 0 0 0 0
Nghost:    19577 ave 19577 max 19577 min
Histogram: 1 0 0 0 0 0 0 0 0 0
Neighs:    1.73774e+06 ave 1.73774e+06 max 1.73774e+06 min
Histogram: 1 0 0 0 0 0 0 0 0 0

Total # of neighbors = 1737743
Ave neighs/atom = 88.4258
Neighbor list builds = 495
Dangerous builds not checked
Setting up Verlet run ...
  Unit style    : metal
  Current step  : 46495
  Time step     : 0.001
Per MPI rank memory allocation (min/avg/max) = 19.34 | 19.34 | 19.34 Mbytes
Step Temp Press TotEng PotEng Enthalpy Volume 
   46495    2110.6309    281.88188    -54902.89   -60264.085    -54853.03    283397.59 
   47000    2095.3118    276.59536   -55047.299   -60369.582   -54998.521    282541.98 
Loop time of 66.5354 on 1 procs for 505 steps with 19652 atoms

Performance: 0.656 ns/day, 36.598 hours/ns, 7.590 timesteps/s
98.9% CPU use with 1 MPI tasks x no OpenMP threads

MPI task timing breakdown:
Section |  min time  |  avg time  |  max time  |%varavg| %total
---------------------------------------------------------------
Pair    | 35.131     | 35.131     | 35.131     |   0.0 | 52.80
Neigh   | 29.844     | 29.844     | 29.844     |   0.0 | 44.85
Comm    | 0.39513    | 0.39513    | 0.39513    |   0.0 |  0.59
Output  | 0.5292     | 0.5292     | 0.5292     |   0.0 |  0.80
Modify  | 0.50014    | 0.50014    | 0.50014    |   0.0 |  0.75
Other   |            | 0.1361     |            |       |  0.20

Nlocal:    19652 ave 19652 max 19652 min
Histogram: 1 0 0 0 0 0 0 0 0 0
Nghost:    19612 ave 19612 max 19612 min
Histogram: 1 0 0 0 0 0 0 0 0 0
Neighs:    1.74363e+06 ave 1.74363e+06 max 1.74363e+06 min
Histogram: 1 0 0 0 0 0 0 0 0 0

Total # of neighbors = 1743630
Ave neighs/atom = 88.7253
Neighbor list builds = 505
Dangerous builds not checked
Setting up Verlet run ...
  Unit style    : metal
  Current step  : 47000
  Time step     : 0.001
Per MPI rank memory allocation (min/avg/max) = 19.34 | 19.34 | 19.34 Mbytes
Step Temp Press TotEng PotEng Enthalpy Volume 
   47000    2095.3118    276.59536   -55047.299   -60369.582   -54998.521    282541.98 
   47495    2053.4886    171.50634   -55253.636   -60469.684   -55223.464    281867.71 
Loop time of 66.1008 on 1 procs for 495 steps with 19652 atoms

Performance: 0.647 ns/day, 37.094 hours/ns, 7.489 timesteps/s
100.0% CPU use with 1 MPI tasks x no OpenMP threads

MPI task timing breakdown:
Section |  min time  |  avg time  |  max time  |%varavg| %total
---------------------------------------------------------------
Pair    | 35.417     | 35.417     | 35.417     |   0.0 | 53.58
Neigh   | 29.622     | 29.622     | 29.622     |   0.0 | 44.81
Comm    | 0.41216    | 0.41216    | 0.41216    |   0.0 |  0.62
Output  | 0.00015593 | 0.00015593 | 0.00015593 |   0.0 |  0.00
Modify  | 0.49831    | 0.49831    | 0.49831    |   0.0 |  0.75
Other   |            | 0.151      |            |       |  0.23

Nlocal:    19652 ave 19652 max 19652 min
Histogram: 1 0 0 0 0 0 0 0 0 0
Nghost:    19595 ave 19595 max 19595 min
Histogram: 1 0 0 0 0 0 0 0 0 0
Neighs:    1.74744e+06 ave 1.74744e+06 max 1.74744e+06 min
Histogram: 1 0 0 0 0 0 0 0 0 0

Total # of neighbors = 1747443
Ave neighs/atom = 88.9193
Neighbor list builds = 495
Dangerous builds not checked
Setting up Verlet run ...
  Unit style    : metal
  Current step  : 47495
  Time step     : 0.001
Per MPI rank memory allocation (min/avg/max) = 19.34 | 19.34 | 19.34 Mbytes
Step Temp Press TotEng PotEng Enthalpy Volume 
   47495    2053.4886    171.50634   -55253.636   -60469.684   -55223.464    281867.71 
   48000    2047.9269    1279.4539   -55392.442   -60594.362   -55168.431    280513.63 
Loop time of 69.664 on 1 procs for 505 steps with 19652 atoms

Performance: 0.626 ns/day, 38.319 hours/ns, 7.249 timesteps/s
99.5% CPU use with 1 MPI tasks x no OpenMP threads

MPI task timing breakdown:
Section |  min time  |  avg time  |  max time  |%varavg| %total
---------------------------------------------------------------
Pair    | 37.244     | 37.244     | 37.244     |   0.0 | 53.46
Neigh   | 30.944     | 30.944     | 30.944     |   0.0 | 44.42
Comm    | 0.43297    | 0.43297    | 0.43297    |   0.0 |  0.62
Output  | 0.36198    | 0.36198    | 0.36198    |   0.0 |  0.52
Modify  | 0.52278    | 0.52278    | 0.52278    |   0.0 |  0.75
Other   |            | 0.158      |            |       |  0.23

Nlocal:    19652 ave 19652 max 19652 min
Histogram: 1 0 0 0 0 0 0 0 0 0
Nghost:    19654 ave 19654 max 19654 min
Histogram: 1 0 0 0 0 0 0 0 0 0
Neighs:    1.75546e+06 ave 1.75546e+06 max 1.75546e+06 min
Histogram: 1 0 0 0 0 0 0 0 0 0

Total # of neighbors = 1755462
Ave neighs/atom = 89.3274
Neighbor list builds = 505
Dangerous builds not checked
Setting up Verlet run ...
  Unit style    : metal
  Current step  : 48000
  Time step     : 0.001
Per MPI rank memory allocation (min/avg/max) = 19.34 | 19.34 | 19.34 Mbytes
Step Temp Press TotEng PotEng Enthalpy Volume 
   48000    2047.9269    1279.4539   -55392.442   -60594.362   -55168.431    280513.63 
   48495    2039.4534     -256.578   -55484.446   -60664.843   -55529.382       280602 
Loop time of 68.9842 on 1 procs for 495 steps with 19652 atoms

Performance: 0.620 ns/day, 38.712 hours/ns, 7.176 timesteps/s
99.9% CPU use with 1 MPI tasks x no OpenMP threads

MPI task timing breakdown:
Section |  min time  |  avg time  |  max time  |%varavg| %total
---------------------------------------------------------------
Pair    | 37.061     | 37.061     | 37.061     |   0.0 | 53.72
Neigh   | 30.819     | 30.819     | 30.819     |   0.0 | 44.68
Comm    | 0.42437    | 0.42437    | 0.42437    |   0.0 |  0.62
Output  | 0.0001359  | 0.0001359  | 0.0001359  |   0.0 |  0.00
Modify  | 0.52502    | 0.52502    | 0.52502    |   0.0 |  0.76
Other   |            | 0.1542     |            |       |  0.22

Nlocal:    19652 ave 19652 max 19652 min
Histogram: 1 0 0 0 0 0 0 0 0 0
Nghost:    19553 ave 19553 max 19553 min
Histogram: 1 0 0 0 0 0 0 0 0 0
Neighs:    1.75466e+06 ave 1.75466e+06 max 1.75466e+06 min
Histogram: 1 0 0 0 0 0 0 0 0 0

Total # of neighbors = 1754657
Ave neighs/atom = 89.2864
Neighbor list builds = 495
Dangerous builds not checked
Setting up Verlet run ...
  Unit style    : metal
  Current step  : 48495
  Time step     : 0.001
Per MPI rank memory allocation (min/avg/max) = 19.34 | 19.34 | 19.34 Mbytes
Step Temp Press TotEng PotEng Enthalpy Volume 
   48495    2039.4534     -256.578   -55484.446   -60664.843   -55529.382       280602 
   49000    1991.1045    211.18416   -55654.262   -60711.849   -55617.364    279932.65 
Loop time of 83.4621 on 1 procs for 505 steps with 19652 atoms

Performance: 0.523 ns/day, 45.909 hours/ns, 6.051 timesteps/s
87.0% CPU use with 1 MPI tasks x no OpenMP threads

MPI task timing breakdown:
Section |  min time  |  avg time  |  max time  |%varavg| %total
---------------------------------------------------------------
Pair    | 39.113     | 39.113     | 39.113     |   0.0 | 46.86
Neigh   | 32.313     | 32.313     | 32.313     |   0.0 | 38.72
Comm    | 0.45134    | 0.45134    | 0.45134    |   0.0 |  0.54
Output  | 10.869     | 10.869     | 10.869     |   0.0 | 13.02
Modify  | 0.55278    | 0.55278    | 0.55278    |   0.0 |  0.66
Other   |            | 0.1628     |            |       |  0.20

Nlocal:    19652 ave 19652 max 19652 min
Histogram: 1 0 0 0 0 0 0 0 0 0
Nghost:    19681 ave 19681 max 19681 min
Histogram: 1 0 0 0 0 0 0 0 0 0
Neighs:    1.75899e+06 ave 1.75899e+06 max 1.75899e+06 min
Histogram: 1 0 0 0 0 0 0 0 0 0

Total # of neighbors = 1758994
Ave neighs/atom = 89.5071
Neighbor list builds = 505
Dangerous builds not checked
Setting up Verlet run ...
  Unit style    : metal
  Current step  : 49000
  Time step     : 0.001
Per MPI rank memory allocation (min/avg/max) = 19.34 | 19.34 | 19.34 Mbytes
Step Temp Press TotEng PotEng Enthalpy Volume 
   49000    1991.1045    211.18416   -55654.262   -60711.849   -55617.364    279932.65 
   49495    1980.3454   -313.32763   -55837.299   -60867.557   -55891.876    279074.67 
Loop time of 63.7749 on 1 procs for 495 steps with 19652 atoms

Performance: 0.671 ns/day, 35.788 hours/ns, 7.762 timesteps/s
99.9% CPU use with 1 MPI tasks x no OpenMP threads

MPI task timing breakdown:
Section |  min time  |  avg time  |  max time  |%varavg| %total
---------------------------------------------------------------
Pair    | 34.084     | 34.084     | 34.084     |   0.0 | 53.44
Neigh   | 28.692     | 28.692     | 28.692     |   0.0 | 44.99
Comm    | 0.38742    | 0.38742    | 0.38742    |   0.0 |  0.61
Output  | 0.00012398 | 0.00012398 | 0.00012398 |   0.0 |  0.00
Modify  | 0.47858    | 0.47858    | 0.47858    |   0.0 |  0.75
Other   |            | 0.1327     |            |       |  0.21

Nlocal:    19652 ave 19652 max 19652 min
Histogram: 1 0 0 0 0 0 0 0 0 0
Nghost:    19725 ave 19725 max 19725 min
Histogram: 1 0 0 0 0 0 0 0 0 0
Neighs:    1.76426e+06 ave 1.76426e+06 max 1.76426e+06 min
Histogram: 1 0 0 0 0 0 0 0 0 0

Total # of neighbors = 1764263
Ave neighs/atom = 89.7752
Neighbor list builds = 495
Dangerous builds not checked
Setting up Verlet run ...
  Unit style    : metal
  Current step  : 49495
  Time step     : 0.001
Per MPI rank memory allocation (min/avg/max) = 19.34 | 19.34 | 19.34 Mbytes
Step Temp Press TotEng PotEng Enthalpy Volume 
   49495    1980.3454   -313.32763   -55837.299   -60867.557   -55891.876    279074.67 
   50000    1950.8274     550.8837   -55841.551   -60796.831   -55745.568    279156.88 
Loop time of 67.1954 on 1 procs for 505 steps with 19652 atoms

Performance: 0.649 ns/day, 36.961 hours/ns, 7.515 timesteps/s
99.8% CPU use with 1 MPI tasks x no OpenMP threads

MPI task timing breakdown:
Section |  min time  |  avg time  |  max time  |%varavg| %total
---------------------------------------------------------------
Pair    | 35.97      | 35.97      | 35.97      |   0.0 | 53.53
Neigh   | 30.064     | 30.064     | 30.064     |   0.0 | 44.74
Comm    | 0.40639    | 0.40639    | 0.40639    |   0.0 |  0.60
Output  | 0.11082    | 0.11082    | 0.11082    |   0.0 |  0.16
Modify  | 0.50558    | 0.50558    | 0.50558    |   0.0 |  0.75
Other   |            | 0.1389     |            |       |  0.21

Nlocal:    19652 ave 19652 max 19652 min
Histogram: 1 0 0 0 0 0 0 0 0 0
Nghost:    19703 ave 19703 max 19703 min
Histogram: 1 0 0 0 0 0 0 0 0 0
Neighs:    1.76331e+06 ave 1.76331e+06 max 1.76331e+06 min
Histogram: 1 0 0 0 0 0 0 0 0 0

Total # of neighbors = 1763311
Ave neighs/atom = 89.7268
Neighbor list builds = 505
Dangerous builds not checked
Setting up Verlet run ...
  Unit style    : metal
  Current step  : 50000
  Time step     : 0.001
Per MPI rank memory allocation (min/avg/max) = 19.34 | 19.34 | 19.34 Mbytes
Step Temp Press TotEng PotEng Enthalpy Volume 
   50000    1950.8274     550.8837   -55841.551   -60796.831   -55745.568    279156.88 
   50495    1911.8197     1664.533   -56133.464    -60989.66   -55845.145    277517.92 
Loop time of 64.2536 on 1 procs for 495 steps with 19652 atoms

Performance: 0.666 ns/day, 36.057 hours/ns, 7.704 timesteps/s
100.0% CPU use with 1 MPI tasks x no OpenMP threads

MPI task timing breakdown:
Section |  min time  |  avg time  |  max time  |%varavg| %total
---------------------------------------------------------------
Pair    | 34.352     | 34.352     | 34.352     |   0.0 | 53.46
Neigh   | 28.902     | 28.902     | 28.902     |   0.0 | 44.98
Comm    | 0.38475    | 0.38475    | 0.38475    |   0.0 |  0.60
Output  | 0.00012994 | 0.00012994 | 0.00012994 |   0.0 |  0.00
Modify  | 0.48322    | 0.48322    | 0.48322    |   0.0 |  0.75
Other   |            | 0.1321     |            |       |  0.21

Nlocal:    19652 ave 19652 max 19652 min
Histogram: 1 0 0 0 0 0 0 0 0 0
Nghost:    19668 ave 19668 max 19668 min
Histogram: 1 0 0 0 0 0 0 0 0 0
Neighs:    1.77455e+06 ave 1.77455e+06 max 1.77455e+06 min
Histogram: 1 0 0 0 0 0 0 0 0 0

Total # of neighbors = 1774550
Ave neighs/atom = 90.2987
Neighbor list builds = 495
Dangerous builds not checked
Setting up Verlet run ...
  Unit style    : metal
  Current step  : 50495
  Time step     : 0.001
Per MPI rank memory allocation (min/avg/max) = 19.34 | 19.34 | 19.34 Mbytes
Step Temp Press TotEng PotEng Enthalpy Volume 
   50495    1911.8197     1664.533   -56133.464    -60989.66   -55845.145    277517.92 
   51000    1904.0524    485.79638   -56194.438   -61030.905   -56110.267    277600.87 
Loop time of 64.622 on 1 procs for 505 steps with 19652 atoms

Performance: 0.675 ns/day, 35.546 hours/ns, 7.815 timesteps/s
100.0% CPU use with 1 MPI tasks x no OpenMP threads

MPI task timing breakdown:
Section |  min time  |  avg time  |  max time  |%varavg| %total
---------------------------------------------------------------
Pair    | 34.562     | 34.562     | 34.562     |   0.0 | 53.48
Neigh   | 28.998     | 28.998     | 28.998     |   0.0 | 44.87
Comm    | 0.38451    | 0.38451    | 0.38451    |   0.0 |  0.60
Output  | 0.062558   | 0.062558   | 0.062558   |   0.0 |  0.10
Modify  | 0.48272    | 0.48272    | 0.48272    |   0.0 |  0.75
Other   |            | 0.1324     |            |       |  0.20

Nlocal:    19652 ave 19652 max 19652 min
Histogram: 1 0 0 0 0 0 0 0 0 0
Nghost:    19693 ave 19693 max 19693 min
Histogram: 1 0 0 0 0 0 0 0 0 0
Neighs:    1.77331e+06 ave 1.77331e+06 max 1.77331e+06 min
Histogram: 1 0 0 0 0 0 0 0 0 0

Total # of neighbors = 1773312
Ave neighs/atom = 90.2357
Neighbor list builds = 505
Dangerous builds not checked
Setting up Verlet run ...
  Unit style    : metal
  Current step  : 51000
  Time step     : 0.001
Per MPI rank memory allocation (min/avg/max) = 19.34 | 19.34 | 19.34 Mbytes
Step Temp Press TotEng PotEng Enthalpy Volume 
   51000    1904.0524    485.79638   -56194.438   -61030.905   -56110.267    277600.87 
   51495    1866.6702    1521.6745   -56442.836   -61184.348   -56180.485     276230.2 
Loop time of 63.0048 on 1 procs for 495 steps with 19652 atoms

Performance: 0.679 ns/day, 35.356 hours/ns, 7.857 timesteps/s
100.0% CPU use with 1 MPI tasks x no OpenMP threads

MPI task timing breakdown:
Section |  min time  |  avg time  |  max time  |%varavg| %total
---------------------------------------------------------------
Pair    | 33.712     | 33.712     | 33.712     |   0.0 | 53.51
Neigh   | 28.323     | 28.323     | 28.323     |   0.0 | 44.95
Comm    | 0.37285    | 0.37285    | 0.37285    |   0.0 |  0.59
Output  | 0.00011992 | 0.00011992 | 0.00011992 |   0.0 |  0.00
Modify  | 0.46907    | 0.46907    | 0.46907    |   0.0 |  0.74
Other   |            | 0.1281     |            |       |  0.20

Nlocal:    19652 ave 19652 max 19652 min
Histogram: 1 0 0 0 0 0 0 0 0 0
Nghost:    19803 ave 19803 max 19803 min
Histogram: 1 0 0 0 0 0 0 0 0 0
Neighs:    1.78195e+06 ave 1.78195e+06 max 1.78195e+06 min
Histogram: 1 0 0 0 0 0 0 0 0 0

Total # of neighbors = 1781953
Ave neighs/atom = 90.6754
Neighbor list builds = 495
Dangerous builds not checked
Setting up Verlet run ...
  Unit style    : metal
  Current step  : 51495
  Time step     : 0.001
Per MPI rank memory allocation (min/avg/max) = 19.34 | 19.34 | 19.34 Mbytes
Step Temp Press TotEng PotEng Enthalpy Volume 
   51495    1866.6702    1521.6745   -56442.836   -61184.348   -56180.485     276230.2 
   52000    1856.9455    883.97499   -56543.619    -61260.43   -56391.485    275738.35 
Loop time of 68.6309 on 1 procs for 505 steps with 19652 atoms

Performance: 0.636 ns/day, 37.751 hours/ns, 7.358 timesteps/s
100.0% CPU use with 1 MPI tasks x no OpenMP threads

MPI task timing breakdown:
Section |  min time  |  avg time  |  max time  |%varavg| %total
---------------------------------------------------------------
Pair    | 37.008     | 37.008     | 37.008     |   0.0 | 53.92
Neigh   | 30.486     | 30.486     | 30.486     |   0.0 | 44.42
Comm    | 0.41694    | 0.41694    | 0.41694    |   0.0 |  0.61
Output  | 0.056097   | 0.056097   | 0.056097   |   0.0 |  0.08
Modify  | 0.51274    | 0.51274    | 0.51274    |   0.0 |  0.75
Other   |            | 0.1511     |            |       |  0.22

Nlocal:    19652 ave 19652 max 19652 min
Histogram: 1 0 0 0 0 0 0 0 0 0
Nghost:    19739 ave 19739 max 19739 min
Histogram: 1 0 0 0 0 0 0 0 0 0
Neighs:    1.7848e+06 ave 1.7848e+06 max 1.7848e+06 min
Histogram: 1 0 0 0 0 0 0 0 0 0

Total # of neighbors = 1784804
Ave neighs/atom = 90.8205
Neighbor list builds = 505
Dangerous builds not checked
Setting up Verlet run ...
  Unit style    : metal
  Current step  : 52000
  Time step     : 0.001
Per MPI rank memory allocation (min/avg/max) = 19.34 | 19.34 | 19.34 Mbytes
Step Temp Press TotEng PotEng Enthalpy Volume 
   52000    1856.9455    883.97499   -56543.619    -61260.43   -56391.485    275738.35 
   52495    1803.6179    57.083473   -56754.763   -61336.116    -56744.95    275415.62 
Loop time of 69.0105 on 1 procs for 495 steps with 19652 atoms

Performance: 0.620 ns/day, 38.726 hours/ns, 7.173 timesteps/s
100.0% CPU use with 1 MPI tasks x no OpenMP threads

MPI task timing breakdown:
Section |  min time  |  avg time  |  max time  |%varavg| %total
---------------------------------------------------------------
Pair    | 37.291     | 37.291     | 37.291     |   0.0 | 54.04
Neigh   | 30.617     | 30.617     | 30.617     |   0.0 | 44.37
Comm    | 0.42188    | 0.42188    | 0.42188    |   0.0 |  0.61
Output  | 0.000144   | 0.000144   | 0.000144   |   0.0 |  0.00
Modify  | 0.52266    | 0.52266    | 0.52266    |   0.0 |  0.76
Other   |            | 0.1574     |            |       |  0.23

Nlocal:    19652 ave 19652 max 19652 min
Histogram: 1 0 0 0 0 0 0 0 0 0
Nghost:    19766 ave 19766 max 19766 min
Histogram: 1 0 0 0 0 0 0 0 0 0
Neighs:    1.78679e+06 ave 1.78679e+06 max 1.78679e+06 min
Histogram: 1 0 0 0 0 0 0 0 0 0

Total # of neighbors = 1786792
Ave neighs/atom = 90.9216
Neighbor list builds = 495
Dangerous builds not checked
Setting up Verlet run ...
  Unit style    : metal
  Current step  : 52495
  Time step     : 0.001
Per MPI rank memory allocation (min/avg/max) = 19.34 | 19.34 | 19.34 Mbytes
Step Temp Press TotEng PotEng Enthalpy Volume 
   52495    1803.6179    57.083473   -56754.763   -61336.116    -56744.95    275415.62 
   53000    1802.3773    434.91577   -56856.578    -61434.78    -56782.03    274623.15 
Loop time of 67.1996 on 1 procs for 505 steps with 19652 atoms

Performance: 0.649 ns/day, 36.963 hours/ns, 7.515 timesteps/s
99.9% CPU use with 1 MPI tasks x no OpenMP threads

MPI task timing breakdown:
Section |  min time  |  avg time  |  max time  |%varavg| %total
---------------------------------------------------------------
Pair    | 36.259     | 36.259     | 36.259     |   0.0 | 53.96
Neigh   | 29.809     | 29.809     | 29.809     |   0.0 | 44.36
Comm    | 0.41539    | 0.41539    | 0.41539    |   0.0 |  0.62
Output  | 0.064857   | 0.064857   | 0.064857   |   0.0 |  0.10
Modify  | 0.50142    | 0.50142    | 0.50142    |   0.0 |  0.75
Other   |            | 0.1504     |            |       |  0.22

Nlocal:    19652 ave 19652 max 19652 min
Histogram: 1 0 0 0 0 0 0 0 0 0
Nghost:    19880 ave 19880 max 19880 min
Histogram: 1 0 0 0 0 0 0 0 0 0
Neighs:    1.79126e+06 ave 1.79126e+06 max 1.79126e+06 min
Histogram: 1 0 0 0 0 0 0 0 0 0

Total # of neighbors = 1791264
Ave neighs/atom = 91.1492
Neighbor list builds = 505
Dangerous builds not checked
Setting up Verlet run ...
  Unit style    : metal
  Current step  : 53000
  Time step     : 0.001
Per MPI rank memory allocation (min/avg/max) = 19.34 | 19.34 | 19.34 Mbytes
Step Temp Press TotEng PotEng Enthalpy Volume 
   53000    1802.3773    434.91577   -56856.578    -61434.78    -56782.03    274623.15 
   53495    1761.3163   -341.65819    -57025.99   -61499.894   -57084.482    274291.85 
Loop time of 74.1913 on 1 procs for 495 steps with 19652 atoms

Performance: 0.576 ns/day, 41.634 hours/ns, 6.672 timesteps/s
99.9% CPU use with 1 MPI tasks x no OpenMP threads

MPI task timing breakdown:
Section |  min time  |  avg time  |  max time  |%varavg| %total
---------------------------------------------------------------
Pair    | 40.343     | 40.343     | 40.343     |   0.0 | 54.38
Neigh   | 32.663     | 32.663     | 32.663     |   0.0 | 44.03
Comm    | 0.45624    | 0.45624    | 0.45624    |   0.0 |  0.61
Output  | 0.00015593 | 0.00015593 | 0.00015593 |   0.0 |  0.00
Modify  | 0.56289    | 0.56289    | 0.56289    |   0.0 |  0.76
Other   |            | 0.1662     |            |       |  0.22

Nlocal:    19652 ave 19652 max 19652 min
Histogram: 1 0 0 0 0 0 0 0 0 0
Nghost:    19829 ave 19829 max 19829 min
Histogram: 1 0 0 0 0 0 0 0 0 0
Neighs:    1.79387e+06 ave 1.79387e+06 max 1.79387e+06 min
Histogram: 1 0 0 0 0 0 0 0 0 0

Total # of neighbors = 1793873
Ave neighs/atom = 91.282
Neighbor list builds = 495
Dangerous builds not checked
Setting up Verlet run ...
  Unit style    : metal
  Current step  : 53495
  Time step     : 0.001
Per MPI rank memory allocation (min/avg/max) = 19.34 | 19.34 | 19.34 Mbytes
Step Temp Press TotEng PotEng Enthalpy Volume 
   53495    1761.3163   -341.65819    -57025.99   -61499.894   -57084.482    274291.85 
   54000    1738.3787   -563.21445   -57164.379    -61580.02   -57260.575    273646.89 
Loop time of 67.1514 on 1 procs for 505 steps with 19652 atoms

Performance: 0.650 ns/day, 36.937 hours/ns, 7.520 timesteps/s
99.9% CPU use with 1 MPI tasks x no OpenMP threads

MPI task timing breakdown:
Section |  min time  |  avg time  |  max time  |%varavg| %total
---------------------------------------------------------------
Pair    | 36.131     | 36.131     | 36.131     |   0.0 | 53.81
Neigh   | 29.891     | 29.891     | 29.891     |   0.0 | 44.51
Comm    | 0.40156    | 0.40156    | 0.40156    |   0.0 |  0.60
Output  | 0.081994   | 0.081994   | 0.081994   |   0.0 |  0.12
Modify  | 0.50423    | 0.50423    | 0.50423    |   0.0 |  0.75
Other   |            | 0.1417     |            |       |  0.21

Nlocal:    19652 ave 19652 max 19652 min
Histogram: 1 0 0 0 0 0 0 0 0 0
Nghost:    19829 ave 19829 max 19829 min
Histogram: 1 0 0 0 0 0 0 0 0 0
Neighs:    1.79802e+06 ave 1.79802e+06 max 1.79802e+06 min
Histogram: 1 0 0 0 0 0 0 0 0 0

Total # of neighbors = 1798022
Ave neighs/atom = 91.4931
Neighbor list builds = 505
Dangerous builds not checked
Setting up Verlet run ...
  Unit style    : metal
  Current step  : 54000
  Time step     : 0.001
Per MPI rank memory allocation (min/avg/max) = 19.34 | 19.34 | 19.34 Mbytes
Step Temp Press TotEng PotEng Enthalpy Volume 
   54000    1738.3787   -563.21445   -57164.379    -61580.02   -57260.575    273646.89 
   54495    1707.0938     141.8855   -57373.985   -61710.159   -57349.844    272605.68 
Loop time of 64.0756 on 1 procs for 495 steps with 19652 atoms

Performance: 0.667 ns/day, 35.957 hours/ns, 7.725 timesteps/s
99.7% CPU use with 1 MPI tasks x no OpenMP threads

MPI task timing breakdown:
Section |  min time  |  avg time  |  max time  |%varavg| %total
---------------------------------------------------------------
Pair    | 34.503     | 34.503     | 34.503     |   0.0 | 53.85
Neigh   | 28.592     | 28.592     | 28.592     |   0.0 | 44.62
Comm    | 0.3771     | 0.3771     | 0.3771     |   0.0 |  0.59
Output  | 0.00011516 | 0.00011516 | 0.00011516 |   0.0 |  0.00
Modify  | 0.47312    | 0.47312    | 0.47312    |   0.0 |  0.74
Other   |            | 0.1296     |            |       |  0.20

Nlocal:    19652 ave 19652 max 19652 min
Histogram: 1 0 0 0 0 0 0 0 0 0
Nghost:    19882 ave 19882 max 19882 min
Histogram: 1 0 0 0 0 0 0 0 0 0
Neighs:    1.80446e+06 ave 1.80446e+06 max 1.80446e+06 min
Histogram: 1 0 0 0 0 0 0 0 0 0

Total # of neighbors = 1804463
Ave neighs/atom = 91.8208
Neighbor list builds = 495
Dangerous builds not checked
Setting up Verlet run ...
  Unit style    : metal
  Current step  : 54495
  Time step     : 0.001
Per MPI rank memory allocation (min/avg/max) = 19.34 | 19.34 | 19.34 Mbytes
Step Temp Press TotEng PotEng Enthalpy Volume 
   54495    1707.0938     141.8855   -57373.985   -61710.159   -57349.844    272605.68 
   55000    1698.5797   -232.62913   -57435.908   -61750.455   -57475.475    272503.85 
Loop time of 65.3323 on 1 procs for 505 steps with 19652 atoms

Performance: 0.668 ns/day, 35.936 hours/ns, 7.730 timesteps/s
99.8% CPU use with 1 MPI tasks x no OpenMP threads

MPI task timing breakdown:
Section |  min time  |  avg time  |  max time  |%varavg| %total
---------------------------------------------------------------
Pair    | 35.071     | 35.071     | 35.071     |   0.0 | 53.68
Neigh   | 29.1       | 29.1       | 29.1       |   0.0 | 44.54
Comm    | 0.38004    | 0.38004    | 0.38004    |   0.0 |  0.58
Output  | 0.16849    | 0.16849    | 0.16849    |   0.0 |  0.26
Modify  | 0.48092    | 0.48092    | 0.48092    |   0.0 |  0.74
Other   |            | 0.1314     |            |       |  0.20

Nlocal:    19652 ave 19652 max 19652 min
Histogram: 1 0 0 0 0 0 0 0 0 0
Nghost:    19903 ave 19903 max 19903 min
Histogram: 1 0 0 0 0 0 0 0 0 0
Neighs:    1.8053e+06 ave 1.8053e+06 max 1.8053e+06 min
Histogram: 1 0 0 0 0 0 0 0 0 0

Total # of neighbors = 1805298
Ave neighs/atom = 91.8633
Neighbor list builds = 505
Dangerous builds not checked
Setting up Verlet run ...
  Unit style    : metal
  Current step  : 55000
  Time step     : 0.001
Per MPI rank memory allocation (min/avg/max) = 19.34 | 19.34 | 19.34 Mbytes
Step Temp Press TotEng PotEng Enthalpy Volume 
   55000    1698.5797   -232.62913   -57435.908   -61750.455   -57475.475    272503.85 
   55495    1667.1132    618.83525   -57691.426   -61926.045   -57586.706    271121.94 
Loop time of 68.1785 on 1 procs for 495 steps with 19652 atoms

Performance: 0.627 ns/day, 38.260 hours/ns, 7.260 timesteps/s
100.0% CPU use with 1 MPI tasks x no OpenMP threads

MPI task timing breakdown:
Section |  min time  |  avg time  |  max time  |%varavg| %total
---------------------------------------------------------------
Pair    | 36.967     | 36.967     | 36.967     |   0.0 | 54.22
Neigh   | 30.162     | 30.162     | 30.162     |   0.0 | 44.24
Comm    | 0.40338    | 0.40338    | 0.40338    |   0.0 |  0.59
Output  | 0.00018001 | 0.00018001 | 0.00018001 |   0.0 |  0.00
Modify  | 0.50516    | 0.50516    | 0.50516    |   0.0 |  0.74
Other   |            | 0.1401     |            |       |  0.21

Nlocal:    19652 ave 19652 max 19652 min
Histogram: 1 0 0 0 0 0 0 0 0 0
Nghost:    19847 ave 19847 max 19847 min
Histogram: 1 0 0 0 0 0 0 0 0 0
Neighs:    1.81439e+06 ave 1.81439e+06 max 1.81439e+06 min
Histogram: 1 0 0 0 0 0 0 0 0 0

Total # of neighbors = 1814394
Ave neighs/atom = 92.3262
Neighbor list builds = 495
Dangerous builds not checked
Setting up Verlet run ...
  Unit style    : metal
  Current step  : 55495
  Time step     : 0.001
Per MPI rank memory allocation (min/avg/max) = 19.34 | 19.34 | 19.34 Mbytes
Step Temp Press TotEng PotEng Enthalpy Volume 
   55495    1667.1132    618.83525   -57691.426   -61926.045   -57586.706    271121.94 
   56000     1641.481    114.57309   -57782.899    -61952.41   -57763.518    271010.26 
Loop time of 75.9095 on 1 procs for 505 steps with 19652 atoms

Performance: 0.575 ns/day, 41.754 hours/ns, 6.653 timesteps/s
99.9% CPU use with 1 MPI tasks x no OpenMP threads

MPI task timing breakdown:
Section |  min time  |  avg time  |  max time  |%varavg| %total
---------------------------------------------------------------
Pair    | 41.326     | 41.326     | 41.326     |   0.0 | 54.44
Neigh   | 33.22      | 33.22      | 33.22      |   0.0 | 43.76
Comm    | 0.47111    | 0.47111    | 0.47111    |   0.0 |  0.62
Output  | 0.14912    | 0.14912    | 0.14912    |   0.0 |  0.20
Modify  | 0.57141    | 0.57141    | 0.57141    |   0.0 |  0.75
Other   |            | 0.1715     |            |       |  0.23

Nlocal:    19652 ave 19652 max 19652 min
Histogram: 1 0 0 0 0 0 0 0 0 0
Nghost:    19898 ave 19898 max 19898 min
Histogram: 1 0 0 0 0 0 0 0 0 0
Neighs:    1.81527e+06 ave 1.81527e+06 max 1.81527e+06 min
Histogram: 1 0 0 0 0 0 0 0 0 0

Total # of neighbors = 1815267
Ave neighs/atom = 92.3706
Neighbor list builds = 505
Dangerous builds not checked
Setting up Verlet run ...
  Unit style    : metal
  Current step  : 56000
  Time step     : 0.001
Per MPI rank memory allocation (min/avg/max) = 19.34 | 19.34 | 19.34 Mbytes
Step Temp Press TotEng PotEng Enthalpy Volume 
   56000     1641.481    114.57309   -57782.899    -61952.41   -57763.518    271010.26 
   56495    1611.0515    490.44052   -57976.975   -62069.192   -57894.321     270014.4 
Loop time of 68.434 on 1 procs for 495 steps with 19652 atoms

Performance: 0.625 ns/day, 38.403 hours/ns, 7.233 timesteps/s
100.0% CPU use with 1 MPI tasks x no OpenMP threads

MPI task timing breakdown:
Section |  min time  |  avg time  |  max time  |%varavg| %total
---------------------------------------------------------------
Pair    | 37.219     | 37.219     | 37.219     |   0.0 | 54.39
Neigh   | 30.133     | 30.133     | 30.133     |   0.0 | 44.03
Comm    | 0.41735    | 0.41735    | 0.41735    |   0.0 |  0.61
Output  | 0.00016904 | 0.00016904 | 0.00016904 |   0.0 |  0.00
Modify  | 0.50795    | 0.50795    | 0.50795    |   0.0 |  0.74
Other   |            | 0.157      |            |       |  0.23

Nlocal:    19652 ave 19652 max 19652 min
Histogram: 1 0 0 0 0 0 0 0 0 0
Nghost:    19884 ave 19884 max 19884 min
Histogram: 1 0 0 0 0 0 0 0 0 0
Neighs:    1.82136e+06 ave 1.82136e+06 max 1.82136e+06 min
Histogram: 1 0 0 0 0 0 0 0 0 0

Total # of neighbors = 1821359
Ave neighs/atom = 92.6806
Neighbor list builds = 495
Dangerous builds not checked
Setting up Verlet run ...
  Unit style    : metal
  Current step  : 56495
  Time step     : 0.001
Per MPI rank memory allocation (min/avg/max) = 19.34 | 19.34 | 19.34 Mbytes
Step Temp Press TotEng PotEng Enthalpy Volume 
   56495    1611.0515    490.44052   -57976.975   -62069.192   -57894.321     270014.4 
   57000    1607.8893   -241.62964   -58122.619   -62206.805   -58163.244     269371.7 
Loop time of 73.3133 on 1 procs for 505 steps with 19652 atoms

Performance: 0.595 ns/day, 40.326 hours/ns, 6.888 timesteps/s
100.0% CPU use with 1 MPI tasks x no OpenMP threads

MPI task timing breakdown:
Section |  min time  |  avg time  |  max time  |%varavg| %total
---------------------------------------------------------------
Pair    | 40.063     | 40.063     | 40.063     |   0.0 | 54.65
Neigh   | 31.999     | 31.999     | 31.999     |   0.0 | 43.65
Comm    | 0.45504    | 0.45504    | 0.45504    |   0.0 |  0.62
Output  | 0.082032   | 0.082032   | 0.082032   |   0.0 |  0.11
Modify  | 0.54771    | 0.54771    | 0.54771    |   0.0 |  0.75
Other   |            | 0.166      |            |       |  0.23

Nlocal:    19652 ave 19652 max 19652 min
Histogram: 1 0 0 0 0 0 0 0 0 0
Nghost:    19923 ave 19923 max 19923 min
Histogram: 1 0 0 0 0 0 0 0 0 0
Neighs:    1.82526e+06 ave 1.82526e+06 max 1.82526e+06 min
Histogram: 1 0 0 0 0 0 0 0 0 0

Total # of neighbors = 1825258
Ave neighs/atom = 92.879
Neighbor list builds = 505
Dangerous builds not checked
Setting up Verlet run ...
  Unit style    : metal
  Current step  : 57000
  Time step     : 0.001
Per MPI rank memory allocation (min/avg/max) = 19.34 | 19.34 | 19.34 Mbytes
Step Temp Press TotEng PotEng Enthalpy Volume 
   57000    1607.8893   -241.62964   -58122.619   -62206.805   -58163.244     269371.7 
   57495    1570.5895    969.30563   -58304.811   -62294.252   -58142.383    268479.65 
Loop time of 69.2107 on 1 procs for 495 steps with 19652 atoms

Performance: 0.618 ns/day, 38.839 hours/ns, 7.152 timesteps/s
100.0% CPU use with 1 MPI tasks x no OpenMP threads

MPI task timing breakdown:
Section |  min time  |  avg time  |  max time  |%varavg| %total
---------------------------------------------------------------
Pair    | 37.751     | 37.751     | 37.751     |   0.0 | 54.54
Neigh   | 30.367     | 30.367     | 30.367     |   0.0 | 43.88
Comm    | 0.42464    | 0.42464    | 0.42464    |   0.0 |  0.61
Output  | 0.00013804 | 0.00013804 | 0.00013804 |   0.0 |  0.00
Modify  | 0.51218    | 0.51218    | 0.51218    |   0.0 |  0.74
Other   |            | 0.1555     |            |       |  0.22

Nlocal:    19652 ave 19652 max 19652 min
Histogram: 1 0 0 0 0 0 0 0 0 0
Nghost:    19952 ave 19952 max 19952 min
Histogram: 1 0 0 0 0 0 0 0 0 0
Neighs:    1.83094e+06 ave 1.83094e+06 max 1.83094e+06 min
Histogram: 1 0 0 0 0 0 0 0 0 0

Total # of neighbors = 1830942
Ave neighs/atom = 93.1682
Neighbor list builds = 495
Dangerous builds not checked
Setting up Verlet run ...
  Unit style    : metal
  Current step  : 57495
  Time step     : 0.001
Per MPI rank memory allocation (min/avg/max) = 19.34 | 19.34 | 19.34 Mbytes
Step Temp Press TotEng PotEng Enthalpy Volume 
   57495    1570.5895    969.30563   -58304.811   -62294.252   -58142.383    268479.65 
   58000    1547.1956    360.60366   -58452.366   -62382.384    -58392.05    267988.34 
Loop time of 74.9278 on 1 procs for 505 steps with 19652 atoms

Performance: 0.582 ns/day, 41.214 hours/ns, 6.740 timesteps/s
100.0% CPU use with 1 MPI tasks x no OpenMP threads

MPI task timing breakdown:
Section |  min time  |  avg time  |  max time  |%varavg| %total
---------------------------------------------------------------
Pair    | 41.04      | 41.04      | 41.04      |   0.0 | 54.77
Neigh   | 32.651     | 32.651     | 32.651     |   0.0 | 43.58
Comm    | 0.45889    | 0.45889    | 0.45889    |   0.0 |  0.61
Output  | 0.059483   | 0.059483   | 0.059483   |   0.0 |  0.08
Modify  | 0.55213    | 0.55213    | 0.55213    |   0.0 |  0.74
Other   |            | 0.1664     |            |       |  0.22

Nlocal:    19652 ave 19652 max 19652 min
Histogram: 1 0 0 0 0 0 0 0 0 0
Nghost:    19965 ave 19965 max 19965 min
Histogram: 1 0 0 0 0 0 0 0 0 0
Neighs:    1.8344e+06 ave 1.8344e+06 max 1.8344e+06 min
Histogram: 1 0 0 0 0 0 0 0 0 0

Total # of neighbors = 1834403
Ave neighs/atom = 93.3443
Neighbor list builds = 505
Dangerous builds not checked
Setting up Verlet run ...
  Unit style    : metal
  Current step  : 58000
  Time step     : 0.001
Per MPI rank memory allocation (min/avg/max) = 19.34 | 19.34 | 19.34 Mbytes
Step Temp Press TotEng PotEng Enthalpy Volume 
   58000    1547.1956    360.60366   -58452.366   -62382.384    -58392.05    267988.34 
   58495    1525.3782    711.17636     -58609.9     -62484.5   -58491.294    267203.11 
Loop time of 70.0622 on 1 procs for 495 steps with 19652 atoms

Performance: 0.610 ns/day, 39.317 hours/ns, 7.065 timesteps/s
100.0% CPU use with 1 MPI tasks x no OpenMP threads

MPI task timing breakdown:
Section |  min time  |  avg time  |  max time  |%varavg| %total
---------------------------------------------------------------
Pair    | 38.283     | 38.283     | 38.283     |   0.0 | 54.64
Neigh   | 30.67      | 30.67      | 30.67      |   0.0 | 43.78
Comm    | 0.42855    | 0.42855    | 0.42855    |   0.0 |  0.61
Output  | 0.00013614 | 0.00013614 | 0.00013614 |   0.0 |  0.00
Modify  | 0.52483    | 0.52483    | 0.52483    |   0.0 |  0.75
Other   |            | 0.1561     |            |       |  0.22

Nlocal:    19652 ave 19652 max 19652 min
Histogram: 1 0 0 0 0 0 0 0 0 0
Nghost:    19981 ave 19981 max 19981 min
Histogram: 1 0 0 0 0 0 0 0 0 0
Neighs:    1.83933e+06 ave 1.83933e+06 max 1.83933e+06 min
Histogram: 1 0 0 0 0 0 0 0 0 0

Total # of neighbors = 1839333
Ave neighs/atom = 93.5952
Neighbor list builds = 495
Dangerous builds not checked
Setting up Verlet run ...
  Unit style    : metal
  Current step  : 58495
  Time step     : 0.001
Per MPI rank memory allocation (min/avg/max) = 19.34 | 19.34 | 19.34 Mbytes
Step Temp Press TotEng PotEng Enthalpy Volume 
   58495    1525.3782    711.17636     -58609.9     -62484.5   -58491.294    267203.11 
   59000    1503.2378   -588.74631   -58781.477   -62599.838   -58879.511    266784.56 
Loop time of 72.2021 on 1 procs for 505 steps with 19652 atoms

Performance: 0.604 ns/day, 39.715 hours/ns, 6.994 timesteps/s
100.0% CPU use with 1 MPI tasks x no OpenMP threads

MPI task timing breakdown:
Section |  min time  |  avg time  |  max time  |%varavg| %total
---------------------------------------------------------------
Pair    | 39.493     | 39.493     | 39.493     |   0.0 | 54.70
Neigh   | 31.505     | 31.505     | 31.505     |   0.0 | 43.63
Comm    | 0.44114    | 0.44114    | 0.44114    |   0.0 |  0.61
Output  | 0.060642   | 0.060642   | 0.060642   |   0.0 |  0.08
Modify  | 0.54124    | 0.54124    | 0.54124    |   0.0 |  0.75
Other   |            | 0.1609     |            |       |  0.22

Nlocal:    19652 ave 19652 max 19652 min
Histogram: 1 0 0 0 0 0 0 0 0 0
Nghost:    20060 ave 20060 max 20060 min
Histogram: 1 0 0 0 0 0 0 0 0 0
Neighs:    1.84195e+06 ave 1.84195e+06 max 1.84195e+06 min
Histogram: 1 0 0 0 0 0 0 0 0 0

Total # of neighbors = 1841948
Ave neighs/atom = 93.7283
Neighbor list builds = 505
Dangerous builds not checked
Setting up Verlet run ...
  Unit style    : metal
  Current step  : 59000
  Time step     : 0.001
Per MPI rank memory allocation (min/avg/max) = 19.34 | 19.34 | 19.34 Mbytes
Step Temp Press TotEng PotEng Enthalpy Volume 
   59000    1503.2378   -588.74631   -58781.477   -62599.838   -58879.511    266784.56 
   59495    1477.2167     164.0475   -58945.299   -62697.564   -58918.068    265950.57 
Loop time of 65.6107 on 1 procs for 495 steps with 19652 atoms

Performance: 0.652 ns/day, 36.819 hours/ns, 7.545 timesteps/s
100.0% CPU use with 1 MPI tasks x no OpenMP threads

MPI task timing breakdown:
Section |  min time  |  avg time  |  max time  |%varavg| %total
---------------------------------------------------------------
Pair    | 35.684     | 35.684     | 35.684     |   0.0 | 54.39
Neigh   | 28.914     | 28.914     | 28.914     |   0.0 | 44.07
Comm    | 0.39052    | 0.39052    | 0.39052    |   0.0 |  0.60
Output  | 0.00012708 | 0.00012708 | 0.00012708 |   0.0 |  0.00
Modify  | 0.48323    | 0.48323    | 0.48323    |   0.0 |  0.74
Other   |            | 0.1386     |            |       |  0.21

Nlocal:    19652 ave 19652 max 19652 min
Histogram: 1 0 0 0 0 0 0 0 0 0
Nghost:    20033 ave 20033 max 20033 min
Histogram: 1 0 0 0 0 0 0 0 0 0
Neighs:    1.84821e+06 ave 1.84821e+06 max 1.84821e+06 min
Histogram: 1 0 0 0 0 0 0 0 0 0

Total # of neighbors = 1848209
Ave neighs/atom = 94.0469
Neighbor list builds = 495
Dangerous builds not checked
Setting up Verlet run ...
  Unit style    : metal
  Current step  : 59495
  Time step     : 0.001
Per MPI rank memory allocation (min/avg/max) = 19.34 | 19.34 | 19.34 Mbytes
Step Temp Press TotEng PotEng Enthalpy Volume 
   59495    1477.2167     164.0475   -58945.299   -62697.564   -58918.068    265950.57 
   60000     1441.742   -65.580996   -59066.143   -62728.299   -59077.019    265721.82 
Loop time of 68.8175 on 1 procs for 505 steps with 19652 atoms

Performance: 0.634 ns/day, 37.853 hours/ns, 7.338 timesteps/s
99.7% CPU use with 1 MPI tasks x no OpenMP threads

MPI task timing breakdown:
Section |  min time  |  avg time  |  max time  |%varavg| %total
---------------------------------------------------------------
Pair    | 37.532     | 37.532     | 37.532     |   0.0 | 54.54
Neigh   | 30.175     | 30.175     | 30.175     |   0.0 | 43.85
Comm    | 0.40375    | 0.40375    | 0.40375    |   0.0 |  0.59
Output  | 0.060663   | 0.060663   | 0.060663   |   0.0 |  0.09
Modify  | 0.50439    | 0.50439    | 0.50439    |   0.0 |  0.73
Other   |            | 0.1413     |            |       |  0.21

Nlocal:    19652 ave 19652 max 19652 min
Histogram: 1 0 0 0 0 0 0 0 0 0
Nghost:    20038 ave 20038 max 20038 min
Histogram: 1 0 0 0 0 0 0 0 0 0
Neighs:    1.84951e+06 ave 1.84951e+06 max 1.84951e+06 min
Histogram: 1 0 0 0 0 0 0 0 0 0

Total # of neighbors = 1849514
Ave neighs/atom = 94.1133
Neighbor list builds = 505
Dangerous builds not checked
Setting up Verlet run ...
  Unit style    : metal
  Current step  : 60000
  Time step     : 0.001
Per MPI rank memory allocation (min/avg/max) = 19.34 | 19.34 | 19.34 Mbytes
Step Temp Press TotEng PotEng Enthalpy Volume 
   60000     1441.742   -65.580996   -59066.143   -62728.299   -59077.019    265721.82 
   60495    1410.7613    375.05859    -59281.96   -62865.423   -59219.981    264764.79 
Loop time of 68.8768 on 1 procs for 495 steps with 19652 atoms

Performance: 0.621 ns/day, 38.651 hours/ns, 7.187 timesteps/s
100.0% CPU use with 1 MPI tasks x no OpenMP threads

MPI task timing breakdown:
Section |  min time  |  avg time  |  max time  |%varavg| %total
---------------------------------------------------------------
Pair    | 37.712     | 37.712     | 37.712     |   0.0 | 54.75
Neigh   | 30.083     | 30.083     | 30.083     |   0.0 | 43.68
Comm    | 0.41781    | 0.41781    | 0.41781    |   0.0 |  0.61
Output  | 0.00012994 | 0.00012994 | 0.00012994 |   0.0 |  0.00
Modify  | 0.50961    | 0.50961    | 0.50961    |   0.0 |  0.74
Other   |            | 0.1538     |            |       |  0.22

Nlocal:    19652 ave 19652 max 19652 min
Histogram: 1 0 0 0 0 0 0 0 0 0
Nghost:    20114 ave 20114 max 20114 min
Histogram: 1 0 0 0 0 0 0 0 0 0
Neighs:    1.85643e+06 ave 1.85643e+06 max 1.85643e+06 min
Histogram: 1 0 0 0 0 0 0 0 0 0

Total # of neighbors = 1856427
Ave neighs/atom = 94.465
Neighbor list builds = 495
Dangerous builds not checked
Setting up Verlet run ...
  Unit style    : metal
  Current step  : 60495
  Time step     : 0.001
Per MPI rank memory allocation (min/avg/max) = 19.34 | 19.34 | 19.34 Mbytes
Step Temp Press TotEng PotEng Enthalpy Volume 
   60495    1410.7613    375.05859    -59281.96   -62865.423   -59219.981    264764.79 
   61000    1393.1466    913.17541   -59390.714   -62929.434   -59240.155     264157.6 
Loop time of 71.2158 on 1 procs for 505 steps with 19652 atoms

Performance: 0.613 ns/day, 39.173 hours/ns, 7.091 timesteps/s
100.0% CPU use with 1 MPI tasks x no OpenMP threads

MPI task timing breakdown:
Section |  min time  |  avg time  |  max time  |%varavg| %total
---------------------------------------------------------------
Pair    | 39.008     | 39.008     | 39.008     |   0.0 | 54.77
Neigh   | 31.009     | 31.009     | 31.009     |   0.0 | 43.54
Comm    | 0.43655    | 0.43655    | 0.43655    |   0.0 |  0.61
Output  | 0.067845   | 0.067845   | 0.067845   |   0.0 |  0.10
Modify  | 0.53286    | 0.53286    | 0.53286    |   0.0 |  0.75
Other   |            | 0.1621     |            |       |  0.23

Nlocal:    19652 ave 19652 max 19652 min
Histogram: 1 0 0 0 0 0 0 0 0 0
Nghost:    20148 ave 20148 max 20148 min
Histogram: 1 0 0 0 0 0 0 0 0 0
Neighs:    1.85942e+06 ave 1.85942e+06 max 1.85942e+06 min
Histogram: 1 0 0 0 0 0 0 0 0 0

Total # of neighbors = 1859423
Ave neighs/atom = 94.6175
Neighbor list builds = 505
Dangerous builds not checked
Setting up Verlet run ...
  Unit style    : metal
  Current step  : 61000
  Time step     : 0.001
Per MPI rank memory allocation (min/avg/max) = 19.34 | 19.34 | 19.34 Mbytes
Step Temp Press TotEng PotEng Enthalpy Volume 
   61000    1393.1466    913.17541   -59390.714   -62929.434   -59240.155     264157.6 
   61495    1371.7825    806.70652   -59588.229   -63072.682   -59455.664    263284.55 
Loop time of 71.0074 on 1 procs for 495 steps with 19652 atoms

Performance: 0.602 ns/day, 39.847 hours/ns, 6.971 timesteps/s
100.0% CPU use with 1 MPI tasks x no OpenMP threads

MPI task timing breakdown:
Section |  min time  |  avg time  |  max time  |%varavg| %total
---------------------------------------------------------------
Pair    | 39.038     | 39.038     | 39.038     |   0.0 | 54.98
Neigh   | 30.856     | 30.856     | 30.856     |   0.0 | 43.46
Comm    | 0.43206    | 0.43206    | 0.43206    |   0.0 |  0.61
Output  | 0.00019789 | 0.00019789 | 0.00019789 |   0.0 |  0.00
Modify  | 0.52565    | 0.52565    | 0.52565    |   0.0 |  0.74
Other   |            | 0.1551     |            |       |  0.22

Nlocal:    19652 ave 19652 max 19652 min
Histogram: 1 0 0 0 0 0 0 0 0 0
Nghost:    20107 ave 20107 max 20107 min
Histogram: 1 0 0 0 0 0 0 0 0 0
Neighs:    1.86616e+06 ave 1.86616e+06 max 1.86616e+06 min
Histogram: 1 0 0 0 0 0 0 0 0 0

Total # of neighbors = 1866155
Ave neighs/atom = 94.9601
Neighbor list builds = 495
Dangerous builds not checked
Setting up Verlet run ...
  Unit style    : metal
  Current step  : 61495
  Time step     : 0.001
Per MPI rank memory allocation (min/avg/max) = 19.34 | 19.34 | 19.34 Mbytes
Step Temp Press TotEng PotEng Enthalpy Volume 
   61495    1371.7825    806.70652   -59588.229   -63072.682   -59455.664    263284.55 
   62000    1349.9844   -478.79139   -59714.643   -63143.726   -59793.268    263102.13 
Loop time of 71.5589 on 1 procs for 505 steps with 19652 atoms

Performance: 0.610 ns/day, 39.361 hours/ns, 7.057 timesteps/s
100.0% CPU use with 1 MPI tasks x no OpenMP threads

MPI task timing breakdown:
Section |  min time  |  avg time  |  max time  |%varavg| %total
---------------------------------------------------------------
Pair    | 39.301     | 39.301     | 39.301     |   0.0 | 54.92
Neigh   | 31.073     | 31.073     | 31.073     |   0.0 | 43.42
Comm    | 0.44072    | 0.44072    | 0.44072    |   0.0 |  0.62
Output  | 0.059647   | 0.059647   | 0.059647   |   0.0 |  0.08
Modify  | 0.52689    | 0.52689    | 0.52689    |   0.0 |  0.74
Other   |            | 0.1581     |            |       |  0.22

Nlocal:    19652 ave 19652 max 19652 min
Histogram: 1 0 0 0 0 0 0 0 0 0
Nghost:    20181 ave 20181 max 20181 min
Histogram: 1 0 0 0 0 0 0 0 0 0
Neighs:    1.86669e+06 ave 1.86669e+06 max 1.86669e+06 min
Histogram: 1 0 0 0 0 0 0 0 0 0

Total # of neighbors = 1866688
Ave neighs/atom = 94.9872
Neighbor list builds = 505
Dangerous builds not checked
Setting up Verlet run ...
  Unit style    : metal
  Current step  : 62000
  Time step     : 0.001
Per MPI rank memory allocation (min/avg/max) = 19.34 | 19.34 | 19.34 Mbytes
Step Temp Press TotEng PotEng Enthalpy Volume 
   62000    1349.9844   -478.79139   -59714.643   -63143.726   -59793.268    263102.13 
   62495    1305.3304    135.66131   -59929.723   -63245.381   -59907.514    262292.41 
Loop time of 67.5735 on 1 procs for 495 steps with 19652 atoms

Performance: 0.633 ns/day, 37.920 hours/ns, 7.325 timesteps/s
100.0% CPU use with 1 MPI tasks x no OpenMP threads

MPI task timing breakdown:
Section |  min time  |  avg time  |  max time  |%varavg| %total
---------------------------------------------------------------
Pair    | 37.009     | 37.009     | 37.009     |   0.0 | 54.77
Neigh   | 29.526     | 29.526     | 29.526     |   0.0 | 43.70
Comm    | 0.39962    | 0.39962    | 0.39962    |   0.0 |  0.59
Output  | 0.00011802 | 0.00011802 | 0.00011802 |   0.0 |  0.00
Modify  | 0.49755    | 0.49755    | 0.49755    |   0.0 |  0.74
Other   |            | 0.1409     |            |       |  0.21

Nlocal:    19652 ave 19652 max 19652 min
Histogram: 1 0 0 0 0 0 0 0 0 0
Nghost:    20209 ave 20209 max 20209 min
Histogram: 1 0 0 0 0 0 0 0 0 0
Neighs:    1.87243e+06 ave 1.87243e+06 max 1.87243e+06 min
Histogram: 1 0 0 0 0 0 0 0 0 0

Total # of neighbors = 1872429
Ave neighs/atom = 95.2793
Neighbor list builds = 495
Dangerous builds not checked
Setting up Verlet run ...
  Unit style    : metal
  Current step  : 62495
  Time step     : 0.001
Per MPI rank memory allocation (min/avg/max) = 19.34 | 19.34 | 19.34 Mbytes
Step Temp Press TotEng PotEng Enthalpy Volume 
   62495    1305.3304    135.66131   -59929.723   -63245.381   -59907.514    262292.41 
   63000    1302.6008   -425.85683   -60062.494   -63371.219   -60132.074    261778.06 
Loop time of 65.3221 on 1 procs for 505 steps with 19652 atoms

Performance: 0.668 ns/day, 35.931 hours/ns, 7.731 timesteps/s
99.8% CPU use with 1 MPI tasks x no OpenMP threads

MPI task timing breakdown:
Section |  min time  |  avg time  |  max time  |%varavg| %total
---------------------------------------------------------------
Pair    | 35.562     | 35.562     | 35.562     |   0.0 | 54.44
Neigh   | 28.583     | 28.583     | 28.583     |   0.0 | 43.76
Comm    | 0.37318    | 0.37318    | 0.37318    |   0.0 |  0.57
Output  | 0.20551    | 0.20551    | 0.20551    |   0.0 |  0.31
Modify  | 0.47175    | 0.47175    | 0.47175    |   0.0 |  0.72
Other   |            | 0.126      |            |       |  0.19

Nlocal:    19652 ave 19652 max 19652 min
Histogram: 1 0 0 0 0 0 0 0 0 0
Nghost:    20263 ave 20263 max 20263 min
Histogram: 1 0 0 0 0 0 0 0 0 0
Neighs:    1.87548e+06 ave 1.87548e+06 max 1.87548e+06 min
Histogram: 1 0 0 0 0 0 0 0 0 0

Total # of neighbors = 1875478
Ave neighs/atom = 95.4345
Neighbor list builds = 505
Dangerous builds not checked
Setting up Verlet run ...
  Unit style    : metal
  Current step  : 63000
  Time step     : 0.001
Per MPI rank memory allocation (min/avg/max) = 19.34 | 19.34 | 19.34 Mbytes
Step Temp Press TotEng PotEng Enthalpy Volume 
   63000    1302.6008   -425.85683   -60062.494   -63371.219   -60132.074    261778.06 
   63495    1269.4594     447.4488   -60226.181   -63450.724   -60153.273    261063.63 
Loop time of 65.7615 on 1 procs for 495 steps with 19652 atoms

Performance: 0.650 ns/day, 36.903 hours/ns, 7.527 timesteps/s
99.5% CPU use with 1 MPI tasks x no OpenMP threads

MPI task timing breakdown:
Section |  min time  |  avg time  |  max time  |%varavg| %total
---------------------------------------------------------------
Pair    | 35.99      | 35.99      | 35.99      |   0.0 | 54.73
Neigh   | 28.775     | 28.775     | 28.775     |   0.0 | 43.76
Comm    | 0.38288    | 0.38288    | 0.38288    |   0.0 |  0.58
Output  | 0.00011778 | 0.00011778 | 0.00011778 |   0.0 |  0.00
Modify  | 0.48059    | 0.48059    | 0.48059    |   0.0 |  0.73
Other   |            | 0.1328     |            |       |  0.20

Nlocal:    19652 ave 19652 max 19652 min
Histogram: 1 0 0 0 0 0 0 0 0 0
Nghost:    20174 ave 20174 max 20174 min
Histogram: 1 0 0 0 0 0 0 0 0 0
Neighs:    1.88056e+06 ave 1.88056e+06 max 1.88056e+06 min
Histogram: 1 0 0 0 0 0 0 0 0 0

Total # of neighbors = 1880557
Ave neighs/atom = 95.6929
Neighbor list builds = 495
Dangerous builds not checked
Setting up Verlet run ...
  Unit style    : metal
  Current step  : 63495
  Time step     : 0.001
Per MPI rank memory allocation (min/avg/max) = 19.34 | 19.34 | 19.34 Mbytes
Step Temp Press TotEng PotEng Enthalpy Volume 
   63495    1269.4594     447.4488   -60226.181   -63450.724   -60153.273    261063.63 
   64000    1254.1826   -1356.3945   -60380.876   -63566.614   -60601.571    260685.69 
Loop time of 67.6612 on 1 procs for 505 steps with 19652 atoms

Performance: 0.645 ns/day, 37.217 hours/ns, 7.464 timesteps/s
99.0% CPU use with 1 MPI tasks x no OpenMP threads

MPI task timing breakdown:
Section |  min time  |  avg time  |  max time  |%varavg| %total
---------------------------------------------------------------
Pair    | 36.87      | 36.87      | 36.87      |   0.0 | 54.49
Neigh   | 29.478     | 29.478     | 29.478     |   0.0 | 43.57
Comm    | 0.39114    | 0.39114    | 0.39114    |   0.0 |  0.58
Output  | 0.29631    | 0.29631    | 0.29631    |   0.0 |  0.44
Modify  | 0.4907     | 0.4907     | 0.4907     |   0.0 |  0.73
Other   |            | 0.1348     |            |       |  0.20

Nlocal:    19652 ave 19652 max 19652 min
Histogram: 1 0 0 0 0 0 0 0 0 0
Nghost:    20195 ave 20195 max 20195 min
Histogram: 1 0 0 0 0 0 0 0 0 0
Neighs:    1.88363e+06 ave 1.88363e+06 max 1.88363e+06 min
Histogram: 1 0 0 0 0 0 0 0 0 0

Total # of neighbors = 1883627
Ave neighs/atom = 95.8491
Neighbor list builds = 505
Dangerous builds not checked
Setting up Verlet run ...
  Unit style    : metal
  Current step  : 64000
  Time step     : 0.001
Per MPI rank memory allocation (min/avg/max) = 19.34 | 19.34 | 19.34 Mbytes
Step Temp Press TotEng PotEng Enthalpy Volume 
   64000    1254.1826   -1356.3945   -60380.876   -63566.614   -60601.571    260685.69 
[...]

Performance: 0.537 ns/day, 44.713 hours/ns, 6.212 timesteps/s
99.8% CPU use with 1 MPI tasks x no OpenMP threads

MPI task timing breakdown:
Section |  min time  |  avg time  |  max time  |%varavg| %total
---------------------------------------------------------------
Pair    | 43.069     | 43.069     | 43.069     |   0.0 | 54.05
Neigh   | 35.44      | 35.44      | 35.44      |   0.0 | 44.48
Comm    | 0.44728    | 0.44728    | 0.44728    |   0.0 |  0.56
Output  | 0.00012302 | 0.00012302 | 0.00012302 |   0.0 |  0.00
Modify  | 0.56424    | 0.56424    | 0.56424    |   0.0 |  0.71
Other   |            | 0.1586     |            |       |  0.20

Nlocal:    19652 ave 19652 max 19652 min
Histogram: 1 0 0 0 0 0 0 0 0 0
Nghost:    20876 ave 20876 max 20876 min
Histogram: 1 0 0 0 0 0 0 0 0 0
Neighs:    2.02822e+06 ave 2.02822e+06 max 2.02822e+06 min
Histogram: 1 0 0 0 0 0 0 0 0 0

Total # of neighbors = 2028216
Ave neighs/atom = 103.207
Neighbor list builds = 495
Dangerous builds not checked
Setting up Verlet run ...
  Unit style    : metal
  Current step  : 80495
  Time step     : 0.001
Per MPI rank memory allocation (min/avg/max) = 19.35 | 19.35 | 19.35 Mbytes
Step Temp Press TotEng PotEng Enthalpy Volume 
   80495    420.03289    404.98949   -65809.999   -66876.921   -65748.937    241566.78 
   81000    398.62599    238.57826    -65952.73   -66965.276   -65916.819    241164.59 
Loop time of 87.1945 on 1 procs for 505 steps with 19652 atoms

Performance: 0.500 ns/day, 47.962 hours/ns, 5.792 timesteps/s
99.8% CPU use with 1 MPI tasks x no OpenMP threads

MPI task timing breakdown:
Section |  min time  |  avg time  |  max time  |%varavg| %total
---------------------------------------------------------------
Pair    | 47.26      | 47.26      | 47.26      |   0.0 | 54.20
Neigh   | 38.469     | 38.469     | 38.469     |   0.0 | 44.12
Comm    | 0.48715    | 0.48715    | 0.48715    |   0.0 |  0.56
Output  | 0.1869     | 0.1869     | 0.1869     |   0.0 |  0.21
Modify  | 0.61698    | 0.61698    | 0.61698    |   0.0 |  0.71
Other   |            | 0.1741     |            |       |  0.20

Nlocal:    19652 ave 19652 max 19652 min
Histogram: 1 0 0 0 0 0 0 0 0 0
Nghost:    20942 ave 20942 max 20942 min
Histogram: 1 0 0 0 0 0 0 0 0 0
Neighs:    2.03229e+06 ave 2.03229e+06 max 2.03229e+06 min
Histogram: 1 0 0 0 0 0 0 0 0 0

Total # of neighbors = 2032292
Ave neighs/atom = 103.414
Neighbor list builds = 505
Dangerous builds not checked
Setting up Verlet run ...
  Unit style    : metal
  Current step  : 81000
  Time step     : 0.001
Per MPI rank memory allocation (min/avg/max) = 19.35 | 19.35 | 19.35 Mbytes
Step Temp Press TotEng PotEng Enthalpy Volume 
   81000    398.62599    238.57826    -65952.73   -66965.276   -65916.819    241164.59 
   81495    370.22545    171.14356   -66099.134    -67039.54   -66073.415    240770.02 
Loop time of 84.1615 on 1 procs for 495 steps with 19652 atoms

Performance: 0.508 ns/day, 47.229 hours/ns, 5.882 timesteps/s
99.8% CPU use with 1 MPI tasks x no OpenMP threads

MPI task timing breakdown:
Section |  min time  |  avg time  |  max time  |%varavg| %total
---------------------------------------------------------------
Pair    | 45.685     | 45.685     | 45.685     |   0.0 | 54.28
Neigh   | 37.257     | 37.257     | 37.257     |   0.0 | 44.27
Comm    | 0.46357    | 0.46357    | 0.46357    |   0.0 |  0.55
Output  | 0.00015497 | 0.00015497 | 0.00015497 |   0.0 |  0.00
Modify  | 0.59041    | 0.59041    | 0.59041    |   0.0 |  0.70
Other   |            | 0.1655     |            |       |  0.20

Nlocal:    19652 ave 19652 max 19652 min
Histogram: 1 0 0 0 0 0 0 0 0 0
Nghost:    20925 ave 20925 max 20925 min
Histogram: 1 0 0 0 0 0 0 0 0 0
Neighs:    2.03653e+06 ave 2.03653e+06 max 2.03653e+06 min
Histogram: 1 0 0 0 0 0 0 0 0 0

Total # of neighbors = 2036530
Ave neighs/atom = 103.63
Neighbor list builds = 495
Dangerous builds not checked
Setting up Verlet run ...
  Unit style    : metal
  Current step  : 81495
  Time step     : 0.001
Per MPI rank memory allocation (min/avg/max) = 19.35 | 19.35 | 19.35 Mbytes
Step Temp Press TotEng PotEng Enthalpy Volume 
   81495    370.22545    171.14356   -66099.134    -67039.54   -66073.415    240770.02 
   82000    352.42507   -68.356948   -66235.717   -67130.908   -66245.971    240349.47 
Loop time of 80.4919 on 1 procs for 505 steps with 19652 atoms

Performance: 0.542 ns/day, 44.275 hours/ns, 6.274 timesteps/s
99.7% CPU use with 1 MPI tasks x no OpenMP threads

MPI task timing breakdown:
Section |  min time  |  avg time  |  max time  |%varavg| %total
---------------------------------------------------------------
Pair    | 43.587     | 43.587     | 43.587     |   0.0 | 54.15
Neigh   | 35.668     | 35.668     | 35.668     |   0.0 | 44.31
Comm    | 0.45154    | 0.45154    | 0.45154    |   0.0 |  0.56
Output  | 0.070306   | 0.070306   | 0.070306   |   0.0 |  0.09
Modify  | 0.55435    | 0.55435    | 0.55435    |   0.0 |  0.69
Other   |            | 0.16       |            |       |  0.20

Nlocal:    19652 ave 19652 max 19652 min
Histogram: 1 0 0 0 0 0 0 0 0 0
Nghost:    20956 ave 20956 max 20956 min
Histogram: 1 0 0 0 0 0 0 0 0 0
Neighs:    2.04019e+06 ave 2.04019e+06 max 2.04019e+06 min
Histogram: 1 0 0 0 0 0 0 0 0 0

Total # of neighbors = 2040187
Ave neighs/atom = 103.816
Neighbor list builds = 505
Dangerous builds not checked
Setting up Verlet run ...
  Unit style    : metal
  Current step  : 82000
  Time step     : 0.001
Per MPI rank memory allocation (min/avg/max) = 19.35 | 19.35 | 19.35 Mbytes
Step Temp Press TotEng PotEng Enthalpy Volume 
   82000    352.42507   -68.356948   -66235.717   -67130.908   -66245.971    240349.47 
   82495    321.35613   -538.11218   -66374.164   -67190.438   -66454.802    240090.96 
Loop time of 92.0357 on 1 procs for 495 steps with 19652 atoms

Performance: 0.465 ns/day, 51.647 hours/ns, 5.378 timesteps/s
99.7% CPU use with 1 MPI tasks x no OpenMP threads

MPI task timing breakdown:
Section |  min time  |  avg time  |  max time  |%varavg| %total
---------------------------------------------------------------
Pair    | 50.31      | 50.31      | 50.31      |   0.0 | 54.66
Neigh   | 40.356     | 40.356     | 40.356     |   0.0 | 43.85
Comm    | 0.52989    | 0.52989    | 0.52989    |   0.0 |  0.58
Output  | 0.00011897 | 0.00011897 | 0.00011897 |   0.0 |  0.00
Modify  | 0.65532    | 0.65532    | 0.65532    |   0.0 |  0.71
Other   |            | 0.1842     |            |       |  0.20

Nlocal:    19652 ave 19652 max 19652 min
Histogram: 1 0 0 0 0 0 0 0 0 0
Nghost:    20933 ave 20933 max 20933 min
Histogram: 1 0 0 0 0 0 0 0 0 0
Neighs:    2.04222e+06 ave 2.04222e+06 max 2.04222e+06 min
Histogram: 1 0 0 0 0 0 0 0 0 0

Total # of neighbors = 2042219
Ave neighs/atom = 103.919
Neighbor list builds = 495
Dangerous builds not checked
Setting up Verlet run ...
  Unit style    : metal
  Current step  : 82495
  Time step     : 0.001
Per MPI rank memory allocation (min/avg/max) = 19.35 | 19.35 | 19.35 Mbytes
Step Temp Press TotEng PotEng Enthalpy Volume 
   82495    321.35613   -538.11218   -66374.164   -67190.438   -66454.802    240090.96 
   83000    300.61877   -125.31127    -66509.83   -67273.429   -66528.572    239618.46 
Loop time of 96.3055 on 1 procs for 505 steps with 19652 atoms

Performance: 0.453 ns/day, 52.973 hours/ns, 5.244 timesteps/s
99.6% CPU use with 1 MPI tasks x no OpenMP threads

MPI task timing breakdown:
Section |  min time  |  avg time  |  max time  |%varavg| %total
---------------------------------------------------------------
Pair    | 52.688     | 52.688     | 52.688     |   0.0 | 54.71
Neigh   | 42.12      | 42.12      | 42.12      |   0.0 | 43.74
Comm    | 0.53853    | 0.53853    | 0.53853    |   0.0 |  0.56
Output  | 0.078907   | 0.078907   | 0.078907   |   0.0 |  0.08
Modify  | 0.68783    | 0.68783    | 0.68783    |   0.0 |  0.71
Other   |            | 0.1922     |            |       |  0.20

Nlocal:    19652 ave 19652 max 19652 min
Histogram: 1 0 0 0 0 0 0 0 0 0
Nghost:    21018 ave 21018 max 21018 min
Histogram: 1 0 0 0 0 0 0 0 0 0
Neighs:    2.04694e+06 ave 2.04694e+06 max 2.04694e+06 min
Histogram: 1 0 0 0 0 0 0 0 0 0

Total # of neighbors = 2046937
Ave neighs/atom = 104.159
Neighbor list builds = 505
Dangerous builds not checked
Setting up Verlet run ...
  Unit style    : metal
  Current step  : 83000
  Time step     : 0.001
Per MPI rank memory allocation (min/avg/max) = 19.35 | 19.35 | 19.35 Mbytes
Step Temp Press TotEng PotEng Enthalpy Volume 
   83000    300.61877   -125.31127    -66509.83   -67273.429   -66528.572    239618.46 
   83495    273.47548   -172.91292   -66649.832   -67344.485   -66675.651    239231.41 
Loop time of 81.3467 on 1 procs for 495 steps with 19652 atoms

Performance: 0.526 ns/day, 45.649 hours/ns, 6.085 timesteps/s
99.2% CPU use with 1 MPI tasks x no OpenMP threads

MPI task timing breakdown:
Section |  min time  |  avg time  |  max time  |%varavg| %total
---------------------------------------------------------------
Pair    | 44.26      | 44.26      | 44.26      |   0.0 | 54.41
Neigh   | 35.914     | 35.914     | 35.914     |   0.0 | 44.15
Comm    | 0.44592    | 0.44592    | 0.44592    |   0.0 |  0.55
Output  | 0.00014186 | 0.00014186 | 0.00014186 |   0.0 |  0.00
Modify  | 0.56774    | 0.56774    | 0.56774    |   0.0 |  0.70
Other   |            | 0.159      |            |       |  0.20

Nlocal:    19652 ave 19652 max 19652 min
Histogram: 1 0 0 0 0 0 0 0 0 0
Nghost:    20965 ave 20965 max 20965 min
Histogram: 1 0 0 0 0 0 0 0 0 0
Neighs:    2.05065e+06 ave 2.05065e+06 max 2.05065e+06 min
Histogram: 1 0 0 0 0 0 0 0 0 0

Total # of neighbors = 2050650
Ave neighs/atom = 104.348
Neighbor list builds = 495
Dangerous builds not checked
Setting up Verlet run ...
  Unit style    : metal
  Current step  : 83495
  Time step     : 0.001
Per MPI rank memory allocation (min/avg/max) = 19.35 | 19.35 | 19.35 Mbytes
Step Temp Press TotEng PotEng Enthalpy Volume 
   83495    273.47548   -172.91292   -66649.832   -67344.485   -66675.651    239231.41 
   84000    247.14612    391.36926   -66785.952   -67413.725   -66727.628    238764.19 
Loop time of 84.0153 on 1 procs for 505 steps with 19652 atoms

Performance: 0.519 ns/day, 46.213 hours/ns, 6.011 timesteps/s
99.7% CPU use with 1 MPI tasks x no OpenMP threads

MPI task timing breakdown:
Section |  min time  |  avg time  |  max time  |%varavg| %total
---------------------------------------------------------------
Pair    | 45.691     | 45.691     | 45.691     |   0.0 | 54.38
Neigh   | 37.035     | 37.035     | 37.035     |   0.0 | 44.08
Comm    | 0.46821    | 0.46821    | 0.46821    |   0.0 |  0.56
Output  | 0.068217   | 0.068217   | 0.068217   |   0.0 |  0.08
Modify  | 0.58851    | 0.58851    | 0.58851    |   0.0 |  0.70
Other   |            | 0.1638     |            |       |  0.19

Nlocal:    19652 ave 19652 max 19652 min
Histogram: 1 0 0 0 0 0 0 0 0 0
Nghost:    21024 ave 21024 max 21024 min
Histogram: 1 0 0 0 0 0 0 0 0 0
Neighs:    2.05523e+06 ave 2.05523e+06 max 2.05523e+06 min
Histogram: 1 0 0 0 0 0 0 0 0 0

Total # of neighbors = 2055234
Ave neighs/atom = 104.581
Neighbor list builds = 505
Dangerous builds not checked
Setting up Verlet run ...
  Unit style    : metal
  Current step  : 84000
  Time step     : 0.001
Per MPI rank memory allocation (min/avg/max) = 19.35 | 19.35 | 19.35 Mbytes
Step Temp Press TotEng PotEng Enthalpy Volume 
   84000    247.14612    391.36926   -66785.952   -67413.725   -66727.628    238764.19 
   84495    225.17192    325.05114   -66915.756   -67487.713   -66867.392    238383.98 
Loop time of 80.8126 on 1 procs for 495 steps with 19652 atoms

Performance: 0.529 ns/day, 45.349 hours/ns, 6.125 timesteps/s
100.0% CPU use with 1 MPI tasks x no OpenMP threads

MPI task timing breakdown:
Section |  min time  |  avg time  |  max time  |%varavg| %total
---------------------------------------------------------------
Pair    | 43.996     | 43.996     | 43.996     |   0.0 | 54.44
Neigh   | 35.652     | 35.652     | 35.652     |   0.0 | 44.12
Comm    | 0.4467     | 0.4467     | 0.4467     |   0.0 |  0.55
Output  | 0.00014496 | 0.00014496 | 0.00014496 |   0.0 |  0.00
Modify  | 0.55972    | 0.55972    | 0.55972    |   0.0 |  0.69
Other   |            | 0.1587     |            |       |  0.20

Nlocal:    19652 ave 19652 max 19652 min
Histogram: 1 0 0 0 0 0 0 0 0 0
Nghost:    21027 ave 21027 max 21027 min
Histogram: 1 0 0 0 0 0 0 0 0 0
Neighs:    2.05962e+06 ave 2.05962e+06 max 2.05962e+06 min
Histogram: 1 0 0 0 0 0 0 0 0 0

Total # of neighbors = 2059625
Ave neighs/atom = 104.805
Neighbor list builds = 495
Dangerous builds not checked
Setting up Verlet run ...
  Unit style    : metal
  Current step  : 84495
  Time step     : 0.001
Per MPI rank memory allocation (min/avg/max) = 19.73 | 19.73 | 19.73 Mbytes
Step Temp Press TotEng PotEng Enthalpy Volume 
   84495    225.17192    325.05114   -66915.756   -67487.713   -66867.392    238383.98 
   85000    199.10669   -305.49793   -67051.134   -67556.883   -67096.542    238143.11 
Loop time of 80.0881 on 1 procs for 505 steps with 19652 atoms

Performance: 0.545 ns/day, 44.053 hours/ns, 6.306 timesteps/s
99.7% CPU use with 1 MPI tasks x no OpenMP threads

MPI task timing breakdown:
Section |  min time  |  avg time  |  max time  |%varavg| %total
---------------------------------------------------------------
Pair    | 43.45      | 43.45      | 43.45      |   0.0 | 54.25
Neigh   | 35.418     | 35.418     | 35.418     |   0.0 | 44.22
Comm    | 0.43187    | 0.43187    | 0.43187    |   0.0 |  0.54
Output  | 0.08883    | 0.08883    | 0.08883    |   0.0 |  0.11
Modify  | 0.54543    | 0.54543    | 0.54543    |   0.0 |  0.68
Other   |            | 0.1534     |            |       |  0.19

Nlocal:    19652 ave 19652 max 19652 min
Histogram: 1 0 0 0 0 0 0 0 0 0
Nghost:    20994 ave 20994 max 20994 min
Histogram: 1 0 0 0 0 0 0 0 0 0
Neighs:    2.06076e+06 ave 2.06076e+06 max 2.06076e+06 min
Histogram: 1 0 0 0 0 0 0 0 0 0

Total # of neighbors = 2060764
Ave neighs/atom = 104.863
Neighbor list builds = 505
Dangerous builds not checked
Setting up Verlet run ...
  Unit style    : metal
  Current step  : 85000
  Time step     : 0.001
Per MPI rank memory allocation (min/avg/max) = 19.73 | 19.73 | 19.73 Mbytes
Step Temp Press TotEng PotEng Enthalpy Volume 
   85000    199.10669   -305.49793   -67051.134   -67556.883   -67096.542    238143.11 
   85495    175.36304   -91.888135   -67178.202    -67623.64   -67191.837    237741.59 
Loop time of 79.1902 on 1 procs for 495 steps with 19652 atoms

Performance: 0.540 ns/day, 44.439 hours/ns, 6.251 timesteps/s
99.7% CPU use with 1 MPI tasks x no OpenMP threads

MPI task timing breakdown:
Section |  min time  |  avg time  |  max time  |%varavg| %total
---------------------------------------------------------------
Pair    | 43.129     | 43.129     | 43.129     |   0.0 | 54.46
Neigh   | 34.943     | 34.943     | 34.943     |   0.0 | 44.13
Comm    | 0.43072    | 0.43072    | 0.43072    |   0.0 |  0.54
Output  | 0.00012183 | 0.00012183 | 0.00012183 |   0.0 |  0.00
Modify  | 0.53519    | 0.53519    | 0.53519    |   0.0 |  0.68
Other   |            | 0.1519     |            |       |  0.19

Nlocal:    19652 ave 19652 max 19652 min
Histogram: 1 0 0 0 0 0 0 0 0 0
Nghost:    21030 ave 21030 max 21030 min
Histogram: 1 0 0 0 0 0 0 0 0 0
Neighs:    2.06496e+06 ave 2.06496e+06 max 2.06496e+06 min
Histogram: 1 0 0 0 0 0 0 0 0 0

Total # of neighbors = 2064955
Ave neighs/atom = 105.076
Neighbor list builds = 495
Dangerous builds not checked
Setting up Verlet run ...
  Unit style    : metal
  Current step  : 85495
  Time step     : 0.001
Per MPI rank memory allocation (min/avg/max) = 19.73 | 19.73 | 19.73 Mbytes
Step Temp Press TotEng PotEng Enthalpy Volume 
   85495    175.36304   -91.888135   -67178.202    -67623.64   -67191.837    237741.59 
   86000    150.60265   -55.362081   -67310.338   -67692.882   -67318.541    237393.31 
Loop time of 84.3879 on 1 procs for 505 steps with 19652 atoms

Performance: 0.517 ns/day, 46.418 hours/ns, 5.984 timesteps/s
99.5% CPU use with 1 MPI tasks x no OpenMP threads

MPI task timing breakdown:
Section |  min time  |  avg time  |  max time  |%varavg| %total
---------------------------------------------------------------
Pair    | 46.175     | 46.175     | 46.175     |   0.0 | 54.72
Neigh   | 36.892     | 36.892     | 36.892     |   0.0 | 43.72
Comm    | 0.4752     | 0.4752     | 0.4752     |   0.0 |  0.56
Output  | 0.088881   | 0.088881   | 0.088881   |   0.0 |  0.11
Modify  | 0.59       | 0.59       | 0.59       |   0.0 |  0.70
Other   |            | 0.1661     |            |       |  0.20

Nlocal:    19652 ave 19652 max 19652 min
Histogram: 1 0 0 0 0 0 0 0 0 0
Nghost:    21055 ave 21055 max 21055 min
Histogram: 1 0 0 0 0 0 0 0 0 0
Neighs:    2.06906e+06 ave 2.06906e+06 max 2.06906e+06 min
Histogram: 1 0 0 0 0 0 0 0 0 0

Total # of neighbors = 2069058
Ave neighs/atom = 105.285
Neighbor list builds = 505
Dangerous builds not checked
Setting up Verlet run ...
  Unit style    : metal
  Current step  : 86000
  Time step     : 0.001
Per MPI rank memory allocation (min/avg/max) = 19.73 | 19.73 | 19.73 Mbytes
Step Temp Press TotEng PotEng Enthalpy Volume 
   86000    150.60265   -55.362081   -67310.338   -67692.882   -67318.541    237393.31 
   86495     127.2547   -300.95708   -67434.682    -67757.92   -67479.216    237082.12 
Loop time of 94.855 on 1 procs for 495 steps with 19652 atoms

Performance: 0.451 ns/day, 53.230 hours/ns, 5.218 timesteps/s
99.4% CPU use with 1 MPI tasks x no OpenMP threads

MPI task timing breakdown:
Section |  min time  |  avg time  |  max time  |%varavg| %total
---------------------------------------------------------------
Pair    | 52.327     | 52.327     | 52.327     |   0.0 | 55.16
Neigh   | 41.085     | 41.085     | 41.085     |   0.0 | 43.31
Comm    | 0.5536     | 0.5536     | 0.5536     |   0.0 |  0.58
Output  | 0.00017285 | 0.00017285 | 0.00017285 |   0.0 |  0.00
Modify  | 0.69145    | 0.69145    | 0.69145    |   0.0 |  0.73
Other   |            | 0.1984     |            |       |  0.21

Nlocal:    19652 ave 19652 max 19652 min
Histogram: 1 0 0 0 0 0 0 0 0 0
Nghost:    21045 ave 21045 max 21045 min
Histogram: 1 0 0 0 0 0 0 0 0 0
Neighs:    2.07175e+06 ave 2.07175e+06 max 2.07175e+06 min
Histogram: 1 0 0 0 0 0 0 0 0 0

Total # of neighbors = 2071751
Ave neighs/atom = 105.422
Neighbor list builds = 495
Dangerous builds not checked
Setting up Verlet run ...
  Unit style    : metal
  Current step  : 86495
  Time step     : 0.001
Per MPI rank memory allocation (min/avg/max) = 19.73 | 19.73 | 19.73 Mbytes
Step Temp Press TotEng PotEng Enthalpy Volume 
   86495     127.2547   -300.95708   -67434.682    -67757.92   -67479.216    237082.12 
   87000    102.28118   -134.85546   -67564.053   -67823.856   -67583.975    236695.86 
Loop time of 91.5947 on 1 procs for 505 steps with 19652 atoms

Performance: 0.476 ns/day, 50.382 hours/ns, 5.513 timesteps/s
97.5% CPU use with 1 MPI tasks x no OpenMP threads

MPI task timing breakdown:
Section |  min time  |  avg time  |  max time  |%varavg| %total
---------------------------------------------------------------
Pair    | 50.185     | 50.185     | 50.185     |   0.0 | 54.79
Neigh   | 39.993     | 39.993     | 39.993     |   0.0 | 43.66
Comm    | 0.51523    | 0.51523    | 0.51523    |   0.0 |  0.56
Output  | 0.086447   | 0.086447   | 0.086447   |   0.0 |  0.09
Modify  | 0.63431    | 0.63431    | 0.63431    |   0.0 |  0.69
Other   |            | 0.1807     |            |       |  0.20

Nlocal:    19652 ave 19652 max 19652 min
Histogram: 1 0 0 0 0 0 0 0 0 0
Nghost:    21070 ave 21070 max 21070 min
Histogram: 1 0 0 0 0 0 0 0 0 0
Neighs:    2.0758e+06 ave 2.0758e+06 max 2.0758e+06 min
Histogram: 1 0 0 0 0 0 0 0 0 0

Total # of neighbors = 2075804
Ave neighs/atom = 105.628
Neighbor list builds = 505
Dangerous builds not checked
Total wall time: 3:44:55
