LAMMPS (12 Dec 2018)
Lattice spacing in x,y,z = 4 4 4
Created orthogonal box = (0 0 0) to (68 68 68)
  1 by 1 by 1 MPI processor grid
Created 19652 atoms
  Time spent = 0.00401211 secs
Setting atom values ...
  417 settings made for type/fraction
Neighbor list info ...
  update every 1 steps, delay 0 steps, check no
  max neighbors/atom: 2000, page size: 100000
  master list distance cutoff = 8.5
  ghost atom cutoff = 8.5
  binsize = 4.25, bins = 16 16 16
  1 neighbor lists, perpetual/occasional/extra = 1 0 0
  (1) pair eam/alloy, perpetual
      attributes: half, newton on
      pair build: half/bin/atomonly/newton
      stencil: half/bin/3d/newton
      bin: standard
Setting up Verlet run ...
  Unit style    : metal
  Current step  : 0
  Time step     : 0.001
Per MPI rank memory allocation (min/avg/max) = 18.19 | 18.19 | 18.19 Mbytes
Step Temp Press TotEng PotEng Enthalpy 
       0          300   -286714.51   -75305.463    -76067.49   -131574.06 
    1000    1251.8646   -52213.532   -75305.716   -78485.566    -85552.78 
Loop time of 154.734 on 1 procs for 1000 steps with 19652 atoms

Performance: 0.558 ns/day, 42.982 hours/ns, 6.463 timesteps/s
99.4% CPU use with 1 MPI tasks x no OpenMP threads

MPI task timing breakdown:
Section |  min time  |  avg time  |  max time  |%varavg| %total
---------------------------------------------------------------
Pair    | 87.112     | 87.112     | 87.112     |   0.0 | 56.30
Neigh   | 65.747     | 65.747     | 65.747     |   0.0 | 42.49
Comm    | 1.1365     | 1.1365     | 1.1365     |   0.0 |  0.73
Output  | 0.00020885 | 0.00020885 | 0.00020885 |   0.0 |  0.00
Modify  | 0.38336    | 0.38336    | 0.38336    |   0.0 |  0.25
Other   |            | 0.354      |            |       |  0.23

Nlocal:    19652 ave 19652 max 19652 min
Histogram: 1 0 0 0 0 0 0 0 0 0
Nghost:    19094 ave 19094 max 19094 min
Histogram: 1 0 0 0 0 0 0 0 0 0
Neighs:    1.61774e+06 ave 1.61774e+06 max 1.61774e+06 min
Histogram: 1 0 0 0 0 0 0 0 0 0

Total # of neighbors = 1617735
Ave neighs/atom = 82.3191
Neighbor list builds = 1000
Dangerous builds not checked
Setting up Verlet run ...
  Unit style    : metal
  Current step  : 1000
  Time step     : 0.001
Per MPI rank memory allocation (min/avg/max) = 18.19 | 18.19 | 18.19 Mbytes
Step Temp Press TotEng PotEng Enthalpy 
    1000    1251.8646   -52213.532   -75305.716   -78485.566    -85552.78 
    2000    393.11517   -2603.1278   -83612.447   -84610.996   -84009.158 
Loop time of 191.493 on 1 procs for 1000 steps with 19652 atoms

Performance: 0.451 ns/day, 53.193 hours/ns, 5.222 timesteps/s
99.8% CPU use with 1 MPI tasks x no OpenMP threads

MPI task timing breakdown:
Section |  min time  |  avg time  |  max time  |%varavg| %total
---------------------------------------------------------------
Pair    | 107.6      | 107.6      | 107.6      |   0.0 | 56.19
Neigh   | 81.05      | 81.05      | 81.05      |   0.0 | 42.33
Comm    | 1.1034     | 1.1034     | 1.1034     |   0.0 |  0.58
Output  | 0.050032   | 0.050032   | 0.050032   |   0.0 |  0.03
Modify  | 1.3276     | 1.3276     | 1.3276     |   0.0 |  0.69
Other   |            | 0.3663     |            |       |  0.19

Nlocal:    19652 ave 19652 max 19652 min
Histogram: 1 0 0 0 0 0 0 0 0 0
Nghost:    21190 ave 21190 max 21190 min
Histogram: 1 0 0 0 0 0 0 0 0 0
Neighs:    2.05475e+06 ave 2.05475e+06 max 2.05475e+06 min
Histogram: 1 0 0 0 0 0 0 0 0 0

Total # of neighbors = 2054754
Ave neighs/atom = 104.557
Neighbor list builds = 1000
Dangerous builds not checked
Setting up Verlet run ...
  Unit style    : metal
  Current step  : 2000
  Time step     : 0.001
Per MPI rank memory allocation (min/avg/max) = 19.35 | 19.35 | 19.35 Mbytes
Step Temp Press TotEng PotEng Enthalpy 
    2000    393.11517   -2603.1278   -83612.447   -84610.996   -84009.158 
    4000    805.14335   -221.33282   -82701.437   -84746.574   -82733.536 
    6000    1337.1005    1674.6704   -79560.651   -82957.008    -79310.66 
    8000    1917.5635    264.93751   -75691.202   -80561.988   -75649.803 
   10000     2452.814    1892.1273   -72282.696   -78513.067   -71975.367 
Loop time of 1585.75 on 1 procs for 8000 steps with 19652 atoms

Performance: 0.436 ns/day, 55.061 hours/ns, 5.045 timesteps/s
99.2% CPU use with 1 MPI tasks x no OpenMP threads

MPI task timing breakdown:
Section |  min time  |  avg time  |  max time  |%varavg| %total
---------------------------------------------------------------
Pair    | 886.43     | 886.43     | 886.43     |   0.0 | 55.90
Neigh   | 676.73     | 676.73     | 676.73     |   0.0 | 42.68
Comm    | 8.7274     | 8.7274     | 8.7274     |   0.0 |  0.55
Output  | 0.29978    | 0.29978    | 0.29978    |   0.0 |  0.02
Modify  | 10.616     | 10.616     | 10.616     |   0.0 |  0.67
Other   |            | 2.952      |            |       |  0.19

Nlocal:    19652 ave 19652 max 19652 min
Histogram: 1 0 0 0 0 0 0 0 0 0
Nghost:    20266 ave 20266 max 20266 min
Histogram: 1 0 0 0 0 0 0 0 0 0
Neighs:    1.89519e+06 ave 1.89519e+06 max 1.89519e+06 min
Histogram: 1 0 0 0 0 0 0 0 0 0

Total # of neighbors = 1895194
Ave neighs/atom = 96.4377
Neighbor list builds = 8000
Dangerous builds not checked
Setting up Verlet run ...
  Unit style    : metal
  Current step  : 10000
  Time step     : 0.001
Per MPI rank memory allocation (min/avg/max) = 19.73 | 19.73 | 19.73 Mbytes
Step Temp Press TotEng PotEng Enthalpy 
   10000     2452.814    1892.1273   -72282.696   -78513.067   -71975.367 
   12000    2433.2711   -414.99482   -72243.025   -78423.755   -72310.642 
   14000    2438.4855    515.06564   -72280.724     -78474.7   -72196.951 
   16000    2465.0949    1589.4366   -72106.309   -78367.875   -71847.302 
   18000    2447.3507   -2561.4652   -72179.935   -78396.428    -72598.13 
   20000    2456.2866   -1994.0509    -72087.07   -78326.261    -72412.95 
   22000    2451.9491   -2947.3792   -72200.941   -78429.116    -72682.05 
   24000    2477.8879    3066.1756   -72132.682   -78426.743   -71634.322 
   26000    2441.0191     -270.857     -72208.8    -78409.21   -72252.931 
   28000    2433.3668     -348.568   -72256.751   -78437.725   -72313.531 
   30000     2431.283   -520.77409   -72199.139   -78374.819   -72284.059 
   32000    2440.2653    543.32616   -72197.082   -78395.578   -72108.556 
   34000    2469.3435    938.50489   -72107.211   -78379.568   -71954.272 
   36000    2441.9507    2385.6812   -72274.987   -78477.765   -71887.256 
   38000    2443.0745   -435.98206   -72212.906   -78418.537   -72283.936 
   40000    2447.1775   -3944.3991    -72237.09   -78453.144   -72880.966 
Loop time of 5631.06 on 1 procs for 30000 steps with 19652 atoms

Performance: 0.460 ns/day, 52.139 hours/ns, 5.328 timesteps/s
99.4% CPU use with 1 MPI tasks x no OpenMP threads

MPI task timing breakdown:
Section |  min time  |  avg time  |  max time  |%varavg| %total
---------------------------------------------------------------
Pair    | 3249.3     | 3249.3     | 3249.3     |   0.0 | 57.70
Neigh   | 2295.5     | 2295.5     | 2295.5     |   0.0 | 40.77
Comm    | 33.633     | 33.633     | 33.633     |   0.0 |  0.60
Output  | 2.14       | 2.14       | 2.14       |   0.0 |  0.04
Modify  | 39.198     | 39.198     | 39.198     |   0.0 |  0.70
Other   |            | 11.25      |            |       |  0.20

Nlocal:    19652 ave 19652 max 19652 min
Histogram: 1 0 0 0 0 0 0 0 0 0
Nghost:    20147 ave 20147 max 20147 min
Histogram: 1 0 0 0 0 0 0 0 0 0
Neighs:    1.88494e+06 ave 1.88494e+06 max 1.88494e+06 min
Histogram: 1 0 0 0 0 0 0 0 0 0

Total # of neighbors = 1884936
Ave neighs/atom = 95.9157
Neighbor list builds = 30000
Dangerous builds not checked
Setting up Verlet run ...
  Unit style    : metal
  Current step  : 40000
  Time step     : 0.001
Per MPI rank memory allocation (min/avg/max) = 19.73 | 19.73 | 19.73 Mbytes
Step Temp Press TotEng PotEng Enthalpy 
   40000    2447.1775   -3944.3991    -72237.09   -78453.144   -72880.966 
   40495    2408.5943   -2888.6922   -72384.815   -78502.863   -72855.487 
Loop time of 89.0503 on 1 procs for 495 steps with 19652 atoms

Performance: 0.480 ns/day, 49.972 hours/ns, 5.559 timesteps/s
99.6% CPU use with 1 MPI tasks x no OpenMP threads

MPI task timing breakdown:
Section |  min time  |  avg time  |  max time  |%varavg| %total
---------------------------------------------------------------
Pair    | 50.736     | 50.736     | 50.736     |   0.0 | 56.97
Neigh   | 36.95      | 36.95      | 36.95      |   0.0 | 41.49
Comm    | 0.53734    | 0.53734    | 0.53734    |   0.0 |  0.60
Output  | 0.00014091 | 0.00014091 | 0.00014091 |   0.0 |  0.00
Modify  | 0.6434     | 0.6434     | 0.6434     |   0.0 |  0.72
Other   |            | 0.1832     |            |       |  0.21

Nlocal:    19652 ave 19652 max 19652 min
Histogram: 1 0 0 0 0 0 0 0 0 0
Nghost:    20228 ave 20228 max 20228 min
Histogram: 1 0 0 0 0 0 0 0 0 0
Neighs:    1.88901e+06 ave 1.88901e+06 max 1.88901e+06 min
Histogram: 1 0 0 0 0 0 0 0 0 0

Total # of neighbors = 1889012
Ave neighs/atom = 96.1231
Neighbor list builds = 495
Dangerous builds not checked
Setting up Verlet run ...
  Unit style    : metal
  Current step  : 40495
  Time step     : 0.001
Per MPI rank memory allocation (min/avg/max) = 19.73 | 19.73 | 19.73 Mbytes
Step Temp Press TotEng PotEng Enthalpy 
   40495    2408.5943   -2888.6922   -72384.815   -78502.863   -72855.487 
   42000    2396.9266   -3035.4457   -72450.438   -78538.849   -72944.595 
Loop time of 240.895 on 1 procs for 1505 steps with 19652 atoms

Performance: 0.540 ns/day, 44.462 hours/ns, 6.248 timesteps/s
99.9% CPU use with 1 MPI tasks x no OpenMP threads

MPI task timing breakdown:
Section |  min time  |  avg time  |  max time  |%varavg| %total
---------------------------------------------------------------
Pair    | 137.03     | 137.03     | 137.03     |   0.0 | 56.89
Neigh   | 100.11     | 100.11     | 100.11     |   0.0 | 41.56
Comm    | 1.4542     | 1.4542     | 1.4542     |   0.0 |  0.60
Output  | 0.11358    | 0.11358    | 0.11358    |   0.0 |  0.05
Modify  | 1.6826     | 1.6826     | 1.6826     |   0.0 |  0.70
Other   |            | 0.5034     |            |       |  0.21

Nlocal:    19652 ave 19652 max 19652 min
Histogram: 1 0 0 0 0 0 0 0 0 0
Nghost:    20199 ave 20199 max 20199 min
Histogram: 1 0 0 0 0 0 0 0 0 0
Neighs:    1.89096e+06 ave 1.89096e+06 max 1.89096e+06 min
Histogram: 1 0 0 0 0 0 0 0 0 0

Total # of neighbors = 1890962
Ave neighs/atom = 96.2224
Neighbor list builds = 1505
Dangerous builds not checked
Setting up Verlet run ...
  Unit style    : metal
  Current step  : 42000
  Time step     : 0.001
Per MPI rank memory allocation (min/avg/max) = 19.73 | 19.73 | 19.73 Mbytes
Step Temp Press TotEng PotEng Enthalpy 
   42000    2396.9266   -3035.4457   -72450.438   -78538.849   -72944.595 
   42495    2367.9723   -828.26927   -72730.332   -78745.198    -72864.46 
Loop time of 77.9375 on 1 procs for 495 steps with 19652 atoms

Performance: 0.549 ns/day, 43.736 hours/ns, 6.351 timesteps/s
100.0% CPU use with 1 MPI tasks x no OpenMP threads

MPI task timing breakdown:
Section |  min time  |  avg time  |  max time  |%varavg| %total
---------------------------------------------------------------
Pair    | 44.437     | 44.437     | 44.437     |   0.0 | 57.02
Neigh   | 32.314     | 32.314     | 32.314     |   0.0 | 41.46
Comm    | 0.47231    | 0.47231    | 0.47231    |   0.0 |  0.61
Output  | 0.00015306 | 0.00015306 | 0.00015306 |   0.0 |  0.00
Modify  | 0.54927    | 0.54927    | 0.54927    |   0.0 |  0.70
Other   |            | 0.1644     |            |       |  0.21

Nlocal:    19652 ave 19652 max 19652 min
Histogram: 1 0 0 0 0 0 0 0 0 0
Nghost:    20228 ave 20228 max 20228 min
Histogram: 1 0 0 0 0 0 0 0 0 0
Neighs:    1.8999e+06 ave 1.8999e+06 max 1.8999e+06 min
Histogram: 1 0 0 0 0 0 0 0 0 0

Total # of neighbors = 1899903
Ave neighs/atom = 96.6773
Neighbor list builds = 495
Dangerous builds not checked
Setting up Verlet run ...
  Unit style    : metal
  Current step  : 42495
  Time step     : 0.001
Per MPI rank memory allocation (min/avg/max) = 19.73 | 19.73 | 19.73 Mbytes
Step Temp Press TotEng PotEng Enthalpy 
   42495    2367.9723   -828.26927   -72730.332   -78745.198    -72864.46 
   44000    2366.6035    490.19196   -72709.026   -78720.414    -72629.63 
Loop time of 232.413 on 1 procs for 1505 steps with 19652 atoms

Performance: 0.559 ns/day, 42.896 hours/ns, 6.476 timesteps/s
99.8% CPU use with 1 MPI tasks x no OpenMP threads

MPI task timing breakdown:
Section |  min time  |  avg time  |  max time  |%varavg| %total
---------------------------------------------------------------
Pair    | 128.48     | 128.48     | 128.48     |   0.0 | 55.28
Neigh   | 100.26     | 100.26     | 100.26     |   0.0 | 43.14
Comm    | 1.3582     | 1.3582     | 1.3582     |   0.0 |  0.58
Output  | 0.2488     | 0.2488     | 0.2488     |   0.0 |  0.11
Modify  | 1.596      | 1.596      | 1.596      |   0.0 |  0.69
Other   |            | 0.4709     |            |       |  0.20

Nlocal:    19652 ave 19652 max 19652 min
Histogram: 1 0 0 0 0 0 0 0 0 0
Nghost:    20388 ave 20388 max 20388 min
Histogram: 1 0 0 0 0 0 0 0 0 0
Neighs:    1.90026e+06 ave 1.90026e+06 max 1.90026e+06 min
Histogram: 1 0 0 0 0 0 0 0 0 0

Total # of neighbors = 1900259
Ave neighs/atom = 96.6955
Neighbor list builds = 1505
Dangerous builds not checked
Setting up Verlet run ...
  Unit style    : metal
  Current step  : 44000
  Time step     : 0.001
Per MPI rank memory allocation (min/avg/max) = 19.73 | 19.73 | 19.73 Mbytes
Step Temp Press TotEng PotEng Enthalpy 
   44000    2366.6035    490.19196   -72709.026   -78720.414    -72629.63 
   44495    2332.8944    354.37541   -73011.183   -78936.947   -72954.043 
Loop time of 74.7506 on 1 procs for 495 steps with 19652 atoms

Performance: 0.572 ns/day, 41.948 hours/ns, 6.622 timesteps/s
99.8% CPU use with 1 MPI tasks x no OpenMP threads

MPI task timing breakdown:
Section |  min time  |  avg time  |  max time  |%varavg| %total
---------------------------------------------------------------
Pair    | 41.37      | 41.37      | 41.37      |   0.0 | 55.34
Neigh   | 32.265     | 32.265     | 32.265     |   0.0 | 43.16
Comm    | 0.44069    | 0.44069    | 0.44069    |   0.0 |  0.59
Output  | 0.00011706 | 0.00011706 | 0.00011706 |   0.0 |  0.00
Modify  | 0.51659    | 0.51659    | 0.51659    |   0.0 |  0.69
Other   |            | 0.1584     |            |       |  0.21

Nlocal:    19652 ave 19652 max 19652 min
Histogram: 1 0 0 0 0 0 0 0 0 0
Nghost:    20261 ave 20261 max 20261 min
Histogram: 1 0 0 0 0 0 0 0 0 0
Neighs:    1.90882e+06 ave 1.90882e+06 max 1.90882e+06 min
Histogram: 1 0 0 0 0 0 0 0 0 0

Total # of neighbors = 1908819
Ave neighs/atom = 97.131
Neighbor list builds = 495
Dangerous builds not checked
Setting up Verlet run ...
  Unit style    : metal
  Current step  : 44495
  Time step     : 0.001
Per MPI rank memory allocation (min/avg/max) = 19.73 | 19.73 | 19.73 Mbytes
Step Temp Press TotEng PotEng Enthalpy 
   44495    2332.8944    354.37541   -73011.183   -78936.947   -72954.043 
   46000    2310.1029    2543.5406   -73045.211   -78913.083   -72635.779 
Loop time of 248.403 on 1 procs for 1505 steps with 19652 atoms

Performance: 0.523 ns/day, 45.848 hours/ns, 6.059 timesteps/s
99.1% CPU use with 1 MPI tasks x no OpenMP threads

MPI task timing breakdown:
Section |  min time  |  avg time  |  max time  |%varavg| %total
---------------------------------------------------------------
Pair    | 132.63     | 132.63     | 132.63     |   0.0 | 53.39
Neigh   | 110.18     | 110.18     | 110.18     |   0.0 | 44.35
Comm    | 1.418      | 1.418      | 1.418      |   0.0 |  0.57
Output  | 2.0291     | 2.0291     | 2.0291     |   0.0 |  0.82
Modify  | 1.6463     | 1.6463     | 1.6463     |   0.0 |  0.66
Other   |            | 0.4977     |            |       |  0.20

Nlocal:    19652 ave 19652 max 19652 min
Histogram: 1 0 0 0 0 0 0 0 0 0
Nghost:    20337 ave 20337 max 20337 min
Histogram: 1 0 0 0 0 0 0 0 0 0
Neighs:    1.91137e+06 ave 1.91137e+06 max 1.91137e+06 min
Histogram: 1 0 0 0 0 0 0 0 0 0

Total # of neighbors = 1911366
Ave neighs/atom = 97.2606
Neighbor list builds = 1505
Dangerous builds not checked
Setting up Verlet run ...
  Unit style    : metal
  Current step  : 46000
  Time step     : 0.001
Per MPI rank memory allocation (min/avg/max) = 19.73 | 19.73 | 19.73 Mbytes
Step Temp Press TotEng PotEng Enthalpy 
   46000    2310.1029    2543.5406   -73045.211   -78913.083   -72635.779 
   46495    2275.0711    2630.1973   -73261.892    -79040.78   -72839.463 
Loop time of 75.2964 on 1 procs for 495 steps with 19652 atoms

Performance: 0.568 ns/day, 42.254 hours/ns, 6.574 timesteps/s
100.0% CPU use with 1 MPI tasks x no OpenMP threads

MPI task timing breakdown:
Section |  min time  |  avg time  |  max time  |%varavg| %total
---------------------------------------------------------------
Pair    | 40.15      | 40.15      | 40.15      |   0.0 | 53.32
Neigh   | 34.049     | 34.049     | 34.049     |   0.0 | 45.22
Comm    | 0.43045    | 0.43045    | 0.43045    |   0.0 |  0.57
Output  | 0.00013995 | 0.00013995 | 0.00013995 |   0.0 |  0.00
Modify  | 0.50842    | 0.50842    | 0.50842    |   0.0 |  0.68
Other   |            | 0.1576     |            |       |  0.21

Nlocal:    19652 ave 19652 max 19652 min
Histogram: 1 0 0 0 0 0 0 0 0 0
Nghost:    20418 ave 20418 max 20418 min
Histogram: 1 0 0 0 0 0 0 0 0 0
Neighs:    1.91608e+06 ave 1.91608e+06 max 1.91608e+06 min
Histogram: 1 0 0 0 0 0 0 0 0 0

Total # of neighbors = 1916077
Ave neighs/atom = 97.5004
Neighbor list builds = 495
Dangerous builds not checked
Setting up Verlet run ...
  Unit style    : metal
  Current step  : 46495
  Time step     : 0.001
Per MPI rank memory allocation (min/avg/max) = 19.73 | 19.73 | 19.73 Mbytes
Step Temp Press TotEng PotEng Enthalpy 
   46495    2275.0711    2630.1973   -73261.892    -79040.78   -72839.463 
   48000    2244.9094   -2549.7805   -73406.659   -79108.933   -73817.115 
Loop time of 246.758 on 1 procs for 1505 steps with 19652 atoms

Performance: 0.527 ns/day, 45.544 hours/ns, 6.099 timesteps/s
99.8% CPU use with 1 MPI tasks x no OpenMP threads

MPI task timing breakdown:
Section |  min time  |  avg time  |  max time  |%varavg| %total
---------------------------------------------------------------
Pair    | 131.64     | 131.64     | 131.64     |   0.0 | 53.35
Neigh   | 111.08     | 111.08     | 111.08     |   0.0 | 45.02
Comm    | 1.3838     | 1.3838     | 1.3838     |   0.0 |  0.56
Output  | 0.49981    | 0.49981    | 0.49981    |   0.0 |  0.20
Modify  | 1.6501     | 1.6501     | 1.6501     |   0.0 |  0.67
Other   |            | 0.5031     |            |       |  0.20

Nlocal:    19652 ave 19652 max 19652 min
Histogram: 1 0 0 0 0 0 0 0 0 0
Nghost:    20376 ave 20376 max 20376 min
Histogram: 1 0 0 0 0 0 0 0 0 0
Neighs:    1.91191e+06 ave 1.91191e+06 max 1.91191e+06 min
Histogram: 1 0 0 0 0 0 0 0 0 0

Total # of neighbors = 1911906
Ave neighs/atom = 97.2881
Neighbor list builds = 1505
Dangerous builds not checked
Setting up Verlet run ...
  Unit style    : metal
  Current step  : 48000
  Time step     : 0.001
Per MPI rank memory allocation (min/avg/max) = 19.73 | 19.73 | 19.73 Mbytes
Step Temp Press TotEng PotEng Enthalpy 
   48000    2244.9094   -2549.7805   -73406.659   -79108.933   -73817.115 
   48495    2196.4838   -311.86212   -73623.791    -79203.06   -73673.821 
Loop time of 77.0692 on 1 procs for 495 steps with 19652 atoms

Performance: 0.555 ns/day, 43.249 hours/ns, 6.423 timesteps/s
99.8% CPU use with 1 MPI tasks x no OpenMP threads

MPI task timing breakdown:
Section |  min time  |  avg time  |  max time  |%varavg| %total
---------------------------------------------------------------
Pair    | 41.174     | 41.174     | 41.174     |   0.0 | 53.42
Neigh   | 34.803     | 34.803     | 34.803     |   0.0 | 45.16
Comm    | 0.42594    | 0.42594    | 0.42594    |   0.0 |  0.55
Output  | 0.00012493 | 0.00012493 | 0.00012493 |   0.0 |  0.00
Modify  | 0.51572    | 0.51572    | 0.51572    |   0.0 |  0.67
Other   |            | 0.1504     |            |       |  0.20

Nlocal:    19652 ave 19652 max 19652 min
Histogram: 1 0 0 0 0 0 0 0 0 0
Nghost:    20321 ave 20321 max 20321 min
Histogram: 1 0 0 0 0 0 0 0 0 0
Neighs:    1.918e+06 ave 1.918e+06 max 1.918e+06 min
Histogram: 1 0 0 0 0 0 0 0 0 0

Total # of neighbors = 1917998
Ave neighs/atom = 97.5981
Neighbor list builds = 495
Dangerous builds not checked
Setting up Verlet run ...
  Unit style    : metal
  Current step  : 48495
  Time step     : 0.001
Per MPI rank memory allocation (min/avg/max) = 19.73 | 19.73 | 19.73 Mbytes
Step Temp Press TotEng PotEng Enthalpy 
   48495    2196.4838   -311.86212   -73623.791    -79203.06   -73673.821 
   50000    2210.0187    28.960238   -73671.582   -79285.231   -73666.943 
Loop time of 238.125 on 1 procs for 1505 steps with 19652 atoms

Performance: 0.546 ns/day, 43.951 hours/ns, 6.320 timesteps/s
98.9% CPU use with 1 MPI tasks x no OpenMP threads

MPI task timing breakdown:
Section |  min time  |  avg time  |  max time  |%varavg| %total
---------------------------------------------------------------
Pair    | 126.18     | 126.18     | 126.18     |   0.0 | 52.99
Neigh   | 105.99     | 105.99     | 105.99     |   0.0 | 44.51
Comm    | 1.3024     | 1.3024     | 1.3024     |   0.0 |  0.55
Output  | 2.6506     | 2.6506     | 2.6506     |   0.0 |  1.11
Modify  | 1.5536     | 1.5536     | 1.5536     |   0.0 |  0.65
Other   |            | 0.448      |            |       |  0.19

Nlocal:    19652 ave 19652 max 19652 min
Histogram: 1 0 0 0 0 0 0 0 0 0
Nghost:    20456 ave 20456 max 20456 min
Histogram: 1 0 0 0 0 0 0 0 0 0
Neighs:    1.92135e+06 ave 1.92135e+06 max 1.92135e+06 min
Histogram: 1 0 0 0 0 0 0 0 0 0

Total # of neighbors = 1921351
Ave neighs/atom = 97.7687
Neighbor list builds = 1505
Dangerous builds not checked
Setting up Verlet run ...
  Unit style    : metal
  Current step  : 50000
  Time step     : 0.001
Per MPI rank memory allocation (min/avg/max) = 19.73 | 19.73 | 19.73 Mbytes
Step Temp Press TotEng PotEng Enthalpy 
   50000    2210.0187    28.960238   -73671.582   -79285.231   -73666.943 
   50495    2151.3812     2284.459   -73954.669   -79419.373   -73590.459 
Loop time of 78.3266 on 1 procs for 495 steps with 19652 atoms

Performance: 0.546 ns/day, 43.954 hours/ns, 6.320 timesteps/s
99.6% CPU use with 1 MPI tasks x no OpenMP threads

MPI task timing breakdown:
Section |  min time  |  avg time  |  max time  |%varavg| %total
---------------------------------------------------------------
Pair    | 41.935     | 41.935     | 41.935     |   0.0 | 53.54
Neigh   | 35.281     | 35.281     | 35.281     |   0.0 | 45.04
Comm    | 0.43614    | 0.43614    | 0.43614    |   0.0 |  0.56
Output  | 0.00013399 | 0.00013399 | 0.00013399 |   0.0 |  0.00
Modify  | 0.52656    | 0.52656    | 0.52656    |   0.0 |  0.67
Other   |            | 0.1478     |            |       |  0.19

Nlocal:    19652 ave 19652 max 19652 min
Histogram: 1 0 0 0 0 0 0 0 0 0
Nghost:    20458 ave 20458 max 20458 min
Histogram: 1 0 0 0 0 0 0 0 0 0
Neighs:    1.92991e+06 ave 1.92991e+06 max 1.92991e+06 min
Histogram: 1 0 0 0 0 0 0 0 0 0

Total # of neighbors = 1929913
Ave neighs/atom = 98.2044
Neighbor list builds = 495
Dangerous builds not checked
Setting up Verlet run ...
  Unit style    : metal
  Current step  : 50495
  Time step     : 0.001
Per MPI rank memory allocation (min/avg/max) = 19.73 | 19.73 | 19.73 Mbytes
Step Temp Press TotEng PotEng Enthalpy 
   50495    2151.3812     2284.459   -73954.669   -79419.373   -73590.459 
   52000    2156.2369    296.15036   -74023.079   -79500.118   -73975.863 
Loop time of 235.629 on 1 procs for 1505 steps with 19652 atoms

Performance: 0.552 ns/day, 43.490 hours/ns, 6.387 timesteps/s
99.7% CPU use with 1 MPI tasks x no OpenMP threads

MPI task timing breakdown:
Section |  min time  |  avg time  |  max time  |%varavg| %total
---------------------------------------------------------------
Pair    | 125.54     | 125.54     | 125.54     |   0.0 | 53.28
Neigh   | 106.24     | 106.24     | 106.24     |   0.0 | 45.09
Comm    | 1.3014     | 1.3014     | 1.3014     |   0.0 |  0.55
Output  | 0.54639    | 0.54639    | 0.54639    |   0.0 |  0.23
Modify  | 1.56       | 1.56       | 1.56       |   0.0 |  0.66
Other   |            | 0.4409     |            |       |  0.19

Nlocal:    19652 ave 19652 max 19652 min
Histogram: 1 0 0 0 0 0 0 0 0 0
Nghost:    20408 ave 20408 max 20408 min
Histogram: 1 0 0 0 0 0 0 0 0 0
Neighs:    1.9304e+06 ave 1.9304e+06 max 1.9304e+06 min
Histogram: 1 0 0 0 0 0 0 0 0 0

Total # of neighbors = 1930402
Ave neighs/atom = 98.2293
Neighbor list builds = 1505
Dangerous builds not checked
Setting up Verlet run ...
  Unit style    : metal
  Current step  : 52000
  Time step     : 0.001
Per MPI rank memory allocation (min/avg/max) = 19.73 | 19.73 | 19.73 Mbytes
Step Temp Press TotEng PotEng Enthalpy 
   52000    2156.2369    296.15036   -74023.079   -79500.118   -73975.863 
   52495    2120.2237    145.63185   -74226.007   -79611.568   -74202.838 
Loop time of 73.7697 on 1 procs for 495 steps with 19652 atoms

Performance: 0.580 ns/day, 41.397 hours/ns, 6.710 timesteps/s
99.9% CPU use with 1 MPI tasks x no OpenMP threads

MPI task timing breakdown:
Section |  min time  |  avg time  |  max time  |%varavg| %total
---------------------------------------------------------------
Pair    | 39.283     | 39.283     | 39.283     |   0.0 | 53.25
Neigh   | 33.454     | 33.454     | 33.454     |   0.0 | 45.35
Comm    | 0.4024     | 0.4024     | 0.4024     |   0.0 |  0.55
Output  | 0.00012302 | 0.00012302 | 0.00012302 |   0.0 |  0.00
Modify  | 0.49279    | 0.49279    | 0.49279    |   0.0 |  0.67
Other   |            | 0.1381     |            |       |  0.19

Nlocal:    19652 ave 19652 max 19652 min
Histogram: 1 0 0 0 0 0 0 0 0 0
Nghost:    20414 ave 20414 max 20414 min
Histogram: 1 0 0 0 0 0 0 0 0 0
Neighs:    1.93394e+06 ave 1.93394e+06 max 1.93394e+06 min
Histogram: 1 0 0 0 0 0 0 0 0 0

Total # of neighbors = 1933943
Ave neighs/atom = 98.4095
Neighbor list builds = 495
Dangerous builds not checked
Setting up Verlet run ...
  Unit style    : metal
  Current step  : 52495
  Time step     : 0.001
Per MPI rank memory allocation (min/avg/max) = 19.73 | 19.73 | 19.73 Mbytes
Step Temp Press TotEng PotEng Enthalpy 
   52495    2120.2237    145.63185   -74226.007   -79611.568   -74202.838 
   54000    2088.2367   -2124.9667   -74383.049   -79687.361   -74721.284 
Loop time of 227.912 on 1 procs for 1505 steps with 19652 atoms

Performance: 0.571 ns/day, 42.066 hours/ns, 6.603 timesteps/s
99.6% CPU use with 1 MPI tasks x no OpenMP threads

MPI task timing breakdown:
Section |  min time  |  avg time  |  max time  |%varavg| %total
---------------------------------------------------------------
Pair    | 121.09     | 121.09     | 121.09     |   0.0 | 53.13
Neigh   | 103.08     | 103.08     | 103.08     |   0.0 | 45.23
Comm    | 1.255      | 1.255      | 1.255      |   0.0 |  0.55
Output  | 0.55403    | 0.55403    | 0.55403    |   0.0 |  0.24
Modify  | 1.5065     | 1.5065     | 1.5065     |   0.0 |  0.66
Other   |            | 0.422      |            |       |  0.19

Nlocal:    19652 ave 19652 max 19652 min
Histogram: 1 0 0 0 0 0 0 0 0 0
Nghost:    20416 ave 20416 max 20416 min
Histogram: 1 0 0 0 0 0 0 0 0 0
Neighs:    1.93326e+06 ave 1.93326e+06 max 1.93326e+06 min
Histogram: 1 0 0 0 0 0 0 0 0 0

Total # of neighbors = 1933260
Ave neighs/atom = 98.3747
Neighbor list builds = 1505
Dangerous builds not checked
Setting up Verlet run ...
  Unit style    : metal
  Current step  : 54000
  Time step     : 0.001
Per MPI rank memory allocation (min/avg/max) = 19.73 | 19.73 | 19.73 Mbytes
Step Temp Press TotEng PotEng Enthalpy 
   54000    2088.2367   -2124.9667   -74383.049   -79687.361   -74721.284 
   54495     2076.535   -1223.6608   -74498.481   -79773.069    -74692.78 
Loop time of 80.7905 on 1 procs for 495 steps with 19652 atoms

Performance: 0.529 ns/day, 45.337 hours/ns, 6.127 timesteps/s
99.9% CPU use with 1 MPI tasks x no OpenMP threads

MPI task timing breakdown:
Section |  min time  |  avg time  |  max time  |%varavg| %total
---------------------------------------------------------------
Pair    | 43.507     | 43.507     | 43.507     |   0.0 | 53.85
Neigh   | 36.126     | 36.126     | 36.126     |   0.0 | 44.72
Comm    | 0.45803    | 0.45803    | 0.45803    |   0.0 |  0.57
Output  | 0.00011587 | 0.00011587 | 0.00011587 |   0.0 |  0.00
Modify  | 0.54267    | 0.54267    | 0.54267    |   0.0 |  0.67
Other   |            | 0.157      |            |       |  0.19

Nlocal:    19652 ave 19652 max 19652 min
Histogram: 1 0 0 0 0 0 0 0 0 0
Nghost:    20485 ave 20485 max 20485 min
Histogram: 1 0 0 0 0 0 0 0 0 0
Neighs:    1.93752e+06 ave 1.93752e+06 max 1.93752e+06 min
Histogram: 1 0 0 0 0 0 0 0 0 0

Total # of neighbors = 1937520
Ave neighs/atom = 98.5915
Neighbor list builds = 495
Dangerous builds not checked
Setting up Verlet run ...
  Unit style    : metal
  Current step  : 54495
  Time step     : 0.001
Per MPI rank memory allocation (min/avg/max) = 19.73 | 19.73 | 19.73 Mbytes
Step Temp Press TotEng PotEng Enthalpy 
   54495     2076.535   -1223.6608   -74498.481   -79773.069    -74692.78 
   56000    2054.1297   -775.11839   -74659.682   -79877.358   -74782.481 
Loop time of 234.268 on 1 procs for 1505 steps with 19652 atoms

Performance: 0.555 ns/day, 43.239 hours/ns, 6.424 timesteps/s
99.2% CPU use with 1 MPI tasks x no OpenMP threads

MPI task timing breakdown:
Section |  min time  |  avg time  |  max time  |%varavg| %total
---------------------------------------------------------------
Pair    | 124.97     | 124.97     | 124.97     |   0.0 | 53.34
Neigh   | 104.16     | 104.16     | 104.16     |   0.0 | 44.46
Comm    | 1.2956     | 1.2956     | 1.2956     |   0.0 |  0.55
Output  | 1.8704     | 1.8704     | 1.8704     |   0.0 |  0.80
Modify  | 1.5246     | 1.5246     | 1.5246     |   0.0 |  0.65
Other   |            | 0.4543     |            |       |  0.19

Nlocal:    19652 ave 19652 max 19652 min
Histogram: 1 0 0 0 0 0 0 0 0 0
Nghost:    20458 ave 20458 max 20458 min
Histogram: 1 0 0 0 0 0 0 0 0 0
Neighs:    1.94246e+06 ave 1.94246e+06 max 1.94246e+06 min
Histogram: 1 0 0 0 0 0 0 0 0 0

Total # of neighbors = 1942457
Ave neighs/atom = 98.8427
Neighbor list builds = 1505
Dangerous builds not checked
Setting up Verlet run ...
  Unit style    : metal
  Current step  : 56000
  Time step     : 0.001
Per MPI rank memory allocation (min/avg/max) = 19.73 | 19.73 | 19.73 Mbytes
Step Temp Press TotEng PotEng Enthalpy 
   56000    2054.1297   -775.11839   -74659.682   -79877.358   -74782.481 
   56495    2006.9729    72.307073   -74875.534   -79973.428   -74864.111 
Loop time of 75.76 on 1 procs for 495 steps with 19652 atoms

Performance: 0.565 ns/day, 42.514 hours/ns, 6.534 timesteps/s
99.6% CPU use with 1 MPI tasks x no OpenMP threads

MPI task timing breakdown:
Section |  min time  |  avg time  |  max time  |%varavg| %total
---------------------------------------------------------------
Pair    | 40.734     | 40.734     | 40.734     |   0.0 | 53.77
Neigh   | 33.959     | 33.959     | 33.959     |   0.0 | 44.82
Comm    | 0.41557    | 0.41557    | 0.41557    |   0.0 |  0.55
Output  | 0.0001359  | 0.0001359  | 0.0001359  |   0.0 |  0.00
Modify  | 0.50145    | 0.50145    | 0.50145    |   0.0 |  0.66
Other   |            | 0.1494     |            |       |  0.20

Nlocal:    19652 ave 19652 max 19652 min
Histogram: 1 0 0 0 0 0 0 0 0 0
Nghost:    20541 ave 20541 max 20541 min
Histogram: 1 0 0 0 0 0 0 0 0 0
Neighs:    1.94788e+06 ave 1.94788e+06 max 1.94788e+06 min
Histogram: 1 0 0 0 0 0 0 0 0 0

Total # of neighbors = 1947883
Ave neighs/atom = 99.1188
Neighbor list builds = 495
Dangerous builds not checked
Setting up Verlet run ...
  Unit style    : metal
  Current step  : 56495
  Time step     : 0.001
Per MPI rank memory allocation (min/avg/max) = 19.73 | 19.73 | 19.73 Mbytes
Step Temp Press TotEng PotEng Enthalpy 
   56495    2006.9729    72.307073   -74875.534   -79973.428   -74864.111 
   58000    1989.9638   -461.74451   -75003.116   -80057.806   -75075.964 
Loop time of 235.92 on 1 procs for 1505 steps with 19652 atoms

Performance: 0.551 ns/day, 43.544 hours/ns, 6.379 timesteps/s
99.0% CPU use with 1 MPI tasks x no OpenMP threads

MPI task timing breakdown:
Section |  min time  |  avg time  |  max time  |%varavg| %total
---------------------------------------------------------------
Pair    | 125.45     | 125.45     | 125.45     |   0.0 | 53.17
Neigh   | 104.96     | 104.96     | 104.96     |   0.0 | 44.49
Comm    | 1.3086     | 1.3086     | 1.3086     |   0.0 |  0.55
Output  | 2.2087     | 2.2087     | 2.2087     |   0.0 |  0.94
Modify  | 1.5382     | 1.5382     | 1.5382     |   0.0 |  0.65
Other   |            | 0.4511     |            |       |  0.19

Nlocal:    19652 ave 19652 max 19652 min
Histogram: 1 0 0 0 0 0 0 0 0 0
Nghost:    20547 ave 20547 max 20547 min
Histogram: 1 0 0 0 0 0 0 0 0 0
Neighs:    1.95027e+06 ave 1.95027e+06 max 1.95027e+06 min
Histogram: 1 0 0 0 0 0 0 0 0 0

Total # of neighbors = 1950272
Ave neighs/atom = 99.2404
Neighbor list builds = 1505
Dangerous builds not checked
Setting up Verlet run ...
  Unit style    : metal
  Current step  : 58000
  Time step     : 0.001
Per MPI rank memory allocation (min/avg/max) = 19.73 | 19.73 | 19.73 Mbytes
Step Temp Press TotEng PotEng Enthalpy 
   58000    1989.9638   -461.74451   -75003.116   -80057.806   -75075.964 
   58495    1972.5612   -1563.8772   -75179.988   -80190.473   -75426.412 
Loop time of 76.9466 on 1 procs for 495 steps with 19652 atoms

Performance: 0.556 ns/day, 43.180 hours/ns, 6.433 timesteps/s
100.0% CPU use with 1 MPI tasks x no OpenMP threads

MPI task timing breakdown:
Section |  min time  |  avg time  |  max time  |%varavg| %total
---------------------------------------------------------------
Pair    | 41.59      | 41.59      | 41.59      |   0.0 | 54.05
Neigh   | 34.254     | 34.254     | 34.254     |   0.0 | 44.52
Comm    | 0.43456    | 0.43456    | 0.43456    |   0.0 |  0.56
Output  | 0.00014496 | 0.00014496 | 0.00014496 |   0.0 |  0.00
Modify  | 0.51469    | 0.51469    | 0.51469    |   0.0 |  0.67
Other   |            | 0.1535     |            |       |  0.20

Nlocal:    19652 ave 19652 max 19652 min
Histogram: 1 0 0 0 0 0 0 0 0 0
Nghost:    20496 ave 20496 max 20496 min
Histogram: 1 0 0 0 0 0 0 0 0 0
Neighs:    1.95226e+06 ave 1.95226e+06 max 1.95226e+06 min
Histogram: 1 0 0 0 0 0 0 0 0 0

Total # of neighbors = 1952265
Ave neighs/atom = 99.3418
Neighbor list builds = 495
Dangerous builds not checked
Setting up Verlet run ...
  Unit style    : metal
  Current step  : 58495
  Time step     : 0.001
Per MPI rank memory allocation (min/avg/max) = 19.73 | 19.73 | 19.73 Mbytes
Step Temp Press TotEng PotEng Enthalpy 
   58495    1972.5612   -1563.8772   -75179.988   -80190.473   -75426.412 
   60000    1949.1165    1599.7507   -75294.621   -80245.554   -75043.468 
Loop time of 227.143 on 1 procs for 1505 steps with 19652 atoms

Performance: 0.572 ns/day, 41.924 hours/ns, 6.626 timesteps/s
99.8% CPU use with 1 MPI tasks x no OpenMP threads

MPI task timing breakdown:
Section |  min time  |  avg time  |  max time  |%varavg| %total
---------------------------------------------------------------
Pair    | 121.39     | 121.39     | 121.39     |   0.0 | 53.44
Neigh   | 102.12     | 102.12     | 102.12     |   0.0 | 44.96
Comm    | 1.248      | 1.248      | 1.248      |   0.0 |  0.55
Output  | 0.46792    | 0.46792    | 0.46792    |   0.0 |  0.21
Modify  | 1.4927     | 1.4927     | 1.4927     |   0.0 |  0.66
Other   |            | 0.4283     |            |       |  0.19

Nlocal:    19652 ave 19652 max 19652 min
Histogram: 1 0 0 0 0 0 0 0 0 0
Nghost:    20568 ave 20568 max 20568 min
Histogram: 1 0 0 0 0 0 0 0 0 0
Neighs:    1.95909e+06 ave 1.95909e+06 max 1.95909e+06 min
Histogram: 1 0 0 0 0 0 0 0 0 0

Total # of neighbors = 1959090
Ave neighs/atom = 99.6891
Neighbor list builds = 1505
Dangerous builds not checked
Setting up Verlet run ...
  Unit style    : metal
  Current step  : 60000
  Time step     : 0.001
Per MPI rank memory allocation (min/avg/max) = 19.73 | 19.73 | 19.73 Mbytes
Step Temp Press TotEng PotEng Enthalpy 
   60000    1949.1165    1599.7507   -75294.621   -80245.554   -75043.468 
   60495     1919.428     2280.947   -75480.574   -80356.096   -75123.245 
Loop time of 83.0995 on 1 procs for 495 steps with 19652 atoms

Performance: 0.515 ns/day, 46.633 hours/ns, 5.957 timesteps/s
100.0% CPU use with 1 MPI tasks x no OpenMP threads

MPI task timing breakdown:
Section |  min time  |  avg time  |  max time  |%varavg| %total
---------------------------------------------------------------
Pair    | 45.238     | 45.238     | 45.238     |   0.0 | 54.44
Neigh   | 36.661     | 36.661     | 36.661     |   0.0 | 44.12
Comm    | 0.47329    | 0.47329    | 0.47329    |   0.0 |  0.57
Output  | 0.000139   | 0.000139   | 0.000139   |   0.0 |  0.00
Modify  | 0.56039    | 0.56039    | 0.56039    |   0.0 |  0.67
Other   |            | 0.1671     |            |       |  0.20

Nlocal:    19652 ave 19652 max 19652 min
Histogram: 1 0 0 0 0 0 0 0 0 0
Nghost:    20573 ave 20573 max 20573 min
Histogram: 1 0 0 0 0 0 0 0 0 0
Neighs:    1.96447e+06 ave 1.96447e+06 max 1.96447e+06 min
Histogram: 1 0 0 0 0 0 0 0 0 0

Total # of neighbors = 1964474
Ave neighs/atom = 99.9631
Neighbor list builds = 495
Dangerous builds not checked
Setting up Verlet run ...
  Unit style    : metal
  Current step  : 60495
  Time step     : 0.001
Per MPI rank memory allocation (min/avg/max) = 19.73 | 19.73 | 19.73 Mbytes
Step Temp Press TotEng PotEng Enthalpy 
   60495     1919.428     2280.947   -75480.574   -80356.096   -75123.245 
   62000    1892.2902     87.68954     -75631.4    -80437.99   -75617.664 
Loop time of 231.571 on 1 procs for 1505 steps with 19652 atoms

Performance: 0.562 ns/day, 42.741 hours/ns, 6.499 timesteps/s
99.9% CPU use with 1 MPI tasks x no OpenMP threads

MPI task timing breakdown:
Section |  min time  |  avg time  |  max time  |%varavg| %total
---------------------------------------------------------------
Pair    | 124.66     | 124.66     | 124.66     |   0.0 | 53.83
Neigh   | 103.5      | 103.5      | 103.5      |   0.0 | 44.69
Comm    | 1.2979     | 1.2979     | 1.2979     |   0.0 |  0.56
Output  | 0.15892    | 0.15892    | 0.15892    |   0.0 |  0.07
Modify  | 1.5162     | 1.5162     | 1.5162     |   0.0 |  0.65
Other   |            | 0.4395     |            |       |  0.19

Nlocal:    19652 ave 19652 max 19652 min
Histogram: 1 0 0 0 0 0 0 0 0 0
Nghost:    20587 ave 20587 max 20587 min
Histogram: 1 0 0 0 0 0 0 0 0 0
Neighs:    1.96416e+06 ave 1.96416e+06 max 1.96416e+06 min
Histogram: 1 0 0 0 0 0 0 0 0 0

Total # of neighbors = 1964156
Ave neighs/atom = 99.9469
Neighbor list builds = 1505
Dangerous builds not checked
Setting up Verlet run ...
  Unit style    : metal
  Current step  : 62000
  Time step     : 0.001
Per MPI rank memory allocation (min/avg/max) = 19.73 | 19.73 | 19.73 Mbytes
Step Temp Press TotEng PotEng Enthalpy 
   62000    1892.2902     87.68954     -75631.4    -80437.99   -75617.664 
   62495    1869.2506    1799.6527   -75786.967   -80535.033   -75506.066 
Loop time of 75.0313 on 1 procs for 495 steps with 19652 atoms

Performance: 0.570 ns/day, 42.105 hours/ns, 6.597 timesteps/s
100.0% CPU use with 1 MPI tasks x no OpenMP threads

MPI task timing breakdown:
Section |  min time  |  avg time  |  max time  |%varavg| %total
---------------------------------------------------------------
Pair    | 40.294     | 40.294     | 40.294     |   0.0 | 53.70
Neigh   | 33.689     | 33.689     | 33.689     |   0.0 | 44.90
Comm    | 0.40526    | 0.40526    | 0.40526    |   0.0 |  0.54
Output  | 0.00011396 | 0.00011396 | 0.00011396 |   0.0 |  0.00
Modify  | 0.50345    | 0.50345    | 0.50345    |   0.0 |  0.67
Other   |            | 0.1398     |            |       |  0.19

Nlocal:    19652 ave 19652 max 19652 min
Histogram: 1 0 0 0 0 0 0 0 0 0
Nghost:    20542 ave 20542 max 20542 min
Histogram: 1 0 0 0 0 0 0 0 0 0
Neighs:    1.97094e+06 ave 1.97094e+06 max 1.97094e+06 min
Histogram: 1 0 0 0 0 0 0 0 0 0

Total # of neighbors = 1970942
Ave neighs/atom = 100.292
Neighbor list builds = 495
Dangerous builds not checked
Setting up Verlet run ...
  Unit style    : metal
  Current step  : 62495
  Time step     : 0.001
Per MPI rank memory allocation (min/avg/max) = 19.73 | 19.73 | 19.73 Mbytes
Step Temp Press TotEng PotEng Enthalpy 
   62495    1869.2506    1799.6527   -75786.967   -80535.033   -75506.066 
   64000    1838.0468   -443.43002   -75978.704    -80647.51   -76047.897 
Loop time of 231.519 on 1 procs for 1505 steps with 19652 atoms

Performance: 0.562 ns/day, 42.731 hours/ns, 6.501 timesteps/s
99.8% CPU use with 1 MPI tasks x no OpenMP threads

MPI task timing breakdown:
Section |  min time  |  avg time  |  max time  |%varavg| %total
---------------------------------------------------------------
Pair    | 124.15     | 124.15     | 124.15     |   0.0 | 53.62
Neigh   | 104.01     | 104.01     | 104.01     |   0.0 | 44.92
Comm    | 1.25       | 1.25       | 1.25       |   0.0 |  0.54
Output  | 0.16287    | 0.16287    | 0.16287    |   0.0 |  0.07
Modify  | 1.5275     | 1.5275     | 1.5275     |   0.0 |  0.66
Other   |            | 0.4239     |            |       |  0.18

Nlocal:    19652 ave 19652 max 19652 min
Histogram: 1 0 0 0 0 0 0 0 0 0
Nghost:    20628 ave 20628 max 20628 min
Histogram: 1 0 0 0 0 0 0 0 0 0
Neighs:    1.97194e+06 ave 1.97194e+06 max 1.97194e+06 min
Histogram: 1 0 0 0 0 0 0 0 0 0

Total # of neighbors = 1971942
Ave neighs/atom = 100.343
Neighbor list builds = 1505
Dangerous builds not checked
Setting up Verlet run ...
  Unit style    : metal
  Current step  : 64000
  Time step     : 0.001
Per MPI rank memory allocation (min/avg/max) = 19.73 | 19.73 | 19.73 Mbytes
Step Temp Press TotEng PotEng Enthalpy 
   64000    1838.0468   -443.43002   -75978.704    -80647.51   -76047.897 
   64495    1797.0543    1017.6462   -76187.023   -80751.705   -76028.745 
Loop time of 75.5015 on 1 procs for 495 steps with 19652 atoms

Performance: 0.566 ns/day, 42.369 hours/ns, 6.556 timesteps/s
100.0% CPU use with 1 MPI tasks x no OpenMP threads

MPI task timing breakdown:
Section |  min time  |  avg time  |  max time  |%varavg| %total
---------------------------------------------------------------
Pair    | 40.637     | 40.637     | 40.637     |   0.0 | 53.82
Neigh   | 33.815     | 33.815     | 33.815     |   0.0 | 44.79
Comm    | 0.40951    | 0.40951    | 0.40951    |   0.0 |  0.54
Output  | 0.00014114 | 0.00014114 | 0.00014114 |   0.0 |  0.00
Modify  | 0.49911    | 0.49911    | 0.49911    |   0.0 |  0.66
Other   |            | 0.1412     |            |       |  0.19

Nlocal:    19652 ave 19652 max 19652 min
Histogram: 1 0 0 0 0 0 0 0 0 0
Nghost:    20729 ave 20729 max 20729 min
Histogram: 1 0 0 0 0 0 0 0 0 0
Neighs:    1.97836e+06 ave 1.97836e+06 max 1.97836e+06 min
Histogram: 1 0 0 0 0 0 0 0 0 0

Total # of neighbors = 1978356
Ave neighs/atom = 100.669
Neighbor list builds = 495
Dangerous builds not checked
Setting up Verlet run ...
  Unit style    : metal
  Current step  : 64495
  Time step     : 0.001
Per MPI rank memory allocation (min/avg/max) = 19.73 | 19.73 | 19.73 Mbytes
Step Temp Press TotEng PotEng Enthalpy 
   64495    1797.0543    1017.6462   -76187.023   -80751.705   -76028.745 
   66000    1818.6528   -1347.3302   -76182.864   -80802.408   -76392.536 
Loop time of 243.01 on 1 procs for 1505 steps with 19652 atoms

Performance: 0.535 ns/day, 44.852 hours/ns, 6.193 timesteps/s
99.9% CPU use with 1 MPI tasks x no OpenMP threads

MPI task timing breakdown:
Section |  min time  |  avg time  |  max time  |%varavg| %total
---------------------------------------------------------------
Pair    | 132.12     | 132.12     | 132.12     |   0.0 | 54.37
Neigh   | 107.27     | 107.27     | 107.27     |   0.0 | 44.14
Comm    | 1.3915     | 1.3915     | 1.3915     |   0.0 |  0.57
Output  | 0.15272    | 0.15272    | 0.15272    |   0.0 |  0.06
Modify  | 1.5955     | 1.5955     | 1.5955     |   0.0 |  0.66
Other   |            | 0.4863     |            |       |  0.20

Nlocal:    19652 ave 19652 max 19652 min
Histogram: 1 0 0 0 0 0 0 0 0 0
Nghost:    20603 ave 20603 max 20603 min
Histogram: 1 0 0 0 0 0 0 0 0 0
Neighs:    1.97595e+06 ave 1.97595e+06 max 1.97595e+06 min
Histogram: 1 0 0 0 0 0 0 0 0 0

Total # of neighbors = 1975954
Ave neighs/atom = 100.547
Neighbor list builds = 1505
Dangerous builds not checked
Setting up Verlet run ...
  Unit style    : metal
  Current step  : 66000
  Time step     : 0.001
Per MPI rank memory allocation (min/avg/max) = 19.73 | 19.73 | 19.73 Mbytes
Step Temp Press TotEng PotEng Enthalpy 
   66000    1818.6528   -1347.3302   -76182.864   -80802.408   -76392.536 
   66495    1759.4847   -210.90265   -76446.259    -80915.51   -76478.998 
Loop time of 80.88 on 1 procs for 495 steps with 19652 atoms

Performance: 0.529 ns/day, 45.387 hours/ns, 6.120 timesteps/s
100.0% CPU use with 1 MPI tasks x no OpenMP threads

MPI task timing breakdown:
Section |  min time  |  avg time  |  max time  |%varavg| %total
---------------------------------------------------------------
Pair    | 44.045     | 44.045     | 44.045     |   0.0 | 54.46
Neigh   | 35.675     | 35.675     | 35.675     |   0.0 | 44.11
Comm    | 0.46153    | 0.46153    | 0.46153    |   0.0 |  0.57
Output  | 0.00014997 | 0.00014997 | 0.00014997 |   0.0 |  0.00
Modify  | 0.53565    | 0.53565    | 0.53565    |   0.0 |  0.66
Other   |            | 0.1623     |            |       |  0.20

Nlocal:    19652 ave 19652 max 19652 min
Histogram: 1 0 0 0 0 0 0 0 0 0
Nghost:    20566 ave 20566 max 20566 min
Histogram: 1 0 0 0 0 0 0 0 0 0
Neighs:    1.98182e+06 ave 1.98182e+06 max 1.98182e+06 min
Histogram: 1 0 0 0 0 0 0 0 0 0

Total # of neighbors = 1981820
Ave neighs/atom = 100.846
Neighbor list builds = 495
Dangerous builds not checked
Setting up Verlet run ...
  Unit style    : metal
  Current step  : 66495
  Time step     : 0.001
Per MPI rank memory allocation (min/avg/max) = 19.73 | 19.73 | 19.73 Mbytes
Step Temp Press TotEng PotEng Enthalpy 
   66495    1759.4847   -210.90265   -76446.259    -80915.51   -76478.998 
   68000     1763.271    1615.9867   -76510.148   -80989.017   -76259.986 
Loop time of 253.504 on 1 procs for 1505 steps with 19652 atoms

Performance: 0.513 ns/day, 46.789 hours/ns, 5.937 timesteps/s
99.7% CPU use with 1 MPI tasks x no OpenMP threads

MPI task timing breakdown:
Section |  min time  |  avg time  |  max time  |%varavg| %total
---------------------------------------------------------------
Pair    | 138.57     | 138.57     | 138.57     |   0.0 | 54.66
Neigh   | 111.22     | 111.22     | 111.22     |   0.0 | 43.87
Comm    | 1.4482     | 1.4482     | 1.4482     |   0.0 |  0.57
Output  | 0.072024   | 0.072024   | 0.072024   |   0.0 |  0.03
Modify  | 1.6864     | 1.6864     | 1.6864     |   0.0 |  0.67
Other   |            | 0.5084     |            |       |  0.20

Nlocal:    19652 ave 19652 max 19652 min
Histogram: 1 0 0 0 0 0 0 0 0 0
Nghost:    20665 ave 20665 max 20665 min
Histogram: 1 0 0 0 0 0 0 0 0 0
Neighs:    1.98764e+06 ave 1.98764e+06 max 1.98764e+06 min
Histogram: 1 0 0 0 0 0 0 0 0 0

Total # of neighbors = 1987640
Ave neighs/atom = 101.142
Neighbor list builds = 1505
Dangerous builds not checked
Setting up Verlet run ...
  Unit style    : metal
  Current step  : 68000
  Time step     : 0.001
Per MPI rank memory allocation (min/avg/max) = 19.73 | 19.73 | 19.73 Mbytes
Step Temp Press TotEng PotEng Enthalpy 
   68000     1763.271    1615.9867   -76510.148   -80989.017   -76259.986 
   68495     1716.596    73.309232   -76775.706   -81136.016   -76764.378 
Loop time of 86.6263 on 1 procs for 495 steps with 19652 atoms

Performance: 0.494 ns/day, 48.612 hours/ns, 5.714 timesteps/s
99.4% CPU use with 1 MPI tasks x no OpenMP threads

MPI task timing breakdown:
Section |  min time  |  avg time  |  max time  |%varavg| %total
---------------------------------------------------------------
Pair    | 47.673     | 47.673     | 47.673     |   0.0 | 55.03
Neigh   | 37.7       | 37.7       | 37.7       |   0.0 | 43.52
Comm    | 0.4957     | 0.4957     | 0.4957     |   0.0 |  0.57
Output  | 0.00013089 | 0.00013089 | 0.00013089 |   0.0 |  0.00
Modify  | 0.58357    | 0.58357    | 0.58357    |   0.0 |  0.67
Other   |            | 0.1734     |            |       |  0.20

Nlocal:    19652 ave 19652 max 19652 min
Histogram: 1 0 0 0 0 0 0 0 0 0
Nghost:    20673 ave 20673 max 20673 min
Histogram: 1 0 0 0 0 0 0 0 0 0
Neighs:    1.99054e+06 ave 1.99054e+06 max 1.99054e+06 min
Histogram: 1 0 0 0 0 0 0 0 0 0

Total # of neighbors = 1990535
Ave neighs/atom = 101.289
Neighbor list builds = 495
Dangerous builds not checked
Setting up Verlet run ...
  Unit style    : metal
  Current step  : 68495
  Time step     : 0.001
Per MPI rank memory allocation (min/avg/max) = 19.73 | 19.73 | 19.73 Mbytes
Step Temp Press TotEng PotEng Enthalpy 
   68495     1716.596    73.309232   -76775.706   -81136.016   -76764.378 
   70000    1712.1721    748.38675   -76897.806   -81246.879   -76782.381 
Loop time of 252.148 on 1 procs for 1505 steps with 19652 atoms

Performance: 0.516 ns/day, 46.539 hours/ns, 5.969 timesteps/s
99.9% CPU use with 1 MPI tasks x no OpenMP threads

MPI task timing breakdown:
Section |  min time  |  avg time  |  max time  |%varavg| %total
---------------------------------------------------------------
Pair    | 138.04     | 138.04     | 138.04     |   0.0 | 54.74
Neigh   | 110.4      | 110.4      | 110.4      |   0.0 | 43.78
Comm    | 1.4444     | 1.4444     | 1.4444     |   0.0 |  0.57
Output  | 0.089676   | 0.089676   | 0.089676   |   0.0 |  0.04
Modify  | 1.6686     | 1.6686     | 1.6686     |   0.0 |  0.66
Other   |            | 0.51       |            |       |  0.20

Nlocal:    19652 ave 19652 max 19652 min
Histogram: 1 0 0 0 0 0 0 0 0 0
Nghost:    20638 ave 20638 max 20638 min
Histogram: 1 0 0 0 0 0 0 0 0 0
Neighs:    1.99426e+06 ave 1.99426e+06 max 1.99426e+06 min
Histogram: 1 0 0 0 0 0 0 0 0 0

Total # of neighbors = 1994257
Ave neighs/atom = 101.479
Neighbor list builds = 1505
Dangerous builds not checked
Setting up Verlet run ...
  Unit style    : metal
  Current step  : 70000
  Time step     : 0.001
Per MPI rank memory allocation (min/avg/max) = 19.73 | 19.73 | 19.73 Mbytes
Step Temp Press TotEng PotEng Enthalpy 
   70000    1712.1721    748.38675   -76897.806   -81246.879   -76782.381 
   70495    1668.7294   -673.33266   -77123.037   -81361.762   -77226.724 
Loop time of 84.1854 on 1 procs for 495 steps with 19652 atoms

Performance: 0.508 ns/day, 47.242 hours/ns, 5.880 timesteps/s
100.0% CPU use with 1 MPI tasks x no OpenMP threads

MPI task timing breakdown:
Section |  min time  |  avg time  |  max time  |%varavg| %total
---------------------------------------------------------------
Pair    | 46.291     | 46.291     | 46.291     |   0.0 | 54.99
Neigh   | 36.675     | 36.675     | 36.675     |   0.0 | 43.56
Comm    | 0.48243    | 0.48243    | 0.48243    |   0.0 |  0.57
Output  | 0.00014305 | 0.00014305 | 0.00014305 |   0.0 |  0.00
Modify  | 0.56579    | 0.56579    | 0.56579    |   0.0 |  0.67
Other   |            | 0.1713     |            |       |  0.20

Nlocal:    19652 ave 19652 max 19652 min
Histogram: 1 0 0 0 0 0 0 0 0 0
Nghost:    20671 ave 20671 max 20671 min
Histogram: 1 0 0 0 0 0 0 0 0 0
Neighs:    1.9974e+06 ave 1.9974e+06 max 1.9974e+06 min
Histogram: 1 0 0 0 0 0 0 0 0 0

Total # of neighbors = 1997405
Ave neighs/atom = 101.639
Neighbor list builds = 495
Dangerous builds not checked
Setting up Verlet run ...
  Unit style    : metal
  Current step  : 70495
  Time step     : 0.001
Per MPI rank memory allocation (min/avg/max) = 19.73 | 19.73 | 19.73 Mbytes
Step Temp Press TotEng PotEng Enthalpy 
   70495    1668.7294   -673.33266   -77123.037   -81361.762   -77226.724 
   72000    1643.5202   -1359.7346   -77259.403   -81434.093   -77468.523 
Loop time of 289.318 on 1 procs for 1505 steps with 19652 atoms

Performance: 0.449 ns/day, 53.399 hours/ns, 5.202 timesteps/s
99.8% CPU use with 1 MPI tasks x no OpenMP threads

MPI task timing breakdown:
Section |  min time  |  avg time  |  max time  |%varavg| %total
---------------------------------------------------------------
Pair    | 159.98     | 159.98     | 159.98     |   0.0 | 55.30
Neigh   | 125.02     | 125.02     | 125.02     |   0.0 | 43.21
Comm    | 1.7511     | 1.7511     | 1.7511     |   0.0 |  0.61
Output  | 0.057911   | 0.057911   | 0.057911   |   0.0 |  0.02
Modify  | 1.9395     | 1.9395     | 1.9395     |   0.0 |  0.67
Other   |            | 0.5657     |            |       |  0.20

Nlocal:    19652 ave 19652 max 19652 min
Histogram: 1 0 0 0 0 0 0 0 0 0
Nghost:    20624 ave 20624 max 20624 min
Histogram: 1 0 0 0 0 0 0 0 0 0
Neighs:    2.00032e+06 ave 2.00032e+06 max 2.00032e+06 min
Histogram: 1 0 0 0 0 0 0 0 0 0

Total # of neighbors = 2000324
Ave neighs/atom = 101.787
Neighbor list builds = 1505
Dangerous builds not checked
Setting up Verlet run ...
  Unit style    : metal
  Current step  : 72000
  Time step     : 0.001
Per MPI rank memory allocation (min/avg/max) = 19.73 | 19.73 | 19.73 Mbytes
Step Temp Press TotEng PotEng Enthalpy 
   72000    1643.5202   -1359.7346   -77259.403   -81434.093   -77468.523 
   72495    1619.0723   -1233.7212   -77459.294   -81571.886   -77648.549 
Loop time of 99.7882 on 1 procs for 495 steps with 19652 atoms

Performance: 0.429 ns/day, 55.998 hours/ns, 4.961 timesteps/s
99.7% CPU use with 1 MPI tasks x no OpenMP threads

MPI task timing breakdown:
Section |  min time  |  avg time  |  max time  |%varavg| %total
---------------------------------------------------------------
Pair    | 55.49      | 55.49      | 55.49      |   0.0 | 55.61
Neigh   | 42.801     | 42.801     | 42.801     |   0.0 | 42.89
Comm    | 0.62689    | 0.62689    | 0.62689    |   0.0 |  0.63
Output  | 0.00018692 | 0.00018692 | 0.00018692 |   0.0 |  0.00
Modify  | 0.67596    | 0.67596    | 0.67596    |   0.0 |  0.68
Other   |            | 0.1938     |            |       |  0.19

Nlocal:    19652 ave 19652 max 19652 min
Histogram: 1 0 0 0 0 0 0 0 0 0
Nghost:    20763 ave 20763 max 20763 min
Histogram: 1 0 0 0 0 0 0 0 0 0
Neighs:    2.00506e+06 ave 2.00506e+06 max 2.00506e+06 min
Histogram: 1 0 0 0 0 0 0 0 0 0

Total # of neighbors = 2005063
Ave neighs/atom = 102.028
Neighbor list builds = 495
Dangerous builds not checked
Setting up Verlet run ...
  Unit style    : metal
  Current step  : 72495
  Time step     : 0.001
Per MPI rank memory allocation (min/avg/max) = 19.73 | 19.73 | 19.73 Mbytes
Step Temp Press TotEng PotEng Enthalpy 
   72495    1619.0723   -1233.7212   -77459.294   -81571.886   -77648.549 
   74000    1609.8324   -1300.8387   -77579.367   -81668.488   -77778.552 
Loop time of 282.694 on 1 procs for 1505 steps with 19652 atoms

Performance: 0.460 ns/day, 52.177 hours/ns, 5.324 timesteps/s
99.5% CPU use with 1 MPI tasks x no OpenMP threads

MPI task timing breakdown:
Section |  min time  |  avg time  |  max time  |%varavg| %total
---------------------------------------------------------------
Pair    | 156.2      | 156.2      | 156.2      |   0.0 | 55.25
Neigh   | 122.31     | 122.31     | 122.31     |   0.0 | 43.27
Comm    | 1.6675     | 1.6675     | 1.6675     |   0.0 |  0.59
Output  | 0.059206   | 0.059206   | 0.059206   |   0.0 |  0.02
Modify  | 1.8945     | 1.8945     | 1.8945     |   0.0 |  0.67
Other   |            | 0.5635     |            |       |  0.20

Nlocal:    19652 ave 19652 max 19652 min
Histogram: 1 0 0 0 0 0 0 0 0 0
Nghost:    20749 ave 20749 max 20749 min
Histogram: 1 0 0 0 0 0 0 0 0 0
Neighs:    2.00916e+06 ave 2.00916e+06 max 2.00916e+06 min
Histogram: 1 0 0 0 0 0 0 0 0 0

Total # of neighbors = 2009163
Ave neighs/atom = 102.237
Neighbor list builds = 1505
Dangerous builds not checked
Setting up Verlet run ...
  Unit style    : metal
  Current step  : 74000
  Time step     : 0.001
Per MPI rank memory allocation (min/avg/max) = 19.73 | 19.73 | 19.73 Mbytes
Step Temp Press TotEng PotEng Enthalpy 
   74000    1609.8324   -1300.8387   -77579.367   -81668.488   -77778.552 
   74495    1558.7367    950.61732   -77778.702   -81738.035   -77633.488 
Loop time of 93.7399 on 1 procs for 495 steps with 19652 atoms

Performance: 0.456 ns/day, 52.604 hours/ns, 5.281 timesteps/s
99.9% CPU use with 1 MPI tasks x no OpenMP threads

MPI task timing breakdown:
Section |  min time  |  avg time  |  max time  |%varavg| %total
---------------------------------------------------------------
Pair    | 52.059     | 52.059     | 52.059     |   0.0 | 55.54
Neigh   | 40.325     | 40.325     | 40.325     |   0.0 | 43.02
Comm    | 0.53182    | 0.53182    | 0.53182    |   0.0 |  0.57
Output  | 0.00012302 | 0.00012302 | 0.00012302 |   0.0 |  0.00
Modify  | 0.63637    | 0.63637    | 0.63637    |   0.0 |  0.68
Other   |            | 0.1878     |            |       |  0.20

Nlocal:    19652 ave 19652 max 19652 min
Histogram: 1 0 0 0 0 0 0 0 0 0
Nghost:    20807 ave 20807 max 20807 min
Histogram: 1 0 0 0 0 0 0 0 0 0
Neighs:    2.01351e+06 ave 2.01351e+06 max 2.01351e+06 min
Histogram: 1 0 0 0 0 0 0 0 0 0

Total # of neighbors = 2013509
Ave neighs/atom = 102.458
Neighbor list builds = 495
Dangerous builds not checked
Setting up Verlet run ...
  Unit style    : metal
  Current step  : 74495
  Time step     : 0.001
Per MPI rank memory allocation (min/avg/max) = 19.73 | 19.73 | 19.73 Mbytes
Step Temp Press TotEng PotEng Enthalpy 
   74495    1558.7367    950.61732   -77778.702   -81738.035   -77633.488 
   76000    1554.7493    1049.1839   -77931.792   -81880.997    -77771.94 
Loop time of 275.731 on 1 procs for 1505 steps with 19652 atoms

Performance: 0.472 ns/day, 50.892 hours/ns, 5.458 timesteps/s
99.8% CPU use with 1 MPI tasks x no OpenMP threads

MPI task timing breakdown:
Section |  min time  |  avg time  |  max time  |%varavg| %total
---------------------------------------------------------------
Pair    | 152.48     | 152.48     | 152.48     |   0.0 | 55.30
Neigh   | 119.25     | 119.25     | 119.25     |   0.0 | 43.25
Comm    | 1.5461     | 1.5461     | 1.5461     |   0.0 |  0.56
Output  | 0.082459   | 0.082459   | 0.082459   |   0.0 |  0.03
Modify  | 1.8413     | 1.8413     | 1.8413     |   0.0 |  0.67
Other   |            | 0.5313     |            |       |  0.19

Nlocal:    19652 ave 19652 max 19652 min
Histogram: 1 0 0 0 0 0 0 0 0 0
Nghost:    20869 ave 20869 max 20869 min
Histogram: 1 0 0 0 0 0 0 0 0 0
Neighs:    2.01925e+06 ave 2.01925e+06 max 2.01925e+06 min
Histogram: 1 0 0 0 0 0 0 0 0 0

Total # of neighbors = 2019254
Ave neighs/atom = 102.751
Neighbor list builds = 1505
Dangerous builds not checked
Setting up Verlet run ...
  Unit style    : metal
  Current step  : 76000
  Time step     : 0.001
Per MPI rank memory allocation (min/avg/max) = 19.73 | 19.73 | 19.73 Mbytes
Step Temp Press TotEng PotEng Enthalpy 
   76000    1554.7493    1049.1839   -77931.792   -81880.997    -77771.94 
   76495     1512.356    1066.9597   -78117.209   -81958.731    -77954.95 
Loop time of 90.5947 on 1 procs for 495 steps with 19652 atoms

Performance: 0.472 ns/day, 50.839 hours/ns, 5.464 timesteps/s
99.6% CPU use with 1 MPI tasks x no OpenMP threads

MPI task timing breakdown:
Section |  min time  |  avg time  |  max time  |%varavg| %total
---------------------------------------------------------------
Pair    | 49.863     | 49.863     | 49.863     |   0.0 | 55.04
Neigh   | 39.451     | 39.451     | 39.451     |   0.0 | 43.55
Comm    | 0.49567    | 0.49567    | 0.49567    |   0.0 |  0.55
Output  | 0.00013304 | 0.00013304 | 0.00013304 |   0.0 |  0.00
Modify  | 0.61644    | 0.61644    | 0.61644    |   0.0 |  0.68
Other   |            | 0.1686     |            |       |  0.19

Nlocal:    19652 ave 19652 max 19652 min
Histogram: 1 0 0 0 0 0 0 0 0 0
Nghost:    20787 ave 20787 max 20787 min
Histogram: 1 0 0 0 0 0 0 0 0 0
Neighs:    2.02241e+06 ave 2.02241e+06 max 2.02241e+06 min
Histogram: 1 0 0 0 0 0 0 0 0 0

Total # of neighbors = 2022414
Ave neighs/atom = 102.911
Neighbor list builds = 495
Dangerous builds not checked
Setting up Verlet run ...
  Unit style    : metal
  Current step  : 76495
  Time step     : 0.001
Per MPI rank memory allocation (min/avg/max) = 19.73 | 19.73 | 19.73 Mbytes
Step Temp Press TotEng PotEng Enthalpy 
   76495     1512.356    1066.9597   -78117.209   -81958.731    -77954.95 
   78000    1492.3732      2614.05   -78303.859   -82094.623   -77907.564 
Loop time of 266.386 on 1 procs for 1505 steps with 19652 atoms

Performance: 0.488 ns/day, 49.167 hours/ns, 5.650 timesteps/s
99.3% CPU use with 1 MPI tasks x no OpenMP threads

MPI task timing breakdown:
Section |  min time  |  avg time  |  max time  |%varavg| %total
---------------------------------------------------------------
Pair    | 146.53     | 146.53     | 146.53     |   0.0 | 55.01
Neigh   | 116.1      | 116.1      | 116.1      |   0.0 | 43.58
Comm    | 1.4535     | 1.4535     | 1.4535     |   0.0 |  0.55
Output  | 0.056615   | 0.056615   | 0.056615   |   0.0 |  0.02
Modify  | 1.7554     | 1.7554     | 1.7554     |   0.0 |  0.66
Other   |            | 0.4905     |            |       |  0.18

Nlocal:    19652 ave 19652 max 19652 min
Histogram: 1 0 0 0 0 0 0 0 0 0
Nghost:    20791 ave 20791 max 20791 min
Histogram: 1 0 0 0 0 0 0 0 0 0
Neighs:    2.02896e+06 ave 2.02896e+06 max 2.02896e+06 min
Histogram: 1 0 0 0 0 0 0 0 0 0

Total # of neighbors = 2028962
Ave neighs/atom = 103.245
Neighbor list builds = 1505
Dangerous builds not checked
Setting up Verlet run ...
  Unit style    : metal
  Current step  : 78000
  Time step     : 0.001
Per MPI rank memory allocation (min/avg/max) = 19.73 | 19.73 | 19.73 Mbytes
Step Temp Press TotEng PotEng Enthalpy 
   78000    1492.3732      2614.05   -78303.859   -82094.623   -77907.564 
   78495     1450.666   -176.23331   -78457.345   -82142.169   -78484.079 
Loop time of 82.5336 on 1 procs for 495 steps with 19652 atoms

Performance: 0.518 ns/day, 46.315 hours/ns, 5.998 timesteps/s
99.8% CPU use with 1 MPI tasks x no OpenMP threads

MPI task timing breakdown:
Section |  min time  |  avg time  |  max time  |%varavg| %total
---------------------------------------------------------------
Pair    | 45.105     | 45.105     | 45.105     |   0.0 | 54.65
Neigh   | 36.28      | 36.28      | 36.28      |   0.0 | 43.96
Comm    | 0.4452     | 0.4452     | 0.4452     |   0.0 |  0.54
Output  | 0.00011015 | 0.00011015 | 0.00011015 |   0.0 |  0.00
Modify  | 0.54846    | 0.54846    | 0.54846    |   0.0 |  0.66
Other   |            | 0.1547     |            |       |  0.19

Nlocal:    19652 ave 19652 max 19652 min
Histogram: 1 0 0 0 0 0 0 0 0 0
Nghost:    20828 ave 20828 max 20828 min
Histogram: 1 0 0 0 0 0 0 0 0 0
Neighs:    2.02733e+06 ave 2.02733e+06 max 2.02733e+06 min
Histogram: 1 0 0 0 0 0 0 0 0 0

Total # of neighbors = 2027327
Ave neighs/atom = 103.161
Neighbor list builds = 495
Dangerous builds not checked
Setting up Verlet run ...
  Unit style    : metal
  Current step  : 78495
  Time step     : 0.001
Per MPI rank memory allocation (min/avg/max) = 19.73 | 19.73 | 19.73 Mbytes
Step Temp Press TotEng PotEng Enthalpy 
   78495     1450.666   -176.23331   -78457.345   -82142.169   -78484.079 
   80000    1440.8053   -721.82836   -78590.359   -82250.136   -78699.663 
Loop time of 248.691 on 1 procs for 1505 steps with 19652 atoms

Performance: 0.523 ns/day, 45.901 hours/ns, 6.052 timesteps/s
99.8% CPU use with 1 MPI tasks x no OpenMP threads

MPI task timing breakdown:
Section |  min time  |  avg time  |  max time  |%varavg| %total
---------------------------------------------------------------
Pair    | 135.92     | 135.92     | 135.92     |   0.0 | 54.65
Neigh   | 109.25     | 109.25     | 109.25     |   0.0 | 43.93
Comm    | 1.3629     | 1.3629     | 1.3629     |   0.0 |  0.55
Output  | 0.058931   | 0.058931   | 0.058931   |   0.0 |  0.02
Modify  | 1.6404     | 1.6404     | 1.6404     |   0.0 |  0.66
Other   |            | 0.4582     |            |       |  0.18

Nlocal:    19652 ave 19652 max 19652 min
Histogram: 1 0 0 0 0 0 0 0 0 0
Nghost:    20837 ave 20837 max 20837 min
Histogram: 1 0 0 0 0 0 0 0 0 0
Neighs:    2.03173e+06 ave 2.03173e+06 max 2.03173e+06 min
Histogram: 1 0 0 0 0 0 0 0 0 0

Total # of neighbors = 2031728
Ave neighs/atom = 103.385
Neighbor list builds = 1505
Dangerous builds not checked
Setting up Verlet run ...
  Unit style    : metal
  Current step  : 80000
  Time step     : 0.001
Per MPI rank memory allocation (min/avg/max) = 19.73 | 19.73 | 19.73 Mbytes
Step Temp Press TotEng PotEng Enthalpy 
   80000    1440.8053   -721.82836   -78590.359   -82250.136   -78699.663 
   80495    1419.6994     248.8541   -78787.409   -82393.574   -78749.851 
Loop time of 77.3403 on 1 procs for 495 steps with 19652 atoms

Performance: 0.553 ns/day, 43.401 hours/ns, 6.400 timesteps/s
99.7% CPU use with 1 MPI tasks x no OpenMP threads

MPI task timing breakdown:
Section |  min time  |  avg time  |  max time  |%varavg| %total
---------------------------------------------------------------
Pair    | 42.117     | 42.117     | 42.117     |   0.0 | 54.46
Neigh   | 34.15      | 34.15      | 34.15      |   0.0 | 44.16
Comm    | 0.41652    | 0.41652    | 0.41652    |   0.0 |  0.54
Output  | 0.00012517 | 0.00012517 | 0.00012517 |   0.0 |  0.00
Modify  | 0.51259    | 0.51259    | 0.51259    |   0.0 |  0.66
Other   |            | 0.1442     |            |       |  0.19

Nlocal:    19652 ave 19652 max 19652 min
Histogram: 1 0 0 0 0 0 0 0 0 0
Nghost:    20958 ave 20958 max 20958 min
Histogram: 1 0 0 0 0 0 0 0 0 0
Neighs:    2.03884e+06 ave 2.03884e+06 max 2.03884e+06 min
Histogram: 1 0 0 0 0 0 0 0 0 0

Total # of neighbors = 2038845
Ave neighs/atom = 103.747
Neighbor list builds = 495
Dangerous builds not checked
Setting up Verlet run ...
  Unit style    : metal
  Current step  : 80495
  Time step     : 0.001
Per MPI rank memory allocation (min/avg/max) = 19.73 | 19.73 | 19.73 Mbytes
Step Temp Press TotEng PotEng Enthalpy 
   80495    1419.6994     248.8541   -78787.409   -82393.574   -78749.851 
   82000    1401.4565   -213.77111   -78900.887   -82460.714   -78933.134 
Loop time of 251.411 on 1 procs for 1505 steps with 19652 atoms

Performance: 0.517 ns/day, 46.403 hours/ns, 5.986 timesteps/s
99.7% CPU use with 1 MPI tasks x no OpenMP threads

MPI task timing breakdown:
Section |  min time  |  avg time  |  max time  |%varavg| %total
---------------------------------------------------------------
Pair    | 137.92     | 137.92     | 137.92     |   0.0 | 54.86
Neigh   | 109.82     | 109.82     | 109.82     |   0.0 | 43.68
Comm    | 1.3924     | 1.3924     | 1.3924     |   0.0 |  0.55
Output  | 0.15807    | 0.15807    | 0.15807    |   0.0 |  0.06
Modify  | 1.6615     | 1.6615     | 1.6615     |   0.0 |  0.66
Other   |            | 0.466      |            |       |  0.19

Nlocal:    19652 ave 19652 max 19652 min
Histogram: 1 0 0 0 0 0 0 0 0 0
Nghost:    20899 ave 20899 max 20899 min
Histogram: 1 0 0 0 0 0 0 0 0 0
Neighs:    2.03949e+06 ave 2.03949e+06 max 2.03949e+06 min
Histogram: 1 0 0 0 0 0 0 0 0 0

Total # of neighbors = 2039491
Ave neighs/atom = 103.78
Neighbor list builds = 1505
Dangerous builds not checked
Setting up Verlet run ...
  Unit style    : metal
  Current step  : 82000
  Time step     : 0.001
Per MPI rank memory allocation (min/avg/max) = 19.73 | 19.73 | 19.73 Mbytes
Step Temp Press TotEng PotEng Enthalpy 
   82000    1401.4565   -213.77111   -78900.887   -82460.714   -78933.134 
   82495    1361.2727    372.50727   -79145.501   -82603.258   -79089.498 
Loop time of 90.3638 on 1 procs for 495 steps with 19652 atoms

Performance: 0.473 ns/day, 50.709 hours/ns, 5.478 timesteps/s
100.0% CPU use with 1 MPI tasks x no OpenMP threads

MPI task timing breakdown:
Section |  min time  |  avg time  |  max time  |%varavg| %total
---------------------------------------------------------------
Pair    | 50.085     | 50.085     | 50.085     |   0.0 | 55.43
Neigh   | 38.971     | 38.971     | 38.971     |   0.0 | 43.13
Comm    | 0.51333    | 0.51333    | 0.51333    |   0.0 |  0.57
Output  | 0.00018001 | 0.00018001 | 0.00018001 |   0.0 |  0.00
Modify  | 0.61141    | 0.61141    | 0.61141    |   0.0 |  0.68
Other   |            | 0.1821     |            |       |  0.20

Nlocal:    19652 ave 19652 max 19652 min
Histogram: 1 0 0 0 0 0 0 0 0 0
Nghost:    20929 ave 20929 max 20929 min
Histogram: 1 0 0 0 0 0 0 0 0 0
Neighs:    2.04628e+06 ave 2.04628e+06 max 2.04628e+06 min
Histogram: 1 0 0 0 0 0 0 0 0 0

Total # of neighbors = 2046278
Ave neighs/atom = 104.126
Neighbor list builds = 495
Dangerous builds not checked
Setting up Verlet run ...
  Unit style    : metal
  Current step  : 82495
  Time step     : 0.001
Per MPI rank memory allocation (min/avg/max) = 19.73 | 19.73 | 19.73 Mbytes
Step Temp Press TotEng PotEng Enthalpy 
   82495    1361.2727    372.50727   -79145.501   -82603.258   -79089.498 
   84000     1339.705    966.39765   -79285.321   -82688.294   -79140.316 
Loop time of 260.612 on 1 procs for 1505 steps with 19652 atoms

Performance: 0.499 ns/day, 48.101 hours/ns, 5.775 timesteps/s
99.6% CPU use with 1 MPI tasks x no OpenMP threads

MPI task timing breakdown:
Section |  min time  |  avg time  |  max time  |%varavg| %total
---------------------------------------------------------------
Pair    | 144.26     | 144.26     | 144.26     |   0.0 | 55.35
Neigh   | 112.51     | 112.51     | 112.51     |   0.0 | 43.17
Comm    | 1.475      | 1.475      | 1.475      |   0.0 |  0.57
Output  | 0.08851    | 0.08851    | 0.08851    |   0.0 |  0.03
Modify  | 1.7478     | 1.7478     | 1.7478     |   0.0 |  0.67
Other   |            | 0.5332     |            |       |  0.20

Nlocal:    19652 ave 19652 max 19652 min
Histogram: 1 0 0 0 0 0 0 0 0 0
Nghost:    20875 ave 20875 max 20875 min
Histogram: 1 0 0 0 0 0 0 0 0 0
Neighs:    2.05034e+06 ave 2.05034e+06 max 2.05034e+06 min
Histogram: 1 0 0 0 0 0 0 0 0 0

Total # of neighbors = 2050343
Ave neighs/atom = 104.333
Neighbor list builds = 1505
Dangerous builds not checked
Setting up Verlet run ...
  Unit style    : metal
  Current step  : 84000
  Time step     : 0.001
Per MPI rank memory allocation (min/avg/max) = 19.73 | 19.73 | 19.73 Mbytes
Step Temp Press TotEng PotEng Enthalpy 
   84000     1339.705    966.39765   -79285.321   -82688.294   -79140.316 
   84495    1324.4168   -1272.1125    -79511.07   -82875.209   -79701.626 
Loop time of 86.309 on 1 procs for 495 steps with 19652 atoms

Performance: 0.496 ns/day, 48.434 hours/ns, 5.735 timesteps/s
99.8% CPU use with 1 MPI tasks x no OpenMP threads

MPI task timing breakdown:
Section |  min time  |  avg time  |  max time  |%varavg| %total
---------------------------------------------------------------
Pair    | 47.709     | 47.709     | 47.709     |   0.0 | 55.28
Neigh   | 37.361     | 37.361     | 37.361     |   0.0 | 43.29
Comm    | 0.48402    | 0.48402    | 0.48402    |   0.0 |  0.56
Output  | 0.00015497 | 0.00015497 | 0.00015497 |   0.0 |  0.00
Modify  | 0.57744    | 0.57744    | 0.57744    |   0.0 |  0.67
Other   |            | 0.1772     |            |       |  0.21

Nlocal:    19652 ave 19652 max 19652 min
Histogram: 1 0 0 0 0 0 0 0 0 0
Nghost:    20971 ave 20971 max 20971 min
Histogram: 1 0 0 0 0 0 0 0 0 0
Neighs:    2.05358e+06 ave 2.05358e+06 max 2.05358e+06 min
Histogram: 1 0 0 0 0 0 0 0 0 0

Total # of neighbors = 2053578
Ave neighs/atom = 104.497
Neighbor list builds = 495
Dangerous builds not checked
Setting up Verlet run ...
  Unit style    : metal
  Current step  : 84495
  Time step     : 0.001
Per MPI rank memory allocation (min/avg/max) = 19.73 | 19.73 | 19.73 Mbytes
Step Temp Press TotEng PotEng Enthalpy 
   84495    1324.4168   -1272.1125    -79511.07   -82875.209   -79701.626 
   86000    1301.1015   -1314.2152   -79627.265   -82932.182   -79823.889 
Loop time of 276.744 on 1 procs for 1505 steps with 19652 atoms

Performance: 0.470 ns/day, 51.079 hours/ns, 5.438 timesteps/s
99.8% CPU use with 1 MPI tasks x no OpenMP threads

MPI task timing breakdown:
Section |  min time  |  avg time  |  max time  |%varavg| %total
---------------------------------------------------------------
Pair    | 153.9      | 153.9      | 153.9      |   0.0 | 55.61
Neigh   | 118.82     | 118.82     | 118.82     |   0.0 | 42.94
Comm    | 1.5631     | 1.5631     | 1.5631     |   0.0 |  0.56
Output  | 0.075807   | 0.075807   | 0.075807   |   0.0 |  0.03
Modify  | 1.8231     | 1.8231     | 1.8231     |   0.0 |  0.66
Other   |            | 0.5534     |            |       |  0.20

Nlocal:    19652 ave 19652 max 19652 min
Histogram: 1 0 0 0 0 0 0 0 0 0
Nghost:    21022 ave 21022 max 21022 min
Histogram: 1 0 0 0 0 0 0 0 0 0
Neighs:    2.0565e+06 ave 2.0565e+06 max 2.0565e+06 min
Histogram: 1 0 0 0 0 0 0 0 0 0

Total # of neighbors = 2056496
Ave neighs/atom = 104.646
Neighbor list builds = 1505
Dangerous builds not checked
Setting up Verlet run ...
  Unit style    : metal
  Current step  : 86000
  Time step     : 0.001
Per MPI rank memory allocation (min/avg/max) = 19.73 | 19.73 | 19.73 Mbytes
Step Temp Press TotEng PotEng Enthalpy 
   86000    1301.1015   -1314.2152   -79627.265   -82932.182   -79823.889 
   86495    1275.9939   -49.974464   -79841.506   -83082.647   -79848.956 
Loop time of 82.2087 on 1 procs for 495 steps with 19652 atoms

Performance: 0.520 ns/day, 46.133 hours/ns, 6.021 timesteps/s
100.0% CPU use with 1 MPI tasks x no OpenMP threads

MPI task timing breakdown:
Section |  min time  |  avg time  |  max time  |%varavg| %total
---------------------------------------------------------------
Pair    | 45.317     | 45.317     | 45.317     |   0.0 | 55.12
Neigh   | 35.717     | 35.717     | 35.717     |   0.0 | 43.45
Comm    | 0.46455    | 0.46455    | 0.46455    |   0.0 |  0.57
Output  | 0.00012302 | 0.00012302 | 0.00012302 |   0.0 |  0.00
Modify  | 0.54267    | 0.54267    | 0.54267    |   0.0 |  0.66
Other   |            | 0.1676     |            |       |  0.20

Nlocal:    19652 ave 19652 max 19652 min
Histogram: 1 0 0 0 0 0 0 0 0 0
Nghost:    20981 ave 20981 max 20981 min
Histogram: 1 0 0 0 0 0 0 0 0 0
Neighs:    2.06387e+06 ave 2.06387e+06 max 2.06387e+06 min
Histogram: 1 0 0 0 0 0 0 0 0 0

Total # of neighbors = 2063866
Ave neighs/atom = 105.021
Neighbor list builds = 495
Dangerous builds not checked
Setting up Verlet run ...
  Unit style    : metal
  Current step  : 86495
  Time step     : 0.001
Per MPI rank memory allocation (min/avg/max) = 19.73 | 19.73 | 19.73 Mbytes
Step Temp Press TotEng PotEng Enthalpy 
   86495    1275.9939   -49.974464   -79841.506   -83082.647   -79848.956 
   88000    1250.5808    575.88439   -79979.699   -83156.288   -79894.005 
Loop time of 306.503 on 1 procs for 1505 steps with 19652 atoms

Performance: 0.424 ns/day, 56.571 hours/ns, 4.910 timesteps/s
98.7% CPU use with 1 MPI tasks x no OpenMP threads

MPI task timing breakdown:
Section |  min time  |  avg time  |  max time  |%varavg| %total
---------------------------------------------------------------
Pair    | 171.99     | 171.99     | 171.99     |   0.0 | 56.11
Neigh   | 130.05     | 130.05     | 130.05     |   0.0 | 42.43
Comm    | 1.7503     | 1.7503     | 1.7503     |   0.0 |  0.57
Output  | 0.082825   | 0.082825   | 0.082825   |   0.0 |  0.03
Modify  | 2.0306     | 2.0306     | 2.0306     |   0.0 |  0.66
Other   |            | 0.6022     |            |       |  0.20

Nlocal:    19652 ave 19652 max 19652 min
Histogram: 1 0 0 0 0 0 0 0 0 0
Nghost:    21007 ave 21007 max 21007 min
Histogram: 1 0 0 0 0 0 0 0 0 0
Neighs:    2.06846e+06 ave 2.06846e+06 max 2.06846e+06 min
Histogram: 1 0 0 0 0 0 0 0 0 0

Total # of neighbors = 2068459
Ave neighs/atom = 105.254
Neighbor list builds = 1505
Dangerous builds not checked
Setting up Verlet run ...
  Unit style    : metal
  Current step  : 88000
  Time step     : 0.001
Per MPI rank memory allocation (min/avg/max) = 19.73 | 19.73 | 19.73 Mbytes
Step Temp Press TotEng PotEng Enthalpy 
   88000    1250.5808    575.88439   -79979.699   -83156.288   -79894.005 
   88495    1210.3345   -503.31051   -80195.292   -83269.652   -80270.107 
Loop time of 100.179 on 1 procs for 495 steps with 19652 atoms

Performance: 0.427 ns/day, 56.217 hours/ns, 4.941 timesteps/s
100.0% CPU use with 1 MPI tasks x no OpenMP threads

MPI task timing breakdown:
Section |  min time  |  avg time  |  max time  |%varavg| %total
---------------------------------------------------------------
Pair    | 56.071     | 56.071     | 56.071     |   0.0 | 55.97
Neigh   | 42.639     | 42.639     | 42.639     |   0.0 | 42.56
Comm    | 0.59154    | 0.59154    | 0.59154    |   0.0 |  0.59
Output  | 0.00017405 | 0.00017405 | 0.00017405 |   0.0 |  0.00
Modify  | 0.67826    | 0.67826    | 0.67826    |   0.0 |  0.68
Other   |            | 0.1988     |            |       |  0.20

Nlocal:    19652 ave 19652 max 19652 min
Histogram: 1 0 0 0 0 0 0 0 0 0
Nghost:    21058 ave 21058 max 21058 min
Histogram: 1 0 0 0 0 0 0 0 0 0
Neighs:    2.07096e+06 ave 2.07096e+06 max 2.07096e+06 min
Histogram: 1 0 0 0 0 0 0 0 0 0

Total # of neighbors = 2070959
Ave neighs/atom = 105.382
Neighbor list builds = 495
Dangerous builds not checked
Setting up Verlet run ...
  Unit style    : metal
  Current step  : 88495
  Time step     : 0.001
Per MPI rank memory allocation (min/avg/max) = 19.73 | 19.73 | 19.73 Mbytes
Step Temp Press TotEng PotEng Enthalpy 
   88495    1210.3345   -503.31051   -80195.292   -83269.652   -80270.107 
   90000    1191.8973    633.36274   -80419.326   -83446.854    -80325.56 
Loop time of 292.109 on 1 procs for 1505 steps with 19652 atoms

Performance: 0.445 ns/day, 53.915 hours/ns, 5.152 timesteps/s
99.1% CPU use with 1 MPI tasks x no OpenMP threads

MPI task timing breakdown:
Section |  min time  |  avg time  |  max time  |%varavg| %total
---------------------------------------------------------------
Pair    | 163.15     | 163.15     | 163.15     |   0.0 | 55.85
Neigh   | 124.72     | 124.72     | 124.72     |   0.0 | 42.70
Comm    | 1.6188     | 1.6188     | 1.6188     |   0.0 |  0.55
Output  | 0.10565    | 0.10565    | 0.10565    |   0.0 |  0.04
Modify  | 1.937      | 1.937      | 1.937      |   0.0 |  0.66
Other   |            | 0.5806     |            |       |  0.20

Nlocal:    19652 ave 19652 max 19652 min
Histogram: 1 0 0 0 0 0 0 0 0 0
Nghost:    21069 ave 21069 max 21069 min
Histogram: 1 0 0 0 0 0 0 0 0 0
Neighs:    2.07901e+06 ave 2.07901e+06 max 2.07901e+06 min
Histogram: 1 0 0 0 0 0 0 0 0 0

Total # of neighbors = 2079011
Ave neighs/atom = 105.791
Neighbor list builds = 1505
Dangerous builds not checked
Setting up Verlet run ...
  Unit style    : metal
  Current step  : 90000
  Time step     : 0.001
Per MPI rank memory allocation (min/avg/max) = 19.73 | 19.73 | 19.73 Mbytes
Step Temp Press TotEng PotEng Enthalpy 
   90000    1191.8973    633.36274   -80419.326   -83446.854    -80325.56 
   90495    1162.6219   -834.60984   -80560.679   -83513.845   -80684.182 
Loop time of 100.012 on 1 procs for 495 steps with 19652 atoms

Performance: 0.428 ns/day, 56.123 hours/ns, 4.949 timesteps/s
99.8% CPU use with 1 MPI tasks x no OpenMP threads

MPI task timing breakdown:
Section |  min time  |  avg time  |  max time  |%varavg| %total
---------------------------------------------------------------
Pair    | 56.257     | 56.257     | 56.257     |   0.0 | 56.25
Neigh   | 42.306     | 42.306     | 42.306     |   0.0 | 42.30
Comm    | 0.56453    | 0.56453    | 0.56453    |   0.0 |  0.56
Output  | 0.00017595 | 0.00017595 | 0.00017595 |   0.0 |  0.00
Modify  | 0.67878    | 0.67878    | 0.67878    |   0.0 |  0.68
Other   |            | 0.2054     |            |       |  0.21

[...]
Setting up Verlet run ...
  Unit style    : metal
  Current step  : 120000
  Time step     : 0.001
Per MPI rank memory allocation (min/avg/max) = 20.11 | 20.11 | 20.11 Mbytes
Step Temp Press TotEng PotEng Enthalpy 
  120000     454.7585    99.077024   -85145.108   -86300.236   -85131.135 
  120495    421.79836   -181.54844   -85313.449   -86384.856   -85339.017 
Loop time of 91.4872 on 1 procs for 495 steps with 19652 atoms

Performance: 0.467 ns/day, 51.340 hours/ns, 5.411 timesteps/s
99.5% CPU use with 1 MPI tasks x no OpenMP threads

MPI task timing breakdown:
Section |  min time  |  avg time  |  max time  |%varavg| %total
---------------------------------------------------------------
Pair    | 52.029     | 52.029     | 52.029     |   0.0 | 56.87
Neigh   | 38.178     | 38.178     | 38.178     |   0.0 | 41.73
Comm    | 0.4977     | 0.4977     | 0.4977     |   0.0 |  0.54
Output  | 0.00013113 | 0.00013113 | 0.00013113 |   0.0 |  0.00
Modify  | 0.60226    | 0.60226    | 0.60226    |   0.0 |  0.66
Other   |            | 0.1805     |            |       |  0.20

Nlocal:    19652 ave 19652 max 19652 min
Histogram: 1 0 0 0 0 0 0 0 0 0
Nghost:    21501 ave 21501 max 21501 min
Histogram: 1 0 0 0 0 0 0 0 0 0
Neighs:    2.1981e+06 ave 2.1981e+06 max 2.1981e+06 min
Histogram: 1 0 0 0 0 0 0 0 0 0

Total # of neighbors = 2198104
Ave neighs/atom = 111.851
Neighbor list builds = 495
Dangerous builds not checked
Setting up Verlet run ...
  Unit style    : metal
  Current step  : 120495
  Time step     : 0.001
Per MPI rank memory allocation (min/avg/max) = 20.11 | 20.11 | 20.11 Mbytes
Step Temp Press TotEng PotEng Enthalpy 
  120495    421.79836   -181.54844   -85313.449   -86384.856   -85339.017 
  122000     400.9751     1245.629   -85422.344   -86440.858   -85247.222 
Loop time of 301.153 on 1 procs for 1505 steps with 19652 atoms

Performance: 0.432 ns/day, 55.584 hours/ns, 4.997 timesteps/s
99.5% CPU use with 1 MPI tasks x no OpenMP threads

MPI task timing breakdown:
Section |  min time  |  avg time  |  max time  |%varavg| %total
---------------------------------------------------------------
Pair    | 171.36     | 171.36     | 171.36     |   0.0 | 56.90
Neigh   | 125.36     | 125.36     | 125.36     |   0.0 | 41.63
Comm    | 1.6474     | 1.6474     | 1.6474     |   0.0 |  0.55
Output  | 0.18978    | 0.18978    | 0.18978    |   0.0 |  0.06
Modify  | 2.0022     | 2.0022     | 2.0022     |   0.0 |  0.66
Other   |            | 0.5949     |            |       |  0.20

Nlocal:    19652 ave 19652 max 19652 min
Histogram: 1 0 0 0 0 0 0 0 0 0
Nghost:    21543 ave 21543 max 21543 min
Histogram: 1 0 0 0 0 0 0 0 0 0
Neighs:    2.20256e+06 ave 2.20256e+06 max 2.20256e+06 min
Histogram: 1 0 0 0 0 0 0 0 0 0

Total # of neighbors = 2202563
Ave neighs/atom = 112.078
Neighbor list builds = 1505
Dangerous builds not checked
Setting up Verlet run ...
  Unit style    : metal
  Current step  : 122000
  Time step     : 0.001
Per MPI rank memory allocation (min/avg/max) = 20.11 | 20.11 | 20.11 Mbytes
Step Temp Press TotEng PotEng Enthalpy 
  122000     400.9751     1245.629   -85422.344   -86440.858   -85247.222 
  122495    371.45846   -1543.0977   -85582.442   -86525.981   -85799.431 
Loop time of 103.227 on 1 procs for 495 steps with 19652 atoms

Performance: 0.414 ns/day, 57.928 hours/ns, 4.795 timesteps/s
98.5% CPU use with 1 MPI tasks x no OpenMP threads

MPI task timing breakdown:
Section |  min time  |  avg time  |  max time  |%varavg| %total
---------------------------------------------------------------
Pair    | 59.203     | 59.203     | 59.203     |   0.0 | 57.35
Neigh   | 42.543     | 42.543     | 42.543     |   0.0 | 41.21
Comm    | 0.58364    | 0.58364    | 0.58364    |   0.0 |  0.57
Output  | 0.00011301 | 0.00011301 | 0.00011301 |   0.0 |  0.00
Modify  | 0.68731    | 0.68731    | 0.68731    |   0.0 |  0.67
Other   |            | 0.2103     |            |       |  0.20

Nlocal:    19652 ave 19652 max 19652 min
Histogram: 1 0 0 0 0 0 0 0 0 0
Nghost:    21551 ave 21551 max 21551 min
Histogram: 1 0 0 0 0 0 0 0 0 0
Neighs:    2.20262e+06 ave 2.20262e+06 max 2.20262e+06 min
Histogram: 1 0 0 0 0 0 0 0 0 0

Total # of neighbors = 2202622
Ave neighs/atom = 112.081
Neighbor list builds = 495
Dangerous builds not checked
Setting up Verlet run ...
  Unit style    : metal
  Current step  : 122495
  Time step     : 0.001
Per MPI rank memory allocation (min/avg/max) = 20.11 | 20.11 | 20.11 Mbytes
Step Temp Press TotEng PotEng Enthalpy 
  122495    371.45846   -1543.0977   -85582.442   -86525.981   -85799.431 
  124000    352.78774    969.25438   -85692.711   -86588.824   -85556.756 
Loop time of 313.351 on 1 procs for 1505 steps with 19652 atoms

Performance: 0.415 ns/day, 57.835 hours/ns, 4.803 timesteps/s
99.2% CPU use with 1 MPI tasks x no OpenMP threads

MPI task timing breakdown:
Section |  min time  |  avg time  |  max time  |%varavg| %total
---------------------------------------------------------------
Pair    | 180.05     | 180.05     | 180.05     |   0.0 | 57.46
Neigh   | 128.71     | 128.71     | 128.71     |   0.0 | 41.08
Comm    | 1.7856     | 1.7856     | 1.7856     |   0.0 |  0.57
Output  | 0.085374   | 0.085374   | 0.085374   |   0.0 |  0.03
Modify  | 2.0978     | 2.0978     | 2.0978     |   0.0 |  0.67
Other   |            | 0.625      |            |       |  0.20

Nlocal:    19652 ave 19652 max 19652 min
Histogram: 1 0 0 0 0 0 0 0 0 0
Nghost:    21523 ave 21523 max 21523 min
Histogram: 1 0 0 0 0 0 0 0 0 0
Neighs:    2.20875e+06 ave 2.20875e+06 max 2.20875e+06 min
Histogram: 1 0 0 0 0 0 0 0 0 0

Total # of neighbors = 2208750
Ave neighs/atom = 112.393
Neighbor list builds = 1505
Dangerous builds not checked
Setting up Verlet run ...
  Unit style    : metal
  Current step  : 124000
  Time step     : 0.001
Per MPI rank memory allocation (min/avg/max) = 20.11 | 20.11 | 20.11 Mbytes
Step Temp Press TotEng PotEng Enthalpy 
  124000    352.78774    969.25438   -85692.711   -86588.824   -85556.756 
  124495    323.07209    481.93057   -85844.848    -86665.48   -85777.308 
Loop time of 105.183 on 1 procs for 495 steps with 19652 atoms

Performance: 0.407 ns/day, 59.026 hours/ns, 4.706 timesteps/s
100.0% CPU use with 1 MPI tasks x no OpenMP threads

MPI task timing breakdown:
Section |  min time  |  avg time  |  max time  |%varavg| %total
---------------------------------------------------------------
Pair    | 60.49      | 60.49      | 60.49      |   0.0 | 57.51
Neigh   | 43.168     | 43.168     | 43.168     |   0.0 | 41.04
Comm    | 0.59636    | 0.59636    | 0.59636    |   0.0 |  0.57
Output  | 0.00018287 | 0.00018287 | 0.00018287 |   0.0 |  0.00
Modify  | 0.71494    | 0.71494    | 0.71494    |   0.0 |  0.68
Other   |            | 0.2134     |            |       |  0.20

Nlocal:    19652 ave 19652 max 19652 min
Histogram: 1 0 0 0 0 0 0 0 0 0
Nghost:    21529 ave 21529 max 21529 min
Histogram: 1 0 0 0 0 0 0 0 0 0
Neighs:    2.21092e+06 ave 2.21092e+06 max 2.21092e+06 min
Histogram: 1 0 0 0 0 0 0 0 0 0

Total # of neighbors = 2210924
Ave neighs/atom = 112.504
Neighbor list builds = 495
Dangerous builds not checked
Setting up Verlet run ...
  Unit style    : metal
  Current step  : 124495
  Time step     : 0.001
Per MPI rank memory allocation (min/avg/max) = 20.11 | 20.11 | 20.11 Mbytes
Step Temp Press TotEng PotEng Enthalpy 
  124495    323.07209    481.93057   -85844.848    -86665.48   -85777.308 
  126000    302.18116    702.07479   -85962.818   -86730.386   -85864.552 
Loop time of 318.382 on 1 procs for 1505 steps with 19652 atoms

Performance: 0.408 ns/day, 58.764 hours/ns, 4.727 timesteps/s
98.9% CPU use with 1 MPI tasks x no OpenMP threads

MPI task timing breakdown:
Section |  min time  |  avg time  |  max time  |%varavg| %total
---------------------------------------------------------------
Pair    | 182.38     | 182.38     | 182.38     |   0.0 | 57.28
Neigh   | 131.28     | 131.28     | 131.28     |   0.0 | 41.23
Comm    | 1.7636     | 1.7636     | 1.7636     |   0.0 |  0.55
Output  | 0.1603     | 0.1603     | 0.1603     |   0.0 |  0.05
Modify  | 2.1639     | 2.1639     | 2.1639     |   0.0 |  0.68
Other   |            | 0.64       |            |       |  0.20

Nlocal:    19652 ave 19652 max 19652 min
Histogram: 1 0 0 0 0 0 0 0 0 0
Nghost:    21569 ave 21569 max 21569 min
Histogram: 1 0 0 0 0 0 0 0 0 0
Neighs:    2.21446e+06 ave 2.21446e+06 max 2.21446e+06 min
Histogram: 1 0 0 0 0 0 0 0 0 0

Total # of neighbors = 2214457
Ave neighs/atom = 112.684
Neighbor list builds = 1505
Dangerous builds not checked
Setting up Verlet run ...
  Unit style    : metal
  Current step  : 126000
  Time step     : 0.001
Per MPI rank memory allocation (min/avg/max) = 20.11 | 20.11 | 20.11 Mbytes
Step Temp Press TotEng PotEng Enthalpy 
  126000    302.18116    702.07479   -85962.818   -86730.386   -85864.552 
  126495    273.83898    1194.2285   -86106.968   -86802.544   -85940.079 
Loop time of 93.4753 on 1 procs for 495 steps with 19652 atoms

Performance: 0.458 ns/day, 52.455 hours/ns, 5.296 timesteps/s
99.7% CPU use with 1 MPI tasks x no OpenMP threads

MPI task timing breakdown:
Section |  min time  |  avg time  |  max time  |%varavg| %total
---------------------------------------------------------------
Pair    | 53.117     | 53.117     | 53.117     |   0.0 | 56.82
Neigh   | 39.055     | 39.055     | 39.055     |   0.0 | 41.78
Comm    | 0.50057    | 0.50057    | 0.50057    |   0.0 |  0.54
Output  | 0.00013113 | 0.00013113 | 0.00013113 |   0.0 |  0.00
Modify  | 0.61907    | 0.61907    | 0.61907    |   0.0 |  0.66
Other   |            | 0.1833     |            |       |  0.20

Nlocal:    19652 ave 19652 max 19652 min
Histogram: 1 0 0 0 0 0 0 0 0 0
Nghost:    21583 ave 21583 max 21583 min
Histogram: 1 0 0 0 0 0 0 0 0 0
Neighs:    2.21851e+06 ave 2.21851e+06 max 2.21851e+06 min
Histogram: 1 0 0 0 0 0 0 0 0 0

Total # of neighbors = 2218514
Ave neighs/atom = 112.89
Neighbor list builds = 495
Dangerous builds not checked
Setting up Verlet run ...
  Unit style    : metal
  Current step  : 126495
  Time step     : 0.001
Per MPI rank memory allocation (min/avg/max) = 20.11 | 20.11 | 20.11 Mbytes
Step Temp Press TotEng PotEng Enthalpy 
  126495    273.83898    1194.2285   -86106.968   -86802.544   -85940.079 
  128000    252.82111    66.334621   -86227.869   -86870.058   -86218.604 
Loop time of 309.706 on 1 procs for 1505 steps with 19652 atoms

Performance: 0.420 ns/day, 57.162 hours/ns, 4.859 timesteps/s
99.2% CPU use with 1 MPI tasks x no OpenMP threads

MPI task timing breakdown:
Section |  min time  |  avg time  |  max time  |%varavg| %total
---------------------------------------------------------------
Pair    | 177.36     | 177.36     | 177.36     |   0.0 | 57.27
Neigh   | 127.8      | 127.8      | 127.8      |   0.0 | 41.26
Comm    | 1.6901     | 1.6901     | 1.6901     |   0.0 |  0.55
Output  | 0.12553    | 0.12553    | 0.12553    |   0.0 |  0.04
Modify  | 2.0992     | 2.0992     | 2.0992     |   0.0 |  0.68
Other   |            | 0.6317     |            |       |  0.20

Nlocal:    19652 ave 19652 max 19652 min
Histogram: 1 0 0 0 0 0 0 0 0 0
Nghost:    21568 ave 21568 max 21568 min
Histogram: 1 0 0 0 0 0 0 0 0 0
Neighs:    2.2199e+06 ave 2.2199e+06 max 2.2199e+06 min
Histogram: 1 0 0 0 0 0 0 0 0 0

Total # of neighbors = 2219899
Ave neighs/atom = 112.96
Neighbor list builds = 1505
Dangerous builds not checked
Setting up Verlet run ...
  Unit style    : metal
  Current step  : 128000
  Time step     : 0.001
Per MPI rank memory allocation (min/avg/max) = 20.11 | 20.11 | 20.11 Mbytes
Step Temp Press TotEng PotEng Enthalpy 
  128000    252.82111    66.334621   -86227.869   -86870.058   -86218.604 
  128495    224.75849   -363.94687   -86364.659   -86935.566   -86415.452 
Loop time of 99.4975 on 1 procs for 495 steps with 19652 atoms

Performance: 0.430 ns/day, 55.835 hours/ns, 4.975 timesteps/s
99.0% CPU use with 1 MPI tasks x no OpenMP threads

MPI task timing breakdown:
Section |  min time  |  avg time  |  max time  |%varavg| %total
---------------------------------------------------------------
Pair    | 56.802     | 56.802     | 56.802     |   0.0 | 57.09
Neigh   | 41.308     | 41.308     | 41.308     |   0.0 | 41.52
Comm    | 0.52986    | 0.52986    | 0.52986    |   0.0 |  0.53
Output  | 0.00016189 | 0.00016189 | 0.00016189 |   0.0 |  0.00
Modify  | 0.66712    | 0.66712    | 0.66712    |   0.0 |  0.67
Other   |            | 0.1909     |            |       |  0.19

Nlocal:    19652 ave 19652 max 19652 min
Histogram: 1 0 0 0 0 0 0 0 0 0
Nghost:    21599 ave 21599 max 21599 min
Histogram: 1 0 0 0 0 0 0 0 0 0
Neighs:    2.22205e+06 ave 2.22205e+06 max 2.22205e+06 min
Histogram: 1 0 0 0 0 0 0 0 0 0

Total # of neighbors = 2222047
Ave neighs/atom = 113.07
Neighbor list builds = 495
Dangerous builds not checked
Setting up Verlet run ...
  Unit style    : metal
  Current step  : 128495
  Time step     : 0.001
Per MPI rank memory allocation (min/avg/max) = 20.11 | 20.11 | 20.11 Mbytes
Step Temp Press TotEng PotEng Enthalpy 
  128495    224.75849   -363.94687   -86364.659   -86935.566   -86415.452 
  130000    199.87945    652.25452    -86491.57   -86999.282   -86400.679 
Loop time of 320.292 on 1 procs for 1505 steps with 19652 atoms

Performance: 0.406 ns/day, 59.116 hours/ns, 4.699 timesteps/s
99.4% CPU use with 1 MPI tasks x no OpenMP threads

MPI task timing breakdown:
Section |  min time  |  avg time  |  max time  |%varavg| %total
---------------------------------------------------------------
Pair    | 184.57     | 184.57     | 184.57     |   0.0 | 57.62
Neigh   | 131.02     | 131.02     | 131.02     |   0.0 | 40.90
Comm    | 1.8093     | 1.8093     | 1.8093     |   0.0 |  0.56
Output  | 0.084202   | 0.084202   | 0.084202   |   0.0 |  0.03
Modify  | 2.1729     | 2.1729     | 2.1729     |   0.0 |  0.68
Other   |            | 0.644      |            |       |  0.20

Nlocal:    19652 ave 19652 max 19652 min
Histogram: 1 0 0 0 0 0 0 0 0 0
Nghost:    21594 ave 21594 max 21594 min
Histogram: 1 0 0 0 0 0 0 0 0 0
Neighs:    2.2261e+06 ave 2.2261e+06 max 2.2261e+06 min
Histogram: 1 0 0 0 0 0 0 0 0 0

Total # of neighbors = 2226102
Ave neighs/atom = 113.276
Neighbor list builds = 1505
Dangerous builds not checked
Setting up Verlet run ...
  Unit style    : metal
  Current step  : 130000
  Time step     : 0.001
Per MPI rank memory allocation (min/avg/max) = 20.11 | 20.11 | 20.11 Mbytes
Step Temp Press TotEng PotEng Enthalpy 
  130000    199.87945    652.25452    -86491.57   -86999.282   -86400.679 
  130495     174.6925    419.36842   -86618.664   -87062.399   -86560.283 
Loop time of 105.535 on 1 procs for 495 steps with 19652 atoms

Performance: 0.405 ns/day, 59.223 hours/ns, 4.690 timesteps/s
98.2% CPU use with 1 MPI tasks x no OpenMP threads

MPI task timing breakdown:
Section |  min time  |  avg time  |  max time  |%varavg| %total
---------------------------------------------------------------
Pair    | 60.825     | 60.825     | 60.825     |   0.0 | 57.63
Neigh   | 43.189     | 43.189     | 43.189     |   0.0 | 40.92
Comm    | 0.59461    | 0.59461    | 0.59461    |   0.0 |  0.56
Output  | 0.000175   | 0.000175   | 0.000175   |   0.0 |  0.00
Modify  | 0.70624    | 0.70624    | 0.70624    |   0.0 |  0.67
Other   |            | 0.2208     |            |       |  0.21

Nlocal:    19652 ave 19652 max 19652 min
Histogram: 1 0 0 0 0 0 0 0 0 0
Nghost:    21599 ave 21599 max 21599 min
Histogram: 1 0 0 0 0 0 0 0 0 0
Neighs:    2.22916e+06 ave 2.22916e+06 max 2.22916e+06 min
Histogram: 1 0 0 0 0 0 0 0 0 0

Total # of neighbors = 2229163
Ave neighs/atom = 113.432
Neighbor list builds = 495
Dangerous builds not checked
Setting up Verlet run ...
  Unit style    : metal
  Current step  : 130495
  Time step     : 0.001
Per MPI rank memory allocation (min/avg/max) = 20.11 | 20.11 | 20.11 Mbytes
Step Temp Press TotEng PotEng Enthalpy 
  130495     174.6925    419.36842   -86618.664   -87062.399   -86560.283 
  132000    150.82071   -199.86933   -86749.942    -87133.04   -86777.743 
Loop time of 307.196 on 1 procs for 1505 steps with 19652 atoms

Performance: 0.423 ns/day, 56.699 hours/ns, 4.899 timesteps/s
98.6% CPU use with 1 MPI tasks x no OpenMP threads

MPI task timing breakdown:
Section |  min time  |  avg time  |  max time  |%varavg| %total
---------------------------------------------------------------
Pair    | 176.8      | 176.8      | 176.8      |   0.0 | 57.55
Neigh   | 125.75     | 125.75     | 125.75     |   0.0 | 40.94
Comm    | 1.6875     | 1.6875     | 1.6875     |   0.0 |  0.55
Output  | 0.30054    | 0.30054    | 0.30054    |   0.0 |  0.10
Modify  | 2.0613     | 2.0613     | 2.0613     |   0.0 |  0.67
Other   |            | 0.5955     |            |       |  0.19

Nlocal:    19652 ave 19652 max 19652 min
Histogram: 1 0 0 0 0 0 0 0 0 0
Nghost:    21612 ave 21612 max 21612 min
Histogram: 1 0 0 0 0 0 0 0 0 0
Neighs:    2.23111e+06 ave 2.23111e+06 max 2.23111e+06 min
Histogram: 1 0 0 0 0 0 0 0 0 0

Total # of neighbors = 2231113
Ave neighs/atom = 113.531
Neighbor list builds = 1505
Dangerous builds not checked
Setting up Verlet run ...
  Unit style    : metal
  Current step  : 132000
  Time step     : 0.001
Per MPI rank memory allocation (min/avg/max) = 20.11 | 20.11 | 20.11 Mbytes
Step Temp Press TotEng PotEng Enthalpy 
  132000    150.82071   -199.86933   -86749.942    -87133.04   -86777.743 
  132495    125.59266    233.94414   -86870.423    -87189.44   -86837.918 
Loop time of 102.433 on 1 procs for 495 steps with 19652 atoms

Performance: 0.418 ns/day, 57.482 hours/ns, 4.832 timesteps/s
98.5% CPU use with 1 MPI tasks x no OpenMP threads

MPI task timing breakdown:
Section |  min time  |  avg time  |  max time  |%varavg| %total
---------------------------------------------------------------
Pair    | 58.814     | 58.814     | 58.814     |   0.0 | 57.42
Neigh   | 42.184     | 42.184     | 42.184     |   0.0 | 41.18
Comm    | 0.55614    | 0.55614    | 0.55614    |   0.0 |  0.54
Output  | 0.0001471  | 0.0001471  | 0.0001471  |   0.0 |  0.00
Modify  | 0.67929    | 0.67929    | 0.67929    |   0.0 |  0.66
Other   |            | 0.1993     |            |       |  0.19

Nlocal:    19652 ave 19652 max 19652 min
Histogram: 1 0 0 0 0 0 0 0 0 0
Nghost:    21628 ave 21628 max 21628 min
Histogram: 1 0 0 0 0 0 0 0 0 0
Neighs:    2.23412e+06 ave 2.23412e+06 max 2.23412e+06 min
Histogram: 1 0 0 0 0 0 0 0 0 0

Total # of neighbors = 2234120
Ave neighs/atom = 113.684
Neighbor list builds = 495
Dangerous builds not checked
Setting up Verlet run ...
  Unit style    : metal
  Current step  : 132495
  Time step     : 0.001
Per MPI rank memory allocation (min/avg/max) = 20.11 | 20.11 | 20.11 Mbytes
Step Temp Press TotEng PotEng Enthalpy 
  132495    125.59266    233.94414   -86870.423    -87189.44   -86837.918 
  134000    99.902037   -683.08348   -87012.981   -87266.742   -87107.817 
Loop time of 333.691 on 1 procs for 1505 steps with 19652 atoms

Performance: 0.390 ns/day, 61.589 hours/ns, 4.510 timesteps/s
98.6% CPU use with 1 MPI tasks x no OpenMP threads

MPI task timing breakdown:
Section |  min time  |  avg time  |  max time  |%varavg| %total
---------------------------------------------------------------
Pair    | 192.7      | 192.7      | 192.7      |   0.0 | 57.75
Neigh   | 135.99     | 135.99     | 135.99     |   0.0 | 40.75
Comm    | 1.8989     | 1.8989     | 1.8989     |   0.0 |  0.57
Output  | 0.17509    | 0.17509    | 0.17509    |   0.0 |  0.05
Modify  | 2.2567     | 2.2567     | 2.2567     |   0.0 |  0.68
Other   |            | 0.6756     |            |       |  0.20

Nlocal:    19652 ave 19652 max 19652 min
Histogram: 1 0 0 0 0 0 0 0 0 0
Nghost:    21640 ave 21640 max 21640 min
Histogram: 1 0 0 0 0 0 0 0 0 0
Neighs:    2.23667e+06 ave 2.23667e+06 max 2.23667e+06 min
Histogram: 1 0 0 0 0 0 0 0 0 0

Total # of neighbors = 2236673
Ave neighs/atom = 113.814
Neighbor list builds = 1505
Dangerous builds not checked
Total wall time: 6:47:12
