LAMMPS (12 Dec 2018)
Lattice spacing in x,y,z = 4 4 4
Created orthogonal box = (0 0 0) to (68 68 68)
  1 by 1 by 2 MPI processor grid
Created 19652 atoms
  Time spent = 0.00164509 secs
Setting atom values ...
  206 settings made for type/fraction
Neighbor list info ...
  update every 1 steps, delay 0 steps, check no
  max neighbors/atom: 2000, page size: 100000
  master list distance cutoff = 8.5
  ghost atom cutoff = 8.5
  binsize = 4.25, bins = 16 16 16
  1 neighbor lists, perpetual/occasional/extra = 1 0 0
  (1) pair eam/alloy, perpetual
      attributes: half, newton on
      pair build: half/bin/atomonly/newton
      stencil: half/bin/3d/newton
      bin: standard
Setting up Verlet run ...
  Unit style    : metal
  Current step  : 0
  Time step     : 0.001
Per MPI rank memory allocation (min/avg/max) = 11.15 | 11.15 | 11.15 Mbytes
Step Temp Press TotEng PotEng Enthalpy 
       0          300    264566.39   -21465.716   -22227.744    30456.241 
    1000    163.87885    261845.56   -21465.505   -21881.772    29922.481 
Loop time of 89.4639 on 2 procs for 1000 steps with 19652 atoms

Performance: 0.966 ns/day, 24.851 hours/ns, 11.178 timesteps/s
99.3% CPU use with 2 MPI tasks x no OpenMP threads

MPI task timing breakdown:
Section |  min time  |  avg time  |  max time  |%varavg| %total
---------------------------------------------------------------
Pair    | 51.758     | 51.959     | 52.159     |   2.8 | 58.08
Neigh   | 34.142     | 34.31      | 34.478     |   2.9 | 38.35
Comm    | 2.4015     | 2.7693     | 3.1372     |  22.1 |  3.10
Output  | 8.5831e-05 | 9.6917e-05 | 0.000108   |   0.0 |  0.00
Modify  | 0.21377    | 0.21562    | 0.21748    |   0.4 |  0.24
Other   |            | 0.2104     |            |       |  0.24

Nlocal:    9826 ave 9843 max 9809 min
Histogram: 1 0 0 0 0 0 0 0 0 1
Nghost:    14211 ave 14228 max 14194 min
Histogram: 1 0 0 0 0 0 0 0 0 1
Neighs:    785022 ave 785867 max 784178 min
Histogram: 1 0 0 0 0 0 0 0 0 1

Total # of neighbors = 1570045
Ave neighs/atom = 79.8924
Neighbor list builds = 1000
Dangerous builds not checked
Setting up Verlet run ...
  Unit style    : metal
  Current step  : 1000
  Time step     : 0.001
Per MPI rank memory allocation (min/avg/max) = 11.15 | 11.15 | 11.15 Mbytes
Step Temp Press TotEng PotEng Enthalpy 
    1000    163.87885    261845.56   -21465.505   -21881.772    29922.481 
    2000    267.27593    308.30194   -28726.815    -29405.72   -28639.517 
Loop time of 76.8827 on 2 procs for 1000 steps with 19652 atoms

Performance: 1.124 ns/day, 21.356 hours/ns, 13.007 timesteps/s
98.4% CPU use with 2 MPI tasks x no OpenMP threads

MPI task timing breakdown:
Section |  min time  |  avg time  |  max time  |%varavg| %total
---------------------------------------------------------------
Pair    | 40.94      | 41.13      | 41.321     |   3.0 | 53.50
Neigh   | 32.134     | 32.805     | 33.475     |  11.7 | 42.67
Comm    | 1.4047     | 1.9024     | 2.4        |  36.1 |  2.47
Output  | 7.7963e-05 | 0.00010049 | 0.00012302 |   0.0 |  0.00
Modify  | 0.81606    | 0.82943    | 0.84281    |   1.5 |  1.08
Other   |            | 0.2159     |            |       |  0.28

Nlocal:    9826 ave 9844 max 9808 min
Histogram: 1 0 0 0 0 0 0 0 0 1
Nghost:    10350.5 ave 10368 max 10333 min
Histogram: 1 0 0 0 0 0 0 0 0 1
Neighs:    562199 ave 563406 max 560992 min
Histogram: 1 0 0 0 0 0 0 0 0 1

Total # of neighbors = 1124398
Ave neighs/atom = 57.2154
Neighbor list builds = 1000
Dangerous builds not checked
Setting up Verlet run ...
  Unit style    : metal
  Current step  : 2000
  Time step     : 0.001
Per MPI rank memory allocation (min/avg/max) = 11.15 | 11.15 | 11.15 Mbytes
Step Temp Press TotEng PotEng Enthalpy 
    2000    267.27593    308.30194   -28726.815    -29405.72   -28639.517 
   10000    2455.4686    20.804914   -13997.734   -20234.849   -13989.071 
Loop time of 512.923 on 2 procs for 8000 steps with 19652 atoms

Performance: 1.348 ns/day, 17.810 hours/ns, 15.597 timesteps/s
98.8% CPU use with 2 MPI tasks x no OpenMP threads

MPI task timing breakdown:
Section |  min time  |  avg time  |  max time  |%varavg| %total
---------------------------------------------------------------
Pair    | 269.17     | 270.94     | 272.71     |  10.7 | 52.82
Neigh   | 207.69     | 211.84     | 216        |  28.5 | 41.30
Comm    | 16.048     | 22.101     | 28.155     | 128.8 |  4.31
Output  | 7.391e-05  | 9.8467e-05 | 0.00012302 |   0.0 |  0.00
Modify  | 6.3243     | 6.4042     | 6.4841     |   3.2 |  1.25
Other   |            | 1.638      |            |       |  0.32

Nlocal:    9826 ave 9837 max 9815 min
Histogram: 1 0 0 0 0 0 0 0 0 1
Nghost:    9684.5 ave 9743 max 9626 min
Histogram: 1 0 0 0 0 0 0 0 0 1
Neighs:    367962 ave 367974 max 367951 min
Histogram: 1 0 0 0 0 0 0 0 0 1

Total # of neighbors = 735925
Ave neighs/atom = 37.4478
Neighbor list builds = 8000
Dangerous builds not checked
Setting up Verlet run ...
  Unit style    : metal
  Current step  : 10000
  Time step     : 0.001
Per MPI rank memory allocation (min/avg/max) = 11.17 | 11.17 | 11.17 Mbytes
Step Temp Press TotEng PotEng Enthalpy 
   10000    2455.4686    20.804914   -13997.734   -20234.849   -13989.071 
   20000    2460.3447    156.93984   -13814.319   -20063.819   -13748.287 
   40000    2442.8817   -166.00477   -13653.851   -19858.993   -13724.819 
Loop time of 2168.47 on 2 procs for 30000 steps with 19652 atoms

Performance: 1.195 ns/day, 20.078 hours/ns, 13.835 timesteps/s
87.9% CPU use with 2 MPI tasks x no OpenMP threads

MPI task timing breakdown:
Section |  min time  |  avg time  |  max time  |%varavg| %total
---------------------------------------------------------------
Pair    | 1131.6     | 1131.7     | 1131.8     |   0.3 | 52.19
Neigh   | 827.87     | 838.06     | 848.25     |  35.2 | 38.65
Comm    | 150.24     | 160.63     | 171.02     |  82.0 |  7.41
Output  | 0.47655    | 0.47658    | 0.47661    |   0.0 |  0.02
Modify  | 30.444     | 30.597     | 30.75      |   2.8 |  1.41
Other   |            | 6.985      |            |       |  0.32

Nlocal:    9826 ave 9839 max 9813 min
Histogram: 1 0 0 0 0 0 0 0 0 1
Nghost:    9521.5 ave 9522 max 9521 min
Histogram: 1 0 0 0 0 0 0 0 0 1
Neighs:    358716 ave 358767 max 358666 min
Histogram: 1 0 0 0 0 0 0 0 0 1

Total # of neighbors = 717433
Ave neighs/atom = 36.5069
Neighbor list builds = 30000
Dangerous builds not checked
Setting up Verlet run ...
  Unit style    : metal
  Current step  : 40000
  Time step     : 0.001
Per MPI rank memory allocation (min/avg/max) = 11.3 | 11.3 | 11.3 Mbytes
Step Temp Press TotEng PotEng Enthalpy 
   40000    2442.8817   -166.00477   -13653.851   -19858.993   -13724.819 
   40495    2409.1467   -60.277818    -13926.42   -20045.872   -13951.893 
Loop time of 24.1213 on 2 procs for 495 steps with 19652 atoms

Performance: 1.773 ns/day, 13.536 hours/ns, 20.521 timesteps/s
95.8% CPU use with 2 MPI tasks x no OpenMP threads

MPI task timing breakdown:
Section |  min time  |  avg time  |  max time  |%varavg| %total
---------------------------------------------------------------
Pair    | 11.903     | 12.045     | 12.186     |   4.1 | 49.93
Neigh   | 9.5684     | 10.343     | 11.117     |  24.1 | 42.88
Comm    | 0.67133    | 1.3261     | 1.9808     |  56.9 |  5.50
Output  | 0.00011396 | 0.00014746 | 0.00018096 |   0.0 |  0.00
Modify  | 0.31043    | 0.32673    | 0.34304    |   2.9 |  1.35
Other   |            | 0.08102    |            |       |  0.34

Nlocal:    9826 ave 9857 max 9795 min
Histogram: 1 0 0 0 0 0 0 0 0 1
Nghost:    9601 ave 9620 max 9582 min
Histogram: 1 0 0 0 0 0 0 0 0 1
Neighs:    363357 ave 364966 max 361748 min
Histogram: 1 0 0 0 0 0 0 0 0 1

Total # of neighbors = 726714
Ave neighs/atom = 36.9791
Neighbor list builds = 495
Dangerous builds not checked
Setting up Verlet run ...
  Unit style    : metal
  Current step  : 40495
  Time step     : 0.001
Per MPI rank memory allocation (min/avg/max) = 11.3 | 11.3 | 11.3 Mbytes
Step Temp Press TotEng PotEng Enthalpy 
   40495    2409.1467   -60.277818    -13926.42   -20045.872   -13951.893 
   60000    2395.1058    387.16784   -14202.041   -20285.828   -14041.447 
Loop time of 1533.01 on 2 procs for 19505 steps with 19652 atoms

Performance: 1.099 ns/day, 21.832 hours/ns, 12.723 timesteps/s
85.3% CPU use with 2 MPI tasks x no OpenMP threads

MPI task timing breakdown:
Section |  min time  |  avg time  |  max time  |%varavg| %total
---------------------------------------------------------------
Pair    | 798.85     | 803.49     | 808.12     |  16.3 | 52.41
Neigh   | 574.2      | 581.78     | 589.36     |  31.4 | 37.95
Comm    | 116.92     | 120.12     | 123.32     |  29.2 |  7.84
Output  | 0.055162   | 0.05518    | 0.055197   |   0.0 |  0.00
Modify  | 22.371     | 22.575     | 22.779     |   4.3 |  1.47
Other   |            | 4.996      |            |       |  0.33

Nlocal:    9826 ave 9839 max 9813 min
Histogram: 1 0 0 0 0 0 0 0 0 1
Nghost:    9634 ave 9643 max 9625 min
Histogram: 1 0 0 0 0 0 0 0 0 1
Neighs:    369599 ave 370217 max 368981 min
Histogram: 1 0 0 0 0 0 0 0 0 1

Total # of neighbors = 739198
Ave neighs/atom = 37.6144
Neighbor list builds = 19505
Dangerous builds not checked
Setting up Verlet run ...
  Unit style    : metal
  Current step  : 60000
  Time step     : 0.001
Per MPI rank memory allocation (min/avg/max) = 11.33 | 11.33 | 11.33 Mbytes
Step Temp Press TotEng PotEng Enthalpy 
   60000    2395.1058    387.16784   -14202.041   -20285.828   -14041.447 
   60495    2371.7498   -162.85929   -14350.706   -20375.167    -14417.98 
Loop time of 29.4847 on 2 procs for 495 steps with 19652 atoms

Performance: 1.451 ns/day, 16.546 hours/ns, 16.788 timesteps/s
96.7% CPU use with 2 MPI tasks x no OpenMP threads

MPI task timing breakdown:
Section |  min time  |  avg time  |  max time  |%varavg| %total
---------------------------------------------------------------
Pair    | 15.113     | 15.294     | 15.475     |   4.6 | 51.87
Neigh   | 10.332     | 11.519     | 12.707     |  35.0 | 39.07
Comm    | 1.1215     | 2.1619     | 3.2022     |  70.8 |  7.33
Output  | 7.6056e-05 | 0.00010598 | 0.0001359  |   0.0 |  0.00
Modify  | 0.38349    | 0.40914    | 0.43478    |   4.0 |  1.39
Other   |            | 0.1001     |            |       |  0.34

Nlocal:    9826 ave 9858 max 9794 min
Histogram: 1 0 0 0 0 0 0 0 0 1
Nghost:    9630.5 ave 9632 max 9629 min
Histogram: 1 0 0 0 0 0 0 0 0 1
Neighs:    370918 ave 373855 max 367981 min
Histogram: 1 0 0 0 0 0 0 0 0 1

Total # of neighbors = 741836
Ave neighs/atom = 37.7486
Neighbor list builds = 495
Dangerous builds not checked
Setting up Verlet run ...
  Unit style    : metal
  Current step  : 60495
  Time step     : 0.001
Per MPI rank memory allocation (min/avg/max) = 11.33 | 11.33 | 11.33 Mbytes
Step Temp Press TotEng PotEng Enthalpy 
   60495    2371.7498   -162.85929   -14350.706   -20375.167    -14417.98 
   80000    2372.0269   -34.152878   -14374.373   -20399.538   -14388.467 
Loop time of 1386.56 on 2 procs for 19505 steps with 19652 atoms

Performance: 1.215 ns/day, 19.747 hours/ns, 14.067 timesteps/s
89.8% CPU use with 2 MPI tasks x no OpenMP threads

MPI task timing breakdown:
Section |  min time  |  avg time  |  max time  |%varavg| %total
---------------------------------------------------------------
Pair    | 723.8      | 727.18     | 730.55     |  12.5 | 52.44
Neigh   | 504.01     | 529.93     | 555.86     | 112.6 | 38.22
Comm    | 82.195     | 105.42     | 128.65     | 226.2 |  7.60
Output  | 0.1954     | 0.19542    | 0.19543    |   0.0 |  0.01
Modify  | 18.911     | 19.375     | 19.84      |  10.5 |  1.40
Other   |            | 4.458      |            |       |  0.32

Nlocal:    9826 ave 9840 max 9812 min
Histogram: 1 0 0 0 0 0 0 0 0 1
Nghost:    9717.5 ave 9732 max 9703 min
Histogram: 1 0 0 0 0 0 0 0 0 1
Neighs:    371303 ave 371686 max 370920 min
Histogram: 1 0 0 0 0 0 0 0 0 1

Total # of neighbors = 742606
Ave neighs/atom = 37.7878
Neighbor list builds = 19505
Dangerous builds not checked
Setting up Verlet run ...
  Unit style    : metal
  Current step  : 80000
  Time step     : 0.001
Per MPI rank memory allocation (min/avg/max) = 11.34 | 11.34 | 11.34 Mbytes
Step Temp Press TotEng PotEng Enthalpy 
   80000    2372.0269   -34.152878   -14374.373   -20399.538   -14388.467 
   80495    2313.5613    24.662626   -14669.523    -20546.18    -14659.44 
Loop time of 42.8507 on 2 procs for 495 steps with 19652 atoms

Performance: 0.998 ns/day, 24.046 hours/ns, 11.552 timesteps/s
80.1% CPU use with 2 MPI tasks x no OpenMP threads

MPI task timing breakdown:
Section |  min time  |  avg time  |  max time  |%varavg| %total
---------------------------------------------------------------
Pair    | 22.364     | 22.689     | 23.014     |   6.8 | 52.95
Neigh   | 13.78      | 15.176     | 16.571     |  35.8 | 35.42
Comm    | 3.0891     | 4.1827     | 5.2764     |  53.5 |  9.76
Output  | 9.6083e-05 | 0.00012505 | 0.00015402 |   0.0 |  0.00
Modify  | 0.6676     | 0.67884    | 0.69008    |   1.4 |  1.58
Other   |            | 0.1243     |            |       |  0.29

Nlocal:    9826 ave 9850 max 9802 min
Histogram: 1 0 0 0 0 0 0 0 0 1
Nghost:    9845 ave 9847 max 9843 min
Histogram: 1 0 0 0 0 0 0 0 0 1
Neighs:    374920 ave 376644 max 373197 min
Histogram: 1 0 0 0 0 0 0 0 0 1

Total # of neighbors = 749841
Ave neighs/atom = 38.156
Neighbor list builds = 495
Dangerous builds not checked
Setting up Verlet run ...
  Unit style    : metal
  Current step  : 80495
  Time step     : 0.001
Per MPI rank memory allocation (min/avg/max) = 11.34 | 11.34 | 11.34 Mbytes
Step Temp Press TotEng PotEng Enthalpy 
   80495    2313.5613    24.662626   -14669.523    -20546.18    -14659.44 
  100000    2309.3717    568.97192   -14838.829   -20704.844   -14609.357 
Loop time of 1450.87 on 2 procs for 19505 steps with 19652 atoms

Performance: 1.162 ns/day, 20.662 hours/ns, 13.444 timesteps/s
86.5% CPU use with 2 MPI tasks x no OpenMP threads

MPI task timing breakdown:
Section |  min time  |  avg time  |  max time  |%varavg| %total
---------------------------------------------------------------
Pair    | 757.11     | 757.87     | 758.63     |   2.8 | 52.24
Neigh   | 555.08     | 558.66     | 562.24     |  15.1 | 38.51
Comm    | 104.5      | 107.51     | 110.52     |  29.1 |  7.41
Output  | 0.066491   | 0.066521   | 0.066551   |   0.0 |  0.00
Modify  | 21.769     | 21.939     | 22.109     |   3.6 |  1.51
Other   |            | 4.823      |            |       |  0.33

Nlocal:    9826 ave 9845 max 9807 min
Histogram: 1 0 0 0 0 0 0 0 0 1
Nghost:    9725.5 ave 9736 max 9715 min
Histogram: 1 0 0 0 0 0 0 0 0 1
Neighs:    379982 ave 382046 max 377918 min
Histogram: 1 0 0 0 0 0 0 0 0 1

Total # of neighbors = 759964
Ave neighs/atom = 38.6711
Neighbor list builds = 19505
Dangerous builds not checked
Setting up Verlet run ...
  Unit style    : metal
  Current step  : 100000
  Time step     : 0.001
Per MPI rank memory allocation (min/avg/max) = 11.35 | 11.35 | 11.35 Mbytes
Step Temp Press TotEng PotEng Enthalpy 
  100000    2309.3717    568.97192   -14838.829   -20704.844   -14609.357 
  100495    2260.4498   -554.05843   -15003.679   -20745.428   -15228.127 
Loop time of 42.0945 on 2 procs for 495 steps with 19652 atoms

Performance: 1.016 ns/day, 23.622 hours/ns, 11.759 timesteps/s
80.9% CPU use with 2 MPI tasks x no OpenMP threads

MPI task timing breakdown:
Section |  min time  |  avg time  |  max time  |%varavg| %total
---------------------------------------------------------------
Pair    | 20.482     | 20.689     | 20.896     |   4.5 | 49.15
Neigh   | 12.644     | 13.676     | 14.708     |  27.9 | 32.49
Comm    | 5.5723     | 6.4045     | 7.2366     |  32.9 | 15.21
Output  | 6.8903e-05 | 9.4414e-05 | 0.00011992 |   0.0 |  0.00
Modify  | 1.211      | 1.2142     | 1.2174     |   0.3 |  2.88
Other   |            | 0.1109     |            |       |  0.26

Nlocal:    9826 ave 9851 max 9801 min
Histogram: 1 0 0 0 0 0 0 0 0 1
Nghost:    9709.5 ave 9745 max 9674 min
Histogram: 1 0 0 0 0 0 0 0 0 1
Neighs:    378454 ave 380617 max 376290 min
Histogram: 1 0 0 0 0 0 0 0 0 1

Total # of neighbors = 756907
Ave neighs/atom = 38.5155
Neighbor list builds = 495
Dangerous builds not checked
Setting up Verlet run ...
  Unit style    : metal
  Current step  : 100495
  Time step     : 0.001
Per MPI rank memory allocation (min/avg/max) = 11.35 | 11.35 | 11.35 Mbytes
Step Temp Press TotEng PotEng Enthalpy 
  100495    2260.4498   -554.05843   -15003.679   -20745.428   -15228.127 
  120000       2255.3    112.49863   -15099.487   -20828.155   -15054.404 
Loop time of 1200.53 on 2 procs for 19505 steps with 19652 atoms

Performance: 1.404 ns/day, 17.097 hours/ns, 16.247 timesteps/s
97.0% CPU use with 2 MPI tasks x no OpenMP threads

MPI task timing breakdown:
Section |  min time  |  avg time  |  max time  |%varavg| %total
---------------------------------------------------------------
Pair    | 620.77     | 624.03     | 627.3      |  13.1 | 51.98
Neigh   | 502.41     | 503.67     | 504.94     |   5.6 | 41.95
Comm    | 47.142     | 51.82      | 56.497     |  65.0 |  4.32
Output  | 0.046007   | 0.046033   | 0.046058   |   0.0 |  0.00
Modify  | 16.636     | 16.696     | 16.757     |   1.5 |  1.39
Other   |            | 4.263      |            |       |  0.36

Nlocal:    9826 ave 9852 max 9800 min
Histogram: 1 0 0 0 0 0 0 0 0 1
Nghost:    9779 ave 9780 max 9778 min
Histogram: 1 0 0 0 0 0 0 0 0 1
Neighs:    382502 ave 384158 max 380847 min
Histogram: 1 0 0 0 0 0 0 0 0 1

Total # of neighbors = 765005
Ave neighs/atom = 38.9276
Neighbor list builds = 19505
Dangerous builds not checked
Setting up Verlet run ...
  Unit style    : metal
  Current step  : 120000
  Time step     : 0.001
Per MPI rank memory allocation (min/avg/max) = 11.35 | 11.36 | 11.36 Mbytes
Step Temp Press TotEng PotEng Enthalpy 
  120000       2255.3    112.49863   -15099.487   -20828.155   -15054.404 
  120495    2199.3235   -167.91494   -15358.134   -20944.616   -15425.097 
Loop time of 29.1061 on 2 procs for 495 steps with 19652 atoms

Performance: 1.469 ns/day, 16.333 hours/ns, 17.007 timesteps/s
99.9% CPU use with 2 MPI tasks x no OpenMP threads

MPI task timing breakdown:
Section |  min time  |  avg time  |  max time  |%varavg| %total
---------------------------------------------------------------
Pair    | 14.972     | 15.209     | 15.446     |   6.1 | 52.25
Neigh   | 12.174     | 12.345     | 12.515     |   4.9 | 42.41
Comm    | 0.95657    | 1.0285     | 1.1005     |   7.1 |  3.53
Output  | 7.8201e-05 | 0.00011158 | 0.00014496 |   0.0 |  0.00
Modify  | 0.41009    | 0.41181    | 0.41354    |   0.3 |  1.41
Other   |            | 0.1122     |            |       |  0.39

Nlocal:    9826 ave 9835 max 9817 min
Histogram: 1 0 0 0 0 0 0 0 0 1
Nghost:    9759.5 ave 9794 max 9725 min
Histogram: 1 0 0 0 0 0 0 0 0 1
Neighs:    384024 ave 384531 max 383516 min
Histogram: 1 0 0 0 0 0 0 0 0 1

Total # of neighbors = 768047
Ave neighs/atom = 39.0824
Neighbor list builds = 495
Dangerous builds not checked
Setting up Verlet run ...
  Unit style    : metal
  Current step  : 120495
  Time step     : 0.001
Per MPI rank memory allocation (min/avg/max) = 11.35 | 11.36 | 11.36 Mbytes
Step Temp Press TotEng PotEng Enthalpy 
  120495    2199.3235   -167.91494   -15358.134   -20944.616   -15425.097 
  140000    2180.0734   -38.173979   -15608.727   -21146.312   -15623.773 
Loop time of 1502.86 on 2 procs for 19505 steps with 19652 atoms

Performance: 1.121 ns/day, 21.403 hours/ns, 12.979 timesteps/s
84.6% CPU use with 2 MPI tasks x no OpenMP threads

MPI task timing breakdown:
Section |  min time  |  avg time  |  max time  |%varavg| %total
---------------------------------------------------------------
Pair    | 792.06     | 793.37     | 794.68     |   4.6 | 52.79
Neigh   | 566.2      | 567.38     | 568.56     |   5.0 | 37.75
Comm    | 114.64     | 114.72     | 114.8      |   0.8 |  7.63
Output  | 0.1606     | 0.16061    | 0.16062    |   0.0 |  0.01
Modify  | 22.436     | 22.437     | 22.437     |   0.0 |  1.49
Other   |            | 4.796      |            |       |  0.32

Nlocal:    9826 ave 9874 max 9778 min
Histogram: 1 0 0 0 0 0 0 0 0 1
Nghost:    9855 ave 9876 max 9834 min
Histogram: 1 0 0 0 0 0 0 0 0 1
Neighs:    388604 ave 392854 max 384353 min
Histogram: 1 0 0 0 0 0 0 0 0 1

Total # of neighbors = 777207
Ave neighs/atom = 39.5485
Neighbor list builds = 19505
Dangerous builds not checked
Setting up Verlet run ...
  Unit style    : metal
  Current step  : 140000
  Time step     : 0.001
Per MPI rank memory allocation (min/avg/max) = 11.36 | 11.36 | 11.36 Mbytes
Step Temp Press TotEng PotEng Enthalpy 
  140000    2180.0734   -38.173979   -15608.727   -21146.312   -15623.773 
  140495    2148.2037   -299.28917    -15756.49   -21213.123   -15874.011 
Loop time of 47.9744 on 2 procs for 495 steps with 19652 atoms

Performance: 0.891 ns/day, 26.922 hours/ns, 10.318 timesteps/s
73.4% CPU use with 2 MPI tasks x no OpenMP threads

MPI task timing breakdown:
Section |  min time  |  avg time  |  max time  |%varavg| %total
---------------------------------------------------------------
Pair    | 24.662     | 24.917     | 25.171     |   5.1 | 51.94
Neigh   | 15.268     | 16.415     | 17.563     |  28.3 | 34.22
Comm    | 4.6157     | 5.5722     | 6.5287     |  40.5 | 11.61
Output  | 8.5115e-05 | 0.00010908 | 0.00013304 |   0.0 |  0.00
Modify  | 0.88571    | 0.9279     | 0.97009    |   4.4 |  1.93
Other   |            | 0.1423     |            |       |  0.30

Nlocal:    9826 ave 9833 max 9819 min
Histogram: 1 0 0 0 0 0 0 0 0 1
Nghost:    9842 ave 9875 max 9809 min
Histogram: 1 0 0 0 0 0 0 0 0 1
Neighs:    390185 ave 392129 max 388241 min
Histogram: 1 0 0 0 0 0 0 0 0 1

Total # of neighbors = 780370
Ave neighs/atom = 39.7094
Neighbor list builds = 495
Dangerous builds not checked
Setting up Verlet run ...
  Unit style    : metal
  Current step  : 140495
  Time step     : 0.001
Per MPI rank memory allocation (min/avg/max) = 11.36 | 11.36 | 11.36 Mbytes
Step Temp Press TotEng PotEng Enthalpy 
  140495    2148.2037   -299.28917    -15756.49   -21213.123   -15874.011 
  160000    2140.9818   -472.92502   -15864.321    -21302.61   -16049.336 
Loop time of 1435.66 on 2 procs for 19505 steps with 19652 atoms

Performance: 1.174 ns/day, 20.446 hours/ns, 13.586 timesteps/s
85.0% CPU use with 2 MPI tasks x no OpenMP threads

MPI task timing breakdown:
Section |  min time  |  avg time  |  max time  |%varavg| %total
---------------------------------------------------------------
Pair    | 752.93     | 753.52     | 754.12     |   2.2 | 52.49
Neigh   | 532.63     | 532.73     | 532.83     |   0.4 | 37.11
Comm    | 112.01     | 112.93     | 113.84     |   8.6 |  7.87
Output  | 0.21505    | 0.21506    | 0.21508    |   0.0 |  0.01
Modify  | 31.573     | 31.752     | 31.93      |   3.2 |  2.21
Other   |            | 4.513      |            |       |  0.31

Nlocal:    9826 ave 9832 max 9820 min
Histogram: 1 0 0 0 0 0 0 0 0 1
Nghost:    9913 ave 9914 max 9912 min
Histogram: 1 0 0 0 0 0 0 0 0 1
Neighs:    391501 ave 392464 max 390538 min
Histogram: 1 0 0 0 0 0 0 0 0 1

Total # of neighbors = 783002
Ave neighs/atom = 39.8434
Neighbor list builds = 19505
Dangerous builds not checked
Setting up Verlet run ...
  Unit style    : metal
  Current step  : 160000
  Time step     : 0.001
Per MPI rank memory allocation (min/avg/max) = 11.36 | 11.36 | 11.36 Mbytes
Step Temp Press TotEng PotEng Enthalpy 
  160000    2140.9818   -472.92502   -15864.321    -21302.61   -16049.336 
  160495    2124.1724   -256.64197   -16053.921   -21449.512   -16153.647 
Loop time of 30.1159 on 2 procs for 495 steps with 19652 atoms

Performance: 1.420 ns/day, 16.900 hours/ns, 16.437 timesteps/s
95.4% CPU use with 2 MPI tasks x no OpenMP threads

MPI task timing breakdown:
Section |  min time  |  avg time  |  max time  |%varavg| %total
---------------------------------------------------------------
Pair    | 16.305     | 16.357     | 16.41      |   1.3 | 54.31
Neigh   | 11.821     | 11.857     | 11.894     |   1.1 | 39.37
Comm    | 1.3756     | 1.3926     | 1.4096     |   1.4 |  4.62
Output  | 7.4148e-05 | 0.00010157 | 0.00012898 |   0.0 |  0.00
Modify  | 0.39352    | 0.39642    | 0.39931    |   0.5 |  1.32
Other   |            | 0.1122     |            |       |  0.37

Nlocal:    9826 ave 9849 max 9803 min
Histogram: 1 0 0 0 0 0 0 0 0 1
Nghost:    9958 ave 9971 max 9945 min
Histogram: 1 0 0 0 0 0 0 0 0 1
Neighs:    394280 ave 395646 max 392915 min
Histogram: 1 0 0 0 0 0 0 0 0 1

Total # of neighbors = 788561
Ave neighs/atom = 40.1262
Neighbor list builds = 495
Dangerous builds not checked
Setting up Verlet run ...
  Unit style    : metal
  Current step  : 160495
  Time step     : 0.001
Per MPI rank memory allocation (min/avg/max) = 11.36 | 11.36 | 11.36 Mbytes
Step Temp Press TotEng PotEng Enthalpy 
  160495    2124.1724   -256.64197   -16053.921   -21449.512   -16153.647 
  180000    2103.7234   -31.942938   -16172.021    -21515.67   -16184.339 
Loop time of 1234.13 on 2 procs for 19505 steps with 19652 atoms

Performance: 1.366 ns/day, 17.576 hours/ns, 15.805 timesteps/s
90.4% CPU use with 2 MPI tasks x no OpenMP threads

MPI task timing breakdown:
Section |  min time  |  avg time  |  max time  |%varavg| %total
---------------------------------------------------------------
Pair    | 647.86     | 648.27     | 648.69     |   1.6 | 52.53
Neigh   | 459.15     | 462.21     | 465.28     |  14.3 | 37.45
Comm    | 99.426     | 102.26     | 105.09     |  28.0 |  8.29
Output  | 0.072552   | 0.072553   | 0.072555   |   0.0 |  0.01
Modify  | 17.2       | 17.341     | 17.482     |   3.4 |  1.41
Other   |            | 3.972      |            |       |  0.32

Nlocal:    9826 ave 9830 max 9822 min
Histogram: 1 0 0 0 0 0 0 0 0 1
Nghost:    9934.5 ave 9965 max 9904 min
Histogram: 1 0 0 0 0 0 0 0 0 1
Neighs:    397122 ave 397875 max 396369 min
Histogram: 1 0 0 0 0 0 0 0 0 1

Total # of neighbors = 794244
Ave neighs/atom = 40.4154
Neighbor list builds = 19505
Dangerous builds not checked
Setting up Verlet run ...
  Unit style    : metal
  Current step  : 180000
  Time step     : 0.001
Per MPI rank memory allocation (min/avg/max) = 11.36 | 11.36 | 11.36 Mbytes
Step Temp Press TotEng PotEng Enthalpy 
  180000    2103.7234   -31.942938   -16172.021    -21515.67   -16184.339 
  180495     2047.866    3.4263634   -16408.991   -21610.757   -16407.677 
Loop time of 37.4125 on 2 procs for 495 steps with 19652 atoms

Performance: 1.143 ns/day, 20.995 hours/ns, 13.231 timesteps/s
85.9% CPU use with 2 MPI tasks x no OpenMP threads

MPI task timing breakdown:
Section |  min time  |  avg time  |  max time  |%varavg| %total
---------------------------------------------------------------
Pair    | 16.229     | 16.309     | 16.39      |   2.0 | 43.59
Neigh   | 10.844     | 11.946     | 13.048     |  31.9 | 31.93
Comm    | 7.4376     | 8.5686     | 9.6995     |  38.6 | 22.90
Output  | 6.485e-05  | 8.4877e-05 | 0.0001049  |   0.0 |  0.00
Modify  | 0.38413    | 0.48035    | 0.57658    |  13.9 |  1.28
Other   |            | 0.1083     |            |       |  0.29

Nlocal:    9826 ave 9834 max 9818 min
Histogram: 1 0 0 0 0 0 0 0 0 1
Nghost:    9935 ave 9936 max 9934 min
Histogram: 1 0 0 0 0 0 0 0 0 1
Neighs:    399794 ave 400189 max 399399 min
Histogram: 1 0 0 0 0 0 0 0 0 1

Total # of neighbors = 799588
Ave neighs/atom = 40.6874
Neighbor list builds = 495
Dangerous builds not checked
Setting up Verlet run ...
  Unit style    : metal
  Current step  : 180495
  Time step     : 0.001
Per MPI rank memory allocation (min/avg/max) = 11.36 | 11.36 | 11.36 Mbytes
Step Temp Press TotEng PotEng Enthalpy 
  180495     2047.866    3.4263634   -16408.991   -21610.757   -16407.677 
  200000    2066.4057   -228.75178   -16526.539   -21775.398   -16613.786 
Loop time of 1355.26 on 2 procs for 19505 steps with 19652 atoms

Performance: 1.243 ns/day, 19.301 hours/ns, 14.392 timesteps/s
90.4% CPU use with 2 MPI tasks x no OpenMP threads

MPI task timing breakdown:
Section |  min time  |  avg time  |  max time  |%varavg| %total
---------------------------------------------------------------
Pair    | 674        | 677.07     | 680.14     |  11.8 | 49.96
Neigh   | 509.96     | 517.51     | 525.07     |  33.2 | 38.19
Comm    | 133.82     | 138.43     | 143.04     |  39.2 | 10.21
Output  | 0.038544   | 0.038559   | 0.038574   |   0.0 |  0.00
Modify  | 18.027     | 18.045     | 18.062     |   0.4 |  1.33
Other   |            | 4.163      |            |       |  0.31

Nlocal:    9826 ave 9831 max 9821 min
Histogram: 1 0 0 0 0 0 0 0 0 1
Nghost:    10021.5 ave 10048 max 9995 min
Histogram: 1 0 0 0 0 0 0 0 0 1
Neighs:    401468 ave 404526 max 398409 min
Histogram: 1 0 0 0 0 0 0 0 0 1

Total # of neighbors = 802935
Ave neighs/atom = 40.8577
Neighbor list builds = 19505
Dangerous builds not checked
Setting up Verlet run ...
  Unit style    : metal
  Current step  : 200000
  Time step     : 0.001
Per MPI rank memory allocation (min/avg/max) = 11.36 | 11.36 | 11.36 Mbytes
Step Temp Press TotEng PotEng Enthalpy 
  200000    2066.4057   -228.75178   -16526.539   -21775.398   -16613.786 
  200495    2014.0762    213.92685    -16730.34   -21846.276   -16649.409 
Loop time of 23.2348 on 2 procs for 495 steps with 19652 atoms

Performance: 1.841 ns/day, 13.039 hours/ns, 21.304 timesteps/s
96.5% CPU use with 2 MPI tasks x no OpenMP threads

MPI task timing breakdown:
Section |  min time  |  avg time  |  max time  |%varavg| %total
---------------------------------------------------------------
Pair    | 11.184     | 11.42      | 11.656     |   7.0 | 49.15
Neigh   | 9.4418     | 10.272     | 11.103     |  25.9 | 44.21
Comm    | 0.56694    | 1.1816     | 1.7962     |  56.5 |  5.09
Output  | 8.5831e-05 | 0.0001024  | 0.00011897 |   0.0 |  0.00
Modify  | 0.27216    | 0.28429    | 0.29643    |   2.3 |  1.22
Other   |            | 0.07701    |            |       |  0.33

Nlocal:    9826 ave 9854 max 9798 min
Histogram: 1 0 0 0 0 0 0 0 0 1
Nghost:    10051.5 ave 10079 max 10024 min
Histogram: 1 0 0 0 0 0 0 0 0 1
Neighs:    404876 ave 406384 max 403368 min
Histogram: 1 0 0 0 0 0 0 0 0 1

Total # of neighbors = 809752
Ave neighs/atom = 41.2046
Neighbor list builds = 495
Dangerous builds not checked
Setting up Verlet run ...
  Unit style    : metal
  Current step  : 200495
  Time step     : 0.001
Per MPI rank memory allocation (min/avg/max) = 11.36 | 11.36 | 11.36 Mbytes
Step Temp Press TotEng PotEng Enthalpy 
  200495    2014.0762    213.92685    -16730.34   -21846.276   -16649.409 
  220000    1982.8721    40.644467    -16862.51   -21899.186   -16847.166 
Loop time of 1235.94 on 2 procs for 19505 steps with 19652 atoms

Performance: 1.364 ns/day, 17.601 hours/ns, 15.782 timesteps/s
93.1% CPU use with 2 MPI tasks x no OpenMP threads

MPI task timing breakdown:
Section |  min time  |  avg time  |  max time  |%varavg| %total
---------------------------------------------------------------
Pair    | 625.7      | 630.49     | 635.29     |  19.1 | 51.01
Neigh   | 512.31     | 512.75     | 513.18     |   1.9 | 41.49
Comm    | 66.324     | 71.558     | 76.793     |  61.9 |  5.79
Output  | 0.049486   | 0.049503   | 0.049519   |   0.0 |  0.00
Modify  | 16.963     | 16.978     | 16.993     |   0.4 |  1.37
Other   |            | 4.113      |            |       |  0.33

Nlocal:    9826 ave 9851 max 9801 min
Histogram: 1 0 0 0 0 0 0 0 0 1
Nghost:    10050.5 ave 10064 max 10037 min
Histogram: 1 0 0 0 0 0 0 0 0 1
Neighs:    405839 ave 410971 max 400707 min
Histogram: 1 0 0 0 0 0 0 0 0 1

Total # of neighbors = 811678
Ave neighs/atom = 41.3026
Neighbor list builds = 19505
Dangerous builds not checked
Setting up Verlet run ...
  Unit style    : metal
  Current step  : 220000
  Time step     : 0.001
Per MPI rank memory allocation (min/avg/max) = 11.36 | 11.36 | 11.36 Mbytes
Step Temp Press TotEng PotEng Enthalpy 
  220000    1982.8721    40.644467    -16862.51   -21899.186   -16847.166 
  220495    1952.7817    270.07394    -17072.59   -22032.833   -16971.448 
Loop time of 27.0382 on 2 procs for 495 steps with 19652 atoms

Performance: 1.582 ns/day, 15.173 hours/ns, 18.307 timesteps/s
99.7% CPU use with 2 MPI tasks x no OpenMP threads

MPI task timing breakdown:
Section |  min time  |  avg time  |  max time  |%varavg| %total
---------------------------------------------------------------
Pair    | 13.611     | 13.623     | 13.635     |   0.3 | 50.38
Neigh   | 10.617     | 11.498     | 12.379     |  26.0 | 42.52
Comm    | 0.54439    | 1.4676     | 2.3907     |  76.2 |  5.43
Output  | 7.1049e-05 | 0.00010049 | 0.00012994 |   0.0 |  0.00
Modify  | 0.33764    | 0.35496    | 0.37227    |   2.9 |  1.31
Other   |            | 0.09501    |            |       |  0.35

Nlocal:    9826 ave 9859 max 9793 min
Histogram: 1 0 0 0 0 0 0 0 0 1
Nghost:    10075.5 ave 10114 max 10037 min
Histogram: 1 0 0 0 0 0 0 0 0 1
Neighs:    409354 ave 410159 max 408548 min
Histogram: 1 0 0 0 0 0 0 0 0 1

Total # of neighbors = 818707
Ave neighs/atom = 41.6602
Neighbor list builds = 495
Dangerous builds not checked
Setting up Verlet run ...
  Unit style    : metal
  Current step  : 220495
  Time step     : 0.001
Per MPI rank memory allocation (min/avg/max) = 11.36 | 11.36 | 11.36 Mbytes
Step Temp Press TotEng PotEng Enthalpy 
  220495    1952.7817    270.07394    -17072.59   -22032.833   -16971.448 
  240000    1934.6607   -771.31687   -17160.173   -22074.387   -17449.795 
Loop time of 1169.8 on 2 procs for 19505 steps with 19652 atoms

Performance: 1.441 ns/day, 16.660 hours/ns, 16.674 timesteps/s
96.6% CPU use with 2 MPI tasks x no OpenMP threads

MPI task timing breakdown:
Section |  min time  |  avg time  |  max time  |%varavg| %total
---------------------------------------------------------------
Pair    | 584.6      | 587.31     | 590.02     |  11.2 | 50.21
Neigh   | 476.2      | 482.44     | 488.67     |  28.4 | 41.24
Comm    | 64.484     | 72.792     | 81.099     |  97.4 |  6.22
Output  | 0.22397    | 0.22399    | 0.22401    |   0.0 |  0.02
Modify  | 22.416     | 23.155     | 23.894     |  15.4 |  1.98
Other   |            | 3.878      |            |       |  0.33

Nlocal:    9826 ave 9868 max 9784 min
Histogram: 1 0 0 0 0 0 0 0 0 1
Nghost:    10108.5 ave 10121 max 10096 min
Histogram: 1 0 0 0 0 0 0 0 0 1
Neighs:    408025 ave 408662 max 407388 min
Histogram: 1 0 0 0 0 0 0 0 0 1

Total # of neighbors = 816050
Ave neighs/atom = 41.525
Neighbor list builds = 19505
Dangerous builds not checked
Setting up Verlet run ...
  Unit style    : metal
  Current step  : 240000
  Time step     : 0.001
Per MPI rank memory allocation (min/avg/max) = 11.36 | 11.36 | 11.36 Mbytes
Step Temp Press TotEng PotEng Enthalpy 
  240000    1934.6607   -771.31687   -17160.173   -22074.387   -17449.795 
  240495    1906.2967    348.59987   -17407.158   -22249.326   -17278.111 
Loop time of 31.1975 on 2 procs for 495 steps with 19652 atoms

Performance: 1.371 ns/day, 17.507 hours/ns, 15.867 timesteps/s
96.7% CPU use with 2 MPI tasks x no OpenMP threads

MPI task timing breakdown:
Section |  min time  |  avg time  |  max time  |%varavg| %total
---------------------------------------------------------------
Pair    | 15.617     | 15.722     | 15.827     |   2.7 | 50.39
Neigh   | 13.359     | 13.393     | 13.426     |   0.9 | 42.93
Comm    | 1.3816     | 1.4661     | 1.5507     |   7.0 |  4.70
Output  | 8.7976e-05 | 0.0001055  | 0.00012302 |   0.0 |  0.00
Modify  | 0.50081    | 0.50474    | 0.50867    |   0.6 |  1.62
Other   |            | 0.1122     |            |       |  0.36

Nlocal:    9826 ave 9879 max 9773 min
Histogram: 1 0 0 0 0 0 0 0 0 1
Nghost:    10106.5 ave 10109 max 10104 min
Histogram: 1 0 0 0 0 0 0 0 0 1
Neighs:    414008 ave 414331 max 413685 min
Histogram: 1 0 0 0 0 0 0 0 0 1

Total # of neighbors = 828016
Ave neighs/atom = 42.1339
Neighbor list builds = 495
Dangerous builds not checked
Setting up Verlet run ...
  Unit style    : metal
  Current step  : 240495
  Time step     : 0.001
Per MPI rank memory allocation (min/avg/max) = 11.36 | 11.36 | 11.36 Mbytes
Step Temp Press TotEng PotEng Enthalpy 
  240495    1906.2967    348.59987   -17407.158   -22249.326   -17278.111 
  260000    1894.9893   -44.913672   -17469.675    -22283.12     -17486.3 
Loop time of 1263.55 on 2 procs for 19505 steps with 19652 atoms

Performance: 1.334 ns/day, 17.995 hours/ns, 15.437 timesteps/s
92.9% CPU use with 2 MPI tasks x no OpenMP threads

MPI task timing breakdown:
Section |  min time  |  avg time  |  max time  |%varavg| %total
---------------------------------------------------------------
Pair    | 647.14     | 649.11     | 651.07     |   7.7 | 51.37
Neigh   | 516.95     | 520.43     | 523.9      |  15.2 | 41.19
Comm    | 66.77      | 72.119     | 77.467     |  63.0 |  5.71
Output  | 0.063758   | 0.063772   | 0.063786   |   0.0 |  0.01
Modify  | 17.538     | 17.581     | 17.623     |   1.0 |  1.39
Other   |            | 4.253      |            |       |  0.34

Nlocal:    9826 ave 9828 max 9824 min
Histogram: 1 0 0 0 0 0 0 0 0 1
Nghost:    10138.5 ave 10143 max 10134 min
Histogram: 1 0 0 0 0 0 0 0 0 1
Neighs:    414021 ave 417723 max 410319 min
Histogram: 1 0 0 0 0 0 0 0 0 1

Total # of neighbors = 828042
Ave neighs/atom = 42.1353
Neighbor list builds = 19505
Dangerous builds not checked
Setting up Verlet run ...
  Unit style    : metal
  Current step  : 260000
  Time step     : 0.001
Per MPI rank memory allocation (min/avg/max) = 11.36 | 11.36 | 11.36 Mbytes
Step Temp Press TotEng PotEng Enthalpy 
  260000    1894.9893   -44.913672   -17469.675    -22283.12     -17486.3 
  260495    1871.1408   -97.596854   -17674.817   -22427.685   -17710.688 
Loop time of 26.8581 on 2 procs for 495 steps with 19652 atoms

Performance: 1.592 ns/day, 15.072 hours/ns, 18.430 timesteps/s
97.2% CPU use with 2 MPI tasks x no OpenMP threads

MPI task timing breakdown:
Section |  min time  |  avg time  |  max time  |%varavg| %total
---------------------------------------------------------------
Pair    | 12.999     | 13.044     | 13.088     |   1.2 | 48.56
Neigh   | 11.476     | 11.509     | 11.543     |   1.0 | 42.85
Comm    | 1.7799     | 1.858      | 1.9362     |   5.7 |  6.92
Output  | 7.4148e-05 | 0.00010204 | 0.00012994 |   0.0 |  0.00
Modify  | 0.34345    | 0.34462    | 0.34579    |   0.2 |  1.28
Other   |            | 0.1024     |            |       |  0.38

Nlocal:    9826 ave 9837 max 9815 min
Histogram: 1 0 0 0 0 0 0 0 0 1
Nghost:    10198 ave 10214 max 10182 min
Histogram: 1 0 0 0 0 0 0 0 0 1
Neighs:    416939 ave 421297 max 412581 min
Histogram: 1 0 0 0 0 0 0 0 0 1

Total # of neighbors = 833878
Ave neighs/atom = 42.4322
Neighbor list builds = 495
Dangerous builds not checked
Setting up Verlet run ...
  Unit style    : metal
  Current step  : 260495
  Time step     : 0.001
Per MPI rank memory allocation (min/avg/max) = 11.36 | 11.36 | 11.36 Mbytes
Step Temp Press TotEng PotEng Enthalpy 
  260495    1871.1408   -97.596854   -17674.817   -22427.685   -17710.688 
  280000     1851.492   -37.956692   -17800.534   -22503.493   -17814.437 
Loop time of 1372.15 on 2 procs for 19505 steps with 19652 atoms

Performance: 1.228 ns/day, 19.541 hours/ns, 14.215 timesteps/s
90.3% CPU use with 2 MPI tasks x no OpenMP threads

MPI task timing breakdown:
Section |  min time  |  avg time  |  max time  |%varavg| %total
---------------------------------------------------------------
Pair    | 710.86     | 713.44     | 716.02     |   9.6 | 51.99
Neigh   | 534.05     | 551.58     | 569.1      |  74.6 | 40.20
Comm    | 68.857     | 84.204     | 99.552     | 167.2 |  6.14
Output  | 0.053146   | 0.05316    | 0.053173   |   0.0 |  0.00
Modify  | 18.086     | 18.374     | 18.663     |   6.7 |  1.34
Other   |            | 4.5        |            |       |  0.33

Nlocal:    9826 ave 9831 max 9821 min
Histogram: 1 0 0 0 0 0 0 0 0 1
Nghost:    10178 ave 10197 max 10159 min
Histogram: 1 0 0 0 0 0 0 0 0 1
Neighs:    418534 ave 421561 max 415507 min
Histogram: 1 0 0 0 0 0 0 0 0 1

Total # of neighbors = 837068
Ave neighs/atom = 42.5945
Neighbor list builds = 19505
Dangerous builds not checked
Setting up Verlet run ...
  Unit style    : metal
  Current step  : 280000
  Time step     : 0.001
Per MPI rank memory allocation (min/avg/max) = 11.37 | 11.37 | 11.37 Mbytes
Step Temp Press TotEng PotEng Enthalpy 
  280000     1851.492   -37.956692   -17800.534   -22503.493   -17814.437 
  280495    1805.6595    138.73286   -18017.282   -22603.821   -17966.789 
Loop time of 34.8758 on 2 procs for 495 steps with 19652 atoms

Performance: 1.226 ns/day, 19.571 hours/ns, 14.193 timesteps/s
89.6% CPU use with 2 MPI tasks x no OpenMP threads

MPI task timing breakdown:
Section |  min time  |  avg time  |  max time  |%varavg| %total
---------------------------------------------------------------
Pair    | 18.125     | 18.132     | 18.139     |   0.2 | 51.99
Neigh   | 13.609     | 14.033     | 14.456     |  11.3 | 40.24
Comm    | 1.7004     | 2.1271     | 2.5538     |  29.3 |  6.10
Output  | 6.9141e-05 | 9.8109e-05 | 0.00012708 |   0.0 |  0.00
Modify  | 0.46245    | 0.47143    | 0.48042    |   1.3 |  1.35
Other   |            | 0.1122     |            |       |  0.32

Nlocal:    9826 ave 9844 max 9808 min
Histogram: 1 0 0 0 0 0 0 0 0 1
Nghost:    10160.5 ave 10178 max 10143 min
Histogram: 1 0 0 0 0 0 0 0 0 1
Neighs:    420998 ave 423737 max 418260 min
Histogram: 1 0 0 0 0 0 0 0 0 1

Total # of neighbors = 841997
Ave neighs/atom = 42.8454
Neighbor list builds = 495
Dangerous builds not checked
Setting up Verlet run ...
  Unit style    : metal
  Current step  : 280495
  Time step     : 0.001
Per MPI rank memory allocation (min/avg/max) = 11.37 | 11.37 | 11.37 Mbytes
Step Temp Press TotEng PotEng Enthalpy 
  280495    1805.6595    138.73286   -18017.282   -22603.821   -17966.789 
  300000    1800.4988   -457.53187   -18135.461   -22708.892   -18301.525 
Loop time of 1335.45 on 2 procs for 19505 steps with 19652 atoms

Performance: 1.262 ns/day, 19.019 hours/ns, 14.606 timesteps/s
91.4% CPU use with 2 MPI tasks x no OpenMP threads

MPI task timing breakdown:
Section |  min time  |  avg time  |  max time  |%varavg| %total
---------------------------------------------------------------
Pair    | 692.27     | 694.89     | 697.52     |  10.0 | 52.03
Neigh   | 537.95     | 538.11     | 538.27     |   0.7 | 40.29
Comm    | 77.264     | 79.827     | 82.39      |  28.7 |  5.98
Output  | 0.35851    | 0.35853    | 0.35854    |   0.0 |  0.03
Modify  | 17.695     | 17.8       | 17.904     |   2.5 |  1.33
Other   |            | 4.454      |            |       |  0.33

Nlocal:    9826 ave 9830 max 9822 min
Histogram: 1 0 0 0 0 0 0 0 0 1
Nghost:    10238.5 ave 10251 max 10226 min
Histogram: 1 0 0 0 0 0 0 0 0 1
Neighs:    422194 ave 425717 max 418671 min
Histogram: 1 0 0 0 0 0 0 0 0 1

Total # of neighbors = 844388
Ave neighs/atom = 42.967
Neighbor list builds = 19505
Dangerous builds not checked
Setting up Verlet run ...
  Unit style    : metal
  Current step  : 300000
  Time step     : 0.001
Per MPI rank memory allocation (min/avg/max) = 11.37 | 11.37 | 11.37 Mbytes
Step Temp Press TotEng PotEng Enthalpy 
  300000    1800.4988   -457.53187   -18135.461   -22708.892   -18301.525 
  300495    1756.8382    377.31714   -18348.689   -22811.219   -18212.881 
Loop time of 43.1143 on 2 procs for 495 steps with 19652 atoms

Performance: 0.992 ns/day, 24.194 hours/ns, 11.481 timesteps/s
81.2% CPU use with 2 MPI tasks x no OpenMP threads

MPI task timing breakdown:
Section |  min time  |  avg time  |  max time  |%varavg| %total
---------------------------------------------------------------
Pair    | 21.733     | 22.112     | 22.491     |   8.1 | 51.29
Neigh   | 15.219     | 16.298     | 17.377     |  26.7 | 37.80
Comm    | 3.1025     | 3.8086     | 4.5147     |  36.2 |  8.83
Output  | 6.4135e-05 | 8.7023e-05 | 0.00010991 |   0.0 |  0.00
Modify  | 0.76706    | 0.76834    | 0.76962    |   0.1 |  1.78
Other   |            | 0.1272     |            |       |  0.30

Nlocal:    9826 ave 9832 max 9820 min
Histogram: 1 0 0 0 0 0 0 0 0 1
Nghost:    10237 ave 10248 max 10226 min
Histogram: 1 0 0 0 0 0 0 0 0 1
Neighs:    425612 ave 430215 max 421008 min
Histogram: 1 0 0 0 0 0 0 0 0 1

Total # of neighbors = 851223
Ave neighs/atom = 43.3148
Neighbor list builds = 495
Dangerous builds not checked
Setting up Verlet run ...
  Unit style    : metal
  Current step  : 300495
  Time step     : 0.001
Per MPI rank memory allocation (min/avg/max) = 11.37 | 11.37 | 11.37 Mbytes
Step Temp Press TotEng PotEng Enthalpy 
  300495    1756.8382    377.31714   -18348.689   -22811.219   -18212.881 
  320000    1769.4372   -143.72948   -18299.564   -22794.096   -18351.433 
Loop time of 1338.01 on 2 procs for 19505 steps with 19652 atoms

Performance: 1.260 ns/day, 19.055 hours/ns, 14.578 timesteps/s
92.6% CPU use with 2 MPI tasks x no OpenMP threads

MPI task timing breakdown:
Section |  min time  |  avg time  |  max time  |%varavg| %total
---------------------------------------------------------------
Pair    | 692.12     | 697.61     | 703.1      |  20.8 | 52.14
Neigh   | 511.95     | 526.45     | 540.95     |  63.2 | 39.35
Comm    | 81.96      | 91.394     | 100.83     |  98.7 |  6.83
Output  | 0.050563   | 0.050579   | 0.050595   |   0.0 |  0.00
Modify  | 17.918     | 18.219     | 18.519     |   7.0 |  1.36
Other   |            | 4.29       |            |       |  0.32

Nlocal:    9826 ave 9830 max 9822 min
Histogram: 1 0 0 0 0 0 0 0 0 1
Nghost:    10188 ave 10216 max 10160 min
Histogram: 1 0 0 0 0 0 0 0 0 1
Neighs:    424637 ave 429322 max 419952 min
Histogram: 1 0 0 0 0 0 0 0 0 1

Total # of neighbors = 849274
Ave neighs/atom = 43.2157
Neighbor list builds = 19505
Dangerous builds not checked
Setting up Verlet run ...
  Unit style    : metal
  Current step  : 320000
  Time step     : 0.001
Per MPI rank memory allocation (min/avg/max) = 11.37 | 11.37 | 11.37 Mbytes
Step Temp Press TotEng PotEng Enthalpy 
  320000    1769.4372   -143.72948   -18299.564   -22794.096   -18351.433 
  320495    1719.8272    20.725723    -18603.74   -22972.258   -18596.325 
Loop time of 30.6439 on 2 procs for 495 steps with 19652 atoms

Performance: 1.396 ns/day, 17.196 hours/ns, 16.153 timesteps/s
98.1% CPU use with 2 MPI tasks x no OpenMP threads

MPI task timing breakdown:
Section |  min time  |  avg time  |  max time  |%varavg| %total
---------------------------------------------------------------
Pair    | 15.837     | 15.868     | 15.898     |   0.8 | 51.78
Neigh   | 13.097     | 13.215     | 13.332     |   3.2 | 43.12
Comm    | 0.89538    | 1.0495     | 1.2035     |  15.0 |  3.42
Output  | 7.7009e-05 | 0.00010252 | 0.00012803 |   0.0 |  0.00
Modify  | 0.38868    | 0.39491    | 0.40114    |   1.0 |  1.29
Other   |            | 0.1171     |            |       |  0.38

Nlocal:    9826 ave 9843 max 9809 min
Histogram: 1 0 0 0 0 0 0 0 0 1
Nghost:    10300 ave 10304 max 10296 min
Histogram: 1 0 0 0 0 0 0 0 0 1
Neighs:    428344 ave 433764 max 422924 min
Histogram: 1 0 0 0 0 0 0 0 0 1

Total # of neighbors = 856688
Ave neighs/atom = 43.5929
Neighbor list builds = 495
Dangerous builds not checked
Setting up Verlet run ...
  Unit style    : metal
  Current step  : 320495
  Time step     : 0.001
Per MPI rank memory allocation (min/avg/max) = 11.37 | 11.37 | 11.37 Mbytes
Step Temp Press TotEng PotEng Enthalpy 
  320495    1719.8272    20.725723    -18603.74   -22972.258   -18596.325 
  340000    1709.7306    844.45773     -18678.1   -23020.972   -18377.983 
Loop time of 1292.74 on 2 procs for 19505 steps with 19652 atoms

Performance: 1.304 ns/day, 18.410 hours/ns, 15.088 timesteps/s
94.5% CPU use with 2 MPI tasks x no OpenMP threads

MPI task timing breakdown:
Section |  min time  |  avg time  |  max time  |%varavg| %total
---------------------------------------------------------------
Pair    | 672.67     | 675.63     | 678.6      |  11.4 | 52.26
Neigh   | 487.78     | 507.97     | 528.17     |  89.6 | 39.29
Comm    | 70.583     | 88.609     | 106.64     | 191.5 |  6.85
Output  | 0.038448   | 0.038458   | 0.038468   |   0.0 |  0.00
Modify  | 15.872     | 16.425     | 16.978     |  13.6 |  1.27
Other   |            | 4.059      |            |       |  0.31

Nlocal:    9826 ave 9847 max 9805 min
Histogram: 1 0 0 0 0 0 0 0 0 1
Nghost:    10391 ave 10421 max 10361 min
Histogram: 1 0 0 0 0 0 0 0 0 1
Neighs:    431398 ave 433791 max 429004 min
Histogram: 1 0 0 0 0 0 0 0 0 1

Total # of neighbors = 862795
Ave neighs/atom = 43.9037
Neighbor list builds = 19505
Dangerous builds not checked
Setting up Verlet run ...
  Unit style    : metal
  Current step  : 340000
  Time step     : 0.001
Per MPI rank memory allocation (min/avg/max) = 11.37 | 11.37 | 11.37 Mbytes
Step Temp Press TotEng PotEng Enthalpy 
  340000    1709.7306    844.45773     -18678.1   -23020.972   -18377.983 
  340495     1659.265    78.987521   -18924.657   -23139.341   -18896.644 
Loop time of 27.6001 on 2 procs for 495 steps with 19652 atoms

Performance: 1.550 ns/day, 15.488 hours/ns, 17.935 timesteps/s
99.8% CPU use with 2 MPI tasks x no OpenMP threads

MPI task timing breakdown:
Section |  min time  |  avg time  |  max time  |%varavg| %total
---------------------------------------------------------------
Pair    | 14.072     | 14.16      | 14.249     |   2.4 | 51.31
Neigh   | 10.452     | 11.516     | 12.58      |  31.4 | 41.72
Comm    | 0.47404    | 1.4839     | 2.4938     |  82.9 |  5.38
Output  | 7.7009e-05 | 0.00010002 | 0.00012302 |   0.0 |  0.00
Modify  | 0.32547    | 0.34671    | 0.36795    |   3.6 |  1.26
Other   |            | 0.09291    |            |       |  0.34

Nlocal:    9826 ave 9847 max 9805 min
Histogram: 1 0 0 0 0 0 0 0 0 1
Nghost:    10339 ave 10357 max 10321 min
Histogram: 1 0 0 0 0 0 0 0 0 1
Neighs:    432213 ave 437888 max 426538 min
Histogram: 1 0 0 0 0 0 0 0 0 1

Total # of neighbors = 864426
Ave neighs/atom = 43.9867
Neighbor list builds = 495
Dangerous builds not checked
Setting up Verlet run ...
  Unit style    : metal
  Current step  : 340495
  Time step     : 0.001
Per MPI rank memory allocation (min/avg/max) = 11.37 | 11.37 | 11.37 Mbytes
Step Temp Press TotEng PotEng Enthalpy 
  340495     1659.265    78.987521   -18924.657   -23139.341   -18896.644 
  360000    1646.8916    184.49436   -19068.413   -23251.668   -19003.392 
Loop time of 1128.08 on 2 procs for 19505 steps with 19652 atoms

Performance: 1.494 ns/day, 16.065 hours/ns, 17.290 timesteps/s
99.5% CPU use with 2 MPI tasks x no OpenMP threads

MPI task timing breakdown:
Section |  min time  |  avg time  |  max time  |%varavg| %total
---------------------------------------------------------------
Pair    | 574.3      | 580.4      | 586.5      |  25.3 | 51.45
Neigh   | 463.72     | 474        | 484.29     |  47.2 | 42.02
Comm    | 38.859     | 55.593     | 72.326     | 224.4 |  4.93
Output  | 0.051799   | 0.051818   | 0.051836   |   0.0 |  0.00
Modify  | 14.102     | 14.247     | 14.391     |   3.8 |  1.26
Other   |            | 3.791      |            |       |  0.34

Nlocal:    9826 ave 9837 max 9815 min
Histogram: 1 0 0 0 0 0 0 0 0 1
Nghost:    10308.5 ave 10313 max 10304 min
Histogram: 1 0 0 0 0 0 0 0 0 1
Neighs:    435093 ave 439418 max 430768 min
Histogram: 1 0 0 0 0 0 0 0 0 1

Total # of neighbors = 870186
Ave neighs/atom = 44.2798
Neighbor list builds = 19505
Dangerous builds not checked
Setting up Verlet run ...
  Unit style    : metal
  Current step  : 360000
  Time step     : 0.001
Per MPI rank memory allocation (min/avg/max) = 11.37 | 11.37 | 11.37 Mbytes
Step Temp Press TotEng PotEng Enthalpy 
  360000    1646.8916    184.49436   -19068.413   -23251.668   -19003.392 
  360495    1616.6197    6.3430424   -19259.851   -23366.212   -19257.622 
Loop time of 35.853 on 2 procs for 495 steps with 19652 atoms

Performance: 1.193 ns/day, 20.120 hours/ns, 13.806 timesteps/s
87.3% CPU use with 2 MPI tasks x no OpenMP threads

MPI task timing breakdown:
Section |  min time  |  avg time  |  max time  |%varavg| %total
---------------------------------------------------------------
Pair    | 18.628     | 18.708     | 18.788     |   1.9 | 52.18
Neigh   | 14.597     | 14.874     | 15.152     |   7.2 | 41.49
Comm    | 1.2841     | 1.6493     | 2.0145     |  28.4 |  4.60
Output  | 7.8917e-05 | 9.3937e-05 | 0.00010896 |   0.0 |  0.00
Modify  | 0.47394    | 0.48882    | 0.5037     |   2.1 |  1.36
Other   |            | 0.1322     |            |       |  0.37

Nlocal:    9826 ave 9853 max 9799 min
Histogram: 1 0 0 0 0 0 0 0 0 1
Nghost:    10362 ave 10365 max 10359 min
Histogram: 1 0 0 0 0 0 0 0 0 1
Neighs:    436428 ave 438501 max 434356 min
Histogram: 1 0 0 0 0 0 0 0 0 1

Total # of neighbors = 872857
Ave neighs/atom = 44.4157
Neighbor list builds = 495
Dangerous builds not checked
Setting up Verlet run ...
  Unit style    : metal
  Current step  : 360495
  Time step     : 0.001
Per MPI rank memory allocation (min/avg/max) = 11.37 | 11.37 | 11.37 Mbytes
Step Temp Press TotEng PotEng Enthalpy 
  360495    1616.6197    6.3430424   -19259.851   -23366.212   -19257.622 
  380000    1610.2928     538.1197   -19331.357   -23421.647   -19143.282 
Loop time of 1313.81 on 2 procs for 19505 steps with 19652 atoms

Performance: 1.283 ns/day, 18.710 hours/ns, 14.846 timesteps/s
94.7% CPU use with 2 MPI tasks x no OpenMP threads

MPI task timing breakdown:
Section |  min time  |  avg time  |  max time  |%varavg| %total
---------------------------------------------------------------
Pair    | 688.15     | 689.43     | 690.7      |   4.8 | 52.48
Neigh   | 511.83     | 522.11     | 532.38     |  45.0 | 39.74
Comm    | 71.044     | 80.438     | 89.831     | 104.7 |  6.12
Output  | 0.17488    | 0.1749     | 0.17493    |   0.0 |  0.01
Modify  | 17.174     | 17.391     | 17.609     |   5.2 |  1.32
Other   |            | 4.271      |            |       |  0.33

Nlocal:    9826 ave 9846 max 9806 min
Histogram: 1 0 0 0 0 0 0 0 0 1
Nghost:    10344 ave 10377 max 10311 min
Histogram: 1 0 0 0 0 0 0 0 0 1
Neighs:    438849 ave 444304 max 433394 min
Histogram: 1 0 0 0 0 0 0 0 0 1

Total # of neighbors = 877698
Ave neighs/atom = 44.662
Neighbor list builds = 19505
Dangerous builds not checked
Setting up Verlet run ...
  Unit style    : metal
  Current step  : 380000
  Time step     : 0.001
Per MPI rank memory allocation (min/avg/max) = 11.37 | 11.37 | 11.37 Mbytes
Step Temp Press TotEng PotEng Enthalpy 
  380000    1610.2928     538.1197   -19331.357   -23421.647   -19143.282 
  380495    1563.5636   -82.660919   -19511.536    -23483.13   -19540.439 
Loop time of 31.8543 on 2 procs for 495 steps with 19652 atoms

Performance: 1.343 ns/day, 17.876 hours/ns, 15.539 timesteps/s
94.7% CPU use with 2 MPI tasks x no OpenMP threads

MPI task timing breakdown:
Section |  min time  |  avg time  |  max time  |%varavg| %total
---------------------------------------------------------------
Pair    | 16.177     | 16.285     | 16.394     |   2.7 | 51.12
Neigh   | 10.399     | 11.765     | 13.13      |  39.8 | 36.93
Comm    | 1.9206     | 3.2183     | 4.5161     |  72.3 | 10.10
Output  | 8.1062e-05 | 0.00010753 | 0.00013399 |   0.0 |  0.00
Modify  | 0.46378    | 0.49128    | 0.51879    |   3.9 |  1.54
Other   |            | 0.09463    |            |       |  0.30

Nlocal:    9826 ave 9840 max 9812 min
Histogram: 1 0 0 0 0 0 0 0 0 1
Nghost:    10378 ave 10399 max 10357 min
Histogram: 1 0 0 0 0 0 0 0 0 1
Neighs:    438877 ave 444062 max 433692 min
Histogram: 1 0 0 0 0 0 0 0 0 1

Total # of neighbors = 877754
Ave neighs/atom = 44.6649
Neighbor list builds = 495
Dangerous builds not checked
Setting up Verlet run ...
  Unit style    : metal
  Current step  : 380495
  Time step     : 0.001
Per MPI rank memory allocation (min/avg/max) = 11.37 | 11.37 | 11.37 Mbytes
Step Temp Press TotEng PotEng Enthalpy 
  380495    1563.5636   -82.660919   -19511.536    -23483.13   -19540.439 
  400000    1539.9347    119.23074   -19714.661   -23626.235   -19673.292 
Loop time of 1245.56 on 2 procs for 19505 steps with 19652 atoms

Performance: 1.353 ns/day, 17.738 hours/ns, 15.660 timesteps/s
96.0% CPU use with 2 MPI tasks x no OpenMP threads

MPI task timing breakdown:
Section |  min time  |  avg time  |  max time  |%varavg| %total
---------------------------------------------------------------
Pair    | 644.03     | 647.78     | 651.53     |  14.7 | 52.01
Neigh   | 491.28     | 491.93     | 492.58     |   2.9 | 39.49
Comm    | 78.706     | 83.07      | 87.434     |  47.9 |  6.67
Output  | 0.39415    | 0.39416    | 0.39418    |   0.0 |  0.03
Modify  | 18.366     | 18.401     | 18.437     |   0.8 |  1.48
Other   |            | 3.983      |            |       |  0.32

Nlocal:    9826 ave 9843 max 9809 min
Histogram: 1 0 0 0 0 0 0 0 0 1
Nghost:    10390.5 ave 10404 max 10377 min
Histogram: 1 0 0 0 0 0 0 0 0 1
Neighs:    442160 ave 445105 max 439215 min
Histogram: 1 0 0 0 0 0 0 0 0 1

Total # of neighbors = 884320
Ave neighs/atom = 44.999
Neighbor list builds = 19505
Dangerous builds not checked
Setting up Verlet run ...
  Unit style    : metal
  Current step  : 400000
  Time step     : 0.001
Per MPI rank memory allocation (min/avg/max) = 11.37 | 11.37 | 11.37 Mbytes
Step Temp Press TotEng PotEng Enthalpy 
  400000    1539.9347    119.23074   -19714.661   -23626.235   -19673.292 
  400495    1521.8208   -480.41685   -19833.976   -23699.539   -20000.398 
Loop time of 31.2776 on 2 procs for 495 steps with 19652 atoms

Performance: 1.367 ns/day, 17.552 hours/ns, 15.826 timesteps/s
94.8% CPU use with 2 MPI tasks x no OpenMP threads

MPI task timing breakdown:
Section |  min time  |  avg time  |  max time  |%varavg| %total
---------------------------------------------------------------
Pair    | 16.417     | 16.492     | 16.567     |   1.8 | 52.73
Neigh   | 10.378     | 11.827     | 13.276     |  42.1 | 37.81
Comm    | 1.0755     | 2.4971     | 3.9188     |  90.0 |  7.98
Output  | 7.1049e-05 | 0.00011194 | 0.00015283 |   0.0 |  0.00
Modify  | 0.33434    | 0.36341    | 0.39249    |   4.8 |  1.16
Other   |            | 0.09803    |            |       |  0.31

Nlocal:    9826 ave 9826 max 9826 min
Histogram: 2 0 0 0 0 0 0 0 0 0
Nghost:    10463 ave 10486 max 10440 min
Histogram: 1 0 0 0 0 0 0 0 0 1
Neighs:    442601 ave 447044 max 438158 min
Histogram: 1 0 0 0 0 0 0 0 0 1

Total # of neighbors = 885202
Ave neighs/atom = 45.0439
Neighbor list builds = 495
Dangerous builds not checked
Setting up Verlet run ...
  Unit style    : metal
  Current step  : 400495
  Time step     : 0.001
Per MPI rank memory allocation (min/avg/max) = 11.37 | 11.37 | 11.37 Mbytes
Step Temp Press TotEng PotEng Enthalpy 
  400495    1521.8208   -480.41685   -19833.976   -23699.539   -20000.398 
  420000    1490.8637    1.0380873   -19961.333   -23748.262   -19960.975 
Loop time of 1360.36 on 2 procs for 19505 steps with 19652 atoms

Performance: 1.239 ns/day, 19.373 hours/ns, 14.338 timesteps/s
93.7% CPU use with 2 MPI tasks x no OpenMP threads

MPI task timing breakdown:
Section |  min time  |  avg time  |  max time  |%varavg| %total
---------------------------------------------------------------
Pair    | 718.64     | 720.26     | 721.88     |   6.0 | 52.95
Neigh   | 524.35     | 529.51     | 534.67     |  22.4 | 38.92
Comm    | 82.17      | 89.116     | 96.062     |  73.6 |  6.55
Output  | 0.062905   | 0.062918   | 0.06293    |   0.0 |  0.00
Modify  | 16.93      | 17.081     | 17.233     |   3.7 |  1.26
Other   |            | 4.324      |            |       |  0.32

Nlocal:    9826 ave 9828 max 9824 min
Histogram: 1 0 0 0 0 0 0 0 0 1
Nghost:    10484 ave 10496 max 10472 min
Histogram: 1 0 0 0 0 0 0 0 0 1
Neighs:    444852 ave 448131 max 441573 min
Histogram: 1 0 0 0 0 0 0 0 0 1

Total # of neighbors = 889704
Ave neighs/atom = 45.2729
Neighbor list builds = 19505
Dangerous builds not checked
Setting up Verlet run ...
  Unit style    : metal
  Current step  : 420000
  Time step     : 0.001
Per MPI rank memory allocation (min/avg/max) = 11.37 | 11.37 | 11.37 Mbytes
Step Temp Press TotEng PotEng Enthalpy 
  420000    1490.8637    1.0380873   -19961.333   -23748.262   -19960.975 
  420495      1464.27   -55.541798   -20152.034   -23871.413   -20171.094 
Loop time of 33.672 on 2 procs for 495 steps with 19652 atoms

Performance: 1.270 ns/day, 18.896 hours/ns, 14.701 timesteps/s
93.5% CPU use with 2 MPI tasks x no OpenMP threads

MPI task timing breakdown:
Section |  min time  |  avg time  |  max time  |%varavg| %total
---------------------------------------------------------------
Pair    | 17.669     | 17.719     | 17.77      |   1.2 | 52.62
Neigh   | 13.294     | 13.539     | 13.784     |   6.7 | 40.21
Comm    | 1.6443     | 1.8455     | 2.0466     |  14.8 |  5.48
Output  | 8.0109e-05 | 0.00012004 | 0.00015998 |   0.0 |  0.00
Modify  | 0.4424     | 0.44614    | 0.44988    |   0.6 |  1.32
Other   |            | 0.1215     |            |       |  0.36

Nlocal:    9826 ave 9839 max 9813 min
Histogram: 1 0 0 0 0 0 0 0 0 1
Nghost:    10433.5 ave 10437 max 10430 min
Histogram: 1 0 0 0 0 0 0 0 0 1
Neighs:    446989 ave 451479 max 442499 min
Histogram: 1 0 0 0 0 0 0 0 0 1

Total # of neighbors = 893978
Ave neighs/atom = 45.4904
Neighbor list builds = 495
Dangerous builds not checked
Setting up Verlet run ...
  Unit style    : metal
  Current step  : 420495
  Time step     : 0.001
Per MPI rank memory allocation (min/avg/max) = 11.37 | 11.37 | 11.37 Mbytes
Step Temp Press TotEng PotEng Enthalpy 
  420495      1464.27   -55.541798   -20152.034   -23871.413   -20171.094 
  440000    1453.3833    111.89996   -20259.002   -23950.728   -20220.787 
Loop time of 1326.07 on 2 procs for 19505 steps with 19652 atoms

Performance: 1.271 ns/day, 18.885 hours/ns, 14.709 timesteps/s
94.3% CPU use with 2 MPI tasks x no OpenMP threads

MPI task timing breakdown:
Section |  min time  |  avg time  |  max time  |%varavg| %total
---------------------------------------------------------------
Pair    | 698.25     | 702.23     | 706.22     |  15.0 | 52.96
Neigh   | 513.44     | 515.51     | 517.57     |   9.1 | 38.87
Comm    | 85.36      | 87.133     | 88.906     |  19.0 |  6.57
Output  | 0.19109    | 0.19111    | 0.19113    |   0.0 |  0.01
Modify  | 16.682     | 16.786     | 16.89      |   2.5 |  1.27
Other   |            | 4.221      |            |       |  0.32

Nlocal:    9826 ave 9827 max 9825 min
Histogram: 1 0 0 0 0 0 0 0 0 1
Nghost:    10493.5 ave 10513 max 10474 min
Histogram: 1 0 0 0 0 0 0 0 0 1
Neighs:    449529 ave 453114 max 445944 min
Histogram: 1 0 0 0 0 0 0 0 0 1

Total # of neighbors = 899058
Ave neighs/atom = 45.7489
Neighbor list builds = 19505
Dangerous builds not checked
Setting up Verlet run ...
  Unit style    : metal
  Current step  : 440000
  Time step     : 0.001
Per MPI rank memory allocation (min/avg/max) = 11.37 | 11.37 | 11.37 Mbytes
Step Temp Press TotEng PotEng Enthalpy 
  440000    1453.3833    111.89996   -20259.002   -23950.728   -20220.787 
  440495    1416.8765    93.512581   -20455.775    -24054.77    -20423.94 
Loop time of 29.2143 on 2 procs for 495 steps with 19652 atoms

Performance: 1.464 ns/day, 16.394 hours/ns, 16.944 timesteps/s
100.0% CPU use with 2 MPI tasks x no OpenMP threads

MPI task timing breakdown:
Section |  min time  |  avg time  |  max time  |%varavg| %total
---------------------------------------------------------------
Pair    | 15.261     | 15.276     | 15.291     |   0.4 | 52.29
Neigh   | 10.105     | 11.537     | 12.968     |  42.2 | 39.49
Comm    | 0.47812    | 1.9649     | 3.4516     | 106.1 |  6.73
Output  | 6.1989e-05 | 9.2506e-05 | 0.00012302 |   0.0 |  0.00
Modify  | 0.31633    | 0.34283    | 0.36933    |   4.5 |  1.17
Other   |            | 0.09398    |            |       |  0.32

Nlocal:    9826 ave 9834 max 9818 min
Histogram: 1 0 0 0 0 0 0 0 0 1
Nghost:    10504 ave 10541 max 10467 min
Histogram: 1 0 0 0 0 0 0 0 0 1
Neighs:    450840 ave 454876 max 446805 min
Histogram: 1 0 0 0 0 0 0 0 0 1

Total # of neighbors = 901681
Ave neighs/atom = 45.8824
Neighbor list builds = 495
Dangerous builds not checked
Setting up Verlet run ...
  Unit style    : metal
  Current step  : 440495
  Time step     : 0.001
Per MPI rank memory allocation (min/avg/max) = 11.37 | 11.37 | 11.37 Mbytes
Step Temp Press TotEng PotEng Enthalpy 
  440495    1416.8765    93.512581   -20455.775    -24054.77    -20423.94 
  460000    1401.9027    -487.4751   -20517.517   -24078.478   -20683.744 
Loop time of 1260.44 on 2 procs for 19505 steps with 19652 atoms

Performance: 1.337 ns/day, 17.950 hours/ns, 15.475 timesteps/s
95.1% CPU use with 2 MPI tasks x no OpenMP threads

MPI task timing breakdown:
Section |  min time  |  avg time  |  max time  |%varavg| %total
---------------------------------------------------------------
Pair    | 652.47     | 656.36     | 660.26     |  15.2 | 52.07
Neigh   | 492.74     | 500.7      | 508.67     |  35.6 | 39.72
Comm    | 70.949     | 83.208     | 95.468     | 134.4 |  6.60
Output  | 0.054738   | 0.054754   | 0.05477    |   0.0 |  0.00
Modify  | 15.777     | 16.077     | 16.377     |   7.5 |  1.28
Other   |            | 4.028      |            |       |  0.32

Nlocal:    9826 ave 9840 max 9812 min
Histogram: 1 0 0 0 0 0 0 0 0 1
Nghost:    10547.5 ave 10554 max 10541 min
Histogram: 1 0 0 0 0 0 0 0 0 1
Neighs:    450146 ave 453025 max 447267 min
Histogram: 1 0 0 0 0 0 0 0 0 1

Total # of neighbors = 900292
Ave neighs/atom = 45.8117
Neighbor list builds = 19505
Dangerous builds not checked
Setting up Verlet run ...
  Unit style    : metal
  Current step  : 460000
  Time step     : 0.001
Per MPI rank memory allocation (min/avg/max) = 11.37 | 11.37 | 11.37 Mbytes
Step Temp Press TotEng PotEng Enthalpy 
  460000    1401.9027    -487.4751   -20517.517   -24078.478   -20683.744 
  460495    1364.7255    263.29521   -20786.152   -24252.679   -20697.374 
Loop time of 27.5834 on 2 procs for 495 steps with 19652 atoms

Performance: 1.550 ns/day, 15.479 hours/ns, 17.946 timesteps/s
99.9% CPU use with 2 MPI tasks x no OpenMP threads

MPI task timing breakdown:
Section |  min time  |  avg time  |  max time  |%varavg| %total
---------------------------------------------------------------
Pair    | 14.121     | 14.312     | 14.504     |   5.1 | 51.89
Neigh   | 11.564     | 11.592     | 11.619     |   0.8 | 42.02
Comm    | 1.0669     | 1.2322     | 1.3975     |  14.9 |  4.47
Output  | 7.8917e-05 | 0.00011051 | 0.0001421  |   0.0 |  0.00
Modify  | 0.34857    | 0.35072    | 0.35287    |   0.4 |  1.27
Other   |            | 0.09633    |            |       |  0.35

Nlocal:    9826 ave 9829 max 9823 min
Histogram: 1 0 0 0 0 0 0 0 0 1
Nghost:    10517.5 ave 10524 max 10511 min
Histogram: 1 0 0 0 0 0 0 0 0 1
Neighs:    455122 ave 459338 max 450905 min
Histogram: 1 0 0 0 0 0 0 0 0 1

Total # of neighbors = 910243
Ave neighs/atom = 46.3181
Neighbor list builds = 495
Dangerous builds not checked
Setting up Verlet run ...
  Unit style    : metal
  Current step  : 460495
  Time step     : 0.001
Per MPI rank memory allocation (min/avg/max) = 11.37 | 11.37 | 11.37 Mbytes
Step Temp Press TotEng PotEng Enthalpy 
  460495    1364.7255    263.29521   -20786.152   -24252.679   -20697.374 
  480000    1349.5518    229.18614   -20855.017   -24283.002   -20777.885 
Loop time of 1139.7 on 2 procs for 19505 steps with 19652 atoms

Performance: 1.479 ns/day, 16.231 hours/ns, 17.114 timesteps/s
99.2% CPU use with 2 MPI tasks x no OpenMP threads

MPI task timing breakdown:
Section |  min time  |  avg time  |  max time  |%varavg| %total
---------------------------------------------------------------
Pair    | 591.35     | 594.14     | 596.92     |  11.4 | 52.13
Neigh   | 469.54     | 476.54     | 483.54     |  32.1 | 41.81
Comm    | 40.371     | 50.367     | 60.363     | 140.9 |  4.42
Output  | 0.46991    | 0.46992    | 0.46993    |   0.0 |  0.04
Modify  | 14.343     | 14.461     | 14.579     |   3.1 |  1.27
Other   |            | 3.724      |            |       |  0.33

Nlocal:    9826 ave 9836 max 9816 min
Histogram: 1 0 0 0 0 0 0 0 0 1
Nghost:    10504 ave 10548 max 10460 min
Histogram: 1 0 0 0 0 0 0 0 0 1
Neighs:    456157 ave 461584 max 450730 min
Histogram: 1 0 0 0 0 0 0 0 0 1

Total # of neighbors = 912314
Ave neighs/atom = 46.4235
Neighbor list builds = 19505
Dangerous builds not checked
Setting up Verlet run ...
  Unit style    : metal
  Current step  : 480000
  Time step     : 0.001
Per MPI rank memory allocation (min/avg/max) = 11.37 | 11.37 | 11.37 Mbytes
Step Temp Press TotEng PotEng Enthalpy 
  480000    1349.5518    229.18614   -20855.017   -24283.002   -20777.885 
  480495    1313.7685   -17.659441   -21050.424   -24387.515   -21056.348 
Loop time of 35.5345 on 2 procs for 495 steps with 19652 atoms

Performance: 1.204 ns/day, 19.941 hours/ns, 13.930 timesteps/s
92.0% CPU use with 2 MPI tasks x no OpenMP threads

MPI task timing breakdown:
Section |  min time  |  avg time  |  max time  |%varavg| %total
---------------------------------------------------------------
Pair    | 18.761     | 18.941     | 19.121     |   4.1 | 53.30
Neigh   | 10.49      | 13.012     | 15.535     |  69.9 | 36.62
Comm    | 0.66994    | 3.0679     | 5.4659     | 136.9 |  8.63
Output  | 8.297e-05  | 0.00012195 | 0.00016093 |   0.0 |  0.00
Modify  | 0.37854    | 0.41731    | 0.45607    |   6.0 |  1.17
Other   |            | 0.09618    |            |       |  0.27

Nlocal:    9826 ave 9839 max 9813 min
Histogram: 1 0 0 0 0 0 0 0 0 1
Nghost:    10587 ave 10600 max 10574 min
Histogram: 1 0 0 0 0 0 0 0 0 1
Neighs:    457832 ave 463420 max 452243 min
Histogram: 1 0 0 0 0 0 0 0 0 1

Total # of neighbors = 915663
Ave neighs/atom = 46.5939
Neighbor list builds = 495
Dangerous builds not checked
Setting up Verlet run ...
  Unit style    : metal
  Current step  : 480495
  Time step     : 0.001
Per MPI rank memory allocation (min/avg/max) = 11.37 | 11.37 | 11.37 Mbytes
Step Temp Press TotEng PotEng Enthalpy 
  480495    1313.7685   -17.659441   -21050.424   -24387.515   -21056.348 
  500000    1301.0817   -272.35464   -21156.619   -24461.485   -21247.915 
Loop time of 1305 on 2 procs for 19505 steps with 19652 atoms

Performance: 1.291 ns/day, 18.585 hours/ns, 14.946 timesteps/s
94.5% CPU use with 2 MPI tasks x no OpenMP threads

MPI task timing breakdown:
Section |  min time  |  avg time  |  max time  |%varavg| %total
---------------------------------------------------------------
Pair    | 687.6      | 691.15     | 694.7      |  13.5 | 52.96
Neigh   | 488.58     | 504.78     | 520.98     |  72.1 | 38.68
Comm    | 67.747     | 88.005     | 108.26     | 215.9 |  6.74
Output  | 0.03847    | 0.038482   | 0.038495   |   0.0 |  0.00
Modify  | 16.566     | 16.901     | 17.235     |   8.1 |  1.30
Other   |            | 4.123      |            |       |  0.32

Nlocal:    9826 ave 9826 max 9826 min
Histogram: 2 0 0 0 0 0 0 0 0 0
Nghost:    10495 ave 10496 max 10494 min
Histogram: 1 0 0 0 0 0 0 0 0 1
Neighs:    458563 ave 462120 max 455006 min
Histogram: 1 0 0 0 0 0 0 0 0 1

Total # of neighbors = 917126
Ave neighs/atom = 46.6683
Neighbor list builds = 19505
Dangerous builds not checked
Setting up Verlet run ...
  Unit style    : metal
  Current step  : 500000
  Time step     : 0.001
Per MPI rank memory allocation (min/avg/max) = 11.37 | 11.37 | 11.37 Mbytes
Step Temp Press TotEng PotEng Enthalpy 
  500000    1301.0817   -272.35464   -21156.619   -24461.485   -21247.915 
  500495    1265.5511    124.57161   -21347.834   -24562.449   -21306.372 
Loop time of 20.6594 on 2 procs for 495 steps with 19652 atoms

Performance: 2.070 ns/day, 11.593 hours/ns, 23.960 timesteps/s
99.5% CPU use with 2 MPI tasks x no OpenMP threads

MPI task timing breakdown:
Section |  min time  |  avg time  |  max time  |%varavg| %total
---------------------------------------------------------------
Pair    | 10.131     | 10.193     | 10.255     |   1.9 | 49.34
Neigh   | 9.4793     | 9.5454     | 9.6115     |   2.1 | 46.20
Comm    | 0.43544    | 0.56502    | 0.69461    |  17.2 |  2.73
Output  | 5.1022e-05 | 7.1526e-05 | 9.203e-05  |   0.0 |  0.00
Modify  | 0.28202    | 0.28322    | 0.28442    |   0.2 |  1.37
Other   |            | 0.07275    |            |       |  0.35

Nlocal:    9826 ave 9842 max 9810 min
Histogram: 1 0 0 0 0 0 0 0 0 1
Nghost:    10548 ave 10553 max 10543 min
Histogram: 1 0 0 0 0 0 0 0 0 1
Neighs:    461580 ave 466811 max 456350 min
Histogram: 1 0 0 0 0 0 0 0 0 1

Total # of neighbors = 923161
Ave neighs/atom = 46.9754
Neighbor list builds = 495
Dangerous builds not checked
Setting up Verlet run ...
  Unit style    : metal
  Current step  : 500495
  Time step     : 0.001
Per MPI rank memory allocation (min/avg/max) = 11.37 | 11.37 | 11.37 Mbytes
Step Temp Press TotEng PotEng Enthalpy 
  500495    1265.5511    124.57161   -21347.834   -24562.449   -21306.372 
  520000    1255.7665    398.19063   -21456.207   -24645.968   -21324.167 
Loop time of 1306.2 on 2 procs for 19505 steps with 19652 atoms

Performance: 1.290 ns/day, 18.602 hours/ns, 14.933 timesteps/s
94.6% CPU use with 2 MPI tasks x no OpenMP threads

MPI task timing breakdown:
Section |  min time  |  avg time  |  max time  |%varavg| %total
---------------------------------------------------------------
Pair    | 688.71     | 691.72     | 694.72     |  11.4 | 52.96
Neigh   | 512.71     | 517.32     | 521.93     |  20.3 | 39.61
Comm    | 74.415     | 76.254     | 78.094     |  21.1 |  5.84
Output  | 0.05711    | 0.057131   | 0.057151   |   0.0 |  0.00
Modify  | 16.428     | 16.548     | 16.667     |   2.9 |  1.27
Other   |            | 4.305      |            |       |  0.33

Nlocal:    9826 ave 9845 max 9807 min
Histogram: 1 0 0 0 0 0 0 0 0 1
Nghost:    10574.5 ave 10629 max 10520 min
Histogram: 1 0 0 0 0 0 0 0 0 1
Neighs:    463603 ave 468702 max 458504 min
Histogram: 1 0 0 0 0 0 0 0 0 1

Total # of neighbors = 927206
Ave neighs/atom = 47.1813
Neighbor list builds = 19505
Dangerous builds not checked
Setting up Verlet run ...
  Unit style    : metal
  Current step  : 520000
  Time step     : 0.001
Per MPI rank memory allocation (min/avg/max) = 11.37 | 11.37 | 11.37 Mbytes
Step Temp Press TotEng PotEng Enthalpy 
  520000    1255.7665    398.19063   -21456.207   -24645.968   -21324.167 
  520495    1210.7069    384.87874   -21665.046   -24740.351   -21537.904 
Loop time of 32.3162 on 2 procs for 495 steps with 19652 atoms

Performance: 1.323 ns/day, 18.135 hours/ns, 15.317 timesteps/s
96.9% CPU use with 2 MPI tasks x no OpenMP threads

MPI task timing breakdown:
Section |  min time  |  avg time  |  max time  |%varavg| %total
---------------------------------------------------------------
Pair    | 16.972     | 17.204     | 17.436     |   5.6 | 53.24
Neigh   | 10.105     | 12.207     | 14.309     |  60.2 | 37.77
Comm    | 0.48496    | 2.4214     | 4.3579     | 124.4 |  7.49
Output  | 7.5102e-05 | 0.0001055  | 0.0001359  |   0.0 |  0.00
Modify  | 0.34043    | 0.38835    | 0.43627    |   7.7 |  1.20
Other   |            | 0.0951     |            |       |  0.29

Nlocal:    9826 ave 9830 max 9822 min
Histogram: 1 0 0 0 0 0 0 0 0 1
Nghost:    10607.5 ave 10634 max 10581 min
Histogram: 1 0 0 0 0 0 0 0 0 1
Neighs:    465357 ave 470117 max 460597 min
Histogram: 1 0 0 0 0 0 0 0 0 1

Total # of neighbors = 930714
Ave neighs/atom = 47.3598
Neighbor list builds = 495
Dangerous builds not checked
Setting up Verlet run ...
  Unit style    : metal
  Current step  : 520495
  Time step     : 0.001
Per MPI rank memory allocation (min/avg/max) = 11.37 | 11.37 | 11.37 Mbytes
Step Temp Press TotEng PotEng Enthalpy 
  520495    1210.7069    384.87874   -21665.046   -24740.351   -21537.904 
  540000    1202.8758    198.74713   -21768.641   -24824.055   -21703.162 
Loop time of 1301.12 on 2 procs for 19505 steps with 19652 atoms

Performance: 1.295 ns/day, 18.530 hours/ns, 14.991 timesteps/s
95.8% CPU use with 2 MPI tasks x no OpenMP threads

MPI task timing breakdown:
Section |  min time  |  avg time  |  max time  |%varavg| %total
---------------------------------------------------------------
Pair    | 690.61     | 692.23     | 693.85     |   6.2 | 53.20
Neigh   | 511.83     | 514.43     | 517.03     |  11.5 | 39.54
Comm    | 69.57      | 73.829     | 78.088     |  49.6 |  5.67
Output  | 0.085948   | 0.08595    | 0.085952   |   0.0 |  0.01
Modify  | 16.304     | 16.318     | 16.332     |   0.3 |  1.25
Other   |            | 4.223      |            |       |  0.32

Nlocal:    9826 ave 9861 max 9791 min
Histogram: 1 0 0 0 0 0 0 0 0 1
Nghost:    10674 ave 10689 max 10659 min
Histogram: 1 0 0 0 0 0 0 0 0 1
Neighs:    466600 ave 474308 max 458892 min
Histogram: 1 0 0 0 0 0 0 0 0 1

Total # of neighbors = 933200
Ave neighs/atom = 47.4863
Neighbor list builds = 19505
Dangerous builds not checked
Setting up Verlet run ...
  Unit style    : metal
  Current step  : 540000
  Time step     : 0.001
Per MPI rank memory allocation (min/avg/max) = 11.37 | 11.37 | 11.37 Mbytes
Step Temp Press TotEng PotEng Enthalpy 
  540000    1202.8758    198.74713   -21768.641   -24824.055   -21703.162 
  540495    1171.1953    57.272907   -21958.697    -24933.64   -21939.893 
Loop time of 33.4777 on 2 procs for 495 steps with 19652 atoms

Performance: 1.278 ns/day, 18.787 hours/ns, 14.786 timesteps/s
93.9% CPU use with 2 MPI tasks x no OpenMP threads

MPI task timing breakdown:
Section |  min time  |  avg time  |  max time  |%varavg| %total
---------------------------------------------------------------
Pair    | 17.229     | 17.532     | 17.834     |   7.2 | 52.37
Neigh   | 10.867     | 12.375     | 13.883     |  42.9 | 36.96
Comm    | 1.6683     | 2.9237     | 4.1791     |  73.4 |  8.73
Output  | 8.297e-05  | 0.00014555 | 0.00020814 |   0.0 |  0.00
Modify  | 0.5141     | 0.54888    | 0.58367    |   4.7 |  1.64
Other   |            | 0.09875    |            |       |  0.29

Nlocal:    9826 ave 9841 max 9811 min
Histogram: 1 0 0 0 0 0 0 0 0 1
Nghost:    10632.5 ave 10648 max 10617 min
Histogram: 1 0 0 0 0 0 0 0 0 1
Neighs:    468522 ave 470704 max 466340 min
Histogram: 1 0 0 0 0 0 0 0 0 1

Total # of neighbors = 937044
Ave neighs/atom = 47.6819
Neighbor list builds = 495
Dangerous builds not checked
Setting up Verlet run ...
  Unit style    : metal
  Current step  : 540495
  Time step     : 0.001
Per MPI rank memory allocation (min/avg/max) = 11.37 | 11.37 | 11.37 Mbytes
Step Temp Press TotEng PotEng Enthalpy 
  540495    1171.1953    57.272907   -21958.697    -24933.64   -21939.893 
  560000    1156.8105    6.2465515   -22107.252   -25045.656    -22105.21 
Loop time of 1246.61 on 2 procs for 19505 steps with 19652 atoms

Performance: 1.352 ns/day, 17.753 hours/ns, 15.646 timesteps/s
96.2% CPU use with 2 MPI tasks x no OpenMP threads

MPI task timing breakdown:
Section |  min time  |  avg time  |  max time  |%varavg| %total
---------------------------------------------------------------
Pair    | 635.78     | 635.84     | 635.9      |   0.3 | 51.01
Neigh   | 512.22     | 523.16     | 534.09     |  47.8 | 41.97
Comm    | 49.172     | 60.516     | 71.86      | 145.8 |  4.85
Output  | 8.1605     | 8.1605     | 8.1605     |   0.0 |  0.65
Modify  | 14.767     | 14.976     | 15.185     |   5.4 |  1.20
Other   |            | 3.96       |            |       |  0.32

Nlocal:    9826 ave 9839 max 9813 min
Histogram: 1 0 0 0 0 0 0 0 0 1
Nghost:    10698 ave 10698 max 10698 min
Histogram: 2 0 0 0 0 0 0 0 0 0
Neighs:    470653 ave 472728 max 468578 min
Histogram: 1 0 0 0 0 0 0 0 0 1

Total # of neighbors = 941306
Ave neighs/atom = 47.8987
Neighbor list builds = 19505
Dangerous builds not checked
Setting up Verlet run ...
  Unit style    : metal
  Current step  : 560000
  Time step     : 0.001
Per MPI rank memory allocation (min/avg/max) = 11.37 | 11.37 | 11.37 Mbytes
Step Temp Press TotEng PotEng Enthalpy 
  560000    1156.8105    6.2465515   -22107.252   -25045.656    -22105.21 
  560495    1117.6981    415.52933   -22310.092   -25149.147   -22174.934 
[...]
Histogram: 1 0 0 0 0 0 0 0 0 1
Neighs:    527436 ave 528439 max 526432 min
Histogram: 1 0 0 0 0 0 0 0 0 1

Total # of neighbors = 1054871
Ave neighs/atom = 53.6775
Neighbor list builds = 19505
Dangerous builds not checked
Setting up Verlet run ...
  Unit style    : metal
  Current step  : 840000
  Time step     : 0.001
Per MPI rank memory allocation (min/avg/max) = 11.37 | 11.37 | 11.37 Mbytes
Step Temp Press TotEng PotEng Enthalpy 
  840000    452.17908    -421.3464   -26672.551   -27821.127   -26797.714 
  840495    421.83477    432.59659   -26841.769   -27913.268   -26713.965 
Loop time of 32.5301 on 2 procs for 495 steps with 19652 atoms

Performance: 1.315 ns/day, 18.255 hours/ns, 15.217 timesteps/s
99.5% CPU use with 2 MPI tasks x no OpenMP threads

MPI task timing breakdown:
Section |  min time  |  avg time  |  max time  |%varavg| %total
---------------------------------------------------------------
Pair    | 17.246     | 17.379     | 17.511     |   3.2 | 53.42
Neigh   | 11.603     | 12.881     | 14.158     |  35.6 | 39.60
Comm    | 0.59023    | 1.775      | 2.9597     |  88.9 |  5.46
Output  | 0.000103   | 0.00012302 | 0.00014305 |   0.0 |  0.00
Modify  | 0.35409    | 0.3877     | 0.42132    |   5.4 |  1.19
Other   |            | 0.1081     |            |       |  0.33

Nlocal:    9826 ave 9864 max 9788 min
Histogram: 1 0 0 0 0 0 0 0 0 1
Nghost:    11099 ave 11130 max 11068 min
Histogram: 1 0 0 0 0 0 0 0 0 1
Neighs:    530920 ave 533531 max 528310 min
Histogram: 1 0 0 0 0 0 0 0 0 1

Total # of neighbors = 1061841
Ave neighs/atom = 54.0322
Neighbor list builds = 495
Dangerous builds not checked
Setting up Verlet run ...
  Unit style    : metal
  Current step  : 840495
  Time step     : 0.001
Per MPI rank memory allocation (min/avg/max) = 11.37 | 11.37 | 11.37 Mbytes
Step Temp Press TotEng PotEng Enthalpy 
  840495    421.83477    432.59659   -26841.769   -27913.268   -26713.965 
  860000    400.88015   -421.37835   -26999.468    -28017.74   -27123.884 
Loop time of 2182.01 on 2 procs for 19505 steps with 19652 atoms

Performance: 0.772 ns/day, 31.075 hours/ns, 8.939 timesteps/s
73.4% CPU use with 2 MPI tasks x no OpenMP threads

MPI task timing breakdown:
Section |  min time  |  avg time  |  max time  |%varavg| %total
---------------------------------------------------------------
Pair    | 1181.4     | 1183.6     | 1185.9     |   6.6 | 54.25
Neigh   | 741.23     | 761.33     | 781.43     |  72.8 | 34.89
Comm    | 179.88     | 198.22     | 216.57     | 130.3 |  9.08
Output  | 0.09636    | 0.096383   | 0.096406   |   0.0 |  0.00
Modify  | 32.288     | 32.599     | 32.911     |   5.5 |  1.49
Other   |            | 6.112      |            |       |  0.28

Nlocal:    9826 ave 9828 max 9824 min
Histogram: 1 0 0 0 0 0 0 0 0 1
Nghost:    11086 ave 11090 max 11082 min
Histogram: 1 0 0 0 0 0 0 0 0 1
Neighs:    531850 ave 531993 max 531707 min
Histogram: 1 0 0 0 0 0 0 0 0 1

Total # of neighbors = 1063700
Ave neighs/atom = 54.1268
Neighbor list builds = 19505
Dangerous builds not checked
Setting up Verlet run ...
  Unit style    : metal
  Current step  : 860000
  Time step     : 0.001
Per MPI rank memory allocation (min/avg/max) = 11.37 | 11.37 | 11.37 Mbytes
Step Temp Press TotEng PotEng Enthalpy 
  860000    400.88015   -421.37835   -26999.468    -28017.74   -27123.884 
  860495    371.39874    391.02944   -27160.103   -28103.489   -27045.272 
Loop time of 55.9971 on 2 procs for 495 steps with 19652 atoms

Performance: 0.764 ns/day, 31.424 hours/ns, 8.840 timesteps/s
73.3% CPU use with 2 MPI tasks x no OpenMP threads

MPI task timing breakdown:
Section |  min time  |  avg time  |  max time  |%varavg| %total
---------------------------------------------------------------
Pair    | 29.626     | 29.799     | 29.973     |   3.2 | 53.22
Neigh   | 18.623     | 19.051     | 19.479     |   9.8 | 34.02
Comm    | 5.7097     | 5.9631     | 6.2164     |  10.4 | 10.65
Output  | 9.0122e-05 | 0.00011396 | 0.00013781 |   0.0 |  0.00
Modify  | 1.037      | 1.0413     | 1.0456     |   0.4 |  1.86
Other   |            | 0.1421     |            |       |  0.25

Nlocal:    9826 ave 9828 max 9824 min
Histogram: 1 0 0 0 0 0 0 0 0 1
Nghost:    11128.5 ave 11142 max 11115 min
Histogram: 1 0 0 0 0 0 0 0 0 1
Neighs:    535213 ave 535329 max 535097 min
Histogram: 1 0 0 0 0 0 0 0 0 1

Total # of neighbors = 1070426
Ave neighs/atom = 54.4691
Neighbor list builds = 495
Dangerous builds not checked
Setting up Verlet run ...
  Unit style    : metal
  Current step  : 860495
  Time step     : 0.001
Per MPI rank memory allocation (min/avg/max) = 11.37 | 11.37 | 11.37 Mbytes
Step Temp Press TotEng PotEng Enthalpy 
  860495    371.39874    391.02944   -27160.103   -28103.489   -27045.272 
  880000    350.01771   -23.058249   -27318.986   -28208.063   -27325.742 
Loop time of 1416.07 on 2 procs for 19505 steps with 19652 atoms

Performance: 1.190 ns/day, 20.167 hours/ns, 13.774 timesteps/s
94.4% CPU use with 2 MPI tasks x no OpenMP threads

MPI task timing breakdown:
Section |  min time  |  avg time  |  max time  |%varavg| %total
---------------------------------------------------------------
Pair    | 758.73     | 759.92     | 761.1      |   4.3 | 53.66
Neigh   | 570.48     | 570.62     | 570.75     |   0.6 | 40.30
Comm    | 61.39      | 62.446     | 63.502     |  13.4 |  4.41
Output  | 0.058399   | 0.058408   | 0.058418   |   0.0 |  0.00
Modify  | 18.13      | 18.165     | 18.2       |   0.8 |  1.28
Other   |            | 4.867      |            |       |  0.34

Nlocal:    9826 ave 9845 max 9807 min
Histogram: 1 0 0 0 0 0 0 0 0 1
Nghost:    11133.5 ave 11173 max 11094 min
Histogram: 1 0 0 0 0 0 0 0 0 1
Neighs:    536976 ave 537804 max 536148 min
Histogram: 1 0 0 0 0 0 0 0 0 1

Total # of neighbors = 1073952
Ave neighs/atom = 54.6485
Neighbor list builds = 19505
Dangerous builds not checked
Setting up Verlet run ...
  Unit style    : metal
  Current step  : 880000
  Time step     : 0.001
Per MPI rank memory allocation (min/avg/max) = 11.37 | 11.37 | 11.37 Mbytes
Step Temp Press TotEng PotEng Enthalpy 
  880000    350.01771   -23.058249   -27318.986   -28208.063   -27325.742 
  880495    322.06993   -107.13092   -27461.666   -28279.753   -27492.986 
Loop time of 31.9998 on 2 procs for 495 steps with 19652 atoms

Performance: 1.337 ns/day, 17.957 hours/ns, 15.469 timesteps/s
99.9% CPU use with 2 MPI tasks x no OpenMP threads

MPI task timing breakdown:
Section |  min time  |  avg time  |  max time  |%varavg| %total
---------------------------------------------------------------
Pair    | 17.027     | 17.051     | 17.075     |   0.6 | 53.28
Neigh   | 13.322     | 13.482     | 13.641     |   4.3 | 42.13
Comm    | 0.81395    | 0.95344    | 1.0929     |  14.3 |  2.98
Output  | 7.6771e-05 | 0.00012183 | 0.00016689 |   0.0 |  0.00
Modify  | 0.38665    | 0.39071    | 0.39477    |   0.6 |  1.22
Other   |            | 0.1231     |            |       |  0.38

Nlocal:    9826 ave 9845 max 9807 min
Histogram: 1 0 0 0 0 0 0 0 0 1
Nghost:    11164 ave 11165 max 11163 min
Histogram: 1 0 0 0 0 0 0 0 0 1
Neighs:    538370 ave 539828 max 536911 min
Histogram: 1 0 0 0 0 0 0 0 0 1

Total # of neighbors = 1076739
Ave neighs/atom = 54.7903
Neighbor list builds = 495
Dangerous builds not checked
Setting up Verlet run ...
  Unit style    : metal
  Current step  : 880495
  Time step     : 0.001
Per MPI rank memory allocation (min/avg/max) = 11.37 | 11.37 | 11.37 Mbytes
Step Temp Press TotEng PotEng Enthalpy 
  880495    322.06993   -107.13092   -27461.666   -28279.753   -27492.986 
  900000    299.41657    119.78847    -27606.15   -28366.695   -27571.244 
Loop time of 1919.34 on 2 procs for 19505 steps with 19652 atoms

Performance: 0.878 ns/day, 27.334 hours/ns, 10.162 timesteps/s
78.6% CPU use with 2 MPI tasks x no OpenMP threads

MPI task timing breakdown:
Section |  min time  |  avg time  |  max time  |%varavg| %total
---------------------------------------------------------------
Pair    | 1043.6     | 1043.7     | 1043.7     |   0.1 | 54.38
Neigh   | 676.98     | 680.63     | 684.29     |  14.0 | 35.46
Comm    | 159.42     | 162.77     | 166.12     |  26.3 |  8.48
Output  | 0.1069     | 0.10692    | 0.10695    |   0.0 |  0.01
Modify  | 26.351     | 26.6       | 26.85      |   4.8 |  1.39
Other   |            | 5.541      |            |       |  0.29

Nlocal:    9826 ave 9845 max 9807 min
Histogram: 1 0 0 0 0 0 0 0 0 1
Nghost:    11174 ave 11197 max 11151 min
Histogram: 1 0 0 0 0 0 0 0 0 1
Neighs:    540822 ave 542106 max 539539 min
Histogram: 1 0 0 0 0 0 0 0 0 1

Total # of neighbors = 1081645
Ave neighs/atom = 55.0399
Neighbor list builds = 19505
Dangerous builds not checked
Setting up Verlet run ...
  Unit style    : metal
  Current step  : 900000
  Time step     : 0.001
Per MPI rank memory allocation (min/avg/max) = 11.37 | 11.37 | 11.37 Mbytes
Step Temp Press TotEng PotEng Enthalpy 
  900000    299.41657    119.78847    -27606.15   -28366.695   -27571.244 
  900495    273.94035   -127.47064   -27747.794   -28443.628   -27784.878 
Loop time of 49.0066 on 2 procs for 495 steps with 19652 atoms

Performance: 0.873 ns/day, 27.501 hours/ns, 10.101 timesteps/s
79.5% CPU use with 2 MPI tasks x no OpenMP threads

MPI task timing breakdown:
Section |  min time  |  avg time  |  max time  |%varavg| %total
---------------------------------------------------------------
Pair    | 26.229     | 26.902     | 27.576     |  13.0 | 54.90
Neigh   | 14.199     | 17.077     | 19.954     |  69.6 | 34.85
Comm    | 2.0851     | 4.3467     | 6.6083     | 108.5 |  8.87
Output  | 8.6069e-05 | 0.00011349 | 0.00014091 |   0.0 |  0.00
Modify  | 0.51412    | 0.55901    | 0.60391    |   6.0 |  1.14
Other   |            | 0.1216     |            |       |  0.25

Nlocal:    9826 ave 9850 max 9802 min
Histogram: 1 0 0 0 0 0 0 0 0 1
Nghost:    11200.5 ave 11252 max 11149 min
Histogram: 1 0 0 0 0 0 0 0 0 1
Neighs:    541989 ave 542669 max 541309 min
Histogram: 1 0 0 0 0 0 0 0 0 1

Total # of neighbors = 1083978
Ave neighs/atom = 55.1587
Neighbor list builds = 495
Dangerous builds not checked
Setting up Verlet run ...
  Unit style    : metal
  Current step  : 900495
  Time step     : 0.001
Per MPI rank memory allocation (min/avg/max) = 11.37 | 11.37 | 11.37 Mbytes
Step Temp Press TotEng PotEng Enthalpy 
  900495    273.94035   -127.47064   -27747.794   -28443.628   -27784.878 
  920000    251.02022    193.92693   -27882.665   -28520.279   -27826.438 
Loop time of 1719.4 on 2 procs for 19505 steps with 19652 atoms

Performance: 0.980 ns/day, 24.487 hours/ns, 11.344 timesteps/s
85.5% CPU use with 2 MPI tasks x no OpenMP threads

MPI task timing breakdown:
Section |  min time  |  avg time  |  max time  |%varavg| %total
---------------------------------------------------------------
Pair    | 929.59     | 931.75     | 933.91     |   7.1 | 54.19
Neigh   | 618.69     | 629.31     | 639.94     |  42.4 | 36.60
Comm    | 120.75     | 129.49     | 138.22     |  76.7 |  7.53
Output  | 0.092919   | 0.092952   | 0.092985   |   0.0 |  0.01
Modify  | 23.382     | 23.618     | 23.855     |   4.9 |  1.37
Other   |            | 5.143      |            |       |  0.30

Nlocal:    9826 ave 9834 max 9818 min
Histogram: 1 0 0 0 0 0 0 0 0 1
Nghost:    11185 ave 11189 max 11181 min
Histogram: 1 0 0 0 0 0 0 0 0 1
Neighs:    544218 ave 544756 max 543680 min
Histogram: 1 0 0 0 0 0 0 0 0 1

Total # of neighbors = 1088436
Ave neighs/atom = 55.3855
Neighbor list builds = 19505
Dangerous builds not checked
Setting up Verlet run ...
  Unit style    : metal
  Current step  : 920000
  Time step     : 0.001
Per MPI rank memory allocation (min/avg/max) = 11.37 | 11.37 | 11.37 Mbytes
Step Temp Press TotEng PotEng Enthalpy 
  920000    251.02022    193.92693   -27882.665   -28520.279   -27826.438 
  920495    223.40535    376.81353   -28020.212   -28587.682   -27911.257 
Loop time of 37.3311 on 2 procs for 495 steps with 19652 atoms

Performance: 1.146 ns/day, 20.949 hours/ns, 13.260 timesteps/s
88.3% CPU use with 2 MPI tasks x no OpenMP threads

MPI task timing breakdown:
Section |  min time  |  avg time  |  max time  |%varavg| %total
---------------------------------------------------------------
Pair    | 20.309     | 20.311     | 20.312     |   0.0 | 54.41
Neigh   | 13.203     | 13.523     | 13.844     |   8.7 | 36.23
Comm    | 2.6737     | 3.0007     | 3.3277     |  18.9 |  8.04
Output  | 8.2016e-05 | 9.5487e-05 | 0.00010896 |   0.0 |  0.00
Modify  | 0.39482    | 0.40215    | 0.40948    |   1.2 |  1.08
Other   |            | 0.09408    |            |       |  0.25

Nlocal:    9826 ave 9834 max 9818 min
Histogram: 1 0 0 0 0 0 0 0 0 1
Nghost:    11212 ave 11218 max 11206 min
Histogram: 1 0 0 0 0 0 0 0 0 1
Neighs:    546155 ave 546853 max 545457 min
Histogram: 1 0 0 0 0 0 0 0 0 1

Total # of neighbors = 1092310
Ave neighs/atom = 55.5826
Neighbor list builds = 495
Dangerous builds not checked
Setting up Verlet run ...
  Unit style    : metal
  Current step  : 920495
  Time step     : 0.001
Per MPI rank memory allocation (min/avg/max) = 11.37 | 11.37 | 11.37 Mbytes
Step Temp Press TotEng PotEng Enthalpy 
  920495    223.40535    376.81353   -28020.212   -28587.682   -27911.257 
  940000    198.93946   -189.44544   -28160.163   -28665.487   -28214.904 
Loop time of 1924.44 on 2 procs for 19505 steps with 19652 atoms

Performance: 0.876 ns/day, 27.407 hours/ns, 10.135 timesteps/s
79.9% CPU use with 2 MPI tasks x no OpenMP threads

MPI task timing breakdown:
Section |  min time  |  avg time  |  max time  |%varavg| %total
---------------------------------------------------------------
Pair    | 1026.5     | 1027.4     | 1028.2     |   2.6 | 53.39
Neigh   | 658.33     | 675.84     | 693.34     |  67.3 | 35.12
Comm    | 170.36     | 187.17     | 203.99     | 122.9 |  9.73
Output  | 0.2879     | 0.28793    | 0.28795    |   0.0 |  0.01
Modify  | 28.098     | 28.132     | 28.166     |   0.6 |  1.46
Other   |            | 5.624      |            |       |  0.29

Nlocal:    9826 ave 9840 max 9812 min
Histogram: 1 0 0 0 0 0 0 0 0 1
Nghost:    11200 ave 11203 max 11197 min
Histogram: 1 0 0 0 0 0 0 0 0 1
Neighs:    546528 ave 547674 max 545383 min
Histogram: 1 0 0 0 0 0 0 0 0 1

Total # of neighbors = 1093057
Ave neighs/atom = 55.6206
Neighbor list builds = 19505
Dangerous builds not checked
Setting up Verlet run ...
  Unit style    : metal
  Current step  : 940000
  Time step     : 0.001
Per MPI rank memory allocation (min/avg/max) = 11.37 | 11.37 | 11.37 Mbytes
Step Temp Press TotEng PotEng Enthalpy 
  940000    198.93946   -189.44544   -28160.163   -28665.487   -28214.904 
  940495    174.06457    17.416268   -28286.413   -28728.553   -28281.394 
Loop time of 31.18 on 2 procs for 495 steps with 19652 atoms

Performance: 1.372 ns/day, 17.497 hours/ns, 15.876 timesteps/s
93.6% CPU use with 2 MPI tasks x no OpenMP threads

MPI task timing breakdown:
Section |  min time  |  avg time  |  max time  |%varavg| %total
---------------------------------------------------------------
Pair    | 16.522     | 16.709     | 16.895     |   4.6 | 53.59
Neigh   | 10.638     | 12.058     | 13.477     |  40.9 | 38.67
Comm    | 0.70116    | 1.9676     | 3.2341     |  90.3 |  6.31
Output  | 8.9884e-05 | 0.00010538 | 0.00012088 |   0.0 |  0.00
Modify  | 0.33672    | 0.36065    | 0.38459    |   4.0 |  1.16
Other   |            | 0.08536    |            |       |  0.27

Nlocal:    9826 ave 9829 max 9823 min
Histogram: 1 0 0 0 0 0 0 0 0 1
Nghost:    11205.5 ave 11213 max 11198 min
Histogram: 1 0 0 0 0 0 0 0 0 1
Neighs:    548360 ave 548605 max 548114 min
Histogram: 1 0 0 0 0 0 0 0 0 1

Total # of neighbors = 1096719
Ave neighs/atom = 55.807
Neighbor list builds = 495
Dangerous builds not checked
Setting up Verlet run ...
  Unit style    : metal
  Current step  : 940495
  Time step     : 0.001
Per MPI rank memory allocation (min/avg/max) = 11.37 | 11.37 | 11.37 Mbytes
Step Temp Press TotEng PotEng Enthalpy 
  940495    174.06457    17.416268   -28286.413   -28728.553   -28281.394 
  960000    151.91309    60.090214   -28420.826   -28806.699   -28403.548 
Loop time of 1612.56 on 2 procs for 19505 steps with 19652 atoms

Performance: 1.045 ns/day, 22.965 hours/ns, 12.096 timesteps/s
87.1% CPU use with 2 MPI tasks x no OpenMP threads

MPI task timing breakdown:
Section |  min time  |  avg time  |  max time  |%varavg| %total
---------------------------------------------------------------
Pair    | 869.03     | 873.17     | 877.32     |  14.0 | 54.15
Neigh   | 602.87     | 604.75     | 606.62     |   7.6 | 37.50
Comm    | 106.34     | 108.51     | 110.68     |  20.8 |  6.73
Output  | 0.054407   | 0.054427   | 0.054447   |   0.0 |  0.00
Modify  | 21.06      | 21.204     | 21.348     |   3.1 |  1.31
Other   |            | 4.865      |            |       |  0.30

Nlocal:    9826 ave 9838 max 9814 min
Histogram: 1 0 0 0 0 0 0 0 0 1
Nghost:    11238 ave 11263 max 11213 min
Histogram: 1 0 0 0 0 0 0 0 0 1
Neighs:    549868 ave 550218 max 549519 min
Histogram: 1 0 0 0 0 0 0 0 0 1

Total # of neighbors = 1099737
Ave neighs/atom = 55.9606
Neighbor list builds = 19505
Dangerous builds not checked
Setting up Verlet run ...
  Unit style    : metal
  Current step  : 960000
  Time step     : 0.001
Per MPI rank memory allocation (min/avg/max) = 11.37 | 11.37 | 11.37 Mbytes
Step Temp Press TotEng PotEng Enthalpy 
  960000    151.91309    60.090214   -28420.826   -28806.699   -28403.548 
  960495     126.6708   -243.80725   -28542.158   -28863.914   -28612.192 
Loop time of 34.6291 on 2 procs for 495 steps with 19652 atoms

Performance: 1.235 ns/day, 19.433 hours/ns, 14.294 timesteps/s
98.9% CPU use with 2 MPI tasks x no OpenMP threads

MPI task timing breakdown:
Section |  min time  |  avg time  |  max time  |%varavg| %total
---------------------------------------------------------------
Pair    | 18.276     | 18.581     | 18.886     |   7.1 | 53.66
Neigh   | 14.268     | 14.44      | 14.613     |   4.5 | 41.70
Comm    | 0.91851    | 1.051      | 1.1834     |  12.9 |  3.03
Output  | 8.3923e-05 | 0.000103   | 0.00012207 |   0.0 |  0.00
Modify  | 0.43306    | 0.4343     | 0.43554    |   0.2 |  1.25
Other   |            | 0.1221     |            |       |  0.35

Nlocal:    9826 ave 9843 max 9809 min
Histogram: 1 0 0 0 0 0 0 0 0 1
Nghost:    11234.5 ave 11249 max 11220 min
Histogram: 1 0 0 0 0 0 0 0 0 1
Neighs:    550792 ave 551749 max 549835 min
Histogram: 1 0 0 0 0 0 0 0 0 1

Total # of neighbors = 1101584
Ave neighs/atom = 56.0545
Neighbor list builds = 495
Dangerous builds not checked
Setting up Verlet run ...
  Unit style    : metal
  Current step  : 960495
  Time step     : 0.001
Per MPI rank memory allocation (min/avg/max) = 11.37 | 11.37 | 11.37 Mbytes
Step Temp Press TotEng PotEng Enthalpy 
  960495     126.6708   -243.80725   -28542.158   -28863.914   -28612.192 
  980000    100.07851    8.7976297   -28684.997   -28939.206   -28682.478 
Loop time of 1755.99 on 2 procs for 19505 steps with 19652 atoms

Performance: 0.960 ns/day, 25.008 hours/ns, 11.108 timesteps/s
82.5% CPU use with 2 MPI tasks x no OpenMP threads

MPI task timing breakdown:
Section |  min time  |  avg time  |  max time  |%varavg| %total
---------------------------------------------------------------
Pair    | 952.69     | 953.35     | 954.01     |   2.1 | 54.29
Neigh   | 633.83     | 638.7      | 643.56     |  19.3 | 36.37
Comm    | 128.77     | 133.05     | 137.33     |  37.1 |  7.58
Output  | 0.089798   | 0.08982    | 0.089842   |   0.0 |  0.01
Modify  | 25.37      | 25.423     | 25.477     |   1.1 |  1.45
Other   |            | 5.377      |            |       |  0.31

Nlocal:    9826 ave 9838 max 9814 min
Histogram: 1 0 0 0 0 0 0 0 0 1
Nghost:    11284 ave 11315 max 11253 min
Histogram: 1 0 0 0 0 0 0 0 0 1
Neighs:    552636 ave 552873 max 552398 min
Histogram: 1 0 0 0 0 0 0 0 0 1

Total # of neighbors = 1105271
Ave neighs/atom = 56.2422
Neighbor list builds = 19505
Dangerous builds not checked
Total wall time: 20:17:19
