LAMMPS (12 Dec 2018)
Lattice spacing in x,y,z = 4 4 4
Created orthogonal box = (0 0 0) to (68 68 68)
  1 by 1 by 1 MPI processor grid
Created 19652 atoms
  Time spent = 0.00412416 secs
Setting atom values ...
  0 settings made for type/fraction
Neighbor list info ...
  update every 1 steps, delay 0 steps, check no
  max neighbors/atom: 2000, page size: 100000
  master list distance cutoff = 8.5
  ghost atom cutoff = 8.5
  binsize = 4.25, bins = 16 16 16
  1 neighbor lists, perpetual/occasional/extra = 1 0 0
  (1) pair eam/alloy, perpetual
      attributes: half, newton on
      pair build: half/bin/atomonly/newton
      stencil: half/bin/3d/newton
      bin: standard
Setting up Verlet run ...
  Unit style    : metal
  Current step  : 0
  Time step     : 0.001
Per MPI rank memory allocation (min/avg/max) = 18.19 | 18.19 | 18.19 Mbytes
Step Temp Press TotEng PotEng Enthalpy 
       0          300    270988.05   -20809.105   -21571.132    32373.122 
    1000    146.03319    268947.95   -20808.866   -21179.804    31972.985 
Loop time of 152.195 on 1 procs for 1000 steps with 19652 atoms

Performance: 0.568 ns/day, 42.276 hours/ns, 6.571 timesteps/s
99.4% CPU use with 1 MPI tasks x no OpenMP threads

MPI task timing breakdown:
Section |  min time  |  avg time  |  max time  |%varavg| %total
---------------------------------------------------------------
Pair    | 87.071     | 87.071     | 87.071     |   0.0 | 57.21
Neigh   | 63.153     | 63.153     | 63.153     |   0.0 | 41.50
Comm    | 1.1837     | 1.1837     | 1.1837     |   0.0 |  0.78
Output  | 0.00013614 | 0.00013614 | 0.00013614 |   0.0 |  0.00
Modify  | 0.40672    | 0.40672    | 0.40672    |   0.0 |  0.27
Other   |            | 0.3809     |            |       |  0.25

Nlocal:    19652 ave 19652 max 19652 min
Histogram: 1 0 0 0 0 0 0 0 0 0
Nghost:    20102 ave 20102 max 20102 min
Histogram: 1 0 0 0 0 0 0 0 0 0
Neighs:    1.57359e+06 ave 1.57359e+06 max 1.57359e+06 min
Histogram: 1 0 0 0 0 0 0 0 0 0

Total # of neighbors = 1573586
Ave neighs/atom = 80.0726
Neighbor list builds = 1000
Dangerous builds not checked
Setting up Verlet run ...
  Unit style    : metal
  Current step  : 1000
  Time step     : 0.001
Per MPI rank memory allocation (min/avg/max) = 18.19 | 18.19 | 18.19 Mbytes
Step Temp Press TotEng PotEng Enthalpy 
    1000    146.03319    268947.95   -20808.866   -21179.804    31972.985 
    2000    258.65481    297.32161   -28438.217   -29095.223   -28353.684 
Loop time of 120.784 on 1 procs for 1000 steps with 19652 atoms

Performance: 0.715 ns/day, 33.551 hours/ns, 8.279 timesteps/s
99.7% CPU use with 1 MPI tasks x no OpenMP threads

MPI task timing breakdown:
Section |  min time  |  avg time  |  max time  |%varavg| %total
---------------------------------------------------------------
Pair    | 62.922     | 62.922     | 62.922     |   0.0 | 52.09
Neigh   | 55.195     | 55.195     | 55.195     |   0.0 | 45.70
Comm    | 0.95042    | 0.95042    | 0.95042    |   0.0 |  0.79
Output  | 0.064734   | 0.064734   | 0.064734   |   0.0 |  0.05
Modify  | 1.3011     | 1.3011     | 1.3011     |   0.0 |  1.08
Other   |            | 0.3505     |            |       |  0.29

Nlocal:    19652 ave 19652 max 19652 min
Histogram: 1 0 0 0 0 0 0 0 0 0
Nghost:    14808 ave 14808 max 14808 min
Histogram: 1 0 0 0 0 0 0 0 0 0
Neighs:    1.11508e+06 ave 1.11508e+06 max 1.11508e+06 min
Histogram: 1 0 0 0 0 0 0 0 0 0

Total # of neighbors = 1115085
Ave neighs/atom = 56.7416
Neighbor list builds = 1000
Dangerous builds not checked
Setting up Verlet run ...
  Unit style    : metal
  Current step  : 2000
  Time step     : 0.001
Per MPI rank memory allocation (min/avg/max) = 18.19 | 18.19 | 18.19 Mbytes
Step Temp Press TotEng PotEng Enthalpy 
    2000    258.65481    297.32161   -28438.217   -29095.223   -28353.684 
    4000    796.64065   -202.58829   -25397.984   -27421.524   -25458.492 
    6000     1316.192    474.34315   -20918.609   -24261.857    -20760.95 
    8000    1914.2609    -206.0897   -17050.427   -21912.824   -17127.104 
   10000    2440.3491     252.4411    -13467.42   -19666.129    -13360.85 
Loop time of 835.394 on 1 procs for 8000 steps with 19652 atoms

Performance: 0.827 ns/day, 29.007 hours/ns, 9.576 timesteps/s
99.4% CPU use with 1 MPI tasks x no OpenMP threads

MPI task timing breakdown:
Section |  min time  |  avg time  |  max time  |%varavg| %total
---------------------------------------------------------------
Pair    | 428.13     | 428.13     | 428.13     |   0.0 | 51.25
Neigh   | 385.49     | 385.49     | 385.49     |   0.0 | 46.14
Comm    | 7.7344     | 7.7344     | 7.7344     |   0.0 |  0.93
Output  | 0.29226    | 0.29226    | 0.29226    |   0.0 |  0.03
Modify  | 10.824     | 10.824     | 10.824     |   0.0 |  1.30
Other   |            | 2.926      |            |       |  0.35

Nlocal:    19652 ave 19652 max 19652 min
Histogram: 1 0 0 0 0 0 0 0 0 0
Nghost:    13776 ave 13776 max 13776 min
Histogram: 1 0 0 0 0 0 0 0 0 0
Neighs:    725820 ave 725820 max 725820 min
Histogram: 1 0 0 0 0 0 0 0 0 0

Total # of neighbors = 725820
Ave neighs/atom = 36.9336
Neighbor list builds = 8000
Dangerous builds not checked
Setting up Verlet run ...
  Unit style    : metal
  Current step  : 10000
  Time step     : 0.001
Per MPI rank memory allocation (min/avg/max) = 18.22 | 18.22 | 18.22 Mbytes
Step Temp Press TotEng PotEng Enthalpy 
   10000    2440.3491     252.4411    -13467.42   -19666.129    -13360.85 
   12000    2436.8202    224.02996   -13306.574   -19496.319   -13210.813 
   14000    2463.7822    67.267739   -13240.657   -19498.889   -13211.827 
   16000    2447.5099   -191.13138   -13130.991   -19347.889   -13213.753 
   18000    2445.5539    42.286638   -13135.612   -19347.542   -13117.313 
   20000    2434.2213   -197.83395   -13326.572   -19509.716    -13411.35 
   22000    2448.4179   -212.14668    -13179.15   -19398.354   -13270.825 
   24000    2458.7824    -909.6972   -13169.076   -19414.607   -13563.065 
   26000    2452.5645   -25.432716   -13256.461   -19486.198   -13267.376 
   28000    2457.8997    543.55022   -13310.866   -19554.155   -13079.685 
   30000    2417.8423   -276.79099   -13346.109   -19487.649   -13464.775 
   32000    2455.7792   -525.33597   -13196.399   -19434.302    -13423.34 
   34000    2446.1272   -117.37561   -13241.724    -19455.11   -13292.092 
   36000    2426.0038    233.78689   -13399.668   -19561.939   -13300.033 
   38000    2433.4272    344.08673   -13453.459   -19634.586   -13307.468 
   40000    2433.2864   -602.86246    -13330.96   -19511.729   -13590.018 
Loop time of 2772.25 on 1 procs for 30000 steps with 19652 atoms

Performance: 0.935 ns/day, 25.669 hours/ns, 10.822 timesteps/s
99.0% CPU use with 1 MPI tasks x no OpenMP threads

MPI task timing breakdown:
Section |  min time  |  avg time  |  max time  |%varavg| %total
---------------------------------------------------------------
Pair    | 1342.5     | 1342.5     | 1342.5     |   0.0 | 48.42
Neigh   | 1349.5     | 1349.5     | 1349.5     |   0.0 | 48.68
Comm    | 28.77      | 28.77      | 28.77      |   0.0 |  1.04
Output  | 1.143      | 1.143      | 1.143      |   0.0 |  0.04
Modify  | 40.09      | 40.09      | 40.09      |   0.0 |  1.45
Other   |            | 10.32      |            |       |  0.37

Nlocal:    19652 ave 19652 max 19652 min
Histogram: 1 0 0 0 0 0 0 0 0 0
Nghost:    13741 ave 13741 max 13741 min
Histogram: 1 0 0 0 0 0 0 0 0 0
Neighs:    713655 ave 713655 max 713655 min
Histogram: 1 0 0 0 0 0 0 0 0 0

Total # of neighbors = 713655
Ave neighs/atom = 36.3146
Neighbor list builds = 30000
Dangerous builds not checked
Setting up Verlet run ...
  Unit style    : metal
  Current step  : 40000
  Time step     : 0.001
Per MPI rank memory allocation (min/avg/max) = 18.22 | 18.22 | 18.22 Mbytes
Step Temp Press TotEng PotEng Enthalpy 
   40000    2433.2864   -602.86246    -13330.96   -19511.729   -13590.018 
   40495    2400.3133    -234.5501   -13480.498   -19577.513   -13580.789 
Loop time of 42.3761 on 1 procs for 495 steps with 19652 atoms

Performance: 1.009 ns/day, 23.780 hours/ns, 11.681 timesteps/s
99.5% CPU use with 1 MPI tasks x no OpenMP threads

MPI task timing breakdown:
Section |  min time  |  avg time  |  max time  |%varavg| %total
---------------------------------------------------------------
Pair    | 20.369     | 20.369     | 20.369     |   0.0 | 48.07
Neigh   | 20.754     | 20.754     | 20.754     |   0.0 | 48.98
Comm    | 0.45122    | 0.45122    | 0.45122    |   0.0 |  1.06
Output  | 0.00013518 | 0.00013518 | 0.00013518 |   0.0 |  0.00
Modify  | 0.62401    | 0.62401    | 0.62401    |   0.0 |  1.47
Other   |            | 0.1779     |            |       |  0.42

Nlocal:    19652 ave 19652 max 19652 min
Histogram: 1 0 0 0 0 0 0 0 0 0
Nghost:    13746 ave 13746 max 13746 min
Histogram: 1 0 0 0 0 0 0 0 0 0
Neighs:    718266 ave 718266 max 718266 min
Histogram: 1 0 0 0 0 0 0 0 0 0

Total # of neighbors = 718266
Ave neighs/atom = 36.5493
Neighbor list builds = 495
Dangerous builds not checked
Setting up Verlet run ...
  Unit style    : metal
  Current step  : 40495
  Time step     : 0.001
Per MPI rank memory allocation (min/avg/max) = 18.22 | 18.22 | 18.22 Mbytes
Step Temp Press TotEng PotEng Enthalpy 
   40495    2400.3133    -234.5501   -13480.498   -19577.513   -13580.789 
   42000    2392.6833    190.02282   -13718.074   -19795.707   -13638.449 
Loop time of 140.079 on 1 procs for 1505 steps with 19652 atoms

Performance: 0.928 ns/day, 25.854 hours/ns, 10.744 timesteps/s
99.3% CPU use with 1 MPI tasks x no OpenMP threads

MPI task timing breakdown:
Section |  min time  |  avg time  |  max time  |%varavg| %total
---------------------------------------------------------------
Pair    | 69.016     | 69.016     | 69.016     |   0.0 | 49.27
Neigh   | 66.964     | 66.964     | 66.964     |   0.0 | 47.80
Comm    | 1.4452     | 1.4452     | 1.4452     |   0.0 |  1.03
Output  | 0.077406   | 0.077406   | 0.077406   |   0.0 |  0.06
Modify  | 2.0321     | 2.0321     | 2.0321     |   0.0 |  1.45
Other   |            | 0.5433     |            |       |  0.39

Nlocal:    19652 ave 19652 max 19652 min
Histogram: 1 0 0 0 0 0 0 0 0 0
Nghost:    13669 ave 13669 max 13669 min
Histogram: 1 0 0 0 0 0 0 0 0 0
Neighs:    731316 ave 731316 max 731316 min
Histogram: 1 0 0 0 0 0 0 0 0 0

Total # of neighbors = 731316
Ave neighs/atom = 37.2133
Neighbor list builds = 1505
Dangerous builds not checked
Setting up Verlet run ...
  Unit style    : metal
  Current step  : 42000
  Time step     : 0.001
Per MPI rank memory allocation (min/avg/max) = 18.22 | 18.22 | 18.22 Mbytes
Step Temp Press TotEng PotEng Enthalpy 
   42000    2392.6833    190.02282   -13718.074   -19795.707   -13638.449 
   42495    2345.9171   -488.94085   -13893.852   -19852.695   -14098.644 
Loop time of 45.6264 on 1 procs for 495 steps with 19652 atoms

Performance: 0.937 ns/day, 25.604 hours/ns, 10.849 timesteps/s
99.3% CPU use with 1 MPI tasks x no OpenMP threads

MPI task timing breakdown:
Section |  min time  |  avg time  |  max time  |%varavg| %total
---------------------------------------------------------------
Pair    | 22.344     | 22.344     | 22.344     |   0.0 | 48.97
Neigh   | 21.936     | 21.936     | 21.936     |   0.0 | 48.08
Comm    | 0.4854     | 0.4854     | 0.4854     |   0.0 |  1.06
Output  | 0.00016999 | 0.00016999 | 0.00016999 |   0.0 |  0.00
Modify  | 0.6766     | 0.6766     | 0.6766     |   0.0 |  1.48
Other   |            | 0.1834     |            |       |  0.40

Nlocal:    19652 ave 19652 max 19652 min
Histogram: 1 0 0 0 0 0 0 0 0 0
Nghost:    13778 ave 13778 max 13778 min
Histogram: 1 0 0 0 0 0 0 0 0 0
Neighs:    731577 ave 731577 max 731577 min
Histogram: 1 0 0 0 0 0 0 0 0 0

Total # of neighbors = 731577
Ave neighs/atom = 37.2266
Neighbor list builds = 495
Dangerous builds not checked
Setting up Verlet run ...
  Unit style    : metal
  Current step  : 42495
  Time step     : 0.001
Per MPI rank memory allocation (min/avg/max) = 18.22 | 18.22 | 18.22 Mbytes
Step Temp Press TotEng PotEng Enthalpy 
   42495    2345.9171   -488.94085   -13893.852   -19852.695   -14098.644 
   44000    2356.1805    471.85281   -13917.828   -19902.741   -13721.978 
Loop time of 150.294 on 1 procs for 1505 steps with 19652 atoms

Performance: 0.865 ns/day, 27.740 hours/ns, 10.014 timesteps/s
99.5% CPU use with 1 MPI tasks x no OpenMP threads

MPI task timing breakdown:
Section |  min time  |  avg time  |  max time  |%varavg| %total
---------------------------------------------------------------
Pair    | 75.532     | 75.532     | 75.532     |   0.0 | 50.26
Neigh   | 70.359     | 70.359     | 70.359     |   0.0 | 46.81
Comm    | 1.6069     | 1.6069     | 1.6069     |   0.0 |  1.07
Output  | 0.11974    | 0.11974    | 0.11974    |   0.0 |  0.08
Modify  | 2.1129     | 2.1129     | 2.1129     |   0.0 |  1.41
Other   |            | 0.5635     |            |       |  0.37

Nlocal:    19652 ave 19652 max 19652 min
Histogram: 1 0 0 0 0 0 0 0 0 0
Nghost:    13874 ave 13874 max 13874 min
Histogram: 1 0 0 0 0 0 0 0 0 0
Neighs:    738349 ave 738349 max 738349 min
Histogram: 1 0 0 0 0 0 0 0 0 0

Total # of neighbors = 738349
Ave neighs/atom = 37.5712
Neighbor list builds = 1505
Dangerous builds not checked
Setting up Verlet run ...
  Unit style    : metal
  Current step  : 44000
  Time step     : 0.001
Per MPI rank memory allocation (min/avg/max) = 18.22 | 18.22 | 18.22 Mbytes
Step Temp Press TotEng PotEng Enthalpy 
   44000    2356.1805    471.85281   -13917.828   -19902.741   -13721.978 
   44495    2306.9705   -207.62959   -14227.728   -20087.644   -14313.465 
Loop time of 43.1401 on 1 procs for 495 steps with 19652 atoms

Performance: 0.991 ns/day, 24.209 hours/ns, 11.474 timesteps/s
100.0% CPU use with 1 MPI tasks x no OpenMP threads

MPI task timing breakdown:
Section |  min time  |  avg time  |  max time  |%varavg| %total
---------------------------------------------------------------
Pair    | 21.419     | 21.419     | 21.419     |   0.0 | 49.65
Neigh   | 20.477     | 20.477     | 20.477     |   0.0 | 47.47
Comm    | 0.44841    | 0.44841    | 0.44841    |   0.0 |  1.04
Output  | 0.00014091 | 0.00014091 | 0.00014091 |   0.0 |  0.00
Modify  | 0.62448    | 0.62448    | 0.62448    |   0.0 |  1.45
Other   |            | 0.1707     |            |       |  0.40

Nlocal:    19652 ave 19652 max 19652 min
Histogram: 1 0 0 0 0 0 0 0 0 0
Nghost:    13860 ave 13860 max 13860 min
Histogram: 1 0 0 0 0 0 0 0 0 0
Neighs:    742291 ave 742291 max 742291 min
Histogram: 1 0 0 0 0 0 0 0 0 0

Total # of neighbors = 742291
Ave neighs/atom = 37.7718
Neighbor list builds = 495
Dangerous builds not checked
Setting up Verlet run ...
  Unit style    : metal
  Current step  : 44495
  Time step     : 0.001
Per MPI rank memory allocation (min/avg/max) = 18.22 | 18.22 | 18.22 Mbytes
Step Temp Press TotEng PotEng Enthalpy 
   44495    2306.9705   -207.62959   -14227.728   -20087.644   -14313.465 
   46000    2297.2968   -227.78812   -14406.761   -20242.104   -14499.835 
Loop time of 151.734 on 1 procs for 1505 steps with 19652 atoms

Performance: 0.857 ns/day, 28.006 hours/ns, 9.919 timesteps/s
99.6% CPU use with 1 MPI tasks x no OpenMP threads

MPI task timing breakdown:
Section |  min time  |  avg time  |  max time  |%varavg| %total
---------------------------------------------------------------
Pair    | 77.614     | 77.614     | 77.614     |   0.0 | 51.15
Neigh   | 69.606     | 69.606     | 69.606     |   0.0 | 45.87
Comm    | 1.5366     | 1.5366     | 1.5366     |   0.0 |  1.01
Output  | 0.29896    | 0.29896    | 0.29896    |   0.0 |  0.20
Modify  | 2.1093     | 2.1093     | 2.1093     |   0.0 |  1.39
Other   |            | 0.5696     |            |       |  0.38

Nlocal:    19652 ave 19652 max 19652 min
Histogram: 1 0 0 0 0 0 0 0 0 0
Nghost:    14043 ave 14043 max 14043 min
Histogram: 1 0 0 0 0 0 0 0 0 0
Neighs:    749802 ave 749802 max 749802 min
Histogram: 1 0 0 0 0 0 0 0 0 0

Total # of neighbors = 749802
Ave neighs/atom = 38.154
Neighbor list builds = 1505
Dangerous builds not checked
Setting up Verlet run ...
  Unit style    : metal
  Current step  : 46000
  Time step     : 0.001
Per MPI rank memory allocation (min/avg/max) = 18.22 | 18.22 | 18.22 Mbytes
Step Temp Press TotEng PotEng Enthalpy 
   46000    2297.2968   -227.78812   -14406.761   -20242.104   -14499.835 
   46495     2247.473    -216.0381   -14581.157   -20289.943   -14669.106 
Loop time of 48.0945 on 1 procs for 495 steps with 19652 atoms

Performance: 0.889 ns/day, 26.989 hours/ns, 10.292 timesteps/s
97.9% CPU use with 1 MPI tasks x no OpenMP threads

MPI task timing breakdown:
Section |  min time  |  avg time  |  max time  |%varavg| %total
---------------------------------------------------------------
Pair    | 24.192     | 24.192     | 24.192     |   0.0 | 50.30
Neigh   | 22.528     | 22.528     | 22.528     |   0.0 | 46.84
Comm    | 0.50869    | 0.50869    | 0.50869    |   0.0 |  1.06
Output  | 0.00012112 | 0.00012112 | 0.00012112 |   0.0 |  0.00
Modify  | 0.67713    | 0.67713    | 0.67713    |   0.0 |  1.41
Other   |            | 0.1881     |            |       |  0.39

Nlocal:    19652 ave 19652 max 19652 min
Histogram: 1 0 0 0 0 0 0 0 0 0
Nghost:    13985 ave 13985 max 13985 min
Histogram: 1 0 0 0 0 0 0 0 0 0
Neighs:    753047 ave 753047 max 753047 min
Histogram: 1 0 0 0 0 0 0 0 0 0

Total # of neighbors = 753047
Ave neighs/atom = 38.3191
Neighbor list builds = 495
Dangerous builds not checked
Setting up Verlet run ...
  Unit style    : metal
  Current step  : 46495
  Time step     : 0.001
Per MPI rank memory allocation (min/avg/max) = 18.22 | 18.22 | 18.22 Mbytes
Step Temp Press TotEng PotEng Enthalpy 
   46495     2247.473    -216.0381   -14581.157   -20289.943   -14669.106 
   48000    2262.3929   -121.35928   -14690.906    -20437.59   -14739.921 
Loop time of 148.04 on 1 procs for 1505 steps with 19652 atoms

Performance: 0.878 ns/day, 27.324 hours/ns, 10.166 timesteps/s
99.5% CPU use with 1 MPI tasks x no OpenMP threads

MPI task timing breakdown:
Section |  min time  |  avg time  |  max time  |%varavg| %total
---------------------------------------------------------------
Pair    | 75.619     | 75.619     | 75.619     |   0.0 | 51.08
Neigh   | 68.259     | 68.259     | 68.259     |   0.0 | 46.11
Comm    | 1.4811     | 1.4811     | 1.4811     |   0.0 |  1.00
Output  | 0.10616    | 0.10616    | 0.10616    |   0.0 |  0.07
Modify  | 2.0249     | 2.0249     | 2.0249     |   0.0 |  1.37
Other   |            | 0.5493     |            |       |  0.37

Nlocal:    19652 ave 19652 max 19652 min
Histogram: 1 0 0 0 0 0 0 0 0 0
Nghost:    14098 ave 14098 max 14098 min
Histogram: 1 0 0 0 0 0 0 0 0 0
Neighs:    758972 ave 758972 max 758972 min
Histogram: 1 0 0 0 0 0 0 0 0 0

Total # of neighbors = 758972
Ave neighs/atom = 38.6206
Neighbor list builds = 1505
Dangerous builds not checked
Setting up Verlet run ...
  Unit style    : metal
  Current step  : 48000
  Time step     : 0.001
Per MPI rank memory allocation (min/avg/max) = 18.22 | 18.22 | 18.22 Mbytes
Step Temp Press TotEng PotEng Enthalpy 
   48000    2262.3929   -121.35928   -14690.906    -20437.59   -14739.921 
   48495    2209.9076    -54.23582   -14939.322   -20552.688   -14961.044 
Loop time of 46.7893 on 1 procs for 495 steps with 19652 atoms

Performance: 0.914 ns/day, 26.257 hours/ns, 10.579 timesteps/s
98.2% CPU use with 1 MPI tasks x no OpenMP threads

MPI task timing breakdown:
Section |  min time  |  avg time  |  max time  |%varavg| %total
---------------------------------------------------------------
Pair    | 23.604     | 23.604     | 23.604     |   0.0 | 50.45
Neigh   | 21.867     | 21.867     | 21.867     |   0.0 | 46.73
Comm    | 0.48265    | 0.48265    | 0.48265    |   0.0 |  1.03
Output  | 0.00016212 | 0.00016212 | 0.00016212 |   0.0 |  0.00
Modify  | 0.65149    | 0.65149    | 0.65149    |   0.0 |  1.39
Other   |            | 0.1841     |            |       |  0.39

Nlocal:    19652 ave 19652 max 19652 min
Histogram: 1 0 0 0 0 0 0 0 0 0
Nghost:    14162 ave 14162 max 14162 min
Histogram: 1 0 0 0 0 0 0 0 0 0
Neighs:    765140 ave 765140 max 765140 min
Histogram: 1 0 0 0 0 0 0 0 0 0

Total # of neighbors = 765140
Ave neighs/atom = 38.9345
Neighbor list builds = 495
Dangerous builds not checked
Setting up Verlet run ...
  Unit style    : metal
  Current step  : 48495
  Time step     : 0.001
Per MPI rank memory allocation (min/avg/max) = 18.22 | 18.22 | 18.22 Mbytes
Step Temp Press TotEng PotEng Enthalpy 
   48495    2209.9076    -54.23582   -14939.322   -20552.688   -14961.044 
   50000    2205.3077    290.77831   -15080.732   -20682.414    -14965.36 
Loop time of 121.993 on 1 procs for 1505 steps with 19652 atoms

Performance: 1.066 ns/day, 22.516 hours/ns, 12.337 timesteps/s
99.8% CPU use with 1 MPI tasks x no OpenMP threads

MPI task timing breakdown:
Section |  min time  |  avg time  |  max time  |%varavg| %total
---------------------------------------------------------------
Pair    | 59.84      | 59.84      | 59.84      |   0.0 | 49.05
Neigh   | 58.662     | 58.662     | 58.662     |   0.0 | 48.09
Comm    | 1.2416     | 1.2416     | 1.2416     |   0.0 |  1.02
Output  | 0.12557    | 0.12557    | 0.12557    |   0.0 |  0.10
Modify  | 1.6547     | 1.6547     | 1.6547     |   0.0 |  1.36
Other   |            | 0.4694     |            |       |  0.38

Nlocal:    19652 ave 19652 max 19652 min
Histogram: 1 0 0 0 0 0 0 0 0 0
Nghost:    14201 ave 14201 max 14201 min
Histogram: 1 0 0 0 0 0 0 0 0 0
Neighs:    772157 ave 772157 max 772157 min
Histogram: 1 0 0 0 0 0 0 0 0 0

Total # of neighbors = 772157
Ave neighs/atom = 39.2915
Neighbor list builds = 1505
Dangerous builds not checked
Setting up Verlet run ...
  Unit style    : metal
  Current step  : 50000
  Time step     : 0.001
Per MPI rank memory allocation (min/avg/max) = 18.22 | 18.22 | 18.22 Mbytes
Step Temp Press TotEng PotEng Enthalpy 
   50000    2205.3077    290.77831   -15080.732   -20682.414    -14965.36 
   50495    2155.6209   -424.82184    -15250.78   -20726.254   -15419.337 
Loop time of 39.151 on 1 procs for 495 steps with 19652 atoms

Performance: 1.092 ns/day, 21.970 hours/ns, 12.643 timesteps/s
95.8% CPU use with 1 MPI tasks x no OpenMP threads

MPI task timing breakdown:
Section |  min time  |  avg time  |  max time  |%varavg| %total
---------------------------------------------------------------
Pair    | 18.311     | 18.311     | 18.311     |   0.0 | 46.77
Neigh   | 18.32      | 18.32      | 18.32      |   0.0 | 46.79
Comm    | 0.37998    | 0.37998    | 0.37998    |   0.0 |  0.97
Output  | 1.4269     | 1.4269     | 1.4269     |   0.0 |  3.64
Modify  | 0.56537    | 0.56537    | 0.56537    |   0.0 |  1.44
Other   |            | 0.1468     |            |       |  0.38

Nlocal:    19652 ave 19652 max 19652 min
Histogram: 1 0 0 0 0 0 0 0 0 0
Nghost:    14257 ave 14257 max 14257 min
Histogram: 1 0 0 0 0 0 0 0 0 0
Neighs:    771827 ave 771827 max 771827 min
Histogram: 1 0 0 0 0 0 0 0 0 0

Total # of neighbors = 771827
Ave neighs/atom = 39.2747
Neighbor list builds = 495
Dangerous builds not checked
Setting up Verlet run ...
  Unit style    : metal
  Current step  : 50495
  Time step     : 0.001
Per MPI rank memory allocation (min/avg/max) = 18.22 | 18.22 | 18.22 Mbytes
Step Temp Press TotEng PotEng Enthalpy 
   50495    2155.6209   -424.82184    -15250.78   -20726.254   -15419.337 
   52000    2160.6047   -230.20945   -15422.989   -20911.121   -15513.474 
Loop time of 127.232 on 1 procs for 1505 steps with 19652 atoms

Performance: 1.022 ns/day, 23.483 hours/ns, 11.829 timesteps/s
99.8% CPU use with 1 MPI tasks x no OpenMP threads

MPI task timing breakdown:
Section |  min time  |  avg time  |  max time  |%varavg| %total
---------------------------------------------------------------
Pair    | 62.926     | 62.926     | 62.926     |   0.0 | 49.46
Neigh   | 60.638     | 60.638     | 60.638     |   0.0 | 47.66
Comm    | 1.282      | 1.282      | 1.282      |   0.0 |  1.01
Output  | 0.13379    | 0.13379    | 0.13379    |   0.0 |  0.11
Modify  | 1.762      | 1.762      | 1.762      |   0.0 |  1.38
Other   |            | 0.4906     |            |       |  0.39

Nlocal:    19652 ave 19652 max 19652 min
Histogram: 1 0 0 0 0 0 0 0 0 0
Nghost:    14317 ave 14317 max 14317 min
Histogram: 1 0 0 0 0 0 0 0 0 0
Neighs:    779250 ave 779250 max 779250 min
Histogram: 1 0 0 0 0 0 0 0 0 0

Total # of neighbors = 779250
Ave neighs/atom = 39.6525
Neighbor list builds = 1505
Dangerous builds not checked
Setting up Verlet run ...
  Unit style    : metal
  Current step  : 52000
  Time step     : 0.001
Per MPI rank memory allocation (min/avg/max) = 18.22 | 18.22 | 18.22 Mbytes
Step Temp Press TotEng PotEng Enthalpy 
   52000    2160.6047   -230.20945   -15422.989   -20911.121   -15513.474 
   52495    2120.2473    236.13345   -15654.583   -21040.204   -15562.609 
Loop time of 42.34 on 1 procs for 495 steps with 19652 atoms

Performance: 1.010 ns/day, 23.760 hours/ns, 11.691 timesteps/s
100.0% CPU use with 1 MPI tasks x no OpenMP threads

MPI task timing breakdown:
Section |  min time  |  avg time  |  max time  |%varavg| %total
---------------------------------------------------------------
Pair    | 20.971     | 20.971     | 20.971     |   0.0 | 49.53
Neigh   | 20.169     | 20.169     | 20.169     |   0.0 | 47.64
Comm    | 0.42872    | 0.42872    | 0.42872    |   0.0 |  1.01
Output  | 0.0013239  | 0.0013239  | 0.0013239  |   0.0 |  0.00
Modify  | 0.6025     | 0.6025     | 0.6025     |   0.0 |  1.42
Other   |            | 0.167      |            |       |  0.39

Nlocal:    19652 ave 19652 max 19652 min
Histogram: 1 0 0 0 0 0 0 0 0 0
Nghost:    14293 ave 14293 max 14293 min
Histogram: 1 0 0 0 0 0 0 0 0 0
Neighs:    786549 ave 786549 max 786549 min
Histogram: 1 0 0 0 0 0 0 0 0 0

Total # of neighbors = 786549
Ave neighs/atom = 40.0239
Neighbor list builds = 495
Dangerous builds not checked
Setting up Verlet run ...
  Unit style    : metal
  Current step  : 52495
  Time step     : 0.001
Per MPI rank memory allocation (min/avg/max) = 18.22 | 18.22 | 18.22 Mbytes
Step Temp Press TotEng PotEng Enthalpy 
   52495    2120.2473    236.13345   -15654.583   -21040.204   -15562.609 
   54000    2101.7531    397.55937   -15806.877   -21145.521   -15653.219 
Loop time of 127.232 on 1 procs for 1505 steps with 19652 atoms

Performance: 1.022 ns/day, 23.483 hours/ns, 11.829 timesteps/s
99.6% CPU use with 1 MPI tasks x no OpenMP threads

MPI task timing breakdown:
Section |  min time  |  avg time  |  max time  |%varavg| %total
---------------------------------------------------------------
Pair    | 63.196     | 63.196     | 63.196     |   0.0 | 49.67
Neigh   | 60.353     | 60.353     | 60.353     |   0.0 | 47.44
Comm    | 1.2725     | 1.2725     | 1.2725     |   0.0 |  1.00
Output  | 0.17903    | 0.17903    | 0.17903    |   0.0 |  0.14
Modify  | 1.7427     | 1.7427     | 1.7427     |   0.0 |  1.37
Other   |            | 0.4883     |            |       |  0.38

Nlocal:    19652 ave 19652 max 19652 min
Histogram: 1 0 0 0 0 0 0 0 0 0
Nghost:    14308 ave 14308 max 14308 min
Histogram: 1 0 0 0 0 0 0 0 0 0
Neighs:    792777 ave 792777 max 792777 min
Histogram: 1 0 0 0 0 0 0 0 0 0

Total # of neighbors = 792777
Ave neighs/atom = 40.3408
Neighbor list builds = 1505
Dangerous builds not checked
Setting up Verlet run ...
  Unit style    : metal
  Current step  : 54000
  Time step     : 0.001
Per MPI rank memory allocation (min/avg/max) = 18.22 | 18.22 | 18.22 Mbytes
Step Temp Press TotEng PotEng Enthalpy 
   54000    2101.7531    397.55937   -15806.877   -21145.521   -15653.219 
   54495    2057.2937   -264.67112   -15952.686   -21178.399   -16055.162 
Loop time of 40.2177 on 1 procs for 495 steps with 19652 atoms

Performance: 1.063 ns/day, 22.569 hours/ns, 12.308 timesteps/s
99.2% CPU use with 1 MPI tasks x no OpenMP threads

MPI task timing breakdown:
Section |  min time  |  avg time  |  max time  |%varavg| %total
---------------------------------------------------------------
Pair    | 19.842     | 19.842     | 19.842     |   0.0 | 49.34
Neigh   | 19.244     | 19.244     | 19.244     |   0.0 | 47.85
Comm    | 0.41227    | 0.41227    | 0.41227    |   0.0 |  1.03
Output  | 0.00015306 | 0.00015306 | 0.00015306 |   0.0 |  0.00
Modify  | 0.55997    | 0.55997    | 0.55997    |   0.0 |  1.39
Other   |            | 0.1588     |            |       |  0.39

Nlocal:    19652 ave 19652 max 19652 min
Histogram: 1 0 0 0 0 0 0 0 0 0
Nghost:    14270 ave 14270 max 14270 min
Histogram: 1 0 0 0 0 0 0 0 0 0
Neighs:    791286 ave 791286 max 791286 min
Histogram: 1 0 0 0 0 0 0 0 0 0

Total # of neighbors = 791286
Ave neighs/atom = 40.2649
Neighbor list builds = 495
Dangerous builds not checked
Setting up Verlet run ...
  Unit style    : metal
  Current step  : 54495
  Time step     : 0.001
Per MPI rank memory allocation (min/avg/max) = 18.22 | 18.22 | 18.22 Mbytes
Step Temp Press TotEng PotEng Enthalpy 
   54495    2057.2937   -264.67112   -15952.686   -21178.399   -16055.162 
   56000    2045.6523    30.459009   -16023.404   -21219.548   -16011.655 
Loop time of 139.904 on 1 procs for 1505 steps with 19652 atoms

Performance: 0.929 ns/day, 25.822 hours/ns, 10.757 timesteps/s
99.9% CPU use with 1 MPI tasks x no OpenMP threads

MPI task timing breakdown:
Section |  min time  |  avg time  |  max time  |%varavg| %total
---------------------------------------------------------------
Pair    | 69.819     | 69.819     | 69.819     |   0.0 | 49.91
Neigh   | 66.11      | 66.11      | 66.11      |   0.0 | 47.25
Comm    | 1.4023     | 1.4023     | 1.4023     |   0.0 |  1.00
Output  | 0.12821    | 0.12821    | 0.12821    |   0.0 |  0.09
Modify  | 1.9116     | 1.9116     | 1.9116     |   0.0 |  1.37
Other   |            | 0.5322     |            |       |  0.38

Nlocal:    19652 ave 19652 max 19652 min
Histogram: 1 0 0 0 0 0 0 0 0 0
Nghost:    14277 ave 14277 max 14277 min
Histogram: 1 0 0 0 0 0 0 0 0 0
Neighs:    793747 ave 793747 max 793747 min
Histogram: 1 0 0 0 0 0 0 0 0 0

Total # of neighbors = 793747
Ave neighs/atom = 40.3901
Neighbor list builds = 1505
Dangerous builds not checked
Setting up Verlet run ...
  Unit style    : metal
  Current step  : 56000
  Time step     : 0.001
Per MPI rank memory allocation (min/avg/max) = 18.22 | 18.22 | 18.22 Mbytes
Step Temp Press TotEng PotEng Enthalpy 
   56000    2045.6523    30.459009   -16023.404   -21219.548   -16011.655 
   56495    2020.3983    74.824641   -16252.446   -21384.442    -16223.88 
Loop time of 41.332 on 1 procs for 495 steps with 19652 atoms

Performance: 1.035 ns/day, 23.194 hours/ns, 11.976 timesteps/s
99.3% CPU use with 1 MPI tasks x no OpenMP threads

MPI task timing breakdown:
Section |  min time  |  avg time  |  max time  |%varavg| %total
---------------------------------------------------------------
Pair    | 20.431     | 20.431     | 20.431     |   0.0 | 49.43
Neigh   | 19.747     | 19.747     | 19.747     |   0.0 | 47.78
Comm    | 0.41673    | 0.41673    | 0.41673    |   0.0 |  1.01
Output  | 0.00013995 | 0.00013995 | 0.00013995 |   0.0 |  0.00
Modify  | 0.57603    | 0.57603    | 0.57603    |   0.0 |  1.39
Other   |            | 0.161      |            |       |  0.39

Nlocal:    19652 ave 19652 max 19652 min
Histogram: 1 0 0 0 0 0 0 0 0 0
Nghost:    14247 ave 14247 max 14247 min
Histogram: 1 0 0 0 0 0 0 0 0 0
Neighs:    802396 ave 802396 max 802396 min
Histogram: 1 0 0 0 0 0 0 0 0 0

Total # of neighbors = 802396
Ave neighs/atom = 40.8302
Neighbor list builds = 495
Dangerous builds not checked
Setting up Verlet run ...
  Unit style    : metal
  Current step  : 56495
  Time step     : 0.001
Per MPI rank memory allocation (min/avg/max) = 18.22 | 18.22 | 18.22 Mbytes
Step Temp Press TotEng PotEng Enthalpy 
   56495    2020.3983    74.824641   -16252.446   -21384.442    -16223.88 
   58000    2003.8211    300.47383   -16422.802    -21512.69   -16308.929 
Loop time of 142.978 on 1 procs for 1505 steps with 19652 atoms

Performance: 0.909 ns/day, 26.389 hours/ns, 10.526 timesteps/s
99.8% CPU use with 1 MPI tasks x no OpenMP threads

MPI task timing breakdown:
Section |  min time  |  avg time  |  max time  |%varavg| %total
---------------------------------------------------------------
Pair    | 69.931     | 69.931     | 69.931     |   0.0 | 48.91
Neigh   | 69.068     | 69.068     | 69.068     |   0.0 | 48.31
Comm    | 1.3631     | 1.3631     | 1.3631     |   0.0 |  0.95
Output  | 0.21465    | 0.21465    | 0.21465    |   0.0 |  0.15
Modify  | 1.893      | 1.893      | 1.893      |   0.0 |  1.32
Other   |            | 0.5072     |            |       |  0.35

Nlocal:    19652 ave 19652 max 19652 min
Histogram: 1 0 0 0 0 0 0 0 0 0
Nghost:    14319 ave 14319 max 14319 min
Histogram: 1 0 0 0 0 0 0 0 0 0
Neighs:    808608 ave 808608 max 808608 min
Histogram: 1 0 0 0 0 0 0 0 0 0

Total # of neighbors = 808608
Ave neighs/atom = 41.1463
Neighbor list builds = 1505
Dangerous builds not checked
Setting up Verlet run ...
  Unit style    : metal
  Current step  : 58000
  Time step     : 0.001
Per MPI rank memory allocation (min/avg/max) = 18.22 | 18.22 | 18.22 Mbytes
Step Temp Press TotEng PotEng Enthalpy 
   58000    2003.8211    300.47383   -16422.802    -21512.69   -16308.929 
   58495     1965.711   -214.65967   -16608.284    -21601.37   -16689.412 
Loop time of 46.5229 on 1 procs for 495 steps with 19652 atoms

Performance: 0.919 ns/day, 26.107 hours/ns, 10.640 timesteps/s
100.0% CPU use with 1 MPI tasks x no OpenMP threads

MPI task timing breakdown:
Section |  min time  |  avg time  |  max time  |%varavg| %total
---------------------------------------------------------------
Pair    | 22.704     | 22.704     | 22.704     |   0.0 | 48.80
Neigh   | 22.587     | 22.587     | 22.587     |   0.0 | 48.55
Comm    | 0.44218    | 0.44218    | 0.44218    |   0.0 |  0.95
Output  | 0.00010991 | 0.00010991 | 0.00010991 |   0.0 |  0.00
Modify  | 0.6284     | 0.6284     | 0.6284     |   0.0 |  1.35
Other   |            | 0.1613     |            |       |  0.35

Nlocal:    19652 ave 19652 max 19652 min
Histogram: 1 0 0 0 0 0 0 0 0 0
Nghost:    14411 ave 14411 max 14411 min
Histogram: 1 0 0 0 0 0 0 0 0 0
Neighs:    810864 ave 810864 max 810864 min
Histogram: 1 0 0 0 0 0 0 0 0 0

Total # of neighbors = 810864
Ave neighs/atom = 41.2611
Neighbor list builds = 495
Dangerous builds not checked
Setting up Verlet run ...
  Unit style    : metal
  Current step  : 58495
  Time step     : 0.001
Per MPI rank memory allocation (min/avg/max) = 18.22 | 18.22 | 18.22 Mbytes
Step Temp Press TotEng PotEng Enthalpy 
   58495     1965.711   -214.65967   -16608.284    -21601.37   -16689.412 
   60000    1961.7537   -271.82826    -16586.59   -21569.624   -16689.621 
Loop time of 142.11 on 1 procs for 1505 steps with 19652 atoms

Performance: 0.915 ns/day, 26.229 hours/ns, 10.590 timesteps/s
96.6% CPU use with 1 MPI tasks x no OpenMP threads

MPI task timing breakdown:
Section |  min time  |  avg time  |  max time  |%varavg| %total
---------------------------------------------------------------
Pair    | 67.242     | 67.242     | 67.242     |   0.0 | 47.32
Neigh   | 66.896     | 66.896     | 66.896     |   0.0 | 47.07
Comm    | 1.3149     | 1.3149     | 1.3149     |   0.0 |  0.93
Output  | 4.3958     | 4.3958     | 4.3958     |   0.0 |  3.09
Modify  | 1.7987     | 1.7987     | 1.7987     |   0.0 |  1.27
Other   |            | 0.4627     |            |       |  0.33

Nlocal:    19652 ave 19652 max 19652 min
Histogram: 1 0 0 0 0 0 0 0 0 0
Nghost:    14414 ave 14414 max 14414 min
Histogram: 1 0 0 0 0 0 0 0 0 0
Neighs:    808521 ave 808521 max 808521 min
Histogram: 1 0 0 0 0 0 0 0 0 0

Total # of neighbors = 808521
Ave neighs/atom = 41.1419
Neighbor list builds = 1505
Dangerous builds not checked
Setting up Verlet run ...
  Unit style    : metal
  Current step  : 60000
  Time step     : 0.001
Per MPI rank memory allocation (min/avg/max) = 18.22 | 18.22 | 18.22 Mbytes
Step Temp Press TotEng PotEng Enthalpy 
   60000    1961.7537   -271.82826    -16586.59   -21569.624   -16689.621 
   60495    1918.8604    242.35713    -16858.71    -21732.79   -16767.888 
Loop time of 43.1125 on 1 procs for 495 steps with 19652 atoms

Performance: 0.992 ns/day, 24.193 hours/ns, 11.482 timesteps/s
99.5% CPU use with 1 MPI tasks x no OpenMP threads

MPI task timing breakdown:
Section |  min time  |  avg time  |  max time  |%varavg| %total
---------------------------------------------------------------
Pair    | 21.004     | 21.004     | 21.004     |   0.0 | 48.72
Neigh   | 20.988     | 20.988     | 20.988     |   0.0 | 48.68
Comm    | 0.40811    | 0.40811    | 0.40811    |   0.0 |  0.95
Output  | 0.00017285 | 0.00017285 | 0.00017285 |   0.0 |  0.00
Modify  | 0.56795    | 0.56795    | 0.56795    |   0.0 |  1.32
Other   |            | 0.1443     |            |       |  0.33

Nlocal:    19652 ave 19652 max 19652 min
Histogram: 1 0 0 0 0 0 0 0 0 0
Nghost:    14440 ave 14440 max 14440 min
Histogram: 1 0 0 0 0 0 0 0 0 0
Neighs:    817359 ave 817359 max 817359 min
Histogram: 1 0 0 0 0 0 0 0 0 0

Total # of neighbors = 817359
Ave neighs/atom = 41.5916
Neighbor list builds = 495
Dangerous builds not checked
Setting up Verlet run ...
  Unit style    : metal
  Current step  : 60495
  Time step     : 0.001
Per MPI rank memory allocation (min/avg/max) = 18.22 | 18.22 | 18.22 Mbytes
Step Temp Press TotEng PotEng Enthalpy 
   60495    1918.8604    242.35713    -16858.71    -21732.79   -16767.888 
   62000    1915.5118   -191.10254   -16925.739   -21791.314   -16997.258 
Loop time of 137.623 on 1 procs for 1505 steps with 19652 atoms

Performance: 0.945 ns/day, 25.401 hours/ns, 10.936 timesteps/s
98.7% CPU use with 1 MPI tasks x no OpenMP threads

MPI task timing breakdown:
Section |  min time  |  avg time  |  max time  |%varavg| %total
---------------------------------------------------------------
Pair    | 67.267     | 67.267     | 67.267     |   0.0 | 48.88
Neigh   | 66.559     | 66.559     | 66.559     |   0.0 | 48.36
Comm    | 1.2964     | 1.2964     | 1.2964     |   0.0 |  0.94
Output  | 0.23955    | 0.23955    | 0.23955    |   0.0 |  0.17
Modify  | 1.806      | 1.806      | 1.806      |   0.0 |  1.31
Other   |            | 0.4549     |            |       |  0.33

Nlocal:    19652 ave 19652 max 19652 min
Histogram: 1 0 0 0 0 0 0 0 0 0
Nghost:    14503 ave 14503 max 14503 min
Histogram: 1 0 0 0 0 0 0 0 0 0
Neighs:    818399 ave 818399 max 818399 min
Histogram: 1 0 0 0 0 0 0 0 0 0

Total # of neighbors = 818399
Ave neighs/atom = 41.6446
Neighbor list builds = 1505
Dangerous builds not checked
Setting up Verlet run ...
  Unit style    : metal
  Current step  : 62000
  Time step     : 0.001
Per MPI rank memory allocation (min/avg/max) = 18.22 | 18.22 | 18.22 Mbytes
Step Temp Press TotEng PotEng Enthalpy 
   62000    1915.5118   -191.10254   -16925.739   -21791.314   -16997.258 
   62495    1865.1435    169.18538   -17207.796   -21945.431   -17145.087 
Loop time of 43.4666 on 1 procs for 495 steps with 19652 atoms

Performance: 0.984 ns/day, 24.392 hours/ns, 11.388 timesteps/s
99.9% CPU use with 1 MPI tasks x no OpenMP threads

MPI task timing breakdown:
Section |  min time  |  avg time  |  max time  |%varavg| %total
---------------------------------------------------------------
Pair    | 21.122     | 21.122     | 21.122     |   0.0 | 48.59
Neigh   | 21.2       | 21.2       | 21.2       |   0.0 | 48.77
Comm    | 0.41223    | 0.41223    | 0.41223    |   0.0 |  0.95
Output  | 0.00016284 | 0.00016284 | 0.00016284 |   0.0 |  0.00
Modify  | 0.58252    | 0.58252    | 0.58252    |   0.0 |  1.34
Other   |            | 0.1496     |            |       |  0.34

Nlocal:    19652 ave 19652 max 19652 min
Histogram: 1 0 0 0 0 0 0 0 0 0
Nghost:    14567 ave 14567 max 14567 min
Histogram: 1 0 0 0 0 0 0 0 0 0
Neighs:    826848 ave 826848 max 826848 min
Histogram: 1 0 0 0 0 0 0 0 0 0

Total # of neighbors = 826848
Ave neighs/atom = 42.0745
Neighbor list builds = 495
Dangerous builds not checked
Setting up Verlet run ...
  Unit style    : metal
  Current step  : 62495
  Time step     : 0.001
Per MPI rank memory allocation (min/avg/max) = 18.22 | 18.22 | 18.22 Mbytes
Step Temp Press TotEng PotEng Enthalpy 
   62495    1865.1435    169.18538   -17207.796   -21945.431   -17145.087 
   64000    1861.4174   -95.473132   -17293.226   -22021.396   -17328.504 
Loop time of 135.471 on 1 procs for 1505 steps with 19652 atoms

Performance: 0.960 ns/day, 25.004 hours/ns, 11.109 timesteps/s
99.1% CPU use with 1 MPI tasks x no OpenMP threads

MPI task timing breakdown:
Section |  min time  |  avg time  |  max time  |%varavg| %total
---------------------------------------------------------------
Pair    | 66.358     | 66.358     | 66.358     |   0.0 | 48.98
Neigh   | 65.425     | 65.425     | 65.425     |   0.0 | 48.29
Comm    | 1.2804     | 1.2804     | 1.2804     |   0.0 |  0.95
Output  | 0.17934    | 0.17934    | 0.17934    |   0.0 |  0.13
Modify  | 1.7767     | 1.7767     | 1.7767     |   0.0 |  1.31
Other   |            | 0.4515     |            |       |  0.33

Nlocal:    19652 ave 19652 max 19652 min
Histogram: 1 0 0 0 0 0 0 0 0 0
Nghost:    14556 ave 14556 max 14556 min
Histogram: 1 0 0 0 0 0 0 0 0 0
Neighs:    828758 ave 828758 max 828758 min
Histogram: 1 0 0 0 0 0 0 0 0 0

Total # of neighbors = 828758
Ave neighs/atom = 42.1717
Neighbor list builds = 1505
Dangerous builds not checked
Setting up Verlet run ...
  Unit style    : metal
  Current step  : 64000
  Time step     : 0.001
Per MPI rank memory allocation (min/avg/max) = 18.22 | 18.22 | 18.22 Mbytes
Step Temp Press TotEng PotEng Enthalpy 
   64000    1861.4174   -95.473132   -17293.226   -22021.396   -17328.504 
   64495     1820.273    42.933339   -17548.767   -22172.426    -17533.03 
Loop time of 45.1681 on 1 procs for 495 steps with 19652 atoms

Performance: 0.947 ns/day, 25.347 hours/ns, 10.959 timesteps/s
99.8% CPU use with 1 MPI tasks x no OpenMP threads

MPI task timing breakdown:
Section |  min time  |  avg time  |  max time  |%varavg| %total
---------------------------------------------------------------
Pair    | 22.231     | 22.231     | 22.231     |   0.0 | 49.22
Neigh   | 21.763     | 21.763     | 21.763     |   0.0 | 48.18
Comm    | 0.42302    | 0.42302    | 0.42302    |   0.0 |  0.94
Output  | 0.00010705 | 0.00010705 | 0.00010705 |   0.0 |  0.00
Modify  | 0.5993     | 0.5993     | 0.5993     |   0.0 |  1.33
Other   |            | 0.1517     |            |       |  0.34

Nlocal:    19652 ave 19652 max 19652 min
Histogram: 1 0 0 0 0 0 0 0 0 0
Nghost:    14585 ave 14585 max 14585 min
Histogram: 1 0 0 0 0 0 0 0 0 0
Neighs:    835328 ave 835328 max 835328 min
Histogram: 1 0 0 0 0 0 0 0 0 0

Total # of neighbors = 835328
Ave neighs/atom = 42.506
Neighbor list builds = 495
Dangerous builds not checked
Setting up Verlet run ...
  Unit style    : metal
  Current step  : 64495
  Time step     : 0.001
Per MPI rank memory allocation (min/avg/max) = 18.22 | 18.22 | 18.22 Mbytes
Step Temp Press TotEng PotEng Enthalpy 
   64495     1820.273    42.933339   -17548.767   -22172.426    -17533.03 
   66000    1810.7813    73.908567    -17623.69    -22223.24   -17596.649 
Loop time of 132.389 on 1 procs for 1505 steps with 19652 atoms

Performance: 0.982 ns/day, 24.435 hours/ns, 11.368 timesteps/s
99.7% CPU use with 1 MPI tasks x no OpenMP threads

MPI task timing breakdown:
Section |  min time  |  avg time  |  max time  |%varavg| %total
---------------------------------------------------------------
Pair    | 64.844     | 64.844     | 64.844     |   0.0 | 48.98
Neigh   | 64.021     | 64.021     | 64.021     |   0.0 | 48.36
Comm    | 1.2359     | 1.2359     | 1.2359     |   0.0 |  0.93
Output  | 0.14723    | 0.14723    | 0.14723    |   0.0 |  0.11
Modify  | 1.7041     | 1.7041     | 1.7041     |   0.0 |  1.29
Other   |            | 0.4369     |            |       |  0.33

Nlocal:    19652 ave 19652 max 19652 min
Histogram: 1 0 0 0 0 0 0 0 0 0
Nghost:    14580 ave 14580 max 14580 min
Histogram: 1 0 0 0 0 0 0 0 0 0
Neighs:    837629 ave 837629 max 837629 min
Histogram: 1 0 0 0 0 0 0 0 0 0

Total # of neighbors = 837629
Ave neighs/atom = 42.6231
Neighbor list builds = 1505
Dangerous builds not checked
Setting up Verlet run ...
  Unit style    : metal
  Current step  : 66000
  Time step     : 0.001
Per MPI rank memory allocation (min/avg/max) = 18.22 | 18.22 | 18.22 Mbytes
Step Temp Press TotEng PotEng Enthalpy 
   66000    1810.7813    73.908567    -17623.69    -22223.24   -17596.649 
   66495    1756.2444    3.3594631   -17834.076   -22295.097   -17832.853 
Loop time of 41.0603 on 1 procs for 495 steps with 19652 atoms

Performance: 1.042 ns/day, 23.042 hours/ns, 12.055 timesteps/s
98.8% CPU use with 1 MPI tasks x no OpenMP threads

MPI task timing breakdown:
Section |  min time  |  avg time  |  max time  |%varavg| %total
---------------------------------------------------------------
Pair    | 19.885     | 19.885     | 19.885     |   0.0 | 48.43
Neigh   | 20.126     | 20.126     | 20.126     |   0.0 | 49.02
Comm    | 0.38192    | 0.38192    | 0.38192    |   0.0 |  0.93
Output  | 0.000108   | 0.000108   | 0.000108   |   0.0 |  0.00
Modify  | 0.53037    | 0.53037    | 0.53037    |   0.0 |  1.29
Other   |            | 0.1376     |            |       |  0.34

Nlocal:    19652 ave 19652 max 19652 min
Histogram: 1 0 0 0 0 0 0 0 0 0
Nghost:    14678 ave 14678 max 14678 min
Histogram: 1 0 0 0 0 0 0 0 0 0
Neighs:    841337 ave 841337 max 841337 min
Histogram: 1 0 0 0 0 0 0 0 0 0

Total # of neighbors = 841337
Ave neighs/atom = 42.8118
Neighbor list builds = 495
Dangerous builds not checked
Setting up Verlet run ...
  Unit style    : metal
  Current step  : 66495
  Time step     : 0.001
Per MPI rank memory allocation (min/avg/max) = 18.22 | 18.22 | 18.22 Mbytes
Step Temp Press TotEng PotEng Enthalpy 
   66495    1756.2444    3.3594631   -17834.076   -22295.097   -17832.853 
   68000    1748.3592    637.38469   -17991.973   -22432.965   -17762.003 
Loop time of 132.635 on 1 procs for 1505 steps with 19652 atoms

Performance: 0.980 ns/day, 24.480 hours/ns, 11.347 timesteps/s
99.6% CPU use with 1 MPI tasks x no OpenMP threads

MPI task timing breakdown:
Section |  min time  |  avg time  |  max time  |%varavg| %total
---------------------------------------------------------------
Pair    | 64.836     | 64.836     | 64.836     |   0.0 | 48.88
Neigh   | 64.1       | 64.1       | 64.1       |   0.0 | 48.33
Comm    | 1.2277     | 1.2277     | 1.2277     |   0.0 |  0.93
Output  | 0.31938    | 0.31938    | 0.31938    |   0.0 |  0.24
Modify  | 1.7153     | 1.7153     | 1.7153     |   0.0 |  1.29
Other   |            | 0.4374     |            |       |  0.33

Nlocal:    19652 ave 19652 max 19652 min
Histogram: 1 0 0 0 0 0 0 0 0 0
Nghost:    14629 ave 14629 max 14629 min
Histogram: 1 0 0 0 0 0 0 0 0 0
Neighs:    849640 ave 849640 max 849640 min
Histogram: 1 0 0 0 0 0 0 0 0 0

Total # of neighbors = 849640
Ave neighs/atom = 43.2343
Neighbor list builds = 1505
Dangerous builds not checked
Setting up Verlet run ...
  Unit style    : metal
  Current step  : 68000
  Time step     : 0.001
Per MPI rank memory allocation (min/avg/max) = 18.22 | 18.22 | 18.22 Mbytes
Step Temp Press TotEng PotEng Enthalpy 
   68000    1748.3592    637.38469   -17991.973   -22432.965   -17762.003 
   68495    1700.9147     67.11813   -18190.433   -22510.912   -18166.255 
Loop time of 46.6046 on 1 procs for 495 steps with 19652 atoms

Performance: 0.918 ns/day, 26.153 hours/ns, 10.621 timesteps/s
99.9% CPU use with 1 MPI tasks x no OpenMP threads

MPI task timing breakdown:
Section |  min time  |  avg time  |  max time  |%varavg| %total
---------------------------------------------------------------
Pair    | 23.165     | 23.165     | 23.165     |   0.0 | 49.70
Neigh   | 22.228     | 22.228     | 22.228     |   0.0 | 47.70
Comm    | 0.43255    | 0.43255    | 0.43255    |   0.0 |  0.93
Output  | 0.00010586 | 0.00010586 | 0.00010586 |   0.0 |  0.00
Modify  | 0.61763    | 0.61763    | 0.61763    |   0.0 |  1.33
Other   |            | 0.1614     |            |       |  0.35

Nlocal:    19652 ave 19652 max 19652 min
Histogram: 1 0 0 0 0 0 0 0 0 0
Nghost:    14684 ave 14684 max 14684 min
Histogram: 1 0 0 0 0 0 0 0 0 0
Neighs:    850389 ave 850389 max 850389 min
Histogram: 1 0 0 0 0 0 0 0 0 0

Total # of neighbors = 850389
Ave neighs/atom = 43.2724
Neighbor list builds = 495
Dangerous builds not checked
Setting up Verlet run ...
  Unit style    : metal
  Current step  : 68495
  Time step     : 0.001
Per MPI rank memory allocation (min/avg/max) = 18.22 | 18.22 | 18.22 Mbytes
Step Temp Press TotEng PotEng Enthalpy 
   68495    1700.9147     67.11813   -18190.433   -22510.912   -18166.255 
   70000    1690.2388   -40.513841   -18249.518   -22542.879   -18264.092 
Loop time of 131.615 on 1 procs for 1505 steps with 19652 atoms

Performance: 0.988 ns/day, 24.292 hours/ns, 11.435 timesteps/s
99.1% CPU use with 1 MPI tasks x no OpenMP threads

MPI task timing breakdown:
Section |  min time  |  avg time  |  max time  |%varavg| %total
---------------------------------------------------------------
Pair    | 64.553     | 64.553     | 64.553     |   0.0 | 49.05
Neigh   | 63.66      | 63.66      | 63.66      |   0.0 | 48.37
Comm    | 1.2166     | 1.2166     | 1.2166     |   0.0 |  0.92
Output  | 0.075082   | 0.075082   | 0.075082   |   0.0 |  0.06
Modify  | 1.6768     | 1.6768     | 1.6768     |   0.0 |  1.27
Other   |            | 0.4345     |            |       |  0.33

Nlocal:    19652 ave 19652 max 19652 min
Histogram: 1 0 0 0 0 0 0 0 0 0
Nghost:    14700 ave 14700 max 14700 min
Histogram: 1 0 0 0 0 0 0 0 0 0
Neighs:    852044 ave 852044 max 852044 min
Histogram: 1 0 0 0 0 0 0 0 0 0

Total # of neighbors = 852044
Ave neighs/atom = 43.3566
Neighbor list builds = 1505
Dangerous builds not checked
Setting up Verlet run ...
  Unit style    : metal
  Current step  : 70000
  Time step     : 0.001
Per MPI rank memory allocation (min/avg/max) = 18.22 | 18.22 | 18.22 Mbytes
Step Temp Press TotEng PotEng Enthalpy 
   70000    1690.2388   -40.513841   -18249.518   -22542.879   -18264.092 
   70495    1659.7255    228.40947   -18496.423   -22712.277   -18415.033 
Loop time of 42.8885 on 1 procs for 495 steps with 19652 atoms

Performance: 0.997 ns/day, 24.068 hours/ns, 11.542 timesteps/s
99.9% CPU use with 1 MPI tasks x no OpenMP threads

MPI task timing breakdown:
Section |  min time  |  avg time  |  max time  |%varavg| %total
---------------------------------------------------------------
Pair    | 21.103     | 21.103     | 21.103     |   0.0 | 49.20
Neigh   | 20.694     | 20.694     | 20.694     |   0.0 | 48.25
Comm    | 0.39681    | 0.39681    | 0.39681    |   0.0 |  0.93
Output  | 0.00015998 | 0.00015998 | 0.00015998 |   0.0 |  0.00
Modify  | 0.55307    | 0.55307    | 0.55307    |   0.0 |  1.29
Other   |            | 0.1416     |            |       |  0.33

Nlocal:    19652 ave 19652 max 19652 min
Histogram: 1 0 0 0 0 0 0 0 0 0
Nghost:    14696 ave 14696 max 14696 min
Histogram: 1 0 0 0 0 0 0 0 0 0
Neighs:    860341 ave 860341 max 860341 min
Histogram: 1 0 0 0 0 0 0 0 0 0

Total # of neighbors = 860341
Ave neighs/atom = 43.7788
Neighbor list builds = 495
Dangerous builds not checked
Setting up Verlet run ...
  Unit style    : metal
  Current step  : 70495
  Time step     : 0.001
Per MPI rank memory allocation (min/avg/max) = 18.22 | 18.22 | 18.22 Mbytes
Step Temp Press TotEng PotEng Enthalpy 
   70495    1659.7255    228.40947   -18496.423   -22712.277   -18415.033 
   72000    1648.0265    272.96495   -18534.132    -22720.27   -18436.911 
Loop time of 132.776 on 1 procs for 1505 steps with 19652 atoms

Performance: 0.979 ns/day, 24.506 hours/ns, 11.335 timesteps/s
96.0% CPU use with 1 MPI tasks x no OpenMP threads

MPI task timing breakdown:
Section |  min time  |  avg time  |  max time  |%varavg| %total
---------------------------------------------------------------
Pair    | 62.812     | 62.812     | 62.812     |   0.0 | 47.31
Neigh   | 61.718     | 61.718     | 61.718     |   0.0 | 46.48
Comm    | 1.1767     | 1.1767     | 1.1767     |   0.0 |  0.89
Output  | 5.0415     | 5.0415     | 5.0415     |   0.0 |  3.80
Modify  | 1.6128     | 1.6128     | 1.6128     |   0.0 |  1.21
Other   |            | 0.4148     |            |       |  0.31

Nlocal:    19652 ave 19652 max 19652 min
Histogram: 1 0 0 0 0 0 0 0 0 0
Nghost:    14671 ave 14671 max 14671 min
Histogram: 1 0 0 0 0 0 0 0 0 0
Neighs:    860352 ave 860352 max 860352 min
Histogram: 1 0 0 0 0 0 0 0 0 0

Total # of neighbors = 860352
Ave neighs/atom = 43.7794
Neighbor list builds = 1505
Dangerous builds not checked
Setting up Verlet run ...
  Unit style    : metal
  Current step  : 72000
  Time step     : 0.001
Per MPI rank memory allocation (min/avg/max) = 18.22 | 18.22 | 18.22 Mbytes
Step Temp Press TotEng PotEng Enthalpy 
   72000    1648.0265    272.96495   -18534.132    -22720.27   -18436.911 
   72495    1605.0502    22.129828   -18774.518   -22851.492   -18766.674 
Loop time of 41.0771 on 1 procs for 495 steps with 19652 atoms

Performance: 1.041 ns/day, 23.051 hours/ns, 12.051 timesteps/s
99.9% CPU use with 1 MPI tasks x no OpenMP threads

MPI task timing breakdown:
Section |  min time  |  avg time  |  max time  |%varavg| %total
---------------------------------------------------------------
Pair    | 20.049     | 20.049     | 20.049     |   0.0 | 48.81
Neigh   | 20         | 20         | 20         |   0.0 | 48.69
Comm    | 0.37207    | 0.37207    | 0.37207    |   0.0 |  0.91
Output  | 0.00012589 | 0.00012589 | 0.00012589 |   0.0 |  0.00
Modify  | 0.52206    | 0.52206    | 0.52206    |   0.0 |  1.27
Other   |            | 0.1335     |            |       |  0.33

Nlocal:    19652 ave 19652 max 19652 min
Histogram: 1 0 0 0 0 0 0 0 0 0
Nghost:    14795 ave 14795 max 14795 min
Histogram: 1 0 0 0 0 0 0 0 0 0
Neighs:    864395 ave 864395 max 864395 min
Histogram: 1 0 0 0 0 0 0 0 0 0

Total # of neighbors = 864395
Ave neighs/atom = 43.9851
Neighbor list builds = 495
Dangerous builds not checked
Setting up Verlet run ...
  Unit style    : metal
  Current step  : 72495
  Time step     : 0.001
Per MPI rank memory allocation (min/avg/max) = 18.22 | 18.22 | 18.22 Mbytes
Step Temp Press TotEng PotEng Enthalpy 
   72495    1605.0502    22.129828   -18774.518   -22851.492   -18766.674 
   74000    1607.4141    200.91808   -18902.782   -22985.761   -18831.962 
Loop time of 132.688 on 1 procs for 1505 steps with 19652 atoms

Performance: 0.980 ns/day, 24.490 hours/ns, 11.342 timesteps/s
98.5% CPU use with 1 MPI tasks x no OpenMP threads

MPI task timing breakdown:
Section |  min time  |  avg time  |  max time  |%varavg| %total
---------------------------------------------------------------
Pair    | 64.799     | 64.799     | 64.799     |   0.0 | 48.84
Neigh   | 63.376     | 63.376     | 63.376     |   0.0 | 47.76
Comm    | 1.2068     | 1.2068     | 1.2068     |   0.0 |  0.91
Output  | 1.2154     | 1.2154     | 1.2154     |   0.0 |  0.92
Modify  | 1.6601     | 1.6601     | 1.6601     |   0.0 |  1.25
Other   |            | 0.4298     |            |       |  0.32

Nlocal:    19652 ave 19652 max 19652 min
Histogram: 1 0 0 0 0 0 0 0 0 0
Nghost:    14825 ave 14825 max 14825 min
Histogram: 1 0 0 0 0 0 0 0 0 0
Neighs:    869756 ave 869756 max 869756 min
Histogram: 1 0 0 0 0 0 0 0 0 0

Total # of neighbors = 869756
Ave neighs/atom = 44.2579
Neighbor list builds = 1505
Dangerous builds not checked
Setting up Verlet run ...
  Unit style    : metal
  Current step  : 74000
  Time step     : 0.001
Per MPI rank memory allocation (min/avg/max) = 18.22 | 18.22 | 18.22 Mbytes
Step Temp Press TotEng PotEng Enthalpy 
   74000    1607.4141    200.91808   -18902.782   -22985.761   -18831.962 
   74495     1558.189      48.2762   -19084.327   -23042.269   -19067.351 
Loop time of 50.2666 on 1 procs for 495 steps with 19652 atoms

Performance: 0.851 ns/day, 28.208 hours/ns, 9.847 timesteps/s
98.7% CPU use with 1 MPI tasks x no OpenMP threads

MPI task timing breakdown:
Section |  min time  |  avg time  |  max time  |%varavg| %total
---------------------------------------------------------------
Pair    | 25.396     | 25.396     | 25.396     |   0.0 | 50.52
Neigh   | 23.556     | 23.556     | 23.556     |   0.0 | 46.86
Comm    | 0.46252    | 0.46252    | 0.46252    |   0.0 |  0.92
Output  | 0.00016999 | 0.00016999 | 0.00016999 |   0.0 |  0.00
Modify  | 0.68423    | 0.68423    | 0.68423    |   0.0 |  1.36
Other   |            | 0.1675     |            |       |  0.33

Nlocal:    19652 ave 19652 max 19652 min
Histogram: 1 0 0 0 0 0 0 0 0 0
Nghost:    14802 ave 14802 max 14802 min
Histogram: 1 0 0 0 0 0 0 0 0 0
Neighs:    871975 ave 871975 max 871975 min
Histogram: 1 0 0 0 0 0 0 0 0 0

Total # of neighbors = 871975
Ave neighs/atom = 44.3708
Neighbor list builds = 495
Dangerous builds not checked
Setting up Verlet run ...
  Unit style    : metal
  Current step  : 74495
  Time step     : 0.001
Per MPI rank memory allocation (min/avg/max) = 18.22 | 18.22 | 18.22 Mbytes
Step Temp Press TotEng PotEng Enthalpy 
   74495     1558.189      48.2762   -19084.327   -23042.269   -19067.351 
   76000    1555.7858     385.8551   -19200.236   -23152.074    -19065.39 
Loop time of 137.491 on 1 procs for 1505 steps with 19652 atoms

Performance: 0.946 ns/day, 25.377 hours/ns, 10.946 timesteps/s
99.2% CPU use with 1 MPI tasks x no OpenMP threads

MPI task timing breakdown:
Section |  min time  |  avg time  |  max time  |%varavg| %total
---------------------------------------------------------------
Pair    | 68.384     | 68.384     | 68.384     |   0.0 | 49.74
Neigh   | 65.49      | 65.49      | 65.49      |   0.0 | 47.63
Comm    | 1.263      | 1.263      | 1.263      |   0.0 |  0.92
Output  | 0.16592    | 0.16592    | 0.16592    |   0.0 |  0.12
Modify  | 1.7399     | 1.7399     | 1.7399     |   0.0 |  1.27
Other   |            | 0.4478     |            |       |  0.33

Nlocal:    19652 ave 19652 max 19652 min
Histogram: 1 0 0 0 0 0 0 0 0 0
Nghost:    14830 ave 14830 max 14830 min
Histogram: 1 0 0 0 0 0 0 0 0 0
Neighs:    877543 ave 877543 max 877543 min
Histogram: 1 0 0 0 0 0 0 0 0 0

Total # of neighbors = 877543
Ave neighs/atom = 44.6541
Neighbor list builds = 1505
Dangerous builds not checked
Setting up Verlet run ...
  Unit style    : metal
  Current step  : 76000
  Time step     : 0.001
Per MPI rank memory allocation (min/avg/max) = 18.22 | 18.22 | 18.22 Mbytes
Step Temp Press TotEng PotEng Enthalpy 
   76000    1555.7858     385.8551   -19200.236   -23152.074    -19065.39 
   76495    1514.1993   -10.537988   -19395.633   -23241.837   -19399.304 
Loop time of 48.4575 on 1 procs for 495 steps with 19652 atoms

Performance: 0.883 ns/day, 27.193 hours/ns, 10.215 timesteps/s
99.7% CPU use with 1 MPI tasks x no OpenMP threads

MPI task timing breakdown:
Section |  min time  |  avg time  |  max time  |%varavg| %total
---------------------------------------------------------------
Pair    | 24.49      | 24.49      | 24.49      |   0.0 | 50.54
Neigh   | 22.731     | 22.731     | 22.731     |   0.0 | 46.91
Comm    | 0.4448     | 0.4448     | 0.4448     |   0.0 |  0.92
Output  | 0.00017905 | 0.00017905 | 0.00017905 |   0.0 |  0.00
Modify  | 0.62333    | 0.62333    | 0.62333    |   0.0 |  1.29
Other   |            | 0.1685     |            |       |  0.35

Nlocal:    19652 ave 19652 max 19652 min
Histogram: 1 0 0 0 0 0 0 0 0 0
Nghost:    14888 ave 14888 max 14888 min
Histogram: 1 0 0 0 0 0 0 0 0 0
Neighs:    880100 ave 880100 max 880100 min
Histogram: 1 0 0 0 0 0 0 0 0 0

Total # of neighbors = 880100
Ave neighs/atom = 44.7842
Neighbor list builds = 495
Dangerous builds not checked
Setting up Verlet run ...
  Unit style    : metal
  Current step  : 76495
  Time step     : 0.001
Per MPI rank memory allocation (min/avg/max) = 18.22 | 18.22 | 18.22 Mbytes
Step Temp Press TotEng PotEng Enthalpy 
   76495    1514.1993   -10.537988   -19395.633   -23241.837   -19399.304 
   78000    1498.5192    35.090758   -19486.546   -23292.921   -19474.349 
Loop time of 151.658 on 1 procs for 1505 steps with 19652 atoms

Performance: 0.857 ns/day, 27.991 hours/ns, 9.924 timesteps/s
98.5% CPU use with 1 MPI tasks x no OpenMP threads

MPI task timing breakdown:
Section |  min time  |  avg time  |  max time  |%varavg| %total
---------------------------------------------------------------
Pair    | 76.485     | 76.485     | 76.485     |   0.0 | 50.43
Neigh   | 70.378     | 70.378     | 70.378     |   0.0 | 46.41
Comm    | 1.4107     | 1.4107     | 1.4107     |   0.0 |  0.93
Output  | 0.95106    | 0.95106    | 0.95106    |   0.0 |  0.63
Modify  | 1.9309     | 1.9309     | 1.9309     |   0.0 |  1.27
Other   |            | 0.5014     |            |       |  0.33

Nlocal:    19652 ave 19652 max 19652 min
Histogram: 1 0 0 0 0 0 0 0 0 0
Nghost:    14874 ave 14874 max 14874 min
Histogram: 1 0 0 0 0 0 0 0 0 0
Neighs:    882606 ave 882606 max 882606 min
Histogram: 1 0 0 0 0 0 0 0 0 0

Total # of neighbors = 882606
Ave neighs/atom = 44.9118
Neighbor list builds = 1505
Dangerous builds not checked
Setting up Verlet run ...
  Unit style    : metal
  Current step  : 78000
  Time step     : 0.001
Per MPI rank memory allocation (min/avg/max) = 18.22 | 18.22 | 18.22 Mbytes
Step Temp Press TotEng PotEng Enthalpy 
   78000    1498.5192    35.090758   -19486.546   -23292.921   -19474.349 
   78495    1475.0924    59.822281   -19709.443   -23456.312   -19688.792 
Loop time of 43.7831 on 1 procs for 495 steps with 19652 atoms

Performance: 0.977 ns/day, 24.570 hours/ns, 11.306 timesteps/s
99.8% CPU use with 1 MPI tasks x no OpenMP threads

MPI task timing breakdown:
Section |  min time  |  avg time  |  max time  |%varavg| %total
---------------------------------------------------------------
Pair    | 21.863     | 21.863     | 21.863     |   0.0 | 49.94
Neigh   | 20.802     | 20.802     | 20.802     |   0.0 | 47.51
Comm    | 0.40789    | 0.40789    | 0.40789    |   0.0 |  0.93
Output  | 0.00012612 | 0.00012612 | 0.00012612 |   0.0 |  0.00
Modify  | 0.55288    | 0.55288    | 0.55288    |   0.0 |  1.26
Other   |            | 0.1565     |            |       |  0.36

Nlocal:    19652 ave 19652 max 19652 min
Histogram: 1 0 0 0 0 0 0 0 0 0
Nghost:    14905 ave 14905 max 14905 min
Histogram: 1 0 0 0 0 0 0 0 0 0
Neighs:    888653 ave 888653 max 888653 min
Histogram: 1 0 0 0 0 0 0 0 0 0

Total # of neighbors = 888653
Ave neighs/atom = 45.2195
Neighbor list builds = 495
Dangerous builds not checked
Setting up Verlet run ...
  Unit style    : metal
  Current step  : 78495
  Time step     : 0.001
Per MPI rank memory allocation (min/avg/max) = 18.22 | 18.22 | 18.22 Mbytes
Step Temp Press TotEng PotEng Enthalpy 
   78495    1475.0924    59.822281   -19709.443   -23456.312   -19688.792 
   80000    1442.9899    20.830346   -19809.322   -23474.647    -19802.14 
Loop time of 130.761 on 1 procs for 1505 steps with 19652 atoms

Performance: 0.994 ns/day, 24.135 hours/ns, 11.510 timesteps/s
99.8% CPU use with 1 MPI tasks x no OpenMP threads

MPI task timing breakdown:
Section |  min time  |  avg time  |  max time  |%varavg| %total
---------------------------------------------------------------
Pair    | 65.382     | 65.382     | 65.382     |   0.0 | 50.00
Neigh   | 61.997     | 61.997     | 61.997     |   0.0 | 47.41
Comm    | 1.2163     | 1.2163     | 1.2163     |   0.0 |  0.93
Output  | 0.060769   | 0.060769   | 0.060769   |   0.0 |  0.05
Modify  | 1.6386     | 1.6386     | 1.6386     |   0.0 |  1.25
Other   |            | 0.4671     |            |       |  0.36

Nlocal:    19652 ave 19652 max 19652 min
Histogram: 1 0 0 0 0 0 0 0 0 0
Nghost:    15038 ave 15038 max 15038 min
Histogram: 1 0 0 0 0 0 0 0 0 0
Neighs:    890005 ave 890005 max 890005 min
Histogram: 1 0 0 0 0 0 0 0 0 0

Total # of neighbors = 890005
Ave neighs/atom = 45.2883
Neighbor list builds = 1505
Dangerous builds not checked
Setting up Verlet run ...
  Unit style    : metal
  Current step  : 80000
  Time step     : 0.001
Per MPI rank memory allocation (min/avg/max) = 18.22 | 18.22 | 18.22 Mbytes
Step Temp Press TotEng PotEng Enthalpy 
   80000    1442.9899    20.830346   -19809.322   -23474.647    -19802.14 
   80495    1415.5648    42.338258    -19995.81   -23591.474   -19981.289 
Loop time of 44.4562 on 1 procs for 495 steps with 19652 atoms

Performance: 0.962 ns/day, 24.947 hours/ns, 11.135 timesteps/s
99.2% CPU use with 1 MPI tasks x no OpenMP threads

MPI task timing breakdown:
Section |  min time  |  avg time  |  max time  |%varavg| %total
---------------------------------------------------------------
Pair    | 22.285     | 22.285     | 22.285     |   0.0 | 50.13
Neigh   | 21.037     | 21.037     | 21.037     |   0.0 | 47.32
Comm    | 0.40445    | 0.40445    | 0.40445    |   0.0 |  0.91
Output  | 0.00013304 | 0.00013304 | 0.00013304 |   0.0 |  0.00
Modify  | 0.56549    | 0.56549    | 0.56549    |   0.0 |  1.27
Other   |            | 0.1638     |            |       |  0.37

Nlocal:    19652 ave 19652 max 19652 min
Histogram: 1 0 0 0 0 0 0 0 0 0
Nghost:    14996 ave 14996 max 14996 min
Histogram: 1 0 0 0 0 0 0 0 0 0
Neighs:    894342 ave 894342 max 894342 min
Histogram: 1 0 0 0 0 0 0 0 0 0

Total # of neighbors = 894342
Ave neighs/atom = 45.509
Neighbor list builds = 495
Dangerous builds not checked
Setting up Verlet run ...
  Unit style    : metal
  Current step  : 80495
  Time step     : 0.001
Per MPI rank memory allocation (min/avg/max) = 18.22 | 18.22 | 18.22 Mbytes
Step Temp Press TotEng PotEng Enthalpy 
   80495    1415.5648    42.338258    -19995.81   -23591.474   -19981.289 
   82000    1397.8854    206.81076   -20100.718   -23651.475   -20030.015 
Loop time of 148.467 on 1 procs for 1505 steps with 19652 atoms

Performance: 0.876 ns/day, 27.403 hours/ns, 10.137 timesteps/s
98.5% CPU use with 1 MPI tasks x no OpenMP threads

MPI task timing breakdown:
Section |  min time  |  avg time  |  max time  |%varavg| %total
---------------------------------------------------------------
Pair    | 74.362     | 74.362     | 74.362     |   0.0 | 50.09
Neigh   | 68.586     | 68.586     | 68.586     |   0.0 | 46.20
Comm    | 1.3389     | 1.3389     | 1.3389     |   0.0 |  0.90
Output  | 1.8104     | 1.8104     | 1.8104     |   0.0 |  1.22
Modify  | 1.8815     | 1.8815     | 1.8815     |   0.0 |  1.27
Other   |            | 0.488      |            |       |  0.33

Nlocal:    19652 ave 19652 max 19652 min
Histogram: 1 0 0 0 0 0 0 0 0 0
Nghost:    14943 ave 14943 max 14943 min
Histogram: 1 0 0 0 0 0 0 0 0 0
Neighs:    897743 ave 897743 max 897743 min
Histogram: 1 0 0 0 0 0 0 0 0 0

Total # of neighbors = 897743
Ave neighs/atom = 45.682
Neighbor list builds = 1505
Dangerous builds not checked
Setting up Verlet run ...
  Unit style    : metal
  Current step  : 82000
  Time step     : 0.001
Per MPI rank memory allocation (min/avg/max) = 18.22 | 18.22 | 18.22 Mbytes
Step Temp Press TotEng PotEng Enthalpy 
   82000    1397.8854    206.81076   -20100.718   -23651.475   -20030.015 
   82495    1367.6572    138.41381   -20283.914   -23757.888   -20236.794 
Loop time of 45.907 on 1 procs for 495 steps with 19652 atoms

Performance: 0.932 ns/day, 25.761 hours/ns, 10.783 timesteps/s
98.7% CPU use with 1 MPI tasks x no OpenMP threads

MPI task timing breakdown:
Section |  min time  |  avg time  |  max time  |%varavg| %total
---------------------------------------------------------------
Pair    | 23.192     | 23.192     | 23.192     |   0.0 | 50.52
Neigh   | 21.556     | 21.556     | 21.556     |   0.0 | 46.96
Comm    | 0.40984    | 0.40984    | 0.40984    |   0.0 |  0.89
Output  | 0.00013709 | 0.00013709 | 0.00013709 |   0.0 |  0.00
Modify  | 0.59775    | 0.59775    | 0.59775    |   0.0 |  1.30
Other   |            | 0.1517     |            |       |  0.33

Nlocal:    19652 ave 19652 max 19652 min
Histogram: 1 0 0 0 0 0 0 0 0 0
Nghost:    15007 ave 15007 max 15007 min
Histogram: 1 0 0 0 0 0 0 0 0 0
Neighs:    900900 ave 900900 max 900900 min
Histogram: 1 0 0 0 0 0 0 0 0 0

Total # of neighbors = 900900
Ave neighs/atom = 45.8427
Neighbor list builds = 495
Dangerous builds not checked
Setting up Verlet run ...
  Unit style    : metal
  Current step  : 82495
  Time step     : 0.001
Per MPI rank memory allocation (min/avg/max) = 18.22 | 18.22 | 18.22 Mbytes
Step Temp Press TotEng PotEng Enthalpy 
   82495    1367.6572    138.41381   -20283.914   -23757.888   -20236.794 
   84000    1359.1189     32.57958   -20407.519   -23859.805   -20396.467 
Loop time of 146.765 on 1 procs for 1505 steps with 19652 atoms

Performance: 0.886 ns/day, 27.088 hours/ns, 10.254 timesteps/s
99.2% CPU use with 1 MPI tasks x no OpenMP threads

MPI task timing breakdown:
Section |  min time  |  avg time  |  max time  |%varavg| %total
---------------------------------------------------------------
Pair    | 74.599     | 74.599     | 74.599     |   0.0 | 50.83
Neigh   | 68.396     | 68.396     | 68.396     |   0.0 | 46.60
Comm    | 1.3094     | 1.3094     | 1.3094     |   0.0 |  0.89
Output  | 0.13529    | 0.13529    | 0.13529    |   0.0 |  0.09
Modify  | 1.8571     | 1.8571     | 1.8571     |   0.0 |  1.27
Other   |            | 0.4689     |            |       |  0.32

Nlocal:    19652 ave 19652 max 19652 min
Histogram: 1 0 0 0 0 0 0 0 0 0
Nghost:    15052 ave 15052 max 15052 min
Histogram: 1 0 0 0 0 0 0 0 0 0
Neighs:    904970 ave 904970 max 904970 min
Histogram: 1 0 0 0 0 0 0 0 0 0

Total # of neighbors = 904970
Ave neighs/atom = 46.0498
Neighbor list builds = 1505
Dangerous builds not checked
Setting up Verlet run ...
  Unit style    : metal
  Current step  : 84000
  Time step     : 0.001
Per MPI rank memory allocation (min/avg/max) = 18.22 | 18.22 | 18.22 Mbytes
Step Temp Press TotEng PotEng Enthalpy 
   84000    1359.1189     32.57958   -20407.519   -23859.805   -20396.467 
   84495    1322.1169   -142.15802   -20611.528   -23969.825   -20659.575 
Loop time of 45.8922 on 1 procs for 495 steps with 19652 atoms

Performance: 0.932 ns/day, 25.753 hours/ns, 10.786 timesteps/s
99.7% CPU use with 1 MPI tasks x no OpenMP threads

MPI task timing breakdown:
Section |  min time  |  avg time  |  max time  |%varavg| %total
---------------------------------------------------------------
Pair    | 23.205     | 23.205     | 23.205     |   0.0 | 50.56
Neigh   | 21.547     | 21.547     | 21.547     |   0.0 | 46.95
Comm    | 0.40831    | 0.40831    | 0.40831    |   0.0 |  0.89
Output  | 0.00015688 | 0.00015688 | 0.00015688 |   0.0 |  0.00
Modify  | 0.58287    | 0.58287    | 0.58287    |   0.0 |  1.27
Other   |            | 0.1493     |            |       |  0.33

Nlocal:    19652 ave 19652 max 19652 min
Histogram: 1 0 0 0 0 0 0 0 0 0
Nghost:    15035 ave 15035 max 15035 min
Histogram: 1 0 0 0 0 0 0 0 0 0
Neighs:    908582 ave 908582 max 908582 min
Histogram: 1 0 0 0 0 0 0 0 0 0

Total # of neighbors = 908582
Ave neighs/atom = 46.2336
Neighbor list builds = 495
Dangerous builds not checked
Setting up Verlet run ...
  Unit style    : metal
  Current step  : 84495
  Time step     : 0.001
Per MPI rank memory allocation (min/avg/max) = 18.22 | 18.22 | 18.22 Mbytes
Step Temp Press TotEng PotEng Enthalpy 
   84495    1322.1169   -142.15802   -20611.528   -23969.825   -20659.575 
   86000    1307.3254   -225.79847   -20685.899   -24006.624   -20762.125 
Loop time of 137.728 on 1 procs for 1505 steps with 19652 atoms

Performance: 0.944 ns/day, 25.420 hours/ns, 10.927 timesteps/s
98.3% CPU use with 1 MPI tasks x no OpenMP threads

MPI task timing breakdown:
Section |  min time  |  avg time  |  max time  |%varavg| %total
---------------------------------------------------------------
Pair    | 68.594     | 68.594     | 68.594     |   0.0 | 49.80
Neigh   | 64.263     | 64.263     | 64.263     |   0.0 | 46.66
Comm    | 1.2223     | 1.2223     | 1.2223     |   0.0 |  0.89
Output  | 1.5013     | 1.5013     | 1.5013     |   0.0 |  1.09
Modify  | 1.7103     | 1.7103     | 1.7103     |   0.0 |  1.24
Other   |            | 0.4365     |            |       |  0.32

Nlocal:    19652 ave 19652 max 19652 min
Histogram: 1 0 0 0 0 0 0 0 0 0
Nghost:    15008 ave 15008 max 15008 min
Histogram: 1 0 0 0 0 0 0 0 0 0
Neighs:    909332 ave 909332 max 909332 min
Histogram: 1 0 0 0 0 0 0 0 0 0

Total # of neighbors = 909332
Ave neighs/atom = 46.2717
Neighbor list builds = 1505
Dangerous builds not checked
Setting up Verlet run ...
  Unit style    : metal
  Current step  : 86000
  Time step     : 0.001
Per MPI rank memory allocation (min/avg/max) = 18.22 | 18.22 | 18.22 Mbytes
Step Temp Press TotEng PotEng Enthalpy 
   86000    1307.3254   -225.79847   -20685.899   -24006.624   -20762.125 
   86495    1271.9065   -185.02339   -20891.595   -24122.353    -20953.73 
Loop time of 45.5168 on 1 procs for 495 steps with 19652 atoms

Performance: 0.940 ns/day, 25.543 hours/ns, 10.875 timesteps/s
99.0% CPU use with 1 MPI tasks x no OpenMP threads

MPI task timing breakdown:
Section |  min time  |  avg time  |  max time  |%varavg| %total
---------------------------------------------------------------
Pair    | 22.934     | 22.934     | 22.934     |   0.0 | 50.39
Neigh   | 21.445     | 21.445     | 21.445     |   0.0 | 47.11
Comm    | 0.40884    | 0.40884    | 0.40884    |   0.0 |  0.90
Output  | 0.00013518 | 0.00013518 | 0.00013518 |   0.0 |  0.00
Modify  | 0.58225    | 0.58225    | 0.58225    |   0.0 |  1.28
Other   |            | 0.1472     |            |       |  0.32

Nlocal:    19652 ave 19652 max 19652 min
Histogram: 1 0 0 0 0 0 0 0 0 0
Nghost:    15047 ave 15047 max 15047 min
Histogram: 1 0 0 0 0 0 0 0 0 0
Neighs:    914497 ave 914497 max 914497 min
Histogram: 1 0 0 0 0 0 0 0 0 0

Total # of neighbors = 914497
Ave neighs/atom = 46.5346
Neighbor list builds = 495
Dangerous builds not checked
Setting up Verlet run ...
  Unit style    : metal
  Current step  : 86495
  Time step     : 0.001
Per MPI rank memory allocation (min/avg/max) = 18.22 | 18.22 | 18.22 Mbytes
Step Temp Press TotEng PotEng Enthalpy 
   86495    1271.9065   -185.02339   -20891.595   -24122.353    -20953.73 
   88000     1248.337    25.557427   -21015.385   -24186.274   -21006.839 
Loop time of 134.465 on 1 procs for 1505 steps with 19652 atoms

Performance: 0.967 ns/day, 24.818 hours/ns, 11.192 timesteps/s
99.9% CPU use with 1 MPI tasks x no OpenMP threads

MPI task timing breakdown:
Section |  min time  |  avg time  |  max time  |%varavg| %total
---------------------------------------------------------------
Pair    | 67.82      | 67.82      | 67.82      |   0.0 | 50.44
Neigh   | 63.095     | 63.095     | 63.095     |   0.0 | 46.92
Comm    | 1.2198     | 1.2198     | 1.2198     |   0.0 |  0.91
Output  | 0.20325    | 0.20325    | 0.20325    |   0.0 |  0.15
Modify  | 1.6691     | 1.6691     | 1.6691     |   0.0 |  1.24
Other   |            | 0.4578     |            |       |  0.34

Nlocal:    19652 ave 19652 max 19652 min
Histogram: 1 0 0 0 0 0 0 0 0 0
Nghost:    15013 ave 15013 max 15013 min
Histogram: 1 0 0 0 0 0 0 0 0 0
Neighs:    918622 ave 918622 max 918622 min
Histogram: 1 0 0 0 0 0 0 0 0 0

Total # of neighbors = 918622
Ave neighs/atom = 46.7445
Neighbor list builds = 1505
Dangerous builds not checked
Setting up Verlet run ...
  Unit style    : metal
  Current step  : 88000
  Time step     : 0.001
Per MPI rank memory allocation (min/avg/max) = 18.22 | 18.22 | 18.22 Mbytes
Step Temp Press TotEng PotEng Enthalpy 
   88000     1248.337    25.557427   -21015.385   -24186.274   -21006.839 
   88495     1219.534    52.287951   -21208.366   -24306.093   -21190.953 
Loop time of 45.7519 on 1 procs for 495 steps with 19652 atoms

Performance: 0.935 ns/day, 25.674 hours/ns, 10.819 timesteps/s
100.0% CPU use with 1 MPI tasks x no OpenMP threads

MPI task timing breakdown:
Section |  min time  |  avg time  |  max time  |%varavg| %total
---------------------------------------------------------------
Pair    | 23.407     | 23.407     | 23.407     |   0.0 | 51.16
Neigh   | 21.196     | 21.196     | 21.196     |   0.0 | 46.33
Comm    | 0.41943    | 0.41943    | 0.41943    |   0.0 |  0.92
Output  | 0.00012803 | 0.00012803 | 0.00012803 |   0.0 |  0.00
Modify  | 0.56946    | 0.56946    | 0.56946    |   0.0 |  1.24
Other   |            | 0.1594     |            |       |  0.35

Nlocal:    19652 ave 19652 max 19652 min
Histogram: 1 0 0 0 0 0 0 0 0 0
Nghost:    15088 ave 15088 max 15088 min
Histogram: 1 0 0 0 0 0 0 0 0 0
Neighs:    923236 ave 923236 max 923236 min
Histogram: 1 0 0 0 0 0 0 0 0 0

Total # of neighbors = 923236
Ave neighs/atom = 46.9792
Neighbor list builds = 495
Dangerous builds not checked
Setting up Verlet run ...
  Unit style    : metal
  Current step  : 88495
  Time step     : 0.001
Per MPI rank memory allocation (min/avg/max) = 18.22 | 18.22 | 18.22 Mbytes
Step Temp Press TotEng PotEng Enthalpy 
   88495     1219.534    52.287951   -21208.366   -24306.093   -21190.953 
   90000    1196.0983   -25.738149   -21333.382    -24371.58   -21341.927 
Loop time of 134.701 on 1 procs for 1505 steps with 19652 atoms

Performance: 0.965 ns/day, 24.862 hours/ns, 11.173 timesteps/s
99.9% CPU use with 1 MPI tasks x no OpenMP threads

MPI task timing breakdown:
Section |  min time  |  avg time  |  max time  |%varavg| %total
---------------------------------------------------------------
Pair    | 68.319     | 68.319     | 68.319     |   0.0 | 50.72
Neigh   | 62.933     | 62.933     | 62.933     |   0.0 | 46.72
Comm    | 1.2248     | 1.2248     | 1.2248     |   0.0 |  0.91
Output  | 0.08794    | 0.08794    | 0.08794    |   0.0 |  0.07
Modify  | 1.6597     | 1.6597     | 1.6597     |   0.0 |  1.23
Other   |            | 0.476      |            |       |  0.35

Nlocal:    19652 ave 19652 max 19652 min
Histogram: 1 0 0 0 0 0 0 0 0 0
Nghost:    15099 ave 15099 max 15099 min
Histogram: 1 0 0 0 0 0 0 0 0 0
Neighs:    925677 ave 925677 max 925677 min
Histogram: 1 0 0 0 0 0 0 0 0 0

Total # of neighbors = 925677
Ave neighs/atom = 47.1035
Neighbor list builds = 1505
Dangerous builds not checked
Setting up Verlet run ...
  Unit style    : metal
  Current step  : 90000
  Time step     : 0.001
Per MPI rank memory allocation (min/avg/max) = 18.22 | 18.22 | 18.22 Mbytes
Step Temp Press TotEng PotEng Enthalpy 
   90000    1196.0983   -25.738149   -21333.382    -24371.58   -21341.927 
   90495    1164.1431    214.23557   -21513.728   -24470.757   -21442.942 
Loop time of 39.9689 on 1 procs for 495 steps with 19652 atoms

Performance: 1.070 ns/day, 22.429 hours/ns, 12.385 timesteps/s
100.0% CPU use with 1 MPI tasks x no OpenMP threads

MPI task timing breakdown:
Section |  min time  |  avg time  |  max time  |%varavg| %total
---------------------------------------------------------------
Pair    | 19.954     | 19.954     | 19.954     |   0.0 | 49.92
Neigh   | 19.024     | 19.024     | 19.024     |   0.0 | 47.60
Comm    | 0.35553    | 0.35553    | 0.35553    |   0.0 |  0.89
Output  | 0.00014806 | 0.00014806 | 0.00014806 |   0.0 |  0.00
Modify  | 0.49081    | 0.49081    | 0.49081    |   0.0 |  1.23
Other   |            | 0.1446     |            |       |  0.36

Nlocal:    19652 ave 19652 max 19652 min
Histogram: 1 0 0 0 0 0 0 0 0 0
Nghost:    15109 ave 15109 max 15109 min
Histogram: 1 0 0 0 0 0 0 0 0 0
Neighs:    930884 ave 930884 max 930884 min
Histogram: 1 0 0 0 0 0 0 0 0 0

Total # of neighbors = 930884
Ave neighs/atom = 47.3684
Neighbor list builds = 495
Dangerous builds not checked
Setting up Verlet run ...
  Unit style    : metal
  Current step  : 90495
  Time step     : 0.001
Per MPI rank memory allocation (min/avg/max) = 18.22 | 18.22 | 18.22 Mbytes
Step Temp Press TotEng PotEng Enthalpy 
   90495    1164.1431    214.23557   -21513.728   -24470.757   -21442.942 
   92000    1136.0443   -806.49599   -21659.165   -24544.821   -21925.957 
Loop time of 131.922 on 1 procs for 1505 steps with 19652 atoms

[...]
Setting up Verlet run ...
  Unit style    : metal
  Current step  : 120000
  Time step     : 0.001
Per MPI rank memory allocation (min/avg/max) = 18.22 | 18.22 | 18.22 Mbytes
Step Temp Press TotEng PotEng Enthalpy 
  120000     445.9972   -328.22995   -26153.971   -27286.845   -26252.385 
  120495    423.06058    290.67975   -26304.224   -27378.836   -26217.488 
Loop time of 49.3995 on 1 procs for 495 steps with 19652 atoms

Performance: 0.866 ns/day, 27.721 hours/ns, 10.020 timesteps/s
100.0% CPU use with 1 MPI tasks x no OpenMP threads

MPI task timing breakdown:
Section |  min time  |  avg time  |  max time  |%varavg| %total
---------------------------------------------------------------
Pair    | 25.193     | 25.193     | 25.193     |   0.0 | 51.00
Neigh   | 23.04      | 23.04      | 23.04      |   0.0 | 46.64
Comm    | 0.42449    | 0.42449    | 0.42449    |   0.0 |  0.86
Output  | 0.000139   | 0.000139   | 0.000139   |   0.0 |  0.00
Modify  | 0.57698    | 0.57698    | 0.57698    |   0.0 |  1.17
Other   |            | 0.165      |            |       |  0.33

Nlocal:    19652 ave 19652 max 19652 min
Histogram: 1 0 0 0 0 0 0 0 0 0
Nghost:    15871 ave 15871 max 15871 min
Histogram: 1 0 0 0 0 0 0 0 0 0
Neighs:    1.04982e+06 ave 1.04982e+06 max 1.04982e+06 min
Histogram: 1 0 0 0 0 0 0 0 0 0

Total # of neighbors = 1049822
Ave neighs/atom = 53.4206
Neighbor list builds = 495
Dangerous builds not checked
Setting up Verlet run ...
  Unit style    : metal
  Current step  : 120495
  Time step     : 0.001
Per MPI rank memory allocation (min/avg/max) = 18.22 | 18.22 | 18.22 Mbytes
Step Temp Press TotEng PotEng Enthalpy 
  120495    423.06058    290.67975   -26304.224   -27378.836   -26217.488 
  122000    400.37152     132.7802   -26448.529   -27465.509   -26409.006 
Loop time of 152.842 on 1 procs for 1505 steps with 19652 atoms

Performance: 0.851 ns/day, 28.210 hours/ns, 9.847 timesteps/s
99.6% CPU use with 1 MPI tasks x no OpenMP threads

MPI task timing breakdown:
Section |  min time  |  avg time  |  max time  |%varavg| %total
---------------------------------------------------------------
Pair    | 78.103     | 78.103     | 78.103     |   0.0 | 51.10
Neigh   | 71.07      | 71.07      | 71.07      |   0.0 | 46.50
Comm    | 1.3237     | 1.3237     | 1.3237     |   0.0 |  0.87
Output  | 0.059669   | 0.059669   | 0.059669   |   0.0 |  0.04
Modify  | 1.7818     | 1.7818     | 1.7818     |   0.0 |  1.17
Other   |            | 0.5036     |            |       |  0.33

Nlocal:    19652 ave 19652 max 19652 min
Histogram: 1 0 0 0 0 0 0 0 0 0
Nghost:    15859 ave 15859 max 15859 min
Histogram: 1 0 0 0 0 0 0 0 0 0
Neighs:    1.0537e+06 ave 1.0537e+06 max 1.0537e+06 min
Histogram: 1 0 0 0 0 0 0 0 0 0

Total # of neighbors = 1053700
Ave neighs/atom = 53.618
Neighbor list builds = 1505
Dangerous builds not checked
Setting up Verlet run ...
  Unit style    : metal
  Current step  : 122000
  Time step     : 0.001
Per MPI rank memory allocation (min/avg/max) = 18.22 | 18.22 | 18.22 Mbytes
Step Temp Press TotEng PotEng Enthalpy 
  122000    400.37152     132.7802   -26448.529   -27465.509   -26409.006 
  122495    373.32659   -123.33632    -26610.03   -27558.314   -26646.665 
Loop time of 50.1031 on 1 procs for 495 steps with 19652 atoms

Performance: 0.854 ns/day, 28.116 hours/ns, 9.880 timesteps/s
100.0% CPU use with 1 MPI tasks x no OpenMP threads

MPI task timing breakdown:
Section |  min time  |  avg time  |  max time  |%varavg| %total
---------------------------------------------------------------
Pair    | 25.559     | 25.559     | 25.559     |   0.0 | 51.01
Neigh   | 23.377     | 23.377     | 23.377     |   0.0 | 46.66
Comm    | 0.42264    | 0.42264    | 0.42264    |   0.0 |  0.84
Output  | 0.00012994 | 0.00012994 | 0.00012994 |   0.0 |  0.00
Modify  | 0.58931    | 0.58931    | 0.58931    |   0.0 |  1.18
Other   |            | 0.1553     |            |       |  0.31

Nlocal:    19652 ave 19652 max 19652 min
Histogram: 1 0 0 0 0 0 0 0 0 0
Nghost:    15840 ave 15840 max 15840 min
Histogram: 1 0 0 0 0 0 0 0 0 0
Neighs:    1.05707e+06 ave 1.05707e+06 max 1.05707e+06 min
Histogram: 1 0 0 0 0 0 0 0 0 0

Total # of neighbors = 1057070
Ave neighs/atom = 53.7894
Neighbor list builds = 495
Dangerous builds not checked
Setting up Verlet run ...
  Unit style    : metal
  Current step  : 122495
  Time step     : 0.001
Per MPI rank memory allocation (min/avg/max) = 18.22 | 18.22 | 18.22 Mbytes
Step Temp Press TotEng PotEng Enthalpy 
  122495    373.32659   -123.33632    -26610.03   -27558.314   -26646.665 
  124000    351.36604   -73.752861   -26756.871   -27649.373    -26778.71 
Loop time of 151.944 on 1 procs for 1505 steps with 19652 atoms

Performance: 0.856 ns/day, 28.044 hours/ns, 9.905 timesteps/s
99.5% CPU use with 1 MPI tasks x no OpenMP threads

MPI task timing breakdown:
Section |  min time  |  avg time  |  max time  |%varavg| %total
---------------------------------------------------------------
Pair    | 77.333     | 77.333     | 77.333     |   0.0 | 50.90
Neigh   | 70.647     | 70.647     | 70.647     |   0.0 | 46.50
Comm    | 1.269      | 1.269      | 1.269      |   0.0 |  0.84
Output  | 0.45132    | 0.45132    | 0.45132    |   0.0 |  0.30
Modify  | 1.7794     | 1.7794     | 1.7794     |   0.0 |  1.17
Other   |            | 0.4644     |            |       |  0.31

Nlocal:    19652 ave 19652 max 19652 min
Histogram: 1 0 0 0 0 0 0 0 0 0
Nghost:    15962 ave 15962 max 15962 min
Histogram: 1 0 0 0 0 0 0 0 0 0
Neighs:    1.0613e+06 ave 1.0613e+06 max 1.0613e+06 min
Histogram: 1 0 0 0 0 0 0 0 0 0

Total # of neighbors = 1061299
Ave neighs/atom = 54.0046
Neighbor list builds = 1505
Dangerous builds not checked
Setting up Verlet run ...
  Unit style    : metal
  Current step  : 124000
  Time step     : 0.001
Per MPI rank memory allocation (min/avg/max) = 18.22 | 18.22 | 18.22 Mbytes
Step Temp Press TotEng PotEng Enthalpy 
  124000    351.36604   -73.752861   -26756.871   -27649.373    -26778.71 
  124495    321.35572   -24.814078   -26909.129   -27725.402   -26916.457 
Loop time of 56.4914 on 1 procs for 495 steps with 19652 atoms

Performance: 0.757 ns/day, 31.701 hours/ns, 8.762 timesteps/s
99.8% CPU use with 1 MPI tasks x no OpenMP threads

MPI task timing breakdown:
Section |  min time  |  avg time  |  max time  |%varavg| %total
---------------------------------------------------------------
Pair    | 29.272     | 29.272     | 29.272     |   0.0 | 51.82
Neigh   | 25.857     | 25.857     | 25.857     |   0.0 | 45.77
Comm    | 0.51435    | 0.51435    | 0.51435    |   0.0 |  0.91
Output  | 0.00014687 | 0.00014687 | 0.00014687 |   0.0 |  0.00
Modify  | 0.66326    | 0.66326    | 0.66326    |   0.0 |  1.17
Other   |            | 0.1849     |            |       |  0.33

Nlocal:    19652 ave 19652 max 19652 min
Histogram: 1 0 0 0 0 0 0 0 0 0
Nghost:    15898 ave 15898 max 15898 min
Histogram: 1 0 0 0 0 0 0 0 0 0
Neighs:    1.06505e+06 ave 1.06505e+06 max 1.06505e+06 min
Histogram: 1 0 0 0 0 0 0 0 0 0

Total # of neighbors = 1065051
Ave neighs/atom = 54.1956
Neighbor list builds = 495
Dangerous builds not checked
Setting up Verlet run ...
  Unit style    : metal
  Current step  : 124495
  Time step     : 0.001
Per MPI rank memory allocation (min/avg/max) = 18.22 | 18.22 | 18.22 Mbytes
Step Temp Press TotEng PotEng Enthalpy 
  124495    321.35572   -24.814078   -26909.129   -27725.402   -26916.457 
  126000    300.31925     311.0003    -27050.65   -27813.489   -26959.168 
Loop time of 148.066 on 1 procs for 1505 steps with 19652 atoms

Performance: 0.878 ns/day, 27.328 hours/ns, 10.164 timesteps/s
99.1% CPU use with 1 MPI tasks x no OpenMP threads

MPI task timing breakdown:
Section |  min time  |  avg time  |  max time  |%varavg| %total
---------------------------------------------------------------
Pair    | 74.89      | 74.89      | 74.89      |   0.0 | 50.58
Neigh   | 68.456     | 68.456     | 68.456     |   0.0 | 46.23
Comm    | 1.2416     | 1.2416     | 1.2416     |   0.0 |  0.84
Output  | 1.2809     | 1.2809     | 1.2809     |   0.0 |  0.87
Modify  | 1.7055     | 1.7055     | 1.7055     |   0.0 |  1.15
Other   |            | 0.4917     |            |       |  0.33

Nlocal:    19652 ave 19652 max 19652 min
Histogram: 1 0 0 0 0 0 0 0 0 0
Nghost:    15925 ave 15925 max 15925 min
Histogram: 1 0 0 0 0 0 0 0 0 0
Neighs:    1.07002e+06 ave 1.07002e+06 max 1.07002e+06 min
Histogram: 1 0 0 0 0 0 0 0 0 0

Total # of neighbors = 1070015
Ave neighs/atom = 54.4481
Neighbor list builds = 1505
Dangerous builds not checked
Setting up Verlet run ...
  Unit style    : metal
  Current step  : 126000
  Time step     : 0.001
Per MPI rank memory allocation (min/avg/max) = 18.22 | 18.22 | 18.22 Mbytes
Step Temp Press TotEng PotEng Enthalpy 
  126000    300.31925     311.0003    -27050.65   -27813.489   -26959.168 
  126495    274.43153    112.27085   -27194.693   -27891.774   -27161.723 
Loop time of 47.8041 on 1 procs for 495 steps with 19652 atoms

Performance: 0.895 ns/day, 26.826 hours/ns, 10.355 timesteps/s
100.0% CPU use with 1 MPI tasks x no OpenMP threads

MPI task timing breakdown:
Section |  min time  |  avg time  |  max time  |%varavg| %total
---------------------------------------------------------------
Pair    | 24.395     | 24.395     | 24.395     |   0.0 | 51.03
Neigh   | 22.279     | 22.279     | 22.279     |   0.0 | 46.60
Comm    | 0.39778    | 0.39778    | 0.39778    |   0.0 |  0.83
Output  | 0.00013494 | 0.00013494 | 0.00013494 |   0.0 |  0.00
Modify  | 0.56593    | 0.56593    | 0.56593    |   0.0 |  1.18
Other   |            | 0.1661     |            |       |  0.35

Nlocal:    19652 ave 19652 max 19652 min
Histogram: 1 0 0 0 0 0 0 0 0 0
Nghost:    15926 ave 15926 max 15926 min
Histogram: 1 0 0 0 0 0 0 0 0 0
Neighs:    1.07254e+06 ave 1.07254e+06 max 1.07254e+06 min
Histogram: 1 0 0 0 0 0 0 0 0 0

Total # of neighbors = 1072543
Ave neighs/atom = 54.5768
Neighbor list builds = 495
Dangerous builds not checked
Setting up Verlet run ...
  Unit style    : metal
  Current step  : 126495
  Time step     : 0.001
Per MPI rank memory allocation (min/avg/max) = 18.22 | 18.22 | 18.22 Mbytes
Step Temp Press TotEng PotEng Enthalpy 
  126495    274.43153    112.27085   -27194.693   -27891.774   -27161.723 
  128000     251.1771    199.09219   -27335.203   -27973.216   -27276.907 
Loop time of 147.967 on 1 procs for 1505 steps with 19652 atoms

Performance: 0.879 ns/day, 27.310 hours/ns, 10.171 timesteps/s
99.9% CPU use with 1 MPI tasks x no OpenMP threads

MPI task timing breakdown:
Section |  min time  |  avg time  |  max time  |%varavg| %total
---------------------------------------------------------------
Pair    | 75.694     | 75.694     | 75.694     |   0.0 | 51.16
Neigh   | 68.628     | 68.628     | 68.628     |   0.0 | 46.38
Comm    | 1.2868     | 1.2868     | 1.2868     |   0.0 |  0.87
Output  | 0.13388    | 0.13388    | 0.13388    |   0.0 |  0.09
Modify  | 1.7242     | 1.7242     | 1.7242     |   0.0 |  1.17
Other   |            | 0.5005     |            |       |  0.34

Nlocal:    19652 ave 19652 max 19652 min
Histogram: 1 0 0 0 0 0 0 0 0 0
Nghost:    15949 ave 15949 max 15949 min
Histogram: 1 0 0 0 0 0 0 0 0 0
Neighs:    1.07644e+06 ave 1.07644e+06 max 1.07644e+06 min
Histogram: 1 0 0 0 0 0 0 0 0 0

Total # of neighbors = 1076442
Ave neighs/atom = 54.7752
Neighbor list builds = 1505
Dangerous builds not checked
Setting up Verlet run ...
  Unit style    : metal
  Current step  : 128000
  Time step     : 0.001
Per MPI rank memory allocation (min/avg/max) = 18.22 | 18.22 | 18.22 Mbytes
Step Temp Press TotEng PotEng Enthalpy 
  128000     251.1771    199.09219   -27335.203   -27973.216   -27276.907 
  128495    224.94112    237.25106   -27472.732   -28044.103   -27403.418 
Loop time of 49.7044 on 1 procs for 495 steps with 19652 atoms

Performance: 0.860 ns/day, 27.892 hours/ns, 9.959 timesteps/s
100.0% CPU use with 1 MPI tasks x no OpenMP threads

MPI task timing breakdown:
Section |  min time  |  avg time  |  max time  |%varavg| %total
---------------------------------------------------------------
Pair    | 25.521     | 25.521     | 25.521     |   0.0 | 51.35
Neigh   | 22.992     | 22.992     | 22.992     |   0.0 | 46.26
Comm    | 0.43805    | 0.43805    | 0.43805    |   0.0 |  0.88
Output  | 0.00014591 | 0.00014591 | 0.00014591 |   0.0 |  0.00
Modify  | 0.5843     | 0.5843     | 0.5843     |   0.0 |  1.18
Other   |            | 0.1687     |            |       |  0.34

Nlocal:    19652 ave 19652 max 19652 min
Histogram: 1 0 0 0 0 0 0 0 0 0
Nghost:    15966 ave 15966 max 15966 min
Histogram: 1 0 0 0 0 0 0 0 0 0
Neighs:    1.0796e+06 ave 1.0796e+06 max 1.0796e+06 min
Histogram: 1 0 0 0 0 0 0 0 0 0

Total # of neighbors = 1079595
Ave neighs/atom = 54.9356
Neighbor list builds = 495
Dangerous builds not checked
Setting up Verlet run ...
  Unit style    : metal
  Current step  : 128495
  Time step     : 0.001
Per MPI rank memory allocation (min/avg/max) = 18.22 | 18.22 | 18.22 Mbytes
Step Temp Press TotEng PotEng Enthalpy 
  128495    224.94112    237.25106   -27472.732   -28044.103   -27403.418 
  130000    199.27649    -21.00715   -27611.631   -28117.812   -27617.759 
Loop time of 142.462 on 1 procs for 1505 steps with 19652 atoms

Performance: 0.913 ns/day, 26.294 hours/ns, 10.564 timesteps/s
99.9% CPU use with 1 MPI tasks x no OpenMP threads

MPI task timing breakdown:
Section |  min time  |  avg time  |  max time  |%varavg| %total
---------------------------------------------------------------
Pair    | 72.506     | 72.506     | 72.506     |   0.0 | 50.89
Neigh   | 66.535     | 66.535     | 66.535     |   0.0 | 46.70
Comm    | 1.1874     | 1.1874     | 1.1874     |   0.0 |  0.83
Output  | 0.10115    | 0.10115    | 0.10115    |   0.0 |  0.07
Modify  | 1.6499     | 1.6499     | 1.6499     |   0.0 |  1.16
Other   |            | 0.4825     |            |       |  0.34

Nlocal:    19652 ave 19652 max 19652 min
Histogram: 1 0 0 0 0 0 0 0 0 0
Nghost:    15982 ave 15982 max 15982 min
Histogram: 1 0 0 0 0 0 0 0 0 0
Neighs:    1.0822e+06 ave 1.0822e+06 max 1.0822e+06 min
Histogram: 1 0 0 0 0 0 0 0 0 0

Total # of neighbors = 1082199
Ave neighs/atom = 55.0681
Neighbor list builds = 1505
Dangerous builds not checked
Setting up Verlet run ...
  Unit style    : metal
  Current step  : 130000
  Time step     : 0.001
Per MPI rank memory allocation (min/avg/max) = 18.22 | 18.22 | 18.22 Mbytes
Step Temp Press TotEng PotEng Enthalpy 
  130000    199.27649    -21.00715   -27611.631   -28117.812   -27617.759 
  130495    176.41652       5.4482    -27740.62   -28188.734   -27739.035 
Loop time of 43.845 on 1 procs for 495 steps with 19652 atoms

Performance: 0.975 ns/day, 24.604 hours/ns, 11.290 timesteps/s
99.9% CPU use with 1 MPI tasks x no OpenMP threads

MPI task timing breakdown:
Section |  min time  |  avg time  |  max time  |%varavg| %total
---------------------------------------------------------------
Pair    | 22.198     | 22.198     | 22.198     |   0.0 | 50.63
Neigh   | 20.641     | 20.641     | 20.641     |   0.0 | 47.08
Comm    | 0.35406    | 0.35406    | 0.35406    |   0.0 |  0.81
Output  | 0.00011301 | 0.00011301 | 0.00011301 |   0.0 |  0.00
Modify  | 0.50058    | 0.50058    | 0.50058    |   0.0 |  1.14
Other   |            | 0.1507     |            |       |  0.34

Nlocal:    19652 ave 19652 max 19652 min
Histogram: 1 0 0 0 0 0 0 0 0 0
Nghost:    15975 ave 15975 max 15975 min
Histogram: 1 0 0 0 0 0 0 0 0 0
Neighs:    1.08517e+06 ave 1.08517e+06 max 1.08517e+06 min
Histogram: 1 0 0 0 0 0 0 0 0 0

Total # of neighbors = 1085167
Ave neighs/atom = 55.2192
Neighbor list builds = 495
Dangerous builds not checked
Setting up Verlet run ...
  Unit style    : metal
  Current step  : 130495
  Time step     : 0.001
Per MPI rank memory allocation (min/avg/max) = 18.22 | 18.22 | 18.22 Mbytes
Step Temp Press TotEng PotEng Enthalpy 
  130495    176.41652       5.4482    -27740.62   -28188.734   -27739.035 
  132000    149.16598    173.47492   -27885.321   -28264.216   -27834.978 
Loop time of 141.155 on 1 procs for 1505 steps with 19652 atoms

Performance: 0.921 ns/day, 26.053 hours/ns, 10.662 timesteps/s
99.4% CPU use with 1 MPI tasks x no OpenMP threads

MPI task timing breakdown:
Section |  min time  |  avg time  |  max time  |%varavg| %total
---------------------------------------------------------------
Pair    | 71.617     | 71.617     | 71.617     |   0.0 | 50.74
Neigh   | 65.573     | 65.573     | 65.573     |   0.0 | 46.45
Comm    | 1.1548     | 1.1548     | 1.1548     |   0.0 |  0.82
Output  | 0.73511    | 0.73511    | 0.73511    |   0.0 |  0.52
Modify  | 1.6118     | 1.6118     | 1.6118     |   0.0 |  1.14
Other   |            | 0.4637     |            |       |  0.33

Nlocal:    19652 ave 19652 max 19652 min
Histogram: 1 0 0 0 0 0 0 0 0 0
Nghost:    15994 ave 15994 max 15994 min
Histogram: 1 0 0 0 0 0 0 0 0 0
Neighs:    1.08903e+06 ave 1.08903e+06 max 1.08903e+06 min
Histogram: 1 0 0 0 0 0 0 0 0 0

Total # of neighbors = 1089030
Ave neighs/atom = 55.4157
Neighbor list builds = 1505
Dangerous builds not checked
Setting up Verlet run ...
  Unit style    : metal
  Current step  : 132000
  Time step     : 0.001
Per MPI rank memory allocation (min/avg/max) = 18.22 | 18.22 | 18.22 Mbytes
Step Temp Press TotEng PotEng Enthalpy 
  132000    149.16598    173.47492   -27885.321   -28264.216   -27834.978 
  132495    127.49911   -235.95287   -28002.235   -28326.094   -28070.663 
Loop time of 45.1502 on 1 procs for 495 steps with 19652 atoms

Performance: 0.947 ns/day, 25.337 hours/ns, 10.963 timesteps/s
100.0% CPU use with 1 MPI tasks x no OpenMP threads

MPI task timing breakdown:
Section |  min time  |  avg time  |  max time  |%varavg| %total
---------------------------------------------------------------
Pair    | 22.988     | 22.988     | 22.988     |   0.0 | 50.91
Neigh   | 21.121     | 21.121     | 21.121     |   0.0 | 46.78
Comm    | 0.37265    | 0.37265    | 0.37265    |   0.0 |  0.83
Output  | 0.00014687 | 0.00014687 | 0.00014687 |   0.0 |  0.00
Modify  | 0.51644    | 0.51644    | 0.51644    |   0.0 |  1.14
Other   |            | 0.1526     |            |       |  0.34

Nlocal:    19652 ave 19652 max 19652 min
Histogram: 1 0 0 0 0 0 0 0 0 0
Nghost:    15986 ave 15986 max 15986 min
Histogram: 1 0 0 0 0 0 0 0 0 0
Neighs:    1.08999e+06 ave 1.08999e+06 max 1.08999e+06 min
Histogram: 1 0 0 0 0 0 0 0 0 0

Total # of neighbors = 1089992
Ave neighs/atom = 55.4647
Neighbor list builds = 495
Dangerous builds not checked
Setting up Verlet run ...
  Unit style    : metal
  Current step  : 132495
  Time step     : 0.001
Per MPI rank memory allocation (min/avg/max) = 18.22 | 18.22 | 18.22 Mbytes
Step Temp Press TotEng PotEng Enthalpy 
  132495    127.49911   -235.95287   -28002.235   -28326.094   -28070.663 
  134000    99.533264    13.468856   -28150.913   -28403.736   -28147.019 
Loop time of 137.002 on 1 procs for 1505 steps with 19652 atoms

Performance: 0.949 ns/day, 25.286 hours/ns, 10.985 timesteps/s
98.4% CPU use with 1 MPI tasks x no OpenMP threads

MPI task timing breakdown:
Section |  min time  |  avg time  |  max time  |%varavg| %total
---------------------------------------------------------------
Pair    | 68.387     | 68.387     | 68.387     |   0.0 | 49.92
Neigh   | 63.314     | 63.314     | 63.314     |   0.0 | 46.21
Comm    | 1.132      | 1.132      | 1.132      |   0.0 |  0.83
Output  | 2.1847     | 2.1847     | 2.1847     |   0.0 |  1.59
Modify  | 1.5313     | 1.5313     | 1.5313     |   0.0 |  1.12
Other   |            | 0.453      |            |       |  0.33

Nlocal:    19652 ave 19652 max 19652 min
Histogram: 1 0 0 0 0 0 0 0 0 0
Nghost:    16038 ave 16038 max 16038 min
Histogram: 1 0 0 0 0 0 0 0 0 0
Neighs:    1.09416e+06 ave 1.09416e+06 max 1.09416e+06 min
Histogram: 1 0 0 0 0 0 0 0 0 0

Total # of neighbors = 1094159
Ave neighs/atom = 55.6767
Neighbor list builds = 1505
Dangerous builds not checked
Total wall time: 3:32:46
