LAMMPS (12 Dec 2018)
Lattice spacing in x,y,z = 4 4 4
Created orthogonal box = (0 0 0) to (68 68 68)
  1 by 1 by 1 MPI processor grid
Created 19652 atoms
  Time spent = 0.00436616 secs
Setting atom values ...
  19652 settings made for type/fraction
Neighbor list info ...
  update every 1 steps, delay 0 steps, check no
  max neighbors/atom: 2000, page size: 100000
  master list distance cutoff = 8.5
  ghost atom cutoff = 8.5
  binsize = 4.25, bins = 16 16 16
  1 neighbor lists, perpetual/occasional/extra = 1 0 0
  (1) pair eam/alloy, perpetual
      attributes: half, newton on
      pair build: half/bin/atomonly/newton
      stencil: half/bin/3d/newton
      bin: standard
Setting up Verlet run ...
  Unit style    : metal
  Current step  : 0
  Time step     : 0.001
Per MPI rank memory allocation (min/avg/max) = 18.19 | 18.19 | 18.19 Mbytes
Step Temp Press TotEng PotEng Enthalpy Volume 
       0          300    646743.88   -38638.853    -39400.88    88286.597       314432 
     667    897.41183    637772.13   -38639.053   -40918.561    86525.663       314432 
    1000    914.77005    639445.62   -38639.068   -40962.667    86854.075       314432 
Loop time of 160.7 on 1 procs for 1000 steps with 19652 atoms

Performance: 0.538 ns/day, 44.639 hours/ns, 6.223 timesteps/s
97.9% CPU use with 1 MPI tasks x no OpenMP threads

MPI task timing breakdown:
Section |  min time  |  avg time  |  max time  |%varavg| %total
---------------------------------------------------------------
Pair    | 89.123     | 89.123     | 89.123     |   0.0 | 55.46
Neigh   | 69.597     | 69.597     | 69.597     |   0.0 | 43.31
Comm    | 1.147      | 1.147      | 1.147      |   0.0 |  0.71
Output  | 0.067251   | 0.067251   | 0.067251   |   0.0 |  0.04
Modify  | 0.39949    | 0.39949    | 0.39949    |   0.0 |  0.25
Other   |            | 0.3667     |            |       |  0.23

Nlocal:    19652 ave 19652 max 19652 min
Histogram: 1 0 0 0 0 0 0 0 0 0
Nghost:    18825 ave 18825 max 18825 min
Histogram: 1 0 0 0 0 0 0 0 0 0
Neighs:    1.58336e+06 ave 1.58336e+06 max 1.58336e+06 min
Histogram: 1 0 0 0 0 0 0 0 0 0

Total # of neighbors = 1583365
Ave neighs/atom = 80.5702
Neighbor list builds = 1000
Dangerous builds not checked
Setting up Verlet run ...
  Unit style    : metal
  Current step  : 1000
  Time step     : 0.001
Per MPI rank memory allocation (min/avg/max) = 18.19 | 18.19 | 18.19 Mbytes
Step Temp Press TotEng PotEng Enthalpy Volume 
    1000    914.77005    639445.62   -38639.068   -40962.667    86854.075       314432 
    1334    663.57426    105695.46   -74906.609   -76592.148   -40950.893    514715.12 
    2000    351.26444   -143.53893   -81672.567   -82564.811   -81730.869    650763.34 
Loop time of 107.356 on 1 procs for 1000 steps with 19652 atoms

Performance: 0.805 ns/day, 29.821 hours/ns, 9.315 timesteps/s
97.4% CPU use with 1 MPI tasks x no OpenMP threads

MPI task timing breakdown:
Section |  min time  |  avg time  |  max time  |%varavg| %total
---------------------------------------------------------------
Pair    | 54.958     | 54.958     | 54.958     |   0.0 | 51.19
Neigh   | 49.599     | 49.599     | 49.599     |   0.0 | 46.20
Comm    | 0.99538    | 0.99538    | 0.99538    |   0.0 |  0.93
Output  | 0.10664    | 0.10664    | 0.10664    |   0.0 |  0.10
Modify  | 1.3474     | 1.3474     | 1.3474     |   0.0 |  1.26
Other   |            | 0.3488     |            |       |  0.32

Nlocal:    19652 ave 19652 max 19652 min
Histogram: 1 0 0 0 0 0 0 0 0 0
Nghost:    13996 ave 13996 max 13996 min
Histogram: 1 0 0 0 0 0 0 0 0 0
Neighs:    719940 ave 719940 max 719940 min
Histogram: 1 0 0 0 0 0 0 0 0 0

Total # of neighbors = 719940
Ave neighs/atom = 36.6344
Neighbor list builds = 1000
Dangerous builds not checked
Setting up Verlet run ...
  Unit style    : metal
  Current step  : 2000
  Time step     : 0.001
Per MPI rank memory allocation (min/avg/max) = 18.2 | 18.2 | 18.2 Mbytes
Step Temp Press TotEng PotEng Enthalpy Volume 
    2000    351.26444   -143.53893   -81672.567   -82564.811   -81730.869    650763.34 
    2001    351.77523   -143.47381   -81672.582   -82566.123   -81730.858    650763.23 
    2668    434.57894   -10.808467   -81577.989   -82681.859   -81582.383    651442.77 
    3335    605.43413    340.21869   -80825.851   -82363.709   -80687.001    653881.37 
    4002    798.72041     410.7949   -79818.704   -81847.527   -79650.001    657972.37 
    4669    993.48001   -555.87633   -78765.634   -81289.164   -78995.923    663751.34 
    5336     1184.658   -350.10012   -77702.859   -80711.999   -77848.737    667587.49 
    6003    1352.1258    91.459119   -76605.119   -80039.641   -76566.775    671697.97 
    6670     1531.813    802.76948   -75433.009   -79323.953    -75094.39    675818.69 
    7337    1699.8819    573.59941    -74206.13   -78523.984   -73961.963    682005.11 
    8004     1896.966    342.38367   -72998.016   -77816.482   -72851.053    687707.42 
    8671    2089.1576   -2.1099966   -71754.511   -77061.161   -71755.426    694775.28 
    9338    2264.2262    31.655209   -70674.154   -76425.495   -70660.329    699748.68 
   10000     2439.477     -207.748   -69596.497   -75792.991   -69687.984    705558.22 
Loop time of 725.71 on 1 procs for 8000 steps with 19652 atoms

Performance: 0.952 ns/day, 25.198 hours/ns, 11.024 timesteps/s
98.0% CPU use with 1 MPI tasks x no OpenMP threads

MPI task timing breakdown:
Section |  min time  |  avg time  |  max time  |%varavg| %total
---------------------------------------------------------------
Pair    | 349.59     | 349.59     | 349.59     |   0.0 | 48.17
Neigh   | 351.95     | 351.95     | 351.95     |   0.0 | 48.50
Comm    | 7.6848     | 7.6848     | 7.6848     |   0.0 |  1.06
Output  | 2.2087     | 2.2087     | 2.2087     |   0.0 |  0.30
Modify  | 11.407     | 11.407     | 11.407     |   0.0 |  1.57
Other   |            | 2.873      |            |       |  0.40

Nlocal:    19652 ave 19652 max 19652 min
Histogram: 1 0 0 0 0 0 0 0 0 0
Nghost:    13537 ave 13537 max 13537 min
Histogram: 1 0 0 0 0 0 0 0 0 0
Neighs:    683943 ave 683943 max 683943 min
Histogram: 1 0 0 0 0 0 0 0 0 0

Total # of neighbors = 683943
Ave neighs/atom = 34.8027
Neighbor list builds = 8000
Dangerous builds not checked
Setting up Verlet run ...
  Unit style    : metal
  Current step  : 10000
  Time step     : 0.001
Per MPI rank memory allocation (min/avg/max) = 18.2 | 18.2 | 18.2 Mbytes
Step Temp Press TotEng PotEng Enthalpy Volume 
   10000     2439.477     -207.748   -69596.497   -75792.991   -69687.984    705558.22 
   10005    2436.6814   -188.04064   -69596.424   -75785.817   -69679.233    705557.66 
   10672    2439.8744   -265.83437   -69356.191   -75553.695   -69473.548     707303.9 
   11339    2467.4027   -799.82354   -69372.292    -75639.72   -69726.059     708653.5 
   12006    2441.6063   -636.04973   -69378.761   -75580.663   -69659.951    708302.42 
   12673    2483.0364   -272.79211   -69357.636   -75664.775   -69478.107    707555.89 
   13340    2447.8071   -863.60248   -69383.425   -75601.078   -69765.627    709071.52 
   14007    2458.1746   -611.07799   -69381.575   -75625.563   -69651.852    708635.13 
   14674    2461.1462    -312.4163   -69348.693   -75600.228   -69486.699     707742.3 
   15341    2449.1335    478.67368   -69406.846   -75627.868   -69196.105    705374.58 
   16008    2467.7068    936.89785   -69368.851   -75637.051   -68956.905    704463.59 
   16675    2448.2902    569.20895   -69414.849   -75633.729   -69164.377       705014 
   17342    2440.8854    254.78775   -69456.234   -75656.305   -69344.038    705518.75 
   18009    2434.2829    430.25435   -69494.485   -75677.785    -69305.12    705155.12 
   18676    2434.2921    383.22388   -69491.654   -75674.978    -69322.95    705315.58 
   19343    2433.1814    267.98047   -69499.026   -75679.529   -69381.034    705442.95 
   20010    2430.9982    194.01286   -69412.825   -75587.782   -69327.244    706735.24 
   20677    2483.5436    631.05442   -69363.746   -75672.173   -69085.858    705527.97 
   21344    2443.5034    50.924715   -69408.071   -75614.792   -69385.617    706449.41 
   22011    2423.6576   -265.82076   -69478.389     -75634.7   -69595.728    707233.97 
   22678    2430.0237    64.221552   -69451.722   -75624.203   -69423.413    706249.68 
   23345    2446.8316   -216.86284   -69404.237   -75619.412    -69499.87    706532.39 
   24012    2447.9698   -370.15227   -69402.402   -75620.468   -69565.856     707498.9 
   24679    2440.9125   -628.48645   -69404.302   -75604.442   -69682.094    708165.54 
   25346    2423.7199   -931.55959   -69484.806   -75641.276   -69896.707    708421.67 
   26013    2433.1844   -478.92123   -69416.731   -75597.241   -69628.145    707261.27 
   26680     2448.884    -181.7898   -69491.289   -75711.678    -69571.51     707012.6 
   27347    2460.5624   -32.704026    -69407.19   -75657.242    -69421.61     706457.6 
   28014    2431.1055    807.08008   -69495.472   -75670.702    -69140.83    704019.02 
   28681    2487.1454    1017.5058   -69303.806   -75621.382   -68856.523    704297.79 
   29348    2475.9083     420.7283    -69382.35   -75671.383   -69197.263     704832.4 
   30015    2437.6489     349.0472   -69377.181   -75569.031   -69223.347    706119.96 
   30682    2444.4299    47.116226   -69423.904   -75632.978   -69403.129    706442.39 
   31349    2455.2226      425.463   -69408.592   -75645.081   -69221.222    705583.92 
   32016    2452.6587    797.71283   -69412.173    -75642.15   -69061.399    704516.87 
   32683    2439.4662    1200.8482   -69417.286   -75613.753   -68889.379    704336.19 
   33350    2453.1343    949.20899   -69447.697   -75678.881   -69030.648    703939.01 
   34017    2438.5496    297.71023   -69481.425   -75675.563   -69350.324    705541.06 
   34684    2456.6935    65.027689   -69403.412   -75643.638    -69374.74    706442.88 
   35351    2449.1834    31.558363   -69408.675   -75629.824   -69394.759     706506.2 
   36018     2451.998    456.87376   -69373.654   -75601.952   -69172.417    705700.87 
   36685    2486.3831    1238.6485   -69284.689   -75600.329   -68739.839    704756.01 
   37352    2459.8619    668.39676   -69360.018   -75608.291   -69065.664    705579.58 
   38019    2458.2693    697.89593   -69461.415   -75705.643   -69154.446       704717 
   38686    2444.1916    75.947262   -69385.857   -75594.326    -69352.37    706430.79 
   39353    2448.8265   -513.41134   -69390.729   -75610.972    -69617.52     707732.5 
   40000    2439.2386   -535.77719   -69361.547   -75557.435   -69598.425    708355.38 
Loop time of 2602.97 on 1 procs for 30000 steps with 19652 atoms

Performance: 0.996 ns/day, 24.102 hours/ns, 11.525 timesteps/s
98.4% CPU use with 1 MPI tasks x no OpenMP threads

MPI task timing breakdown:
Section |  min time  |  avg time  |  max time  |%varavg| %total
---------------------------------------------------------------
Pair    | 1224.7     | 1224.7     | 1224.7     |   0.0 | 47.05
Neigh   | 1296.1     | 1296.1     | 1296.1     |   0.0 | 49.79
Comm    | 27.73      | 27.73      | 27.73      |   0.0 |  1.07
Output  | 3.3787     | 3.3787     | 3.3787     |   0.0 |  0.13
Modify  | 40.612     | 40.612     | 40.612     |   0.0 |  1.56
Other   |            | 10.45      |            |       |  0.40

Nlocal:    19652 ave 19652 max 19652 min
Histogram: 1 0 0 0 0 0 0 0 0 0
Nghost:    13432 ave 13432 max 13432 min
Histogram: 1 0 0 0 0 0 0 0 0 0
Neighs:    681987 ave 681987 max 681987 min
Histogram: 1 0 0 0 0 0 0 0 0 0

Total # of neighbors = 681987
Ave neighs/atom = 34.7032
Neighbor list builds = 30000
Dangerous builds not checked
Setting up Verlet run ...
  Unit style    : metal
  Current step  : 40000
  Time step     : 0.001
Per MPI rank memory allocation (min/avg/max) = 18.2 | 18.2 | 18.2 Mbytes
Step Temp Press TotEng PotEng Enthalpy Volume 
   40000    2439.2386   -535.77719   -69361.547   -75557.435   -69598.425    708355.38 
   40020    2441.0498   -597.73388   -69360.466   -75560.955   -69624.727    708329.69 
   40495    2396.0476    177.52806   -69645.565   -75731.745   -69567.459     704901.6 
Loop time of 42.1712 on 1 procs for 495 steps with 19652 atoms

Performance: 1.014 ns/day, 23.665 hours/ns, 11.738 timesteps/s
99.7% CPU use with 1 MPI tasks x no OpenMP threads

MPI task timing breakdown:
Section |  min time  |  avg time  |  max time  |%varavg| %total
---------------------------------------------------------------
Pair    | 19.904     | 19.904     | 19.904     |   0.0 | 47.20
Neigh   | 20.893     | 20.893     | 20.893     |   0.0 | 49.54
Comm    | 0.45026    | 0.45026    | 0.45026    |   0.0 |  1.07
Output  | 0.076246   | 0.076246   | 0.076246   |   0.0 |  0.18
Modify  | 0.67012    | 0.67012    | 0.67012    |   0.0 |  1.59
Other   |            | 0.1776     |            |       |  0.42

Nlocal:    19652 ave 19652 max 19652 min
Histogram: 1 0 0 0 0 0 0 0 0 0
Nghost:    13573 ave 13573 max 13573 min
Histogram: 1 0 0 0 0 0 0 0 0 0
Neighs:    684770 ave 684770 max 684770 min
Histogram: 1 0 0 0 0 0 0 0 0 0

Total # of neighbors = 684770
Ave neighs/atom = 34.8448
Neighbor list builds = 495
Dangerous builds not checked
Setting up Verlet run ...
  Unit style    : metal
  Current step  : 40495
  Time step     : 0.001
Per MPI rank memory allocation (min/avg/max) = 18.2 | 18.2 | 18.2 Mbytes
Step Temp Press TotEng PotEng Enthalpy Volume 
   40495    2396.0476    177.52806   -69645.565   -75731.745   -69567.459     704901.6 
   40667    2390.3858    78.260258   -69696.867   -75768.665   -69662.397    705678.43 
Loop time of 12.4271 on 1 procs for 172 steps with 19652 atoms

Performance: 1.196 ns/day, 20.070 hours/ns, 13.841 timesteps/s
99.8% CPU use with 1 MPI tasks x no OpenMP threads

MPI task timing breakdown:
Section |  min time  |  avg time  |  max time  |%varavg| %total
---------------------------------------------------------------
Pair    | 5.7651     | 5.7651     | 5.7651     |   0.0 | 46.39
Neigh   | 6.2857     | 6.2857     | 6.2857     |   0.0 | 50.58
Comm    | 0.12974    | 0.12974    | 0.12974    |   0.0 |  1.04
Output  | 0.00017095 | 0.00017095 | 0.00017095 |   0.0 |  0.00
Modify  | 0.19322    | 0.19322    | 0.19322    |   0.0 |  1.55
Other   |            | 0.05316    |            |       |  0.43

Nlocal:    19652 ave 19652 max 19652 min
Histogram: 1 0 0 0 0 0 0 0 0 0
Nghost:    13563 ave 13563 max 13563 min
Histogram: 1 0 0 0 0 0 0 0 0 0
Neighs:    684215 ave 684215 max 684215 min
Histogram: 1 0 0 0 0 0 0 0 0 0

Total # of neighbors = 684215
Ave neighs/atom = 34.8166
Neighbor list builds = 172
Dangerous builds not checked
Setting up Verlet run ...
  Unit style    : metal
  Current step  : 40667
  Time step     : 0.001
Per MPI rank memory allocation (min/avg/max) = 18.2 | 18.2 | 18.2 Mbytes
Step Temp Press TotEng PotEng Enthalpy Volume 
   40667    2390.3858    78.260258   -69696.867   -75768.665   -69662.397    705678.43 
   40687    2390.2146    39.523424   -69695.923   -75767.286   -69678.515    705681.49 
   41162    2340.5919    172.99608   -69928.466   -75873.783   -69852.472    703808.55 
Loop time of 41.032 on 1 procs for 495 steps with 19652 atoms

Performance: 1.042 ns/day, 23.026 hours/ns, 12.064 timesteps/s
99.8% CPU use with 1 MPI tasks x no OpenMP threads

MPI task timing breakdown:
Section |  min time  |  avg time  |  max time  |%varavg| %total
---------------------------------------------------------------
Pair    | 19.51      | 19.51      | 19.51      |   0.0 | 47.55
Neigh   | 20.205     | 20.205     | 20.205     |   0.0 | 49.24
Comm    | 0.45006    | 0.45006    | 0.45006    |   0.0 |  1.10
Output  | 0.056599   | 0.056599   | 0.056599   |   0.0 |  0.14
Modify  | 0.63497    | 0.63497    | 0.63497    |   0.0 |  1.55
Other   |            | 0.1751     |            |       |  0.43

Nlocal:    19652 ave 19652 max 19652 min
Histogram: 1 0 0 0 0 0 0 0 0 0
Nghost:    13526 ave 13526 max 13526 min
Histogram: 1 0 0 0 0 0 0 0 0 0
Neighs:    685942 ave 685942 max 685942 min
Histogram: 1 0 0 0 0 0 0 0 0 0

Total # of neighbors = 685942
Ave neighs/atom = 34.9044
Neighbor list builds = 495
Dangerous builds not checked
Setting up Verlet run ...
  Unit style    : metal
  Current step  : 41162
  Time step     : 0.001
Per MPI rank memory allocation (min/avg/max) = 18.2 | 18.2 | 18.2 Mbytes
Step Temp Press TotEng PotEng Enthalpy Volume 
   41162    2340.5919    172.99608   -69928.466   -75873.783   -69852.472    703808.55 
   41334    2344.1749   -70.143693   -69994.426   -75948.844   -70025.257    704234.19 
Loop time of 13.8321 on 1 procs for 172 steps with 19652 atoms

Performance: 1.074 ns/day, 22.339 hours/ns, 12.435 timesteps/s
100.0% CPU use with 1 MPI tasks x no OpenMP threads

MPI task timing breakdown:
Section |  min time  |  avg time  |  max time  |%varavg| %total
---------------------------------------------------------------
Pair    | 6.4927     | 6.4927     | 6.4927     |   0.0 | 46.94
Neigh   | 6.9036     | 6.9036     | 6.9036     |   0.0 | 49.91
Comm    | 0.1481     | 0.1481     | 0.1481     |   0.0 |  1.07
Output  | 0.000175   | 0.000175   | 0.000175   |   0.0 |  0.00
Modify  | 0.22659    | 0.22659    | 0.22659    |   0.0 |  1.64
Other   |            | 0.06094    |            |       |  0.44

Nlocal:    19652 ave 19652 max 19652 min
Histogram: 1 0 0 0 0 0 0 0 0 0
Nghost:    13540 ave 13540 max 13540 min
Histogram: 1 0 0 0 0 0 0 0 0 0
Neighs:    685013 ave 685013 max 685013 min
Histogram: 1 0 0 0 0 0 0 0 0 0

Total # of neighbors = 685013
Ave neighs/atom = 34.8572
Neighbor list builds = 172
Dangerous builds not checked
Setting up Verlet run ...
  Unit style    : metal
  Current step  : 41334
  Time step     : 0.001
Per MPI rank memory allocation (min/avg/max) = 18.2 | 18.2 | 18.2 Mbytes
Step Temp Press TotEng PotEng Enthalpy Volume 
   41334    2344.1749   -70.143693   -69994.426   -75948.844   -70025.257    704234.19 
   41354    2347.7885   -114.37629   -69994.009   -75957.605   -70044.282     704230.4 
   41829    2307.4855    26.620803   -70218.637    -76079.86   -70206.964    702490.17 
Loop time of 42.2396 on 1 procs for 495 steps with 19652 atoms

Performance: 1.013 ns/day, 23.704 hours/ns, 11.719 timesteps/s
99.4% CPU use with 1 MPI tasks x no OpenMP threads

MPI task timing breakdown:
Section |  min time  |  avg time  |  max time  |%varavg| %total
---------------------------------------------------------------
Pair    | 20.175     | 20.175     | 20.175     |   0.0 | 47.76
Neigh   | 20.685     | 20.685     | 20.685     |   0.0 | 48.97
Comm    | 0.46872    | 0.46872    | 0.46872    |   0.0 |  1.11
Output  | 0.080374   | 0.080374   | 0.080374   |   0.0 |  0.19
Modify  | 0.65106    | 0.65106    | 0.65106    |   0.0 |  1.54
Other   |            | 0.1797     |            |       |  0.43

Nlocal:    19652 ave 19652 max 19652 min
Histogram: 1 0 0 0 0 0 0 0 0 0
Nghost:    13633 ave 13633 max 13633 min
Histogram: 1 0 0 0 0 0 0 0 0 0
Neighs:    686367 ave 686367 max 686367 min
Histogram: 1 0 0 0 0 0 0 0 0 0

Total # of neighbors = 686367
Ave neighs/atom = 34.9261
Neighbor list builds = 495
Dangerous builds not checked
Setting up Verlet run ...
  Unit style    : metal
  Current step  : 41829
  Time step     : 0.001
Per MPI rank memory allocation (min/avg/max) = 18.2 | 18.2 | 18.2 Mbytes
Step Temp Press TotEng PotEng Enthalpy Volume 
   41829    2307.4855    26.620803   -70218.637    -76079.86   -70206.964    702490.17 
   42001    2296.3205   -58.224125   -70308.826   -76141.689   -70334.334    701913.27 
Loop time of 13.1677 on 1 procs for 172 steps with 19652 atoms

Performance: 1.129 ns/day, 21.266 hours/ns, 13.062 timesteps/s
100.0% CPU use with 1 MPI tasks x no OpenMP threads

MPI task timing breakdown:
Section |  min time  |  avg time  |  max time  |%varavg| %total
---------------------------------------------------------------
Pair    | 6.1477     | 6.1477     | 6.1477     |   0.0 | 46.69
Neigh   | 6.6107     | 6.6107     | 6.6107     |   0.0 | 50.20
Comm    | 0.14405    | 0.14405    | 0.14405    |   0.0 |  1.09
Output  | 0.00014687 | 0.00014687 | 0.00014687 |   0.0 |  0.00
Modify  | 0.20809    | 0.20809    | 0.20809    |   0.0 |  1.58
Other   |            | 0.05695    |            |       |  0.43

Nlocal:    19652 ave 19652 max 19652 min
Histogram: 1 0 0 0 0 0 0 0 0 0
Nghost:    13649 ave 13649 max 13649 min
Histogram: 1 0 0 0 0 0 0 0 0 0
Neighs:    687092 ave 687092 max 687092 min
Histogram: 1 0 0 0 0 0 0 0 0 0

Total # of neighbors = 687092
Ave neighs/atom = 34.963
Neighbor list builds = 172
Dangerous builds not checked
Setting up Verlet run ...
  Unit style    : metal
  Current step  : 42001
  Time step     : 0.001
Per MPI rank memory allocation (min/avg/max) = 18.2 | 18.2 | 18.2 Mbytes
Step Temp Press TotEng PotEng Enthalpy Volume 
   42001    2296.3205   -58.224125   -70308.826   -76141.689   -70334.334    701913.27 
   42021    2301.2535    25.007785   -70308.687   -76154.081   -70297.731    701911.59 
   42496    2240.9299     237.6842    -70527.99   -76220.156   -70424.073    700484.75 
Loop time of 41.022 on 1 procs for 495 steps with 19652 atoms

Performance: 1.043 ns/day, 23.020 hours/ns, 12.067 timesteps/s
99.2% CPU use with 1 MPI tasks x no OpenMP threads

MPI task timing breakdown:
Section |  min time  |  avg time  |  max time  |%varavg| %total
---------------------------------------------------------------
Pair    | 19.515     | 19.515     | 19.515     |   0.0 | 47.57
Neigh   | 20.184     | 20.184     | 20.184     |   0.0 | 49.20
Comm    | 0.44118    | 0.44118    | 0.44118    |   0.0 |  1.08
Output  | 0.077294   | 0.077294   | 0.077294   |   0.0 |  0.19
Modify  | 0.63167    | 0.63167    | 0.63167    |   0.0 |  1.54
Other   |            | 0.1729     |            |       |  0.42

Nlocal:    19652 ave 19652 max 19652 min
Histogram: 1 0 0 0 0 0 0 0 0 0
Nghost:    13645 ave 13645 max 13645 min
Histogram: 1 0 0 0 0 0 0 0 0 0
Neighs:    687836 ave 687836 max 687836 min
Histogram: 1 0 0 0 0 0 0 0 0 0

Total # of neighbors = 687836
Ave neighs/atom = 35.0008
Neighbor list builds = 495
Dangerous builds not checked
Setting up Verlet run ...
  Unit style    : metal
  Current step  : 42496
  Time step     : 0.001
Per MPI rank memory allocation (min/avg/max) = 18.2 | 18.2 | 18.2 Mbytes
Step Temp Press TotEng PotEng Enthalpy Volume 
   42496    2240.9299     237.6842    -70527.99   -76220.156   -70424.073    700484.75 
   42668    2252.6523    -131.5123   -70558.216   -76280.158   -70615.766    701114.63 
Loop time of 13.6561 on 1 procs for 172 steps with 19652 atoms

Performance: 1.088 ns/day, 22.054 hours/ns, 12.595 timesteps/s
100.0% CPU use with 1 MPI tasks x no OpenMP threads

MPI task timing breakdown:
Section |  min time  |  avg time  |  max time  |%varavg| %total
---------------------------------------------------------------
Pair    | 6.4397     | 6.4397     | 6.4397     |   0.0 | 47.16
Neigh   | 6.7892     | 6.7892     | 6.7892     |   0.0 | 49.72
Comm    | 0.14972    | 0.14972    | 0.14972    |   0.0 |  1.10
Output  | 0.00016904 | 0.00016904 | 0.00016904 |   0.0 |  0.00
Modify  | 0.21782    | 0.21782    | 0.21782    |   0.0 |  1.60
Other   |            | 0.05955    |            |       |  0.44

Nlocal:    19652 ave 19652 max 19652 min
Histogram: 1 0 0 0 0 0 0 0 0 0
Nghost:    13574 ave 13574 max 13574 min
Histogram: 1 0 0 0 0 0 0 0 0 0
Neighs:    687423 ave 687423 max 687423 min
Histogram: 1 0 0 0 0 0 0 0 0 0

Total # of neighbors = 687423
Ave neighs/atom = 34.9798
Neighbor list builds = 172
Dangerous builds not checked
Setting up Verlet run ...
  Unit style    : metal
  Current step  : 42668
  Time step     : 0.001
Per MPI rank memory allocation (min/avg/max) = 18.2 | 18.2 | 18.2 Mbytes
Step Temp Press TotEng PotEng Enthalpy Volume 
   42668    2252.6523    -131.5123   -70558.216   -76280.158   -70615.766    701114.63 
   42688    2263.4777    -173.1859   -70558.964   -76308.403    -70634.75    701107.47 
   43163     2210.813    108.74176   -70788.226   -76403.892   -70740.739    699651.39 
Loop time of 39.9426 on 1 procs for 495 steps with 19652 atoms

Performance: 1.071 ns/day, 22.414 hours/ns, 12.393 timesteps/s
99.7% CPU use with 1 MPI tasks x no OpenMP threads

MPI task timing breakdown:
Section |  min time  |  avg time  |  max time  |%varavg| %total
---------------------------------------------------------------
Pair    | 18.823     | 18.823     | 18.823     |   0.0 | 47.12
Neigh   | 19.831     | 19.831     | 19.831     |   0.0 | 49.65
Comm    | 0.42804    | 0.42804    | 0.42804    |   0.0 |  1.07
Output  | 0.053288   | 0.053288   | 0.053288   |   0.0 |  0.13
Modify  | 0.6386     | 0.6386     | 0.6386     |   0.0 |  1.60
Other   |            | 0.1687     |            |       |  0.42

Nlocal:    19652 ave 19652 max 19652 min
Histogram: 1 0 0 0 0 0 0 0 0 0
Nghost:    13582 ave 13582 max 13582 min
Histogram: 1 0 0 0 0 0 0 0 0 0
Neighs:    688770 ave 688770 max 688770 min
Histogram: 1 0 0 0 0 0 0 0 0 0

Total # of neighbors = 688770
Ave neighs/atom = 35.0483
Neighbor list builds = 495
Dangerous builds not checked
Setting up Verlet run ...
  Unit style    : metal
  Current step  : 43163
  Time step     : 0.001
Per MPI rank memory allocation (min/avg/max) = 18.2 | 18.2 | 18.2 Mbytes
Step Temp Press TotEng PotEng Enthalpy Volume 
   43163     2210.813    108.74176   -70788.226   -76403.892   -70740.739    699651.39 
   43335    2202.4657   -163.03358   -70887.294   -76481.757   -70958.508    699839.65 
Loop time of 13.0579 on 1 procs for 172 steps with 19652 atoms

Performance: 1.138 ns/day, 21.088 hours/ns, 13.172 timesteps/s
99.0% CPU use with 1 MPI tasks x no OpenMP threads

MPI task timing breakdown:
Section |  min time  |  avg time  |  max time  |%varavg| %total
---------------------------------------------------------------
Pair    | 6.0827     | 6.0827     | 6.0827     |   0.0 | 46.58
Neigh   | 6.5788     | 6.5788     | 6.5788     |   0.0 | 50.38
Comm    | 0.14374    | 0.14374    | 0.14374    |   0.0 |  1.10
Output  | 0.00013995 | 0.00013995 | 0.00013995 |   0.0 |  0.00
Modify  | 0.19931    | 0.19931    | 0.19931    |   0.0 |  1.53
Other   |            | 0.05323    |            |       |  0.41

Nlocal:    19652 ave 19652 max 19652 min
Histogram: 1 0 0 0 0 0 0 0 0 0
Nghost:    13578 ave 13578 max 13578 min
Histogram: 1 0 0 0 0 0 0 0 0 0
Neighs:    688031 ave 688031 max 688031 min
Histogram: 1 0 0 0 0 0 0 0 0 0

Total # of neighbors = 688031
Ave neighs/atom = 35.0107
Neighbor list builds = 172
Dangerous builds not checked
Setting up Verlet run ...
  Unit style    : metal
  Current step  : 43335
  Time step     : 0.001
Per MPI rank memory allocation (min/avg/max) = 18.2 | 18.2 | 18.2 Mbytes
Step Temp Press TotEng PotEng Enthalpy Volume 
   43335    2202.4657   -163.03358   -70887.294   -76481.757   -70958.508    699839.65 
   43355    2190.0689   -94.686124   -70887.193   -76450.167   -70928.552    699833.27 
   43830    2165.7085   -147.00144   -71140.705   -76641.802   -71204.779    698341.33 
Loop time of 39.7574 on 1 procs for 495 steps with 19652 atoms

Performance: 1.076 ns/day, 22.311 hours/ns, 12.451 timesteps/s
99.7% CPU use with 1 MPI tasks x no OpenMP threads

MPI task timing breakdown:
Section |  min time  |  avg time  |  max time  |%varavg| %total
---------------------------------------------------------------
Pair    | 18.81      | 18.81      | 18.81      |   0.0 | 47.31
Neigh   | 19.65      | 19.65      | 19.65      |   0.0 | 49.43
Comm    | 0.42666    | 0.42666    | 0.42666    |   0.0 |  1.07
Output  | 0.082955   | 0.082955   | 0.082955   |   0.0 |  0.21
Modify  | 0.61434    | 0.61434    | 0.61434    |   0.0 |  1.55
Other   |            | 0.1733     |            |       |  0.44

Nlocal:    19652 ave 19652 max 19652 min
Histogram: 1 0 0 0 0 0 0 0 0 0
Nghost:    13574 ave 13574 max 13574 min
Histogram: 1 0 0 0 0 0 0 0 0 0
Neighs:    689278 ave 689278 max 689278 min
Histogram: 1 0 0 0 0 0 0 0 0 0

Total # of neighbors = 689278
Ave neighs/atom = 35.0742
Neighbor list builds = 495
Dangerous builds not checked
Setting up Verlet run ...
  Unit style    : metal
  Current step  : 43830
  Time step     : 0.001
Per MPI rank memory allocation (min/avg/max) = 18.2 | 18.2 | 18.2 Mbytes
Step Temp Press TotEng PotEng Enthalpy Volume 
   43830    2165.7085   -147.00144   -71140.705   -76641.802   -71204.779    698341.33 
   44002    2162.4154   -273.91528   -71191.741   -76684.473   -71311.022    697694.22 
Loop time of 13.1768 on 1 procs for 172 steps with 19652 atoms

Performance: 1.128 ns/day, 21.280 hours/ns, 13.053 timesteps/s
99.9% CPU use with 1 MPI tasks x no OpenMP threads

MPI task timing breakdown:
Section |  min time  |  avg time  |  max time  |%varavg| %total
---------------------------------------------------------------
Pair    | 6.1771     | 6.1771     | 6.1771     |   0.0 | 46.88
Neigh   | 6.5815     | 6.5815     | 6.5815     |   0.0 | 49.95
Comm    | 0.1435     | 0.1435     | 0.1435     |   0.0 |  1.09
Output  | 0.00012302 | 0.00012302 | 0.00012302 |   0.0 |  0.00
Modify  | 0.21562    | 0.21562    | 0.21562    |   0.0 |  1.64
Other   |            | 0.05901    |            |       |  0.45

Nlocal:    19652 ave 19652 max 19652 min
Histogram: 1 0 0 0 0 0 0 0 0 0
Nghost:    13617 ave 13617 max 13617 min
Histogram: 1 0 0 0 0 0 0 0 0 0
Neighs:    689625 ave 689625 max 689625 min
Histogram: 1 0 0 0 0 0 0 0 0 0

Total # of neighbors = 689625
Ave neighs/atom = 35.0918
Neighbor list builds = 172
Dangerous builds not checked
Setting up Verlet run ...
  Unit style    : metal
  Current step  : 44002
  Time step     : 0.001
Per MPI rank memory allocation (min/avg/max) = 18.2 | 18.2 | 18.2 Mbytes
Step Temp Press TotEng PotEng Enthalpy Volume 
   44002    2162.4154   -273.91528   -71191.741   -76684.473   -71311.022    697694.22 
   44022    2165.5919    -167.0098   -71193.294   -76694.095    -71266.02    697681.87 
   44497    2110.2541    284.90978    -71452.11   -76812.348   -71328.316    696150.07 
Loop time of 41.237 on 1 procs for 495 steps with 19652 atoms

Performance: 1.037 ns/day, 23.141 hours/ns, 12.004 timesteps/s
99.9% CPU use with 1 MPI tasks x no OpenMP threads

MPI task timing breakdown:
Section |  min time  |  avg time  |  max time  |%varavg| %total
---------------------------------------------------------------
Pair    | 19.591     | 19.591     | 19.591     |   0.0 | 47.51
Neigh   | 20.337     | 20.337     | 20.337     |   0.0 | 49.32
Comm    | 0.43912    | 0.43912    | 0.43912    |   0.0 |  1.06
Output  | 0.064897   | 0.064897   | 0.064897   |   0.0 |  0.16
Modify  | 0.6333     | 0.6333     | 0.6333     |   0.0 |  1.54
Other   |            | 0.1714     |            |       |  0.42

Nlocal:    19652 ave 19652 max 19652 min
Histogram: 1 0 0 0 0 0 0 0 0 0
Nghost:    13592 ave 13592 max 13592 min
Histogram: 1 0 0 0 0 0 0 0 0 0
Neighs:    690871 ave 690871 max 690871 min
Histogram: 1 0 0 0 0 0 0 0 0 0

Total # of neighbors = 690871
Ave neighs/atom = 35.1553
Neighbor list builds = 495
Dangerous builds not checked
Setting up Verlet run ...
  Unit style    : metal
  Current step  : 44497
  Time step     : 0.001
Per MPI rank memory allocation (min/avg/max) = 18.2 | 18.2 | 18.2 Mbytes
Step Temp Press TotEng PotEng Enthalpy Volume 
   44497    2110.2541    284.90978    -71452.11   -76812.348   -71328.316    696150.07 
   44669    2099.1946   -130.09657   -71489.428   -76821.573   -71545.998    696683.04 
Loop time of 12.1971 on 1 procs for 172 steps with 19652 atoms

Performance: 1.218 ns/day, 19.698 hours/ns, 14.102 timesteps/s
100.0% CPU use with 1 MPI tasks x no OpenMP threads

MPI task timing breakdown:
Section |  min time  |  avg time  |  max time  |%varavg| %total
---------------------------------------------------------------
Pair    | 5.6488     | 5.6488     | 5.6488     |   0.0 | 46.31
Neigh   | 6.1783     | 6.1783     | 6.1783     |   0.0 | 50.65
Comm    | 0.13086    | 0.13086    | 0.13086    |   0.0 |  1.07
Output  | 0.00013781 | 0.00013781 | 0.00013781 |   0.0 |  0.00
Modify  | 0.18671    | 0.18671    | 0.18671    |   0.0 |  1.53
Other   |            | 0.05219    |            |       |  0.43

Nlocal:    19652 ave 19652 max 19652 min
Histogram: 1 0 0 0 0 0 0 0 0 0
Nghost:    13617 ave 13617 max 13617 min
Histogram: 1 0 0 0 0 0 0 0 0 0
Neighs:    690460 ave 690460 max 690460 min
Histogram: 1 0 0 0 0 0 0 0 0 0

Total # of neighbors = 690460
Ave neighs/atom = 35.1343
Neighbor list builds = 172
Dangerous builds not checked
Setting up Verlet run ...
  Unit style    : metal
  Current step  : 44669
  Time step     : 0.001
Per MPI rank memory allocation (min/avg/max) = 18.2 | 18.2 | 18.2 Mbytes
Step Temp Press TotEng PotEng Enthalpy Volume 
   44669    2099.1946   -130.09657   -71489.428   -76821.573   -71545.998    696683.04 
   44689    2101.5511   -174.59881   -71489.508   -76827.639   -71565.429    696675.53 
   45164    2058.6518    72.014265   -71746.006   -76975.169   -71714.763    695091.61 
Loop time of 39.532 on 1 procs for 495 steps with 19652 atoms

Performance: 1.082 ns/day, 22.184 hours/ns, 12.521 timesteps/s
99.8% CPU use with 1 MPI tasks x no OpenMP threads

MPI task timing breakdown:
Section |  min time  |  avg time  |  max time  |%varavg| %total
---------------------------------------------------------------
Pair    | 18.637     | 18.637     | 18.637     |   0.0 | 47.14
Neigh   | 19.602     | 19.602     | 19.602     |   0.0 | 49.58
Comm    | 0.42733    | 0.42733    | 0.42733    |   0.0 |  1.08
Output  | 0.077167   | 0.077167   | 0.077167   |   0.0 |  0.20
Modify  | 0.61944    | 0.61944    | 0.61944    |   0.0 |  1.57
Other   |            | 0.1693     |            |       |  0.43

Nlocal:    19652 ave 19652 max 19652 min
Histogram: 1 0 0 0 0 0 0 0 0 0
Nghost:    13646 ave 13646 max 13646 min
Histogram: 1 0 0 0 0 0 0 0 0 0
Neighs:    691787 ave 691787 max 691787 min
Histogram: 1 0 0 0 0 0 0 0 0 0

Total # of neighbors = 691787
Ave neighs/atom = 35.2019
Neighbor list builds = 495
Dangerous builds not checked
Setting up Verlet run ...
  Unit style    : metal
  Current step  : 45164
  Time step     : 0.001
Per MPI rank memory allocation (min/avg/max) = 18.2 | 18.2 | 18.2 Mbytes
Step Temp Press TotEng PotEng Enthalpy Volume 
   45164    2058.6518    72.014265   -71746.006   -76975.169   -71714.763    695091.61 
   45336    2034.5529   -136.77933   -71836.684   -77004.634   -71896.028    695138.47 
Loop time of 12.7464 on 1 procs for 172 steps with 19652 atoms

Performance: 1.166 ns/day, 20.585 hours/ns, 13.494 timesteps/s
100.0% CPU use with 1 MPI tasks x no OpenMP threads

MPI task timing breakdown:
Section |  min time  |  avg time  |  max time  |%varavg| %total
---------------------------------------------------------------
Pair    | 5.9686     | 5.9686     | 5.9686     |   0.0 | 46.83
Neigh   | 6.388      | 6.388      | 6.388      |   0.0 | 50.12
Comm    | 0.13787    | 0.13787    | 0.13787    |   0.0 |  1.08
Output  | 0.00011992 | 0.00011992 | 0.00011992 |   0.0 |  0.00
Modify  | 0.19723    | 0.19723    | 0.19723    |   0.0 |  1.55
Other   |            | 0.05463    |            |       |  0.43

Nlocal:    19652 ave 19652 max 19652 min
Histogram: 1 0 0 0 0 0 0 0 0 0
Nghost:    13615 ave 13615 max 13615 min
Histogram: 1 0 0 0 0 0 0 0 0 0
Neighs:    691279 ave 691279 max 691279 min
Histogram: 1 0 0 0 0 0 0 0 0 0

Total # of neighbors = 691279
Ave neighs/atom = 35.176
Neighbor list builds = 172
Dangerous builds not checked
Setting up Verlet run ...
  Unit style    : metal
  Current step  : 45336
  Time step     : 0.001
Per MPI rank memory allocation (min/avg/max) = 18.2 | 18.2 | 18.2 Mbytes
Step Temp Press TotEng PotEng Enthalpy Volume 
   45336    2034.5529   -136.77933   -71836.684   -77004.634   -71896.028    695138.47 
   45356    2035.7071   -137.25607   -71835.153   -77006.035   -71894.704    695131.03 
   45831     2002.495    99.679528   -72057.159   -77143.679   -72014.012    693524.45 
Loop time of 41.7509 on 1 procs for 495 steps with 19652 atoms

Performance: 1.024 ns/day, 23.429 hours/ns, 11.856 timesteps/s
98.4% CPU use with 1 MPI tasks x no OpenMP threads

MPI task timing breakdown:
Section |  min time  |  avg time  |  max time  |%varavg| %total
---------------------------------------------------------------
Pair    | 19.95      | 19.95      | 19.95      |   0.0 | 47.78
Neigh   | 20.446     | 20.446     | 20.446     |   0.0 | 48.97
Comm    | 0.45577    | 0.45577    | 0.45577    |   0.0 |  1.09
Output  | 0.055362   | 0.055362   | 0.055362   |   0.0 |  0.13
Modify  | 0.66731    | 0.66731    | 0.66731    |   0.0 |  1.60
Other   |            | 0.1763     |            |       |  0.42

Nlocal:    19652 ave 19652 max 19652 min
Histogram: 1 0 0 0 0 0 0 0 0 0
Nghost:    13563 ave 13563 max 13563 min
Histogram: 1 0 0 0 0 0 0 0 0 0
Neighs:    692645 ave 692645 max 692645 min
Histogram: 1 0 0 0 0 0 0 0 0 0

Total # of neighbors = 692645
Ave neighs/atom = 35.2455
Neighbor list builds = 495
Dangerous builds not checked
Setting up Verlet run ...
  Unit style    : metal
  Current step  : 45831
  Time step     : 0.001
Per MPI rank memory allocation (min/avg/max) = 18.2 | 18.2 | 18.2 Mbytes
Step Temp Press TotEng PotEng Enthalpy Volume 
   45831     2002.495    99.679528   -72057.159   -77143.679   -72014.012    693524.45 
   46003    1995.8893   -96.462417   -72124.329   -77194.069   -72166.101    693801.71 
Loop time of 14.6437 on 1 procs for 172 steps with 19652 atoms

Performance: 1.015 ns/day, 23.649 hours/ns, 11.746 timesteps/s
99.9% CPU use with 1 MPI tasks x no OpenMP threads

MPI task timing breakdown:
Section |  min time  |  avg time  |  max time  |%varavg| %total
---------------------------------------------------------------
Pair    | 7.0296     | 7.0296     | 7.0296     |   0.0 | 48.00
Neigh   | 7.158      | 7.158      | 7.158      |   0.0 | 48.88
Comm    | 0.16281    | 0.16281    | 0.16281    |   0.0 |  1.11
Output  | 0.0001781  | 0.0001781  | 0.0001781  |   0.0 |  0.00
Modify  | 0.23124    | 0.23124    | 0.23124    |   0.0 |  1.58
Other   |            | 0.0619     |            |       |  0.42

Nlocal:    19652 ave 19652 max 19652 min
Histogram: 1 0 0 0 0 0 0 0 0 0
Nghost:    13595 ave 13595 max 13595 min
Histogram: 1 0 0 0 0 0 0 0 0 0
Neighs:    692077 ave 692077 max 692077 min
Histogram: 1 0 0 0 0 0 0 0 0 0

Total # of neighbors = 692077
Ave neighs/atom = 35.2166
Neighbor list builds = 172
Dangerous builds not checked
Setting up Verlet run ...
  Unit style    : metal
  Current step  : 46003
  Time step     : 0.001
Per MPI rank memory allocation (min/avg/max) = 18.2 | 18.2 | 18.2 Mbytes
Step Temp Press TotEng PotEng Enthalpy Volume 
   46003    1995.8893   -96.462417   -72124.329   -77194.069   -72166.101    693801.71 
   46023    1999.7398   -79.161912   -72124.131   -77203.653   -72158.411    693797.23 
   46498    1964.4634    363.97506   -72332.594    -77322.51   -72175.485    691573.05 
Loop time of 44.7405 on 1 procs for 495 steps with 19652 atoms

Performance: 0.956 ns/day, 25.107 hours/ns, 11.064 timesteps/s
99.7% CPU use with 1 MPI tasks x no OpenMP threads

MPI task timing breakdown:
Section |  min time  |  avg time  |  max time  |%varavg| %total
---------------------------------------------------------------
Pair    | 21.383     | 21.383     | 21.383     |   0.0 | 47.79
Neigh   | 21.916     | 21.916     | 21.916     |   0.0 | 48.98
Comm    | 0.46802    | 0.46802    | 0.46802    |   0.0 |  1.05
Output  | 0.080635   | 0.080635   | 0.080635   |   0.0 |  0.18
Modify  | 0.71005    | 0.71005    | 0.71005    |   0.0 |  1.59
Other   |            | 0.1828     |            |       |  0.41

Nlocal:    19652 ave 19652 max 19652 min
Histogram: 1 0 0 0 0 0 0 0 0 0
Nghost:    13625 ave 13625 max 13625 min
Histogram: 1 0 0 0 0 0 0 0 0 0
Neighs:    693987 ave 693987 max 693987 min
Histogram: 1 0 0 0 0 0 0 0 0 0

Total # of neighbors = 693987
Ave neighs/atom = 35.3138
Neighbor list builds = 495
Dangerous builds not checked
Setting up Verlet run ...
  Unit style    : metal
  Current step  : 46498
  Time step     : 0.001
Per MPI rank memory allocation (min/avg/max) = 18.2 | 18.2 | 18.2 Mbytes
Step Temp Press TotEng PotEng Enthalpy Volume 
   46498    1964.4634    363.97506   -72332.594    -77322.51   -72175.485    691573.05 
   46670    1949.4022   -339.82499   -72418.228   -77369.887   -72565.062    692279.33 
Loop time of 14.1372 on 1 procs for 172 steps with 19652 atoms

Performance: 1.051 ns/day, 22.831 hours/ns, 12.167 timesteps/s
100.0% CPU use with 1 MPI tasks x no OpenMP threads

MPI task timing breakdown:
Section |  min time  |  avg time  |  max time  |%varavg| %total
---------------------------------------------------------------
Pair    | 6.7585     | 6.7585     | 6.7585     |   0.0 | 47.81
Neigh   | 6.9491     | 6.9491     | 6.9491     |   0.0 | 49.16
Comm    | 0.15217    | 0.15217    | 0.15217    |   0.0 |  1.08
Output  | 0.0001781  | 0.0001781  | 0.0001781  |   0.0 |  0.00
Modify  | 0.21942    | 0.21942    | 0.21942    |   0.0 |  1.55
Other   |            | 0.05776    |            |       |  0.41

Nlocal:    19652 ave 19652 max 19652 min
Histogram: 1 0 0 0 0 0 0 0 0 0
Nghost:    13602 ave 13602 max 13602 min
Histogram: 1 0 0 0 0 0 0 0 0 0
Neighs:    693318 ave 693318 max 693318 min
Histogram: 1 0 0 0 0 0 0 0 0 0

Total # of neighbors = 693318
Ave neighs/atom = 35.2798
Neighbor list builds = 172
Dangerous builds not checked
Setting up Verlet run ...
  Unit style    : metal
  Current step  : 46670
  Time step     : 0.001
Per MPI rank memory allocation (min/avg/max) = 18.2 | 18.2 | 18.2 Mbytes
Step Temp Press TotEng PotEng Enthalpy Volume 
   46670    1949.4022   -339.82499   -72418.228   -77369.887   -72565.062    692279.33 
   46690    1956.2367   -292.76143   -72418.496   -77387.515   -72544.991    692261.14 
   47165     1923.607   -167.45626   -72660.944   -77547.081   -72733.174    691078.47 
Loop time of 38.5937 on 1 procs for 495 steps with 19652 atoms

Performance: 1.108 ns/day, 21.658 hours/ns, 12.826 timesteps/s
99.9% CPU use with 1 MPI tasks x no OpenMP threads

MPI task timing breakdown:
Section |  min time  |  avg time  |  max time  |%varavg| %total
---------------------------------------------------------------
Pair    | 18.098     | 18.098     | 18.098     |   0.0 | 46.89
Neigh   | 19.256     | 19.256     | 19.256     |   0.0 | 49.89
Comm    | 0.40464    | 0.40464    | 0.40464    |   0.0 |  1.05
Output  | 0.076763   | 0.076763   | 0.076763   |   0.0 |  0.20
Modify  | 0.60441    | 0.60441    | 0.60441    |   0.0 |  1.57
Other   |            | 0.1539     |            |       |  0.40

Nlocal:    19652 ave 19652 max 19652 min
Histogram: 1 0 0 0 0 0 0 0 0 0
Nghost:    13641 ave 13641 max 13641 min
Histogram: 1 0 0 0 0 0 0 0 0 0
Neighs:    693894 ave 693894 max 693894 min
Histogram: 1 0 0 0 0 0 0 0 0 0

Total # of neighbors = 693894
Ave neighs/atom = 35.3091
Neighbor list builds = 495
Dangerous builds not checked
Setting up Verlet run ...
  Unit style    : metal
  Current step  : 47165
  Time step     : 0.001
Per MPI rank memory allocation (min/avg/max) = 18.2 | 18.2 | 18.2 Mbytes
Step Temp Press TotEng PotEng Enthalpy Volume 
   47165     1923.607   -167.45626   -72660.944   -77547.081   -72733.174    691078.47 
   47337    1904.8799    40.392185   -72742.773   -77581.342   -72725.374    690133.15 
Loop time of 14.3797 on 1 procs for 172 steps with 19652 atoms

Performance: 1.033 ns/day, 23.223 hours/ns, 11.961 timesteps/s
100.0% CPU use with 1 MPI tasks x no OpenMP threads

MPI task timing breakdown:
Section |  min time  |  avg time  |  max time  |%varavg| %total
---------------------------------------------------------------
Pair    | 6.823      | 6.823      | 6.823      |   0.0 | 47.45
Neigh   | 7.1031     | 7.1031     | 7.1031     |   0.0 | 49.40
Comm    | 0.15611    | 0.15611    | 0.15611    |   0.0 |  1.09
Output  | 0.00016689 | 0.00016689 | 0.00016689 |   0.0 |  0.00
Modify  | 0.23715    | 0.23715    | 0.23715    |   0.0 |  1.65
Other   |            | 0.06018    |            |       |  0.42

Nlocal:    19652 ave 19652 max 19652 min
Histogram: 1 0 0 0 0 0 0 0 0 0
Nghost:    13619 ave 13619 max 13619 min
Histogram: 1 0 0 0 0 0 0 0 0 0
Neighs:    694834 ave 694834 max 694834 min
Histogram: 1 0 0 0 0 0 0 0 0 0

Total # of neighbors = 694834
Ave neighs/atom = 35.3569
Neighbor list builds = 172
Dangerous builds not checked
Setting up Verlet run ...
  Unit style    : metal
  Current step  : 47337
  Time step     : 0.001
Per MPI rank memory allocation (min/avg/max) = 18.2 | 18.2 | 18.2 Mbytes
Step Temp Press TotEng PotEng Enthalpy Volume 
   47337    1904.8799    40.392185   -72742.773   -77581.342   -72725.374    690133.15 
   47357     1905.736    61.630207   -72743.389   -77584.132   -72716.842    690135.83 
   47832    1872.7726    396.99241   -72988.246    -77745.26   -72817.714    688230.79 
Loop time of 38.4523 on 1 procs for 495 steps with 19652 atoms

Performance: 1.112 ns/day, 21.578 hours/ns, 12.873 timesteps/s
99.8% CPU use with 1 MPI tasks x no OpenMP threads

MPI task timing breakdown:
Section |  min time  |  avg time  |  max time  |%varavg| %total
---------------------------------------------------------------
Pair    | 18.043     | 18.043     | 18.043     |   0.0 | 46.92
Neigh   | 19.201     | 19.201     | 19.201     |   0.0 | 49.94
Comm    | 0.40884    | 0.40884    | 0.40884    |   0.0 |  1.06
Output  | 0.06046    | 0.06046    | 0.06046    |   0.0 |  0.16
Modify  | 0.58779    | 0.58779    | 0.58779    |   0.0 |  1.53
Other   |            | 0.1509     |            |       |  0.39

Nlocal:    19652 ave 19652 max 19652 min
Histogram: 1 0 0 0 0 0 0 0 0 0
Nghost:    13741 ave 13741 max 13741 min
Histogram: 1 0 0 0 0 0 0 0 0 0
Neighs:    696170 ave 696170 max 696170 min
Histogram: 1 0 0 0 0 0 0 0 0 0

Total # of neighbors = 696170
Ave neighs/atom = 35.4249
Neighbor list builds = 495
Dangerous builds not checked
Setting up Verlet run ...
  Unit style    : metal
  Current step  : 47832
  Time step     : 0.001
Per MPI rank memory allocation (min/avg/max) = 18.2 | 18.2 | 18.2 Mbytes
Step Temp Press TotEng PotEng Enthalpy Volume 
   47832    1872.7726    396.99241   -72988.246    -77745.26   -72817.714    688230.79 
   48004    1843.3962   -180.19028   -73064.525   -77746.919   -73142.022    689074.63 
Loop time of 14.527 on 1 procs for 172 steps with 19652 atoms

Performance: 1.023 ns/day, 23.461 hours/ns, 11.840 timesteps/s
100.0% CPU use with 1 MPI tasks x no OpenMP threads

MPI task timing breakdown:
Section |  min time  |  avg time  |  max time  |%varavg| %total
---------------------------------------------------------------
Pair    | 6.9755     | 6.9755     | 6.9755     |   0.0 | 48.02
Neigh   | 7.1054     | 7.1054     | 7.1054     |   0.0 | 48.91
Comm    | 0.15948    | 0.15948    | 0.15948    |   0.0 |  1.10
Output  | 0.00014806 | 0.00014806 | 0.00014806 |   0.0 |  0.00
Modify  | 0.22651    | 0.22651    | 0.22651    |   0.0 |  1.56
Other   |            | 0.05998    |            |       |  0.41

Nlocal:    19652 ave 19652 max 19652 min
Histogram: 1 0 0 0 0 0 0 0 0 0
Nghost:    13731 ave 13731 max 13731 min
Histogram: 1 0 0 0 0 0 0 0 0 0
Neighs:    695269 ave 695269 max 695269 min
Histogram: 1 0 0 0 0 0 0 0 0 0

Total # of neighbors = 695269
Ave neighs/atom = 35.379
Neighbor list builds = 172
Dangerous builds not checked
Setting up Verlet run ...
  Unit style    : metal
  Current step  : 48004
  Time step     : 0.001
Per MPI rank memory allocation (min/avg/max) = 18.2 | 18.2 | 18.2 Mbytes
Step Temp Press TotEng PotEng Enthalpy Volume 
   48004    1843.3962   -180.19028   -73064.525   -77746.919   -73142.022    689074.63 
   48024    1845.5822   -144.46432   -73063.987   -77751.934   -73126.119    689065.41 
   48499    1803.8124    110.82686   -73304.489   -77886.336   -73256.942    687353.64 
Loop time of 40.1928 on 1 procs for 495 steps with 19652 atoms

Performance: 1.064 ns/day, 22.555 hours/ns, 12.316 timesteps/s
99.0% CPU use with 1 MPI tasks x no OpenMP threads

MPI task timing breakdown:
Section |  min time  |  avg time  |  max time  |%varavg| %total
---------------------------------------------------------------
Pair    | 18.952     | 18.952     | 18.952     |   0.0 | 47.15
Neigh   | 19.972     | 19.972     | 19.972     |   0.0 | 49.69
Comm    | 0.41507    | 0.41507    | 0.41507    |   0.0 |  1.03
Output  | 0.078467   | 0.078467   | 0.078467   |   0.0 |  0.20
Modify  | 0.61741    | 0.61741    | 0.61741    |   0.0 |  1.54
Other   |            | 0.1581     |            |       |  0.39

Nlocal:    19652 ave 19652 max 19652 min
Histogram: 1 0 0 0 0 0 0 0 0 0
Nghost:    13686 ave 13686 max 13686 min
Histogram: 1 0 0 0 0 0 0 0 0 0
Neighs:    696541 ave 696541 max 696541 min
Histogram: 1 0 0 0 0 0 0 0 0 0

Total # of neighbors = 696541
Ave neighs/atom = 35.4438
Neighbor list builds = 495
Dangerous builds not checked
Setting up Verlet run ...
  Unit style    : metal
  Current step  : 48499
  Time step     : 0.001
Per MPI rank memory allocation (min/avg/max) = 18.2 | 18.2 | 18.2 Mbytes
Step Temp Press TotEng PotEng Enthalpy Volume 
   48499    1803.8124    110.82686   -73304.489   -77886.336   -73256.942    687353.64 
   48671    1800.3629   -228.50063   -73358.964   -77932.049   -73457.065    687853.44 
Loop time of 12.1891 on 1 procs for 172 steps with 19652 atoms

Performance: 1.219 ns/day, 19.685 hours/ns, 14.111 timesteps/s
100.0% CPU use with 1 MPI tasks x no OpenMP threads

MPI task timing breakdown:
Section |  min time  |  avg time  |  max time  |%varavg| %total
---------------------------------------------------------------
Pair    | 5.6264     | 5.6264     | 5.6264     |   0.0 | 46.16
Neigh   | 6.199      | 6.199      | 6.199      |   0.0 | 50.86
Comm    | 0.12494    | 0.12494    | 0.12494    |   0.0 |  1.02
Output  | 0.00016904 | 0.00016904 | 0.00016904 |   0.0 |  0.00
Modify  | 0.19016    | 0.19016    | 0.19016    |   0.0 |  1.56
Other   |            | 0.04843    |            |       |  0.40

Nlocal:    19652 ave 19652 max 19652 min
Histogram: 1 0 0 0 0 0 0 0 0 0
Nghost:    13639 ave 13639 max 13639 min
Histogram: 1 0 0 0 0 0 0 0 0 0
Neighs:    695951 ave 695951 max 695951 min
Histogram: 1 0 0 0 0 0 0 0 0 0

Total # of neighbors = 695951
Ave neighs/atom = 35.4137
Neighbor list builds = 172
Dangerous builds not checked
Setting up Verlet run ...
  Unit style    : metal
  Current step  : 48671
  Time step     : 0.001
Per MPI rank memory allocation (min/avg/max) = 18.2 | 18.2 | 18.2 Mbytes
Step Temp Press TotEng PotEng Enthalpy Volume 
   48671    1800.3629   -228.50063   -73358.964   -77932.049   -73457.065    687853.44 
   48691    1801.4992   -276.64587   -73359.133   -77935.105   -73477.902    687839.36 
   49166    1762.6785   -300.29462   -73585.917   -78063.281   -73714.637    686763.43 
Loop time of 37.8987 on 1 procs for 495 steps with 19652 atoms

Performance: 1.128 ns/day, 21.268 hours/ns, 13.061 timesteps/s
98.2% CPU use with 1 MPI tasks x no OpenMP threads

MPI task timing breakdown:
Section |  min time  |  avg time  |  max time  |%varavg| %total
---------------------------------------------------------------
Pair    | 17.696     | 17.696     | 17.696     |   0.0 | 46.69
Neigh   | 18.992     | 18.992     | 18.992     |   0.0 | 50.11
Comm    | 0.39522    | 0.39522    | 0.39522    |   0.0 |  1.04
Output  | 0.081827   | 0.081827   | 0.081827   |   0.0 |  0.22
Modify  | 0.58071    | 0.58071    | 0.58071    |   0.0 |  1.53
Other   |            | 0.1527     |            |       |  0.40

Nlocal:    19652 ave 19652 max 19652 min
Histogram: 1 0 0 0 0 0 0 0 0 0
Nghost:    13708 ave 13708 max 13708 min
Histogram: 1 0 0 0 0 0 0 0 0 0
Neighs:    696989 ave 696989 max 696989 min
Histogram: 1 0 0 0 0 0 0 0 0 0

Total # of neighbors = 696989
Ave neighs/atom = 35.4666
Neighbor list builds = 495
Dangerous builds not checked
Setting up Verlet run ...
  Unit style    : metal
  Current step  : 49166
  Time step     : 0.001
Per MPI rank memory allocation (min/avg/max) = 18.2 | 18.2 | 18.2 Mbytes
Step Temp Press TotEng PotEng Enthalpy Volume 
   49166    1762.6785   -300.29462   -73585.917   -78063.281   -73714.637    686763.43 
   49338    1753.5981    146.61527   -73656.337   -78110.636   -73593.597    685606.77 
Loop time of 15.0946 on 1 procs for 172 steps with 19652 atoms

Performance: 0.985 ns/day, 24.378 hours/ns, 11.395 timesteps/s
94.5% CPU use with 1 MPI tasks x no OpenMP threads

MPI task timing breakdown:
Section |  min time  |  avg time  |  max time  |%varavg| %total
---------------------------------------------------------------
Pair    | 7.1417     | 7.1417     | 7.1417     |   0.0 | 47.31
Neigh   | 7.4751     | 7.4751     | 7.4751     |   0.0 | 49.52
Comm    | 0.17293    | 0.17293    | 0.17293    |   0.0 |  1.15
Output  | 0.00017691 | 0.00017691 | 0.00017691 |   0.0 |  0.00
Modify  | 0.24221    | 0.24221    | 0.24221    |   0.0 |  1.60
Other   |            | 0.06251    |            |       |  0.41

Nlocal:    19652 ave 19652 max 19652 min
Histogram: 1 0 0 0 0 0 0 0 0 0
Nghost:    13727 ave 13727 max 13727 min
Histogram: 1 0 0 0 0 0 0 0 0 0
Neighs:    697699 ave 697699 max 697699 min
Histogram: 1 0 0 0 0 0 0 0 0 0

Total # of neighbors = 697699
Ave neighs/atom = 35.5027
Neighbor list builds = 172
Dangerous builds not checked
Setting up Verlet run ...
  Unit style    : metal
  Current step  : 49338
  Time step     : 0.001
Per MPI rank memory allocation (min/avg/max) = 18.2 | 18.2 | 18.2 Mbytes
Step Temp Press TotEng PotEng Enthalpy Volume 
   49338    1753.5981    146.61527   -73656.337   -78110.636   -73593.597    685606.77 
   49358    1757.5145    120.74083   -73656.954   -78121.201   -73605.286    685615.22 
   49833    1721.6474    362.16926   -73908.763   -78281.904   -73754.135     684048.9 
Loop time of 43.0775 on 1 procs for 495 steps with 19652 atoms

Performance: 0.993 ns/day, 24.174 hours/ns, 11.491 timesteps/s
99.4% CPU use with 1 MPI tasks x no OpenMP threads

MPI task timing breakdown:
Section |  min time  |  avg time  |  max time  |%varavg| %total
---------------------------------------------------------------
Pair    | 20.495     | 20.495     | 20.495     |   0.0 | 47.58
Neigh   | 21.196     | 21.196     | 21.196     |   0.0 | 49.20
Comm    | 0.45208    | 0.45208    | 0.45208    |   0.0 |  1.05
Output  | 0.07567    | 0.07567    | 0.07567    |   0.0 |  0.18
Modify  | 0.68187    | 0.68187    | 0.68187    |   0.0 |  1.58
Other   |            | 0.1766     |            |       |  0.41

Nlocal:    19652 ave 19652 max 19652 min
Histogram: 1 0 0 0 0 0 0 0 0 0
Nghost:    13735 ave 13735 max 13735 min
Histogram: 1 0 0 0 0 0 0 0 0 0
Neighs:    698758 ave 698758 max 698758 min
Histogram: 1 0 0 0 0 0 0 0 0 0

Total # of neighbors = 698758
Ave neighs/atom = 35.5566
Neighbor list builds = 495
Dangerous builds not checked
Setting up Verlet run ...
  Unit style    : metal
  Current step  : 49833
  Time step     : 0.001
Per MPI rank memory allocation (min/avg/max) = 18.2 | 18.2 | 18.2 Mbytes
Step Temp Press TotEng PotEng Enthalpy Volume 
   49833    1721.6474    362.16926   -73908.763   -78281.904   -73754.135     684048.9 
   50005    1710.3928   -163.37728    -73993.07   -78337.624   -74062.858    684382.01 
Loop time of 14.2821 on 1 procs for 172 steps with 19652 atoms

Performance: 1.041 ns/day, 23.065 hours/ns, 12.043 timesteps/s
100.0% CPU use with 1 MPI tasks x no OpenMP threads

MPI task timing breakdown:
Section |  min time  |  avg time  |  max time  |%varavg| %total
---------------------------------------------------------------
Pair    | 6.7951     | 6.7951     | 6.7951     |   0.0 | 47.58
Neigh   | 7.0305     | 7.0305     | 7.0305     |   0.0 | 49.23
Comm    | 0.15623    | 0.15623    | 0.15623    |   0.0 |  1.09
Output  | 0.00013709 | 0.00013709 | 0.00013709 |   0.0 |  0.00
Modify  | 0.2406     | 0.2406     | 0.2406     |   0.0 |  1.68
Other   |            | 0.05953    |            |       |  0.42

Nlocal:    19652 ave 19652 max 19652 min
Histogram: 1 0 0 0 0 0 0 0 0 0
Nghost:    13742 ave 13742 max 13742 min
Histogram: 1 0 0 0 0 0 0 0 0 0
Neighs:    698281 ave 698281 max 698281 min
Histogram: 1 0 0 0 0 0 0 0 0 0

Total # of neighbors = 698281
Ave neighs/atom = 35.5323
Neighbor list builds = 172
Dangerous builds not checked
Setting up Verlet run ...
  Unit style    : metal
  Current step  : 50005
  Time step     : 0.001
Per MPI rank memory allocation (min/avg/max) = 18.2 | 18.2 | 18.2 Mbytes
Step Temp Press TotEng PotEng Enthalpy Volume 
   50005    1710.3928   -163.37728    -73993.07   -78337.624   -74062.858    684382.01 
   50025    1719.2051   -159.91655   -73994.552   -78361.489    -74062.86    684371.97 
   50500    1658.3917    116.22527   -74249.174    -78461.64   -74199.644    682780.43 
Loop time of 40.3101 on 1 procs for 495 steps with 19652 atoms

Performance: 1.061 ns/day, 22.621 hours/ns, 12.280 timesteps/s
98.5% CPU use with 1 MPI tasks x no OpenMP threads

MPI task timing breakdown:
Section |  min time  |  avg time  |  max time  |%varavg| %total
---------------------------------------------------------------
Pair    | 18.969     | 18.969     | 18.969     |   0.0 | 47.06
Neigh   | 20.03      | 20.03      | 20.03      |   0.0 | 49.69
Comm    | 0.42948    | 0.42948    | 0.42948    |   0.0 |  1.07
Output  | 0.076645   | 0.076645   | 0.076645   |   0.0 |  0.19
Modify  | 0.63896    | 0.63896    | 0.63896    |   0.0 |  1.59
Other   |            | 0.166      |            |       |  0.41

Nlocal:    19652 ave 19652 max 19652 min
Histogram: 1 0 0 0 0 0 0 0 0 0
Nghost:    13694 ave 13694 max 13694 min
Histogram: 1 0 0 0 0 0 0 0 0 0
Neighs:    699063 ave 699063 max 699063 min
Histogram: 1 0 0 0 0 0 0 0 0 0

Total # of neighbors = 699063
Ave neighs/atom = 35.5721
Neighbor list builds = 495
Dangerous builds not checked
Setting up Verlet run ...
  Unit style    : metal
  Current step  : 50500
  Time step     : 0.001
Per MPI rank memory allocation (min/avg/max) = 18.2 | 18.2 | 18.2 Mbytes
Step Temp Press TotEng PotEng Enthalpy Volume 
   50500    1658.3917    116.22527   -74249.174    -78461.64   -74199.644    682780.43 
   50672    1649.2534   -100.38194   -74323.377    -78512.63   -74366.168    682984.55 
Loop time of 13.6012 on 1 procs for 172 steps with 19652 atoms

Performance: 1.093 ns/day, 21.966 hours/ns, 12.646 timesteps/s
100.0% CPU use with 1 MPI tasks x no OpenMP threads

MPI task timing breakdown:
Section |  min time  |  avg time  |  max time  |%varavg| %total
---------------------------------------------------------------
Pair    | 6.4176     | 6.4176     | 6.4176     |   0.0 | 47.18
Neigh   | 6.7691     | 6.7691     | 6.7691     |   0.0 | 49.77
Comm    | 0.14223    | 0.14223    | 0.14223    |   0.0 |  1.05
Output  | 0.00013804 | 0.00013804 | 0.00013804 |   0.0 |  0.00
Modify  | 0.21752    | 0.21752    | 0.21752    |   0.0 |  1.60
Other   |            | 0.05458    |            |       |  0.40

Nlocal:    19652 ave 19652 max 19652 min
Histogram: 1 0 0 0 0 0 0 0 0 0
Nghost:    13701 ave 13701 max 13701 min
Histogram: 1 0 0 0 0 0 0 0 0 0
Neighs:    699437 ave 699437 max 699437 min
Histogram: 1 0 0 0 0 0 0 0 0 0

Total # of neighbors = 699437
Ave neighs/atom = 35.5911
Neighbor list builds = 172
Dangerous builds not checked
Setting up Verlet run ...
  Unit style    : metal
  Current step  : 50672
  Time step     : 0.001
Per MPI rank memory allocation (min/avg/max) = 18.2 | 18.2 | 18.2 Mbytes
Step Temp Press TotEng PotEng Enthalpy Volume 
   50672    1649.2534   -100.38194   -74323.377    -78512.63   -74366.168    682984.55 
   50692    1660.5421   -124.40957   -74323.789   -78541.718   -74376.823    682977.88 
   51167    1609.3159    34.889956   -74554.362   -78642.171    -74539.52    681558.03 
Loop time of 43.6194 on 1 procs for 495 steps with 19652 atoms

Performance: 0.980 ns/day, 24.478 hours/ns, 11.348 timesteps/s
99.7% CPU use with 1 MPI tasks x no OpenMP threads

MPI task timing breakdown:
Section |  min time  |  avg time  |  max time  |%varavg| %total
---------------------------------------------------------------
Pair    | 20.953     | 20.953     | 20.953     |   0.0 | 48.04
Neigh   | 21.22      | 21.22      | 21.22      |   0.0 | 48.65
Comm    | 0.47735    | 0.47735    | 0.47735    |   0.0 |  1.09
Output  | 0.082919   | 0.082919   | 0.082919   |   0.0 |  0.19
Modify  | 0.70683    | 0.70683    | 0.70683    |   0.0 |  1.62
Other   |            | 0.1794     |            |       |  0.41

Nlocal:    19652 ave 19652 max 19652 min
Histogram: 1 0 0 0 0 0 0 0 0 0
Nghost:    13795 ave 13795 max 13795 min
Histogram: 1 0 0 0 0 0 0 0 0 0
Neighs:    699779 ave 699779 max 699779 min
Histogram: 1 0 0 0 0 0 0 0 0 0

Total # of neighbors = 699779
Ave neighs/atom = 35.6085
Neighbor list builds = 495
Dangerous builds not checked
Setting up Verlet run ...
  Unit style    : metal
  Current step  : 51167
  Time step     : 0.001
Per MPI rank memory allocation (min/avg/max) = 18.2 | 18.2 | 18.2 Mbytes
Step Temp Press TotEng PotEng Enthalpy Volume 
   51167    1609.3159    34.889956   -74554.362   -78642.171    -74539.52    681558.03 
   51339    1610.8296    59.796567   -74626.902   -78718.556   -74601.465    681561.37 
Loop time of 14.2586 on 1 procs for 172 steps with 19652 atoms

Performance: 1.042 ns/day, 23.027 hours/ns, 12.063 timesteps/s
99.8% CPU use with 1 MPI tasks x no OpenMP threads

MPI task timing breakdown:
Section |  min time  |  avg time  |  max time  |%varavg| %total
---------------------------------------------------------------
Pair    | 6.7703     | 6.7703     | 6.7703     |   0.0 | 47.48
Neigh   | 7.0476     | 7.0476     | 7.0476     |   0.0 | 49.43
Comm    | 0.15159    | 0.15159    | 0.15159    |   0.0 |  1.06
Output  | 0.00016093 | 0.00016093 | 0.00016093 |   0.0 |  0.00
Modify  | 0.23007    | 0.23007    | 0.23007    |   0.0 |  1.61
Other   |            | 0.05885    |            |       |  0.41

Nlocal:    19652 ave 19652 max 19652 min
Histogram: 1 0 0 0 0 0 0 0 0 0
Nghost:    13680 ave 13680 max 13680 min
Histogram: 1 0 0 0 0 0 0 0 0 0
Neighs:    699832 ave 699832 max 699832 min
Histogram: 1 0 0 0 0 0 0 0 0 0

Total # of neighbors = 699832
Ave neighs/atom = 35.6112
Neighbor list builds = 172
Dangerous builds not checked
Setting up Verlet run ...
  Unit style    : metal
  Current step  : 51339
  Time step     : 0.001
Per MPI rank memory allocation (min/avg/max) = 18.2 | 18.2 | 18.2 Mbytes
Step Temp Press TotEng PotEng Enthalpy Volume 
   51339    1610.8296    59.796567   -74626.902   -78718.556   -74601.465    681561.37 
   51359    1603.9797     11.58722   -74627.851   -78702.105   -74622.922    681564.05 
   51834     1565.755    102.26874   -74889.022   -78866.182   -74845.622    679910.36 
Loop time of 42.7791 on 1 procs for 495 steps with 19652 atoms

Performance: 1.000 ns/day, 24.006 hours/ns, 11.571 timesteps/s
98.5% CPU use with 1 MPI tasks x no OpenMP threads

MPI task timing breakdown:
Section |  min time  |  avg time  |  max time  |%varavg| %total
---------------------------------------------------------------
Pair    | 20.411     | 20.411     | 20.411     |   0.0 | 47.71
Neigh   | 20.986     | 20.986     | 20.986     |   0.0 | 49.06
Comm    | 0.45762    | 0.45762    | 0.45762    |   0.0 |  1.07
Output  | 0.057528   | 0.057528   | 0.057528   |   0.0 |  0.13
Modify  | 0.69493    | 0.69493    | 0.69493    |   0.0 |  1.62
Other   |            | 0.1719     |            |       |  0.40

Nlocal:    19652 ave 19652 max 19652 min
Histogram: 1 0 0 0 0 0 0 0 0 0
Nghost:    13714 ave 13714 max 13714 min
Histogram: 1 0 0 0 0 0 0 0 0 0
Neighs:    700886 ave 700886 max 700886 min
Histogram: 1 0 0 0 0 0 0 0 0 0

Total # of neighbors = 700886
Ave neighs/atom = 35.6649
Neighbor list builds = 495
Dangerous builds not checked
Setting up Verlet run ...
  Unit style    : metal
  Current step  : 51834
  Time step     : 0.001
Per MPI rank memory allocation (min/avg/max) = 18.2 | 18.2 | 18.2 Mbytes
Step Temp Press TotEng PotEng Enthalpy Volume 
   51834     1565.755    102.26874   -74889.022   -78866.182   -74845.622    679910.36 
   52006    1554.6373   -183.43101   -74966.844   -78915.765   -75044.693    679969.16 
Loop time of 14.7627 on 1 procs for 172 steps with 19652 atoms

Performance: 1.007 ns/day, 23.842 hours/ns, 11.651 timesteps/s
99.8% CPU use with 1 MPI tasks x no OpenMP threads

MPI task timing breakdown:
Section |  min time  |  avg time  |  max time  |%varavg| %total
---------------------------------------------------------------
Pair    | 7.1431     | 7.1431     | 7.1431     |   0.0 | 48.39
Neigh   | 7.1721     | 7.1721     | 7.1721     |   0.0 | 48.58
Comm    | 0.16031    | 0.16031    | 0.16031    |   0.0 |  1.09
Output  | 0.00017691 | 0.00017691 | 0.00017691 |   0.0 |  0.00
Modify  | 0.22717    | 0.22717    | 0.22717    |   0.0 |  1.54
Other   |            | 0.05985    |            |       |  0.41

Nlocal:    19652 ave 19652 max 19652 min
Histogram: 1 0 0 0 0 0 0 0 0 0
Nghost:    13724 ave 13724 max 13724 min
Histogram: 1 0 0 0 0 0 0 0 0 0
Neighs:    700859 ave 700859 max 700859 min
Histogram: 1 0 0 0 0 0 0 0 0 0

Total # of neighbors = 700859
Ave neighs/atom = 35.6635
Neighbor list builds = 172
Dangerous builds not checked
Setting up Verlet run ...
  Unit style    : metal
  Current step  : 52006
  Time step     : 0.001
Per MPI rank memory allocation (min/avg/max) = 18.2 | 18.2 | 18.2 Mbytes
Step Temp Press TotEng PotEng Enthalpy Volume 
   52006    1554.6373   -183.43101   -74966.844   -78915.765   -75044.693    679969.16 
   52026    1553.6888    -207.4427    -74967.34   -78913.851   -75055.377    679956.41 
   52501    1510.7495   -98.318238   -75203.649    -79041.09   -75245.292    678614.86 
Loop time of 43.1205 on 1 procs for 495 steps with 19652 atoms

Performance: 0.992 ns/day, 24.198 hours/ns, 11.479 timesteps/s
98.6% CPU use with 1 MPI tasks x no OpenMP threads

MPI task timing breakdown:
Section |  min time  |  avg time  |  max time  |%varavg| %total
---------------------------------------------------------------
Pair    | 20.673     | 20.673     | 20.673     |   0.0 | 47.94
Neigh   | 21.07      | 21.07      | 21.07      |   0.0 | 48.86
Comm    | 0.46238    | 0.46238    | 0.46238    |   0.0 |  1.07
Output  | 0.056663   | 0.056663   | 0.056663   |   0.0 |  0.13
Modify  | 0.67923    | 0.67923    | 0.67923    |   0.0 |  1.58
Other   |            | 0.1791     |            |       |  0.42

Nlocal:    19652 ave 19652 max 19652 min
Histogram: 1 0 0 0 0 0 0 0 0 0
Nghost:    13756 ave 13756 max 13756 min
Histogram: 1 0 0 0 0 0 0 0 0 0
Neighs:    701814 ave 701814 max 701814 min
Histogram: 1 0 0 0 0 0 0 0 0 0

Total # of neighbors = 701814
Ave neighs/atom = 35.7121
Neighbor list builds = 495
Dangerous builds not checked
Setting up Verlet run ...
  Unit style    : metal
  Current step  : 52501
  Time step     : 0.001
Per MPI rank memory allocation (min/avg/max) = 18.2 | 18.2 | 18.2 Mbytes
Step Temp Press TotEng PotEng Enthalpy Volume 
   52501    1510.7495   -98.318238   -75203.649    -79041.09   -75245.292    678614.86 
   52673    1506.6365   -190.24751   -75281.391   -79108.385   -75361.942    678356.31 
Loop time of 14.8473 on 1 procs for 172 steps with 19652 atoms

Performance: 1.001 ns/day, 23.978 hours/ns, 11.585 timesteps/s
100.0% CPU use with 1 MPI tasks x no OpenMP threads

MPI task timing breakdown:
Section |  min time  |  avg time  |  max time  |%varavg| %total
---------------------------------------------------------------
Pair    | 7.1819     | 7.1819     | 7.1819     |   0.0 | 48.37
Neigh   | 7.2142     | 7.2142     | 7.2142     |   0.0 | 48.59
Comm    | 0.15987    | 0.15987    | 0.15987    |   0.0 |  1.08
Output  | 0.00018597 | 0.00018597 | 0.00018597 |   0.0 |  0.00
Modify  | 0.23127    | 0.23127    | 0.23127    |   0.0 |  1.56
Other   |            | 0.05991    |            |       |  0.40

Nlocal:    19652 ave 19652 max 19652 min
Histogram: 1 0 0 0 0 0 0 0 0 0
Nghost:    13709 ave 13709 max 13709 min
Histogram: 1 0 0 0 0 0 0 0 0 0
Neighs:    701197 ave 701197 max 701197 min
Histogram: 1 0 0 0 0 0 0 0 0 0

Total # of neighbors = 701197
Ave neighs/atom = 35.6807
Neighbor list builds = 172
Dangerous builds not checked
Setting up Verlet run ...
  Unit style    : metal
  Current step  : 52673
  Time step     : 0.001
Per MPI rank memory allocation (min/avg/max) = 18.2 | 18.2 | 18.2 Mbytes
Step Temp Press TotEng PotEng Enthalpy Volume 
   52673    1506.6365   -190.24751   -75281.391   -79108.385   -75361.942    678356.31 
   52693    1504.1456   -238.12757   -75282.043    -79102.71   -75382.863    678342.06 
   53168     1455.447    110.87102   -75533.972    -79230.94   -75487.131    676893.43 
Loop time of 44.7316 on 1 procs for 495 steps with 19652 atoms

Performance: 0.956 ns/day, 25.102 hours/ns, 11.066 timesteps/s
96.3% CPU use with 1 MPI tasks x no OpenMP threads

MPI task timing breakdown:
Section |  min time  |  avg time  |  max time  |%varavg| %total
---------------------------------------------------------------
Pair    | 21.525     | 21.525     | 21.525     |   0.0 | 48.12
Neigh   | 21.741     | 21.741     | 21.741     |   0.0 | 48.60
Comm    | 0.47978    | 0.47978    | 0.47978    |   0.0 |  1.07
Output  | 0.095551   | 0.095551   | 0.095551   |   0.0 |  0.21
Modify  | 0.71585    | 0.71585    | 0.71585    |   0.0 |  1.60
Other   |            | 0.174      |            |       |  0.39

Nlocal:    19652 ave 19652 max 19652 min
Histogram: 1 0 0 0 0 0 0 0 0 0
Nghost:    13749 ave 13749 max 13749 min
Histogram: 1 0 0 0 0 0 0 0 0 0
Neighs:    702457 ave 702457 max 702457 min
Histogram: 1 0 0 0 0 0 0 0 0 0

Total # of neighbors = 702457
Ave neighs/atom = 35.7448
Neighbor list builds = 495
Dangerous builds not checked
Setting up Verlet run ...
  Unit style    : metal
  Current step  : 53168
  Time step     : 0.001
Per MPI rank memory allocation (min/avg/max) = 18.2 | 18.2 | 18.2 Mbytes
Step Temp Press TotEng PotEng Enthalpy Volume 
   53168     1455.447    110.87102   -75533.972    -79230.94   -75487.131    676893.43 
   53340    1465.2725   -166.27953   -75608.394    -79330.32   -75678.665    677086.89 
Loop time of 16.0325 on 1 procs for 172 steps with 19652 atoms

Performance: 0.927 ns/day, 25.892 hours/ns, 10.728 timesteps/s
100.0% CPU use with 1 MPI tasks x no OpenMP threads

MPI task timing breakdown:
Section |  min time  |  avg time  |  max time  |%varavg| %total
---------------------------------------------------------------
Pair    | 7.7409     | 7.7409     | 7.7409     |   0.0 | 48.28
Neigh   | 7.796      | 7.796      | 7.796      |   0.0 | 48.63
Comm    | 0.16792    | 0.16792    | 0.16792    |   0.0 |  1.05
Output  | 0.000175   | 0.000175   | 0.000175   |   0.0 |  0.00
Modify  | 0.2635     | 0.2635     | 0.2635     |   0.0 |  1.64
Other   |            | 0.06391    |            |       |  0.40

Nlocal:    19652 ave 19652 max 19652 min
Histogram: 1 0 0 0 0 0 0 0 0 0
Nghost:    13806 ave 13806 max 13806 min
Histogram: 1 0 0 0 0 0 0 0 0 0
Neighs:    701645 ave 701645 max 701645 min
Histogram: 1 0 0 0 0 0 0 0 0 0

Total # of neighbors = 701645
Ave neighs/atom = 35.7035
Neighbor list builds = 172
Dangerous builds not checked
Setting up Verlet run ...
  Unit style    : metal
  Current step  : 53340
  Time step     : 0.001
Per MPI rank memory allocation (min/avg/max) = 18.2 | 18.2 | 18.2 Mbytes
Step Temp Press TotEng PotEng Enthalpy Volume 
   53340    1465.2725   -166.27953   -75608.394    -79330.32   -75678.665    677086.89 
   53360    1468.2416   -152.59736     -75610.2   -79339.667   -75674.687    677075.56 
   53835    1405.2145   -59.417009   -75918.004   -79487.377   -75943.041    675120.15 
Loop time of 43.6621 on 1 procs for 495 steps with 19652 atoms

Performance: 0.980 ns/day, 24.502 hours/ns, 11.337 timesteps/s
97.0% CPU use with 1 MPI tasks x no OpenMP threads

MPI task timing breakdown:
Section |  min time  |  avg time  |  max time  |%varavg| %total
---------------------------------------------------------------
Pair    | 20.821     | 20.821     | 20.821     |   0.0 | 47.69
Neigh   | 21.442     | 21.442     | 21.442     |   0.0 | 49.11
Comm    | 0.44671    | 0.44671    | 0.44671    |   0.0 |  1.02
Output  | 0.075047   | 0.075047   | 0.075047   |   0.0 |  0.17
Modify  | 0.70985    | 0.70985    | 0.70985    |   0.0 |  1.63
Other   |            | 0.1672     |            |       |  0.38

Nlocal:    19652 ave 19652 max 19652 min
Histogram: 1 0 0 0 0 0 0 0 0 0
Nghost:    13753 ave 13753 max 13753 min
Histogram: 1 0 0 0 0 0 0 0 0 0
Neighs:    702999 ave 702999 max 702999 min
Histogram: 1 0 0 0 0 0 0 0 0 0

Total # of neighbors = 702999
Ave neighs/atom = 35.7724
Neighbor list builds = 495
Dangerous builds not checked
Setting up Verlet run ...
  Unit style    : metal
  Current step  : 53835
  Time step     : 0.001
Per MPI rank memory allocation (min/avg/max) = 18.2 | 18.2 | 18.2 Mbytes
Step Temp Press TotEng PotEng Enthalpy Volume 
   53835    1405.2145   -59.417009   -75918.004   -79487.377   -75943.041    675120.15 
   54007    1403.8869   -5.8816567   -75980.555   -79546.556   -75983.033    674845.63 
Loop time of 14.7574 on 1 procs for 172 steps with 19652 atoms

Performance: 1.007 ns/day, 23.833 hours/ns, 11.655 timesteps/s
99.9% CPU use with 1 MPI tasks x no OpenMP threads

MPI task timing breakdown:
Section |  min time  |  avg time  |  max time  |%varavg| %total
---------------------------------------------------------------
Pair    | 7.1193     | 7.1193     | 7.1193     |   0.0 | 48.24
Neigh   | 7.1851     | 7.1851     | 7.1851     |   0.0 | 48.69
Comm    | 0.15633    | 0.15633    | 0.15633    |   0.0 |  1.06
Output  | 0.00016904 | 0.00016904 | 0.00016904 |   0.0 |  0.00
Modify  | 0.23714    | 0.23714    | 0.23714    |   0.0 |  1.61
Other   |            | 0.05935    |            |       |  0.40

Nlocal:    19652 ave 19652 max 19652 min
Histogram: 1 0 0 0 0 0 0 0 0 0
Nghost:    13809 ave 13809 max 13809 min
Histogram: 1 0 0 0 0 0 0 0 0 0
Neighs:    703296 ave 703296 max 703296 min
Histogram: 1 0 0 0 0 0 0 0 0 0

Total # of neighbors = 703296
Ave neighs/atom = 35.7875
Neighbor list builds = 172
Dangerous builds not checked
Setting up Verlet run ...
  Unit style    : metal
  Current step  : 54007
  Time step     : 0.001
Per MPI rank memory allocation (min/avg/max) = 18.2 | 18.2 | 18.2 Mbytes
Step Temp Press TotEng PotEng Enthalpy Volume 
   54007    1403.8869   -5.8816567   -75980.555   -79546.556   -75983.033    674845.63 
   54027    1404.9381     -15.4737   -75981.095   -79549.766   -75987.613    674845.02 
   54502    1356.6842    16.670671   -76235.856   -79681.957   -76228.845     673824.3 
Loop time of 47.1842 on 1 procs for 495 steps with 19652 atoms

Performance: 0.906 ns/day, 26.478 hours/ns, 10.491 timesteps/s
95.4% CPU use with 1 MPI tasks x no OpenMP threads

MPI task timing breakdown:
Section |  min time  |  avg time  |  max time  |%varavg| %total
---------------------------------------------------------------
Pair    | 22.792     | 22.792     | 22.792     |   0.0 | 48.30
Neigh   | 22.818     | 22.818     | 22.818     |   0.0 | 48.36
Comm    | 0.49216    | 0.49216    | 0.49216    |   0.0 |  1.04
Output  | 0.082602   | 0.082602   | 0.082602   |   0.0 |  0.18
Modify  | 0.79464    | 0.79464    | 0.79464    |   0.0 |  1.68
Other   |            | 0.205      |            |       |  0.43

Nlocal:    19652 ave 19652 max 19652 min
Histogram: 1 0 0 0 0 0 0 0 0 0
Nghost:    13786 ave 13786 max 13786 min
Histogram: 1 0 0 0 0 0 0 0 0 0
Neighs:    703645 ave 703645 max 703645 min
Histogram: 1 0 0 0 0 0 0 0 0 0

Total # of neighbors = 703645
Ave neighs/atom = 35.8053
Neighbor list builds = 495
Dangerous builds not checked
Setting up Verlet run ...
  Unit style    : metal
  Current step  : 54502
  Time step     : 0.001
Per MPI rank memory allocation (min/avg/max) = 18.2 | 18.2 | 18.2 Mbytes
Step Temp Press TotEng PotEng Enthalpy Volume 
   54502    1356.6842    16.670671   -76235.856   -79681.957   -76228.845     673824.3 
   54674    1346.1362   -7.9946584   -76295.357   -79714.665   -76298.718    673536.51 
Loop time of 15.1586 on 1 procs for 172 steps with 19652 atoms

Performance: 0.980 ns/day, 24.481 hours/ns, 11.347 timesteps/s
96.6% CPU use with 1 MPI tasks x no OpenMP threads

MPI task timing breakdown:
Section |  min time  |  avg time  |  max time  |%varavg| %total
---------------------------------------------------------------
Pair    | 7.215      | 7.215      | 7.215      |   0.0 | 47.60
Neigh   | 7.4631     | 7.4631     | 7.4631     |   0.0 | 49.23
Comm    | 0.15513    | 0.15513    | 0.15513    |   0.0 |  1.02
Output  | 0.00014186 | 0.00014186 | 0.00014186 |   0.0 |  0.00
Modify  | 0.25943    | 0.25943    | 0.25943    |   0.0 |  1.71
Other   |            | 0.06582    |            |       |  0.43

Nlocal:    19652 ave 19652 max 19652 min
Histogram: 1 0 0 0 0 0 0 0 0 0
Nghost:    13802 ave 13802 max 13802 min
Histogram: 1 0 0 0 0 0 0 0 0 0
Neighs:    703596 ave 703596 max 703596 min
Histogram: 1 0 0 0 0 0 0 0 0 0

Total # of neighbors = 703596
Ave neighs/atom = 35.8028
Neighbor list builds = 172
Dangerous builds not checked
Setting up Verlet run ...
  Unit style    : metal
  Current step  : 54674
  Time step     : 0.001
Per MPI rank memory allocation (min/avg/max) = 18.2 | 18.2 | 18.2 Mbytes
Step Temp Press TotEng PotEng Enthalpy Volume 
   54674    1346.1362   -7.9946584   -76295.357   -79714.665   -76298.718    673536.51 
   54694    1349.3568    19.597861   -76295.115   -79722.604   -76286.876    673536.63 
   55169    1323.2208   -53.196886   -76528.826   -79889.928   -76551.166    672818.74 
Loop time of 42.801 on 1 procs for 495 steps with 19652 atoms

Performance: 0.999 ns/day, 24.019 hours/ns, 11.565 timesteps/s
99.3% CPU use with 1 MPI tasks x no OpenMP threads

MPI task timing breakdown:
Section |  min time  |  avg time  |  max time  |%varavg| %total
---------------------------------------------------------------
Pair    | 20.586     | 20.586     | 20.586     |   0.0 | 48.10
Neigh   | 20.843     | 20.843     | 20.843     |   0.0 | 48.70
Comm    | 0.45175    | 0.45175    | 0.45175    |   0.0 |  1.06
Output  | 0.071296   | 0.071296   | 0.071296   |   0.0 |  0.17
Modify  | 0.67717    | 0.67717    | 0.67717    |   0.0 |  1.58
Other   |            | 0.1718     |            |       |  0.40

Nlocal:    19652 ave 19652 max 19652 min
Histogram: 1 0 0 0 0 0 0 0 0 0
Nghost:    13824 ave 13824 max 13824 min
Histogram: 1 0 0 0 0 0 0 0 0 0
Neighs:    703685 ave 703685 max 703685 min
Histogram: 1 0 0 0 0 0 0 0 0 0

Total # of neighbors = 703685
Ave neighs/atom = 35.8073
Neighbor list builds = 495
Dangerous builds not checked
Setting up Verlet run ...
  Unit style    : metal
  Current step  : 55169
  Time step     : 0.001
Per MPI rank memory allocation (min/avg/max) = 18.2 | 18.2 | 18.2 Mbytes
Step Temp Press TotEng PotEng Enthalpy Volume 
   55169    1323.2208   -53.196886   -76528.826   -79889.928   -76551.166    672818.74 
   55341    1313.3058   -102.34934   -76608.796   -79944.713   -76651.742    672268.75 
Loop time of 15.6996 on 1 procs for 172 steps with 19652 atoms

Performance: 0.947 ns/day, 25.355 hours/ns, 10.956 timesteps/s
96.2% CPU use with 1 MPI tasks x no OpenMP threads

MPI task timing breakdown:
Section |  min time  |  avg time  |  max time  |%varavg| %total
---------------------------------------------------------------
Pair    | 7.542      | 7.542      | 7.542      |   0.0 | 48.04
Neigh   | 7.6427     | 7.6427     | 7.6427     |   0.0 | 48.68
Comm    | 0.16828    | 0.16828    | 0.16828    |   0.0 |  1.07
Output  | 0.0001719  | 0.0001719  | 0.0001719  |   0.0 |  0.00
Modify  | 0.28298    | 0.28298    | 0.28298    |   0.0 |  1.80
Other   |            | 0.06344    |            |       |  0.40

Nlocal:    19652 ave 19652 max 19652 min
Histogram: 1 0 0 0 0 0 0 0 0 0
Nghost:    13794 ave 13794 max 13794 min
Histogram: 1 0 0 0 0 0 0 0 0 0
Neighs:    704177 ave 704177 max 704177 min
Histogram: 1 0 0 0 0 0 0 0 0 0

Total # of neighbors = 704177
Ave neighs/atom = 35.8323
Neighbor list builds = 172
Dangerous builds not checked
Setting up Verlet run ...
  Unit style    : metal
  Current step  : 55341
  Time step     : 0.001
[...]
Pair    | 18.778     | 18.778     | 18.778     |   0.0 | 48.34
Neigh   | 18.809     | 18.809     | 18.809     |   0.0 | 48.42
Comm    | 0.41702    | 0.41702    | 0.41702    |   0.0 |  1.07
Output  | 0.059965   | 0.059965   | 0.059965   |   0.0 |  0.15
Modify  | 0.61409    | 0.61409    | 0.61409    |   0.0 |  1.58
Other   |            | 0.1651     |            |       |  0.43

Nlocal:    19652 ave 19652 max 19652 min
Histogram: 1 0 0 0 0 0 0 0 0 0
Nghost:    13993 ave 13993 max 13993 min
Histogram: 1 0 0 0 0 0 0 0 0 0
Neighs:    710507 ave 710507 max 710507 min
Histogram: 1 0 0 0 0 0 0 0 0 0

Total # of neighbors = 710507
Ave neighs/atom = 36.1544
Neighbor list builds = 495
Dangerous builds not checked
Setting up Verlet run ...
  Unit style    : metal
  Current step  : 67175
  Time step     : 0.001
Per MPI rank memory allocation (min/avg/max) = 18.2 | 18.2 | 18.2 Mbytes
Step Temp Press TotEng PotEng Enthalpy Volume 
   67175    423.32942    177.78246   -82087.776   -83163.071    -82015.69       649635 
   67347    413.24385    12.581938   -82143.926   -83193.603   -82138.824    649658.53 
Loop time of 13.2415 on 1 procs for 172 steps with 19652 atoms

Performance: 1.122 ns/day, 21.385 hours/ns, 12.989 timesteps/s
100.0% CPU use with 1 MPI tasks x no OpenMP threads

MPI task timing breakdown:
Section |  min time  |  avg time  |  max time  |%varavg| %total
---------------------------------------------------------------
Pair    | 6.4021     | 6.4021     | 6.4021     |   0.0 | 48.35
Neigh   | 6.4448     | 6.4448     | 6.4448     |   0.0 | 48.67
Comm    | 0.13848    | 0.13848    | 0.13848    |   0.0 |  1.05
Output  | 0.00011492 | 0.00011492 | 0.00011492 |   0.0 |  0.00
Modify  | 0.20022    | 0.20022    | 0.20022    |   0.0 |  1.51
Other   |            | 0.05578    |            |       |  0.42

Nlocal:    19652 ave 19652 max 19652 min
Histogram: 1 0 0 0 0 0 0 0 0 0
Nghost:    14018 ave 14018 max 14018 min
Histogram: 1 0 0 0 0 0 0 0 0 0
Neighs:    710287 ave 710287 max 710287 min
Histogram: 1 0 0 0 0 0 0 0 0 0

Total # of neighbors = 710287
Ave neighs/atom = 36.1432
Neighbor list builds = 172
Dangerous builds not checked
Setting up Verlet run ...
  Unit style    : metal
  Current step  : 67347
  Time step     : 0.001
Per MPI rank memory allocation (min/avg/max) = 18.2 | 18.2 | 18.2 Mbytes
Step Temp Press TotEng PotEng Enthalpy Volume 
   67347    413.24385    12.581938   -82143.926   -83193.603   -82138.824    649658.53 
   67367    412.64631   -3.6025992   -82145.384   -83193.543   -82146.845    649660.41 
   67842     373.1629   -143.68957   -82357.105   -83304.973   -82415.327    649183.29 
Loop time of 42.4161 on 1 procs for 495 steps with 19652 atoms

Performance: 1.008 ns/day, 23.802 hours/ns, 11.670 timesteps/s
99.5% CPU use with 1 MPI tasks x no OpenMP threads

MPI task timing breakdown:
Section |  min time  |  avg time  |  max time  |%varavg| %total
---------------------------------------------------------------
Pair    | 20.777     | 20.777     | 20.777     |   0.0 | 48.98
Neigh   | 20.223     | 20.223     | 20.223     |   0.0 | 47.68
Comm    | 0.47715    | 0.47715    | 0.47715    |   0.0 |  1.12
Output  | 0.079212   | 0.079212   | 0.079212   |   0.0 |  0.19
Modify  | 0.66942    | 0.66942    | 0.66942    |   0.0 |  1.58
Other   |            | 0.191      |            |       |  0.45

Nlocal:    19652 ave 19652 max 19652 min
Histogram: 1 0 0 0 0 0 0 0 0 0
Nghost:    13967 ave 13967 max 13967 min
Histogram: 1 0 0 0 0 0 0 0 0 0
Neighs:    710186 ave 710186 max 710186 min
Histogram: 1 0 0 0 0 0 0 0 0 0

Total # of neighbors = 710186
Ave neighs/atom = 36.1381
Neighbor list builds = 495
Dangerous builds not checked
Setting up Verlet run ...
  Unit style    : metal
  Current step  : 67842
  Time step     : 0.001
Per MPI rank memory allocation (min/avg/max) = 18.2 | 18.2 | 18.2 Mbytes
Step Temp Press TotEng PotEng Enthalpy Volume 
   67842     373.1629   -143.68957   -82357.105   -83304.973   -82415.327    649183.29 
   68014    362.92843     14.61321   -82413.197   -83335.069   -82407.281    648646.21 
Loop time of 13.2393 on 1 procs for 172 steps with 19652 atoms

Performance: 1.122 ns/day, 21.381 hours/ns, 12.992 timesteps/s
99.9% CPU use with 1 MPI tasks x no OpenMP threads

MPI task timing breakdown:
Section |  min time  |  avg time  |  max time  |%varavg| %total
---------------------------------------------------------------
Pair    | 6.4187     | 6.4187     | 6.4187     |   0.0 | 48.48
Neigh   | 6.4192     | 6.4192     | 6.4192     |   0.0 | 48.49
Comm    | 0.14147    | 0.14147    | 0.14147    |   0.0 |  1.07
Output  | 0.00013518 | 0.00013518 | 0.00013518 |   0.0 |  0.00
Modify  | 0.20373    | 0.20373    | 0.20373    |   0.0 |  1.54
Other   |            | 0.05611    |            |       |  0.42

Nlocal:    19652 ave 19652 max 19652 min
Histogram: 1 0 0 0 0 0 0 0 0 0
Nghost:    13971 ave 13971 max 13971 min
Histogram: 1 0 0 0 0 0 0 0 0 0
Neighs:    710744 ave 710744 max 710744 min
Histogram: 1 0 0 0 0 0 0 0 0 0

Total # of neighbors = 710744
Ave neighs/atom = 36.1665
Neighbor list builds = 172
Dangerous builds not checked
Setting up Verlet run ...
  Unit style    : metal
  Current step  : 68014
  Time step     : 0.001
Per MPI rank memory allocation (min/avg/max) = 18.2 | 18.2 | 18.2 Mbytes
Step Temp Press TotEng PotEng Enthalpy Volume 
   68014    362.92843     14.61321   -82413.197   -83335.069   -82407.281    648646.21 
   68034    363.13772    15.338839   -82414.653   -83337.056   -82408.443    648650.49 
   68509    323.37958    38.383515    -82623.49   -83444.903    -82607.97    647805.51 
Loop time of 39.045 on 1 procs for 495 steps with 19652 atoms

Performance: 1.095 ns/day, 21.911 hours/ns, 12.678 timesteps/s
99.8% CPU use with 1 MPI tasks x no OpenMP threads

MPI task timing breakdown:
Section |  min time  |  avg time  |  max time  |%varavg| %total
---------------------------------------------------------------
Pair    | 18.991     | 18.991     | 18.991     |   0.0 | 48.64
Neigh   | 18.793     | 18.793     | 18.793     |   0.0 | 48.13
Comm    | 0.41565    | 0.41565    | 0.41565    |   0.0 |  1.06
Output  | 0.092068   | 0.092068   | 0.092068   |   0.0 |  0.24
Modify  | 0.58963    | 0.58963    | 0.58963    |   0.0 |  1.51
Other   |            | 0.1635     |            |       |  0.42

Nlocal:    19652 ave 19652 max 19652 min
Histogram: 1 0 0 0 0 0 0 0 0 0
Nghost:    14013 ave 14013 max 14013 min
Histogram: 1 0 0 0 0 0 0 0 0 0
Neighs:    710592 ave 710592 max 710592 min
Histogram: 1 0 0 0 0 0 0 0 0 0

Total # of neighbors = 710592
Ave neighs/atom = 36.1588
Neighbor list builds = 495
Dangerous builds not checked
Setting up Verlet run ...
  Unit style    : metal
  Current step  : 68509
  Time step     : 0.001
Per MPI rank memory allocation (min/avg/max) = 18.2 | 18.2 | 18.2 Mbytes
Step Temp Press TotEng PotEng Enthalpy Volume 
   68509    323.37958    38.383515    -82623.49   -83444.903    -82607.97    647805.51 
   68681    313.76667    58.299428   -82677.194    -83474.19   -82653.633    647506.73 
Loop time of 14.891 on 1 procs for 172 steps with 19652 atoms

Performance: 0.998 ns/day, 24.049 hours/ns, 11.551 timesteps/s
99.0% CPU use with 1 MPI tasks x no OpenMP threads

MPI task timing breakdown:
Section |  min time  |  avg time  |  max time  |%varavg| %total
---------------------------------------------------------------
Pair    | 7.3742     | 7.3742     | 7.3742     |   0.0 | 49.52
Neigh   | 7.0542     | 7.0542     | 7.0542     |   0.0 | 47.37
Comm    | 0.16356    | 0.16356    | 0.16356    |   0.0 |  1.10
Output  | 0.00012398 | 0.00012398 | 0.00012398 |   0.0 |  0.00
Modify  | 0.23501    | 0.23501    | 0.23501    |   0.0 |  1.58
Other   |            | 0.06388    |            |       |  0.43

Nlocal:    19652 ave 19652 max 19652 min
Histogram: 1 0 0 0 0 0 0 0 0 0
Nghost:    14019 ave 14019 max 14019 min
Histogram: 1 0 0 0 0 0 0 0 0 0
Neighs:    710835 ave 710835 max 710835 min
Histogram: 1 0 0 0 0 0 0 0 0 0

Total # of neighbors = 710835
Ave neighs/atom = 36.1711
Neighbor list builds = 172
Dangerous builds not checked
Setting up Verlet run ...
  Unit style    : metal
  Current step  : 68681
  Time step     : 0.001
Per MPI rank memory allocation (min/avg/max) = 18.2 | 18.2 | 18.2 Mbytes
Step Temp Press TotEng PotEng Enthalpy Volume 
   68681    313.76667    58.299428   -82677.194    -83474.19   -82653.633    647506.73 
   68701     313.7607    53.811853   -82678.751   -83475.732   -82657.003    647524.86 
   69176    273.89531    -211.5917   -82884.313   -83580.033   -82969.793    647253.08 
Loop time of 39.7168 on 1 procs for 495 steps with 19652 atoms

Performance: 1.077 ns/day, 22.288 hours/ns, 12.463 timesteps/s
99.3% CPU use with 1 MPI tasks x no OpenMP threads

MPI task timing breakdown:
Section |  min time  |  avg time  |  max time  |%varavg| %total
---------------------------------------------------------------
Pair    | 19.244     | 19.244     | 19.244     |   0.0 | 48.45
Neigh   | 19.091     | 19.091     | 19.091     |   0.0 | 48.07
Comm    | 0.41895    | 0.41895    | 0.41895    |   0.0 |  1.05
Output  | 0.18868    | 0.18868    | 0.18868    |   0.0 |  0.48
Modify  | 0.60789    | 0.60789    | 0.60789    |   0.0 |  1.53
Other   |            | 0.1665     |            |       |  0.42

Nlocal:    19652 ave 19652 max 19652 min
Histogram: 1 0 0 0 0 0 0 0 0 0
Nghost:    14026 ave 14026 max 14026 min
Histogram: 1 0 0 0 0 0 0 0 0 0
Neighs:    710491 ave 710491 max 710491 min
Histogram: 1 0 0 0 0 0 0 0 0 0

Total # of neighbors = 710491
Ave neighs/atom = 36.1536
Neighbor list builds = 495
Dangerous builds not checked
Setting up Verlet run ...
  Unit style    : metal
  Current step  : 69176
  Time step     : 0.001
Per MPI rank memory allocation (min/avg/max) = 18.2 | 18.2 | 18.2 Mbytes
Step Temp Press TotEng PotEng Enthalpy Volume 
   69176    273.89531    -211.5917   -82884.313   -83580.033   -82969.793    647253.08 
   69348    265.02969   -182.64189   -82938.172   -83611.372   -83011.934    647056.63 
Loop time of 14.5629 on 1 procs for 172 steps with 19652 atoms

Performance: 1.020 ns/day, 23.519 hours/ns, 11.811 timesteps/s
100.0% CPU use with 1 MPI tasks x no OpenMP threads

MPI task timing breakdown:
Section |  min time  |  avg time  |  max time  |%varavg| %total
---------------------------------------------------------------
Pair    | 7.1088     | 7.1088     | 7.1088     |   0.0 | 48.81
Neigh   | 7.0098     | 7.0098     | 7.0098     |   0.0 | 48.13
Comm    | 0.15418    | 0.15418    | 0.15418    |   0.0 |  1.06
Output  | 0.00018191 | 0.00018191 | 0.00018191 |   0.0 |  0.00
Modify  | 0.22816    | 0.22816    | 0.22816    |   0.0 |  1.57
Other   |            | 0.06177    |            |       |  0.42

Nlocal:    19652 ave 19652 max 19652 min
Histogram: 1 0 0 0 0 0 0 0 0 0
Nghost:    14035 ave 14035 max 14035 min
Histogram: 1 0 0 0 0 0 0 0 0 0
Neighs:    710667 ave 710667 max 710667 min
Histogram: 1 0 0 0 0 0 0 0 0 0

Total # of neighbors = 710667
Ave neighs/atom = 36.1626
Neighbor list builds = 172
Dangerous builds not checked
Setting up Verlet run ...
  Unit style    : metal
  Current step  : 69348
  Time step     : 0.001
Per MPI rank memory allocation (min/avg/max) = 18.2 | 18.2 | 18.2 Mbytes
Step Temp Press TotEng PotEng Enthalpy Volume 
   69348    265.02969   -182.64189   -82938.172   -83611.372   -83011.934    647056.63 
   69368    265.40508    -151.1015   -82939.898   -83614.051   -83000.916    646990.93 
   69843    229.05213    117.82755   -83140.243   -83722.056   -83092.754     645735.4 
Loop time of 41.863 on 1 procs for 495 steps with 19652 atoms

Performance: 1.022 ns/day, 23.492 hours/ns, 11.824 timesteps/s
99.7% CPU use with 1 MPI tasks x no OpenMP threads

MPI task timing breakdown:
Section |  min time  |  avg time  |  max time  |%varavg| %total
---------------------------------------------------------------
Pair    | 20.537     | 20.537     | 20.537     |   0.0 | 49.06
Neigh   | 19.958     | 19.958     | 19.958     |   0.0 | 47.67
Comm    | 0.44274    | 0.44274    | 0.44274    |   0.0 |  1.06
Output  | 0.08456    | 0.08456    | 0.08456    |   0.0 |  0.20
Modify  | 0.66148    | 0.66148    | 0.66148    |   0.0 |  1.58
Other   |            | 0.1795     |            |       |  0.43

Nlocal:    19652 ave 19652 max 19652 min
Histogram: 1 0 0 0 0 0 0 0 0 0
Nghost:    14024 ave 14024 max 14024 min
Histogram: 1 0 0 0 0 0 0 0 0 0
Neighs:    711642 ave 711642 max 711642 min
Histogram: 1 0 0 0 0 0 0 0 0 0

Total # of neighbors = 711642
Ave neighs/atom = 36.2122
Neighbor list builds = 495
Dangerous builds not checked
Setting up Verlet run ...
  Unit style    : metal
  Current step  : 69843
  Time step     : 0.001
Per MPI rank memory allocation (min/avg/max) = 18.2 | 18.2 | 18.2 Mbytes
Step Temp Press TotEng PotEng Enthalpy Volume 
   69843    229.05213    117.82755   -83140.243   -83722.056   -83092.754     645735.4 
   70015    217.47499    148.36913   -83196.039   -83748.446   -83136.264    645491.82 
Loop time of 13.7973 on 1 procs for 172 steps with 19652 atoms

Performance: 1.077 ns/day, 22.283 hours/ns, 12.466 timesteps/s
100.0% CPU use with 1 MPI tasks x no OpenMP threads

MPI task timing breakdown:
Section |  min time  |  avg time  |  max time  |%varavg| %total
---------------------------------------------------------------
Pair    | 6.7589     | 6.7589     | 6.7589     |   0.0 | 48.99
Neigh   | 6.6102     | 6.6102     | 6.6102     |   0.0 | 47.91
Comm    | 0.14881    | 0.14881    | 0.14881    |   0.0 |  1.08
Output  | 0.00013685 | 0.00013685 | 0.00013685 |   0.0 |  0.00
Modify  | 0.21877    | 0.21877    | 0.21877    |   0.0 |  1.59
Other   |            | 0.06052    |            |       |  0.44

Nlocal:    19652 ave 19652 max 19652 min
Histogram: 1 0 0 0 0 0 0 0 0 0
Nghost:    14061 ave 14061 max 14061 min
Histogram: 1 0 0 0 0 0 0 0 0 0
Neighs:    711594 ave 711594 max 711594 min
Histogram: 1 0 0 0 0 0 0 0 0 0

Total # of neighbors = 711594
Ave neighs/atom = 36.2097
Neighbor list builds = 172
Dangerous builds not checked
Setting up Verlet run ...
  Unit style    : metal
  Current step  : 70015
  Time step     : 0.001
Per MPI rank memory allocation (min/avg/max) = 18.2 | 18.2 | 18.2 Mbytes
Step Temp Press TotEng PotEng Enthalpy Volume 
   70015    217.47499    148.36913   -83196.039   -83748.446   -83136.264    645491.82 
   70035    216.80213    103.90784   -83198.025   -83748.722   -83156.158    645556.73 
   70510    179.42525    207.98976   -83396.835   -83852.591    -83313.15    644633.49 
Loop time of 40.4685 on 1 procs for 495 steps with 19652 atoms

Performance: 1.057 ns/day, 22.710 hours/ns, 12.232 timesteps/s
99.9% CPU use with 1 MPI tasks x no OpenMP threads

MPI task timing breakdown:
Section |  min time  |  avg time  |  max time  |%varavg| %total
---------------------------------------------------------------
Pair    | 19.827     | 19.827     | 19.827     |   0.0 | 48.99
Neigh   | 19.331     | 19.331     | 19.331     |   0.0 | 47.77
Comm    | 0.43106    | 0.43106    | 0.43106    |   0.0 |  1.07
Output  | 0.076621   | 0.076621   | 0.076621   |   0.0 |  0.19
Modify  | 0.62939    | 0.62939    | 0.62939    |   0.0 |  1.56
Other   |            | 0.173      |            |       |  0.43

Nlocal:    19652 ave 19652 max 19652 min
Histogram: 1 0 0 0 0 0 0 0 0 0
Nghost:    14023 ave 14023 max 14023 min
Histogram: 1 0 0 0 0 0 0 0 0 0
Neighs:    711955 ave 711955 max 711955 min
Histogram: 1 0 0 0 0 0 0 0 0 0

Total # of neighbors = 711955
Ave neighs/atom = 36.2281
Neighbor list builds = 495
Dangerous builds not checked
Setting up Verlet run ...
  Unit style    : metal
  Current step  : 70510
  Time step     : 0.001
Per MPI rank memory allocation (min/avg/max) = 18.2 | 18.2 | 18.2 Mbytes
Step Temp Press TotEng PotEng Enthalpy Volume 
   70510    179.42525    207.98976   -83396.835   -83852.591    -83313.15    644633.49 
   70682    169.09341     33.23498   -83450.495   -83880.008   -83437.121    644745.59 
Loop time of 14.2268 on 1 procs for 172 steps with 19652 atoms

Performance: 1.045 ns/day, 22.976 hours/ns, 12.090 timesteps/s
98.8% CPU use with 1 MPI tasks x no OpenMP threads

MPI task timing breakdown:
Section |  min time  |  avg time  |  max time  |%varavg| %total
---------------------------------------------------------------
Pair    | 7.0119     | 7.0119     | 7.0119     |   0.0 | 49.29
Neigh   | 6.7916     | 6.7916     | 6.7916     |   0.0 | 47.74
Comm    | 0.14922    | 0.14922    | 0.14922    |   0.0 |  1.05
Output  | 0.00015283 | 0.00015283 | 0.00015283 |   0.0 |  0.00
Modify  | 0.21411    | 0.21411    | 0.21411    |   0.0 |  1.50
Other   |            | 0.05979    |            |       |  0.42

Nlocal:    19652 ave 19652 max 19652 min
Histogram: 1 0 0 0 0 0 0 0 0 0
Nghost:    14028 ave 14028 max 14028 min
Histogram: 1 0 0 0 0 0 0 0 0 0
Neighs:    711798 ave 711798 max 711798 min
Histogram: 1 0 0 0 0 0 0 0 0 0

Total # of neighbors = 711798
Ave neighs/atom = 36.2201
Neighbor list builds = 172
Dangerous builds not checked
Setting up Verlet run ...
  Unit style    : metal
  Current step  : 70682
  Time step     : 0.001
Per MPI rank memory allocation (min/avg/max) = 18.2 | 18.2 | 18.2 Mbytes
Step Temp Press TotEng PotEng Enthalpy Volume 
   70682    169.09341     33.23498   -83450.495   -83880.008   -83437.121    644745.59 
   70702    169.75113    16.061651   -83452.758   -83883.941   -83446.294    644763.67 
   71177     131.0771    6.8020232   -83646.924   -83979.872    -83644.19    643932.29 
Loop time of 37.9953 on 1 procs for 495 steps with 19652 atoms

Performance: 1.126 ns/day, 21.322 hours/ns, 13.028 timesteps/s
99.9% CPU use with 1 MPI tasks x no OpenMP threads

MPI task timing breakdown:
Section |  min time  |  avg time  |  max time  |%varavg| %total
---------------------------------------------------------------
Pair    | 18.501     | 18.501     | 18.501     |   0.0 | 48.69
Neigh   | 18.309     | 18.309     | 18.309     |   0.0 | 48.19
Comm    | 0.40111    | 0.40111    | 0.40111    |   0.0 |  1.06
Output  | 0.056821   | 0.056821   | 0.056821   |   0.0 |  0.15
Modify  | 0.56705    | 0.56705    | 0.56705    |   0.0 |  1.49
Other   |            | 0.1605     |            |       |  0.42

Nlocal:    19652 ave 19652 max 19652 min
Histogram: 1 0 0 0 0 0 0 0 0 0
Nghost:    14037 ave 14037 max 14037 min
Histogram: 1 0 0 0 0 0 0 0 0 0
Neighs:    712123 ave 712123 max 712123 min
Histogram: 1 0 0 0 0 0 0 0 0 0

Total # of neighbors = 712123
Ave neighs/atom = 36.2367
Neighbor list builds = 495
Dangerous builds not checked
Setting up Verlet run ...
  Unit style    : metal
  Current step  : 71177
  Time step     : 0.001
Per MPI rank memory allocation (min/avg/max) = 18.2 | 18.2 | 18.2 Mbytes
Step Temp Press TotEng PotEng Enthalpy Volume 
   71177     131.0771    6.8020232   -83646.924   -83979.872    -83644.19    643932.29 
   71349    121.65503     3.873508   -83700.191   -84009.205   -83698.634    643759.87 
Loop time of 12.7749 on 1 procs for 172 steps with 19652 atoms

Performance: 1.163 ns/day, 20.631 hours/ns, 13.464 timesteps/s
99.9% CPU use with 1 MPI tasks x no OpenMP threads

MPI task timing breakdown:
Section |  min time  |  avg time  |  max time  |%varavg| %total
---------------------------------------------------------------
Pair    | 6.1922     | 6.1922     | 6.1922     |   0.0 | 48.47
Neigh   | 6.2062     | 6.2062     | 6.2062     |   0.0 | 48.58
Comm    | 0.13184    | 0.13184    | 0.13184    |   0.0 |  1.03
Output  | 0.00015402 | 0.00015402 | 0.00015402 |   0.0 |  0.00
Modify  | 0.19034    | 0.19034    | 0.19034    |   0.0 |  1.49
Other   |            | 0.05413    |            |       |  0.42

Nlocal:    19652 ave 19652 max 19652 min
Histogram: 1 0 0 0 0 0 0 0 0 0
Nghost:    14010 ave 14010 max 14010 min
Histogram: 1 0 0 0 0 0 0 0 0 0
Neighs:    711987 ave 711987 max 711987 min
Histogram: 1 0 0 0 0 0 0 0 0 0

Total # of neighbors = 711987
Ave neighs/atom = 36.2297
Neighbor list builds = 172
Dangerous builds not checked
Total wall time: 1:42:59
