LAMMPS (12 Dec 2018)
Lattice spacing in x,y,z = 4 4 4
Created orthogonal box = (0 0 0) to (68 68 68)
  1 by 1 by 1 MPI processor grid
Created 19652 atoms
  Time spent = 0.00346684 secs
Setting atom values ...
  19281 settings made for type/fraction
Neighbor list info ...
  update every 1 steps, delay 0 steps, check no
  max neighbors/atom: 2000, page size: 100000
  master list distance cutoff = 8.5
  ghost atom cutoff = 8.5
  binsize = 4.25, bins = 16 16 16
  1 neighbor lists, perpetual/occasional/extra = 1 0 0
  (1) pair eam/alloy, perpetual
      attributes: half, newton on
      pair build: half/bin/atomonly/newton
      stencil: half/bin/3d/newton
      bin: standard
Setting up Verlet run ...
  Unit style    : metal
  Current step  : 0
  Time step     : 0.001
Per MPI rank memory allocation (min/avg/max) = 18.19 | 18.19 | 18.19 Mbytes
Step Temp Press TotEng PotEng Enthalpy 
       0          300    29666.511   -65241.477   -66003.504   -59419.334 
    1000     176.0894    36516.709   -65241.346   -65688.629   -58074.831 
Loop time of 146.266 on 1 procs for 1000 steps with 19652 atoms

Performance: 0.591 ns/day, 40.629 hours/ns, 6.837 timesteps/s
100.0% CPU use with 1 MPI tasks x no OpenMP threads

MPI task timing breakdown:
Section |  min time  |  avg time  |  max time  |%varavg| %total
---------------------------------------------------------------
Pair    | 86.18      | 86.18      | 86.18      |   0.0 | 58.92
Neigh   | 57.334     | 57.334     | 57.334     |   0.0 | 39.20
Comm    | 1.6797     | 1.6797     | 1.6797     |   0.0 |  1.15
Output  | 0.00021601 | 0.00021601 | 0.00021601 |   0.0 |  0.00
Modify  | 0.61951    | 0.61951    | 0.61951    |   0.0 |  0.42
Other   |            | 0.4531     |            |       |  0.31

Nlocal:    19652 ave 19652 max 19652 min
Histogram: 1 0 0 0 0 0 0 0 0 0
Nghost:    20102 ave 20102 max 20102 min
Histogram: 1 0 0 0 0 0 0 0 0 0
Neighs:    1.56817e+06 ave 1.56817e+06 max 1.56817e+06 min
Histogram: 1 0 0 0 0 0 0 0 0 0

Total # of neighbors = 1568173
Ave neighs/atom = 79.7971
Neighbor list builds = 1000
Dangerous builds not checked
Setting up Verlet run ...
  Unit style    : metal
  Current step  : 1000
  Time step     : 0.001
Per MPI rank memory allocation (min/avg/max) = 18.19 | 18.19 | 18.19 Mbytes
Step Temp Press TotEng PotEng Enthalpy 
    1000     176.0894    36516.709   -65241.346   -65688.629   -58074.831 
    2000    302.40977   -152.95046   -64629.373   -65397.521   -64661.029 
Loop time of 136.951 on 1 procs for 1000 steps with 19652 atoms

Performance: 0.631 ns/day, 38.042 hours/ns, 7.302 timesteps/s
100.0% CPU use with 1 MPI tasks x no OpenMP threads

MPI task timing breakdown:
Section |  min time  |  avg time  |  max time  |%varavg| %total
---------------------------------------------------------------
Pair    | 79.31      | 79.31      | 79.31      |   0.0 | 57.91
Neigh   | 52.92      | 52.92      | 52.92      |   0.0 | 38.64
Comm    | 2.0645     | 2.0645     | 2.0645     |   0.0 |  1.51
Output  | 0.042331   | 0.042331   | 0.042331   |   0.0 |  0.03
Modify  | 2.111      | 2.111      | 2.111      |   0.0 |  1.54
Other   |            | 0.5028     |            |       |  0.37

Nlocal:    19652 ave 19652 max 19652 min
Histogram: 1 0 0 0 0 0 0 0 0 0
Nghost:    20068 ave 20068 max 20068 min
Histogram: 1 0 0 0 0 0 0 0 0 0
Neighs:    1.44932e+06 ave 1.44932e+06 max 1.44932e+06 min
Histogram: 1 0 0 0 0 0 0 0 0 0

Total # of neighbors = 1449322
Ave neighs/atom = 73.7493
Neighbor list builds = 1000
Dangerous builds not checked
Setting up Verlet run ...
  Unit style    : metal
  Current step  : 2000
  Time step     : 0.001
Per MPI rank memory allocation (min/avg/max) = 18.19 | 18.19 | 18.19 Mbytes
Step Temp Press TotEng PotEng Enthalpy 
    2000    302.40977   -152.95046   -64629.373   -65397.521   -64661.029 
    4000    799.57832   -207.24451   -61902.974   -63933.975   -61947.723 
    6000    1356.2257    279.99075   -57346.818   -60791.755   -57278.869 
    8000    1907.5292   -557.57024   -54174.193   -59019.491   -54318.601 
   10000    2449.5057    -93.96239   -51157.181   -57379.149   -51183.064 
Loop time of 1033.5 on 1 procs for 8000 steps with 19652 atoms

Performance: 0.669 ns/day, 35.885 hours/ns, 7.741 timesteps/s
100.0% CPU use with 1 MPI tasks x no OpenMP threads

MPI task timing breakdown:
Section |  min time  |  avg time  |  max time  |%varavg| %total
---------------------------------------------------------------
Pair    | 572.89     | 572.89     | 572.89     |   0.0 | 55.43
Neigh   | 431.75     | 431.75     | 431.75     |   0.0 | 41.78
Comm    | 11.735     | 11.735     | 11.735     |   0.0 |  1.14
Output  | 0.16525    | 0.16525    | 0.16525    |   0.0 |  0.02
Modify  | 13.649     | 13.649     | 13.649     |   0.0 |  1.32
Other   |            | 3.305      |            |       |  0.32

Nlocal:    19652 ave 19652 max 19652 min
Histogram: 1 0 0 0 0 0 0 0 0 0
Nghost:    16369 ave 16369 max 16369 min
Histogram: 1 0 0 0 0 0 0 0 0 0
Neighs:    1.1163e+06 ave 1.1163e+06 max 1.1163e+06 min
Histogram: 1 0 0 0 0 0 0 0 0 0

Total # of neighbors = 1116300
Ave neighs/atom = 56.8034
Neighbor list builds = 8000
Dangerous builds not checked
Setting up Verlet run ...
  Unit style    : metal
  Current step  : 10000
  Time step     : 0.001
Per MPI rank memory allocation (min/avg/max) = 18.19 | 18.19 | 18.19 Mbytes
Step Temp Press TotEng PotEng Enthalpy 
   10000    2449.5057    -93.96239   -51157.181   -57379.149   -51183.064 
   12000    2470.6839   -1206.0631   -51042.166   -57317.929   -51375.623 
   14000    2448.8675    30.071273    -51177.91   -57398.257   -51169.633 
   16000    2457.6796   -37.110981   -51160.058   -57402.788   -51170.266 
   18000    2430.3447    573.89202   -51128.392   -57301.689   -50970.229 
   20000    2449.0627   -1162.2826   -51105.854   -57326.697   -51427.009 
   22000    2462.8869   -1075.0044   -51100.642   -57356.599   -51397.699 
   24000    2457.1606   -406.96378   -51085.117   -57326.529   -51197.516 
   26000    2443.5052    263.58278   -51177.247   -57383.973   -51104.722 
   28000    2461.6639   -227.00932   -51038.539    -57291.39    -51101.32 
   30000    2445.5066   -198.62641   -51194.222   -57406.031   -51248.919 
   32000    2443.6034    137.33223   -51159.695    -57366.67   -51121.943 
   34000    2437.8205    511.30092   -51086.559   -57278.845   -50945.369 
   36000    2444.8977   -248.16932   -51057.982   -57268.245   -51126.606 
   38000    2457.3889   -745.06562     -51063.7   -57305.692   -51269.771 
   40000    2445.4708   -832.82768   -51095.151   -57306.869   -51325.435 
Loop time of 3643.34 on 1 procs for 30000 steps with 19652 atoms

Performance: 0.711 ns/day, 33.735 hours/ns, 8.234 timesteps/s
100.0% CPU use with 1 MPI tasks x no OpenMP threads

MPI task timing breakdown:
Section |  min time  |  avg time  |  max time  |%varavg| %total
---------------------------------------------------------------
Pair    | 1942       | 1942       | 1942       |   0.0 | 53.30
Neigh   | 1601.5     | 1601.5     | 1601.5     |   0.0 | 43.96
Comm    | 37.964     | 37.964     | 37.964     |   0.0 |  1.04
Output  | 0.6769     | 0.6769     | 0.6769     |   0.0 |  0.02
Modify  | 49.406     | 49.406     | 49.406     |   0.0 |  1.36
Other   |            | 11.82      |            |       |  0.32

Nlocal:    19652 ave 19652 max 19652 min
Histogram: 1 0 0 0 0 0 0 0 0 0
Nghost:    16200 ave 16200 max 16200 min
Histogram: 1 0 0 0 0 0 0 0 0 0
Neighs:    1.11231e+06 ave 1.11231e+06 max 1.11231e+06 min
Histogram: 1 0 0 0 0 0 0 0 0 0

Total # of neighbors = 1112313
Ave neighs/atom = 56.6005
Neighbor list builds = 30000
Dangerous builds not checked
Setting up Verlet run ...
  Unit style    : metal
  Current step  : 40000
  Time step     : 0.001
Per MPI rank memory allocation (min/avg/max) = 18.19 | 18.19 | 18.19 Mbytes
Step Temp Press TotEng PotEng Enthalpy 
   40000    2445.4708   -832.82768   -51095.151   -57306.869   -51325.435 
   40495    2399.3058    234.51382   -51336.116   -57430.571   -51271.794 
Loop time of 53.5611 on 1 procs for 495 steps with 19652 atoms

Performance: 0.798 ns/day, 30.057 hours/ns, 9.242 timesteps/s
100.1% CPU use with 1 MPI tasks x no OpenMP threads

MPI task timing breakdown:
Section |  min time  |  avg time  |  max time  |%varavg| %total
---------------------------------------------------------------
Pair    | 28.378     | 28.378     | 28.378     |   0.0 | 52.98
Neigh   | 23.802     | 23.802     | 23.802     |   0.0 | 44.44
Comm    | 0.49266    | 0.49266    | 0.49266    |   0.0 |  0.92
Output  | 0.00013685 | 0.00013685 | 0.00013685 |   0.0 |  0.00
Modify  | 0.70836    | 0.70836    | 0.70836    |   0.0 |  1.32
Other   |            | 0.1803     |            |       |  0.34

Nlocal:    19652 ave 19652 max 19652 min
Histogram: 1 0 0 0 0 0 0 0 0 0
Nghost:    16370 ave 16370 max 16370 min
Histogram: 1 0 0 0 0 0 0 0 0 0
Neighs:    1.12098e+06 ave 1.12098e+06 max 1.12098e+06 min
Histogram: 1 0 0 0 0 0 0 0 0 0

Total # of neighbors = 1120976
Ave neighs/atom = 57.0413
Neighbor list builds = 495
Dangerous builds not checked
Setting up Verlet run ...
  Unit style    : metal
  Current step  : 40495
  Time step     : 0.001
Per MPI rank memory allocation (min/avg/max) = 18.19 | 18.19 | 18.19 Mbytes
Step Temp Press TotEng PotEng Enthalpy 
   40495    2399.3058    234.51382   -51336.116   -57430.571   -51271.794 
   42000    2389.9258   -245.08956   -51374.684   -57445.313   -51441.955 
Loop time of 164.98 on 1 procs for 1505 steps with 19652 atoms

Performance: 0.788 ns/day, 30.450 hours/ns, 9.122 timesteps/s
100.1% CPU use with 1 MPI tasks x no OpenMP threads

MPI task timing breakdown:
Section |  min time  |  avg time  |  max time  |%varavg| %total
---------------------------------------------------------------
Pair    | 87.019     | 87.019     | 87.019     |   0.0 | 52.74
Neigh   | 73.803     | 73.803     | 73.803     |   0.0 | 44.73
Comm    | 1.4704     | 1.4704     | 1.4704     |   0.0 |  0.89
Output  | 0.040991   | 0.040991   | 0.040991   |   0.0 |  0.02
Modify  | 2.1325     | 2.1325     | 2.1325     |   0.0 |  1.29
Other   |            | 0.5146     |            |       |  0.31

Nlocal:    19652 ave 19652 max 19652 min
Histogram: 1 0 0 0 0 0 0 0 0 0
Nghost:    16315 ave 16315 max 16315 min
Histogram: 1 0 0 0 0 0 0 0 0 0
Neighs:    1.12e+06 ave 1.12e+06 max 1.12e+06 min
Histogram: 1 0 0 0 0 0 0 0 0 0

Total # of neighbors = 1120000
Ave neighs/atom = 56.9917
Neighbor list builds = 1505
Dangerous builds not checked
Setting up Verlet run ...
  Unit style    : metal
  Current step  : 42000
  Time step     : 0.001
Per MPI rank memory allocation (min/avg/max) = 18.19 | 18.19 | 18.19 Mbytes
Step Temp Press TotEng PotEng Enthalpy 
   42000    2389.9258   -245.08956   -51374.684   -57445.313   -51441.955 
   42495    2359.4597    168.76604   -51627.019   -57620.262   -51581.067 
Loop time of 54.9639 on 1 procs for 495 steps with 19652 atoms

Performance: 0.778 ns/day, 30.844 hours/ns, 9.006 timesteps/s
100.1% CPU use with 1 MPI tasks x no OpenMP threads

MPI task timing breakdown:
Section |  min time  |  avg time  |  max time  |%varavg| %total
---------------------------------------------------------------
Pair    | 28.904     | 28.904     | 28.904     |   0.0 | 52.59
Neigh   | 24.695     | 24.695     | 24.695     |   0.0 | 44.93
Comm    | 0.47813    | 0.47813    | 0.47813    |   0.0 |  0.87
Output  | 0.000144   | 0.000144   | 0.000144   |   0.0 |  0.00
Modify  | 0.71354    | 0.71354    | 0.71354    |   0.0 |  1.30
Other   |            | 0.1725     |            |       |  0.31

Nlocal:    19652 ave 19652 max 19652 min
Histogram: 1 0 0 0 0 0 0 0 0 0
Nghost:    16320 ave 16320 max 16320 min
Histogram: 1 0 0 0 0 0 0 0 0 0
Neighs:    1.12913e+06 ave 1.12913e+06 max 1.12913e+06 min
Histogram: 1 0 0 0 0 0 0 0 0 0

Total # of neighbors = 1129132
Ave neighs/atom = 57.4563
Neighbor list builds = 495
Dangerous builds not checked
Setting up Verlet run ...
  Unit style    : metal
  Current step  : 42495
  Time step     : 0.001
Per MPI rank memory allocation (min/avg/max) = 18.19 | 18.19 | 18.19 Mbytes
Step Temp Press TotEng PotEng Enthalpy 
   42495    2359.4597    168.76604   -51627.019   -57620.262   -51581.067 
   44000    2340.1936    789.67517    -51766.64   -57710.945   -51552.391 
Loop time of 169.196 on 1 procs for 1505 steps with 19652 atoms

Performance: 0.769 ns/day, 31.228 hours/ns, 8.895 timesteps/s
100.1% CPU use with 1 MPI tasks x no OpenMP threads

MPI task timing breakdown:
Section |  min time  |  avg time  |  max time  |%varavg| %total
---------------------------------------------------------------
Pair    | 89.129     | 89.129     | 89.129     |   0.0 | 52.68
Neigh   | 75.859     | 75.859     | 75.859     |   0.0 | 44.84
Comm    | 1.4807     | 1.4807     | 1.4807     |   0.0 |  0.88
Output  | 0.04118    | 0.04118    | 0.04118    |   0.0 |  0.02
Modify  | 2.1662     | 2.1662     | 2.1662     |   0.0 |  1.28
Other   |            | 0.5188     |            |       |  0.31

Nlocal:    19652 ave 19652 max 19652 min
Histogram: 1 0 0 0 0 0 0 0 0 0
Nghost:    16332 ave 16332 max 16332 min
Histogram: 1 0 0 0 0 0 0 0 0 0
Neighs:    1.1339e+06 ave 1.1339e+06 max 1.1339e+06 min
Histogram: 1 0 0 0 0 0 0 0 0 0

Total # of neighbors = 1133897
Ave neighs/atom = 57.6988
Neighbor list builds = 1505
Dangerous builds not checked
Setting up Verlet run ...
  Unit style    : metal
  Current step  : 44000
  Time step     : 0.001
Per MPI rank memory allocation (min/avg/max) = 18.19 | 18.19 | 18.19 Mbytes
Step Temp Press TotEng PotEng Enthalpy 
   44000    2340.1936    789.67517    -51766.64   -57710.945   -51552.391 
   44495    2307.4526   -1009.3791   -51805.206   -57666.346   -52080.556 
Loop time of 59.0422 on 1 procs for 495 steps with 19652 atoms

Performance: 0.724 ns/day, 33.133 hours/ns, 8.384 timesteps/s
100.1% CPU use with 1 MPI tasks x no OpenMP threads

MPI task timing breakdown:
Section |  min time  |  avg time  |  max time  |%varavg| %total
---------------------------------------------------------------
Pair    | 31.383     | 31.383     | 31.383     |   0.0 | 53.15
Neigh   | 25.999     | 25.999     | 25.999     |   0.0 | 44.03
Comm    | 0.61934    | 0.61934    | 0.61934    |   0.0 |  1.05
Output  | 0.000144   | 0.000144   | 0.000144   |   0.0 |  0.00
Modify  | 0.83877    | 0.83877    | 0.83877    |   0.0 |  1.42
Other   |            | 0.2015     |            |       |  0.34

Nlocal:    19652 ave 19652 max 19652 min
Histogram: 1 0 0 0 0 0 0 0 0 0
Nghost:    16360 ave 16360 max 16360 min
Histogram: 1 0 0 0 0 0 0 0 0 0
Neighs:    1.12724e+06 ave 1.12724e+06 max 1.12724e+06 min
Histogram: 1 0 0 0 0 0 0 0 0 0

Total # of neighbors = 1127237
Ave neighs/atom = 57.3599
Neighbor list builds = 495
Dangerous builds not checked
Setting up Verlet run ...
  Unit style    : metal
  Current step  : 44495
  Time step     : 0.001
Per MPI rank memory allocation (min/avg/max) = 18.19 | 18.19 | 18.19 Mbytes
Step Temp Press TotEng PotEng Enthalpy 
   44495    2307.4526   -1009.3791   -51805.206   -57666.346   -52080.556 
   46000    2290.5724    436.65447   -51991.774   -57810.036   -51873.704 
Loop time of 187.603 on 1 procs for 1505 steps with 19652 atoms

Performance: 0.693 ns/day, 34.626 hours/ns, 8.022 timesteps/s
100.0% CPU use with 1 MPI tasks x no OpenMP threads

MPI task timing breakdown:
Section |  min time  |  avg time  |  max time  |%varavg| %total
---------------------------------------------------------------
Pair    | 101.81     | 101.81     | 101.81     |   0.0 | 54.27
Neigh   | 80.429     | 80.429     | 80.429     |   0.0 | 42.87
Comm    | 2.0976     | 2.0976     | 2.0976     |   0.0 |  1.12
Output  | 0.043747   | 0.043747   | 0.043747   |   0.0 |  0.02
Modify  | 2.6029     | 2.6029     | 2.6029     |   0.0 |  1.39
Other   |            | 0.6158     |            |       |  0.33

Nlocal:    19652 ave 19652 max 19652 min
Histogram: 1 0 0 0 0 0 0 0 0 0
Nghost:    16352 ave 16352 max 16352 min
Histogram: 1 0 0 0 0 0 0 0 0 0
Neighs:    1.13741e+06 ave 1.13741e+06 max 1.13741e+06 min
Histogram: 1 0 0 0 0 0 0 0 0 0

Total # of neighbors = 1137406
Ave neighs/atom = 57.8774
Neighbor list builds = 1505
Dangerous builds not checked
Setting up Verlet run ...
  Unit style    : metal
  Current step  : 46000
  Time step     : 0.001
Per MPI rank memory allocation (min/avg/max) = 18.19 | 18.19 | 18.19 Mbytes
Step Temp Press TotEng PotEng Enthalpy 
   46000    2290.5724    436.65447   -51991.774   -57810.036   -51873.704 
   46495     2260.889    -169.4775   -52137.919   -57880.783   -52183.686 
Loop time of 60.526 on 1 procs for 495 steps with 19652 atoms

Performance: 0.707 ns/day, 33.965 hours/ns, 8.178 timesteps/s
100.0% CPU use with 1 MPI tasks x no OpenMP threads

MPI task timing breakdown:
Section |  min time  |  avg time  |  max time  |%varavg| %total
---------------------------------------------------------------
Pair    | 32.8       | 32.8       | 32.8       |   0.0 | 54.19
Neigh   | 26.017     | 26.017     | 26.017     |   0.0 | 42.98
Comm    | 0.66029    | 0.66029    | 0.66029    |   0.0 |  1.09
Output  | 0.0001781  | 0.0001781  | 0.0001781  |   0.0 |  0.00
Modify  | 0.84397    | 0.84397    | 0.84397    |   0.0 |  1.39
Other   |            | 0.2048     |            |       |  0.34

Nlocal:    19652 ave 19652 max 19652 min
Histogram: 1 0 0 0 0 0 0 0 0 0
Nghost:    16427 ave 16427 max 16427 min
Histogram: 1 0 0 0 0 0 0 0 0 0
Neighs:    1.13899e+06 ave 1.13899e+06 max 1.13899e+06 min
Histogram: 1 0 0 0 0 0 0 0 0 0

Total # of neighbors = 1138986
Ave neighs/atom = 57.9578
Neighbor list builds = 495
Dangerous builds not checked
Setting up Verlet run ...
  Unit style    : metal
  Current step  : 46495
  Time step     : 0.001
Per MPI rank memory allocation (min/avg/max) = 18.19 | 18.19 | 18.19 Mbytes
Step Temp Press TotEng PotEng Enthalpy 
   46495     2260.889    -169.4775   -52137.919   -57880.783   -52183.686 
   48000    2258.1934    91.885273   -52237.142   -57973.159   -52212.435 
Loop time of 181.12 on 1 procs for 1505 steps with 19652 atoms

Performance: 0.718 ns/day, 33.429 hours/ns, 8.309 timesteps/s
100.0% CPU use with 1 MPI tasks x no OpenMP threads

MPI task timing breakdown:
Section |  min time  |  avg time  |  max time  |%varavg| %total
---------------------------------------------------------------
Pair    | 97.773     | 97.773     | 97.773     |   0.0 | 53.98
Neigh   | 78.561     | 78.561     | 78.561     |   0.0 | 43.38
Comm    | 1.7361     | 1.7361     | 1.7361     |   0.0 |  0.96
Output  | 0.063373   | 0.063373   | 0.063373   |   0.0 |  0.03
Modify  | 2.3829     | 2.3829     | 2.3829     |   0.0 |  1.32
Other   |            | 0.6038     |            |       |  0.33

Nlocal:    19652 ave 19652 max 19652 min
Histogram: 1 0 0 0 0 0 0 0 0 0
Nghost:    16412 ave 16412 max 16412 min
Histogram: 1 0 0 0 0 0 0 0 0 0
Neighs:    1.14439e+06 ave 1.14439e+06 max 1.14439e+06 min
Histogram: 1 0 0 0 0 0 0 0 0 0

Total # of neighbors = 1144391
Ave neighs/atom = 58.2328
Neighbor list builds = 1505
Dangerous builds not checked
Setting up Verlet run ...
  Unit style    : metal
  Current step  : 48000
  Time step     : 0.001
Per MPI rank memory allocation (min/avg/max) = 18.19 | 18.19 | 18.19 Mbytes
Step Temp Press TotEng PotEng Enthalpy 
   48000    2258.1934    91.885273   -52237.142   -57973.159   -52212.435 
   48495    2221.6213     112.2031   -52439.982   -58083.102   -52409.939 
Loop time of 57.3914 on 1 procs for 495 steps with 19652 atoms

Performance: 0.745 ns/day, 32.206 hours/ns, 8.625 timesteps/s
99.9% CPU use with 1 MPI tasks x no OpenMP threads

MPI task timing breakdown:
Section |  min time  |  avg time  |  max time  |%varavg| %total
---------------------------------------------------------------
Pair    | 30.973     | 30.973     | 30.973     |   0.0 | 53.97
Neigh   | 25.005     | 25.005     | 25.005     |   0.0 | 43.57
Comm    | 0.49647    | 0.49647    | 0.49647    |   0.0 |  0.87
Output  | 0.00011301 | 0.00011301 | 0.00011301 |   0.0 |  0.00
Modify  | 0.72679    | 0.72679    | 0.72679    |   0.0 |  1.27
Other   |            | 0.1899     |            |       |  0.33

Nlocal:    19652 ave 19652 max 19652 min
Histogram: 1 0 0 0 0 0 0 0 0 0
Nghost:    16436 ave 16436 max 16436 min
Histogram: 1 0 0 0 0 0 0 0 0 0
Neighs:    1.14874e+06 ave 1.14874e+06 max 1.14874e+06 min
Histogram: 1 0 0 0 0 0 0 0 0 0

Total # of neighbors = 1148737
Ave neighs/atom = 58.4539
Neighbor list builds = 495
Dangerous builds not checked
Setting up Verlet run ...
  Unit style    : metal
  Current step  : 48495
  Time step     : 0.001
Per MPI rank memory allocation (min/avg/max) = 18.19 | 18.19 | 18.19 Mbytes
Step Temp Press TotEng PotEng Enthalpy 
   48495    2221.6213     112.2031   -52439.982   -58083.102   -52409.939 
   50000    2200.0416    149.39464   -52534.301   -58122.607   -52494.348 
Loop time of 181.424 on 1 procs for 1505 steps with 19652 atoms

Performance: 0.717 ns/day, 33.485 hours/ns, 8.295 timesteps/s
100.0% CPU use with 1 MPI tasks x no OpenMP threads

MPI task timing breakdown:
Section |  min time  |  avg time  |  max time  |%varavg| %total
---------------------------------------------------------------
Pair    | 99.609     | 99.609     | 99.609     |   0.0 | 54.90
Neigh   | 76.695     | 76.695     | 76.695     |   0.0 | 42.27
Comm    | 2.0056     | 2.0056     | 2.0056     |   0.0 |  1.11
Output  | 0.041582   | 0.041582   | 0.041582   |   0.0 |  0.02
Modify  | 2.4771     | 2.4771     | 2.4771     |   0.0 |  1.37
Other   |            | 0.5967     |            |       |  0.33

Nlocal:    19652 ave 19652 max 19652 min
Histogram: 1 0 0 0 0 0 0 0 0 0
Nghost:    16513 ave 16513 max 16513 min
Histogram: 1 0 0 0 0 0 0 0 0 0
Neighs:    1.15024e+06 ave 1.15024e+06 max 1.15024e+06 min
Histogram: 1 0 0 0 0 0 0 0 0 0

Total # of neighbors = 1150245
Ave neighs/atom = 58.5307
Neighbor list builds = 1505
Dangerous builds not checked
Setting up Verlet run ...
  Unit style    : metal
  Current step  : 50000
  Time step     : 0.001
Per MPI rank memory allocation (min/avg/max) = 18.19 | 18.19 | 18.19 Mbytes
Step Temp Press TotEng PotEng Enthalpy 
   50000    2200.0416    149.39464   -52534.301   -58122.607   -52494.348 
   50495    2158.5024    2.4232796   -52680.407     -58163.2    -52679.76 
Loop time of 56.4551 on 1 procs for 495 steps with 19652 atoms

Performance: 0.758 ns/day, 31.681 hours/ns, 8.768 timesteps/s
100.1% CPU use with 1 MPI tasks x no OpenMP threads

MPI task timing breakdown:
Section |  min time  |  avg time  |  max time  |%varavg| %total
---------------------------------------------------------------
Pair    | 30.159     | 30.159     | 30.159     |   0.0 | 53.42
Neigh   | 24.833     | 24.833     | 24.833     |   0.0 | 43.99
Comm    | 0.52383    | 0.52383    | 0.52383    |   0.0 |  0.93
Output  | 0.000139   | 0.000139   | 0.000139   |   0.0 |  0.00
Modify  | 0.75522    | 0.75522    | 0.75522    |   0.0 |  1.34
Other   |            | 0.1845     |            |       |  0.33

Nlocal:    19652 ave 19652 max 19652 min
Histogram: 1 0 0 0 0 0 0 0 0 0
Nghost:    16562 ave 16562 max 16562 min
Histogram: 1 0 0 0 0 0 0 0 0 0
Neighs:    1.15273e+06 ave 1.15273e+06 max 1.15273e+06 min
Histogram: 1 0 0 0 0 0 0 0 0 0

Total # of neighbors = 1152727
Ave neighs/atom = 58.657
Neighbor list builds = 495
Dangerous builds not checked
Setting up Verlet run ...
  Unit style    : metal
  Current step  : 50495
  Time step     : 0.001
Per MPI rank memory allocation (min/avg/max) = 18.19 | 18.19 | 18.19 Mbytes
Step Temp Press TotEng PotEng Enthalpy 
   50495    2158.5024    2.4232796   -52680.407     -58163.2    -52679.76 
   52000     2154.297    1315.7711    -52800.89   -58273.001   -52452.108 
Loop time of 190.882 on 1 procs for 1505 steps with 19652 atoms

Performance: 0.681 ns/day, 35.231 hours/ns, 7.884 timesteps/s
99.9% CPU use with 1 MPI tasks x no OpenMP threads

MPI task timing breakdown:
Section |  min time  |  avg time  |  max time  |%varavg| %total
---------------------------------------------------------------
Pair    | 105.08     | 105.08     | 105.08     |   0.0 | 55.05
Neigh   | 80.215     | 80.215     | 80.215     |   0.0 | 42.02
Comm    | 2.2383     | 2.2383     | 2.2383     |   0.0 |  1.17
Output  | 0.041693   | 0.041693   | 0.041693   |   0.0 |  0.02
Modify  | 2.6794     | 2.6794     | 2.6794     |   0.0 |  1.40
Other   |            | 0.6259     |            |       |  0.33

Nlocal:    19652 ave 19652 max 19652 min
Histogram: 1 0 0 0 0 0 0 0 0 0
Nghost:    16584 ave 16584 max 16584 min
Histogram: 1 0 0 0 0 0 0 0 0 0
Neighs:    1.16077e+06 ave 1.16077e+06 max 1.16077e+06 min
Histogram: 1 0 0 0 0 0 0 0 0 0

Total # of neighbors = 1160770
Ave neighs/atom = 59.0663
Neighbor list builds = 1505
Dangerous builds not checked
Setting up Verlet run ...
  Unit style    : metal
  Current step  : 52000
  Time step     : 0.001
Per MPI rank memory allocation (min/avg/max) = 18.19 | 18.19 | 18.19 Mbytes
Step Temp Press TotEng PotEng Enthalpy 
   52000     2154.297    1315.7711    -52800.89   -58273.001   -52452.108 
   52495     2121.293   -183.91663   -52937.676   -58325.953    -52986.48 
Loop time of 63.3984 on 1 procs for 495 steps with 19652 atoms

Performance: 0.675 ns/day, 35.577 hours/ns, 7.808 timesteps/s
100.0% CPU use with 1 MPI tasks x no OpenMP threads

MPI task timing breakdown:
Section |  min time  |  avg time  |  max time  |%varavg| %total
---------------------------------------------------------------
Pair    | 34.978     | 34.978     | 34.978     |   0.0 | 55.17
Neigh   | 26.559     | 26.559     | 26.559     |   0.0 | 41.89
Comm    | 0.7554     | 0.7554     | 0.7554     |   0.0 |  1.19
Output  | 0.00015211 | 0.00015211 | 0.00015211 |   0.0 |  0.00
Modify  | 0.89808    | 0.89808    | 0.89808    |   0.0 |  1.42
Other   |            | 0.2084     |            |       |  0.33

Nlocal:    19652 ave 19652 max 19652 min
Histogram: 1 0 0 0 0 0 0 0 0 0
Nghost:    16559 ave 16559 max 16559 min
Histogram: 1 0 0 0 0 0 0 0 0 0
Neighs:    1.15932e+06 ave 1.15932e+06 max 1.15932e+06 min
Histogram: 1 0 0 0 0 0 0 0 0 0

Total # of neighbors = 1159322
Ave neighs/atom = 58.9926
Neighbor list builds = 495
Dangerous builds not checked
Setting up Verlet run ...
  Unit style    : metal
  Current step  : 52495
  Time step     : 0.001
Per MPI rank memory allocation (min/avg/max) = 18.19 | 18.19 | 18.19 Mbytes
Step Temp Press TotEng PotEng Enthalpy 
   52495     2121.293   -183.91663   -52937.676   -58325.953    -52986.48 
   54000    2086.7532     103.9086   -53114.187    -58414.73   -53086.698 
Loop time of 193.325 on 1 procs for 1505 steps with 19652 atoms

Performance: 0.673 ns/day, 35.682 hours/ns, 7.785 timesteps/s
99.9% CPU use with 1 MPI tasks x no OpenMP threads

MPI task timing breakdown:
Section |  min time  |  avg time  |  max time  |%varavg| %total
---------------------------------------------------------------
Pair    | 106.93     | 106.93     | 106.93     |   0.0 | 55.31
Neigh   | 80.667     | 80.667     | 80.667     |   0.0 | 41.73
Comm    | 2.3326     | 2.3326     | 2.3326     |   0.0 |  1.21
Output  | 0.04139    | 0.04139    | 0.04139    |   0.0 |  0.02
Modify  | 2.7183     | 2.7183     | 2.7183     |   0.0 |  1.41
Other   |            | 0.6371     |            |       |  0.33

Nlocal:    19652 ave 19652 max 19652 min
Histogram: 1 0 0 0 0 0 0 0 0 0
Nghost:    16613 ave 16613 max 16613 min
Histogram: 1 0 0 0 0 0 0 0 0 0
Neighs:    1.16278e+06 ave 1.16278e+06 max 1.16278e+06 min
Histogram: 1 0 0 0 0 0 0 0 0 0

Total # of neighbors = 1162784
Ave neighs/atom = 59.1687
Neighbor list builds = 1505
Dangerous builds not checked
Setting up Verlet run ...
  Unit style    : metal
  Current step  : 54000
  Time step     : 0.001
Per MPI rank memory allocation (min/avg/max) = 18.19 | 18.19 | 18.19 Mbytes
Step Temp Press TotEng PotEng Enthalpy 
   54000    2086.7532     103.9086   -53114.187    -58414.73   -53086.698 
   54495    2047.6408   -88.481714   -53258.942   -58460.137   -53282.295 
Loop time of 65.5614 on 1 procs for 495 steps with 19652 atoms

Performance: 0.652 ns/day, 36.791 hours/ns, 7.550 timesteps/s
99.9% CPU use with 1 MPI tasks x no OpenMP threads

MPI task timing breakdown:
Section |  min time  |  avg time  |  max time  |%varavg| %total
---------------------------------------------------------------
Pair    | 36.336     | 36.336     | 36.336     |   0.0 | 55.42
Neigh   | 27.284     | 27.284     | 27.284     |   0.0 | 41.62
Comm    | 0.78844    | 0.78844    | 0.78844    |   0.0 |  1.20
Output  | 0.0001471  | 0.0001471  | 0.0001471  |   0.0 |  0.00
Modify  | 0.93727    | 0.93727    | 0.93727    |   0.0 |  1.43
Other   |            | 0.2153     |            |       |  0.33

Nlocal:    19652 ave 19652 max 19652 min
Histogram: 1 0 0 0 0 0 0 0 0 0
Nghost:    16593 ave 16593 max 16593 min
Histogram: 1 0 0 0 0 0 0 0 0 0
Neighs:    1.16593e+06 ave 1.16593e+06 max 1.16593e+06 min
Histogram: 1 0 0 0 0 0 0 0 0 0

Total # of neighbors = 1165933
Ave neighs/atom = 59.329
Neighbor list builds = 495
Dangerous builds not checked
Setting up Verlet run ...
  Unit style    : metal
  Current step  : 54495
  Time step     : 0.001
Per MPI rank memory allocation (min/avg/max) = 18.19 | 18.19 | 18.19 Mbytes
Step Temp Press TotEng PotEng Enthalpy 
   54495    2047.6408   -88.481714   -53258.942   -58460.137   -53282.295 
   56000    2057.9754   -806.19645   -53296.541   -58523.986   -53509.073 
Loop time of 197.027 on 1 procs for 1505 steps with 19652 atoms

Performance: 0.660 ns/day, 36.365 hours/ns, 7.639 timesteps/s
100.0% CPU use with 1 MPI tasks x no OpenMP threads

MPI task timing breakdown:
Section |  min time  |  avg time  |  max time  |%varavg| %total
---------------------------------------------------------------
Pair    | 109.27     | 109.27     | 109.27     |   0.0 | 55.46
Neigh   | 81.634     | 81.634     | 81.634     |   0.0 | 41.43
Comm    | 2.5141     | 2.5141     | 2.5141     |   0.0 |  1.28
Output  | 0.042148   | 0.042148   | 0.042148   |   0.0 |  0.02
Modify  | 2.9116     | 2.9116     | 2.9116     |   0.0 |  1.48
Other   |            | 0.6584     |            |       |  0.33

Nlocal:    19652 ave 19652 max 19652 min
Histogram: 1 0 0 0 0 0 0 0 0 0
Nghost:    16651 ave 16651 max 16651 min
Histogram: 1 0 0 0 0 0 0 0 0 0
Neighs:    1.16709e+06 ave 1.16709e+06 max 1.16709e+06 min
Histogram: 1 0 0 0 0 0 0 0 0 0

Total # of neighbors = 1167092
Ave neighs/atom = 59.388
Neighbor list builds = 1505
Dangerous builds not checked
Setting up Verlet run ...
  Unit style    : metal
  Current step  : 56000
  Time step     : 0.001
Per MPI rank memory allocation (min/avg/max) = 18.19 | 18.19 | 18.19 Mbytes
Step Temp Press TotEng PotEng Enthalpy 
   56000    2057.9754   -806.19645   -53296.541   -58523.986   -53509.073 
   56495    2016.1501   -204.80523   -53549.241   -58670.446   -53602.901 
Loop time of 67.5336 on 1 procs for 495 steps with 19652 atoms

Performance: 0.633 ns/day, 37.898 hours/ns, 7.330 timesteps/s
100.0% CPU use with 1 MPI tasks x no OpenMP threads

MPI task timing breakdown:
Section |  min time  |  avg time  |  max time  |%varavg| %total
---------------------------------------------------------------
Pair    | 37.507     | 37.507     | 37.507     |   0.0 | 55.54
Neigh   | 27.839     | 27.839     | 27.839     |   0.0 | 41.22
Comm    | 0.89943    | 0.89943    | 0.89943    |   0.0 |  1.33
Output  | 0.00018501 | 0.00018501 | 0.00018501 |   0.0 |  0.00
Modify  | 1.0529     | 1.0529     | 1.0529     |   0.0 |  1.56
Other   |            | 0.2352     |            |       |  0.35

Nlocal:    19652 ave 19652 max 19652 min
Histogram: 1 0 0 0 0 0 0 0 0 0
Nghost:    16659 ave 16659 max 16659 min
Histogram: 1 0 0 0 0 0 0 0 0 0
Neighs:    1.17447e+06 ave 1.17447e+06 max 1.17447e+06 min
Histogram: 1 0 0 0 0 0 0 0 0 0

Total # of neighbors = 1174467
Ave neighs/atom = 59.7632
Neighbor list builds = 495
Dangerous builds not checked
Setting up Verlet run ...
  Unit style    : metal
  Current step  : 56495
  Time step     : 0.001
Per MPI rank memory allocation (min/avg/max) = 18.19 | 18.19 | 18.19 Mbytes
Step Temp Press TotEng PotEng Enthalpy 
   56495    2016.1501   -204.80523   -53549.241   -58670.446   -53602.901 
   58000     2000.499    228.80561   -53586.655   -58668.105   -53526.789 
Loop time of 203.105 on 1 procs for 1505 steps with 19652 atoms

Performance: 0.640 ns/day, 37.487 hours/ns, 7.410 timesteps/s
99.6% CPU use with 1 MPI tasks x no OpenMP threads

MPI task timing breakdown:
Section |  min time  |  avg time  |  max time  |%varavg| %total
---------------------------------------------------------------
Pair    | 112.61     | 112.61     | 112.61     |   0.0 | 55.45
Neigh   | 84.179     | 84.179     | 84.179     |   0.0 | 41.45
Comm    | 2.6058     | 2.6058     | 2.6058     |   0.0 |  1.28
Output  | 0.045069   | 0.045069   | 0.045069   |   0.0 |  0.02
Modify  | 2.9838     | 2.9838     | 2.9838     |   0.0 |  1.47
Other   |            | 0.6782     |            |       |  0.33

Nlocal:    19652 ave 19652 max 19652 min
Histogram: 1 0 0 0 0 0 0 0 0 0
Nghost:    16592 ave 16592 max 16592 min
Histogram: 1 0 0 0 0 0 0 0 0 0
Neighs:    1.176e+06 ave 1.176e+06 max 1.176e+06 min
Histogram: 1 0 0 0 0 0 0 0 0 0

Total # of neighbors = 1176000
Ave neighs/atom = 59.8412
Neighbor list builds = 1505
Dangerous builds not checked
Setting up Verlet run ...
  Unit style    : metal
  Current step  : 58000
  Time step     : 0.001
Per MPI rank memory allocation (min/avg/max) = 18.19 | 18.19 | 18.19 Mbytes
Step Temp Press TotEng PotEng Enthalpy 
   58000     2000.499    228.80561   -53586.655   -58668.105   -53526.789 
   58495    1951.3699    700.14428   -53785.983    -58742.64   -53603.299 
Loop time of 68.0392 on 1 procs for 495 steps with 19652 atoms

Performance: 0.629 ns/day, 38.181 hours/ns, 7.275 timesteps/s
100.0% CPU use with 1 MPI tasks x no OpenMP threads

MPI task timing breakdown:
Section |  min time  |  avg time  |  max time  |%varavg| %total
---------------------------------------------------------------
Pair    | 37.717     | 37.717     | 37.717     |   0.0 | 55.43
Neigh   | 28.181     | 28.181     | 28.181     |   0.0 | 41.42
Comm    | 0.88185    | 0.88185    | 0.88185    |   0.0 |  1.30
Output  | 0.00020909 | 0.00020909 | 0.00020909 |   0.0 |  0.00
Modify  | 1.0275     | 1.0275     | 1.0275     |   0.0 |  1.51
Other   |            | 0.2315     |            |       |  0.34

Nlocal:    19652 ave 19652 max 19652 min
Histogram: 1 0 0 0 0 0 0 0 0 0
Nghost:    16599 ave 16599 max 16599 min
Histogram: 1 0 0 0 0 0 0 0 0 0
Neighs:    1.17958e+06 ave 1.17958e+06 max 1.17958e+06 min
Histogram: 1 0 0 0 0 0 0 0 0 0

Total # of neighbors = 1179577
Ave neighs/atom = 60.0233
Neighbor list builds = 495
Dangerous builds not checked
Setting up Verlet run ...
  Unit style    : metal
  Current step  : 58495
  Time step     : 0.001
Per MPI rank memory allocation (min/avg/max) = 18.19 | 18.19 | 18.19 Mbytes
Step Temp Press TotEng PotEng Enthalpy 
   58495    1951.3699    700.14428   -53785.983    -58742.64   -53603.299 
   60000    1966.4077    366.71625   -53925.503   -58920.357   -53830.327 
Loop time of 202.649 on 1 procs for 1505 steps with 19652 atoms

Performance: 0.642 ns/day, 37.403 hours/ns, 7.427 timesteps/s
99.8% CPU use with 1 MPI tasks x no OpenMP threads

MPI task timing breakdown:
Section |  min time  |  avg time  |  max time  |%varavg| %total
---------------------------------------------------------------
Pair    | 112.83     | 112.83     | 112.83     |   0.0 | 55.68
Neigh   | 83.561     | 83.561     | 83.561     |   0.0 | 41.23
Comm    | 2.5737     | 2.5737     | 2.5737     |   0.0 |  1.27
Output  | 0.042576   | 0.042576   | 0.042576   |   0.0 |  0.02
Modify  | 2.9633     | 2.9633     | 2.9633     |   0.0 |  1.46
Other   |            | 0.6781     |            |       |  0.33

Nlocal:    19652 ave 19652 max 19652 min
Histogram: 1 0 0 0 0 0 0 0 0 0
Nghost:    16741 ave 16741 max 16741 min
Histogram: 1 0 0 0 0 0 0 0 0 0
Neighs:    1.18548e+06 ave 1.18548e+06 max 1.18548e+06 min
Histogram: 1 0 0 0 0 0 0 0 0 0

Total # of neighbors = 1185475
Ave neighs/atom = 60.3234
Neighbor list builds = 1505
Dangerous builds not checked
Setting up Verlet run ...
  Unit style    : metal
  Current step  : 60000
  Time step     : 0.001
Per MPI rank memory allocation (min/avg/max) = 18.19 | 18.19 | 18.19 Mbytes
Step Temp Press TotEng PotEng Enthalpy 
   60000    1966.4077    366.71625   -53925.503   -58920.357   -53830.327 
   60495    1923.1684   -58.908757   -54067.153   -58952.176   -54082.435 
Loop time of 64.6349 on 1 procs for 495 steps with 19652 atoms

Performance: 0.662 ns/day, 36.271 hours/ns, 7.658 timesteps/s
100.0% CPU use with 1 MPI tasks x no OpenMP threads

MPI task timing breakdown:
Section |  min time  |  avg time  |  max time  |%varavg| %total
---------------------------------------------------------------
Pair    | 35.901     | 35.901     | 35.901     |   0.0 | 55.54
Neigh   | 26.782     | 26.782     | 26.782     |   0.0 | 41.44
Comm    | 0.79232    | 0.79232    | 0.79232    |   0.0 |  1.23
Output  | 0.00015593 | 0.00015593 | 0.00015593 |   0.0 |  0.00
Modify  | 0.9441     | 0.9441     | 0.9441     |   0.0 |  1.46
Other   |            | 0.2153     |            |       |  0.33

Nlocal:    19652 ave 19652 max 19652 min
Histogram: 1 0 0 0 0 0 0 0 0 0
Nghost:    16716 ave 16716 max 16716 min
Histogram: 1 0 0 0 0 0 0 0 0 0
Neighs:    1.18638e+06 ave 1.18638e+06 max 1.18638e+06 min
Histogram: 1 0 0 0 0 0 0 0 0 0

Total # of neighbors = 1186384
Ave neighs/atom = 60.3696
Neighbor list builds = 495
Dangerous builds not checked
Setting up Verlet run ...
  Unit style    : metal
  Current step  : 60495
  Time step     : 0.001
Per MPI rank memory allocation (min/avg/max) = 18.19 | 18.19 | 18.19 Mbytes
Step Temp Press TotEng PotEng Enthalpy 
   60495    1923.1684   -58.908757   -54067.153   -58952.176   -54082.435 
   62000    1914.6485    88.553574   -54064.349   -58927.731   -54041.364 
Loop time of 187.556 on 1 procs for 1505 steps with 19652 atoms

Performance: 0.693 ns/day, 34.617 hours/ns, 8.024 timesteps/s
100.0% CPU use with 1 MPI tasks x no OpenMP threads

MPI task timing breakdown:
Section |  min time  |  avg time  |  max time  |%varavg| %total
---------------------------------------------------------------
Pair    | 103.06     | 103.06     | 103.06     |   0.0 | 54.95
Neigh   | 78.959     | 78.959     | 78.959     |   0.0 | 42.10
Comm    | 2.2141     | 2.2141     | 2.2141     |   0.0 |  1.18
Output  | 0.040903   | 0.040903   | 0.040903   |   0.0 |  0.02
Modify  | 2.6526     | 2.6526     | 2.6526     |   0.0 |  1.41
Other   |            | 0.6273     |            |       |  0.33

Nlocal:    19652 ave 19652 max 19652 min
Histogram: 1 0 0 0 0 0 0 0 0 0
Nghost:    16672 ave 16672 max 16672 min
Histogram: 1 0 0 0 0 0 0 0 0 0
Neighs:    1.18522e+06 ave 1.18522e+06 max 1.18522e+06 min
Histogram: 1 0 0 0 0 0 0 0 0 0

Total # of neighbors = 1185222
Ave neighs/atom = 60.3105
Neighbor list builds = 1505
Dangerous builds not checked
Setting up Verlet run ...
  Unit style    : metal
  Current step  : 62000
  Time step     : 0.001
Per MPI rank memory allocation (min/avg/max) = 18.19 | 18.19 | 18.19 Mbytes
Step Temp Press TotEng PotEng Enthalpy 
   62000    1914.6485    88.553574   -54064.349   -58927.731   -54041.364 
   62495    1858.3791    494.85115   -54356.613   -59077.065   -54229.116 
Loop time of 54.7739 on 1 procs for 495 steps with 19652 atoms

Performance: 0.781 ns/day, 30.737 hours/ns, 9.037 timesteps/s
100.0% CPU use with 1 MPI tasks x no OpenMP threads

MPI task timing breakdown:
Section |  min time  |  avg time  |  max time  |%varavg| %total
---------------------------------------------------------------
Pair    | 29.525     | 29.525     | 29.525     |   0.0 | 53.90
Neigh   | 23.931     | 23.931     | 23.931     |   0.0 | 43.69
Comm    | 0.45998    | 0.45998    | 0.45998    |   0.0 |  0.84
Output  | 0.00014591 | 0.00014591 | 0.00014591 |   0.0 |  0.00
Modify  | 0.69109    | 0.69109    | 0.69109    |   0.0 |  1.26
Other   |            | 0.1661     |            |       |  0.30

Nlocal:    19652 ave 19652 max 19652 min
Histogram: 1 0 0 0 0 0 0 0 0 0
Nghost:    16780 ave 16780 max 16780 min
Histogram: 1 0 0 0 0 0 0 0 0 0
Neighs:    1.19485e+06 ave 1.19485e+06 max 1.19485e+06 min
Histogram: 1 0 0 0 0 0 0 0 0 0

Total # of neighbors = 1194850
Ave neighs/atom = 60.8004
Neighbor list builds = 495
Dangerous builds not checked
Setting up Verlet run ...
  Unit style    : metal
  Current step  : 62495
  Time step     : 0.001
Per MPI rank memory allocation (min/avg/max) = 18.19 | 18.19 | 18.19 Mbytes
Step Temp Press TotEng PotEng Enthalpy 
   62495    1858.3791    494.85115   -54356.613   -59077.065   -54229.116 
   64000    1860.1782   -73.961583   -54430.086   -59155.108   -54449.124 
Loop time of 175.834 on 1 procs for 1505 steps with 19652 atoms

Performance: 0.740 ns/day, 32.454 hours/ns, 8.559 timesteps/s
100.0% CPU use with 1 MPI tasks x no OpenMP threads

MPI task timing breakdown:
Section |  min time  |  avg time  |  max time  |%varavg| %total
---------------------------------------------------------------
Pair    | 94.71      | 94.71      | 94.71      |   0.0 | 53.86
Neigh   | 76.802     | 76.802     | 76.802     |   0.0 | 43.68
Comm    | 1.5377     | 1.5377     | 1.5377     |   0.0 |  0.87
Output  | 0.040958   | 0.040958   | 0.040958   |   0.0 |  0.02
Modify  | 2.2111     | 2.2111     | 2.2111     |   0.0 |  1.26
Other   |            | 0.5324     |            |       |  0.30

Nlocal:    19652 ave 19652 max 19652 min
Histogram: 1 0 0 0 0 0 0 0 0 0
Nghost:    16755 ave 16755 max 16755 min
Histogram: 1 0 0 0 0 0 0 0 0 0
Neighs:    1.19509e+06 ave 1.19509e+06 max 1.19509e+06 min
Histogram: 1 0 0 0 0 0 0 0 0 0

Total # of neighbors = 1195088
Ave neighs/atom = 60.8125
Neighbor list builds = 1505
Dangerous builds not checked
Setting up Verlet run ...
  Unit style    : metal
  Current step  : 64000
  Time step     : 0.001
Per MPI rank memory allocation (min/avg/max) = 18.19 | 18.19 | 18.19 Mbytes
Step Temp Press TotEng PotEng Enthalpy 
   64000    1860.1782   -73.961583   -54430.086   -59155.108   -54449.124 
   64495    1821.5682    390.22605   -54641.865   -59268.815   -54541.922 
Loop time of 56.8586 on 1 procs for 495 steps with 19652 atoms

Performance: 0.752 ns/day, 31.907 hours/ns, 8.706 timesteps/s
100.0% CPU use with 1 MPI tasks x no OpenMP threads

MPI task timing breakdown:
Section |  min time  |  avg time  |  max time  |%varavg| %total
---------------------------------------------------------------
Pair    | 30.911     | 30.911     | 30.911     |   0.0 | 54.37
Neigh   | 24.324     | 24.324     | 24.324     |   0.0 | 42.78
Comm    | 0.64242    | 0.64242    | 0.64242    |   0.0 |  1.13
Output  | 0.00014615 | 0.00014615 | 0.00014615 |   0.0 |  0.00
Modify  | 0.79291    | 0.79291    | 0.79291    |   0.0 |  1.39
Other   |            | 0.1875     |            |       |  0.33

Nlocal:    19652 ave 19652 max 19652 min
Histogram: 1 0 0 0 0 0 0 0 0 0
Nghost:    16694 ave 16694 max 16694 min
Histogram: 1 0 0 0 0 0 0 0 0 0
Neighs:    1.20143e+06 ave 1.20143e+06 max 1.20143e+06 min
Histogram: 1 0 0 0 0 0 0 0 0 0

Total # of neighbors = 1201426
Ave neighs/atom = 61.135
Neighbor list builds = 495
Dangerous builds not checked
Setting up Verlet run ...
  Unit style    : metal
  Current step  : 64495
  Time step     : 0.001
Per MPI rank memory allocation (min/avg/max) = 18.19 | 18.19 | 18.19 Mbytes
Step Temp Press TotEng PotEng Enthalpy 
   64495    1821.5682    390.22605   -54641.865   -59268.815   -54541.922 
   66000    1813.0332    176.01031   -54703.576   -59308.845   -54658.547 
Loop time of 175.62 on 1 procs for 1505 steps with 19652 atoms

Performance: 0.740 ns/day, 32.414 hours/ns, 8.570 timesteps/s
100.0% CPU use with 1 MPI tasks x no OpenMP threads

MPI task timing breakdown:
Section |  min time  |  avg time  |  max time  |%varavg| %total
---------------------------------------------------------------
Pair    | 96.572     | 96.572     | 96.572     |   0.0 | 54.99
Neigh   | 74.574     | 74.574     | 74.574     |   0.0 | 42.46
Comm    | 1.6362     | 1.6362     | 1.6362     |   0.0 |  0.93
Output  | 0.042266   | 0.042266   | 0.042266   |   0.0 |  0.02
Modify  | 2.2198     | 2.2198     | 2.2198     |   0.0 |  1.26
Other   |            | 0.5759     |            |       |  0.33

Nlocal:    19652 ave 19652 max 19652 min
Histogram: 1 0 0 0 0 0 0 0 0 0
Nghost:    16802 ave 16802 max 16802 min
Histogram: 1 0 0 0 0 0 0 0 0 0
Neighs:    1.20315e+06 ave 1.20315e+06 max 1.20315e+06 min
Histogram: 1 0 0 0 0 0 0 0 0 0

Total # of neighbors = 1203149
Ave neighs/atom = 61.2227
Neighbor list builds = 1505
Dangerous builds not checked
Setting up Verlet run ...
  Unit style    : metal
  Current step  : 66000
  Time step     : 0.001
Per MPI rank memory allocation (min/avg/max) = 18.19 | 18.19 | 18.19 Mbytes
Step Temp Press TotEng PotEng Enthalpy 
   66000    1813.0332    176.01031   -54703.576   -59308.845   -54658.547 
   66495    1755.6828    593.57915   -54915.211   -59374.806   -54763.867 
Loop time of 59.5339 on 1 procs for 495 steps with 19652 atoms

Performance: 0.718 ns/day, 33.408 hours/ns, 8.315 timesteps/s
100.0% CPU use with 1 MPI tasks x no OpenMP threads

MPI task timing breakdown:
Section |  min time  |  avg time  |  max time  |%varavg| %total
---------------------------------------------------------------
Pair    | 33.223     | 33.223     | 33.223     |   0.0 | 55.81
Neigh   | 24.652     | 24.652     | 24.652     |   0.0 | 41.41
Comm    | 0.66457    | 0.66457    | 0.66457    |   0.0 |  1.12
Output  | 0.00014997 | 0.00014997 | 0.00014997 |   0.0 |  0.00
Modify  | 0.80112    | 0.80112    | 0.80112    |   0.0 |  1.35
Other   |            | 0.1937     |            |       |  0.33

Nlocal:    19652 ave 19652 max 19652 min
Histogram: 1 0 0 0 0 0 0 0 0 0
Nghost:    16804 ave 16804 max 16804 min
Histogram: 1 0 0 0 0 0 0 0 0 0
Neighs:    1.20741e+06 ave 1.20741e+06 max 1.20741e+06 min
Histogram: 1 0 0 0 0 0 0 0 0 0

Total # of neighbors = 1207409
Ave neighs/atom = 61.4395
Neighbor list builds = 495
Dangerous builds not checked
Setting up Verlet run ...
  Unit style    : metal
  Current step  : 66495
  Time step     : 0.001
Per MPI rank memory allocation (min/avg/max) = 18.19 | 18.19 | 18.19 Mbytes
Step Temp Press TotEng PotEng Enthalpy 
   66495    1755.6828    593.57915   -54915.211   -59374.806   -54763.867 
   68000    1749.6883    526.49573    -54980.81   -59425.177   -54846.805 
Loop time of 179.767 on 1 procs for 1505 steps with 19652 atoms

Performance: 0.723 ns/day, 33.180 hours/ns, 8.372 timesteps/s
100.1% CPU use with 1 MPI tasks x no OpenMP threads

MPI task timing breakdown:
Section |  min time  |  avg time  |  max time  |%varavg| %total
---------------------------------------------------------------
Pair    | 99.205     | 99.205     | 99.205     |   0.0 | 55.19
Neigh   | 75.182     | 75.182     | 75.182     |   0.0 | 41.82
Comm    | 2.1785     | 2.1785     | 2.1785     |   0.0 |  1.21
Output  | 0.042986   | 0.042986   | 0.042986   |   0.0 |  0.02
Modify  | 2.5519     | 2.5519     | 2.5519     |   0.0 |  1.42
Other   |            | 0.6069     |            |       |  0.34

Nlocal:    19652 ave 19652 max 19652 min
Histogram: 1 0 0 0 0 0 0 0 0 0
Nghost:    16733 ave 16733 max 16733 min
Histogram: 1 0 0 0 0 0 0 0 0 0
Neighs:    1.2095e+06 ave 1.2095e+06 max 1.2095e+06 min
Histogram: 1 0 0 0 0 0 0 0 0 0

Total # of neighbors = 1209502
Ave neighs/atom = 61.546
Neighbor list builds = 1505
Dangerous builds not checked
Setting up Verlet run ...
  Unit style    : metal
  Current step  : 68000
  Time step     : 0.001
Per MPI rank memory allocation (min/avg/max) = 18.19 | 18.19 | 18.19 Mbytes
Step Temp Press TotEng PotEng Enthalpy 
   68000    1749.6883    526.49573    -54980.81   -59425.177   -54846.805 
   68495     1718.573    387.36393    -55192.66   -59557.992   -55094.492 
Loop time of 57.697 on 1 procs for 495 steps with 19652 atoms

Performance: 0.741 ns/day, 32.378 hours/ns, 8.579 timesteps/s
100.1% CPU use with 1 MPI tasks x no OpenMP threads

MPI task timing breakdown:
Section |  min time  |  avg time  |  max time  |%varavg| %total
---------------------------------------------------------------
Pair    | 31.273     | 31.273     | 31.273     |   0.0 | 54.20
Neigh   | 24.902     | 24.902     | 24.902     |   0.0 | 43.16
Comm    | 0.56105    | 0.56105    | 0.56105    |   0.0 |  0.97
Output  | 0.00019312 | 0.00019312 | 0.00019312 |   0.0 |  0.00
Modify  | 0.7635     | 0.7635     | 0.7635     |   0.0 |  1.32
Other   |            | 0.1978     |            |       |  0.34

Nlocal:    19652 ave 19652 max 19652 min
Histogram: 1 0 0 0 0 0 0 0 0 0
Nghost:    16856 ave 16856 max 16856 min
Histogram: 1 0 0 0 0 0 0 0 0 0
Neighs:    1.21519e+06 ave 1.21519e+06 max 1.21519e+06 min
Histogram: 1 0 0 0 0 0 0 0 0 0

Total # of neighbors = 1215193
Ave neighs/atom = 61.8356
Neighbor list builds = 495
Dangerous builds not checked
Setting up Verlet run ...
  Unit style    : metal
  Current step  : 68495
  Time step     : 0.001
Per MPI rank memory allocation (min/avg/max) = 18.19 | 18.19 | 18.19 Mbytes
Step Temp Press TotEng PotEng Enthalpy 
   68495     1718.573    387.36393    -55192.66   -59557.992   -55094.492 
   70000    1698.9154    293.56525    -55295.91    -59611.31   -55221.636 
Loop time of 177.534 on 1 procs for 1505 steps with 19652 atoms

Performance: 0.732 ns/day, 32.767 hours/ns, 8.477 timesteps/s
100.0% CPU use with 1 MPI tasks x no OpenMP threads

MPI task timing breakdown:
Section |  min time  |  avg time  |  max time  |%varavg| %total
---------------------------------------------------------------
Pair    | 96.764     | 96.764     | 96.764     |   0.0 | 54.50
Neigh   | 76.031     | 76.031     | 76.031     |   0.0 | 42.83
Comm    | 1.7434     | 1.7434     | 1.7434     |   0.0 |  0.98
Output  | 0.042079   | 0.042079   | 0.042079   |   0.0 |  0.02
Modify  | 2.3568     | 2.3568     | 2.3568     |   0.0 |  1.33
Other   |            | 0.5964     |            |       |  0.34

Nlocal:    19652 ave 19652 max 19652 min
Histogram: 1 0 0 0 0 0 0 0 0 0
Nghost:    16875 ave 16875 max 16875 min
Histogram: 1 0 0 0 0 0 0 0 0 0
Neighs:    1.21682e+06 ave 1.21682e+06 max 1.21682e+06 min
Histogram: 1 0 0 0 0 0 0 0 0 0

Total # of neighbors = 1216819
Ave neighs/atom = 61.9183
Neighbor list builds = 1505
Dangerous builds not checked
Setting up Verlet run ...
  Unit style    : metal
  Current step  : 70000
  Time step     : 0.001
Per MPI rank memory allocation (min/avg/max) = 18.19 | 18.19 | 18.19 Mbytes
Step Temp Press TotEng PotEng Enthalpy 
   70000    1698.9154    293.56525    -55295.91    -59611.31   -55221.636 
   70495    1671.5296     353.2092   -55462.326   -59708.163   -55373.282 
Loop time of 57.1773 on 1 procs for 495 steps with 19652 atoms

Performance: 0.748 ns/day, 32.086 hours/ns, 8.657 timesteps/s
100.1% CPU use with 1 MPI tasks x no OpenMP threads

MPI task timing breakdown:
Section |  min time  |  avg time  |  max time  |%varavg| %total
---------------------------------------------------------------
Pair    | 31.131     | 31.131     | 31.131     |   0.0 | 54.45
Neigh   | 24.577     | 24.577     | 24.577     |   0.0 | 42.98
Comm    | 0.53242    | 0.53242    | 0.53242    |   0.0 |  0.93
Output  | 0.00013018 | 0.00013018 | 0.00013018 |   0.0 |  0.00
Modify  | 0.74839    | 0.74839    | 0.74839    |   0.0 |  1.31
Other   |            | 0.1883     |            |       |  0.33

Nlocal:    19652 ave 19652 max 19652 min
Histogram: 1 0 0 0 0 0 0 0 0 0
Nghost:    16901 ave 16901 max 16901 min
Histogram: 1 0 0 0 0 0 0 0 0 0
Neighs:    1.22163e+06 ave 1.22163e+06 max 1.22163e+06 min
Histogram: 1 0 0 0 0 0 0 0 0 0

Total # of neighbors = 1221628
Ave neighs/atom = 62.163
Neighbor list builds = 495
Dangerous builds not checked
Setting up Verlet run ...
  Unit style    : metal
  Current step  : 70495
  Time step     : 0.001
Per MPI rank memory allocation (min/avg/max) = 18.19 | 18.19 | 18.19 Mbytes
Step Temp Press TotEng PotEng Enthalpy 
   70495    1671.5296     353.2092   -55462.326   -59708.163   -55373.282 
   72000    1666.8347   -227.17538   -55530.691   -59764.603   -55587.939 
Loop time of 168.239 on 1 procs for 1505 steps with 19652 atoms

Performance: 0.773 ns/day, 31.052 hours/ns, 8.946 timesteps/s
100.1% CPU use with 1 MPI tasks x no OpenMP threads

MPI task timing breakdown:
Section |  min time  |  avg time  |  max time  |%varavg| %total
---------------------------------------------------------------
Pair    | 91.808     | 91.808     | 91.808     |   0.0 | 54.57
Neigh   | 72.202     | 72.202     | 72.202     |   0.0 | 42.92
Comm    | 1.4976     | 1.4976     | 1.4976     |   0.0 |  0.89
Output  | 0.040459   | 0.040459   | 0.040459   |   0.0 |  0.02
Modify  | 2.1207     | 2.1207     | 2.1207     |   0.0 |  1.26
Other   |            | 0.5699     |            |       |  0.34

Nlocal:    19652 ave 19652 max 19652 min
Histogram: 1 0 0 0 0 0 0 0 0 0
Nghost:    16921 ave 16921 max 16921 min
Histogram: 1 0 0 0 0 0 0 0 0 0
Neighs:    1.22177e+06 ave 1.22177e+06 max 1.22177e+06 min
Histogram: 1 0 0 0 0 0 0 0 0 0

Total # of neighbors = 1221774
Ave neighs/atom = 62.1705
Neighbor list builds = 1505
Dangerous builds not checked
Setting up Verlet run ...
  Unit style    : metal
  Current step  : 72000
  Time step     : 0.001
Per MPI rank memory allocation (min/avg/max) = 18.19 | 18.19 | 18.19 Mbytes
Step Temp Press TotEng PotEng Enthalpy 
   72000    1666.8347   -227.17538   -55530.691   -59764.603   -55587.939 
   72495    1624.0874     189.1029   -55763.973   -59889.303   -55716.629 
Loop time of 58.0787 on 1 procs for 495 steps with 19652 atoms

Performance: 0.736 ns/day, 32.592 hours/ns, 8.523 timesteps/s
100.1% CPU use with 1 MPI tasks x no OpenMP threads

MPI task timing breakdown:
Section |  min time  |  avg time  |  max time  |%varavg| %total
---------------------------------------------------------------
Pair    | 31.749     | 31.749     | 31.749     |   0.0 | 54.67
Neigh   | 24.833     | 24.833     | 24.833     |   0.0 | 42.76
Comm    | 0.5392     | 0.5392     | 0.5392     |   0.0 |  0.93
Output  | 0.00013494 | 0.00013494 | 0.00013494 |   0.0 |  0.00
Modify  | 0.75932    | 0.75932    | 0.75932    |   0.0 |  1.31
Other   |            | 0.1981     |            |       |  0.34

Nlocal:    19652 ave 19652 max 19652 min
Histogram: 1 0 0 0 0 0 0 0 0 0
Nghost:    16993 ave 16993 max 16993 min
Histogram: 1 0 0 0 0 0 0 0 0 0
Neighs:    1.22992e+06 ave 1.22992e+06 max 1.22992e+06 min
Histogram: 1 0 0 0 0 0 0 0 0 0

Total # of neighbors = 1229922
Ave neighs/atom = 62.5851
Neighbor list builds = 495
Dangerous builds not checked
Setting up Verlet run ...
  Unit style    : metal
  Current step  : 72495
  Time step     : 0.001
Per MPI rank memory allocation (min/avg/max) = 18.19 | 18.19 | 18.19 Mbytes
Step Temp Press TotEng PotEng Enthalpy 
   72495    1624.0874     189.1029   -55763.973   -59889.303   -55716.629 
   74000    1597.5671   -307.05062   -55856.083   -59914.048   -55932.984 
Loop time of 170.572 on 1 procs for 1505 steps with 19652 atoms

Performance: 0.762 ns/day, 31.483 hours/ns, 8.823 timesteps/s
100.1% CPU use with 1 MPI tasks x no OpenMP threads

MPI task timing breakdown:
Section |  min time  |  avg time  |  max time  |%varavg| %total
---------------------------------------------------------------
Pair    | 92.797     | 92.797     | 92.797     |   0.0 | 54.40
Neigh   | 73.717     | 73.717     | 73.717     |   0.0 | 43.22
Comm    | 1.3893     | 1.3893     | 1.3893     |   0.0 |  0.81
Output  | 0.039683   | 0.039683   | 0.039683   |   0.0 |  0.02
Modify  | 2.0732     | 2.0732     | 2.0732     |   0.0 |  1.22
Other   |            | 0.5569     |            |       |  0.33

Nlocal:    19652 ave 19652 max 19652 min
Histogram: 1 0 0 0 0 0 0 0 0 0
Nghost:    16992 ave 16992 max 16992 min
Histogram: 1 0 0 0 0 0 0 0 0 0
Neighs:    1.22948e+06 ave 1.22948e+06 max 1.22948e+06 min
Histogram: 1 0 0 0 0 0 0 0 0 0

Total # of neighbors = 1229477
Ave neighs/atom = 62.5624
Neighbor list builds = 1505
Dangerous builds not checked
Setting up Verlet run ...
  Unit style    : metal
  Current step  : 74000
  Time step     : 0.001
Per MPI rank memory allocation (min/avg/max) = 18.19 | 18.19 | 18.19 Mbytes
Step Temp Press TotEng PotEng Enthalpy 
   74000    1597.5671   -307.05062   -55856.083   -59914.048   -55932.984 
   74495    1558.1637    1051.4858   -56049.343   -60007.221   -55787.296 
Loop time of 55.9946 on 1 procs for 495 steps with 19652 atoms

Performance: 0.764 ns/day, 31.422 hours/ns, 8.840 timesteps/s
100.1% CPU use with 1 MPI tasks x no OpenMP threads

MPI task timing breakdown:
Section |  min time  |  avg time  |  max time  |%varavg| %total
---------------------------------------------------------------
Pair    | 30.556     | 30.556     | 30.556     |   0.0 | 54.57
Neigh   | 24.079     | 24.079     | 24.079     |   0.0 | 43.00
Comm    | 0.47569    | 0.47569    | 0.47569    |   0.0 |  0.85
Output  | 0.0001421  | 0.0001421  | 0.0001421  |   0.0 |  0.00
Modify  | 0.69739    | 0.69739    | 0.69739    |   0.0 |  1.25
Other   |            | 0.1858     |            |       |  0.33

Nlocal:    19652 ave 19652 max 19652 min
Histogram: 1 0 0 0 0 0 0 0 0 0
Nghost:    17060 ave 17060 max 17060 min
Histogram: 1 0 0 0 0 0 0 0 0 0
Neighs:    1.23605e+06 ave 1.23605e+06 max 1.23605e+06 min
Histogram: 1 0 0 0 0 0 0 0 0 0

Total # of neighbors = 1236048
Ave neighs/atom = 62.8968
Neighbor list builds = 495
Dangerous builds not checked
Setting up Verlet run ...
  Unit style    : metal
  Current step  : 74495
  Time step     : 0.001
Per MPI rank memory allocation (min/avg/max) = 18.19 | 18.19 | 18.19 Mbytes
Step Temp Press TotEng PotEng Enthalpy 
   74495    1558.1637    1051.4858   -56049.343   -60007.221   -55787.296 
   76000    1560.1936    174.90337   -56092.012   -60055.046   -56048.478 
Loop time of 172.426 on 1 procs for 1505 steps with 19652 atoms

Performance: 0.754 ns/day, 31.825 hours/ns, 8.728 timesteps/s
100.0% CPU use with 1 MPI tasks x no OpenMP threads

MPI task timing breakdown:
Section |  min time  |  avg time  |  max time  |%varavg| %total
---------------------------------------------------------------
Pair    | 93.859     | 93.859     | 93.859     |   0.0 | 54.43
Neigh   | 74.16      | 74.16      | 74.16      |   0.0 | 43.01
Comm    | 1.5994     | 1.5994     | 1.5994     |   0.0 |  0.93
Output  | 0.041365   | 0.041365   | 0.041365   |   0.0 |  0.02
Modify  | 2.2399     | 2.2399     | 2.2399     |   0.0 |  1.30
Other   |            | 0.5257     |            |       |  0.30

Nlocal:    19652 ave 19652 max 19652 min
Histogram: 1 0 0 0 0 0 0 0 0 0
Nghost:    17042 ave 17042 max 17042 min
Histogram: 1 0 0 0 0 0 0 0 0 0
Neighs:    1.23735e+06 ave 1.23735e+06 max 1.23735e+06 min
Histogram: 1 0 0 0 0 0 0 0 0 0

Total # of neighbors = 1237354
Ave neighs/atom = 62.9633
Neighbor list builds = 1505
Dangerous builds not checked
Setting up Verlet run ...
  Unit style    : metal
  Current step  : 76000
  Time step     : 0.001
Per MPI rank memory allocation (min/avg/max) = 18.19 | 18.19 | 18.19 Mbytes
Step Temp Press TotEng PotEng Enthalpy 
   76000    1560.1936    174.90337   -56092.012   -60055.046   -56048.478 
   76495    1526.7264   -79.240108   -56289.396   -60167.421   -56309.077 
Loop time of 55.2145 on 1 procs for 495 steps with 19652 atoms

Performance: 0.775 ns/day, 30.985 hours/ns, 8.965 timesteps/s
100.1% CPU use with 1 MPI tasks x no OpenMP threads

MPI task timing breakdown:
Section |  min time  |  avg time  |  max time  |%varavg| %total
---------------------------------------------------------------
Pair    | 30.068     | 30.068     | 30.068     |   0.0 | 54.46
Neigh   | 23.754     | 23.754     | 23.754     |   0.0 | 43.02
Comm    | 0.5038     | 0.5038     | 0.5038     |   0.0 |  0.91
Output  | 0.00015402 | 0.00015402 | 0.00015402 |   0.0 |  0.00
Modify  | 0.71975    | 0.71975    | 0.71975    |   0.0 |  1.30
Other   |            | 0.1696     |            |       |  0.31

Nlocal:    19652 ave 19652 max 19652 min
Histogram: 1 0 0 0 0 0 0 0 0 0
Nghost:    17011 ave 17011 max 17011 min
Histogram: 1 0 0 0 0 0 0 0 0 0
Neighs:    1.23982e+06 ave 1.23982e+06 max 1.23982e+06 min
Histogram: 1 0 0 0 0 0 0 0 0 0

Total # of neighbors = 1239822
Ave neighs/atom = 63.0888
Neighbor list builds = 495
Dangerous builds not checked
Setting up Verlet run ...
  Unit style    : metal
  Current step  : 76495
  Time step     : 0.001
Per MPI rank memory allocation (min/avg/max) = 18.19 | 18.19 | 18.19 Mbytes
Step Temp Press TotEng PotEng Enthalpy 
   76495    1526.7264   -79.240108   -56289.396   -60167.421   -56309.077 
   78000    1493.3653    938.13948   -56442.389   -60235.673   -56210.645 
Loop time of 177.863 on 1 procs for 1505 steps with 19652 atoms

Performance: 0.731 ns/day, 32.828 hours/ns, 8.462 timesteps/s
99.9% CPU use with 1 MPI tasks x no OpenMP threads

MPI task timing breakdown:
Section |  min time  |  avg time  |  max time  |%varavg| %total
---------------------------------------------------------------
Pair    | 97.88      | 97.88      | 97.88      |   0.0 | 55.03
Neigh   | 75.139     | 75.139     | 75.139     |   0.0 | 42.25
Comm    | 1.8234     | 1.8234     | 1.8234     |   0.0 |  1.03
Output  | 0.041481   | 0.041481   | 0.041481   |   0.0 |  0.02
Modify  | 2.3852     | 2.3852     | 2.3852     |   0.0 |  1.34
Other   |            | 0.594      |            |       |  0.33

Nlocal:    19652 ave 19652 max 19652 min
Histogram: 1 0 0 0 0 0 0 0 0 0
Nghost:    16993 ave 16993 max 16993 min
Histogram: 1 0 0 0 0 0 0 0 0 0
Neighs:    1.24681e+06 ave 1.24681e+06 max 1.24681e+06 min
Histogram: 1 0 0 0 0 0 0 0 0 0

Total # of neighbors = 1246807
Ave neighs/atom = 63.4443
Neighbor list builds = 1505
Dangerous builds not checked
Setting up Verlet run ...
  Unit style    : metal
  Current step  : 78000
  Time step     : 0.001
Per MPI rank memory allocation (min/avg/max) = 18.19 | 18.19 | 18.19 Mbytes
Step Temp Press TotEng PotEng Enthalpy 
   78000    1493.3653    938.13948   -56442.389   -60235.673   -56210.645 
   78495    1467.3949    253.62138   -56604.261   -60331.578   -56541.745 
Loop time of 58.6175 on 1 procs for 495 steps with 19652 atoms

Performance: 0.730 ns/day, 32.894 hours/ns, 8.445 timesteps/s
100.1% CPU use with 1 MPI tasks x no OpenMP threads

MPI task timing breakdown:
Section |  min time  |  avg time  |  max time  |%varavg| %total
---------------------------------------------------------------
Pair    | 32.377     | 32.377     | 32.377     |   0.0 | 55.23
Neigh   | 24.468     | 24.468     | 24.468     |   0.0 | 41.74
Comm    | 0.69487    | 0.69487    | 0.69487    |   0.0 |  1.19
Output  | 0.00015998 | 0.00015998 | 0.00015998 |   0.0 |  0.00
Modify  | 0.86156    | 0.86156    | 0.86156    |   0.0 |  1.47
Other   |            | 0.2153     |            |       |  0.37

Nlocal:    19652 ave 19652 max 19652 min
Histogram: 1 0 0 0 0 0 0 0 0 0
Nghost:    17042 ave 17042 max 17042 min
Histogram: 1 0 0 0 0 0 0 0 0 0
Neighs:    1.24975e+06 ave 1.24975e+06 max 1.24975e+06 min
Histogram: 1 0 0 0 0 0 0 0 0 0

Total # of neighbors = 1249752
Ave neighs/atom = 63.5941
Neighbor list builds = 495
Dangerous builds not checked
Setting up Verlet run ...
  Unit style    : metal
  Current step  : 78495
  Time step     : 0.001
Per MPI rank memory allocation (min/avg/max) = 18.19 | 18.19 | 18.19 Mbytes
Step Temp Press TotEng PotEng Enthalpy 
   78495    1467.3949    253.62138   -56604.261   -60331.578   -56541.745 
   80000    1456.6894    793.70635   -56697.444   -60397.568   -56502.322 
Loop time of 174.845 on 1 procs for 1505 steps with 19652 atoms

Performance: 0.744 ns/day, 32.271 hours/ns, 8.608 timesteps/s
100.1% CPU use with 1 MPI tasks x no OpenMP threads

MPI task timing breakdown:
Section |  min time  |  avg time  |  max time  |%varavg| %total
---------------------------------------------------------------
Pair    | 96.511     | 96.511     | 96.511     |   0.0 | 55.20
Neigh   | 73.222     | 73.222     | 73.222     |   0.0 | 41.88
Comm    | 1.9783     | 1.9783     | 1.9783     |   0.0 |  1.13
Output  | 0.041779   | 0.041779   | 0.041779   |   0.0 |  0.02
Modify  | 2.4582     | 2.4582     | 2.4582     |   0.0 |  1.41
Other   |            | 0.6338     |            |       |  0.36

Nlocal:    19652 ave 19652 max 19652 min
Histogram: 1 0 0 0 0 0 0 0 0 0
Nghost:    17038 ave 17038 max 17038 min
Histogram: 1 0 0 0 0 0 0 0 0 0
Neighs:    1.25343e+06 ave 1.25343e+06 max 1.25343e+06 min
Histogram: 1 0 0 0 0 0 0 0 0 0

Total # of neighbors = 1253427
Ave neighs/atom = 63.7811
Neighbor list builds = 1505
Dangerous builds not checked
Setting up Verlet run ...
  Unit style    : metal
  Current step  : 80000
  Time step     : 0.001
Per MPI rank memory allocation (min/avg/max) = 18.19 | 18.19 | 18.19 Mbytes
Step Temp Press TotEng PotEng Enthalpy 
   80000    1456.6894    793.70635   -56697.444   -60397.568   -56502.322 
   80495    1408.6942    243.76482   -56874.917   -60453.129   -56815.094 
Loop time of 56.9119 on 1 procs for 495 steps with 19652 atoms

Performance: 0.751 ns/day, 31.937 hours/ns, 8.698 timesteps/s
100.1% CPU use with 1 MPI tasks x no OpenMP threads

MPI task timing breakdown:
Section |  min time  |  avg time  |  max time  |%varavg| %total
---------------------------------------------------------------
Pair    | 31.417     | 31.417     | 31.417     |   0.0 | 55.20
Neigh   | 23.854     | 23.854     | 23.854     |   0.0 | 41.91
Comm    | 0.63593    | 0.63593    | 0.63593    |   0.0 |  1.12
Output  | 0.00016713 | 0.00016713 | 0.00016713 |   0.0 |  0.00
Modify  | 0.7975     | 0.7975     | 0.7975     |   0.0 |  1.40
Other   |            | 0.2066     |            |       |  0.36

Nlocal:    19652 ave 19652 max 19652 min
Histogram: 1 0 0 0 0 0 0 0 0 0
Nghost:    17149 ave 17149 max 17149 min
Histogram: 1 0 0 0 0 0 0 0 0 0
Neighs:    1.25516e+06 ave 1.25516e+06 max 1.25516e+06 min
Histogram: 1 0 0 0 0 0 0 0 0 0

Total # of neighbors = 1255162
Ave neighs/atom = 63.8694
Neighbor list builds = 495
Dangerous builds not checked
Setting up Verlet run ...
  Unit style    : metal
  Current step  : 80495
  Time step     : 0.001
Per MPI rank memory allocation (min/avg/max) = 18.19 | 18.19 | 18.19 Mbytes
Step Temp Press TotEng PotEng Enthalpy 
   80495    1408.6942    243.76482   -56874.917   -60453.129   -56815.094 
   82000    1385.8685    56.246541   -57039.555   -60559.788   -57025.783 
Loop time of 173.154 on 1 procs for 1505 steps with 19652 atoms

Performance: 0.751 ns/day, 31.959 hours/ns, 8.692 timesteps/s
100.1% CPU use with 1 MPI tasks x no OpenMP threads

MPI task timing breakdown:
Section |  min time  |  avg time  |  max time  |%varavg| %total
---------------------------------------------------------------
Pair    | 95.509     | 95.509     | 95.509     |   0.0 | 55.16
Neigh   | 73.055     | 73.055     | 73.055     |   0.0 | 42.19
Comm    | 1.6818     | 1.6818     | 1.6818     |   0.0 |  0.97
Output  | 0.041474   | 0.041474   | 0.041474   |   0.0 |  0.02
Modify  | 2.275      | 2.275      | 2.275      |   0.0 |  1.31
Other   |            | 0.5918     |            |       |  0.34

Nlocal:    19652 ave 19652 max 19652 min
Histogram: 1 0 0 0 0 0 0 0 0 0
Nghost:    17054 ave 17054 max 17054 min
Histogram: 1 0 0 0 0 0 0 0 0 0
Neighs:    1.2583e+06 ave 1.2583e+06 max 1.2583e+06 min
Histogram: 1 0 0 0 0 0 0 0 0 0

Total # of neighbors = 1258299
Ave neighs/atom = 64.0291
Neighbor list builds = 1505
Dangerous builds not checked
Setting up Verlet run ...
  Unit style    : metal
  Current step  : 82000
  Time step     : 0.001
Per MPI rank memory allocation (min/avg/max) = 18.19 | 18.19 | 18.19 Mbytes
Step Temp Press TotEng PotEng Enthalpy 
   82000    1385.8685    56.246541   -57039.555   -60559.788   -57025.783 
   82495    1359.2383   -104.27707   -57153.355   -60605.944   -57178.849 
Loop time of 56.7007 on 1 procs for 495 steps with 19652 atoms

Performance: 0.754 ns/day, 31.819 hours/ns, 8.730 timesteps/s
100.1% CPU use with 1 MPI tasks x no OpenMP threads

MPI task timing breakdown:
Section |  min time  |  avg time  |  max time  |%varavg| %total
---------------------------------------------------------------
Pair    | 31.265     | 31.265     | 31.265     |   0.0 | 55.14
Neigh   | 23.892     | 23.892     | 23.892     |   0.0 | 42.14
Comm    | 0.57585    | 0.57585    | 0.57585    |   0.0 |  1.02
Output  | 0.00013995 | 0.00013995 | 0.00013995 |   0.0 |  0.00
Modify  | 0.76943    | 0.76943    | 0.76943    |   0.0 |  1.36
Other   |            | 0.1981     |            |       |  0.35

Nlocal:    19652 ave 19652 max 19652 min
Histogram: 1 0 0 0 0 0 0 0 0 0
Nghost:    17149 ave 17149 max 17149 min
Histogram: 1 0 0 0 0 0 0 0 0 0
Neighs:    1.25966e+06 ave 1.25966e+06 max 1.25966e+06 min
Histogram: 1 0 0 0 0 0 0 0 0 0

Total # of neighbors = 1259657
Ave neighs/atom = 64.0982
Neighbor list builds = 495
Dangerous builds not checked
Setting up Verlet run ...
  Unit style    : metal
  Current step  : 82495
  Time step     : 0.001
Per MPI rank memory allocation (min/avg/max) = 18.19 | 18.19 | 18.19 Mbytes
Step Temp Press TotEng PotEng Enthalpy 
   82495    1359.2383   -104.27707   -57153.355   -60605.944   -57178.849 
   84000    1342.0072    -678.9806   -57268.229   -60677.049   -57433.922 
Loop time of 173.564 on 1 procs for 1505 steps with 19652 atoms

Performance: 0.749 ns/day, 32.035 hours/ns, 8.671 timesteps/s
100.1% CPU use with 1 MPI tasks x no OpenMP threads

MPI task timing breakdown:
Section |  min time  |  avg time  |  max time  |%varavg| %total
---------------------------------------------------------------
Pair    | 95.577     | 95.577     | 95.577     |   0.0 | 55.07
Neigh   | 73.512     | 73.512     | 73.512     |   0.0 | 42.35
Comm    | 1.6144     | 1.6144     | 1.6144     |   0.0 |  0.93
Output  | 0.039654   | 0.039654   | 0.039654   |   0.0 |  0.02
Modify  | 2.2343     | 2.2343     | 2.2343     |   0.0 |  1.29
Other   |            | 0.5855     |            |       |  0.34

Nlocal:    19652 ave 19652 max 19652 min
Histogram: 1 0 0 0 0 0 0 0 0 0
Nghost:    17106 ave 17106 max 17106 min
Histogram: 1 0 0 0 0 0 0 0 0 0
Neighs:    1.26258e+06 ave 1.26258e+06 max 1.26258e+06 min
Histogram: 1 0 0 0 0 0 0 0 0 0

Total # of neighbors = 1262578
Ave neighs/atom = 64.2468
Neighbor list builds = 1505
Dangerous builds not checked
Setting up Verlet run ...
  Unit style    : metal
  Current step  : 84000
  Time step     : 0.001
Per MPI rank memory allocation (min/avg/max) = 18.19 | 18.19 | 18.19 Mbytes
Step Temp Press TotEng PotEng Enthalpy 
   84000    1342.0072    -678.9806   -57268.229   -60677.049   -57433.922 
   84495    1304.3607   -347.98349   -57462.825    -60776.02    -57547.49 
Loop time of 54.8037 on 1 procs for 495 steps with 19652 atoms

Performance: 0.780 ns/day, 30.754 hours/ns, 9.032 timesteps/s
100.1% CPU use with 1 MPI tasks x no OpenMP threads

MPI task timing breakdown:
Section |  min time  |  avg time  |  max time  |%varavg| %total
---------------------------------------------------------------
Pair    | 30.08      | 30.08      | 30.08      |   0.0 | 54.89
Neigh   | 23.464     | 23.464     | 23.464     |   0.0 | 42.81
Comm    | 0.42715    | 0.42715    | 0.42715    |   0.0 |  0.78
Output  | 0.00012898 | 0.00012898 | 0.00012898 |   0.0 |  0.00
Modify  | 0.65602    | 0.65602    | 0.65602    |   0.0 |  1.20
Other   |            | 0.1763     |            |       |  0.32

Nlocal:    19652 ave 19652 max 19652 min
Histogram: 1 0 0 0 0 0 0 0 0 0
Nghost:    17180 ave 17180 max 17180 min
Histogram: 1 0 0 0 0 0 0 0 0 0
Neighs:    1.2659e+06 ave 1.2659e+06 max 1.2659e+06 min
Histogram: 1 0 0 0 0 0 0 0 0 0

Total # of neighbors = 1265900
Ave neighs/atom = 64.4158
Neighbor list builds = 495
Dangerous builds not checked
Setting up Verlet run ...
  Unit style    : metal
  Current step  : 84495
  Time step     : 0.001
Per MPI rank memory allocation (min/avg/max) = 18.19 | 18.19 | 18.19 Mbytes
Step Temp Press TotEng PotEng Enthalpy 
   84495    1304.3607   -347.98349   -57462.825    -60776.02    -57547.49 
   86000    1289.2192   -826.97949   -57589.362   -60864.096   -57790.014 
Loop time of 169.78 on 1 procs for 1505 steps with 19652 atoms

Performance: 0.766 ns/day, 31.336 hours/ns, 8.864 timesteps/s
100.1% CPU use with 1 MPI tasks x no OpenMP threads

MPI task timing breakdown:
Section |  min time  |  avg time  |  max time  |%varavg| %total
---------------------------------------------------------------
Pair    | 93.476     | 93.476     | 93.476     |   0.0 | 55.06
Neigh   | 72.26      | 72.26      | 72.26      |   0.0 | 42.56
Comm    | 1.3966     | 1.3966     | 1.3966     |   0.0 |  0.82
Output  | 0.039653   | 0.039653   | 0.039653   |   0.0 |  0.02
Modify  | 2.0559     | 2.0559     | 2.0559     |   0.0 |  1.21
Other   |            | 0.5518     |            |       |  0.32

Nlocal:    19652 ave 19652 max 19652 min
Histogram: 1 0 0 0 0 0 0 0 0 0
Nghost:    17111 ave 17111 max 17111 min
Histogram: 1 0 0 0 0 0 0 0 0 0
Neighs:    1.27031e+06 ave 1.27031e+06 max 1.27031e+06 min
Histogram: 1 0 0 0 0 0 0 0 0 0

Total # of neighbors = 1270314
Ave neighs/atom = 64.6404
Neighbor list builds = 1505
Dangerous builds not checked
Setting up Verlet run ...
  Unit style    : metal
  Current step  : 86000
  Time step     : 0.001
Per MPI rank memory allocation (min/avg/max) = 18.19 | 18.19 | 18.19 Mbytes
Step Temp Press TotEng PotEng Enthalpy 
   86000    1289.2192   -826.97949   -57589.362   -60864.096   -57790.014 
   86495    1261.5695   -850.06796   -57762.232   -60966.734   -57967.765 
Loop time of 55.2384 on 1 procs for 495 steps with 19652 atoms

Performance: 0.774 ns/day, 30.998 hours/ns, 8.961 timesteps/s
100.1% CPU use with 1 MPI tasks x no OpenMP threads

MPI task timing breakdown:
Section |  min time  |  avg time  |  max time  |%varavg| %total
---------------------------------------------------------------
Pair    | 30.485     | 30.485     | 30.485     |   0.0 | 55.19
Neigh   | 23.409     | 23.409     | 23.409     |   0.0 | 42.38
Comm    | 0.47062    | 0.47062    | 0.47062    |   0.0 |  0.85
Output  | 0.00013995 | 0.00013995 | 0.00013995 |   0.0 |  0.00
Modify  | 0.69082    | 0.69082    | 0.69082    |   0.0 |  1.25
Other   |            | 0.1831     |            |       |  0.33

Nlocal:    19652 ave 19652 max 19652 min
Histogram: 1 0 0 0 0 0 0 0 0 0
Nghost:    17227 ave 17227 max 17227 min
Histogram: 1 0 0 0 0 0 0 0 0 0
Neighs:    1.27432e+06 ave 1.27432e+06 max 1.27432e+06 min
Histogram: 1 0 0 0 0 0 0 0 0 0

Total # of neighbors = 1274322
Ave neighs/atom = 64.8444
Neighbor list builds = 495
Dangerous builds not checked
Setting up Verlet run ...
  Unit style    : metal
  Current step  : 86495
  Time step     : 0.001
Per MPI rank memory allocation (min/avg/max) = 18.19 | 18.19 | 18.19 Mbytes
Step Temp Press TotEng PotEng Enthalpy 
   86495    1261.5695   -850.06796   -57762.232   -60966.734   -57967.765 
   88000    1253.7824    707.44615   -57825.735   -61010.456     -57655.4 
Loop time of 173.117 on 1 procs for 1505 steps with 19652 atoms

Performance: 0.751 ns/day, 31.952 hours/ns, 8.694 timesteps/s
99.9% CPU use with 1 MPI tasks x no OpenMP threads

MPI task timing breakdown:
Section |  min time  |  avg time  |  max time  |%varavg| %total
---------------------------------------------------------------
Pair    | 95.607     | 95.607     | 95.607     |   0.0 | 55.23
Neigh   | 73.246     | 73.246     | 73.246     |   0.0 | 42.31
Comm    | 1.4698     | 1.4698     | 1.4698     |   0.0 |  0.85
Output  | 0.099092   | 0.099092   | 0.099092   |   0.0 |  0.06
Modify  | 2.1195     | 2.1195     | 2.1195     |   0.0 |  1.22
Other   |            | 0.5761     |            |       |  0.33

Nlocal:    19652 ave 19652 max 19652 min
Histogram: 1 0 0 0 0 0 0 0 0 0
Nghost:    17251 ave 17251 max 17251 min
Histogram: 1 0 0 0 0 0 0 0 0 0
Neighs:    1.27987e+06 ave 1.27987e+06 max 1.27987e+06 min
Histogram: 1 0 0 0 0 0 0 0 0 0

Total # of neighbors = 1279873
Ave neighs/atom = 65.1269
Neighbor list builds = 1505
Dangerous builds not checked
Setting up Verlet run ...
  Unit style    : metal
  Current step  : 88000
  Time step     : 0.001
Per MPI rank memory allocation (min/avg/max) = 18.19 | 18.19 | 18.19 Mbytes
Step Temp Press TotEng PotEng Enthalpy 
   88000    1253.7824    707.44615   -57825.735   -61010.456     -57655.4 
   88495     1214.694    416.70891   -58030.552   -61115.986    -57930.51 
Loop time of 58.0913 on 1 procs for 495 steps with 19652 atoms

Performance: 0.736 ns/day, 32.599 hours/ns, 8.521 timesteps/s
100.0% CPU use with 1 MPI tasks x no OpenMP threads

MPI task timing breakdown:
Section |  min time  |  avg time  |  max time  |%varavg| %total
---------------------------------------------------------------
Pair    | 32.196     | 32.196     | 32.196     |   0.0 | 55.42
Neigh   | 24.438     | 24.438     | 24.438     |   0.0 | 42.07
Comm    | 0.51836    | 0.51836    | 0.51836    |   0.0 |  0.89
Output  | 0.00018907 | 0.00018907 | 0.00018907 |   0.0 |  0.00
Modify  | 0.74195    | 0.74195    | 0.74195    |   0.0 |  1.28
Other   |            | 0.1968     |            |       |  0.34

Nlocal:    19652 ave 19652 max 19652 min
Histogram: 1 0 0 0 0 0 0 0 0 0
Nghost:    17286 ave 17286 max 17286 min
Histogram: 1 0 0 0 0 0 0 0 0 0
Neighs:    1.28367e+06 ave 1.28367e+06 max 1.28367e+06 min
Histogram: 1 0 0 0 0 0 0 0 0 0

Total # of neighbors = 1283667
Ave neighs/atom = 65.3199
Neighbor list builds = 495
Dangerous builds not checked
Setting up Verlet run ...
  Unit style    : metal
  Current step  : 88495
  Time step     : 0.001
Per MPI rank memory allocation (min/avg/max) = 18.19 | 18.19 | 18.19 Mbytes
Step Temp Press TotEng PotEng Enthalpy 
   88495     1214.694    416.70891   -58030.552   -61115.986    -57930.51 
   90000    1194.7041    913.30799   -58138.868   -61173.526   -57920.126 
Loop time of 206.171 on 1 procs for 1505 steps with 19652 atoms

Performance: 0.631 ns/day, 38.053 hours/ns, 7.300 timesteps/s
99.6% CPU use with 1 MPI tasks x no OpenMP threads

MPI task timing breakdown:
Section |  min time  |  avg time  |  max time  |%varavg| %total
---------------------------------------------------------------
Pair    | 114.78     | 114.78     | 114.78     |   0.0 | 55.67
Neigh   | 85.503     | 85.503     | 85.503     |   0.0 | 41.47
Comm    | 2.2919     | 2.2919     | 2.2919     |   0.0 |  1.11
Output  | 0.043036   | 0.043036   | 0.043036   |   0.0 |  0.02
Modify  | 2.9009     | 2.9009     | 2.9009     |   0.0 |  1.41
Other   |            | 0.6501     |            |       |  0.32

Nlocal:    19652 ave 19652 max 19652 min
Histogram: 1 0 0 0 0 0 0 0 0 0
Nghost:    17191 ave 17191 max 17191 min
Histogram: 1 0 0 0 0 0 0 0 0 0
Neighs:    1.28705e+06 ave 1.28705e+06 max 1.28705e+06 min
Histogram: 1 0 0 0 0 0 0 0 0 0

Total # of neighbors = 1287054
Ave neighs/atom = 65.4923
Neighbor list builds = 1505
Dangerous builds not checked
Setting up Verlet run ...
  Unit style    : metal
  Current step  : 90000
  Time step     : 0.001
Per MPI rank memory allocation (min/avg/max) = 18.19 | 18.19 | 18.19 Mbytes
Step Temp Press TotEng PotEng Enthalpy 
   90000    1194.7041    913.30799   -58138.868   -61173.526   -57920.126 
   90495     1166.137    1096.6686   -58327.418   -61289.512   -58065.728 
Loop time of 60.4583 on 1 procs for 495 steps with 19652 atoms

Performance: 0.707 ns/day, 33.927 hours/ns, 8.187 timesteps/s
100.1% CPU use with 1 MPI tasks x no OpenMP threads

MPI task timing breakdown:
Section |  min time  |  avg time  |  max time  |%varavg| %total
---------------------------------------------------------------
Pair    | 33.675     | 33.675     | 33.675     |   0.0 | 55.70
Neigh   | 24.752     | 24.752     | 24.752     |   0.0 | 40.94
Comm    | 0.85494    | 0.85494    | 0.85494    |   0.0 |  1.41
Output  | 0.00014305 | 0.00014305 | 0.00014305 |   0.0 |  0.00
Modify  | 0.96565    | 0.96565    | 0.96565    |   0.0 |  1.60
Other   |            | 0.2105     |            |       |  0.35

[...]
Dangerous builds not checked
Setting up Verlet run ...
  Unit style    : metal
  Current step  : 120000
  Time step     : 0.001
Per MPI rank memory allocation (min/avg/max) = 18.2 | 18.2 | 18.2 Mbytes
Step Temp Press TotEng PotEng Enthalpy 
  120000    452.68409   -419.85741    -62883.65   -64033.509    -62975.81 
  120495    420.94445   -267.95978   -63057.034   -64126.272   -63115.708 
Loop time of 65.9454 on 1 procs for 495 steps with 19652 atoms

Performance: 0.649 ns/day, 37.006 hours/ns, 7.506 timesteps/s
100.0% CPU use with 1 MPI tasks x no OpenMP threads

MPI task timing breakdown:
Section |  min time  |  avg time  |  max time  |%varavg| %total
---------------------------------------------------------------
Pair    | 36.426     | 36.426     | 36.426     |   0.0 | 55.24
Neigh   | 27.787     | 27.787     | 27.787     |   0.0 | 42.14
Comm    | 0.67423    | 0.67423    | 0.67423    |   0.0 |  1.02
Output  | 0.00013804 | 0.00013804 | 0.00013804 |   0.0 |  0.00
Modify  | 0.84893    | 0.84893    | 0.84893    |   0.0 |  1.29
Other   |            | 0.2088     |            |       |  0.32

Nlocal:    19652 ave 19652 max 19652 min
Histogram: 1 0 0 0 0 0 0 0 0 0
Nghost:    17866 ave 17866 max 17866 min
Histogram: 1 0 0 0 0 0 0 0 0 0
Neighs:    1.40914e+06 ave 1.40914e+06 max 1.40914e+06 min
Histogram: 1 0 0 0 0 0 0 0 0 0

Total # of neighbors = 1409136
Ave neighs/atom = 71.7045
Neighbor list builds = 495
Dangerous builds not checked
Setting up Verlet run ...
  Unit style    : metal
  Current step  : 120495
  Time step     : 0.001
Per MPI rank memory allocation (min/avg/max) = 18.2 | 18.2 | 18.2 Mbytes
Step Temp Press TotEng PotEng Enthalpy 
  120495    420.94445   -267.95978   -63057.034   -64126.272   -63115.708 
  122000    401.66857   -89.301345   -63210.583   -64230.858   -63230.083 
Loop time of 193.19 on 1 procs for 1505 steps with 19652 atoms

Performance: 0.673 ns/day, 35.657 hours/ns, 7.790 timesteps/s
100.0% CPU use with 1 MPI tasks x no OpenMP threads

MPI task timing breakdown:
Section |  min time  |  avg time  |  max time  |%varavg| %total
---------------------------------------------------------------
Pair    | 106.18     | 106.18     | 106.18     |   0.0 | 54.96
Neigh   | 81.788     | 81.788     | 81.788     |   0.0 | 42.34
Comm    | 2.0461     | 2.0461     | 2.0461     |   0.0 |  1.06
Output  | 0.041668   | 0.041668   | 0.041668   |   0.0 |  0.02
Modify  | 2.5123     | 2.5123     | 2.5123     |   0.0 |  1.30
Other   |            | 0.6257     |            |       |  0.32

Nlocal:    19652 ave 19652 max 19652 min
Histogram: 1 0 0 0 0 0 0 0 0 0
Nghost:    17906 ave 17906 max 17906 min
Histogram: 1 0 0 0 0 0 0 0 0 0
Neighs:    1.41259e+06 ave 1.41259e+06 max 1.41259e+06 min
Histogram: 1 0 0 0 0 0 0 0 0 0

Total # of neighbors = 1412589
Ave neighs/atom = 71.8802
Neighbor list builds = 1505
Dangerous builds not checked
Setting up Verlet run ...
  Unit style    : metal
  Current step  : 122000
  Time step     : 0.001
Per MPI rank memory allocation (min/avg/max) = 18.2 | 18.2 | 18.2 Mbytes
Step Temp Press TotEng PotEng Enthalpy 
  122000    401.66857   -89.301345   -63210.583   -64230.858   -63230.083 
  122495    374.58871   -727.48999   -63364.668   -64316.158   -63523.277 
Loop time of 65.9887 on 1 procs for 495 steps with 19652 atoms

Performance: 0.648 ns/day, 37.031 hours/ns, 7.501 timesteps/s
100.1% CPU use with 1 MPI tasks x no OpenMP threads

MPI task timing breakdown:
Section |  min time  |  avg time  |  max time  |%varavg| %total
---------------------------------------------------------------
Pair    | 36.499     | 36.499     | 36.499     |   0.0 | 55.31
Neigh   | 27.635     | 27.635     | 27.635     |   0.0 | 41.88
Comm    | 0.74168    | 0.74168    | 0.74168    |   0.0 |  1.12
Output  | 0.00023103 | 0.00023103 | 0.00023103 |   0.0 |  0.00
Modify  | 0.89746    | 0.89746    | 0.89746    |   0.0 |  1.36
Other   |            | 0.2148     |            |       |  0.33

Nlocal:    19652 ave 19652 max 19652 min
Histogram: 1 0 0 0 0 0 0 0 0 0
Nghost:    17904 ave 17904 max 17904 min
Histogram: 1 0 0 0 0 0 0 0 0 0
Neighs:    1.41499e+06 ave 1.41499e+06 max 1.41499e+06 min
Histogram: 1 0 0 0 0 0 0 0 0 0

Total # of neighbors = 1414990
Ave neighs/atom = 72.0023
Neighbor list builds = 495
Dangerous builds not checked
Setting up Verlet run ...
  Unit style    : metal
  Current step  : 122495
  Time step     : 0.001
Per MPI rank memory allocation (min/avg/max) = 18.2 | 18.2 | 18.2 Mbytes
Step Temp Press TotEng PotEng Enthalpy 
  122495    374.58871   -727.48999   -63364.668   -64316.158   -63523.277 
  124000    347.29843   -221.41695   -63517.942   -64400.111   -63566.084 
Loop time of 198.116 on 1 procs for 1505 steps with 19652 atoms

Performance: 0.656 ns/day, 36.566 hours/ns, 7.597 timesteps/s
100.1% CPU use with 1 MPI tasks x no OpenMP threads

MPI task timing breakdown:
Section |  min time  |  avg time  |  max time  |%varavg| %total
---------------------------------------------------------------
Pair    | 109.19     | 109.19     | 109.19     |   0.0 | 55.11
Neigh   | 83.282     | 83.282     | 83.282     |   0.0 | 42.04
Comm    | 2.2608     | 2.2608     | 2.2608     |   0.0 |  1.14
Output  | 0.041363   | 0.041363   | 0.041363   |   0.0 |  0.02
Modify  | 2.6958     | 2.6958     | 2.6958     |   0.0 |  1.36
Other   |            | 0.6497     |            |       |  0.33

Nlocal:    19652 ave 19652 max 19652 min
Histogram: 1 0 0 0 0 0 0 0 0 0
Nghost:    17983 ave 17983 max 17983 min
Histogram: 1 0 0 0 0 0 0 0 0 0
Neighs:    1.41847e+06 ave 1.41847e+06 max 1.41847e+06 min
Histogram: 1 0 0 0 0 0 0 0 0 0

Total # of neighbors = 1418469
Ave neighs/atom = 72.1794
Neighbor list builds = 1505
Dangerous builds not checked
Setting up Verlet run ...
  Unit style    : metal
  Current step  : 124000
  Time step     : 0.001
Per MPI rank memory allocation (min/avg/max) = 18.2 | 18.2 | 18.2 Mbytes
Step Temp Press TotEng PotEng Enthalpy 
  124000    347.29843   -221.41695   -63517.942   -64400.111   -63566.084 
  124495    322.62701    52.730746   -63664.235   -64483.737   -63652.798 
Loop time of 63.6472 on 1 procs for 495 steps with 19652 atoms

Performance: 0.672 ns/day, 35.717 hours/ns, 7.777 timesteps/s
100.1% CPU use with 1 MPI tasks x no OpenMP threads

MPI task timing breakdown:
Section |  min time  |  avg time  |  max time  |%varavg| %total
---------------------------------------------------------------
Pair    | 35.032     | 35.032     | 35.032     |   0.0 | 55.04
Neigh   | 26.821     | 26.821     | 26.821     |   0.0 | 42.14
Comm    | 0.72869    | 0.72869    | 0.72869    |   0.0 |  1.14
Output  | 0.00013185 | 0.00013185 | 0.00013185 |   0.0 |  0.00
Modify  | 0.8565     | 0.8565     | 0.8565     |   0.0 |  1.35
Other   |            | 0.2087     |            |       |  0.33

Nlocal:    19652 ave 19652 max 19652 min
Histogram: 1 0 0 0 0 0 0 0 0 0
Nghost:    18004 ave 18004 max 18004 min
Histogram: 1 0 0 0 0 0 0 0 0 0
Neighs:    1.4217e+06 ave 1.4217e+06 max 1.4217e+06 min
Histogram: 1 0 0 0 0 0 0 0 0 0

Total # of neighbors = 1421695
Ave neighs/atom = 72.3435
Neighbor list builds = 495
Dangerous builds not checked
Setting up Verlet run ...
  Unit style    : metal
  Current step  : 124495
  Time step     : 0.001
Per MPI rank memory allocation (min/avg/max) = 18.2 | 18.2 | 18.2 Mbytes
Step Temp Press TotEng PotEng Enthalpy 
  124495    322.62701    52.730746   -63664.235   -64483.737   -63652.798 
  126000    299.07919    249.03312   -63805.279   -64564.967   -63751.404 
Loop time of 187.584 on 1 procs for 1505 steps with 19652 atoms

Performance: 0.693 ns/day, 34.622 hours/ns, 8.023 timesteps/s
100.0% CPU use with 1 MPI tasks x no OpenMP threads

MPI task timing breakdown:
Section |  min time  |  avg time  |  max time  |%varavg| %total
---------------------------------------------------------------
Pair    | 102.97     | 102.97     | 102.97     |   0.0 | 54.89
Neigh   | 79.271     | 79.271     | 79.271     |   0.0 | 42.26
Comm    | 2.1311     | 2.1311     | 2.1311     |   0.0 |  1.14
Output  | 0.062356   | 0.062356   | 0.062356   |   0.0 |  0.03
Modify  | 2.5309     | 2.5309     | 2.5309     |   0.0 |  1.35
Other   |            | 0.6212     |            |       |  0.33

Nlocal:    19652 ave 19652 max 19652 min
Histogram: 1 0 0 0 0 0 0 0 0 0
Nghost:    18026 ave 18026 max 18026 min
Histogram: 1 0 0 0 0 0 0 0 0 0
Neighs:    1.42567e+06 ave 1.42567e+06 max 1.42567e+06 min
Histogram: 1 0 0 0 0 0 0 0 0 0

Total # of neighbors = 1425670
Ave neighs/atom = 72.5458
Neighbor list builds = 1505
Dangerous builds not checked
Setting up Verlet run ...
  Unit style    : metal
  Current step  : 126000
  Time step     : 0.001
Per MPI rank memory allocation (min/avg/max) = 18.2 | 18.2 | 18.2 Mbytes
Step Temp Press TotEng PotEng Enthalpy 
  126000    299.07919    249.03312   -63805.279   -64564.967   -63751.404 
  126495    273.16891   -636.49771   -63952.966    -64646.84   -64090.585 
Loop time of 64.8369 on 1 procs for 495 steps with 19652 atoms

Performance: 0.660 ns/day, 36.384 hours/ns, 7.635 timesteps/s
100.1% CPU use with 1 MPI tasks x no OpenMP threads

MPI task timing breakdown:
Section |  min time  |  avg time  |  max time  |%varavg| %total
---------------------------------------------------------------
Pair    | 35.83      | 35.83      | 35.83      |   0.0 | 55.26
Neigh   | 27.188     | 27.188     | 27.188     |   0.0 | 41.93
Comm    | 0.73224    | 0.73224    | 0.73224    |   0.0 |  1.13
Output  | 0.00030494 | 0.00030494 | 0.00030494 |   0.0 |  0.00
Modify  | 0.87745    | 0.87745    | 0.87745    |   0.0 |  1.35
Other   |            | 0.209      |            |       |  0.32

Nlocal:    19652 ave 19652 max 19652 min
Histogram: 1 0 0 0 0 0 0 0 0 0
Nghost:    18033 ave 18033 max 18033 min
Histogram: 1 0 0 0 0 0 0 0 0 0
Neighs:    1.42661e+06 ave 1.42661e+06 max 1.42661e+06 min
Histogram: 1 0 0 0 0 0 0 0 0 0

Total # of neighbors = 1426608
Ave neighs/atom = 72.5935
Neighbor list builds = 495
Dangerous builds not checked
Setting up Verlet run ...
  Unit style    : metal
  Current step  : 126495
  Time step     : 0.001
Per MPI rank memory allocation (min/avg/max) = 18.2 | 18.2 | 18.2 Mbytes
Step Temp Press TotEng PotEng Enthalpy 
  126495    273.16891   -636.49771   -63952.966    -64646.84   -64090.585 
  128000    251.16404   -139.43838   -64095.666   -64733.646   -64125.731 
Loop time of 189.303 on 1 procs for 1505 steps with 19652 atoms

Performance: 0.687 ns/day, 34.940 hours/ns, 7.950 timesteps/s
100.0% CPU use with 1 MPI tasks x no OpenMP threads

MPI task timing breakdown:
Section |  min time  |  avg time  |  max time  |%varavg| %total
---------------------------------------------------------------
Pair    | 104.22     | 104.22     | 104.22     |   0.0 | 55.06
Neigh   | 79.635     | 79.635     | 79.635     |   0.0 | 42.07
Comm    | 2.1848     | 2.1848     | 2.1848     |   0.0 |  1.15
Output  | 0.041664   | 0.041664   | 0.041664   |   0.0 |  0.02
Modify  | 2.5984     | 2.5984     | 2.5984     |   0.0 |  1.37
Other   |            | 0.6191     |            |       |  0.33

Nlocal:    19652 ave 19652 max 19652 min
Histogram: 1 0 0 0 0 0 0 0 0 0
Nghost:    18078 ave 18078 max 18078 min
Histogram: 1 0 0 0 0 0 0 0 0 0
Neighs:    1.43041e+06 ave 1.43041e+06 max 1.43041e+06 min
Histogram: 1 0 0 0 0 0 0 0 0 0

Total # of neighbors = 1430413
Ave neighs/atom = 72.7871
Neighbor list builds = 1505
Dangerous builds not checked
Setting up Verlet run ...
  Unit style    : metal
  Current step  : 128000
  Time step     : 0.001
Per MPI rank memory allocation (min/avg/max) = 18.2 | 18.2 | 18.2 Mbytes
Step Temp Press TotEng PotEng Enthalpy 
  128000    251.16404   -139.43838   -64095.666   -64733.646   -64125.731 
  128495    225.96266     300.3393   -64231.821   -64805.787   -64167.196 
Loop time of 60.3612 on 1 procs for 495 steps with 19652 atoms

Performance: 0.709 ns/day, 33.873 hours/ns, 8.201 timesteps/s
100.0% CPU use with 1 MPI tasks x no OpenMP threads

MPI task timing breakdown:
Section |  min time  |  avg time  |  max time  |%varavg| %total
---------------------------------------------------------------
Pair    | 32.959     | 32.959     | 32.959     |   0.0 | 54.60
Neigh   | 25.887     | 25.887     | 25.887     |   0.0 | 42.89
Comm    | 0.57278    | 0.57278    | 0.57278    |   0.0 |  0.95
Output  | 0.0001471  | 0.0001471  | 0.0001471  |   0.0 |  0.00
Modify  | 0.75942    | 0.75942    | 0.75942    |   0.0 |  1.26
Other   |            | 0.1828     |            |       |  0.30

Nlocal:    19652 ave 19652 max 19652 min
Histogram: 1 0 0 0 0 0 0 0 0 0
Nghost:    18093 ave 18093 max 18093 min
Histogram: 1 0 0 0 0 0 0 0 0 0
Neighs:    1.43284e+06 ave 1.43284e+06 max 1.43284e+06 min
Histogram: 1 0 0 0 0 0 0 0 0 0

Total # of neighbors = 1432836
Ave neighs/atom = 72.9104
Neighbor list builds = 495
Dangerous builds not checked
Setting up Verlet run ...
  Unit style    : metal
  Current step  : 128495
  Time step     : 0.001
Per MPI rank memory allocation (min/avg/max) = 18.2 | 18.2 | 18.2 Mbytes
Step Temp Press TotEng PotEng Enthalpy 
  128495    225.96266     300.3393   -64231.821   -64805.787   -64167.196 
  130000    201.37031   -221.25306   -64365.397   -64876.896   -64412.971 
Loop time of 181.681 on 1 procs for 1505 steps with 19652 atoms

Performance: 0.716 ns/day, 33.533 hours/ns, 8.284 timesteps/s
100.1% CPU use with 1 MPI tasks x no OpenMP threads

MPI task timing breakdown:
Section |  min time  |  avg time  |  max time  |%varavg| %total
---------------------------------------------------------------
Pair    | 99.167     | 99.167     | 99.167     |   0.0 | 54.58
Neigh   | 78.248     | 78.248     | 78.248     |   0.0 | 43.07
Comm    | 1.5227     | 1.5227     | 1.5227     |   0.0 |  0.84
Output  | 0.041262   | 0.041262   | 0.041262   |   0.0 |  0.02
Modify  | 2.1763     | 2.1763     | 2.1763     |   0.0 |  1.20
Other   |            | 0.5251     |            |       |  0.29

Nlocal:    19652 ave 19652 max 19652 min
Histogram: 1 0 0 0 0 0 0 0 0 0
Nghost:    18058 ave 18058 max 18058 min
Histogram: 1 0 0 0 0 0 0 0 0 0
Neighs:    1.43385e+06 ave 1.43385e+06 max 1.43385e+06 min
Histogram: 1 0 0 0 0 0 0 0 0 0

Total # of neighbors = 1433848
Ave neighs/atom = 72.9619
Neighbor list builds = 1505
Dangerous builds not checked
Setting up Verlet run ...
  Unit style    : metal
  Current step  : 130000
  Time step     : 0.001
Per MPI rank memory allocation (min/avg/max) = 18.2 | 18.2 | 18.2 Mbytes
Step Temp Press TotEng PotEng Enthalpy 
  130000    201.37031   -221.25306   -64365.397   -64876.896   -64412.971 
  130495    175.15493   -148.16376   -64497.729   -64942.638   -64529.541 
Loop time of 59.7007 on 1 procs for 495 steps with 19652 atoms

Performance: 0.716 ns/day, 33.502 hours/ns, 8.291 timesteps/s
100.1% CPU use with 1 MPI tasks x no OpenMP threads

MPI task timing breakdown:
Section |  min time  |  avg time  |  max time  |%varavg| %total
---------------------------------------------------------------
Pair    | 32.592     | 32.592     | 32.592     |   0.0 | 54.59
Neigh   | 25.725     | 25.725     | 25.725     |   0.0 | 43.09
Comm    | 0.49551    | 0.49551    | 0.49551    |   0.0 |  0.83
Output  | 0.000175   | 0.000175   | 0.000175   |   0.0 |  0.00
Modify  | 0.71516    | 0.71516    | 0.71516    |   0.0 |  1.20
Other   |            | 0.1729     |            |       |  0.29

Nlocal:    19652 ave 19652 max 19652 min
Histogram: 1 0 0 0 0 0 0 0 0 0
Nghost:    18088 ave 18088 max 18088 min
Histogram: 1 0 0 0 0 0 0 0 0 0
Neighs:    1.43587e+06 ave 1.43587e+06 max 1.43587e+06 min
Histogram: 1 0 0 0 0 0 0 0 0 0

Total # of neighbors = 1435866
Ave neighs/atom = 73.0646
Neighbor list builds = 495
Dangerous builds not checked
Setting up Verlet run ...
  Unit style    : metal
  Current step  : 130495
  Time step     : 0.001
Per MPI rank memory allocation (min/avg/max) = 18.2 | 18.2 | 18.2 Mbytes
Step Temp Press TotEng PotEng Enthalpy 
  130495    175.15493   -148.16376   -64497.729   -64942.638   -64529.541 
  132000    149.53276   -149.93057   -64638.591   -65018.418   -64670.733 
Loop time of 186.2 on 1 procs for 1505 steps with 19652 atoms

Performance: 0.698 ns/day, 34.367 hours/ns, 8.083 timesteps/s
100.0% CPU use with 1 MPI tasks x no OpenMP threads

MPI task timing breakdown:
Section |  min time  |  avg time  |  max time  |%varavg| %total
---------------------------------------------------------------
Pair    | 101.7      | 101.7      | 101.7      |   0.0 | 54.62
Neigh   | 79.778     | 79.778     | 79.778     |   0.0 | 42.85
Comm    | 1.7721     | 1.7721     | 1.7721     |   0.0 |  0.95
Output  | 0.042701   | 0.042701   | 0.042701   |   0.0 |  0.02
Modify  | 2.3522     | 2.3522     | 2.3522     |   0.0 |  1.26
Other   |            | 0.558      |            |       |  0.30

Nlocal:    19652 ave 19652 max 19652 min
Histogram: 1 0 0 0 0 0 0 0 0 0
Nghost:    18095 ave 18095 max 18095 min
Histogram: 1 0 0 0 0 0 0 0 0 0
Neighs:    1.43802e+06 ave 1.43802e+06 max 1.43802e+06 min
Histogram: 1 0 0 0 0 0 0 0 0 0

Total # of neighbors = 1438017
Ave neighs/atom = 73.1741
Neighbor list builds = 1505
Dangerous builds not checked
Setting up Verlet run ...
  Unit style    : metal
  Current step  : 132000
  Time step     : 0.001
Per MPI rank memory allocation (min/avg/max) = 18.2 | 18.2 | 18.2 Mbytes
Step Temp Press TotEng PotEng Enthalpy 
  132000    149.53276   -149.93057   -64638.591   -65018.418   -64670.733 
  132495    127.72429   -604.09368   -64757.774   -65082.205   -64887.179 
Loop time of 69.6193 on 1 procs for 495 steps with 19652 atoms

Performance: 0.614 ns/day, 39.068 hours/ns, 7.110 timesteps/s
100.0% CPU use with 1 MPI tasks x no OpenMP threads

MPI task timing breakdown:
Section |  min time  |  avg time  |  max time  |%varavg| %total
---------------------------------------------------------------
Pair    | 38.379     | 38.379     | 38.379     |   0.0 | 55.13
Neigh   | 29.131     | 29.131     | 29.131     |   0.0 | 41.84
Comm    | 0.86514    | 0.86514    | 0.86514    |   0.0 |  1.24
Output  | 0.00018406 | 0.00018406 | 0.00018406 |   0.0 |  0.00
Modify  | 1.0215     | 1.0215     | 1.0215     |   0.0 |  1.47
Other   |            | 0.223      |            |       |  0.32

Nlocal:    19652 ave 19652 max 19652 min
Histogram: 1 0 0 0 0 0 0 0 0 0
Nghost:    18082 ave 18082 max 18082 min
Histogram: 1 0 0 0 0 0 0 0 0 0
Neighs:    1.43912e+06 ave 1.43912e+06 max 1.43912e+06 min
Histogram: 1 0 0 0 0 0 0 0 0 0

Total # of neighbors = 1439121
Ave neighs/atom = 73.2303
Neighbor list builds = 495
Dangerous builds not checked
Setting up Verlet run ...
  Unit style    : metal
  Current step  : 132495
  Time step     : 0.001
Per MPI rank memory allocation (min/avg/max) = 18.2 | 18.2 | 18.2 Mbytes
Step Temp Press TotEng PotEng Enthalpy 
  132495    127.72429   -604.09368   -64757.774   -65082.205   -64887.179 
  134000    99.339625   -104.57308   -64905.529   -65157.861   -64927.881 
Loop time of 184.105 on 1 procs for 1505 steps with 19652 atoms

Performance: 0.706 ns/day, 33.980 hours/ns, 8.175 timesteps/s
100.1% CPU use with 1 MPI tasks x no OpenMP threads

MPI task timing breakdown:
Section |  min time  |  avg time  |  max time  |%varavg| %total
---------------------------------------------------------------
Pair    | 100.47     | 100.47     | 100.47     |   0.0 | 54.57
Neigh   | 79.028     | 79.028     | 79.028     |   0.0 | 42.93
Comm    | 1.7039     | 1.7039     | 1.7039     |   0.0 |  0.93
Output  | 0.040372   | 0.040372   | 0.040372   |   0.0 |  0.02
Modify  | 2.3106     | 2.3106     | 2.3106     |   0.0 |  1.26
Other   |            | 0.5523     |            |       |  0.30

Nlocal:    19652 ave 19652 max 19652 min
Histogram: 1 0 0 0 0 0 0 0 0 0
Nghost:    18128 ave 18128 max 18128 min
Histogram: 1 0 0 0 0 0 0 0 0 0
Neighs:    1.4424e+06 ave 1.4424e+06 max 1.4424e+06 min
Histogram: 1 0 0 0 0 0 0 0 0 0

Total # of neighbors = 1442405
Ave neighs/atom = 73.3974
Neighbor list builds = 1505
Dangerous builds not checked
Total wall time: 4:34:15
