LAMMPS (12 Dec 2018)
Lattice spacing in x,y,z = 4 4 4
Created orthogonal box = (0 0 0) to (68 68 68)
  1 by 1 by 2 MPI processor grid
Created 19652 atoms
  Time spent = 0.00194097 secs
Setting atom values ...
  19281 settings made for type/fraction
Neighbor list info ...
  update every 1 steps, delay 0 steps, check no
  max neighbors/atom: 2000, page size: 100000
  master list distance cutoff = 8.5
  ghost atom cutoff = 8.5
  binsize = 4.25, bins = 16 16 16
  1 neighbor lists, perpetual/occasional/extra = 1 0 0
  (1) pair eam/alloy, perpetual
      attributes: half, newton on
      pair build: half/bin/atomonly/newton
      stencil: half/bin/3d/newton
      bin: standard
Setting up Verlet run ...
  Unit style    : metal
  Current step  : 0
  Time step     : 0.001
Per MPI rank memory allocation (min/avg/max) = 11.15 | 11.15 | 11.15 Mbytes
Step Temp Press TotEng PotEng Enthalpy 
       0          300    37241.191   -65214.093    -65976.12   -57905.396 
    1000    278.33907    50781.651   -65214.123    -65921.13    -55248.07 
Loop time of 94.3352 on 2 procs for 1000 steps with 19652 atoms

Performance: 0.916 ns/day, 26.204 hours/ns, 10.601 timesteps/s
97.2% CPU use with 2 MPI tasks x no OpenMP threads

MPI task timing breakdown:
Section |  min time  |  avg time  |  max time  |%varavg| %total
---------------------------------------------------------------
Pair    | 53.668     | 53.81      | 53.951     |   1.9 | 57.04
Neigh   | 36.113     | 36.571     | 37.029     |   7.6 | 38.77
Comm    | 3.1831     | 3.4799     | 3.7768     |  15.9 |  3.69
Output  | 0.00013614 | 0.00018954 | 0.00024295 |   0.0 |  0.00
Modify  | 0.22548    | 0.24341    | 0.26135    |   3.6 |  0.26
Other   |            | 0.2311     |            |       |  0.25

Nlocal:    9826 ave 9844 max 9808 min
Histogram: 1 0 0 0 0 0 0 0 0 1
Nghost:    14205.5 ave 14224 max 14187 min
Histogram: 1 0 0 0 0 0 0 0 0 1
Neighs:    784117 ave 786136 max 782098 min
Histogram: 1 0 0 0 0 0 0 0 0 1

Total # of neighbors = 1568234
Ave neighs/atom = 79.8002
Neighbor list builds = 1000
Dangerous builds not checked
Setting up Verlet run ...
  Unit style    : metal
  Current step  : 1000
  Time step     : 0.001
Per MPI rank memory allocation (min/avg/max) = 11.15 | 11.15 | 11.15 Mbytes
Step Temp Press TotEng PotEng Enthalpy 
    1000    278.33907    50781.651   -65214.123    -65921.13    -55248.07 
    2000    300.66972    8.3001057   -65197.691    -65961.42   -65195.953 
Loop time of 91.1838 on 2 procs for 1000 steps with 19652 atoms

Performance: 0.948 ns/day, 25.329 hours/ns, 10.967 timesteps/s
98.0% CPU use with 2 MPI tasks x no OpenMP threads

MPI task timing breakdown:
Section |  min time  |  avg time  |  max time  |%varavg| %total
---------------------------------------------------------------
Pair    | 50.672     | 50.824     | 50.975     |   2.1 | 55.74
Neigh   | 35.855     | 36.411     | 36.968     |   9.2 | 39.93
Comm    | 2.4073     | 2.8168     | 3.2263     |  24.4 |  3.09
Output  | 8.5831e-05 | 0.00018394 | 0.00028205 |   0.0 |  0.00
Modify  | 0.8941     | 0.89451    | 0.89492    |   0.0 |  0.98
Other   |            | 0.2372     |            |       |  0.26

Nlocal:    9826 ave 9923 max 9729 min
Histogram: 1 0 0 0 0 0 0 0 0 1
Nghost:    14092 ave 14195 max 13989 min
Histogram: 1 0 0 0 0 0 0 0 0 1
Neighs:    723679 ave 731435 max 715923 min
Histogram: 1 0 0 0 0 0 0 0 0 1

Total # of neighbors = 1447358
Ave neighs/atom = 73.6494
Neighbor list builds = 1000
Dangerous builds not checked
Setting up Verlet run ...
  Unit style    : metal
  Current step  : 2000
  Time step     : 0.001
Per MPI rank memory allocation (min/avg/max) = 11.15 | 11.15 | 11.15 Mbytes
Step Temp Press TotEng PotEng Enthalpy 
    2000    300.66972    8.3001057   -65197.691    -65961.42   -65195.953 
   10000    2444.6968   -804.75833   -51671.561   -57881.314    -51901.03 
Loop time of 728.2 on 2 procs for 8000 steps with 19652 atoms

Performance: 0.949 ns/day, 25.285 hours/ns, 10.986 timesteps/s
96.8% CPU use with 2 MPI tasks x no OpenMP threads

MPI task timing breakdown:
Section |  min time  |  avg time  |  max time  |%varavg| %total
---------------------------------------------------------------
Pair    | 394.23     | 397.7      | 401.17     |  17.4 | 54.61
Neigh   | 290.73     | 292.37     | 294.01     |   9.6 | 40.15
Comm    | 26.312     | 28.195     | 30.079     |  35.5 |  3.87
Output  | 0.040047   | 0.040125   | 0.040203   |   0.0 |  0.01
Modify  | 7.9328     | 7.98       | 8.0272     |   1.7 |  1.10
Other   |            | 1.91       |            |       |  0.26

Nlocal:    9826 ave 9846 max 9806 min
Histogram: 1 0 0 0 0 0 0 0 0 1
Nghost:    11309 ave 11337 max 11281 min
Histogram: 1 0 0 0 0 0 0 0 0 1
Neighs:    540198 ave 542220 max 538175 min
Histogram: 1 0 0 0 0 0 0 0 0 1

Total # of neighbors = 1080395
Ave neighs/atom = 54.9763
Neighbor list builds = 8000
Dangerous builds not checked
Setting up Verlet run ...
  Unit style    : metal
  Current step  : 10000
  Time step     : 0.001
Per MPI rank memory allocation (min/avg/max) = 11.2 | 11.2 | 11.2 Mbytes
Step Temp Press TotEng PotEng Enthalpy 
   10000    2444.6968   -804.75833   -51671.561   -57881.314    -51901.03 
   20000    2465.0207    1219.9796   -51636.215   -57897.593   -51289.783 
   30000    2439.6228   -66.419411   -51641.203   -57838.067   -51660.146 
   40000    2440.5739    791.32554   -51660.673   -57859.953   -51435.663 
Loop time of 2744.07 on 2 procs for 30000 steps with 19652 atoms

Performance: 0.945 ns/day, 25.408 hours/ns, 10.933 timesteps/s
95.8% CPU use with 2 MPI tasks x no OpenMP threads

MPI task timing breakdown:
Section |  min time  |  avg time  |  max time  |%varavg| %total
---------------------------------------------------------------
Pair    | 1537.3     | 1539       | 1540.7     |   4.4 | 56.08
Neigh   | 1055.7     | 1056.1     | 1056.4     |   1.1 | 38.49
Comm    | 108.33     | 110.51     | 112.69     |  20.8 |  4.03
Output  | 0.15392    | 0.15409    | 0.15426    |   0.0 |  0.01
Modify  | 30.598     | 30.689     | 30.779     |   1.6 |  1.12
Other   |            | 7.668      |            |       |  0.28

Nlocal:    9826 ave 9871 max 9781 min
Histogram: 1 0 0 0 0 0 0 0 0 1
Nghost:    11306.5 ave 11323 max 11290 min
Histogram: 1 0 0 0 0 0 0 0 0 1
Neighs:    541664 ave 546444 max 536883 min
Histogram: 1 0 0 0 0 0 0 0 0 1

Total # of neighbors = 1083327
Ave neighs/atom = 55.1255
Neighbor list builds = 30000
Dangerous builds not checked
Setting up Verlet run ...
  Unit style    : metal
  Current step  : 40000
  Time step     : 0.001
Per MPI rank memory allocation (min/avg/max) = 11.28 | 11.28 | 11.28 Mbytes
Step Temp Press TotEng PotEng Enthalpy 
   40000    2440.5739    791.32554   -51660.673   -57859.953   -51435.663 
   40495    2419.4941   -944.87983    -51775.78   -57921.516   -52045.022 
Loop time of 42.3846 on 2 procs for 495 steps with 19652 atoms

Performance: 1.009 ns/day, 23.785 hours/ns, 11.679 timesteps/s
95.1% CPU use with 2 MPI tasks x no OpenMP threads

MPI task timing breakdown:
Section |  min time  |  avg time  |  max time  |%varavg| %total
---------------------------------------------------------------
Pair    | 23.577     | 23.639     | 23.702     |   1.3 | 55.77
Neigh   | 16.278     | 16.404     | 16.53      |   3.1 | 38.70
Comm    | 1.7137     | 1.7778     | 1.8418     |   4.8 |  4.19
Output  | 7.7963e-05 | 0.00020289 | 0.00032783 |   0.0 |  0.00
Modify  | 0.43369    | 0.43627    | 0.43885    |   0.4 |  1.03
Other   |            | 0.1267     |            |       |  0.30

Nlocal:    9826 ave 9837 max 9815 min
Histogram: 1 0 0 0 0 0 0 0 0 1
Nghost:    11336.5 ave 11366 max 11307 min
Histogram: 1 0 0 0 0 0 0 0 0 1
Neighs:    540525 ave 541137 max 539913 min
Histogram: 1 0 0 0 0 0 0 0 0 1

Total # of neighbors = 1081050
Ave neighs/atom = 55.0097
Neighbor list builds = 495
Dangerous builds not checked
Setting up Verlet run ...
  Unit style    : metal
  Current step  : 40495
  Time step     : 0.001
Per MPI rank memory allocation (min/avg/max) = 11.28 | 11.28 | 11.28 Mbytes
Step Temp Press TotEng PotEng Enthalpy 
   40495    2419.4941   -944.87983    -51775.78   -57921.516   -52045.022 
   50000    2393.0327    909.60443   -52004.929   -58083.451   -51748.652 
Loop time of 864.676 on 2 procs for 9505 steps with 19652 atoms

Performance: 0.950 ns/day, 25.270 hours/ns, 10.993 timesteps/s
96.0% CPU use with 2 MPI tasks x no OpenMP threads

MPI task timing breakdown:
Section |  min time  |  avg time  |  max time  |%varavg| %total
---------------------------------------------------------------
Pair    | 482.26     | 483.45     | 484.63     |   5.4 | 55.91
Neigh   | 331.78     | 332.98     | 334.19     |   6.6 | 38.51
Comm    | 36.151     | 36.18      | 36.209     |   0.5 |  4.18
Output  | 0.050473   | 0.050501   | 0.05053    |   0.0 |  0.01
Modify  | 9.6196     | 9.6249     | 9.6303     |   0.2 |  1.11
Other   |            | 2.391      |            |       |  0.28

Nlocal:    9826 ave 9910 max 9742 min
Histogram: 1 0 0 0 0 0 0 0 0 1
Nghost:    11364 ave 11366 max 11362 min
Histogram: 1 0 0 0 0 0 0 0 0 1
Neighs:    546572 ave 555609 max 537535 min
Histogram: 1 0 0 0 0 0 0 0 0 1

Total # of neighbors = 1093144
Ave neighs/atom = 55.6251
Neighbor list builds = 9505
Dangerous builds not checked
Setting up Verlet run ...
  Unit style    : metal
  Current step  : 50000
  Time step     : 0.001
Per MPI rank memory allocation (min/avg/max) = 11.3 | 11.3 | 11.3 Mbytes
Step Temp Press TotEng PotEng Enthalpy 
   50000    2393.0327    909.60443   -52004.929   -58083.451   -51748.652 
   50495    2355.5366   -810.84817    -52018.91   -58002.188   -52249.057 
Loop time of 44.2814 on 2 procs for 495 steps with 19652 atoms

Performance: 0.966 ns/day, 24.849 hours/ns, 11.179 timesteps/s
94.6% CPU use with 2 MPI tasks x no OpenMP threads

MPI task timing breakdown:
Section |  min time  |  avg time  |  max time  |%varavg| %total
---------------------------------------------------------------
Pair    | 24.02      | 24.227     | 24.433     |   4.2 | 54.71
Neigh   | 16.597     | 16.768     | 16.94      |   4.2 | 37.87
Comm    | 2.2984     | 2.6841     | 3.0697     |  23.5 |  6.06
Output  | 0.00015998 | 0.00019944 | 0.0002389  |   0.0 |  0.00
Modify  | 0.46885    | 0.47609    | 0.48333    |   1.0 |  1.08
Other   |            | 0.126      |            |       |  0.28

Nlocal:    9826 ave 9839 max 9813 min
Histogram: 1 0 0 0 0 0 0 0 0 1
Nghost:    11303.5 ave 11325 max 11282 min
Histogram: 1 0 0 0 0 0 0 0 0 1
Neighs:    542540 ave 544351 max 540728 min
Histogram: 1 0 0 0 0 0 0 0 0 1

Total # of neighbors = 1085079
Ave neighs/atom = 55.2147
Neighbor list builds = 495
Dangerous builds not checked
Setting up Verlet run ...
  Unit style    : metal
  Current step  : 50495
  Time step     : 0.001
Per MPI rank memory allocation (min/avg/max) = 11.3 | 11.3 | 11.3 Mbytes
Step Temp Press TotEng PotEng Enthalpy 
   50495    2355.5366   -810.84817    -52018.91   -58002.188   -52249.057 
   60000    2340.6681    179.46084   -52133.612   -58079.122   -52082.974 
Loop time of 899.937 on 2 procs for 9505 steps with 19652 atoms

Performance: 0.913 ns/day, 26.300 hours/ns, 10.562 timesteps/s
94.1% CPU use with 2 MPI tasks x no OpenMP threads

MPI task timing breakdown:
Section |  min time  |  avg time  |  max time  |%varavg| %total
---------------------------------------------------------------
Pair    | 502.72     | 505.3      | 507.87     |  11.4 | 56.15
Neigh   | 337.59     | 339.28     | 340.96     |   9.1 | 37.70
Comm    | 42.677     | 43.522     | 44.366     |  12.8 |  4.84
Output  | 0.036817   | 0.036851   | 0.036886   |   0.0 |  0.00
Modify  | 9.2529     | 9.2958     | 9.3387     |   1.4 |  1.03
Other   |            | 2.509      |            |       |  0.28

Nlocal:    9826 ave 9830 max 9822 min
Histogram: 1 0 0 0 0 0 0 0 0 1
Nghost:    11331.5 ave 11344 max 11319 min
Histogram: 1 0 0 0 0 0 0 0 0 1
Neighs:    545722 ave 546446 max 544997 min
Histogram: 1 0 0 0 0 0 0 0 0 1

Total # of neighbors = 1091443
Ave neighs/atom = 55.5385
Neighbor list builds = 9505
Dangerous builds not checked
Setting up Verlet run ...
  Unit style    : metal
  Current step  : 60000
  Time step     : 0.001
Per MPI rank memory allocation (min/avg/max) = 11.31 | 11.31 | 11.31 Mbytes
Step Temp Press TotEng PotEng Enthalpy 
   60000    2340.6681    179.46084   -52133.612   -58079.122   -52082.974 
   60495    2303.7036    673.02261   -52343.464   -58195.081   -52154.588 
Loop time of 45.2829 on 2 procs for 495 steps with 19652 atoms

Performance: 0.944 ns/day, 25.411 hours/ns, 10.931 timesteps/s
99.2% CPU use with 2 MPI tasks x no OpenMP threads

MPI task timing breakdown:
Section |  min time  |  avg time  |  max time  |%varavg| %total
---------------------------------------------------------------
Pair    | 24.919     | 25.457     | 25.995     |  10.7 | 56.22
Neigh   | 16.467     | 17.173     | 17.879     |  17.0 | 37.92
Comm    | 0.79652    | 2.0663     | 3.336      |  88.3 |  4.56
Output  | 9.2983e-05 | 0.00018847 | 0.00028396 |   0.0 |  0.00
Modify  | 0.43464    | 0.45896    | 0.48327    |   3.6 |  1.01
Other   |            | 0.1272     |            |       |  0.28

Nlocal:    9826 ave 9892 max 9760 min
Histogram: 1 0 0 0 0 0 0 0 0 1
Nghost:    11384 ave 11418 max 11350 min
Histogram: 1 0 0 0 0 0 0 0 0 1
Neighs:    548974 ave 553492 max 544456 min
Histogram: 1 0 0 0 0 0 0 0 0 1

Total # of neighbors = 1097948
Ave neighs/atom = 55.8695
Neighbor list builds = 495
Dangerous builds not checked
Setting up Verlet run ...
  Unit style    : metal
  Current step  : 60495
  Time step     : 0.001
Per MPI rank memory allocation (min/avg/max) = 11.31 | 11.31 | 11.31 Mbytes
Step Temp Press TotEng PotEng Enthalpy 
   60495    2303.7036    673.02261   -52343.464   -58195.081   -52154.588 
   70000    2276.1749    173.82359   -52450.893   -58232.584   -52402.176 
Loop time of 913.264 on 2 procs for 9505 steps with 19652 atoms

Performance: 0.899 ns/day, 26.690 hours/ns, 10.408 timesteps/s
93.3% CPU use with 2 MPI tasks x no OpenMP threads

MPI task timing breakdown:
Section |  min time  |  avg time  |  max time  |%varavg| %total
---------------------------------------------------------------
Pair    | 511.83     | 513.91     | 515.99     |   9.2 | 56.27
Neigh   | 342.06     | 342.46     | 342.87     |   2.2 | 37.50
Comm    | 41.061     | 42.825     | 44.589     |  27.0 |  4.69
Output  | 0.03519    | 0.035277   | 0.035363   |   0.0 |  0.00
Modify  | 11.451     | 11.53      | 11.609     |   2.3 |  1.26
Other   |            | 2.499      |            |       |  0.27

Nlocal:    9826 ave 9851 max 9801 min
Histogram: 1 0 0 0 0 0 0 0 0 1
Nghost:    11369.5 ave 11373 max 11366 min
Histogram: 1 0 0 0 0 0 0 0 0 1
Neighs:    549748 ave 551273 max 548223 min
Histogram: 1 0 0 0 0 0 0 0 0 1

Total # of neighbors = 1099496
Ave neighs/atom = 55.9483
Neighbor list builds = 9505
Dangerous builds not checked
Setting up Verlet run ...
  Unit style    : metal
  Current step  : 70000
  Time step     : 0.001
Per MPI rank memory allocation (min/avg/max) = 11.32 | 11.32 | 11.32 Mbytes
Step Temp Press TotEng PotEng Enthalpy 
   70000    2276.1749    173.82359   -52450.893   -58232.584   -52402.176 
   70495    2247.2466   -178.65062   -52593.872   -58302.083   -52643.863 
Loop time of 45.3976 on 2 procs for 495 steps with 19652 atoms

Performance: 0.942 ns/day, 25.476 hours/ns, 10.904 timesteps/s
92.8% CPU use with 2 MPI tasks x no OpenMP threads

MPI task timing breakdown:
Section |  min time  |  avg time  |  max time  |%varavg| %total
---------------------------------------------------------------
Pair    | 24.733     | 24.759     | 24.785     |   0.5 | 54.54
Neigh   | 17.042     | 17.149     | 17.256     |   2.6 | 37.78
Comm    | 2.4843     | 2.6116     | 2.7389     |   7.9 |  5.75
Output  | 9.203e-05  | 0.00011408 | 0.00013614 |   0.0 |  0.00
Modify  | 0.7426     | 0.74833    | 0.75406    |   0.7 |  1.65
Other   |            | 0.1292     |            |       |  0.28

Nlocal:    9826 ave 9854 max 9798 min
Histogram: 1 0 0 0 0 0 0 0 0 1
Nghost:    11363 ave 11389 max 11337 min
Histogram: 1 0 0 0 0 0 0 0 0 1
Neighs:    550500 ave 552528 max 548472 min
Histogram: 1 0 0 0 0 0 0 0 0 1

Total # of neighbors = 1101000
Ave neighs/atom = 56.0248
Neighbor list builds = 495
Dangerous builds not checked
Setting up Verlet run ...
  Unit style    : metal
  Current step  : 70495
  Time step     : 0.001
Per MPI rank memory allocation (min/avg/max) = 11.32 | 11.32 | 11.32 Mbytes
Step Temp Press TotEng PotEng Enthalpy 
   70495    2247.2466   -178.65062   -52593.872   -58302.083   -52643.863 
   80000    2254.3366   -189.75287   -52627.659   -58353.879   -52680.686 
Loop time of 1090.96 on 2 procs for 9505 steps with 19652 atoms

Performance: 0.753 ns/day, 31.883 hours/ns, 8.712 timesteps/s
85.2% CPU use with 2 MPI tasks x no OpenMP threads

MPI task timing breakdown:
Section |  min time  |  avg time  |  max time  |%varavg| %total
---------------------------------------------------------------
Pair    | 595.91     | 600.02     | 604.14     |  16.8 | 55.00
Neigh   | 402.12     | 405.21     | 408.31     |  15.4 | 37.14
Comm    | 62.197     | 69.469     | 76.74      |  87.2 |  6.37
Output  | 0.056491   | 0.05653    | 0.056568   |   0.0 |  0.01
Modify  | 13.432     | 13.449     | 13.466     |   0.5 |  1.23
Other   |            | 2.752      |            |       |  0.25

Nlocal:    9826 ave 9828 max 9824 min
Histogram: 1 0 0 0 0 0 0 0 0 1
Nghost:    11401.5 ave 11435 max 11368 min
Histogram: 1 0 0 0 0 0 0 0 0 1
Neighs:    551117 ave 551498 max 550736 min
Histogram: 1 0 0 0 0 0 0 0 0 1

Total # of neighbors = 1102234
Ave neighs/atom = 56.0876
Neighbor list builds = 9505
Dangerous builds not checked
Setting up Verlet run ...
  Unit style    : metal
  Current step  : 80000
  Time step     : 0.001
Per MPI rank memory allocation (min/avg/max) = 11.33 | 11.33 | 11.33 Mbytes
Step Temp Press TotEng PotEng Enthalpy 
   80000    2254.3366   -189.75287   -52627.659   -58353.879   -52680.686 
   80495    2215.3234   -257.60882   -52889.466   -58516.589   -52960.915 
Loop time of 58.0162 on 2 procs for 495 steps with 19652 atoms

Performance: 0.737 ns/day, 32.557 hours/ns, 8.532 timesteps/s
83.7% CPU use with 2 MPI tasks x no OpenMP threads

MPI task timing breakdown:
Section |  min time  |  avg time  |  max time  |%varavg| %total
---------------------------------------------------------------
Pair    | 31.511     | 31.974     | 32.437     |   8.2 | 55.11
Neigh   | 21.242     | 21.334     | 21.425     |   2.0 | 36.77
Comm    | 3.5344     | 3.9039     | 4.2734     |  18.7 |  6.73
Output  | 8.893e-05  | 0.00012648 | 0.00016403 |   0.0 |  0.00
Modify  | 0.66289    | 0.66767    | 0.67244    |   0.6 |  1.15
Other   |            | 0.1368     |            |       |  0.24

Nlocal:    9826 ave 9855 max 9797 min
Histogram: 1 0 0 0 0 0 0 0 0 1
Nghost:    11401 ave 11454 max 11348 min
Histogram: 1 0 0 0 0 0 0 0 0 1
Neighs:    555589 ave 559342 max 551836 min
Histogram: 1 0 0 0 0 0 0 0 0 1

Total # of neighbors = 1111178
Ave neighs/atom = 56.5427
Neighbor list builds = 495
Dangerous builds not checked
Setting up Verlet run ...
  Unit style    : metal
  Current step  : 80495
  Time step     : 0.001
Per MPI rank memory allocation (min/avg/max) = 11.33 | 11.33 | 11.33 Mbytes
Step Temp Press TotEng PotEng Enthalpy 
   80495    2215.3234   -257.60882   -52889.466   -58516.589   -52960.915 
   90000    2195.5076   -640.59305   -52982.512   -58559.301   -53160.208 
Loop time of 1011.88 on 2 procs for 9505 steps with 19652 atoms

Performance: 0.812 ns/day, 29.572 hours/ns, 9.393 timesteps/s
90.9% CPU use with 2 MPI tasks x no OpenMP threads

MPI task timing breakdown:
Section |  min time  |  avg time  |  max time  |%varavg| %total
---------------------------------------------------------------
Pair    | 554.6      | 559.78     | 564.96     |  21.9 | 55.32
Neigh   | 386.38     | 387.41     | 388.44     |   5.2 | 38.29
Comm    | 45.163     | 51.42      | 57.678     |  87.3 |  5.08
Output  | 0.039544   | 0.039574   | 0.039604   |   0.0 |  0.00
Modify  | 10.591     | 10.629     | 10.666     |   1.2 |  1.05
Other   |            | 2.6        |            |       |  0.26

Nlocal:    9826 ave 9856 max 9796 min
Histogram: 1 0 0 0 0 0 0 0 0 1
Nghost:    11473.5 ave 11521 max 11426 min
Histogram: 1 0 0 0 0 0 0 0 0 1
Neighs:    555438 ave 563599 max 547276 min
Histogram: 1 0 0 0 0 0 0 0 0 1

Total # of neighbors = 1110875
Ave neighs/atom = 56.5273
Neighbor list builds = 9505
Dangerous builds not checked
Setting up Verlet run ...
  Unit style    : metal
  Current step  : 90000
  Time step     : 0.001
Per MPI rank memory allocation (min/avg/max) = 11.33 | 11.33 | 11.33 Mbytes
Step Temp Press TotEng PotEng Enthalpy 
   90000    2195.5076   -640.59305   -52982.512   -58559.301   -53160.208 
   90495    2166.7085   -283.46633   -53192.004   -58695.641   -53270.084 
Loop time of 43.0407 on 2 procs for 495 steps with 19652 atoms

Performance: 0.994 ns/day, 24.153 hours/ns, 11.501 timesteps/s
98.4% CPU use with 2 MPI tasks x no OpenMP threads

MPI task timing breakdown:
Section |  min time  |  avg time  |  max time  |%varavg| %total
---------------------------------------------------------------
Pair    | 23.127     | 23.389     | 23.65      |   5.4 | 54.34
Neigh   | 17.673     | 17.836     | 17.999     |   3.9 | 41.44
Comm    | 0.81219    | 1.2513     | 1.6904     |  39.3 |  2.91
Output  | 0.00011492 | 0.00017595 | 0.00023699 |   0.0 |  0.00
Modify  | 0.42865    | 0.44091    | 0.45316    |   1.8 |  1.02
Other   |            | 0.1237     |            |       |  0.29

Nlocal:    9826 ave 9830 max 9822 min
Histogram: 1 0 0 0 0 0 0 0 0 1
Nghost:    11524 ave 11529 max 11519 min
Histogram: 1 0 0 0 0 0 0 0 0 1
Neighs:    559474 ave 565044 max 553904 min
Histogram: 1 0 0 0 0 0 0 0 0 1

Total # of neighbors = 1118948
Ave neighs/atom = 56.9381
Neighbor list builds = 495
Dangerous builds not checked
Setting up Verlet run ...
  Unit style    : metal
  Current step  : 90495
  Time step     : 0.001
Per MPI rank memory allocation (min/avg/max) = 11.33 | 11.33 | 11.33 Mbytes
Step Temp Press TotEng PotEng Enthalpy 
   90495    2166.7085   -283.46633   -53192.004   -58695.641   -53270.084 
  100000    2146.0069    27.923363   -53211.123   -58662.176   -53203.419 
Loop time of 935.129 on 2 procs for 9505 steps with 19652 atoms

Performance: 0.878 ns/day, 27.329 hours/ns, 10.164 timesteps/s
95.0% CPU use with 2 MPI tasks x no OpenMP threads

MPI task timing breakdown:
Section |  min time  |  avg time  |  max time  |%varavg| %total
---------------------------------------------------------------
Pair    | 502.73     | 506.76     | 510.8      |  17.9 | 54.19
Neigh   | 360.01     | 363.24     | 366.47     |  16.9 | 38.84
Comm    | 45.229     | 52.598     | 59.968     | 101.6 |  5.62
Output  | 0.037535   | 0.037643   | 0.037751   |   0.1 |  0.00
Modify  | 9.9724     | 10.051     | 10.129     |   2.5 |  1.07
Other   |            | 2.438      |            |       |  0.26

Nlocal:    9826 ave 9834 max 9818 min
Histogram: 1 0 0 0 0 0 0 0 0 1
Nghost:    11445 ave 11471 max 11419 min
Histogram: 1 0 0 0 0 0 0 0 0 1
Neighs:    558642 ave 562799 max 554485 min
Histogram: 1 0 0 0 0 0 0 0 0 1

Total # of neighbors = 1117284
Ave neighs/atom = 56.8535
Neighbor list builds = 9505
Dangerous builds not checked
Setting up Verlet run ...
  Unit style    : metal
  Current step  : 100000
  Time step     : 0.001
Per MPI rank memory allocation (min/avg/max) = 11.33 | 11.33 | 11.33 Mbytes
Step Temp Press TotEng PotEng Enthalpy 
  100000    2146.0069    27.923363   -53211.123   -58662.176   -53203.419 
  100495    2103.4726    776.75196   -53455.574   -58798.586   -53242.963 
Loop time of 42.8817 on 2 procs for 495 steps with 19652 atoms

Performance: 0.997 ns/day, 24.064 hours/ns, 11.543 timesteps/s
96.9% CPU use with 2 MPI tasks x no OpenMP threads

MPI task timing breakdown:
Section |  min time  |  avg time  |  max time  |%varavg| %total
---------------------------------------------------------------
Pair    | 22.853     | 22.973     | 23.092     |   2.5 | 53.57
Neigh   | 17.498     | 17.595     | 17.693     |   2.3 | 41.03
Comm    | 1.524      | 1.7522     | 1.9805     |  17.2 |  4.09
Output  | 9.3937e-05 | 0.00012898 | 0.00016403 |   0.0 |  0.00
Modify  | 0.43563    | 0.44168    | 0.44773    |   0.9 |  1.03
Other   |            | 0.1197     |            |       |  0.28

Nlocal:    9826 ave 9864 max 9788 min
Histogram: 1 0 0 0 0 0 0 0 0 1
Nghost:    11418.5 ave 11463 max 11374 min
Histogram: 1 0 0 0 0 0 0 0 0 1
Neighs:    562945 ave 564590 max 561300 min
Histogram: 1 0 0 0 0 0 0 0 0 1

Total # of neighbors = 1125890
Ave neighs/atom = 57.2914
Neighbor list builds = 495
Dangerous builds not checked
Setting up Verlet run ...
  Unit style    : metal
  Current step  : 100495
  Time step     : 0.001
Per MPI rank memory allocation (min/avg/max) = 11.33 | 11.33 | 11.33 Mbytes
Step Temp Press TotEng PotEng Enthalpy 
  100495    2103.4726    776.75196   -53455.574   -58798.586   -53242.963 
  110000    2092.1691   -422.27102   -53539.108   -58853.409   -53654.792 
Loop time of 833.228 on 2 procs for 9505 steps with 19652 atoms

Performance: 0.986 ns/day, 24.351 hours/ns, 11.407 timesteps/s
96.6% CPU use with 2 MPI tasks x no OpenMP threads

MPI task timing breakdown:
Section |  min time  |  avg time  |  max time  |%varavg| %total
---------------------------------------------------------------
Pair    | 446.64     | 451.59     | 456.53     |  23.3 | 54.20
Neigh   | 327.94     | 333.41     | 338.89     |  30.0 | 40.01
Comm    | 36.758     | 37.514     | 38.271     |  12.3 |  4.50
Output  | 0.036733   | 0.036762   | 0.036792   |   0.0 |  0.00
Modify  | 8.3037     | 8.5019     | 8.7001     |   6.8 |  1.02
Other   |            | 2.175      |            |       |  0.26

Nlocal:    9826 ave 9829 max 9823 min
Histogram: 1 0 0 0 0 0 0 0 0 1
Nghost:    11470 ave 11504 max 11436 min
Histogram: 1 0 0 0 0 0 0 0 0 1
Neighs:    562777 ave 569520 max 556034 min
Histogram: 1 0 0 0 0 0 0 0 0 1

Total # of neighbors = 1125554
Ave neighs/atom = 57.2743
Neighbor list builds = 9505
Dangerous builds not checked
Setting up Verlet run ...
  Unit style    : metal
  Current step  : 110000
  Time step     : 0.001
Per MPI rank memory allocation (min/avg/max) = 11.34 | 11.34 | 11.34 Mbytes
Step Temp Press TotEng PotEng Enthalpy 
  110000    2092.1691   -422.27102   -53539.108   -58853.409   -53654.792 
  110495    2055.3454    1028.7567   -53760.261   -58981.026   -53480.682 
Loop time of 41.1718 on 2 procs for 495 steps with 19652 atoms

Performance: 1.039 ns/day, 23.104 hours/ns, 12.023 timesteps/s
98.3% CPU use with 2 MPI tasks x no OpenMP threads

MPI task timing breakdown:
Section |  min time  |  avg time  |  max time  |%varavg| %total
---------------------------------------------------------------
Pair    | 22.21      | 22.307     | 22.404     |   2.1 | 54.18
Neigh   | 16.666     | 16.824     | 16.982     |   3.9 | 40.86
Comm    | 1.1715     | 1.4744     | 1.7772     |  24.9 |  3.58
Output  | 9.5844e-05 | 0.00013483 | 0.00017381 |   0.0 |  0.00
Modify  | 0.40532    | 0.45164    | 0.49796    |   6.9 |  1.10
Other   |            | 0.1143     |            |       |  0.28

Nlocal:    9826 ave 9835 max 9817 min
Histogram: 1 0 0 0 0 0 0 0 0 1
Nghost:    11619.5 ave 11663 max 11576 min
Histogram: 1 0 0 0 0 0 0 0 0 1
Neighs:    566960 ave 572304 max 561617 min
Histogram: 1 0 0 0 0 0 0 0 0 1

Total # of neighbors = 1133921
Ave neighs/atom = 57.7
Neighbor list builds = 495
Dangerous builds not checked
Setting up Verlet run ...
  Unit style    : metal
  Current step  : 110495
  Time step     : 0.001
Per MPI rank memory allocation (min/avg/max) = 11.34 | 11.34 | 11.34 Mbytes
Step Temp Press TotEng PotEng Enthalpy 
  110495    2055.3454    1028.7567   -53760.261   -58981.026   -53480.682 
  120000    2061.1567    119.02208   -53801.384    -59036.91   -53769.041 
Loop time of 797.592 on 2 procs for 9505 steps with 19652 atoms

Performance: 1.030 ns/day, 23.309 hours/ns, 11.917 timesteps/s
98.1% CPU use with 2 MPI tasks x no OpenMP threads

MPI task timing breakdown:
Section |  min time  |  avg time  |  max time  |%varavg| %total
---------------------------------------------------------------
Pair    | 426.83     | 429.49     | 432.15     |  12.8 | 53.85
Neigh   | 316.36     | 319.36     | 322.35     |  16.7 | 40.04
Comm    | 31.933     | 37.652     | 43.371     |  93.2 |  4.72
Output  | 0.027273   | 0.027305   | 0.027338   |   0.0 |  0.00
Modify  | 8.9246     | 8.9819     | 9.0391     |   1.9 |  1.13
Other   |            | 2.086      |            |       |  0.26

Nlocal:    9826 ave 9839 max 9813 min
Histogram: 1 0 0 0 0 0 0 0 0 1
Nghost:    11472.5 ave 11500 max 11445 min
Histogram: 1 0 0 0 0 0 0 0 0 1
Neighs:    567212 ave 571859 max 562566 min
Histogram: 1 0 0 0 0 0 0 0 0 1

Total # of neighbors = 1134425
Ave neighs/atom = 57.7257
Neighbor list builds = 9505
Dangerous builds not checked
Setting up Verlet run ...
  Unit style    : metal
  Current step  : 120000
  Time step     : 0.001
Per MPI rank memory allocation (min/avg/max) = 11.34 | 11.34 | 11.34 Mbytes
Step Temp Press TotEng PotEng Enthalpy 
  120000    2061.1567    119.02208   -53801.384    -59036.91   -53769.041 
  120495    2004.1995   -316.91092   -54026.243   -59117.092   -54112.125 
Loop time of 38.6409 on 2 procs for 495 steps with 19652 atoms

Performance: 1.107 ns/day, 21.684 hours/ns, 12.810 timesteps/s
99.5% CPU use with 2 MPI tasks x no OpenMP threads

MPI task timing breakdown:
Section |  min time  |  avg time  |  max time  |%varavg| %total
---------------------------------------------------------------
Pair    | 20.654     | 20.72      | 20.787     |   1.5 | 53.62
Neigh   | 15.636     | 15.846     | 16.056     |   5.3 | 41.01
Comm    | 1.4276     | 1.5753     | 1.7231     |  11.8 |  4.08
Output  | 9.8944e-05 | 0.000144   | 0.00018907 |   0.0 |  0.00
Modify  | 0.38824    | 0.39021    | 0.39217    |   0.3 |  1.01
Other   |            | 0.1086     |            |       |  0.28

Nlocal:    9826 ave 9831 max 9821 min
Histogram: 1 0 0 0 0 0 0 0 0 1
Nghost:    11486 ave 11492 max 11480 min
Histogram: 1 0 0 0 0 0 0 0 0 1
Neighs:    569000 ave 575118 max 562883 min
Histogram: 1 0 0 0 0 0 0 0 0 1

Total # of neighbors = 1138001
Ave neighs/atom = 57.9076
Neighbor list builds = 495
Dangerous builds not checked
Setting up Verlet run ...
  Unit style    : metal
  Current step  : 120495
  Time step     : 0.001
Per MPI rank memory allocation (min/avg/max) = 11.34 | 11.34 | 11.34 Mbytes
Step Temp Press TotEng PotEng Enthalpy 
  120495    2004.1995   -316.91092   -54026.243   -59117.092   -54112.125 
  130000    2027.4933     614.5425   -54047.983   -59198.001   -53882.106 
Loop time of 829.225 on 2 procs for 9505 steps with 19652 atoms

Performance: 0.990 ns/day, 24.234 hours/ns, 11.463 timesteps/s
97.6% CPU use with 2 MPI tasks x no OpenMP threads

MPI task timing breakdown:
Section |  min time  |  avg time  |  max time  |%varavg| %total
---------------------------------------------------------------
Pair    | 445.36     | 449.56     | 453.75     |  19.8 | 54.21
Neigh   | 334.12     | 334.86     | 335.6      |   4.1 | 40.38
Comm    | 30.596     | 34.331     | 38.067     |  63.8 |  4.14
Output  | 0.036103   | 0.036126   | 0.036149   |   0.0 |  0.00
Modify  | 7.9864     | 8.2777     | 8.569      |  10.1 |  1.00
Other   |            | 2.161      |            |       |  0.26

Nlocal:    9826 ave 9834 max 9818 min
Histogram: 1 0 0 0 0 0 0 0 0 1
Nghost:    11548.5 ave 11556 max 11541 min
Histogram: 1 0 0 0 0 0 0 0 0 1
Neighs:    571234 ave 575909 max 566558 min
Histogram: 1 0 0 0 0 0 0 0 0 1

Total # of neighbors = 1142467
Ave neighs/atom = 58.1349
Neighbor list builds = 9505
Dangerous builds not checked
Setting up Verlet run ...
  Unit style    : metal
  Current step  : 130000
  Time step     : 0.001
Per MPI rank memory allocation (min/avg/max) = 11.34 | 11.35 | 11.35 Mbytes
Step Temp Press TotEng PotEng Enthalpy 
  130000    2027.4933     614.5425   -54047.983   -59198.001   -53882.106 
  130495    1978.6024   -85.555656   -54264.634   -59290.465   -54287.657 
Loop time of 41.7038 on 2 procs for 495 steps with 19652 atoms

Performance: 1.026 ns/day, 23.403 hours/ns, 11.869 timesteps/s
97.6% CPU use with 2 MPI tasks x no OpenMP threads

MPI task timing breakdown:
Section |  min time  |  avg time  |  max time  |%varavg| %total
---------------------------------------------------------------
Pair    | 22.698     | 22.853     | 23.009     |   3.3 | 54.80
Neigh   | 16.379     | 16.52      | 16.662     |   3.5 | 39.61
Comm    | 1.4975     | 1.7981     | 2.0987     |  22.4 |  4.31
Output  | 9.799e-05  | 0.0001415  | 0.00018501 |   0.0 |  0.00
Modify  | 0.41751    | 0.41952    | 0.42154    |   0.3 |  1.01
Other   |            | 0.1123     |            |       |  0.27

Nlocal:    9826 ave 9843 max 9809 min
Histogram: 1 0 0 0 0 0 0 0 0 1
Nghost:    11580.5 ave 11596 max 11565 min
Histogram: 1 0 0 0 0 0 0 0 0 1
Neighs:    572760 ave 579719 max 565802 min
Histogram: 1 0 0 0 0 0 0 0 0 1

Total # of neighbors = 1145521
Ave neighs/atom = 58.2903
Neighbor list builds = 495
Dangerous builds not checked
Setting up Verlet run ...
  Unit style    : metal
  Current step  : 130495
  Time step     : 0.001
Per MPI rank memory allocation (min/avg/max) = 11.34 | 11.35 | 11.35 Mbytes
Step Temp Press TotEng PotEng Enthalpy 
  130495    1978.6024   -85.555656   -54264.634   -59290.465   -54287.657 
  140000    1959.6183   -530.67356   -54324.879   -59302.488   -54467.798 
Loop time of 823.656 on 2 procs for 9505 steps with 19652 atoms

Performance: 0.997 ns/day, 24.071 hours/ns, 11.540 timesteps/s
97.4% CPU use with 2 MPI tasks x no OpenMP threads

MPI task timing breakdown:
Section |  min time  |  avg time  |  max time  |%varavg| %total
---------------------------------------------------------------
Pair    | 445.76     | 448.1      | 450.45     |  11.1 | 54.40
Neigh   | 326.39     | 328.21     | 330.03     |  10.1 | 39.85
Comm    | 33.055     | 37.265     | 41.476     |  69.0 |  4.52
Output  | 0.032369   | 0.032411   | 0.032453   |   0.0 |  0.00
Modify  | 7.8657     | 7.8897     | 7.9136     |   0.9 |  0.96
Other   |            | 2.153      |            |       |  0.26

Nlocal:    9826 ave 9836 max 9816 min
Histogram: 1 0 0 0 0 0 0 0 0 1
Nghost:    11657 ave 11659 max 11655 min
Histogram: 1 0 0 0 0 0 0 0 0 1
Neighs:    572442 ave 576239 max 568644 min
Histogram: 1 0 0 0 0 0 0 0 0 1

Total # of neighbors = 1144883
Ave neighs/atom = 58.2578
Neighbor list builds = 9505
Dangerous builds not checked
Setting up Verlet run ...
  Unit style    : metal
  Current step  : 140000
  Time step     : 0.001
Per MPI rank memory allocation (min/avg/max) = 11.35 | 11.35 | 11.35 Mbytes
Step Temp Press TotEng PotEng Enthalpy 
  140000    1959.6183   -530.67356   -54324.879   -59302.488   -54467.798 
  140495    1908.9313    679.04869    -54574.84     -59423.7   -54393.407 
Loop time of 39.6755 on 2 procs for 495 steps with 19652 atoms

Performance: 1.078 ns/day, 22.265 hours/ns, 12.476 timesteps/s
97.7% CPU use with 2 MPI tasks x no OpenMP threads

MPI task timing breakdown:
Section |  min time  |  avg time  |  max time  |%varavg| %total
---------------------------------------------------------------
Pair    | 21.296     | 21.554     | 21.811     |   5.6 | 54.32
Neigh   | 15.996     | 16.111     | 16.227     |   2.9 | 40.61
Comm    | 1.3588     | 1.5017     | 1.6446     |  11.7 |  3.79
Output  | 8.893e-05  | 0.00012648 | 0.00016403 |   0.0 |  0.00
Modify  | 0.39775    | 0.3985     | 0.39924    |   0.1 |  1.00
Other   |            | 0.1103     |            |       |  0.28

Nlocal:    9826 ave 9832 max 9820 min
Histogram: 1 0 0 0 0 0 0 0 0 1
Nghost:    11632 ave 11675 max 11589 min
Histogram: 1 0 0 0 0 0 0 0 0 1
Neighs:    577276 ave 581899 max 572654 min
Histogram: 1 0 0 0 0 0 0 0 0 1

Total # of neighbors = 1154553
Ave neighs/atom = 58.7499
Neighbor list builds = 495
Dangerous builds not checked
Setting up Verlet run ...
  Unit style    : metal
  Current step  : 140495
  Time step     : 0.001
Per MPI rank memory allocation (min/avg/max) = 11.35 | 11.35 | 11.35 Mbytes
Step Temp Press TotEng PotEng Enthalpy 
  140495    1908.9313    679.04869    -54574.84     -59423.7   -54393.407 
  150000    1908.9914   -350.07326   -54625.519   -59474.532   -54719.054 
Loop time of 848.008 on 2 procs for 9505 steps with 19652 atoms

Performance: 0.968 ns/day, 24.783 hours/ns, 11.209 timesteps/s
96.9% CPU use with 2 MPI tasks x no OpenMP threads

MPI task timing breakdown:
Section |  min time  |  avg time  |  max time  |%varavg| %total
---------------------------------------------------------------
Pair    | 456.12     | 459.13     | 462.13     |  14.0 | 54.14
Neigh   | 335.54     | 336.43     | 337.31     |   4.8 | 39.67
Comm    | 38.189     | 42.137     | 46.084     |  60.8 |  4.97
Output  | 0.035052   | 0.035147   | 0.035242   |   0.1 |  0.00
Modify  | 8.0358     | 8.0909     | 8.1459     |   1.9 |  0.95
Other   |            | 2.19       |            |       |  0.26

Nlocal:    9826 ave 9832 max 9820 min
Histogram: 1 0 0 0 0 0 0 0 0 1
Nghost:    11616 ave 11622 max 11610 min
Histogram: 1 0 0 0 0 0 0 0 0 1
Neighs:    577261 ave 583123 max 571399 min
Histogram: 1 0 0 0 0 0 0 0 0 1

Total # of neighbors = 1154522
Ave neighs/atom = 58.7483
Neighbor list builds = 9505
Dangerous builds not checked
Setting up Verlet run ...
  Unit style    : metal
  Current step  : 150000
  Time step     : 0.001
Per MPI rank memory allocation (min/avg/max) = 11.35 | 11.35 | 11.35 Mbytes
Step Temp Press TotEng PotEng Enthalpy 
  150000    1908.9914   -350.07326   -54625.519   -59474.532   -54719.054 
  150495    1856.6414    953.43426    -54866.08   -59582.118   -54613.104 
Loop time of 41.4282 on 2 procs for 495 steps with 19652 atoms

Performance: 1.032 ns/day, 23.248 hours/ns, 11.948 timesteps/s
99.9% CPU use with 2 MPI tasks x no OpenMP threads

MPI task timing breakdown:
Section |  min time  |  avg time  |  max time  |%varavg| %total
---------------------------------------------------------------
Pair    | 22.413     | 22.552     | 22.691     |   2.9 | 54.44
Neigh   | 17.06      | 17.069     | 17.077     |   0.2 | 41.20
Comm    | 1.1393     | 1.2674     | 1.3955     |  11.4 |  3.06
Output  | 9.2983e-05 | 0.00019908 | 0.00030518 |   0.0 |  0.00
Modify  | 0.42168    | 0.42366    | 0.42564    |   0.3 |  1.02
Other   |            | 0.1164     |            |       |  0.28

Nlocal:    9826 ave 9840 max 9812 min
Histogram: 1 0 0 0 0 0 0 0 0 1
Nghost:    11657 ave 11708 max 11606 min
Histogram: 1 0 0 0 0 0 0 0 0 1
Neighs:    581100 ave 585207 max 576993 min
Histogram: 1 0 0 0 0 0 0 0 0 1

Total # of neighbors = 1162200
Ave neighs/atom = 59.139
Neighbor list builds = 495
Dangerous builds not checked
Setting up Verlet run ...
  Unit style    : metal
  Current step  : 150495
  Time step     : 0.001
Per MPI rank memory allocation (min/avg/max) = 11.35 | 11.35 | 11.35 Mbytes
Step Temp Press TotEng PotEng Enthalpy 
  150495    1856.6414    953.43426    -54866.08   -59582.118   -54613.104 
  160000     1865.511   -4.5432462   -54888.959   -59627.527   -54890.166 
Loop time of 836.636 on 2 procs for 9505 steps with 19652 atoms

Performance: 0.982 ns/day, 24.450 hours/ns, 11.361 timesteps/s
97.4% CPU use with 2 MPI tasks x no OpenMP threads

MPI task timing breakdown:
Section |  min time  |  avg time  |  max time  |%varavg| %total
---------------------------------------------------------------
Pair    | 449.35     | 451.64     | 453.94     |  10.8 | 53.98
Neigh   | 334.18     | 336.28     | 338.39     |  11.5 | 40.19
Comm    | 32.613     | 37.1       | 41.587     |  73.7 |  4.43
Output  | 0.034428   | 0.034452   | 0.034475   |   0.0 |  0.00
Modify  | 9.321      | 9.4205     | 9.52       |   3.2 |  1.13
Other   |            | 2.154      |            |       |  0.26

Nlocal:    9826 ave 9847 max 9805 min
Histogram: 1 0 0 0 0 0 0 0 0 1
Nghost:    11596.5 ave 11621 max 11572 min
Histogram: 1 0 0 0 0 0 0 0 0 1
Neighs:    580750 ave 588535 max 572966 min
Histogram: 1 0 0 0 0 0 0 0 0 1

Total # of neighbors = 1161501
Ave neighs/atom = 59.1035
Neighbor list builds = 9505
Dangerous builds not checked
Setting up Verlet run ...
  Unit style    : metal
  Current step  : 160000
  Time step     : 0.001
Per MPI rank memory allocation (min/avg/max) = 11.35 | 11.35 | 11.35 Mbytes
Step Temp Press TotEng PotEng Enthalpy 
  160000     1865.511   -4.5432462   -54888.959   -59627.527   -54890.166 
  160495    1815.8819     912.0947   -55144.448   -59756.954   -54904.129 
Loop time of 42.0333 on 2 procs for 495 steps with 19652 atoms

Performance: 1.017 ns/day, 23.588 hours/ns, 11.776 timesteps/s
98.4% CPU use with 2 MPI tasks x no OpenMP threads

MPI task timing breakdown:
Section |  min time  |  avg time  |  max time  |%varavg| %total
---------------------------------------------------------------
Pair    | 22.029     | 22.166     | 22.302     |   2.9 | 52.73
Neigh   | 16.679     | 16.951     | 17.224     |   6.6 | 40.33
Comm    | 1.9763     | 2.3835     | 2.7908     |  26.4 |  5.67
Output  | 9.3937e-05 | 0.00013399 | 0.00017405 |   0.0 |  0.00
Modify  | 0.41951    | 0.42272    | 0.42593    |   0.5 |  1.01
Other   |            | 0.1101     |            |       |  0.26

Nlocal:    9826 ave 9848 max 9804 min
Histogram: 1 0 0 0 0 0 0 0 0 1
Nghost:    11678.5 ave 11695 max 11662 min
Histogram: 1 0 0 0 0 0 0 0 0 1
Neighs:    585119 ave 593871 max 576367 min
Histogram: 1 0 0 0 0 0 0 0 0 1

Total # of neighbors = 1170238
Ave neighs/atom = 59.548
Neighbor list builds = 495
Dangerous builds not checked
Setting up Verlet run ...
  Unit style    : metal
  Current step  : 160495
  Time step     : 0.001
Per MPI rank memory allocation (min/avg/max) = 11.35 | 11.35 | 11.35 Mbytes
Step Temp Press TotEng PotEng Enthalpy 
  160495    1815.8819     912.0947   -55144.448   -59756.954   -54904.129 
  170000    1801.3125   -38.354756   -55190.588   -59766.086   -55200.715 
Loop time of 827.627 on 2 procs for 9505 steps with 19652 atoms

Performance: 0.992 ns/day, 24.187 hours/ns, 11.485 timesteps/s
97.5% CPU use with 2 MPI tasks x no OpenMP threads

MPI task timing breakdown:
Section |  min time  |  avg time  |  max time  |%varavg| %total
---------------------------------------------------------------
Pair    | 450.14     | 454.13     | 458.12     |  18.7 | 54.87
Neigh   | 329.22     | 329.83     | 330.44     |   3.4 | 39.85
Comm    | 28.895     | 33.528     | 38.161     |  80.0 |  4.05
Output  | 0.035631   | 0.035707   | 0.035783   |   0.0 |  0.00
Modify  | 7.9238     | 7.9465     | 7.9693     |   0.8 |  0.96
Other   |            | 2.155      |            |       |  0.26

Nlocal:    9826 ave 9864 max 9788 min
Histogram: 1 0 0 0 0 0 0 0 0 1
Nghost:    11677 ave 11714 max 11640 min
Histogram: 1 0 0 0 0 0 0 0 0 1
Neighs:    584164 ave 586608 max 581720 min
Histogram: 1 0 0 0 0 0 0 0 0 1

Total # of neighbors = 1168328
Ave neighs/atom = 59.4508
Neighbor list builds = 9505
Dangerous builds not checked
Setting up Verlet run ...
  Unit style    : metal
  Current step  : 170000
  Time step     : 0.001
Per MPI rank memory allocation (min/avg/max) = 11.35 | 11.35 | 11.35 Mbytes
Step Temp Press TotEng PotEng Enthalpy 
  170000    1801.3125   -38.354756   -55190.588   -59766.086   -55200.715 
  170495     1767.433     460.5221   -55440.777   -59930.218   -55320.095 
Loop time of 43.6507 on 2 procs for 495 steps with 19652 atoms

Performance: 0.980 ns/day, 24.495 hours/ns, 11.340 timesteps/s
97.2% CPU use with 2 MPI tasks x no OpenMP threads

MPI task timing breakdown:
Section |  min time  |  avg time  |  max time  |%varavg| %total
---------------------------------------------------------------
Pair    | 23.465     | 23.657     | 23.849     |   3.9 | 54.20
Neigh   | 17.617     | 17.645     | 17.673     |   0.7 | 40.42
Comm    | 1.6155     | 1.7899     | 1.9642     |  13.0 |  4.10
Output  | 8.297e-05  | 0.00017655 | 0.00027013 |   0.0 |  0.00
Modify  | 0.43446    | 0.4412     | 0.44793    |   1.0 |  1.01
Other   |            | 0.1174     |            |       |  0.27

Nlocal:    9826 ave 9843 max 9809 min
Histogram: 1 0 0 0 0 0 0 0 0 1
Nghost:    11683.5 ave 11728 max 11639 min
Histogram: 1 0 0 0 0 0 0 0 0 1
Neighs:    588526 ave 592610 max 584443 min
Histogram: 1 0 0 0 0 0 0 0 0 1

Total # of neighbors = 1177053
Ave neighs/atom = 59.8948
Neighbor list builds = 495
Dangerous builds not checked
Setting up Verlet run ...
  Unit style    : metal
  Current step  : 170495
  Time step     : 0.001
Per MPI rank memory allocation (min/avg/max) = 11.35 | 11.35 | 11.35 Mbytes
Step Temp Press TotEng PotEng Enthalpy 
  170495     1767.433     460.5221   -55440.777   -59930.218   -55320.095 
  180000    1747.8942    822.21508   -55515.575   -59955.386   -55300.491 
Loop time of 860.265 on 2 procs for 9505 steps with 19652 atoms

Performance: 0.955 ns/day, 25.141 hours/ns, 11.049 timesteps/s
96.3% CPU use with 2 MPI tasks x no OpenMP threads

MPI task timing breakdown:
Section |  min time  |  avg time  |  max time  |%varavg| %total
---------------------------------------------------------------
Pair    | 465.13     | 468.73     | 472.32     |  16.6 | 54.49
Neigh   | 336.99     | 337.34     | 337.69     |   1.9 | 39.21
Comm    | 38.334     | 41.575     | 44.817     |  50.3 |  4.83
Output  | 0.093744   | 0.093776   | 0.093808   |   0.0 |  0.01
Modify  | 10.326     | 10.329     | 10.333     |   0.1 |  1.20
Other   |            | 2.198      |            |       |  0.26

Nlocal:    9826 ave 9831 max 9821 min
Histogram: 1 0 0 0 0 0 0 0 0 1
Nghost:    11688 ave 11690 max 11686 min
Histogram: 1 0 0 0 0 0 0 0 0 1
Neighs:    589838 ave 594968 max 584708 min
Histogram: 1 0 0 0 0 0 0 0 0 1

Total # of neighbors = 1179676
Ave neighs/atom = 60.0283
Neighbor list builds = 9505
Dangerous builds not checked
Setting up Verlet run ...
  Unit style    : metal
  Current step  : 180000
  Time step     : 0.001
Per MPI rank memory allocation (min/avg/max) = 11.35 | 11.35 | 11.35 Mbytes
Step Temp Press TotEng PotEng Enthalpy 
  180000    1747.8942    822.21508   -55515.575   -59955.386   -55300.491 
  180495    1721.7592    498.31118   -55707.986   -60081.411   -55578.263 
Loop time of 45.9457 on 2 procs for 495 steps with 19652 atoms

Performance: 0.931 ns/day, 25.783 hours/ns, 10.774 timesteps/s
93.8% CPU use with 2 MPI tasks x no OpenMP threads

MPI task timing breakdown:
Section |  min time  |  avg time  |  max time  |%varavg| %total
---------------------------------------------------------------
Pair    | 24.924     | 25.123     | 25.322     |   4.0 | 54.68
Neigh   | 17.48      | 17.862     | 18.244     |   9.0 | 38.88
Comm    | 1.7374     | 2.3201     | 2.9028     |  38.3 |  5.05
Output  | 8.4877e-05 | 0.00011539 | 0.00014591 |   0.0 |  0.00
Modify  | 0.51954    | 0.52096    | 0.52238    |   0.2 |  1.13
Other   |            | 0.1198     |            |       |  0.26

Nlocal:    9826 ave 9839 max 9813 min
Histogram: 1 0 0 0 0 0 0 0 0 1
Nghost:    11747 ave 11767 max 11727 min
Histogram: 1 0 0 0 0 0 0 0 0 1
Neighs:    592812 ave 600343 max 585282 min
Histogram: 1 0 0 0 0 0 0 0 0 1

Total # of neighbors = 1185625
Ave neighs/atom = 60.331
Neighbor list builds = 495
Dangerous builds not checked
Setting up Verlet run ...
  Unit style    : metal
  Current step  : 180495
  Time step     : 0.001
Per MPI rank memory allocation (min/avg/max) = 11.35 | 11.35 | 11.35 Mbytes
Step Temp Press TotEng PotEng Enthalpy 
  180495    1721.7592    498.31118   -55707.986   -60081.411   -55578.263 
  190000    1697.7568    299.31987   -55799.051   -60111.508   -55721.204 
Loop time of 941.886 on 2 procs for 9505 steps with 19652 atoms

Performance: 0.872 ns/day, 27.526 hours/ns, 10.091 timesteps/s
93.6% CPU use with 2 MPI tasks x no OpenMP threads

MPI task timing breakdown:
Section |  min time  |  avg time  |  max time  |%varavg| %total
---------------------------------------------------------------
Pair    | 517.41     | 521.03     | 524.64     |  15.8 | 55.32
Neigh   | 361.29     | 364        | 366.72     |  14.2 | 38.65
Comm    | 38.741     | 45.068     | 51.394     |  94.2 |  4.78
Output  | 0.036427   | 0.036447   | 0.036467   |   0.0 |  0.00
Modify  | 9.3975     | 9.3999     | 9.4023     |   0.1 |  1.00
Other   |            | 2.352      |            |       |  0.25

Nlocal:    9826 ave 9828 max 9824 min
Histogram: 1 0 0 0 0 0 0 0 0 1
Nghost:    11716.5 ave 11729 max 11704 min
Histogram: 1 0 0 0 0 0 0 0 0 1
Neighs:    593222 ave 598679 max 587765 min
Histogram: 1 0 0 0 0 0 0 0 0 1

Total # of neighbors = 1186444
Ave neighs/atom = 60.3727
Neighbor list builds = 9505
Dangerous builds not checked
Setting up Verlet run ...
  Unit style    : metal
  Current step  : 190000
  Time step     : 0.001
Per MPI rank memory allocation (min/avg/max) = 11.35 | 11.35 | 11.35 Mbytes
Step Temp Press TotEng PotEng Enthalpy 
  190000    1697.7568    299.31987   -55799.051   -60111.508   -55721.204 
  190495     1664.224    415.25229   -56003.078   -60230.358   -55895.517 
Loop time of 46.5795 on 2 procs for 495 steps with 19652 atoms

Performance: 0.918 ns/day, 26.139 hours/ns, 10.627 timesteps/s
94.6% CPU use with 2 MPI tasks x no OpenMP threads

MPI task timing breakdown:
Section |  min time  |  avg time  |  max time  |%varavg| %total
---------------------------------------------------------------
Pair    | 25.782     | 25.843     | 25.903     |   1.2 | 55.48
Neigh   | 17.429     | 18.223     | 19.018     |  18.6 | 39.12
Comm    | 1.0188     | 1.8902     | 2.7616     |  63.4 |  4.06
Output  | 8.7023e-05 | 0.00020254 | 0.00031805 |   0.0 |  0.00
Modify  | 0.48473    | 0.501      | 0.51728    |   2.3 |  1.08
Other   |            | 0.1223     |            |       |  0.26

Nlocal:    9826 ave 9861 max 9791 min
Histogram: 1 0 0 0 0 0 0 0 0 1
Nghost:    11735 ave 11763 max 11707 min
Histogram: 1 0 0 0 0 0 0 0 0 1
Neighs:    595851 ave 606394 max 585308 min
Histogram: 1 0 0 0 0 0 0 0 0 1

Total # of neighbors = 1191702
Ave neighs/atom = 60.6402
Neighbor list builds = 495
Dangerous builds not checked
Setting up Verlet run ...
  Unit style    : metal
  Current step  : 190495
  Time step     : 0.001
Per MPI rank memory allocation (min/avg/max) = 11.35 | 11.35 | 11.35 Mbytes
Step Temp Press TotEng PotEng Enthalpy 
  190495     1664.224    415.25229   -56003.078   -60230.358   -55895.517 
  200000    1638.4101    127.06474   -56165.307   -60327.018   -56132.506 
Loop time of 964.714 on 2 procs for 9505 steps with 19652 atoms

Performance: 0.851 ns/day, 28.193 hours/ns, 9.853 timesteps/s
93.4% CPU use with 2 MPI tasks x no OpenMP threads

MPI task timing breakdown:
Section |  min time  |  avg time  |  max time  |%varavg| %total
---------------------------------------------------------------
Pair    | 535.93     | 538.02     | 540.12     |   9.0 | 55.77
Neigh   | 363.63     | 368.18     | 372.73     |  23.7 | 38.16
Comm    | 39.269     | 45.993     | 52.717     |  99.2 |  4.77
Output  | 0.036024   | 0.036098   | 0.036172   |   0.0 |  0.00
Modify  | 9.9965     | 10.072     | 10.148     |   2.4 |  1.04
Other   |            | 2.411      |            |       |  0.25

Nlocal:    9826 ave 9848 max 9804 min
Histogram: 1 0 0 0 0 0 0 0 0 1
Nghost:    11821 ave 11836 max 11806 min
Histogram: 1 0 0 0 0 0 0 0 0 1
Neighs:    597871 ave 601037 max 594705 min
Histogram: 1 0 0 0 0 0 0 0 0 1

Total # of neighbors = 1195742
Ave neighs/atom = 60.8458
Neighbor list builds = 9505
Dangerous builds not checked
Setting up Verlet run ...
  Unit style    : metal
  Current step  : 200000
  Time step     : 0.001
Per MPI rank memory allocation (min/avg/max) = 11.35 | 11.35 | 11.35 Mbytes
Step Temp Press TotEng PotEng Enthalpy 
  200000    1638.4101    127.06474   -56165.307   -60327.018   -56132.506 
  200495    1617.2697    246.72208   -56276.189   -60384.201    -56212.65 
Loop time of 47.6975 on 2 procs for 495 steps with 19652 atoms

Performance: 0.897 ns/day, 26.766 hours/ns, 10.378 timesteps/s
90.7% CPU use with 2 MPI tasks x no OpenMP threads

MPI task timing breakdown:
Section |  min time  |  avg time  |  max time  |%varavg| %total
---------------------------------------------------------------
Pair    | 25.241     | 25.63      | 26.02      |   7.7 | 53.74
Neigh   | 18.327     | 18.687     | 19.047     |   8.3 | 39.18
Comm    | 2.7015     | 2.7405     | 2.7794     |   2.4 |  5.75
Output  | 0.000108   | 0.00020146 | 0.00029492 |   0.0 |  0.00
Modify  | 0.51228    | 0.5146     | 0.51692    |   0.3 |  1.08
Other   |            | 0.1246     |            |       |  0.26

Nlocal:    9826 ave 9835 max 9817 min
Histogram: 1 0 0 0 0 0 0 0 0 1
Nghost:    11769 ave 11770 max 11768 min
Histogram: 1 0 0 0 0 0 0 0 0 1
Neighs:    599292 ave 604949 max 593635 min
Histogram: 1 0 0 0 0 0 0 0 0 1

Total # of neighbors = 1198584
Ave neighs/atom = 60.9904
Neighbor list builds = 495
Dangerous builds not checked
Setting up Verlet run ...
  Unit style    : metal
  Current step  : 200495
  Time step     : 0.001
Per MPI rank memory allocation (min/avg/max) = 11.35 | 11.35 | 11.35 Mbytes
Step Temp Press TotEng PotEng Enthalpy 
  200495    1617.2697    246.72208   -56276.189   -60384.201    -56212.65 
  210000    1607.0336    604.52045   -56331.403   -60413.415    -56176.07 
Loop time of 921.386 on 2 procs for 9505 steps with 19652 atoms

Performance: 0.891 ns/day, 26.927 hours/ns, 10.316 timesteps/s
94.2% CPU use with 2 MPI tasks x no OpenMP threads

MPI task timing breakdown:
Section |  min time  |  avg time  |  max time  |%varavg| %total
---------------------------------------------------------------
Pair    | 503.83     | 509.22     | 514.61     |  23.9 | 55.27
Neigh   | 356.04     | 358.06     | 360.08     |  10.7 | 38.86
Comm    | 35.067     | 42.56      | 50.054     | 114.9 |  4.62
Output  | 0.044664   | 0.044744   | 0.044823   |   0.0 |  0.00
Modify  | 9.0959     | 9.1607     | 9.2256     |   2.1 |  0.99
Other   |            | 2.336      |            |       |  0.25

Nlocal:    9826 ave 9828 max 9824 min
Histogram: 1 0 0 0 0 0 0 0 0 1
Nghost:    11796.5 ave 11814 max 11779 min
Histogram: 1 0 0 0 0 0 0 0 0 1
Neighs:    600742 ave 606292 max 595193 min
Histogram: 1 0 0 0 0 0 0 0 0 1

Total # of neighbors = 1201485
Ave neighs/atom = 61.1381
Neighbor list builds = 9505
Dangerous builds not checked
Setting up Verlet run ...
  Unit style    : metal
  Current step  : 210000
  Time step     : 0.001
Per MPI rank memory allocation (min/avg/max) = 11.35 | 11.35 | 11.35 Mbytes
Step Temp Press TotEng PotEng Enthalpy 
  210000    1607.0336    604.52045   -56331.403   -60413.415    -56176.07 
  210495    1572.8778    565.92385   -56565.381   -60560.634   -56420.711 
Loop time of 46.6898 on 2 procs for 495 steps with 19652 atoms

Performance: 0.916 ns/day, 26.201 hours/ns, 10.602 timesteps/s
95.2% CPU use with 2 MPI tasks x no OpenMP threads

MPI task timing breakdown:
Section |  min time  |  avg time  |  max time  |%varavg| %total
---------------------------------------------------------------
Pair    | 25.857     | 25.898     | 25.939     |   0.8 | 55.47
Neigh   | 18.007     | 18.15      | 18.294     |   3.4 | 38.87
Comm    | 1.936      | 2.0489     | 2.1618     |   7.9 |  4.39
Output  | 9.799e-05  | 0.00018346 | 0.00026894 |   0.0 |  0.00
Modify  | 0.45513    | 0.46431    | 0.47348    |   1.3 |  0.99
Other   |            | 0.1282     |            |       |  0.27

Nlocal:    9826 ave 9858 max 9794 min
Histogram: 1 0 0 0 0 0 0 0 0 1
Nghost:    11787 ave 11797 max 11777 min
Histogram: 1 0 0 0 0 0 0 0 0 1
Neighs:    603789 ave 607412 max 600166 min
Histogram: 1 0 0 0 0 0 0 0 0 1

Total # of neighbors = 1207578
Ave neighs/atom = 61.4481
Neighbor list builds = 495
Dangerous builds not checked
Setting up Verlet run ...
  Unit style    : metal
  Current step  : 210495
  Time step     : 0.001
Per MPI rank memory allocation (min/avg/max) = 11.35 | 11.35 | 11.35 Mbytes
Step Temp Press TotEng PotEng Enthalpy 
  210495    1572.8778    565.92385   -56565.381   -60560.634   -56420.711 
  220000    1539.9744   -85.423548   -56775.318   -60686.993   -56797.068 
Loop time of 946.038 on 2 procs for 9505 steps with 19652 atoms

Performance: 0.868 ns/day, 27.647 hours/ns, 10.047 timesteps/s
94.1% CPU use with 2 MPI tasks x no OpenMP threads

MPI task timing breakdown:
Section |  min time  |  avg time  |  max time  |%varavg| %total
---------------------------------------------------------------
Pair    | 521.54     | 524.07     | 526.59     |  11.0 | 55.40
Neigh   | 362.39     | 364.42     | 366.46     |  10.7 | 38.52
Comm    | 41.321     | 45.924     | 50.527     |  67.9 |  4.85
Output  | 0.046878   | 0.046918   | 0.046958   |   0.0 |  0.00
Modify  | 9.1265     | 9.1987     | 9.2708     |   2.4 |  0.97
Other   |            | 2.379      |            |       |  0.25

Nlocal:    9826 ave 9859 max 9793 min
Histogram: 1 0 0 0 0 0 0 0 0 1
Nghost:    11846.5 ave 11860 max 11833 min
Histogram: 1 0 0 0 0 0 0 0 0 1
Neighs:    606207 ave 614758 max 597656 min
Histogram: 1 0 0 0 0 0 0 0 0 1

Total # of neighbors = 1212414
Ave neighs/atom = 61.6942
Neighbor list builds = 9505
Dangerous builds not checked
Setting up Verlet run ...
  Unit style    : metal
  Current step  : 220000
  Time step     : 0.001
Per MPI rank memory allocation (min/avg/max) = 11.35 | 11.35 | 11.35 Mbytes
Step Temp Press TotEng PotEng Enthalpy 
  220000    1539.9744   -85.423548   -56775.318   -60686.993   -56797.068 
  220495    1508.5639   -349.61429   -56865.026   -60696.916   -56953.976 
Loop time of 47.6269 on 2 procs for 495 steps with 19652 atoms

Performance: 0.898 ns/day, 26.727 hours/ns, 10.393 timesteps/s
95.4% CPU use with 2 MPI tasks x no OpenMP threads

MPI task timing breakdown:
Section |  min time  |  avg time  |  max time  |%varavg| %total
---------------------------------------------------------------
Pair    | 26.368     | 26.452     | 26.537     |   1.6 | 55.54
Neigh   | 18.121     | 18.199     | 18.277     |   1.8 | 38.21
Comm    | 2.4043     | 2.4063     | 2.4082     |   0.1 |  5.05
Output  | 0.00010085 | 0.00013793 | 0.000175   |   0.0 |  0.00
Modify  | 0.4431     | 0.44542    | 0.44774    |   0.3 |  0.94
Other   |            | 0.1236     |            |       |  0.26

Nlocal:    9826 ave 9849 max 9803 min
Histogram: 1 0 0 0 0 0 0 0 0 1
Nghost:    11790 ave 11807 max 11773 min
Histogram: 1 0 0 0 0 0 0 0 0 1
Neighs:    606894 ave 615344 max 598443 min
Histogram: 1 0 0 0 0 0 0 0 0 1

Total # of neighbors = 1213787
Ave neighs/atom = 61.764
Neighbor list builds = 495
Dangerous builds not checked
Setting up Verlet run ...
  Unit style    : metal
  Current step  : 220495
  Time step     : 0.001
Per MPI rank memory allocation (min/avg/max) = 11.35 | 11.35 | 11.35 Mbytes
Step Temp Press TotEng PotEng Enthalpy 
  220495    1508.5639   -349.61429   -56865.026   -60696.916   -56953.976 
  230000    1506.8155   -168.65604   -56944.116   -60771.565   -56986.909 
Loop time of 970.565 on 2 procs for 9505 steps with 19652 atoms

Performance: 0.846 ns/day, 28.364 hours/ns, 9.793 timesteps/s
93.4% CPU use with 2 MPI tasks x no OpenMP threads

MPI task timing breakdown:
Section |  min time  |  avg time  |  max time  |%varavg| %total
---------------------------------------------------------------
Pair    | 536.24     | 541.49     | 546.73     |  22.5 | 55.79
Neigh   | 366.54     | 367.7      | 368.85     |   6.0 | 37.88
Comm    | 42.192     | 48.853     | 55.514     |  95.3 |  5.03
Output  | 0.034196   | 0.034219   | 0.034242   |   0.0 |  0.00
Modify  | 9.7918     | 10.061     | 10.331     |   8.5 |  1.04
Other   |            | 2.433      |            |       |  0.25

Nlocal:    9826 ave 9867 max 9785 min
Histogram: 1 0 0 0 0 0 0 0 0 1
Nghost:    11838.5 ave 11875 max 11802 min
Histogram: 1 0 0 0 0 0 0 0 0 1
Neighs:    608522 ave 618500 max 598545 min
Histogram: 1 0 0 0 0 0 0 0 0 1

Total # of neighbors = 1217045
Ave neighs/atom = 61.9298
Neighbor list builds = 9505
Dangerous builds not checked
Setting up Verlet run ...
  Unit style    : metal
  Current step  : 230000
  Time step     : 0.001
Per MPI rank memory allocation (min/avg/max) = 11.35 | 11.35 | 11.35 Mbytes
Step Temp Press TotEng PotEng Enthalpy 
  230000    1506.8155   -168.65604   -56944.116   -60771.565   -56986.909 
  230495     1458.834    337.45496   -57173.563   -60879.134   -57088.391 
Loop time of 50.0266 on 2 procs for 495 steps with 19652 atoms

Performance: 0.855 ns/day, 28.073 hours/ns, 9.895 timesteps/s
92.1% CPU use with 2 MPI tasks x no OpenMP threads

MPI task timing breakdown:
Section |  min time  |  avg time  |  max time  |%varavg| %total
---------------------------------------------------------------
Pair    | 27.595     | 27.795     | 27.996     |   3.8 | 55.56
Neigh   | 18.537     | 18.875     | 19.214     |   7.8 | 37.73
Comm    | 2.169      | 2.7191     | 3.2691     |  33.4 |  5.44
Output  | 8.5831e-05 | 0.00012898 | 0.00017214 |   0.0 |  0.00
Modify  | 0.50014    | 0.50547    | 0.5108     |   0.7 |  1.01
Other   |            | 0.1312     |            |       |  0.26

Nlocal:    9826 ave 9827 max 9825 min
Histogram: 1 0 0 0 0 0 0 0 0 1
Nghost:    11846.5 ave 11866 max 11827 min
Histogram: 1 0 0 0 0 0 0 0 0 1
Neighs:    611628 ave 617466 max 605789 min
Histogram: 1 0 0 0 0 0 0 0 0 1

Total # of neighbors = 1223255
Ave neighs/atom = 62.2458
Neighbor list builds = 495
Dangerous builds not checked
Setting up Verlet run ...
  Unit style    : metal
  Current step  : 230495
  Time step     : 0.001
Per MPI rank memory allocation (min/avg/max) = 11.35 | 11.35 | 11.35 Mbytes
Step Temp Press TotEng PotEng Enthalpy 
  230495     1458.834    337.45496   -57173.563   -60879.134   -57088.391 
  240000    1452.0467      326.792   -57229.953   -60918.284   -57147.576 
Loop time of 979.905 on 2 procs for 9505 steps with 19652 atoms

Performance: 0.838 ns/day, 28.637 hours/ns, 9.700 timesteps/s
92.4% CPU use with 2 MPI tasks x no OpenMP threads

MPI task timing breakdown:
Section |  min time  |  avg time  |  max time  |%varavg| %total
---------------------------------------------------------------
Pair    | 541.46     | 546.51     | 551.57     |  21.6 | 55.77
Neigh   | 366.94     | 370.3      | 373.65     |  17.4 | 37.79
Comm    | 42.448     | 50.884     | 59.321     | 118.3 |  5.19
Output  | 0.077686   | 0.077734   | 0.077783   |   0.0 |  0.01
Modify  | 9.6842     | 9.7385     | 9.7929     |   1.7 |  0.99
Other   |            | 2.393      |            |       |  0.24

Nlocal:    9826 ave 9853 max 9799 min
Histogram: 1 0 0 0 0 0 0 0 0 1
Nghost:    11858 ave 11864 max 11852 min
Histogram: 1 0 0 0 0 0 0 0 0 1
Neighs:    612944 ave 621534 max 604353 min
Histogram: 1 0 0 0 0 0 0 0 0 1

Total # of neighbors = 1225887
Ave neighs/atom = 62.3798
Neighbor list builds = 9505
Dangerous builds not checked
Setting up Verlet run ...
  Unit style    : metal
  Current step  : 240000
  Time step     : 0.001
Per MPI rank memory allocation (min/avg/max) = 11.35 | 11.35 | 11.35 Mbytes
Step Temp Press TotEng PotEng Enthalpy 
  240000    1452.0467      326.792   -57229.953   -60918.284   -57147.576 
  240495    1417.9665    25.902443   -57444.645   -61046.409   -57438.142 
Loop time of 48.3509 on 2 procs for 495 steps with 19652 atoms

Performance: 0.885 ns/day, 27.133 hours/ns, 10.238 timesteps/s
92.0% CPU use with 2 MPI tasks x no OpenMP threads

MPI task timing breakdown:
Section |  min time  |  avg time  |  max time  |%varavg| %total
---------------------------------------------------------------
Pair    | 26.26      | 26.745     | 27.23      |   9.4 | 55.31
Neigh   | 18.179     | 18.705     | 19.231     |  12.2 | 38.69
Comm    | 2.245      | 2.2992     | 2.3533     |   3.6 |  4.76
Output  | 8.2016e-05 | 0.0031465  | 0.006211   |   5.5 |  0.01
Modify  | 0.45195    | 0.46732    | 0.48269    |   2.2 |  0.97
Other   |            | 0.1311     |            |       |  0.27

Nlocal:    9826 ave 9837 max 9815 min
Histogram: 1 0 0 0 0 0 0 0 0 1
Nghost:    11926.5 ave 11929 max 11924 min
Histogram: 1 0 0 0 0 0 0 0 0 1
Neighs:    615232 ave 622498 max 607965 min
Histogram: 1 0 0 0 0 0 0 0 0 1

Total # of neighbors = 1230463
Ave neighs/atom = 62.6126
Neighbor list builds = 495
Dangerous builds not checked
Setting up Verlet run ...
  Unit style    : metal
  Current step  : 240495
  Time step     : 0.001
Per MPI rank memory allocation (min/avg/max) = 11.35 | 11.35 | 11.35 Mbytes
Step Temp Press TotEng PotEng Enthalpy 
  240495    1417.9665    25.902443   -57444.645   -61046.409   -57438.142 
  250000    1406.0765     154.9034   -57554.993   -61126.556    -57516.25 
Loop time of 1008.9 on 2 procs for 9505 steps with 19652 atoms

Performance: 0.814 ns/day, 29.484 hours/ns, 9.421 timesteps/s
91.5% CPU use with 2 MPI tasks x no OpenMP threads

MPI task timing breakdown:
Section |  min time  |  avg time  |  max time  |%varavg| %total
---------------------------------------------------------------
Pair    | 558.22     | 563.16     | 568.11     |  20.8 | 55.82
Neigh   | 369.94     | 373.45     | 376.95     |  18.2 | 37.02
Comm    | 50.272     | 59.258     | 68.243     | 116.7 |  5.87
Output  | 0.036805   | 0.036842   | 0.036878   |   0.0 |  0.00
Modify  | 10.018     | 10.48      | 10.943     |  14.3 |  1.04
Other   |            | 2.515      |            |       |  0.25

Nlocal:    9826 ave 9840 max 9812 min
Histogram: 1 0 0 0 0 0 0 0 0 1
Nghost:    11970.5 ave 11971 max 11970 min
Histogram: 1 0 0 0 0 0 0 0 0 1
Neighs:    617778 ave 625860 max 609695 min
Histogram: 1 0 0 0 0 0 0 0 0 1

Total # of neighbors = 1235555
Ave neighs/atom = 62.8717
Neighbor list builds = 9505
Dangerous builds not checked
Setting up Verlet run ...
  Unit style    : metal
  Current step  : 250000
  Time step     : 0.001
Per MPI rank memory allocation (min/avg/max) = 11.35 | 11.35 | 11.35 Mbytes
Step Temp Press TotEng PotEng Enthalpy 
  250000    1406.0765     154.9034   -57554.993   -61126.556    -57516.25 
  250495    1368.7812    320.63304   -57762.567   -61239.396   -57682.728 
Loop time of 52.555 on 2 procs for 495 steps with 19652 atoms

Performance: 0.814 ns/day, 29.492 hours/ns, 9.419 timesteps/s
88.7% CPU use with 2 MPI tasks x no OpenMP threads

MPI task timing breakdown:
Section |  min time  |  avg time  |  max time  |%varavg| %total
---------------------------------------------------------------
Pair    | 29.145     | 29.379     | 29.614     |   4.3 | 55.90
Neigh   | 18.757     | 19.157     | 19.558     |   9.2 | 36.45
Comm    | 2.6787     | 3.3128     | 3.947      |  34.8 |  6.30
Output  | 0.00011897 | 0.00018501 | 0.00025105 |   0.0 |  0.00
Modify  | 0.56816    | 0.57112    | 0.57407    |   0.4 |  1.09
Other   |            | 0.1341     |            |       |  0.26

Nlocal:    9826 ave 9833 max 9819 min
Histogram: 1 0 0 0 0 0 0 0 0 1
Nghost:    11953 ave 11955 max 11951 min
Histogram: 1 0 0 0 0 0 0 0 0 1
Neighs:    620137 ave 625653 max 614621 min
Histogram: 1 0 0 0 0 0 0 0 0 1

Total # of neighbors = 1240274
Ave neighs/atom = 63.1118
Neighbor list builds = 495
Dangerous builds not checked
Setting up Verlet run ...
  Unit style    : metal
  Current step  : 250495
  Time step     : 0.001
Per MPI rank memory allocation (min/avg/max) = 11.35 | 11.35 | 11.35 Mbytes
Step Temp Press TotEng PotEng Enthalpy 
  250495    1368.7812    320.63304   -57762.567   -61239.396   -57682.728 
  260000    1361.3038    1164.1564   -57844.025    -61301.86   -57555.225 
Loop time of 1120.29 on 2 procs for 9505 steps with 19652 atoms

Performance: 0.733 ns/day, 32.740 hours/ns, 8.484 timesteps/s
85.8% CPU use with 2 MPI tasks x no OpenMP threads

MPI task timing breakdown:
Section |  min time  |  avg time  |  max time  |%varavg| %total
---------------------------------------------------------------
Pair    | 620        | 626.2      | 632.4      |  24.8 | 55.90
Neigh   | 401.99     | 403.53     | 405.07     |   7.7 | 36.02
Comm    | 66.448     | 74.354     | 82.259     |  91.7 |  6.64
Output  | 0.071946   | 0.071981   | 0.072017   |   0.0 |  0.01
Modify  | 13.333     | 13.478     | 13.624     |   4.0 |  1.20
Other   |            | 2.651      |            |       |  0.24

Nlocal:    9826 ave 9843 max 9809 min
Histogram: 1 0 0 0 0 0 0 0 0 1
Nghost:    11937.5 ave 11952 max 11923 min
Histogram: 1 0 0 0 0 0 0 0 0 1
Neighs:    622830 ave 626058 max 619602 min
Histogram: 1 0 0 0 0 0 0 0 0 1

Total # of neighbors = 1245660
Ave neighs/atom = 63.3859
Neighbor list builds = 9505
Dangerous builds not checked
Setting up Verlet run ...
  Unit style    : metal
  Current step  : 260000
  Time step     : 0.001
Per MPI rank memory allocation (min/avg/max) = 11.35 | 11.35 | 11.35 Mbytes
Step Temp Press TotEng PotEng Enthalpy 
  260000    1361.3038    1164.1564   -57844.025    -61301.86   -57555.225 
  260495    1318.6478    976.02533   -58061.711   -61411.196   -57820.543 
Loop time of 66.8757 on 2 procs for 495 steps with 19652 atoms

Performance: 0.640 ns/day, 37.528 hours/ns, 7.402 timesteps/s
77.7% CPU use with 2 MPI tasks x no OpenMP threads

MPI task timing breakdown:
Section |  min time  |  avg time  |  max time  |%varavg| %total
---------------------------------------------------------------
Pair    | 37.044     | 37.28      | 37.515     |   3.9 | 55.74
Neigh   | 22.52      | 22.833     | 23.146     |   6.5 | 34.14
Comm    | 5.8162     | 5.9065     | 5.9967     |   3.7 |  8.83
Output  | 9.3937e-05 | 0.0001359  | 0.00017786 |   0.0 |  0.00
Modify  | 0.69987    | 0.70875    | 0.71763    |   1.1 |  1.06
Other   |            | 0.1477     |            |       |  0.22

Nlocal:    9826 ave 9833 max 9819 min
Histogram: 1 0 0 0 0 0 0 0 0 1
Nghost:    11983.5 ave 12017 max 11950 min
Histogram: 1 0 0 0 0 0 0 0 0 1
Neighs:    625373 ave 630907 max 619839 min
Histogram: 1 0 0 0 0 0 0 0 0 1

Total # of neighbors = 1250746
Ave neighs/atom = 63.6447
Neighbor list builds = 495
Dangerous builds not checked
Setting up Verlet run ...
  Unit style    : metal
  Current step  : 260495
  Time step     : 0.001
Per MPI rank memory allocation (min/avg/max) = 11.35 | 11.35 | 11.35 Mbytes
Step Temp Press TotEng PotEng Enthalpy 
  260495    1318.6478    976.02533   -58061.711   -61411.196   -57820.543 
  270000    1306.0589   -323.48342   -58155.075   -61472.583   -58234.998 
Loop time of 1247.71 on 2 procs for 9505 steps with 19652 atoms

Performance: 0.658 ns/day, 36.464 hours/ns, 7.618 timesteps/s
79.4% CPU use with 2 MPI tasks x no OpenMP threads

MPI task timing breakdown:
Section |  min time  |  avg time  |  max time  |%varavg| %total
---------------------------------------------------------------
Pair    | 683.04     | 688.99     | 694.95     |  22.7 | 55.22
Neigh   | 426.25     | 428.37     | 430.49     |  10.2 | 34.33
Comm    | 101.62     | 109.3      | 116.97     |  73.4 |  8.76
Output  | 0.37363    | 0.38636    | 0.39909    |   2.0 |  0.03
Modify  | 16.311     | 16.697     | 17.082     |   9.4 |  1.34
Other   |            | 3.974      |            |       |  0.32

Nlocal:    9826 ave 9837 max 9815 min
Histogram: 1 0 0 0 0 0 0 0 0 1
Nghost:    11981 ave 11985 max 11977 min
Histogram: 1 0 0 0 0 0 0 0 0 1
Neighs:    625658 ave 632604 max 618711 min
Histogram: 1 0 0 0 0 0 0 0 0 1

Total # of neighbors = 1251315
Ave neighs/atom = 63.6737
Neighbor list builds = 9505
Dangerous builds not checked
Setting up Verlet run ...
  Unit style    : metal
  Current step  : 270000
  Time step     : 0.001
Per MPI rank memory allocation (min/avg/max) = 11.35 | 11.35 | 11.35 Mbytes
Step Temp Press TotEng PotEng Enthalpy 
  270000    1306.0589   -323.48342   -58155.075   -61472.583   -58234.998 
  270495    1258.4923    146.65272   -58368.176   -61564.861   -58332.108 
Loop time of 62.3986 on 2 procs for 495 steps with 19652 atoms

Performance: 0.685 ns/day, 35.016 hours/ns, 7.933 timesteps/s
79.7% CPU use with 2 MPI tasks x no OpenMP threads

MPI task timing breakdown:
Section |  min time  |  avg time  |  max time  |%varavg| %total
---------------------------------------------------------------
Pair    | 32.277     | 32.511     | 32.744     |   4.1 | 52.10
Neigh   | 20.482     | 20.695     | 20.908     |   4.7 | 33.17
Comm    | 7.8305     | 8.2674     | 8.7042     |  15.2 | 13.25
Output  | 0.00011897 | 0.00016499 | 0.000211   |   0.0 |  0.00
Modify  | 0.77238    | 0.78311    | 0.79384    |   1.2 |  1.26
Other   |            | 0.1423     |            |       |  0.23

Nlocal:    9826 ave 9828 max 9824 min
Histogram: 1 0 0 0 0 0 0 0 0 1
Nghost:    11971 ave 11992 max 11950 min
Histogram: 1 0 0 0 0 0 0 0 0 1
Neighs:    628173 ave 635140 max 621206 min
Histogram: 1 0 0 0 0 0 0 0 0 1

Total # of neighbors = 1256346
Ave neighs/atom = 63.9297
Neighbor list builds = 495
Dangerous builds not checked
Setting up Verlet run ...
  Unit style    : metal
  Current step  : 270495
  Time step     : 0.001
Per MPI rank memory allocation (min/avg/max) = 11.35 | 11.35 | 11.35 Mbytes
Step Temp Press TotEng PotEng Enthalpy 
  270495    1258.4923    146.65272   -58368.176   -61564.861   -58332.108 
  280000    1260.3417     395.8281   -58503.517     -61704.9   -58406.714 
Loop time of 1187.47 on 2 procs for 9505 steps with 19652 atoms

Performance: 0.692 ns/day, 34.703 hours/ns, 8.004 timesteps/s
82.6% CPU use with 2 MPI tasks x no OpenMP threads

MPI task timing breakdown:
Section |  min time  |  avg time  |  max time  |%varavg| %total
---------------------------------------------------------------
Pair    | 666.2      | 671.86     | 677.51     |  21.8 | 56.58
Neigh   | 417.12     | 418.15     | 419.18     |   5.0 | 35.21
Comm    | 75.735     | 82.36      | 88.985     |  73.0 |  6.94
Output  | 0.052981   | 0.053012   | 0.053044   |   0.0 |  0.00
Modify  | 12.347     | 12.39      | 12.433     |   1.2 |  1.04
Other   |            | 2.663      |            |       |  0.22

Nlocal:    9826 ave 9832 max 9820 min
Histogram: 1 0 0 0 0 0 0 0 0 1
Nghost:    11967 ave 11997 max 11937 min
Histogram: 1 0 0 0 0 0 0 0 0 1
Neighs:    632164 ave 638706 max 625623 min
Histogram: 1 0 0 0 0 0 0 0 0 1

Total # of neighbors = 1264329
Ave neighs/atom = 64.3359
Neighbor list builds = 9505
Dangerous builds not checked
Setting up Verlet run ...
  Unit style    : metal
  Current step  : 280000
  Time step     : 0.001
Per MPI rank memory allocation (min/avg/max) = 11.35 | 11.35 | 11.35 Mbytes
Step Temp Press TotEng PotEng Enthalpy 
  280000    1260.3417     395.8281   -58503.517     -61704.9   -58406.714 
  280495    1221.7049    811.77977   -58681.825   -61785.067   -58483.974 
Loop time of 57.8072 on 2 procs for 495 steps with 19652 atoms

Performance: 0.740 ns/day, 32.440 hours/ns, 8.563 timesteps/s
87.0% CPU use with 2 MPI tasks x no OpenMP threads

MPI task timing breakdown:
Section |  min time  |  avg time  |  max time  |%varavg| %total
---------------------------------------------------------------
Pair    | 32.482     | 32.659     | 32.836     |   3.1 | 56.50
Neigh   | 20.138     | 20.601     | 21.064     |  10.2 | 35.64
Comm    | 3.5141     | 3.7924     | 4.0706     |  14.3 |  6.56
Output  | 9.3937e-05 | 0.00013995 | 0.00018597 |   0.0 |  0.00
Modify  | 0.60642    | 0.60981    | 0.61321    |   0.4 |  1.05
Other   |            | 0.1451     |            |       |  0.25

Nlocal:    9826 ave 9838 max 9814 min
Histogram: 1 0 0 0 0 0 0 0 0 1
Nghost:    12046 ave 12072 max 12020 min
Histogram: 1 0 0 0 0 0 0 0 0 1
Neighs:    634284 ave 640143 max 628425 min
Histogram: 1 0 0 0 0 0 0 0 0 1

Total # of neighbors = 1268568
Ave neighs/atom = 64.5516
Neighbor list builds = 495
Dangerous builds not checked
Setting up Verlet run ...
  Unit style    : metal
  Current step  : 280495
  Time step     : 0.001
Per MPI rank memory allocation (min/avg/max) = 11.35 | 11.35 | 11.35 Mbytes
Step Temp Press TotEng PotEng Enthalpy 
  280495    1221.7049    811.77977   -58681.825   -61785.067   -58483.974 
  290000    1206.1186    1054.2775   -58777.495   -61841.146   -58521.201 
Loop time of 1199.44 on 2 procs for 9505 steps with 19652 atoms

Performance: 0.685 ns/day, 35.053 hours/ns, 7.925 timesteps/s
82.3% CPU use with 2 MPI tasks x no OpenMP threads

MPI task timing breakdown:
Section |  min time  |  avg time  |  max time  |%varavg| %total
---------------------------------------------------------------
Pair    | 676.42     | 679.24     | 682.07     |  10.8 | 56.63
Neigh   | 420.51     | 423.16     | 425.82     |  12.9 | 35.28
Comm    | 76.347     | 81.906     | 87.466     |  61.4 |  6.83
Output  | 0.073853   | 0.073938   | 0.074023   |   0.0 |  0.01
Modify  | 12.235     | 12.325     | 12.416     |   2.6 |  1.03
Other   |            | 2.722      |            |       |  0.23

Nlocal:    9826 ave 9834 max 9818 min
Histogram: 1 0 0 0 0 0 0 0 0 1
Nghost:    12061.5 ave 12083 max 12040 min
Histogram: 1 0 0 0 0 0 0 0 0 1
Neighs:    635992 ave 642804 max 629180 min
Histogram: 1 0 0 0 0 0 0 0 0 1

Total # of neighbors = 1271984
Ave neighs/atom = 64.7254
Neighbor list builds = 9505
Dangerous builds not checked
Setting up Verlet run ...
  Unit style    : metal
  Current step  : 290000
  Time step     : 0.001
Per MPI rank memory allocation (min/avg/max) = 11.35 | 11.35 | 11.35 Mbytes
Step Temp Press TotEng PotEng Enthalpy 
  290000    1206.1186    1054.2775   -58777.495   -61841.146   -58521.201 
  290495    1174.9079    624.57223   -58973.686   -61958.059   -58822.419 
Loop time of 53.6742 on 2 procs for 495 steps with 19652 atoms

Performance: 0.797 ns/day, 30.120 hours/ns, 9.222 timesteps/s
91.2% CPU use with 2 MPI tasks x no OpenMP threads

MPI task timing breakdown:
Section |  min time  |  avg time  |  max time  |%varavg| %total
---------------------------------------------------------------
Pair    | 29.571     | 30.261     | 30.951     |  12.5 | 56.38
Neigh   | 19.732     | 19.795     | 19.857     |   1.4 | 36.88
Comm    | 2.2195     | 2.9601     | 3.7007     |  43.0 |  5.51
Output  | 9.3937e-05 | 0.00018847 | 0.000283   |   0.0 |  0.00
Modify  | 0.51698    | 0.52179    | 0.52659    |   0.7 |  0.97
Other   |            | 0.1366     |            |       |  0.25

Nlocal:    9826 ave 9829 max 9823 min
Histogram: 1 0 0 0 0 0 0 0 0 1
Nghost:    12098 ave 12100 max 12096 min
Histogram: 1 0 0 0 0 0 0 0 0 1
Neighs:    638260 ave 643568 max 632952 min
Histogram: 1 0 0 0 0 0 0 0 0 1

Total # of neighbors = 1276520
Ave neighs/atom = 64.9562
Neighbor list builds = 495
Dangerous builds not checked
Setting up Verlet run ...
  Unit style    : metal
  Current step  : 290495
  Time step     : 0.001
Per MPI rank memory allocation (min/avg/max) = 11.35 | 11.35 | 11.35 Mbytes
Step Temp Press TotEng PotEng Enthalpy 
  290495    1174.9079    624.57223   -58973.686   -61958.059   -58822.419 
  300000    1149.1376   -613.28288   -59116.353   -62035.267   -59264.776 
Loop time of 1125.86 on 2 procs for 9505 steps with 19652 atoms

Performance: 0.729 ns/day, 32.903 hours/ns, 8.442 timesteps/s
86.0% CPU use with 2 MPI tasks x no OpenMP threads

MPI task timing breakdown:
Section |  min time  |  avg time  |  max time  |%varavg| %total
---------------------------------------------------------------
Pair    | 631.24     | 636.56     | 641.88     |  21.1 | 56.54
Neigh   | 404.53     | 404.69     | 404.85     |   0.8 | 35.94
Comm    | 63.979     | 69.14      | 74.301     |  62.1 |  6.14
Output  | 0.076604   | 0.076639   | 0.076674   |   0.0 |  0.01
Modify  | 12.751     | 12.765     | 12.779     |   0.4 |  1.13
Other   |            | 2.634      |            |       |  0.23

Nlocal:    9826 ave 9834 max 9818 min
Histogram: 1 0 0 0 0 0 0 0 0 1
Nghost:    12110.5 ave 12128 max 12093 min
Histogram: 1 0 0 0 0 0 0 0 0 1
Neighs:    639028 ave 646013 max 632042 min
Histogram: 1 0 0 0 0 0 0 0 0 1

Total # of neighbors = 1278055
Ave neighs/atom = 65.0343
Neighbor list builds = 9505
Dangerous builds not checked
Setting up Verlet run ...
  Unit style    : metal
  Current step  : 300000
  Time step     : 0.001
Per MPI rank memory allocation (min/avg/max) = 11.35 | 11.35 | 11.35 Mbytes
Step Temp Press TotEng PotEng Enthalpy 
[...]
Histogram: 1 0 0 0 0 0 0 0 0 1
Neighs:    707818 ave 708172 max 707463 min
Histogram: 1 0 0 0 0 0 0 0 0 1

Total # of neighbors = 1415635
Ave neighs/atom = 72.0352
Neighbor list builds = 9505
Dangerous builds not checked
Setting up Verlet run ...
  Unit style    : metal
  Current step  : 440000
  Time step     : 0.001
Per MPI rank memory allocation (min/avg/max) = 11.35 | 11.35 | 11.35 Mbytes
Step Temp Press TotEng PotEng Enthalpy 
  440000    447.81934   -974.62353   -63815.308    -64952.81   -64028.438 
  440495    424.19533   -734.44855   -63971.909   -65049.403   -64131.975 
Loop time of 47.7654 on 2 procs for 495 steps with 19652 atoms

Performance: 0.895 ns/day, 26.804 hours/ns, 10.363 timesteps/s
95.9% CPU use with 2 MPI tasks x no OpenMP threads

MPI task timing breakdown:
Section |  min time  |  avg time  |  max time  |%varavg| %total
---------------------------------------------------------------
Pair    | 25.859     | 26.005     | 26.15      |   2.9 | 54.44
Neigh   | 18.391     | 18.76      | 19.129     |   8.5 | 39.28
Comm    | 2.1521     | 2.3876     | 2.6231     |  15.2 |  5.00
Output  | 0.00010896 | 0.00021195 | 0.00031495 |   0.0 |  0.00
Modify  | 0.48097    | 0.49251    | 0.50405    |   1.6 |  1.03
Other   |            | 0.1205     |            |       |  0.25

Nlocal:    9826 ave 9837 max 9815 min
Histogram: 1 0 0 0 0 0 0 0 0 1
Nghost:    12647.5 ave 12658 max 12637 min
Histogram: 1 0 0 0 0 0 0 0 0 1
Neighs:    710308 ave 710691 max 709926 min
Histogram: 1 0 0 0 0 0 0 0 0 1

Total # of neighbors = 1420617
Ave neighs/atom = 72.2887
Neighbor list builds = 495
Dangerous builds not checked
Setting up Verlet run ...
  Unit style    : metal
  Current step  : 440495
  Time step     : 0.001
Per MPI rank memory allocation (min/avg/max) = 11.35 | 11.35 | 11.35 Mbytes
Step Temp Press TotEng PotEng Enthalpy 
  440495    424.19533   -734.44855   -63971.909   -65049.403   -64131.975 
  450000     401.2979   -721.14522   -64148.149   -65167.482   -64304.694 
Loop time of 903.036 on 2 procs for 9505 steps with 19652 atoms

Performance: 0.909 ns/day, 26.391 hours/ns, 10.526 timesteps/s
97.2% CPU use with 2 MPI tasks x no OpenMP threads

MPI task timing breakdown:
Section |  min time  |  avg time  |  max time  |%varavg| %total
---------------------------------------------------------------
Pair    | 495.39     | 496.85     | 498.32     |   6.6 | 55.02
Neigh   | 357.17     | 358.46     | 359.76     |   6.8 | 39.70
Comm    | 33.873     | 36.813     | 39.753     |  48.5 |  4.08
Output  | 0.034596   | 0.034646   | 0.034695   |   0.0 |  0.00
Modify  | 8.3701     | 8.5567     | 8.7433     |   6.4 |  0.95
Other   |            | 2.314      |            |       |  0.26

Nlocal:    9826 ave 9826 max 9826 min
Histogram: 2 0 0 0 0 0 0 0 0 0
Nghost:    12661 ave 12665 max 12657 min
Histogram: 1 0 0 0 0 0 0 0 0 1
Neighs:    712954 ave 713807 max 712102 min
Histogram: 1 0 0 0 0 0 0 0 0 1

Total # of neighbors = 1425909
Ave neighs/atom = 72.558
Neighbor list builds = 9505
Dangerous builds not checked
Setting up Verlet run ...
  Unit style    : metal
  Current step  : 450000
  Time step     : 0.001
Per MPI rank memory allocation (min/avg/max) = 11.35 | 11.35 | 11.35 Mbytes
Step Temp Press TotEng PotEng Enthalpy 
  450000     401.2979   -721.14522   -64148.149   -65167.482   -64304.694 
  450495    372.85175   -704.38768   -64298.794   -65245.871   -64451.332 
Loop time of 43.7386 on 2 procs for 495 steps with 19652 atoms

Performance: 0.978 ns/day, 24.545 hours/ns, 11.317 timesteps/s
98.6% CPU use with 2 MPI tasks x no OpenMP threads

MPI task timing breakdown:
Section |  min time  |  avg time  |  max time  |%varavg| %total
---------------------------------------------------------------
Pair    | 23.957     | 24.016     | 24.075     |   1.2 | 54.91
Neigh   | 18.035     | 18.084     | 18.133     |   1.1 | 41.35
Comm    | 1.0903     | 1.1043     | 1.1183     |   1.3 |  2.52
Output  | 9.6083e-05 | 0.00013304 | 0.00016999 |   0.0 |  0.00
Modify  | 0.41617    | 0.41875    | 0.42133    |   0.4 |  0.96
Other   |            | 0.1155     |            |       |  0.26

Nlocal:    9826 ave 9837 max 9815 min
Histogram: 1 0 0 0 0 0 0 0 0 1
Nghost:    12692.5 ave 12707 max 12678 min
Histogram: 1 0 0 0 0 0 0 0 0 1
Neighs:    714622 ave 716301 max 712942 min
Histogram: 1 0 0 0 0 0 0 0 0 1

Total # of neighbors = 1429243
Ave neighs/atom = 72.7276
Neighbor list builds = 495
Dangerous builds not checked
Setting up Verlet run ...
  Unit style    : metal
  Current step  : 450495
  Time step     : 0.001
Per MPI rank memory allocation (min/avg/max) = 11.35 | 11.35 | 11.35 Mbytes
Step Temp Press TotEng PotEng Enthalpy 
  450495    372.85175   -704.38768   -64298.794   -65245.871   -64451.332 
  460000    350.09559   -6.9581172   -64460.813   -65350.088   -64462.313 
Loop time of 886.281 on 2 procs for 9505 steps with 19652 atoms

Performance: 0.927 ns/day, 25.901 hours/ns, 10.725 timesteps/s
97.9% CPU use with 2 MPI tasks x no OpenMP threads

MPI task timing breakdown:
Section |  min time  |  avg time  |  max time  |%varavg| %total
---------------------------------------------------------------
Pair    | 484.94     | 487.41     | 489.88     |  11.2 | 54.99
Neigh   | 356.3      | 357        | 357.7      |   3.7 | 40.28
Comm    | 29.219     | 30.99      | 32.762     |  31.8 |  3.50
Output  | 0.038651   | 0.038672   | 0.038693   |   0.0 |  0.00
Modify  | 8.5235     | 8.5269     | 8.5304     |   0.1 |  0.96
Other   |            | 2.317      |            |       |  0.26

Nlocal:    9826 ave 9837 max 9815 min
Histogram: 1 0 0 0 0 0 0 0 0 1
Nghost:    12717 ave 12740 max 12694 min
Histogram: 1 0 0 0 0 0 0 0 0 1
Neighs:    717334 ave 717652 max 717017 min
Histogram: 1 0 0 0 0 0 0 0 0 1

Total # of neighbors = 1434669
Ave neighs/atom = 73.0037
Neighbor list builds = 9505
Dangerous builds not checked
Setting up Verlet run ...
  Unit style    : metal
  Current step  : 460000
  Time step     : 0.001
Per MPI rank memory allocation (min/avg/max) = 11.35 | 11.35 | 11.35 Mbytes
Step Temp Press TotEng PotEng Enthalpy 
  460000    350.09559   -6.9581172   -64460.813   -65350.088   -64462.313 
  460495     322.2942    149.97519   -64602.406   -65421.062   -64570.146 
Loop time of 46.0182 on 2 procs for 495 steps with 19652 atoms

Performance: 0.929 ns/day, 25.824 hours/ns, 10.757 timesteps/s
98.0% CPU use with 2 MPI tasks x no OpenMP threads

MPI task timing breakdown:
Section |  min time  |  avg time  |  max time  |%varavg| %total
---------------------------------------------------------------
Pair    | 25.251     | 25.549     | 25.848     |   5.9 | 55.52
Neigh   | 18.097     | 18.447     | 18.798     |   8.2 | 40.09
Comm    | 1.397      | 1.4561     | 1.5153     |   4.9 |  3.16
Output  | 9.0837e-05 | 0.00020039 | 0.00030994 |   0.0 |  0.00
Modify  | 0.43842    | 0.44372    | 0.44901    |   0.8 |  0.96
Other   |            | 0.1215     |            |       |  0.26

Nlocal:    9826 ave 9836 max 9816 min
Histogram: 1 0 0 0 0 0 0 0 0 1
Nghost:    12721.5 ave 12741 max 12702 min
Histogram: 1 0 0 0 0 0 0 0 0 1
Neighs:    719064 ave 719818 max 718311 min
Histogram: 1 0 0 0 0 0 0 0 0 1

Total # of neighbors = 1438129
Ave neighs/atom = 73.1798
Neighbor list builds = 495
Dangerous builds not checked
Setting up Verlet run ...
  Unit style    : metal
  Current step  : 460495
  Time step     : 0.001
Per MPI rank memory allocation (min/avg/max) = 11.35 | 11.35 | 11.35 Mbytes
Step Temp Press TotEng PotEng Enthalpy 
  460495     322.2942    149.97519   -64602.406   -65421.062   -64570.146 
  470000    299.21747   -206.50704   -64754.612   -65514.652    -64798.93 
Loop time of 901.849 on 2 procs for 9505 steps with 19652 atoms

Performance: 0.911 ns/day, 26.356 hours/ns, 10.539 timesteps/s
97.6% CPU use with 2 MPI tasks x no OpenMP threads

MPI task timing breakdown:
Section |  min time  |  avg time  |  max time  |%varavg| %total
---------------------------------------------------------------
Pair    | 499.73     | 499.76     | 499.79     |   0.1 | 55.41
Neigh   | 357.1      | 357.69     | 358.29     |   3.1 | 39.66
Comm    | 32.679     | 33.297     | 33.915     |  10.7 |  3.69
Output  | 0.035991   | 0.03601    | 0.036029   |   0.0 |  0.00
Modify  | 8.7035     | 8.7049     | 8.7063     |   0.0 |  0.97
Other   |            | 2.358      |            |       |  0.26

Nlocal:    9826 ave 9833 max 9819 min
Histogram: 1 0 0 0 0 0 0 0 0 1
Nghost:    12763.5 ave 12766 max 12761 min
Histogram: 1 0 0 0 0 0 0 0 0 1
Neighs:    720431 ave 721753 max 719109 min
Histogram: 1 0 0 0 0 0 0 0 0 1

Total # of neighbors = 1440862
Ave neighs/atom = 73.3188
Neighbor list builds = 9505
Dangerous builds not checked
Setting up Verlet run ...
  Unit style    : metal
  Current step  : 470000
  Time step     : 0.001
Per MPI rank memory allocation (min/avg/max) = 11.35 | 11.35 | 11.35 Mbytes
Step Temp Press TotEng PotEng Enthalpy 
  470000    299.21747   -206.50704   -64754.612   -65514.652    -64798.93 
  470495    274.34181   -217.09166   -64895.873   -65592.726   -64942.351 
Loop time of 48.9845 on 2 procs for 495 steps with 19652 atoms

Performance: 0.873 ns/day, 27.488 hours/ns, 10.105 timesteps/s
94.1% CPU use with 2 MPI tasks x no OpenMP threads

MPI task timing breakdown:
Section |  min time  |  avg time  |  max time  |%varavg| %total
---------------------------------------------------------------
Pair    | 26.446     | 26.755     | 27.063     |   6.0 | 54.62
Neigh   | 18.826     | 18.998     | 19.17      |   3.9 | 38.78
Comm    | 2.4743     | 2.6106     | 2.7469     |   8.4 |  5.33
Output  | 0.00010014 | 0.00015759 | 0.00021505 |   0.0 |  0.00
Modify  | 0.49133    | 0.49332    | 0.49532    |   0.3 |  1.01
Other   |            | 0.1271     |            |       |  0.26

Nlocal:    9826 ave 9828 max 9824 min
Histogram: 1 0 0 0 0 0 0 0 0 1
Nghost:    12770 ave 12786 max 12754 min
Histogram: 1 0 0 0 0 0 0 0 0 1
Neighs:    722291 ave 722539 max 722043 min
Histogram: 1 0 0 0 0 0 0 0 0 1

Total # of neighbors = 1444582
Ave neighs/atom = 73.5081
Neighbor list builds = 495
Dangerous builds not checked
Setting up Verlet run ...
  Unit style    : metal
  Current step  : 470495
  Time step     : 0.001
Per MPI rank memory allocation (min/avg/max) = 11.35 | 11.35 | 11.35 Mbytes
Step Temp Press TotEng PotEng Enthalpy 
  470495    274.34181   -217.09166   -64895.873   -65592.726   -64942.351 
  480000    250.25296    351.67309   -65045.276   -65680.941   -64970.245 
Loop time of 889.144 on 2 procs for 9505 steps with 19652 atoms

Performance: 0.924 ns/day, 25.985 hours/ns, 10.690 timesteps/s
98.1% CPU use with 2 MPI tasks x no OpenMP threads

MPI task timing breakdown:
Section |  min time  |  avg time  |  max time  |%varavg| %total
---------------------------------------------------------------
Pair    | 490.49     | 491.49     | 492.49     |   4.5 | 55.28
Neigh   | 354.29     | 355.02     | 355.75     |   3.9 | 39.93
Comm    | 31.085     | 31.345     | 31.605     |   4.6 |  3.53
Output  | 0.036802   | 0.036884   | 0.036966   |   0.0 |  0.00
Modify  | 8.84       | 8.8555     | 8.8711     |   0.5 |  1.00
Other   |            | 2.396      |            |       |  0.27

Nlocal:    9826 ave 9828 max 9824 min
Histogram: 1 0 0 0 0 0 0 0 0 1
Nghost:    12749.5 ave 12759 max 12740 min
Histogram: 1 0 0 0 0 0 0 0 0 1
Neighs:    724496 ave 725577 max 723416 min
Histogram: 1 0 0 0 0 0 0 0 0 1

Total # of neighbors = 1448993
Ave neighs/atom = 73.7326
Neighbor list builds = 9505
Dangerous builds not checked
Setting up Verlet run ...
  Unit style    : metal
  Current step  : 480000
  Time step     : 0.001
Per MPI rank memory allocation (min/avg/max) = 11.35 | 11.35 | 11.35 Mbytes
Step Temp Press TotEng PotEng Enthalpy 
  480000    250.25296    351.67309   -65045.276   -65680.941   -64970.245 
  480495    223.24141   -313.40304   -65175.676   -65742.729    -65242.48 
Loop time of 44.2694 on 2 procs for 495 steps with 19652 atoms

Performance: 0.966 ns/day, 24.843 hours/ns, 11.182 timesteps/s
97.3% CPU use with 2 MPI tasks x no OpenMP threads

MPI task timing breakdown:
Section |  min time  |  avg time  |  max time  |%varavg| %total
---------------------------------------------------------------
Pair    | 24.284     | 24.343     | 24.403     |   1.2 | 54.99
Neigh   | 17.732     | 17.802     | 17.872     |   1.6 | 40.21
Comm    | 1.4409     | 1.5796     | 1.7183     |  11.0 |  3.57
Output  | 9.203e-05  | 0.00017512 | 0.00025821 |   0.0 |  0.00
Modify  | 0.41633    | 0.42425    | 0.43217    |   1.2 |  0.96
Other   |            | 0.1199     |            |       |  0.27

Nlocal:    9826 ave 9837 max 9815 min
Histogram: 1 0 0 0 0 0 0 0 0 1
Nghost:    12768 ave 12780 max 12756 min
Histogram: 1 0 0 0 0 0 0 0 0 1
Neighs:    725220 ave 727009 max 723431 min
Histogram: 1 0 0 0 0 0 0 0 0 1

Total # of neighbors = 1450440
Ave neighs/atom = 73.8062
Neighbor list builds = 495
Dangerous builds not checked
Setting up Verlet run ...
  Unit style    : metal
  Current step  : 480495
  Time step     : 0.001
Per MPI rank memory allocation (min/avg/max) = 11.35 | 11.35 | 11.35 Mbytes
Step Temp Press TotEng PotEng Enthalpy 
  480495    223.24141   -313.40304   -65175.676   -65742.729    -65242.48 
  490000    198.35236   -88.178654   -65320.491   -65824.324   -65339.236 
Loop time of 881.176 on 2 procs for 9505 steps with 19652 atoms

Performance: 0.932 ns/day, 25.752 hours/ns, 10.787 timesteps/s
98.5% CPU use with 2 MPI tasks x no OpenMP threads

MPI task timing breakdown:
Section |  min time  |  avg time  |  max time  |%varavg| %total
---------------------------------------------------------------
Pair    | 481.61     | 483.9      | 486.2      |  10.4 | 54.92
Neigh   | 349.28     | 349.76     | 350.24     |   2.6 | 39.69
Comm    | 34.724     | 36.517     | 38.31      |  29.7 |  4.14
Output  | 0.038434   | 0.038522   | 0.038609   |   0.0 |  0.00
Modify  | 8.5545     | 8.5772     | 8.5998     |   0.8 |  0.97
Other   |            | 2.381      |            |       |  0.27

Nlocal:    9826 ave 9827 max 9825 min
Histogram: 1 0 0 0 0 0 0 0 0 1
Nghost:    12776 ave 12791 max 12761 min
Histogram: 1 0 0 0 0 0 0 0 0 1
Neighs:    727088 ave 727605 max 726572 min
Histogram: 1 0 0 0 0 0 0 0 0 1

Total # of neighbors = 1454177
Ave neighs/atom = 73.9964
Neighbor list builds = 9505
Dangerous builds not checked
Setting up Verlet run ...
  Unit style    : metal
  Current step  : 490000
  Time step     : 0.001
Per MPI rank memory allocation (min/avg/max) = 11.35 | 11.35 | 11.35 Mbytes
Step Temp Press TotEng PotEng Enthalpy 
  490000    198.35236   -88.178654   -65320.491   -65824.324   -65339.236 
  490495    176.41891    60.269229   -65446.274   -65894.394   -65433.493 
Loop time of 46.1216 on 2 procs for 495 steps with 19652 atoms

Performance: 0.927 ns/day, 25.882 hours/ns, 10.733 timesteps/s
98.2% CPU use with 2 MPI tasks x no OpenMP threads

MPI task timing breakdown:
Section |  min time  |  avg time  |  max time  |%varavg| %total
---------------------------------------------------------------
Pair    | 25.046     | 25.585     | 26.123     |  10.6 | 55.47
Neigh   | 17.851     | 17.981     | 18.111     |   3.1 | 38.99
Comm    | 1.3131     | 1.9887     | 2.6643     |  47.9 |  4.31
Output  | 0.00026417 | 0.00031006 | 0.00035596 |   0.0 |  0.00
Modify  | 0.4365     | 0.44234    | 0.44818    |   0.9 |  0.96
Other   |            | 0.1245     |            |       |  0.27

Nlocal:    9826 ave 9829 max 9823 min
Histogram: 1 0 0 0 0 0 0 0 0 1
Nghost:    12800 ave 12806 max 12794 min
Histogram: 1 0 0 0 0 0 0 0 0 1
Neighs:    728628 ave 729998 max 727257 min
Histogram: 1 0 0 0 0 0 0 0 0 1

Total # of neighbors = 1457255
Ave neighs/atom = 74.153
Neighbor list builds = 495
Dangerous builds not checked
Setting up Verlet run ...
  Unit style    : metal
  Current step  : 490495
  Time step     : 0.001
Per MPI rank memory allocation (min/avg/max) = 11.35 | 11.35 | 11.35 Mbytes
Step Temp Press TotEng PotEng Enthalpy 
  490495    176.41891    60.269229   -65446.274   -65894.394   -65433.493 
  500000    149.96787   -484.58871   -65591.452   -65972.384   -65694.071 
Loop time of 877.803 on 2 procs for 9505 steps with 19652 atoms

Performance: 0.936 ns/day, 25.653 hours/ns, 10.828 timesteps/s
98.6% CPU use with 2 MPI tasks x no OpenMP threads

MPI task timing breakdown:
Section |  min time  |  avg time  |  max time  |%varavg| %total
---------------------------------------------------------------
Pair    | 482.42     | 482.61     | 482.81     |   0.9 | 54.98
Neigh   | 345.59     | 346.74     | 347.88     |   6.1 | 39.50
Comm    | 36.202     | 37.305     | 38.408     |  18.1 |  4.25
Output  | 0.036651   | 0.036682   | 0.036714   |   0.0 |  0.00
Modify  | 8.5655     | 8.7134     | 8.8613     |   5.0 |  0.99
Other   |            | 2.399      |            |       |  0.27

Nlocal:    9826 ave 9833 max 9819 min
Histogram: 1 0 0 0 0 0 0 0 0 1
Nghost:    12829 ave 12863 max 12795 min
Histogram: 1 0 0 0 0 0 0 0 0 1
Neighs:    729694 ave 730694 max 728694 min
Histogram: 1 0 0 0 0 0 0 0 0 1

Total # of neighbors = 1459388
Ave neighs/atom = 74.2616
Neighbor list builds = 9505
Dangerous builds not checked
Setting up Verlet run ...
  Unit style    : metal
  Current step  : 500000
  Time step     : 0.001
Per MPI rank memory allocation (min/avg/max) = 11.35 | 11.35 | 11.35 Mbytes
Step Temp Press TotEng PotEng Enthalpy 
  500000    149.96787   -484.58871   -65591.452   -65972.384   -65694.071 
  500495    126.15426     369.8781   -65707.861   -66028.304   -65629.751 
Loop time of 47.7221 on 2 procs for 495 steps with 19652 atoms

Performance: 0.896 ns/day, 26.780 hours/ns, 10.373 timesteps/s
94.2% CPU use with 2 MPI tasks x no OpenMP threads

MPI task timing breakdown:
Section |  min time  |  avg time  |  max time  |%varavg| %total
---------------------------------------------------------------
Pair    | 26.477     | 26.609     | 26.741     |   2.6 | 55.76
Neigh   | 17.878     | 17.949     | 18.019     |   1.7 | 37.61
Comm    | 2.3964     | 2.5969     | 2.7974     |  12.4 |  5.44
Output  | 8.4877e-05 | 0.00012541 | 0.00016594 |   0.0 |  0.00
Modify  | 0.43894    | 0.44096    | 0.44298    |   0.3 |  0.92
Other   |            | 0.1265     |            |       |  0.27

Nlocal:    9826 ave 9831 max 9821 min
Histogram: 1 0 0 0 0 0 0 0 0 1
Nghost:    12828.5 ave 12842 max 12815 min
Histogram: 1 0 0 0 0 0 0 0 0 1
Neighs:    731494 ave 732849 max 730139 min
Histogram: 1 0 0 0 0 0 0 0 0 1

Total # of neighbors = 1462988
Ave neighs/atom = 74.4447
Neighbor list builds = 495
Dangerous builds not checked
Setting up Verlet run ...
  Unit style    : metal
  Current step  : 500495
  Time step     : 0.001
Per MPI rank memory allocation (min/avg/max) = 11.35 | 11.35 | 11.35 Mbytes
Step Temp Press TotEng PotEng Enthalpy 
  500495    126.15426     369.8781   -65707.861   -66028.304   -65629.751 
  510000    100.12808   -114.22308    -65852.36   -66106.695   -65876.443 
Loop time of 874.566 on 2 procs for 9505 steps with 19652 atoms

Performance: 0.939 ns/day, 25.559 hours/ns, 10.868 timesteps/s
98.3% CPU use with 2 MPI tasks x no OpenMP threads

MPI task timing breakdown:
Section |  min time  |  avg time  |  max time  |%varavg| %total
---------------------------------------------------------------
Pair    | 478.19     | 480.05     | 481.91     |   8.5 | 54.89
Neigh   | 345.68     | 346.41     | 347.14     |   3.9 | 39.61
Comm    | 34.42      | 37.059     | 39.698     |  43.4 |  4.24
Output  | 0.037345   | 0.037396   | 0.037447   |   0.0 |  0.00
Modify  | 8.5395     | 8.5848     | 8.6301     |   1.5 |  0.98
Other   |            | 2.427      |            |       |  0.28

Nlocal:    9826 ave 9833 max 9819 min
Histogram: 1 0 0 0 0 0 0 0 0 1
Nghost:    12818.5 ave 12845 max 12792 min
Histogram: 1 0 0 0 0 0 0 0 0 1
Neighs:    732340 ave 733639 max 731040 min
Histogram: 1 0 0 0 0 0 0 0 0 1

Total # of neighbors = 1464679
Ave neighs/atom = 74.5308
Neighbor list builds = 9505
Dangerous builds not checked
Total wall time: 14:06:00
