LAMMPS (12 Dec 2018)
Lattice spacing in x,y,z = 4 4 4
Created orthogonal box = (0 0 0) to (68 68 68)
  1 by 2 by 3 MPI processor grid
Created 19652 atoms
  Time spent = 0.000895023 secs
Setting atom values ...
  19480 settings made for type/fraction
Neighbor list info ...
  update every 1 steps, delay 0 steps, check no
  max neighbors/atom: 2000, page size: 100000
  master list distance cutoff = 8.5
  ghost atom cutoff = 8.5
  binsize = 4.25, bins = 16 16 16
  1 neighbor lists, perpetual/occasional/extra = 1 0 0
  (1) pair eam/alloy, perpetual
      attributes: half, newton on
      pair build: half/bin/atomonly/newton
      stencil: half/bin/3d/newton
      bin: standard
Setting up Verlet run ...
  Unit style    : metal
  Current step  : 0
  Time step     : 0.001
Per MPI rank memory allocation (min/avg/max) = 5.546 | 5.705 | 5.983 Mbytes
Step Temp Press TotEng PotEng Enthalpy 
       0          300   -64736.735   -76552.874   -77314.901   -89257.654 
    1000    2068.4182    115534.27   -76554.033   -81808.004   -53880.082 
Loop time of 39.1859 on 6 procs for 1000 steps with 19652 atoms

Performance: 2.205 ns/day, 10.885 hours/ns, 25.519 timesteps/s
98.9% CPU use with 6 MPI tasks x no OpenMP threads

MPI task timing breakdown:
Section |  min time  |  avg time  |  max time  |%varavg| %total
---------------------------------------------------------------
Pair    | 21.754     | 21.918     | 22.069     |   2.5 | 55.93
Neigh   | 12.159     | 13.084     | 14.312     |  18.7 | 33.39
Comm    | 2.7955     | 4.0269     | 4.8164     |  31.6 | 10.28
Output  | 8.0824e-05 | 0.00010077 | 0.00012016 |   0.0 |  0.00
Modify  | 0.069772   | 0.077388   | 0.084234   |   1.7 |  0.20
Other   |            | 0.07914    |            |       |  0.20

Nlocal:    3275.33 ave 3287 max 3259 min
Histogram: 1 0 0 1 0 1 0 2 0 1
Nghost:    7476.5 ave 7489 max 7463 min
Histogram: 1 0 1 0 1 0 1 0 1 1
Neighs:    261492 ave 264782 max 256309 min
Histogram: 1 0 0 0 1 0 2 0 0 2

Total # of neighbors = 1568955
Ave neighs/atom = 79.8369
Neighbor list builds = 1000
Dangerous builds not checked
Setting up Verlet run ...
  Unit style    : metal
  Current step  : 1000
  Time step     : 0.001
Per MPI rank memory allocation (min/avg/max) = 5.559 | 5.842 | 5.987 Mbytes
Step Temp Press TotEng PotEng Enthalpy 
    1000    2068.4182    115534.27   -76554.033   -81808.004   -53880.082 
    2000    338.69796    19.666746   -86692.397    -87552.72   -86687.934 
Loop time of 33.0545 on 6 procs for 1000 steps with 19652 atoms

Performance: 2.614 ns/day, 9.182 hours/ns, 30.253 timesteps/s
99.5% CPU use with 6 MPI tasks x no OpenMP threads

MPI task timing breakdown:
Section |  min time  |  avg time  |  max time  |%varavg| %total
---------------------------------------------------------------
Pair    | 17.69      | 18.039     | 18.354     |   6.1 | 54.57
Neigh   | 10.099     | 11.096     | 12.023     |  18.1 | 33.57
Comm    | 2.9084     | 3.5036     | 4.2961     |  24.4 | 10.60
Output  | 4.5061e-05 | 6.0836e-05 | 9.203e-05  |   0.0 |  0.00
Modify  | 0.33027    | 0.34061    | 0.35798    |   1.7 |  1.03
Other   |            | 0.0758     |            |       |  0.23

Nlocal:    3275.33 ave 3290 max 3260 min
Histogram: 1 0 1 0 1 1 0 0 1 1
Nghost:    6993.17 ave 7033 max 6976 min
Histogram: 2 1 1 0 1 0 0 0 0 1
Neighs:    226430 ave 228530 max 223294 min
Histogram: 1 0 1 0 0 0 1 0 1 2

Total # of neighbors = 1358583
Ave neighs/atom = 69.132
Neighbor list builds = 1000
Dangerous builds not checked
Setting up Verlet run ...
  Unit style    : metal
  Current step  : 2000
  Time step     : 0.001
Per MPI rank memory allocation (min/avg/max) = 5.559 | 5.842 | 5.987 Mbytes
Step Temp Press TotEng PotEng Enthalpy 
    2000    338.69796    19.666746   -86692.397    -87552.72   -86687.934 
   10000    2437.0812     848.3003   -75381.272    -81571.68   -75174.611 
Loop time of 248.337 on 6 procs for 8000 steps with 19652 atoms

Performance: 2.783 ns/day, 8.623 hours/ns, 32.214 timesteps/s
99.8% CPU use with 6 MPI tasks x no OpenMP threads

MPI task timing breakdown:
Section |  min time  |  avg time  |  max time  |%varavg| %total
---------------------------------------------------------------
Pair    | 133.44     | 135.45     | 137.06     |   9.2 | 54.54
Neigh   | 80.233     | 83.675     | 86.081     |  20.6 | 33.69
Comm    | 24.26      | 26.122     | 28.086     |  24.1 | 10.52
Output  | 5.8889e-05 | 6.7353e-05 | 9.7036e-05 |   0.0 |  0.00
Modify  | 2.3468     | 2.4895     | 2.5449     |   4.4 |  1.00
Other   |            | 0.5982     |            |       |  0.24

Nlocal:    3275.33 ave 3294 max 3256 min
Histogram: 1 1 0 0 1 0 1 0 0 2
Nghost:    6769.67 ave 6782 max 6758 min
Histogram: 1 0 1 1 1 0 0 0 1 1
Neighs:    210747 ave 214631 max 207487 min
Histogram: 1 1 0 1 0 1 1 0 0 1

Total # of neighbors = 1264483
Ave neighs/atom = 64.3437
Neighbor list builds = 8000
Dangerous builds not checked
Setting up Verlet run ...
  Unit style    : metal
  Current step  : 10000
  Time step     : 0.001
Per MPI rank memory allocation (min/avg/max) = 5.561 | 5.843 | 5.988 Mbytes
Step Temp Press TotEng PotEng Enthalpy 
   10000    2437.0812     848.3003   -75381.272    -81571.68   -75174.611 
   40000    2445.1122    858.01885   -75424.768   -81635.576   -75215.674 
Loop time of 1000.74 on 6 procs for 30000 steps with 19652 atoms

Performance: 2.590 ns/day, 9.266 hours/ns, 29.978 timesteps/s
97.6% CPU use with 6 MPI tasks x no OpenMP threads

MPI task timing breakdown:
Section |  min time  |  avg time  |  max time  |%varavg| %total
---------------------------------------------------------------
Pair    | 528.95     | 536.16     | 545.21     |  20.6 | 53.58
Neigh   | 289.24     | 298.43     | 321.97     |  66.8 | 29.82
Comm    | 108.45     | 140.81     | 156.1      | 131.5 | 14.07
Output  | 5.1022e-05 | 5.9485e-05 | 8.6069e-05 |   0.0 |  0.00
Modify  | 22.431     | 23.068     | 23.806     |  11.4 |  2.31
Other   |            | 2.273      |            |       |  0.23

Nlocal:    3275.33 ave 3293 max 3250 min
Histogram: 1 0 1 0 0 1 0 1 0 2
Nghost:    6757 ave 6802 max 6728 min
Histogram: 1 1 1 1 0 1 0 0 0 1
Neighs:    210780 ave 215064 max 207622 min
Histogram: 1 1 1 1 0 0 0 1 0 1

Total # of neighbors = 1264680
Ave neighs/atom = 64.3538
Neighbor list builds = 30000
Dangerous builds not checked
Setting up Verlet run ...
  Unit style    : metal
  Current step  : 40000
  Time step     : 0.001
Per MPI rank memory allocation (min/avg/max) = 5.561 | 5.843 | 5.988 Mbytes
Step Temp Press TotEng PotEng Enthalpy 
   40000    2445.1122    858.01885   -75424.768   -81635.576   -75215.674 
   40495    2425.8625   -759.65461   -75512.152   -81674.064   -75697.717 
Loop time of 14.8443 on 6 procs for 495 steps with 19652 atoms

Performance: 2.881 ns/day, 8.330 hours/ns, 33.346 timesteps/s
99.6% CPU use with 6 MPI tasks x no OpenMP threads

MPI task timing breakdown:
Section |  min time  |  avg time  |  max time  |%varavg| %total
---------------------------------------------------------------
Pair    | 7.847      | 8.1635     | 8.433      |   6.4 | 54.99
Neigh   | 4.4188     | 5.0813     | 5.4069     |  14.1 | 34.23
Comm    | 0.80803    | 1.4019     | 2.0222     |  30.2 |  9.44
Output  | 5.8889e-05 | 7.0175e-05 | 0.00010896 |   0.0 |  0.00
Modify  | 0.14747    | 0.15059    | 0.15888    |   1.0 |  1.01
Other   |            | 0.04696    |            |       |  0.32

Nlocal:    3275.33 ave 3290 max 3242 min
Histogram: 1 0 0 0 1 0 0 0 2 2
Nghost:    6752.5 ave 6790 max 6725 min
Histogram: 1 2 0 0 0 1 0 1 0 1
Neighs:    210179 ave 215247 max 204123 min
Histogram: 1 0 0 0 2 1 0 0 1 1

Total # of neighbors = 1261073
Ave neighs/atom = 64.1702
Neighbor list builds = 495
Dangerous builds not checked
Setting up Verlet run ...
  Unit style    : metal
  Current step  : 40495
  Time step     : 0.001
Per MPI rank memory allocation (min/avg/max) = 5.561 | 5.843 | 5.988 Mbytes
Step Temp Press TotEng PotEng Enthalpy 
   40495    2425.8625   -759.65461   -75512.152   -81674.064   -75697.717 
   66667    2389.2332    691.00319   -75602.346   -81671.216   -75434.141 
  106667    2402.0339    745.24461   -75577.744   -81679.129   -75396.056 
Loop time of 1987.28 on 6 procs for 66172 steps with 19652 atoms

Performance: 2.877 ns/day, 8.342 hours/ns, 33.298 timesteps/s
99.6% CPU use with 6 MPI tasks x no OpenMP threads

MPI task timing breakdown:
Section |  min time  |  avg time  |  max time  |%varavg| %total
---------------------------------------------------------------
Pair    | 1082.1     | 1093.4     | 1103       |  19.9 | 55.02
Neigh   | 635.21     | 654.12     | 685.33     |  76.1 | 32.92
Comm    | 172.04     | 212.05     | 240.68     | 162.5 | 10.67
Output  | 0.048108   | 0.04812    | 0.048159   |   0.0 |  0.00
Modify  | 20.997     | 22.027     | 22.706     |  11.9 |  1.11
Other   |            | 5.602      |            |       |  0.28

Nlocal:    3275.33 ave 3296 max 3250 min
Histogram: 1 0 1 0 0 2 0 0 1 1
Nghost:    6759.67 ave 6795 max 6727 min
Histogram: 1 1 0 1 0 0 1 1 0 1
Neighs:    210610 ave 212217 max 208545 min
Histogram: 1 1 0 0 1 0 0 1 0 2

Total # of neighbors = 1263659
Ave neighs/atom = 64.3018
Neighbor list builds = 66172
Dangerous builds not checked
Setting up Verlet run ...
  Unit style    : metal
  Current step  : 106667
  Time step     : 0.001
Per MPI rank memory allocation (min/avg/max) = 5.58 | 5.862 | 6.005 Mbytes
Step Temp Press TotEng PotEng Enthalpy 
  106667    2402.0339    745.24461   -75577.744   -81679.129   -75396.056 
  107162    2349.6668    156.75081   -75745.351   -81713.719   -75707.157 
Loop time of 14.5026 on 6 procs for 495 steps with 19652 atoms

Performance: 2.949 ns/day, 8.138 hours/ns, 34.132 timesteps/s
98.5% CPU use with 6 MPI tasks x no OpenMP threads

MPI task timing breakdown:
Section |  min time  |  avg time  |  max time  |%varavg| %total
---------------------------------------------------------------
Pair    | 7.5492     | 7.6784     | 7.8529     |   3.9 | 52.94
Neigh   | 4.4938     | 5.0022     | 5.4432     |  14.8 | 34.49
Comm    | 0.77066    | 1.1993     | 1.7593     |  30.3 |  8.27
Output  | 5.6982e-05 | 0.071569   | 0.42912    |  59.8 |  0.49
Modify  | 0.14445    | 0.15082    | 0.15668    |   1.0 |  1.04
Other   |            | 0.4003     |            |       |  2.76

Nlocal:    3275.33 ave 3291 max 3255 min
Histogram: 1 1 0 1 0 0 0 0 0 3
Nghost:    6758.67 ave 6776 max 6740 min
Histogram: 1 0 1 0 1 1 0 0 1 1
Neighs:    210769 ave 215311 max 208822 min
Histogram: 2 2 0 0 0 1 0 0 0 1

Total # of neighbors = 1264615
Ave neighs/atom = 64.3504
Neighbor list builds = 495
Dangerous builds not checked
Setting up Verlet run ...
  Unit style    : metal
  Current step  : 107162
  Time step     : 0.001
Per MPI rank memory allocation (min/avg/max) = 5.58 | 5.862 | 6.005 Mbytes
Step Temp Press TotEng PotEng Enthalpy 
  107162    2349.6668    156.75081   -75745.351   -81713.719   -75707.157 
  133334    2350.7364     62.56433   -75756.285    -81727.37   -75741.058 
  173334    2335.6221    712.40811    -75783.56   -81716.252   -75610.292 
Loop time of 1998.07 on 6 procs for 66172 steps with 19652 atoms

Performance: 2.861 ns/day, 8.388 hours/ns, 33.118 timesteps/s
99.8% CPU use with 6 MPI tasks x no OpenMP threads

MPI task timing breakdown:
Section |  min time  |  avg time  |  max time  |%varavg| %total
---------------------------------------------------------------
Pair    | 1090.4     | 1100.9     | 1107.4     |  18.9 | 55.10
Neigh   | 620.97     | 663.49     | 702.45     | 119.8 | 33.21
Comm    | 165.25     | 208.89     | 248.42     | 221.6 | 10.45
Output  | 0.034126   | 0.034144   | 0.034203   |   0.0 |  0.00
Modify  | 18.723     | 19.521     | 20.018     |  11.2 |  0.98
Other   |            | 5.221      |            |       |  0.26

Nlocal:    3275.33 ave 3316 max 3247 min
Histogram: 1 1 1 0 1 1 0 0 0 1
Nghost:    6765.5 ave 6808 max 6732 min
Histogram: 2 0 1 1 0 0 0 0 0 2
Neighs:    211129 ave 217289 max 208571 min
Histogram: 2 1 1 1 0 0 0 0 0 1

Total # of neighbors = 1266775
Ave neighs/atom = 64.4604
Neighbor list builds = 66172
Dangerous builds not checked
Setting up Verlet run ...
  Unit style    : metal
  Current step  : 173334
  Time step     : 0.001
Per MPI rank memory allocation (min/avg/max) = 5.58 | 5.862 | 6.005 Mbytes
Step Temp Press TotEng PotEng Enthalpy 
  173334    2335.6221    712.40811    -75783.56   -81716.252   -75610.292 
  173829    2300.3741    564.56533   -75986.646   -81829.806   -75849.618 
Loop time of 11.7805 on 6 procs for 495 steps with 19652 atoms

Performance: 3.630 ns/day, 6.611 hours/ns, 42.019 timesteps/s
100.0% CPU use with 6 MPI tasks x no OpenMP threads

MPI task timing breakdown:
Section |  min time  |  avg time  |  max time  |%varavg| %total
---------------------------------------------------------------
Pair    | 6.289      | 6.3635     | 6.536      |   3.2 | 54.02
Neigh   | 4.1114     | 4.3078     | 4.6561     |   8.8 | 36.57
Comm    | 0.60302    | 0.954      | 1.1736     |  20.5 |  8.10
Output  | 4.0054e-05 | 5.0068e-05 | 9.203e-05  |   0.0 |  0.00
Modify  | 0.11519    | 0.12051    | 0.12566    |   1.1 |  1.02
Other   |            | 0.03457    |            |       |  0.29

Nlocal:    3275.33 ave 3286 max 3251 min
Histogram: 1 0 0 0 0 1 1 0 0 3
Nghost:    6770.67 ave 6791 max 6753 min
Histogram: 2 0 0 1 1 0 0 0 1 1
Neighs:    211621 ave 216288 max 206003 min
Histogram: 1 0 0 0 1 1 2 0 0 1

Total # of neighbors = 1269726
Ave neighs/atom = 64.6105
Neighbor list builds = 495
Dangerous builds not checked
Setting up Verlet run ...
  Unit style    : metal
  Current step  : 173829
  Time step     : 0.001
Per MPI rank memory allocation (min/avg/max) = 5.58 | 5.862 | 6.005 Mbytes
Step Temp Press TotEng PotEng Enthalpy 
  173829    2300.3741    564.56533   -75986.646   -81829.806   -75849.618 
  200001     2285.567    1270.8701   -76116.219   -81921.767   -75808.985 
  240001    2282.3729   -45.219923   -76020.235    -81817.67   -76031.207 
Loop time of 1743.13 on 6 procs for 66172 steps with 19652 atoms

Performance: 3.280 ns/day, 7.317 hours/ns, 37.962 timesteps/s
99.4% CPU use with 6 MPI tasks x no OpenMP threads

MPI task timing breakdown:
Section |  min time  |  avg time  |  max time  |%varavg| %total
---------------------------------------------------------------
Pair    | 942.1      | 950.66     | 961.83     |  24.1 | 54.54
Neigh   | 591.1      | 610.69     | 628.38     |  47.2 | 35.03
Comm    | 134.5      | 159.35     | 176.35     | 106.7 |  9.14
Output  | 0.034435   | 0.034446   | 0.034498   |   0.0 |  0.00
Modify  | 17.79      | 17.911     | 18.085     |   2.6 |  1.03
Other   |            | 4.482      |            |       |  0.26

Nlocal:    3275.33 ave 3298 max 3258 min
Histogram: 1 0 2 0 0 2 0 0 0 1
Nghost:    6792.83 ave 6809 max 6776 min
Histogram: 1 1 0 0 0 2 0 1 0 1
Neighs:    211618 ave 213565 max 208785 min
Histogram: 2 0 0 0 0 0 0 1 1 2

Total # of neighbors = 1269709
Ave neighs/atom = 64.6097
Neighbor list builds = 66172
Dangerous builds not checked
Setting up Verlet run ...
  Unit style    : metal
  Current step  : 240001
  Time step     : 0.001
Per MPI rank memory allocation (min/avg/max) = 5.58 | 5.863 | 6.005 Mbytes
Step Temp Press TotEng PotEng Enthalpy 
  240001    2282.3729   -45.219923   -76020.235    -81817.67   -76031.207 
  240496      2260.97    162.15243   -76153.872   -81896.942   -76114.567 
Loop time of 12.6891 on 6 procs for 495 steps with 19652 atoms

Performance: 3.370 ns/day, 7.121 hours/ns, 39.010 timesteps/s
99.8% CPU use with 6 MPI tasks x no OpenMP threads

MPI task timing breakdown:
Section |  min time  |  avg time  |  max time  |%varavg| %total
---------------------------------------------------------------
Pair    | 6.7953     | 6.9583     | 7.1285     |   5.5 | 54.84
Neigh   | 4.2387     | 4.5685     | 4.8995     |  10.1 | 36.00
Comm    | 0.81805    | 0.99606    | 1.2533     |  14.3 |  7.85
Output  | 5.1975e-05 | 6.3896e-05 | 0.00010109 |   0.0 |  0.00
Modify  | 0.12343    | 0.1306     | 0.14085    |   1.9 |  1.03
Other   |            | 0.03557    |            |       |  0.28

Nlocal:    3275.33 ave 3281 max 3269 min
Histogram: 1 0 2 0 0 0 0 1 0 2
Nghost:    6790.5 ave 6810 max 6764 min
Histogram: 1 0 0 0 1 1 1 1 0 1
Neighs:    211842 ave 215103 max 207592 min
Histogram: 1 0 0 1 1 0 0 1 1 1

Total # of neighbors = 1271051
Ave neighs/atom = 64.6779
Neighbor list builds = 495
Dangerous builds not checked
Setting up Verlet run ...
  Unit style    : metal
  Current step  : 240496
  Time step     : 0.001
Per MPI rank memory allocation (min/avg/max) = 5.58 | 5.863 | 6.005 Mbytes
Step Temp Press TotEng PotEng Enthalpy 
  240496      2260.97    162.15243   -76153.872   -81896.942   -76114.567 
  266668    2240.2743    2294.7686   -76283.883   -81974.384   -75729.873 
  306668    2241.8463    1075.4449   -76270.987   -81965.481   -76010.841 
Loop time of 1642.69 on 6 procs for 66172 steps with 19652 atoms

Performance: 3.480 ns/day, 6.896 hours/ns, 40.283 timesteps/s
99.7% CPU use with 6 MPI tasks x no OpenMP threads

MPI task timing breakdown:
Section |  min time  |  avg time  |  max time  |%varavg| %total
---------------------------------------------------------------
Pair    | 885.02     | 890.84     | 895.92     |  11.3 | 54.23
Neigh   | 582.36     | 591.92     | 598.11     |  20.6 | 36.03
Comm    | 129.8      | 138.66     | 154.11     |  67.6 |  8.44
Output  | 0.031865   | 0.03188    | 0.031945   |   0.0 |  0.00
Modify  | 16.636     | 16.943     | 17.506     |   7.4 |  1.03
Other   |            | 4.295      |            |       |  0.26

Nlocal:    3275.33 ave 3302 max 3238 min
Histogram: 1 0 0 0 1 1 0 1 1 1
Nghost:    6784.67 ave 6820 max 6764 min
Histogram: 2 1 1 0 0 0 1 0 0 1
Neighs:    212302 ave 217522 max 207554 min
Histogram: 1 1 1 0 0 0 1 0 1 1

Total # of neighbors = 1273813
Ave neighs/atom = 64.8185
Neighbor list builds = 66172
Dangerous builds not checked
Setting up Verlet run ...
  Unit style    : metal
  Current step  : 306668
  Time step     : 0.001
Per MPI rank memory allocation (min/avg/max) = 5.58 | 5.863 | 6.005 Mbytes
Step Temp Press TotEng PotEng Enthalpy 
  306668    2241.8463    1075.4449   -76270.987   -81965.481   -76010.841 
  307163    2201.4146   -499.90109    -76438.41   -82030.204   -76559.259 
Loop time of 11.8166 on 6 procs for 495 steps with 19652 atoms

Performance: 3.619 ns/day, 6.631 hours/ns, 41.890 timesteps/s
100.0% CPU use with 6 MPI tasks x no OpenMP threads

MPI task timing breakdown:
Section |  min time  |  avg time  |  max time  |%varavg| %total
---------------------------------------------------------------
Pair    | 6.3434     | 6.4689     | 6.5677     |   3.0 | 54.74
Neigh   | 4.0124     | 4.2519     | 4.5703     |  10.9 | 35.98
Comm    | 0.71201    | 0.94401    | 1.1161     |  17.3 |  7.99
Output  | 4.3869e-05 | 6.0439e-05 | 0.00011086 |   0.0 |  0.00
Modify  | 0.11492    | 0.11984    | 0.1254     |   1.2 |  1.01
Other   |            | 0.03195    |            |       |  0.27

Nlocal:    3275.33 ave 3288 max 3264 min
Histogram: 2 0 0 0 2 0 0 0 1 1
Nghost:    6790.33 ave 6867 max 6752 min
Histogram: 2 1 1 0 0 1 0 0 0 1
Neighs:    212366 ave 216345 max 208506 min
Histogram: 1 0 0 2 1 0 0 1 0 1

Total # of neighbors = 1274195
Ave neighs/atom = 64.8379
Neighbor list builds = 495
Dangerous builds not checked
Setting up Verlet run ...
  Unit style    : metal
  Current step  : 307163
  Time step     : 0.001
Per MPI rank memory allocation (min/avg/max) = 5.58 | 5.863 | 6.005 Mbytes
Step Temp Press TotEng PotEng Enthalpy 
  307163    2201.4146   -499.90109    -76438.41   -82030.204   -76559.259 
  333335    2195.0312    782.70099   -76446.746   -82022.325   -76257.763 
  373335    2212.4239   -591.13139   -76412.572    -82032.33   -76555.951 
Loop time of 1704.38 on 6 procs for 66172 steps with 19652 atoms

Performance: 3.354 ns/day, 7.155 hours/ns, 38.825 timesteps/s
99.6% CPU use with 6 MPI tasks x no OpenMP threads

MPI task timing breakdown:
Section |  min time  |  avg time  |  max time  |%varavg| %total
---------------------------------------------------------------
Pair    | 926.89     | 932.05     | 937.75     |  11.6 | 54.69
Neigh   | 598.44     | 605.27     | 612.05     |  17.8 | 35.51
Comm    | 137        | 146.06     | 152.69     |  53.8 |  8.57
Output  | 0.045664   | 0.045682   | 0.045749   |   0.0 |  0.00
Modify  | 16.41      | 16.576     | 16.729     |   2.6 |  0.97
Other   |            | 4.378      |            |       |  0.26

Nlocal:    3275.33 ave 3288 max 3253 min
Histogram: 1 0 0 0 0 0 2 1 1 1
Nghost:    6777.67 ave 6798 max 6763 min
Histogram: 1 1 2 0 0 0 0 0 1 1
Neighs:    211724 ave 215883 max 206409 min
Histogram: 1 0 0 0 2 0 1 0 1 1

Total # of neighbors = 1270343
Ave neighs/atom = 64.6419
Neighbor list builds = 66172
Dangerous builds not checked
Setting up Verlet run ...
  Unit style    : metal
  Current step  : 373335
  Time step     : 0.001
Per MPI rank memory allocation (min/avg/max) = 5.58 | 5.863 | 6.005 Mbytes
Step Temp Press TotEng PotEng Enthalpy 
  373335    2212.4239   -591.13139   -76412.572    -82032.33   -76555.951 
  373830    2157.6764    1238.0645   -76665.032   -82145.726   -76366.686 
Loop time of 12.4623 on 6 procs for 495 steps with 19652 atoms

Performance: 3.432 ns/day, 6.993 hours/ns, 39.720 timesteps/s
99.8% CPU use with 6 MPI tasks x no OpenMP threads

MPI task timing breakdown:
Section |  min time  |  avg time  |  max time  |%varavg| %total
---------------------------------------------------------------
Pair    | 6.7777     | 6.8546     | 6.9853     |   2.9 | 55.00
Neigh   | 4.1387     | 4.3643     | 4.5883     |   7.6 | 35.02
Comm    | 0.92997    | 1.0822     | 1.1885     |  10.3 |  8.68
Output  | 4.4107e-05 | 5.1936e-05 | 7.9155e-05 |   0.0 |  0.00
Modify  | 0.11864    | 0.12512    | 0.13212    |   1.2 |  1.00
Other   |            | 0.03605    |            |       |  0.29

Nlocal:    3275.33 ave 3293 max 3267 min
Histogram: 1 3 0 0 0 1 0 0 0 1
Nghost:    6797.5 ave 6818 max 6767 min
Histogram: 1 1 0 0 0 1 0 0 0 3
Neighs:    213111 ave 217436 max 209546 min
Histogram: 1 0 1 1 0 1 1 0 0 1

Total # of neighbors = 1278664
Ave neighs/atom = 65.0653
Neighbor list builds = 495
Dangerous builds not checked
Setting up Verlet run ...
  Unit style    : metal
  Current step  : 373830
  Time step     : 0.001
Per MPI rank memory allocation (min/avg/max) = 5.58 | 5.863 | 6.005 Mbytes
Step Temp Press TotEng PotEng Enthalpy 
  373830    2157.6764    1238.0645   -76665.032   -82145.726   -76366.686 
  400002    2140.8444   -30.627086   -76689.979   -82127.919   -76697.374 
  440002    2151.2571   -903.37671   -76634.299   -82098.688   -76852.638 
Loop time of 1739.45 on 6 procs for 66172 steps with 19652 atoms

Performance: 3.287 ns/day, 7.302 hours/ns, 38.042 timesteps/s
99.4% CPU use with 6 MPI tasks x no OpenMP threads

MPI task timing breakdown:
Section |  min time  |  avg time  |  max time  |%varavg| %total
---------------------------------------------------------------
Pair    | 947.94     | 953.57     | 961.65     |  14.6 | 54.82
Neigh   | 592.36     | 603.78     | 616.2      |  34.9 | 34.71
Comm    | 141.94     | 155.44     | 170.73     |  86.7 |  8.94
Output  | 0.039532   | 0.039549   | 0.03962    |   0.0 |  0.00
Modify  | 21.467     | 21.914     | 22.341     |   5.9 |  1.26
Other   |            | 4.711      |            |       |  0.27

Nlocal:    3275.33 ave 3286 max 3267 min
Histogram: 1 1 0 2 0 0 0 0 1 1
Nghost:    6812.67 ave 6826 max 6795 min
Histogram: 1 0 1 0 0 0 2 0 1 1
Neighs:    212504 ave 216948 max 208187 min
Histogram: 1 1 0 1 0 0 1 1 0 1

Total # of neighbors = 1275022
Ave neighs/atom = 64.88
Neighbor list builds = 66172
Dangerous builds not checked
Setting up Verlet run ...
  Unit style    : metal
  Current step  : 440002
  Time step     : 0.001
Per MPI rank memory allocation (min/avg/max) = 5.58 | 5.863 | 6.005 Mbytes
Step Temp Press TotEng PotEng Enthalpy 
  440002    2151.2571   -903.37671   -76634.299   -82098.688   -76852.638 
  440497    2104.7338   -546.41917   -76856.347   -82202.562   -76988.039 
Loop time of 14.2699 on 6 procs for 495 steps with 19652 atoms

Performance: 2.997 ns/day, 8.008 hours/ns, 34.688 timesteps/s
99.6% CPU use with 6 MPI tasks x no OpenMP threads

MPI task timing breakdown:
Section |  min time  |  avg time  |  max time  |%varavg| %total
---------------------------------------------------------------
Pair    | 7.7969     | 7.8735     | 7.9404     |   1.6 | 55.18
Neigh   | 4.0787     | 4.6067     | 5.4456     |  25.1 | 32.28
Comm    | 0.82893    | 1.6121     | 2.182      |  42.0 | 11.30
Output  | 5.1975e-05 | 6.4651e-05 | 0.0001049  |   0.0 |  0.00
Modify  | 0.13185    | 0.14135    | 0.15309    |   1.9 |  0.99
Other   |            | 0.03634    |            |       |  0.25

Nlocal:    3275.33 ave 3298 max 3263 min
Histogram: 1 1 1 1 1 0 0 0 0 1
Nghost:    6809.5 ave 6840 max 6770 min
Histogram: 1 0 0 1 1 0 0 1 1 1
Neighs:    213095 ave 216392 max 209379 min
Histogram: 1 0 1 1 0 0 0 1 1 1

Total # of neighbors = 1278572
Ave neighs/atom = 65.0607
Neighbor list builds = 495
Dangerous builds not checked
Setting up Verlet run ...
  Unit style    : metal
  Current step  : 440497
  Time step     : 0.001
Per MPI rank memory allocation (min/avg/max) = 5.58 | 5.863 | 6.005 Mbytes
Step Temp Press TotEng PotEng Enthalpy 
  440497    2104.7338   -546.41917   -76856.347   -82202.562   -76988.039 
  466669    2097.7059    1273.4249   -76956.741   -82285.105   -76650.837 
  506669     2093.308   -379.91181   -76913.362   -82230.555   -77004.884 
Loop time of 1914.96 on 6 procs for 66172 steps with 19652 atoms

Performance: 2.986 ns/day, 8.039 hours/ns, 34.555 timesteps/s
99.4% CPU use with 6 MPI tasks x no OpenMP threads

MPI task timing breakdown:
Section |  min time  |  avg time  |  max time  |%varavg| %total
---------------------------------------------------------------
Pair    | 1039.9     | 1049.6     | 1059.8     |  21.9 | 54.81
Neigh   | 628.94     | 640.56     | 646.05     |  23.6 | 33.45
Comm    | 185.96     | 199.15     | 206.89     |  56.5 | 10.40
Output  | 0.069008   | 0.069022   | 0.069077   |   0.0 |  0.00
Modify  | 18.369     | 20.709     | 22.012     |  34.9 |  1.08
Other   |            | 4.869      |            |       |  0.25

Nlocal:    3275.33 ave 3286 max 3267 min
Histogram: 1 0 1 0 2 1 0 0 0 1
Nghost:    6802.17 ave 6826 max 6761 min
Histogram: 1 0 0 0 0 0 2 2 0 1
Neighs:    213212 ave 217450 max 208791 min
Histogram: 1 0 1 1 0 1 0 0 1 1

Total # of neighbors = 1279271
Ave neighs/atom = 65.0962
Neighbor list builds = 66172
Dangerous builds not checked
Setting up Verlet run ...
  Unit style    : metal
  Current step  : 506669
  Time step     : 0.001
Per MPI rank memory allocation (min/avg/max) = 5.58 | 5.863 | 6.005 Mbytes
Step Temp Press TotEng PotEng Enthalpy 
  506669     2093.308   -379.91181   -76913.362   -82230.555   -77004.884 
  507164    2076.9428    736.07626   -77057.728   -82333.352   -76880.929 
Loop time of 13.1041 on 6 procs for 495 steps with 19652 atoms

Performance: 3.264 ns/day, 7.354 hours/ns, 37.774 timesteps/s
99.8% CPU use with 6 MPI tasks x no OpenMP threads

MPI task timing breakdown:
Section |  min time  |  avg time  |  max time  |%varavg| %total
---------------------------------------------------------------
Pair    | 7.1257     | 7.2409     | 7.3394     |   2.5 | 55.26
Neigh   | 3.9945     | 4.3709     | 4.7006     |  14.1 | 33.36
Comm    | 1.0166     | 1.3324     | 1.7366     |  24.7 | 10.17
Output  | 4.2915e-05 | 4.9551e-05 | 8.1778e-05 |   0.0 |  0.00
Modify  | 0.11733    | 0.12474    | 0.13405    |   1.9 |  0.95
Other   |            | 0.03504    |            |       |  0.27

Nlocal:    3275.33 ave 3293 max 3256 min
Histogram: 2 0 0 0 0 1 0 2 0 1
Nghost:    6808.67 ave 6838 max 6775 min
Histogram: 1 0 0 1 1 0 1 1 0 1
Neighs:    213794 ave 219041 max 208691 min
Histogram: 1 0 0 1 1 1 1 0 0 1

Total # of neighbors = 1282767
Ave neighs/atom = 65.2741
Neighbor list builds = 495
Dangerous builds not checked
Setting up Verlet run ...
  Unit style    : metal
  Current step  : 507164
  Time step     : 0.001
Per MPI rank memory allocation (min/avg/max) = 5.58 | 5.863 | 6.005 Mbytes
Step Temp Press TotEng PotEng Enthalpy 
  507164    2076.9428    736.07626   -77057.728   -82333.352   -76880.929 
  533336    2035.1803    356.74258   -77152.852   -82322.396   -77067.143 
  573336    2048.5809    -678.7477   -77131.186   -82334.768   -77294.387 
Loop time of 1836.65 on 6 procs for 66172 steps with 19652 atoms

Performance: 3.113 ns/day, 7.710 hours/ns, 36.029 timesteps/s
99.0% CPU use with 6 MPI tasks x no OpenMP threads

MPI task timing breakdown:
Section |  min time  |  avg time  |  max time  |%varavg| %total
---------------------------------------------------------------
Pair    | 1001.4     | 1008.7     | 1018.3     |  19.1 | 54.92
Neigh   | 600.65     | 610.04     | 623.94     |  34.0 | 33.21
Comm    | 171.51     | 185.78     | 197.37     |  60.8 | 10.12
Output  | 0.034514   | 0.034528   | 0.034576   |   0.0 |  0.00
Modify  | 26.608     | 27.412     | 27.967     |  11.1 |  1.49
Other   |            | 4.705      |            |       |  0.26

Nlocal:    3275.33 ave 3294 max 3263 min
Histogram: 2 0 1 0 0 2 0 0 0 1
Nghost:    6795 ave 6811 max 6770 min
Histogram: 1 0 0 1 0 0 0 2 1 1
Neighs:    213676 ave 219126 max 210187 min
Histogram: 1 1 0 2 0 1 0 0 0 1

Total # of neighbors = 1282056
Ave neighs/atom = 65.2379
Neighbor list builds = 66172
Dangerous builds not checked
Setting up Verlet run ...
  Unit style    : metal
  Current step  : 573336
  Time step     : 0.001
Per MPI rank memory allocation (min/avg/max) = 5.58 | 5.863 | 6.005 Mbytes
Step Temp Press TotEng PotEng Enthalpy 
  573336    2048.5809    -678.7477   -77131.186   -82334.768   -77294.387 
  573831    2028.1128    425.26717   -77311.697   -82463.288   -77209.889 
Loop time of 13.0491 on 6 procs for 495 steps with 19652 atoms

Performance: 3.277 ns/day, 7.323 hours/ns, 37.934 timesteps/s
100.0% CPU use with 6 MPI tasks x no OpenMP threads

MPI task timing breakdown:
Section |  min time  |  avg time  |  max time  |%varavg| %total
---------------------------------------------------------------
Pair    | 7.1655     | 7.229      | 7.2671     |   1.4 | 55.40
Neigh   | 3.9309     | 4.4288     | 4.7397     |  11.9 | 33.94
Comm    | 0.90039    | 1.2295     | 1.6941     |  22.8 |  9.42
Output  | 5.3883e-05 | 6.1949e-05 | 8.9884e-05 |   0.0 |  0.00
Modify  | 0.12186    | 0.12638    | 0.12984    |   0.8 |  0.97
Other   |            | 0.03544    |            |       |  0.27

Nlocal:    3275.33 ave 3306 max 3258 min
Histogram: 2 0 2 0 0 0 1 0 0 1
Nghost:    6808.5 ave 6838 max 6740 min
Histogram: 1 0 0 0 0 0 0 2 2 1
Neighs:    214591 ave 216288 max 209967 min
Histogram: 1 0 0 0 0 0 0 0 3 2

Total # of neighbors = 1287548
Ave neighs/atom = 65.5174
Neighbor list builds = 495
Dangerous builds not checked
Setting up Verlet run ...
  Unit style    : metal
  Current step  : 573831
  Time step     : 0.001
Per MPI rank memory allocation (min/avg/max) = 5.58 | 5.863 | 6.005 Mbytes
Step Temp Press TotEng PotEng Enthalpy 
  573831    2028.1128    425.26717   -77311.697   -82463.288   -77209.889 
  600003    2003.6721   -763.97806   -77318.922   -82408.431   -77502.561 
  640003      2013.65    1106.3997    -77339.82   -82454.675    -77075.39 
Loop time of 1797.82 on 6 procs for 66172 steps with 19652 atoms

Performance: 3.180 ns/day, 7.547 hours/ns, 36.807 timesteps/s
99.6% CPU use with 6 MPI tasks x no OpenMP threads

MPI task timing breakdown:
Section |  min time  |  avg time  |  max time  |%varavg| %total
---------------------------------------------------------------
Pair    | 980.4      | 991.45     | 1004.7     |  29.1 | 55.15
Neigh   | 606.98     | 616.11     | 636.99     |  41.6 | 34.27
Comm    | 152.95     | 167.29     | 179.6      |  66.9 |  9.31
Output  | 0.21876    | 0.21878    | 0.21885    |   0.0 |  0.01
Modify  | 17.725     | 18.018     | 18.171     |   3.4 |  1.00
Other   |            | 4.731      |            |       |  0.26

Nlocal:    3275.33 ave 3314 max 3236 min
Histogram: 2 0 0 0 1 0 1 0 1 1
Nghost:    6831.83 ave 6891 max 6786 min
Histogram: 1 1 0 0 2 1 0 0 0 1
Neighs:    214833 ave 220659 max 209550 min
Histogram: 2 0 1 0 0 0 1 0 0 2

Total # of neighbors = 1289000
Ave neighs/atom = 65.5913
Neighbor list builds = 66172
Dangerous builds not checked
Setting up Verlet run ...
  Unit style    : metal
  Current step  : 640003
  Time step     : 0.001
Per MPI rank memory allocation (min/avg/max) = 5.58 | 5.863 | 6.005 Mbytes
Step Temp Press TotEng PotEng Enthalpy 
  640003      2013.65    1106.3997    -77339.82   -82454.675    -77075.39 
  640498    1959.2957    682.64834   -77521.944   -82498.734   -77358.553 
Loop time of 10.304 on 6 procs for 495 steps with 19652 atoms

Performance: 4.151 ns/day, 5.782 hours/ns, 48.040 timesteps/s
100.0% CPU use with 6 MPI tasks x no OpenMP threads

MPI task timing breakdown:
Section |  min time  |  avg time  |  max time  |%varavg| %total
---------------------------------------------------------------
Pair    | 5.4036     | 5.5061     | 5.5707     |   2.5 | 53.44
Neigh   | 3.8957     | 4.0383     | 4.4086     |   8.5 | 39.19
Comm    | 0.34219    | 0.61935    | 0.76675    |  17.5 |  6.01
Output  | 3.6001e-05 | 4.5458e-05 | 8.9884e-05 |   0.0 |  0.00
Modify  | 0.1031     | 0.10845    | 0.11052    |   0.8 |  1.05
Other   |            | 0.03184    |            |       |  0.31

Nlocal:    3275.33 ave 3289 max 3269 min
Histogram: 2 1 0 1 1 0 0 0 0 1
Nghost:    6820.33 ave 6862 max 6785 min
Histogram: 1 1 1 0 1 0 0 0 1 1
Neighs:    214592 ave 217698 max 211039 min
Histogram: 1 0 0 0 1 2 1 0 0 1

Total # of neighbors = 1287551
Ave neighs/atom = 65.5176
Neighbor list builds = 495
Dangerous builds not checked
Setting up Verlet run ...
  Unit style    : metal
  Current step  : 640498
  Time step     : 0.001
Per MPI rank memory allocation (min/avg/max) = 5.58 | 5.863 | 6.005 Mbytes
Step Temp Press TotEng PotEng Enthalpy 
  640498    1959.2957    682.64834   -77521.944   -82498.734   -77358.553 
  666670    1941.6424   -427.56004   -77588.721    -82520.67   -77691.095 
  706670      1939.03   -118.12359   -77609.768   -82535.081   -77638.017 
Loop time of 1703.22 on 6 procs for 66172 steps with 19652 atoms

Performance: 3.357 ns/day, 7.150 hours/ns, 38.851 timesteps/s
99.7% CPU use with 6 MPI tasks x no OpenMP threads

MPI task timing breakdown:
Section |  min time  |  avg time  |  max time  |%varavg| %total
---------------------------------------------------------------
Pair    | 927.45     | 934.14     | 942.89     |  16.8 | 54.85
Neigh   | 589.58     | 598.08     | 607.64     |  25.3 | 35.11
Comm    | 130.93     | 149.44     | 165.4      |  94.3 |  8.77
Output  | 0.070003   | 0.070023   | 0.070088   |   0.0 |  0.00
Modify  | 16.435     | 16.974     | 17.431     |   8.4 |  1.00
Other   |            | 4.509      |            |       |  0.26

Nlocal:    3275.33 ave 3289 max 3262 min
Histogram: 1 0 0 2 1 0 0 1 0 1
Nghost:    6846.5 ave 6867 max 6827 min
Histogram: 1 0 0 2 0 1 0 1 0 1
Neighs:    214754 ave 217684 max 211763 min
Histogram: 2 0 0 0 0 0 2 1 0 1

Total # of neighbors = 1288522
Ave neighs/atom = 65.567
Neighbor list builds = 66172
Dangerous builds not checked
Setting up Verlet run ...
  Unit style    : metal
  Current step  : 706670
  Time step     : 0.001
Per MPI rank memory allocation (min/avg/max) = 5.58 | 5.863 | 6.005 Mbytes
Step Temp Press TotEng PotEng Enthalpy 
  706670      1939.03   -118.12359   -77609.768   -82535.081   -77638.017 
  707165    1913.9212    -772.8364   -77767.455   -82628.989   -77952.271 
Loop time of 11.9697 on 6 procs for 495 steps with 19652 atoms

Performance: 3.573 ns/day, 6.717 hours/ns, 41.354 timesteps/s
99.6% CPU use with 6 MPI tasks x no OpenMP threads

MPI task timing breakdown:
Section |  min time  |  avg time  |  max time  |%varavg| %total
---------------------------------------------------------------
Pair    | 6.5145     | 6.6348     | 6.8032     |   4.1 | 55.43
Neigh   | 3.9343     | 4.131      | 4.3836     |   7.7 | 34.51
Comm    | 0.91003    | 1.0515     | 1.2473     |  10.2 |  8.78
Output  | 3.7909e-05 | 4.6094e-05 | 8.7023e-05 |   0.0 |  0.00
Modify  | 0.11159    | 0.11941    | 0.12602    |   1.5 |  1.00
Other   |            | 0.03304    |            |       |  0.28

Nlocal:    3275.33 ave 3295 max 3264 min
Histogram: 2 0 1 0 2 0 0 0 0 1
Nghost:    6850.83 ave 6892 max 6812 min
Histogram: 1 0 0 2 1 0 0 1 0 1
Neighs:    214837 ave 218669 max 212287 min
Histogram: 1 1 1 0 1 1 0 0 0 1

Total # of neighbors = 1289023
Ave neighs/atom = 65.5925
Neighbor list builds = 495
Dangerous builds not checked
Setting up Verlet run ...
  Unit style    : metal
  Current step  : 707165
  Time step     : 0.001
Per MPI rank memory allocation (min/avg/max) = 5.58 | 5.863 | 6.005 Mbytes
Step Temp Press TotEng PotEng Enthalpy 
  707165    1913.9212    -772.8364   -77767.455   -82628.989   -77952.271 
  733337    1924.4344   -642.78868   -77734.196   -82622.435   -77888.151 
  773337    1893.8886    668.75881   -77752.808   -82563.458    -77593.23 
Loop time of 1691.51 on 6 procs for 66172 steps with 19652 atoms

Performance: 3.380 ns/day, 7.101 hours/ns, 39.120 timesteps/s
99.2% CPU use with 6 MPI tasks x no OpenMP threads

MPI task timing breakdown:
Section |  min time  |  avg time  |  max time  |%varavg| %total
---------------------------------------------------------------
Pair    | 920.83     | 924.57     | 928.78     |  10.3 | 54.66
Neigh   | 585.53     | 596.3      | 603.71     |  28.6 | 35.25
Comm    | 132.98     | 145.62     | 158.36     |  76.3 |  8.61
Output  | 0.2019     | 0.20191    | 0.20197    |   0.0 |  0.01
Modify  | 18.326     | 20.024     | 21.227     |  26.8 |  1.18
Other   |            | 4.8        |            |       |  0.28

Nlocal:    3275.33 ave 3293 max 3263 min
Histogram: 1 1 0 1 1 1 0 0 0 1
Nghost:    6812.67 ave 6846 max 6790 min
Histogram: 1 1 1 0 1 0 1 0 0 1
Neighs:    215258 ave 218476 max 213065 min
Histogram: 2 0 1 1 0 0 0 0 1 1

Total # of neighbors = 1291549
Ave neighs/atom = 65.721
Neighbor list builds = 66172
Dangerous builds not checked
Setting up Verlet run ...
  Unit style    : metal
  Current step  : 773337
  Time step     : 0.001
Per MPI rank memory allocation (min/avg/max) = 5.58 | 5.863 | 6.005 Mbytes
Step Temp Press TotEng PotEng Enthalpy 
  773337    1893.8886    668.75881   -77752.808   -82563.458    -77593.23 
  773832    1853.3374    680.59908   -77985.765   -82693.411   -77823.524 
Loop time of 10.7511 on 6 procs for 495 steps with 19652 atoms

Performance: 3.978 ns/day, 6.033 hours/ns, 46.042 timesteps/s
99.9% CPU use with 6 MPI tasks x no OpenMP threads

MPI task timing breakdown:
Section |  min time  |  avg time  |  max time  |%varavg| %total
---------------------------------------------------------------
Pair    | 5.6933     | 5.7531     | 5.855      |   2.2 | 53.51
Neigh   | 3.8863     | 4.0581     | 4.5316     |  11.4 | 37.75
Comm    | 0.37104    | 0.79753    | 0.99925    |  26.1 |  7.42
Output  | 4.4823e-05 | 5.3843e-05 | 9.6798e-05 |   0.0 |  0.00
Modify  | 0.10608    | 0.11002    | 0.11616    |   1.0 |  1.02
Other   |            | 0.03224    |            |       |  0.30

Nlocal:    3275.33 ave 3291 max 3258 min
Histogram: 1 0 1 1 0 0 1 0 0 2
Nghost:    6850.67 ave 6886 max 6807 min
Histogram: 1 0 0 1 0 2 0 0 1 1
Neighs:    215426 ave 218477 max 213655 min
Histogram: 1 2 1 0 0 0 1 0 0 1

Total # of neighbors = 1292555
Ave neighs/atom = 65.7722
Neighbor list builds = 495
Dangerous builds not checked
Setting up Verlet run ...
  Unit style    : metal
  Current step  : 773832
  Time step     : 0.001
Per MPI rank memory allocation (min/avg/max) = 5.58 | 5.863 | 6.005 Mbytes
Step Temp Press TotEng PotEng Enthalpy 
  773832    1853.3374    680.59908   -77985.765   -82693.411   -77823.524 
  800004    1836.4966   -939.33963   -78044.774   -82709.642   -78268.988 
  840004    1858.2909    798.35215   -78007.408   -82727.636   -77817.333 
Loop time of 1826.78 on 6 procs for 66172 steps with 19652 atoms

Performance: 3.130 ns/day, 7.668 hours/ns, 36.223 timesteps/s
99.5% CPU use with 6 MPI tasks x no OpenMP threads

MPI task timing breakdown:
Section |  min time  |  avg time  |  max time  |%varavg| %total
---------------------------------------------------------------
Pair    | 997.08     | 1000.1     | 1005.7     |   9.8 | 54.75
Neigh   | 608.66     | 626.41     | 646.14     |  47.1 | 34.29
Comm    | 158.47     | 176.12     | 194.55     |  82.6 |  9.64
Output  | 0.073285   | 0.073312   | 0.073383   |   0.0 |  0.00
Modify  | 18.94      | 19.306     | 19.663     |   5.2 |  1.06
Other   |            | 4.776      |            |       |  0.26

Nlocal:    3275.33 ave 3281 max 3267 min
Histogram: 1 0 0 0 0 2 0 2 0 1
Nghost:    6850 ave 6892 max 6825 min
Histogram: 1 1 1 1 1 0 0 0 0 1
Neighs:    215696 ave 219452 max 212825 min
Histogram: 2 0 0 2 0 0 0 1 0 1

Total # of neighbors = 1294177
Ave neighs/atom = 65.8547
Neighbor list builds = 66172
Dangerous builds not checked
Setting up Verlet run ...
  Unit style    : metal
  Current step  : 840004
  Time step     : 0.001
Per MPI rank memory allocation (min/avg/max) = 5.58 | 5.863 | 6.005 Mbytes
Step Temp Press TotEng PotEng Enthalpy 
  840004    1858.2909    798.35215   -78007.408   -82727.636   -77817.333 
  840499    1809.2884    25.620297   -78205.536   -82801.293   -78199.436 
Loop time of 20.955 on 6 procs for 495 steps with 19652 atoms

Performance: 2.041 ns/day, 11.759 hours/ns, 23.622 timesteps/s
90.5% CPU use with 6 MPI tasks x no OpenMP threads

MPI task timing breakdown:
Section |  min time  |  avg time  |  max time  |%varavg| %total
---------------------------------------------------------------
Pair    | 7.0042     | 7.1183     | 7.204      |   3.0 | 33.97
Neigh   | 4.2435     | 4.6096     | 4.8313     |   9.0 | 22.00
Comm    | 1.0375     | 2.5768     | 5.4285     | 123.5 | 12.30
Output  | 4.9114e-05 | 5.5552e-05 | 8.297e-05  |   0.0 |  0.00
Modify  | 3.6539     | 6.6141     | 8.0957     |  81.3 | 31.56
Other   |            | 0.03629    |            |       |  0.17

Nlocal:    3275.33 ave 3294 max 3256 min
Histogram: 1 0 0 0 2 2 0 0 0 1
Nghost:    6836.33 ave 6860 max 6814 min
Histogram: 1 1 0 1 0 1 0 1 0 1
Neighs:    215754 ave 221622 max 211956 min
Histogram: 1 0 2 0 2 0 0 0 0 1

Total # of neighbors = 1294521
Ave neighs/atom = 65.8722
Neighbor list builds = 495
Dangerous builds not checked
Setting up Verlet run ...
  Unit style    : metal
  Current step  : 840499
  Time step     : 0.001
Per MPI rank memory allocation (min/avg/max) = 5.58 | 5.863 | 6.005 Mbytes
Step Temp Press TotEng PotEng Enthalpy 
  840499    1809.2884    25.620297   -78205.536   -82801.293   -78199.436 
  866671     1809.886     301.6588   -78235.283   -82832.558   -78163.441 
  906671    1813.7129   -455.52798   -78226.323   -82833.319   -78334.894 
Loop time of 1909.1 on 6 procs for 66172 steps with 19652 atoms

Performance: 2.995 ns/day, 8.014 hours/ns, 34.661 timesteps/s
98.8% CPU use with 6 MPI tasks x no OpenMP threads

MPI task timing breakdown:
Section |  min time  |  avg time  |  max time  |%varavg| %total
---------------------------------------------------------------
Pair    | 1037.6     | 1048.4     | 1063.9     |  30.2 | 54.92
Neigh   | 650.37     | 665.26     | 681.13     |  39.3 | 34.85
Comm    | 143.83     | 169.08     | 188.17     | 138.9 |  8.86
Output  | 0.039003   | 0.039016   | 0.039069   |   0.0 |  0.00
Modify  | 20.787     | 20.983     | 21.296     |   3.9 |  1.10
Other   |            | 5.304      |            |       |  0.28

Nlocal:    3275.33 ave 3304 max 3257 min
Histogram: 1 1 0 2 1 0 0 0 0 1
Nghost:    6830 ave 6885 max 6792 min
Histogram: 1 1 1 1 0 0 0 1 0 1
Neighs:    215530 ave 219103 max 211167 min
Histogram: 1 0 0 1 0 0 3 0 0 1

Total # of neighbors = 1293178
Ave neighs/atom = 65.8039
Neighbor list builds = 66172
Dangerous builds not checked
Setting up Verlet run ...
  Unit style    : metal
  Current step  : 906671
  Time step     : 0.001
Per MPI rank memory allocation (min/avg/max) = 5.58 | 5.863 | 6.005 Mbytes
Step Temp Press TotEng PotEng Enthalpy 
  906671    1813.7129   -455.52798   -78226.323   -82833.319   -78334.894 
  907166     1760.141   -826.41394   -78459.041   -82929.959   -78655.571 
Loop time of 14.2752 on 6 procs for 495 steps with 19652 atoms

Performance: 2.996 ns/day, 8.011 hours/ns, 34.675 timesteps/s
98.6% CPU use with 6 MPI tasks x no OpenMP threads

MPI task timing breakdown:
Section |  min time  |  avg time  |  max time  |%varavg| %total
---------------------------------------------------------------
Pair    | 7.8593     | 7.9915     | 8.1745     |   3.7 | 55.98
Neigh   | 4.5712     | 4.8515     | 5.0793     |   7.8 | 33.99
Comm    | 0.95124    | 1.1897     | 1.4303     |  15.3 |  8.33
Output  | 4.8876e-05 | 5.8015e-05 | 8.9884e-05 |   0.0 |  0.00
Modify  | 0.17477    | 0.20132    | 0.24756    |   6.5 |  1.41
Other   |            | 0.04111    |            |       |  0.29

Nlocal:    3275.33 ave 3295 max 3265 min
Histogram: 2 1 0 1 0 0 1 0 0 1
Nghost:    6829.67 ave 6841 max 6807 min
Histogram: 1 0 0 0 0 1 1 0 2 1
Neighs:    215948 ave 218812 max 211838 min
Histogram: 1 0 0 1 0 1 0 2 0 1

Total # of neighbors = 1295689
Ave neighs/atom = 65.9317
Neighbor list builds = 495
Dangerous builds not checked
Setting up Verlet run ...
  Unit style    : metal
  Current step  : 907166
  Time step     : 0.001
Per MPI rank memory allocation (min/avg/max) = 5.58 | 5.863 | 6.005 Mbytes
Step Temp Press TotEng PotEng Enthalpy 
  907166     1760.141   -826.41394   -78459.041   -82929.959   -78655.571 
  933338    1739.7721    232.37235   -78516.185   -82935.364   -78460.996 
  973338    1738.9268   -130.15772   -78543.717    -82960.75    -78574.65 
Loop time of 1933.64 on 6 procs for 66172 steps with 19652 atoms

Performance: 2.957 ns/day, 8.117 hours/ns, 34.222 timesteps/s
98.7% CPU use with 6 MPI tasks x no OpenMP threads

MPI task timing breakdown:
Section |  min time  |  avg time  |  max time  |%varavg| %total
---------------------------------------------------------------
Pair    | 1056.8     | 1065.7     | 1074.4     |  17.2 | 55.11
Neigh   | 659.95     | 670.81     | 680.28     |  25.6 | 34.69
Comm    | 150.99     | 169.31     | 182.09     |  86.3 |  8.76
Output  | 0.45841    | 0.45843    | 0.45849    |   0.0 |  0.02
Modify  | 21.847     | 22.094     | 22.54      |   6.7 |  1.14
Other   |            | 5.295      |            |       |  0.27

Nlocal:    3275.33 ave 3295 max 3249 min
Histogram: 1 0 0 0 2 1 0 0 0 2
Nghost:    6847.5 ave 6883 max 6825 min
Histogram: 1 1 1 1 0 1 0 0 0 1
Neighs:    216155 ave 219366 max 212179 min
Histogram: 1 0 0 2 0 0 0 1 1 1

Total # of neighbors = 1296932
Ave neighs/atom = 65.9949
Neighbor list builds = 66172
Dangerous builds not checked
Setting up Verlet run ...
  Unit style    : metal
  Current step  : 973338
  Time step     : 0.001
Per MPI rank memory allocation (min/avg/max) = 5.58 | 5.863 | 6.005 Mbytes
Step Temp Press TotEng PotEng Enthalpy 
  973338    1738.9268   -130.15772   -78543.717    -82960.75    -78574.65 
  973833    1707.1684    799.55318   -78701.673   -83038.036   -78512.388 
Loop time of 13.56 on 6 procs for 495 steps with 19652 atoms

Performance: 3.154 ns/day, 7.609 hours/ns, 36.504 timesteps/s
99.7% CPU use with 6 MPI tasks x no OpenMP threads

MPI task timing breakdown:
Section |  min time  |  avg time  |  max time  |%varavg| %total
---------------------------------------------------------------
Pair    | 7.3198     | 7.4428     | 7.6137     |   3.7 | 54.89
Neigh   | 4.3775     | 4.7705     | 5.1353     |  10.4 | 35.18
Comm    | 0.62515    | 1.1685     | 1.5592     |  25.5 |  8.62
Output  | 4.4107e-05 | 5.2691e-05 | 8.5115e-05 |   0.0 |  0.00
Modify  | 0.1285     | 0.14104    | 0.14643    |   1.6 |  1.04
Other   |            | 0.03707    |            |       |  0.27

Nlocal:    3275.33 ave 3292 max 3260 min
Histogram: 1 1 0 1 0 1 0 1 0 1
Nghost:    6855 ave 6878 max 6837 min
Histogram: 1 1 1 0 1 0 0 1 0 1
Neighs:    217057 ave 219087 max 214087 min
Histogram: 1 0 0 1 1 0 0 0 1 2

Total # of neighbors = 1302344
Ave neighs/atom = 66.2703
Neighbor list builds = 495
Dangerous builds not checked
Setting up Verlet run ...
  Unit style    : metal
  Current step  : 973833
  Time step     : 0.001
Per MPI rank memory allocation (min/avg/max) = 5.58 | 5.863 | 6.005 Mbytes
Step Temp Press TotEng PotEng Enthalpy 
  973833    1707.1684    799.55318   -78701.673   -83038.036   -78512.388 
 1000005    1710.3333    708.29425   -78721.589   -83065.991   -78553.977 
 1040005    1696.4797    443.79795   -78731.205   -83040.418   -78626.038 
Loop time of 1834.41 on 6 procs for 66172 steps with 19652 atoms

Performance: 3.117 ns/day, 7.701 hours/ns, 36.073 timesteps/s
99.6% CPU use with 6 MPI tasks x no OpenMP threads

MPI task timing breakdown:
Section |  min time  |  avg time  |  max time  |%varavg| %total
---------------------------------------------------------------
Pair    | 1000.3     | 1008.4     | 1017.5     |  20.3 | 54.97
Neigh   | 621.05     | 640.85     | 668.88     |  68.4 | 34.93
Comm    | 126.47     | 160.15     | 185.59     | 178.1 |  8.73
Output  | 0.041113   | 0.041127   | 0.041185   |   0.0 |  0.00
Modify  | 19.365     | 19.984     | 20.319     |   7.0 |  1.09
Other   |            | 5.02       |            |       |  0.27

Nlocal:    3275.33 ave 3296 max 3253 min
Histogram: 1 1 0 0 0 2 0 0 0 2
Nghost:    6839.17 ave 6862 max 6805 min
Histogram: 1 0 1 0 1 0 0 0 1 2
Neighs:    216787 ave 221296 max 214414 min
Histogram: 2 1 0 1 1 0 0 0 0 1

Total # of neighbors = 1300722
Ave neighs/atom = 66.1878
Neighbor list builds = 66172
Dangerous builds not checked
Setting up Verlet run ...
  Unit style    : metal
  Current step  : 1040005
  Time step     : 0.001
Per MPI rank memory allocation (min/avg/max) = 5.58 | 5.863 | 6.005 Mbytes
Step Temp Press TotEng PotEng Enthalpy 
 1040005    1696.4797    443.79795   -78731.205   -83040.418   -78626.038 
 1040500    1671.2546   -10.009118   -78922.125   -83167.264   -78924.494 
Loop time of 13.7017 on 6 procs for 495 steps with 19652 atoms

Performance: 3.121 ns/day, 7.689 hours/ns, 36.127 timesteps/s
99.1% CPU use with 6 MPI tasks x no OpenMP threads

MPI task timing breakdown:
Section |  min time  |  avg time  |  max time  |%varavg| %total
---------------------------------------------------------------
Pair    | 7.2993     | 7.5128     | 7.6755     |   4.4 | 54.83
Neigh   | 4.3308     | 4.8509     | 5.3671     |  15.3 | 35.40
Comm    | 0.84739    | 1.1611     | 1.5333     |  23.5 |  8.47
Output  | 5.5075e-05 | 6.2386e-05 | 8.7976e-05 |   0.0 |  0.00
Modify  | 0.12971    | 0.13776    | 0.14384    |   1.2 |  1.01
Other   |            | 0.03902    |            |       |  0.28

Nlocal:    3275.33 ave 3285 max 3261 min
Histogram: 1 0 1 0 1 0 0 0 0 3
Nghost:    6860.5 ave 6919 max 6839 min
Histogram: 2 2 0 1 0 0 0 0 0 1
Neighs:    216979 ave 220330 max 214375 min
Histogram: 2 0 1 0 0 0 2 0 0 1

Total # of neighbors = 1301876
Ave neighs/atom = 66.2465
Neighbor list builds = 495
Dangerous builds not checked
Setting up Verlet run ...
  Unit style    : metal
  Current step  : 1040500
  Time step     : 0.001
Per MPI rank memory allocation (min/avg/max) = 5.58 | 5.863 | 6.005 Mbytes
Step Temp Press TotEng PotEng Enthalpy 
 1040500    1671.2546   -10.009118   -78922.125   -83167.264   -78924.494 
 1066672    1649.2377    -1688.534   -78922.199   -83111.413   -79323.721 
 1106672    1650.9745   -256.72034   -78991.428   -83185.054   -79052.179 
Loop time of 1835.53 on 6 procs for 66172 steps with 19652 atoms

Performance: 3.115 ns/day, 7.705 hours/ns, 36.051 timesteps/s
99.2% CPU use with 6 MPI tasks x no OpenMP threads

MPI task timing breakdown:
Section |  min time  |  avg time  |  max time  |%varavg| %total
---------------------------------------------------------------
Pair    | 1002.4     | 1006.9     | 1013.2     |  11.5 | 54.85
Neigh   | 626.25     | 643.66     | 653.32     |  37.7 | 35.07
Comm    | 147.98     | 157.86     | 178.11     |  80.5 |  8.60
Output  | 0.13258    | 0.1326     | 0.13265    |   0.0 |  0.01
Modify  | 21.699     | 22.091     | 22.475     |   4.9 |  1.20
Other   |            | 4.92       |            |       |  0.27

Nlocal:    3275.33 ave 3307 max 3254 min
Histogram: 1 0 2 0 2 0 0 0 0 1
Nghost:    6848.5 ave 6864 max 6838 min
Histogram: 1 2 0 0 1 0 0 1 0 1
Neighs:    217084 ave 222038 max 212168 min
Histogram: 1 1 0 0 0 2 0 1 0 1

Total # of neighbors = 1302505
Ave neighs/atom = 66.2785
Neighbor list builds = 66172
Dangerous builds not checked
Setting up Verlet run ...
  Unit style    : metal
  Current step  : 1106672
  Time step     : 0.001
Per MPI rank memory allocation (min/avg/max) = 5.58 | 5.863 | 6.005 Mbytes
Step Temp Press TotEng PotEng Enthalpy 
 1106672    1650.9745   -256.72034   -78991.428   -83185.054   -79052.179 
 1107167    1598.3539   -1361.5412   -79175.664   -83235.628   -79498.307 
Loop time of 14.5607 on 6 procs for 495 steps with 19652 atoms

Performance: 2.937 ns/day, 8.171 hours/ns, 33.996 timesteps/s
98.3% CPU use with 6 MPI tasks x no OpenMP threads

MPI task timing breakdown:
Section |  min time  |  avg time  |  max time  |%varavg| %total
---------------------------------------------------------------
Pair    | 7.701      | 7.8959     | 8.0338     |   3.8 | 54.23
Neigh   | 4.578      | 4.8867     | 5.3603     |  11.6 | 33.56
Comm    | 1.2275     | 1.5027     | 1.7533     |  15.2 | 10.32
Output  | 5.4121e-05 | 6.6876e-05 | 0.00010109 |   0.0 |  0.00
Modify  | 0.20539    | 0.2371     | 0.27       |   5.0 |  1.63
Other   |            | 0.03817    |            |       |  0.26

Nlocal:    3275.33 ave 3300 max 3249 min
Histogram: 1 1 0 0 1 1 0 0 1 1
Nghost:    6853.33 ave 6874 max 6827 min
Histogram: 1 1 0 0 0 1 0 1 1 1
Neighs:    216822 ave 221857 max 212268 min
Histogram: 1 0 0 2 0 1 1 0 0 1

Total # of neighbors = 1300934
Ave neighs/atom = 66.1986
Neighbor list builds = 495
Dangerous builds not checked
Setting up Verlet run ...
  Unit style    : metal
  Current step  : 1107167
  Time step     : 0.001
Per MPI rank memory allocation (min/avg/max) = 5.58 | 5.863 | 6.005 Mbytes
Step Temp Press TotEng PotEng Enthalpy 
 1107167    1598.3539   -1361.5412   -79175.664   -83235.628   -79498.307 
 1133339    1597.4842    1654.7517   -79228.553   -83286.309   -78838.542 
 1173339    1609.0304   -226.95525   -79221.753   -83308.837   -79275.391 
Loop time of 1878.37 on 6 procs for 66172 steps with 19652 atoms

Performance: 3.044 ns/day, 7.885 hours/ns, 35.228 timesteps/s
99.4% CPU use with 6 MPI tasks x no OpenMP threads

MPI task timing breakdown:
Section |  min time  |  avg time  |  max time  |%varavg| %total
---------------------------------------------------------------
Pair    | 1015.7     | 1020.2     | 1023.5     |   9.8 | 54.31
Neigh   | 650.92     | 674.92     | 694.56     |  50.2 | 35.93
Comm    | 134.65     | 157.91     | 187.07     | 122.2 |  8.41
Output  | 0.036492   | 0.036506   | 0.036565   |   0.0 |  0.00
Modify  | 19.74      | 19.974     | 20.258     |   3.6 |  1.06
Other   |            | 5.378      |            |       |  0.29

Nlocal:    3275.33 ave 3299 max 3260 min
Histogram: 2 0 1 0 1 0 1 0 0 1
Nghost:    6861.17 ave 6886 max 6848 min
Histogram: 3 1 0 0 0 0 0 0 1 1
Neighs:    217362 ave 220756 max 212175 min
Histogram: 1 0 0 1 0 0 2 0 0 2

Total # of neighbors = 1304171
Ave neighs/atom = 66.3633
Neighbor list builds = 66172
Dangerous builds not checked
Setting up Verlet run ...
  Unit style    : metal
  Current step  : 1173339
  Time step     : 0.001
Per MPI rank memory allocation (min/avg/max) = 5.58 | 5.863 | 6.005 Mbytes
Step Temp Press TotEng PotEng Enthalpy 
 1173339    1609.0304   -226.95525   -79221.753   -83308.837   -79275.391 
 1173834    1554.0332    577.89551   -79422.764    -83370.15   -79286.534 
Loop time of 13.6316 on 6 procs for 495 steps with 19652 atoms

Performance: 3.137 ns/day, 7.650 hours/ns, 36.313 timesteps/s
99.7% CPU use with 6 MPI tasks x no OpenMP threads

MPI task timing breakdown:
Section |  min time  |  avg time  |  max time  |%varavg| %total
---------------------------------------------------------------
Pair    | 7.391      | 7.4593     | 7.5615     |   2.1 | 54.72
Neigh   | 3.9472     | 4.9623     | 5.2382     |  21.0 | 36.40
Comm    | 0.69811    | 1.0232     | 1.9643     |  43.2 |  7.51
Output  | 4.6968e-05 | 5.6783e-05 | 0.00010395 |   0.0 |  0.00
Modify  | 0.12684    | 0.14491    | 0.15351    |   2.3 |  1.06
Other   |            | 0.04175    |            |       |  0.31

Nlocal:    3275.33 ave 3287 max 3255 min
Histogram: 1 0 1 0 0 0 0 1 1 2
Nghost:    6867.67 ave 6888 max 6844 min
Histogram: 2 0 0 0 0 1 0 1 1 1
Neighs:    217921 ave 220032 max 213498 min
Histogram: 1 0 0 0 0 1 1 0 1 2

Total # of neighbors = 1307524
Ave neighs/atom = 66.5339
Neighbor list builds = 495
Dangerous builds not checked
Setting up Verlet run ...
  Unit style    : metal
  Current step  : 1173834
  Time step     : 0.001
Per MPI rank memory allocation (min/avg/max) = 5.58 | 5.863 | 6.005 Mbytes
Step Temp Press TotEng PotEng Enthalpy 
 1173834    1554.0332    577.89551   -79422.764    -83370.15   -79286.534 
 1200006    1529.8945    270.92607   -79506.057   -83392.129   -79442.311 
 1240006    1552.3196   -90.721999   -79454.836   -83397.869   -79476.223 
Loop time of 1859.58 on 6 procs for 66172 steps with 19652 atoms

Performance: 3.074 ns/day, 7.806 hours/ns, 35.584 timesteps/s
99.7% CPU use with 6 MPI tasks x no OpenMP threads

MPI task timing breakdown:
Section |  min time  |  avg time  |  max time  |%varavg| %total
---------------------------------------------------------------
Pair    | 1010       | 1017.2     | 1023.1     |  14.6 | 54.70
Neigh   | 655.66     | 673.48     | 693.58     |  43.1 | 36.22
Comm    | 122.86     | 143.46     | 164.27     | 103.6 |  7.71
Output  | 0.039213   | 0.039227   | 0.039288   |   0.0 |  0.00
Modify  | 19.74      | 20.047     | 20.497     |   5.7 |  1.08
Other   |            | 5.387      |            |       |  0.29

Nlocal:    3275.33 ave 3306 max 3251 min
Histogram: 2 0 0 0 1 2 0 0 0 1
Nghost:    6881.67 ave 6905 max 6852 min
Histogram: 1 0 0 0 1 2 0 1 0 1
Neighs:    217849 ave 219460 max 212974 min
Histogram: 1 0 0 0 0 0 0 1 1 3

Total # of neighbors = 1307095
Ave neighs/atom = 66.5121
Neighbor list builds = 66172
Dangerous builds not checked
Setting up Verlet run ...
  Unit style    : metal
  Current step  : 1240006
  Time step     : 0.001
Per MPI rank memory allocation (min/avg/max) = 5.58 | 5.863 | 6.005 Mbytes
Step Temp Press TotEng PotEng Enthalpy 
 1240006    1552.3196   -90.721999   -79454.836   -83397.869   -79476.223 
 1240501    1515.8737    72.933802   -79665.388   -83515.846   -79648.225 
Loop time of 13.9764 on 6 procs for 495 steps with 19652 atoms

Performance: 3.060 ns/day, 7.843 hours/ns, 35.417 timesteps/s
99.7% CPU use with 6 MPI tasks x no OpenMP threads

MPI task timing breakdown:
Section |  min time  |  avg time  |  max time  |%varavg| %total
---------------------------------------------------------------
Pair    | 7.4677     | 7.6098     | 7.6926     |   2.7 | 54.45
Neigh   | 4.904      | 5.0959     | 5.3394     |   6.9 | 36.46
Comm    | 0.82818    | 1.0879     | 1.3137     |  14.3 |  7.78
Output  | 5.1022e-05 | 6.0479e-05 | 9.3937e-05 |   0.0 |  0.00
Modify  | 0.13811    | 0.14318    | 0.15106    |   1.1 |  1.02
Other   |            | 0.03965    |            |       |  0.28

Nlocal:    3275.33 ave 3290 max 3259 min
Histogram: 1 0 0 1 0 1 2 0 0 1
Nghost:    6857.67 ave 6879 max 6833 min
Histogram: 2 0 0 0 0 1 0 1 1 1
Neighs:    218404 ave 222968 max 215423 min
Histogram: 2 0 2 0 0 0 0 0 1 1

Total # of neighbors = 1310427
Ave neighs/atom = 66.6816
Neighbor list builds = 495
Dangerous builds not checked
Setting up Verlet run ...
  Unit style    : metal
  Current step  : 1240501
  Time step     : 0.001
Per MPI rank memory allocation (min/avg/max) = 5.58 | 5.863 | 6.005 Mbytes
Step Temp Press TotEng PotEng Enthalpy 
 1240501    1515.8737    72.933802   -79665.388   -83515.846   -79648.225 
 1266673    1496.4648    111.35984   -79730.064   -83531.221    -79703.87 
 1306673    1503.9584   -130.64489   -79693.682   -83513.874   -79724.433 
Loop time of 1888.03 on 6 procs for 66172 steps with 19652 atoms

Performance: 3.028 ns/day, 7.926 hours/ns, 35.048 timesteps/s
99.6% CPU use with 6 MPI tasks x no OpenMP threads

MPI task timing breakdown:
Section |  min time  |  avg time  |  max time  |%varavg| %total
---------------------------------------------------------------
Pair    | 1017.6     | 1026.9     | 1035.8     |  20.2 | 54.39
Neigh   | 684.64     | 691.16     | 699.25     |  20.6 | 36.61
Comm    | 133.64     | 144.05     | 154.32     |  60.4 |  7.63
Output  | 0.033606   | 0.033631   | 0.033687   |   0.0 |  0.00
Modify  | 20.073     | 20.604     | 21.656     |  14.7 |  1.09
Other   |            | 5.275      |            |       |  0.28

Nlocal:    3275.33 ave 3291 max 3255 min
Histogram: 1 0 0 0 0 2 1 1 0 1
Nghost:    6859 ave 6911 max 6835 min
Histogram: 2 2 0 0 0 1 0 0 0 1
Neighs:    218350 ave 222120 max 216032 min
Histogram: 2 1 1 0 0 0 0 0 1 1

Total # of neighbors = 1310097
Ave neighs/atom = 66.6648
Neighbor list builds = 66172
Dangerous builds not checked
Setting up Verlet run ...
  Unit style    : metal
  Current step  : 1306673
  Time step     : 0.001
Per MPI rank memory allocation (min/avg/max) = 5.58 | 5.863 | 6.005 Mbytes
Step Temp Press TotEng PotEng Enthalpy 
 1306673    1503.9584   -130.64489   -79693.682   -83513.874   -79724.433 
 1307168    1454.6449    646.17224   -79915.144   -83610.075   -79763.499 
Loop time of 13.5599 on 6 procs for 495 steps with 19652 atoms

Performance: 3.154 ns/day, 7.609 hours/ns, 36.505 timesteps/s
99.6% CPU use with 6 MPI tasks x no OpenMP threads

MPI task timing breakdown:
Section |  min time  |  avg time  |  max time  |%varavg| %total
---------------------------------------------------------------
Pair    | 7.1513     | 7.3145     | 7.4351     |   3.4 | 53.94
Neigh   | 4.6593     | 4.9194     | 5.1624     |   8.8 | 36.28
Comm    | 0.89112    | 1.1023     | 1.2747     |  12.7 |  8.13
Output  | 5.1022e-05 | 5.9168e-05 | 9.6083e-05 |   0.0 |  0.00
Modify  | 0.16985    | 0.18442    | 0.19611    |   2.1 |  1.36
Other   |            | 0.03927    |            |       |  0.29

Nlocal:    3275.33 ave 3304 max 3259 min
Histogram: 3 0 0 1 0 0 0 1 0 1
Nghost:    6891 ave 6915 max 6866 min
Histogram: 1 1 0 0 0 2 0 0 1 1
Neighs:    218865 ave 221873 max 214403 min
Histogram: 2 0 0 0 0 0 0 0 3 1

Total # of neighbors = 1313191
Ave neighs/atom = 66.8223
Neighbor list builds = 495
Dangerous builds not checked
Setting up Verlet run ...
  Unit style    : metal
  Current step  : 1307168
  Time step     : 0.001
Per MPI rank memory allocation (min/avg/max) = 5.58 | 5.863 | 6.005 Mbytes
Step Temp Press TotEng PotEng Enthalpy 
 1307168    1454.6449    646.17224   -79915.144   -83610.075   -79763.499 
 1333340    1443.5228   -428.52269   -79992.971    -83659.65    -80093.78 
 1373340    1453.4863    710.56946   -79929.946   -83621.934   -79763.057 
Loop time of 1969.88 on 6 procs for 66172 steps with 19652 atoms

Performance: 2.902 ns/day, 8.269 hours/ns, 33.592 timesteps/s
98.9% CPU use with 6 MPI tasks x no OpenMP threads

MPI task timing breakdown:
Section |  min time  |  avg time  |  max time  |%varavg| %total
---------------------------------------------------------------
Pair    | 1046.9     | 1056.7     | 1065.4     |  21.0 | 53.64
Neigh   | 719.76     | 731.27     | 745.03     |  28.6 | 37.12
Comm    | 137.96     | 150.14     | 163.91     |  66.4 |  7.62
Output  | 1.3195     | 1.3195     | 1.3196     |   0.0 |  0.07
Modify  | 24.095     | 25.176     | 26.054     |  15.0 |  1.28
Other   |            | 5.311      |            |       |  0.27

Nlocal:    3275.33 ave 3292 max 3267 min
Histogram: 2 1 0 0 2 0 0 0 0 1
Nghost:    6866.33 ave 6879 max 6845 min
Histogram: 1 0 0 0 0 0 2 2 0 1
Neighs:    218744 ave 221697 max 215191 min
Histogram: 2 0 0 1 0 0 0 0 1 2

Total # of neighbors = 1312467
Ave neighs/atom = 66.7854
Neighbor list builds = 66172
Dangerous builds not checked
Setting up Verlet run ...
  Unit style    : metal
  Current step  : 1373340
  Time step     : 0.001
Per MPI rank memory allocation (min/avg/max) = 5.58 | 5.863 | 6.005 Mbytes
Step Temp Press TotEng PotEng Enthalpy 
 1373340    1453.4863    710.56946   -79929.946   -83621.934   -79763.057 
 1373835    1413.6454    121.24827   -80150.767   -83741.555     -80122.3 
Loop time of 13.9848 on 6 procs for 495 steps with 19652 atoms

Performance: 3.058 ns/day, 7.848 hours/ns, 35.396 timesteps/s
99.4% CPU use with 6 MPI tasks x no OpenMP threads

MPI task timing breakdown:
Section |  min time  |  avg time  |  max time  |%varavg| %total
---------------------------------------------------------------
Pair    | 7.3118     | 7.5068     | 7.6756     |   4.7 | 53.68
Neigh   | 4.7339     | 5.3078     | 5.93       |  18.7 | 37.95
Comm    | 0.54356    | 0.98356    | 1.5089     |  34.5 |  7.03
Output  | 4.9114e-05 | 5.9525e-05 | 9.2983e-05 |   0.0 |  0.00
Modify  | 0.13665    | 0.1456     | 0.15446    |   1.7 |  1.04
Other   |            | 0.04095    |            |       |  0.29

Nlocal:    3275.33 ave 3291 max 3258 min
Histogram: 1 1 0 1 0 0 0 1 0 2
Nghost:    6879 ave 6914 max 6845 min
Histogram: 1 1 0 0 1 0 2 0 0 1
Neighs:    218876 ave 222936 max 213974 min
Histogram: 1 0 0 1 1 0 1 0 1 1

Total # of neighbors = 1313257
Ave neighs/atom = 66.8256
Neighbor list builds = 495
Dangerous builds not checked
Setting up Verlet run ...
  Unit style    : metal
  Current step  : 1373835
  Time step     : 0.001
Per MPI rank memory allocation (min/avg/max) = 5.58 | 5.863 | 6.005 Mbytes
Step Temp Press TotEng PotEng Enthalpy 
 1373835    1413.6454    121.24827   -80150.767   -83741.555     -80122.3 
 1400007    1415.7916    -1333.638   -80175.098   -83771.337   -80488.901 
 1440007    1404.5653   -203.31217   -80192.091   -83759.815   -80239.775 
Loop time of 1943.53 on 6 procs for 66172 steps with 19652 atoms

Performance: 2.942 ns/day, 8.159 hours/ns, 34.047 timesteps/s
99.5% CPU use with 6 MPI tasks x no OpenMP threads

MPI task timing breakdown:
Section |  min time  |  avg time  |  max time  |%varavg| %total
---------------------------------------------------------------
Pair    | 1027.8     | 1038.9     | 1043.6     |  17.6 | 53.45
Neigh   | 725.85     | 744.04     | 755.78     |  37.9 | 38.28
Comm    | 119.97     | 134.85     | 156.87     | 114.6 |  6.94
Output  | 0.045341   | 0.045357   | 0.045411   |   0.0 |  0.00
Modify  | 19.698     | 20.222     | 20.761     |   8.4 |  1.04
Other   |            | 5.482      |            |       |  0.28

Nlocal:    3275.33 ave 3296 max 3262 min
Histogram: 2 0 1 0 1 0 1 0 0 1
Nghost:    6870.83 ave 6894 max 6844 min
Histogram: 1 0 0 1 1 0 1 1 0 1
Neighs:    219092 ave 223610 max 214634 min
Histogram: 2 0 0 0 2 0 0 0 0 2

Total # of neighbors = 1314549
Ave neighs/atom = 66.8914
Neighbor list builds = 66172
Dangerous builds not checked
Setting up Verlet run ...
  Unit style    : metal
  Current step  : 1440007
  Time step     : 0.001
Per MPI rank memory allocation (min/avg/max) = 5.58 | 5.863 | 6.005 Mbytes
Step Temp Press TotEng PotEng Enthalpy 
 1440007    1404.5653   -203.31217   -80192.091   -83759.815   -80239.775 
 1440502    1359.9176   -1465.1529   -80398.403   -83852.718   -80742.548 
Loop time of 14.0838 on 6 procs for 495 steps with 19652 atoms

Performance: 3.037 ns/day, 7.903 hours/ns, 35.147 timesteps/s
99.8% CPU use with 6 MPI tasks x no OpenMP threads

MPI task timing breakdown:
Section |  min time  |  avg time  |  max time  |%varavg| %total
---------------------------------------------------------------
Pair    | 7.3598     | 7.4786     | 7.6027     |   3.4 | 53.10
Neigh   | 5.3752     | 5.5955     | 5.9121     |   7.6 | 39.73
Comm    | 0.52021    | 0.81871    | 0.92876    |  15.6 |  5.81
Output  | 5.3167e-05 | 6.7115e-05 | 0.00011206 |   0.0 |  0.00
Modify  | 0.14606    | 0.14819    | 0.15417    |   0.7 |  1.05
Other   |            | 0.0427     |            |       |  0.30

Nlocal:    3275.33 ave 3290 max 3260 min
Histogram: 2 0 0 1 0 0 0 1 0 2
Nghost:    6873.83 ave 6917 max 6843 min
Histogram: 2 0 1 0 1 0 0 1 0 1
Neighs:    218800 ave 223374 max 214375 min
Histogram: 1 0 1 1 0 1 1 0 0 1

Total # of neighbors = 1312800
Ave neighs/atom = 66.8024
Neighbor list builds = 495
Dangerous builds not checked
Setting up Verlet run ...
  Unit style    : metal
  Current step  : 1440502
  Time step     : 0.001
Per MPI rank memory allocation (min/avg/max) = 5.58 | 5.863 | 6.005 Mbytes
Step Temp Press TotEng PotEng Enthalpy 
 1440502    1359.9176   -1465.1529   -80398.403   -83852.718   -80742.548 
 1466674    1336.6896   -389.15613   -80552.041   -83947.354   -80643.098 
 1506674    1344.7702   -805.72656   -80509.033   -83924.871   -80697.958 
Loop time of 2032.55 on 6 procs for 66172 steps with 19652 atoms

Performance: 2.813 ns/day, 8.532 hours/ns, 32.556 timesteps/s
98.7% CPU use with 6 MPI tasks x no OpenMP threads

MPI task timing breakdown:
Section |  min time  |  avg time  |  max time  |%varavg| %total
---------------------------------------------------------------
Pair    | 1080.7     | 1092.4     | 1100.8     |  26.0 | 53.75
Neigh   | 745.24     | 751.09     | 758.11     |  13.7 | 36.95
Comm    | 141.26     | 156.66     | 168.96     |  77.3 |  7.71
Output  | 0.08774    | 0.087758   | 0.087812   |   0.0 |  0.00
Modify  | 26.37      | 26.812     | 27.171     |   5.7 |  1.32
Other   |            | 5.46       |            |       |  0.27

Nlocal:    3275.33 ave 3287 max 3265 min
Histogram: 2 1 0 0 0 0 0 1 1 1
Nghost:    6883 ave 6897 max 6842 min
Histogram: 1 0 0 0 0 0 0 2 0 3
Neighs:    219143 ave 223677 max 214716 min
Histogram: 1 0 1 0 1 1 0 1 0 1

Total # of neighbors = 1314856
Ave neighs/atom = 66.907
Neighbor list builds = 66172
Dangerous builds not checked
Setting up Verlet run ...
  Unit style    : metal
  Current step  : 1506674
  Time step     : 0.001
Per MPI rank memory allocation (min/avg/max) = 5.58 | 5.863 | 6.005 Mbytes
Step Temp Press TotEng PotEng Enthalpy 
 1506674    1344.7702   -805.72656   -80509.033   -83924.871   -80697.958 
 1507169    1309.6117    -466.5455   -80690.803   -84017.336    -80800.11 
Loop time of 15.5605 on 6 procs for 495 steps with 19652 atoms

Performance: 2.748 ns/day, 8.732 hours/ns, 31.811 timesteps/s
97.5% CPU use with 6 MPI tasks x no OpenMP threads

MPI task timing breakdown:
Section |  min time  |  avg time  |  max time  |%varavg| %total
---------------------------------------------------------------
Pair    | 8.1378     | 8.4272     | 8.6406     |   6.1 | 54.16
Neigh   | 4.9245     | 5.4431     | 6.1834     |  17.0 | 34.98
Comm    | 1.0399     | 1.4954     | 1.8053     |  19.5 |  9.61
Output  | 5.3883e-05 | 6.4492e-05 | 0.00010109 |   0.0 |  0.00
Modify  | 0.14737    | 0.15397    | 0.16187    |   1.3 |  0.99
Other   |            | 0.04079    |            |       |  0.26

Nlocal:    3275.33 ave 3294 max 3252 min
Histogram: 1 0 0 0 0 3 1 0 0 1
Nghost:    6887 ave 6907 max 6869 min
Histogram: 1 0 1 1 1 0 0 0 1 1
Neighs:    219324 ave 222458 max 217226 min
Histogram: 3 0 0 1 0 0 0 0 0 2

Total # of neighbors = 1315946
Ave neighs/atom = 66.9624
Neighbor list builds = 495
Dangerous builds not checked
Setting up Verlet run ...
  Unit style    : metal
  Current step  : 1507169
  Time step     : 0.001
Per MPI rank memory allocation (min/avg/max) = 5.58 | 5.863 | 6.005 Mbytes
Step Temp Press TotEng PotEng Enthalpy 
 1507169    1309.6117    -466.5455   -80690.803   -84017.336    -80800.11 
 1533341    1301.2321   -1428.1233   -80728.957   -84034.205   -81064.173 
 1573341    1297.2332     2.816028   -80772.506   -84067.597   -80771.848 
Loop time of 2017.39 on 6 procs for 66172 steps with 19652 atoms

Performance: 2.834 ns/day, 8.469 hours/ns, 32.801 timesteps/s
98.8% CPU use with 6 MPI tasks x no OpenMP threads

MPI task timing breakdown:
Section |  min time  |  avg time  |  max time  |%varavg| %total
---------------------------------------------------------------
Pair    | 1075.9     | 1085.5     | 1099.2     |  26.5 | 53.80
Neigh   | 740.2      | 747.61     | 756.05     |  20.3 | 37.06
Comm    | 135.37     | 151.48     | 167.27     |  97.1 |  7.51
Output  | 0.044555   | 0.044571   | 0.044632   |   0.0 |  0.00
Modify  | 26.723     | 27.441     | 28.56      |  12.5 |  1.36
Other   |            | 5.36       |            |       |  0.27

Nlocal:    3275.33 ave 3302 max 3254 min
Histogram: 2 1 0 0 0 0 1 1 0 1
Nghost:    6900 ave 6936 max 6872 min
Histogram: 1 2 0 0 0 1 0 1 0 1
Neighs:    220030 ave 221619 max 215578 min
Histogram: 1 0 0 0 0 0 1 0 1 3

Total # of neighbors = 1320181
Ave neighs/atom = 67.1779
Neighbor list builds = 66172
Dangerous builds not checked
Setting up Verlet run ...
  Unit style    : metal
  Current step  : 1573341
  Time step     : 0.001
Per MPI rank memory allocation (min/avg/max) = 5.58 | 5.863 | 6.005 Mbytes
Step Temp Press TotEng PotEng Enthalpy 
 1573341    1297.2332     2.816028   -80772.506   -84067.597   -80771.848 
 1573836    1261.3099    971.92491   -80948.548    -84152.39   -80721.695 
Loop time of 14.5922 on 6 procs for 495 steps with 19652 atoms

Performance: 2.931 ns/day, 8.189 hours/ns, 33.922 timesteps/s
99.2% CPU use with 6 MPI tasks x no OpenMP threads

MPI task timing breakdown:
Section |  min time  |  avg time  |  max time  |%varavg| %total
---------------------------------------------------------------
Pair    | 7.6948     | 7.8815     | 8.0084     |   4.0 | 54.01
Neigh   | 5.2864     | 5.498      | 5.8575     |   8.2 | 37.68
Comm    | 0.78459    | 1.0173     | 1.2084     |  16.5 |  6.97
Output  | 4.6968e-05 | 5.6704e-05 | 9.5129e-05 |   0.0 |  0.00
Modify  | 0.14884    | 0.15594    | 0.1623     |   1.2 |  1.07
Other   |            | 0.03934    |            |       |  0.27

Nlocal:    3275.33 ave 3286 max 3263 min
Histogram: 1 1 0 0 0 1 1 0 0 2
Nghost:    6912.83 ave 6948 max 6882 min
Histogram: 1 1 0 1 0 0 2 0 0 1
Neighs:    220181 ave 222664 max 216402 min
Histogram: 1 0 1 0 0 0 1 1 0 2

Total # of neighbors = 1321088
Ave neighs/atom = 67.2241
Neighbor list builds = 495
Dangerous builds not checked
Setting up Verlet run ...
  Unit style    : metal
  Current step  : 1573836
  Time step     : 0.001
Per MPI rank memory allocation (min/avg/max) = 5.58 | 5.863 | 6.005 Mbytes
Step Temp Press TotEng PotEng Enthalpy 
 1573836    1261.3099    971.92491   -80948.548    -84152.39   -80721.695 
 1600008    1253.4397    1098.8005   -81010.456   -84194.307   -80754.129 
 1640008    1257.7487   -219.16192   -81006.299   -84201.095   -81057.517 
Loop time of 1996.47 on 6 procs for 66172 steps with 19652 atoms

Performance: 2.864 ns/day, 8.381 hours/ns, 33.145 timesteps/s
98.6% CPU use with 6 MPI tasks x no OpenMP threads

MPI task timing breakdown:
Section |  min time  |  avg time  |  max time  |%varavg| %total
---------------------------------------------------------------
Pair    | 1068.5     | 1078.2     | 1087.4     |  22.2 | 54.00
Neigh   | 708.68     | 714.66     | 726.13     |  21.8 | 35.80
Comm    | 157.18     | 166.76     | 183.31     |  69.8 |  8.35
Output  | 0.09914    | 0.099157   | 0.099213   |   0.0 |  0.00
Modify  | 30.572     | 31.686     | 32.835     |  15.4 |  1.59
Other   |            | 5.105      |            |       |  0.26

Nlocal:    3275.33 ave 3298 max 3261 min
Histogram: 1 1 1 0 1 1 0 0 0 1
Nghost:    6881.17 ave 6894 max 6873 min
Histogram: 2 2 0 0 0 0 0 0 0 2
Neighs:    219963 ave 222812 max 216262 min
Histogram: 2 0 0 0 0 0 1 0 2 1

Total # of neighbors = 1319778
Ave neighs/atom = 67.1574
Neighbor list builds = 66172
Dangerous builds not checked
Setting up Verlet run ...
  Unit style    : metal
  Current step  : 1640008
  Time step     : 0.001
Per MPI rank memory allocation (min/avg/max) = 5.58 | 5.863 | 6.005 Mbytes
Step Temp Press TotEng PotEng Enthalpy 
 1640008    1257.7487   -219.16192   -81006.299   -84201.095   -81057.517 
 1640503     1221.797    66.602411   -81216.633   -84320.109   -81201.121 
Loop time of 16.4604 on 6 procs for 495 steps with 19652 atoms

Performance: 2.598 ns/day, 9.237 hours/ns, 30.072 timesteps/s
95.5% CPU use with 6 MPI tasks x no OpenMP threads

MPI task timing breakdown:
Section |  min time  |  avg time  |  max time  |%varavg| %total
---------------------------------------------------------------
Pair    | 9.8827     | 10.032     | 10.162     |   3.1 | 60.95
Neigh   | 4.7322     | 5.0125     | 5.2086     |   6.8 | 30.45
Comm    | 1.1306     | 1.2387     | 1.4405     |   9.7 |  7.53
Output  | 4.6968e-05 | 5.424e-05  | 8.5115e-05 |   0.0 |  0.00
Modify  | 0.13412    | 0.13895    | 0.14173    |   0.7 |  0.84
Other   |            | 0.03811    |            |       |  0.23

Nlocal:    3275.33 ave 3293 max 3264 min
Histogram: 1 1 1 1 0 1 0 0 0 1
Nghost:    6920.33 ave 6939 max 6893 min
Histogram: 1 0 0 1 0 0 1 1 1 1
Neighs:    220627 ave 222988 max 217795 min
Histogram: 2 0 0 0 1 0 0 0 1 2

Total # of neighbors = 1323760
Ave neighs/atom = 67.3601
Neighbor list builds = 495
Dangerous builds not checked
Setting up Verlet run ...
  Unit style    : metal
  Current step  : 1640503
  Time step     : 0.001
Per MPI rank memory allocation (min/avg/max) = 5.58 | 5.863 | 6.005 Mbytes
Step Temp Press TotEng PotEng Enthalpy 
 1640503     1221.797    66.602411   -81216.633   -84320.109   -81201.121 
 1666675    1202.0247    1164.4745   -81306.188    -84359.44    -81035.42 
 1706675    1196.2645   -1006.4391   -81300.368   -84338.988    -81535.26 
Loop time of 1986.8 on 6 procs for 66172 steps with 19652 atoms

Performance: 2.878 ns/day, 8.340 hours/ns, 33.306 timesteps/s
98.4% CPU use with 6 MPI tasks x no OpenMP threads

MPI task timing breakdown:
Section |  min time  |  avg time  |  max time  |%varavg| %total
---------------------------------------------------------------
Pair    | 1054.9     | 1063       | 1071.3     |  17.7 | 53.50
Neigh   | 687.74     | 703.47     | 721.57     |  45.6 | 35.41
Comm    | 159.98     | 182.77     | 203.05     |  97.0 |  9.20
Output  | 0.090452   | 0.090468   | 0.09051    |   0.0 |  0.00
Modify  | 29.135     | 32.335     | 34.406     |  38.8 |  1.63
Other   |            | 5.154      |            |       |  0.26

Nlocal:    3275.33 ave 3297 max 3262 min
Histogram: 2 0 1 0 1 1 0 0 0 1
Nghost:    6911 ave 6936 max 6898 min
Histogram: 2 2 0 0 0 0 1 0 0 1
Neighs:    220227 ave 225506 max 216633 min
Histogram: 1 1 0 2 0 0 1 0 0 1

Total # of neighbors = 1321360
Ave neighs/atom = 67.2379
Neighbor list builds = 66172
Dangerous builds not checked
Setting up Verlet run ...
  Unit style    : metal
  Current step  : 1706675
  Time step     : 0.001
Per MPI rank memory allocation (min/avg/max) = 5.58 | 5.863 | 6.005 Mbytes
Step Temp Press TotEng PotEng Enthalpy 
 1706675    1196.2645   -1006.4391   -81300.368   -84338.988    -81535.26 
 1707170    1160.3704   -897.91043   -81497.772   -84445.219   -81707.186 
Loop time of 17.4645 on 6 procs for 495 steps with 19652 atoms

Performance: 2.449 ns/day, 9.801 hours/ns, 28.343 timesteps/s
92.8% CPU use with 6 MPI tasks x no OpenMP threads

MPI task timing breakdown:
Section |  min time  |  avg time  |  max time  |%varavg| %total
---------------------------------------------------------------
Pair    | 9.6959     | 9.8979     | 10.239     |   5.6 | 56.67
Neigh   | 4.7533     | 5.5973     | 6.0317     |  18.9 | 32.05
Comm    | 0.79076    | 1.2938     | 1.8669     |  31.4 |  7.41
Output  | 4.5061e-05 | 5.6704e-05 | 9.6083e-05 |   0.0 |  0.00
Modify  | 0.21451    | 0.27955    | 0.31178    |   7.8 |  1.60
Other   |            | 0.3959     |            |       |  2.27

Nlocal:    3275.33 ave 3288 max 3267 min
Histogram: 2 0 0 1 1 1 0 0 0 1
Nghost:    6897.67 ave 6926 max 6865 min
Histogram: 1 0 1 0 0 0 2 1 0 1
Neighs:    220333 ave 223455 max 217137 min
[...]
Loop time of 13.1266 on 6 procs for 495 steps with 19652 atoms

Performance: 3.258 ns/day, 7.366 hours/ns, 37.710 timesteps/s
100.0% CPU use with 6 MPI tasks x no OpenMP threads

MPI task timing breakdown:
Section |  min time  |  avg time  |  max time  |%varavg| %total
---------------------------------------------------------------
Pair    | 6.7069     | 7.1268     | 7.3474     |   8.0 | 54.29
Neigh   | 4.3436     | 4.6986     | 5.3547     |  15.2 | 35.79
Comm    | 0.87614    | 1.1287     | 1.3245     |  15.0 |  8.60
Output  | 5.1975e-05 | 6.2188e-05 | 0.00010586 |   0.0 |  0.00
Modify  | 0.12559    | 0.13312    | 0.14734    |   1.9 |  1.01
Other   |            | 0.03922    |            |       |  0.30

Nlocal:    3275.33 ave 3288 max 3258 min
Histogram: 1 0 0 0 0 2 0 2 0 1
Nghost:    6949.17 ave 6962 max 6929 min
Histogram: 1 0 0 1 0 0 2 0 0 2
Neighs:    224320 ave 228056 max 220519 min
Histogram: 1 0 1 0 1 0 1 1 0 1

Total # of neighbors = 1345922
Ave neighs/atom = 68.4878
Neighbor list builds = 495
Dangerous builds not checked
Setting up Verlet run ...
  Unit style    : metal
  Current step  : 2707175
  Time step     : 0.001
Per MPI rank memory allocation (min/avg/max) = 5.58 | 5.863 | 6.005 Mbytes
Step Temp Press TotEng PotEng Enthalpy 
 2707175    419.62348     832.8738   -87042.485   -88108.367   -86851.539 
 2733347    401.10569    180.04141   -87265.472   -88284.317   -87224.157 
 2773347    398.07197   -530.34378   -87288.797   -88299.936   -87410.677 
Loop time of 1706.7 on 6 procs for 66172 steps with 19652 atoms

Performance: 3.350 ns/day, 7.164 hours/ns, 38.772 timesteps/s
99.7% CPU use with 6 MPI tasks x no OpenMP threads

MPI task timing breakdown:
Section |  min time  |  avg time  |  max time  |%varavg| %total
---------------------------------------------------------------
Pair    | 907.8      | 924.36     | 936.84     |  29.5 | 54.16
Neigh   | 575.83     | 604.58     | 633.4      |  71.4 | 35.42
Comm    | 126.13     | 154.03     | 185.07     | 142.3 |  9.03
Output  | 0.042217   | 0.04223    | 0.042277   |   0.0 |  0.00
Modify  | 18.253     | 18.629     | 19.188     |   7.8 |  1.09
Other   |            | 5.053      |            |       |  0.30

Nlocal:    3275.33 ave 3288 max 3265 min
Histogram: 1 0 2 1 0 0 0 0 0 2
Nghost:    6950.83 ave 6965 max 6942 min
Histogram: 3 0 0 1 0 0 0 0 0 2
Neighs:    223649 ave 227217 max 219962 min
Histogram: 1 0 1 0 1 1 0 0 1 1

Total # of neighbors = 1341894
Ave neighs/atom = 68.2828
Neighbor list builds = 66172
Dangerous builds not checked
Setting up Verlet run ...
  Unit style    : metal
  Current step  : 2773347
  Time step     : 0.001
Per MPI rank memory allocation (min/avg/max) = 5.58 | 5.863 | 6.005 Mbytes
Step Temp Press TotEng PotEng Enthalpy 
 2773347    398.07197   -530.34378   -87288.797   -88299.936   -87410.677 
 2773842    371.73853    217.88421   -87442.967   -88387.217   -87392.935 
Loop time of 12.1225 on 6 procs for 495 steps with 19652 atoms

Performance: 3.528 ns/day, 6.803 hours/ns, 40.833 timesteps/s
100.0% CPU use with 6 MPI tasks x no OpenMP threads

MPI task timing breakdown:
Section |  min time  |  avg time  |  max time  |%varavg| %total
---------------------------------------------------------------
Pair    | 6.3573     | 6.5868     | 6.7297     |   4.5 | 54.34
Neigh   | 4.0502     | 4.3443     | 5.1506     |  19.3 | 35.84
Comm    | 0.44017    | 1.0328     | 1.2906     |  30.1 |  8.52
Output  | 4.7922e-05 | 5.7777e-05 | 8.893e-05  |   0.0 |  0.00
Modify  | 0.11387    | 0.12111    | 0.13454    |   2.0 |  1.00
Other   |            | 0.03744    |            |       |  0.31

Nlocal:    3275.33 ave 3285 max 3254 min
Histogram: 1 0 0 0 0 1 1 0 0 3
Nghost:    6951.67 ave 6980 max 6915 min
Histogram: 1 0 0 0 1 1 2 0 0 1
Neighs:    223856 ave 228154 max 221029 min
Histogram: 1 1 0 1 2 0 0 0 0 1

Total # of neighbors = 1343137
Ave neighs/atom = 68.3461
Neighbor list builds = 495
Dangerous builds not checked
Setting up Verlet run ...
  Unit style    : metal
  Current step  : 2773842
  Time step     : 0.001
Per MPI rank memory allocation (min/avg/max) = 5.58 | 5.863 | 6.005 Mbytes
Step Temp Press TotEng PotEng Enthalpy 
 2773842    371.73853    217.88421   -87442.967   -88387.217   -87392.935 
 2800014    351.35367    618.87913   -87600.379   -88492.849   -87458.503 
 2840014    350.43236    974.99562   -87629.256   -88519.386   -87405.799 
Loop time of 1749.86 on 6 procs for 66172 steps with 19652 atoms

Performance: 3.267 ns/day, 7.346 hours/ns, 37.816 timesteps/s
99.8% CPU use with 6 MPI tasks x no OpenMP threads

MPI task timing breakdown:
Section |  min time  |  avg time  |  max time  |%varavg| %total
---------------------------------------------------------------
Pair    | 935.26     | 946.09     | 960.66     |  28.5 | 54.07
Neigh   | 611.24     | 623.08     | 643.8      |  50.6 | 35.61
Comm    | 146.13     | 156.34     | 168.47     |  64.6 |  8.93
Output  | 0.19886    | 0.19888    | 0.19894    |   0.0 |  0.01
Modify  | 18.231     | 18.848     | 19.424     |   8.1 |  1.08
Other   |            | 5.304      |            |       |  0.30

Nlocal:    3275.33 ave 3279 max 3268 min
Histogram: 1 0 0 0 0 1 0 1 1 2
Nghost:    6957.17 ave 6987 max 6944 min
Histogram: 2 1 1 1 0 0 0 0 0 1
Neighs:    224214 ave 226877 max 221082 min
Histogram: 1 1 0 0 0 1 1 0 0 2

Total # of neighbors = 1345287
Ave neighs/atom = 68.4555
Neighbor list builds = 66172
Dangerous builds not checked
Setting up Verlet run ...
  Unit style    : metal
  Current step  : 2840014
  Time step     : 0.001
Per MPI rank memory allocation (min/avg/max) = 5.58 | 5.863 | 6.005 Mbytes
Step Temp Press TotEng PotEng Enthalpy 
 2840014    350.43236    974.99562   -87629.256   -88519.386   -87405.799 
 2840509    321.87562   -523.08116   -87776.739   -88594.332   -87896.796 
Loop time of 13.0634 on 6 procs for 495 steps with 19652 atoms

Performance: 3.274 ns/day, 7.331 hours/ns, 37.892 timesteps/s
100.0% CPU use with 6 MPI tasks x no OpenMP threads

MPI task timing breakdown:
Section |  min time  |  avg time  |  max time  |%varavg| %total
---------------------------------------------------------------
Pair    | 6.9858     | 7.1751     | 7.2644     |   3.4 | 54.92
Neigh   | 4.0973     | 4.5038     | 5.0773     |  13.8 | 34.48
Comm    | 0.81773    | 1.2155     | 1.5391     |  19.3 |  9.30
Output  | 4.8161e-05 | 5.5114e-05 | 8.297e-05  |   0.0 |  0.00
Modify  | 0.12349    | 0.13009    | 0.14242    |   1.8 |  1.00
Other   |            | 0.03891    |            |       |  0.30

Nlocal:    3275.33 ave 3306 max 3252 min
Histogram: 2 0 0 0 2 1 0 0 0 1
Nghost:    6950.33 ave 6965 max 6927 min
Histogram: 1 0 0 0 0 2 0 1 1 1
Neighs:    223882 ave 227152 max 219130 min
Histogram: 1 0 0 1 0 0 2 0 1 1

Total # of neighbors = 1343295
Ave neighs/atom = 68.3541
Neighbor list builds = 495
Dangerous builds not checked
Setting up Verlet run ...
  Unit style    : metal
  Current step  : 2840509
  Time step     : 0.001
Per MPI rank memory allocation (min/avg/max) = 5.58 | 5.863 | 6.005 Mbytes
Step Temp Press TotEng PotEng Enthalpy 
 2840509    321.87562   -523.08116   -87776.739   -88594.332   -87896.796 
 2866681    300.81923     -2.38787   -87920.075   -88684.183   -87920.622 
 2906681     300.7174   -263.15173   -87933.095   -88696.944   -87993.426 
Loop time of 1857.04 on 6 procs for 66172 steps with 19652 atoms

Performance: 3.079 ns/day, 7.796 hours/ns, 35.633 timesteps/s
99.2% CPU use with 6 MPI tasks x no OpenMP threads

MPI task timing breakdown:
Section |  min time  |  avg time  |  max time  |%varavg| %total
---------------------------------------------------------------
Pair    | 997.78     | 1003.9     | 1009       |  12.2 | 54.06
Neigh   | 621.5      | 643.63     | 663.12     |  64.3 | 34.66
Comm    | 158.62     | 173.45     | 193.18     | 105.7 |  9.34
Output  | 0.045587   | 0.045606   | 0.045673   |   0.0 |  0.00
Modify  | 29.782     | 30.759     | 31.5       |  12.8 |  1.66
Other   |            | 5.288      |            |       |  0.28

Nlocal:    3275.33 ave 3294 max 3254 min
Histogram: 1 0 0 1 0 0 3 0 0 1
Nghost:    6954.17 ave 6967 max 6938 min
Histogram: 1 0 0 0 2 1 0 0 1 1
Neighs:    224077 ave 227627 max 218969 min
Histogram: 1 0 0 1 0 1 0 1 1 1

Total # of neighbors = 1344464
Ave neighs/atom = 68.4136
Neighbor list builds = 66172
Dangerous builds not checked
Setting up Verlet run ...
  Unit style    : metal
  Current step  : 2906681
  Time step     : 0.001
Per MPI rank memory allocation (min/avg/max) = 5.58 | 5.863 | 6.005 Mbytes
Step Temp Press TotEng PotEng Enthalpy 
 2906681     300.7174   -263.15173   -87933.095   -88696.944   -87993.426 
 2907176     272.8477    -14.62146   -88068.761   -88761.819    -88072.11 
Loop time of 13.7832 on 6 procs for 495 steps with 19652 atoms

Performance: 3.103 ns/day, 7.735 hours/ns, 35.913 timesteps/s
99.9% CPU use with 6 MPI tasks x no OpenMP threads

MPI task timing breakdown:
Section |  min time  |  avg time  |  max time  |%varavg| %total
---------------------------------------------------------------
Pair    | 7.243      | 7.4142     | 7.5322     |   4.4 | 53.79
Neigh   | 4.6295     | 5.1099     | 5.8107     |  19.5 | 37.07
Comm    | 0.52032    | 1.0673     | 1.4406     |  33.0 |  7.74
Output  | 4.1962e-05 | 5.0028e-05 | 7.9155e-05 |   0.0 |  0.00
Modify  | 0.13791    | 0.1456     | 0.15569    |   1.7 |  1.06
Other   |            | 0.04619    |            |       |  0.34

Nlocal:    3275.33 ave 3287 max 3266 min
Histogram: 2 0 0 1 1 0 0 1 0 1
Nghost:    6962 ave 6985 max 6942 min
Histogram: 1 1 0 0 1 0 2 0 0 1
Neighs:    224320 ave 226987 max 220375 min
Histogram: 1 0 1 0 0 0 1 1 0 2

Total # of neighbors = 1345918
Ave neighs/atom = 68.4876
Neighbor list builds = 495
Dangerous builds not checked
Setting up Verlet run ...
  Unit style    : metal
  Current step  : 2907176
  Time step     : 0.001
Per MPI rank memory allocation (min/avg/max) = 5.58 | 5.863 | 6.005 Mbytes
Step Temp Press TotEng PotEng Enthalpy 
 2907176     272.8477    -14.62146   -88068.761   -88761.819    -88072.11 
 2933348    248.99403   -409.80276   -88206.459   -88838.927   -88300.296 
 2973348    246.57277    381.38065   -88214.321   -88840.638    -88127.08 
Loop time of 1834.73 on 6 procs for 66172 steps with 19652 atoms

Performance: 3.116 ns/day, 7.702 hours/ns, 36.066 timesteps/s
99.8% CPU use with 6 MPI tasks x no OpenMP threads

MPI task timing breakdown:
Section |  min time  |  avg time  |  max time  |%varavg| %total
---------------------------------------------------------------
Pair    | 983.84     | 997.54     | 1004.1     |  22.2 | 54.37
Neigh   | 648.2      | 655.41     | 668.42     |  27.6 | 35.72
Comm    | 136.52     | 155.99     | 177.21     | 103.5 |  8.50
Output  | 0.041095   | 0.041116   | 0.041174   |   0.0 |  0.00
Modify  | 19.592     | 19.829     | 20.093     |   4.0 |  1.08
Other   |            | 5.923      |            |       |  0.32

Nlocal:    3275.33 ave 3286 max 3252 min
Histogram: 1 0 0 0 1 0 0 0 2 2
Nghost:    6957.33 ave 6993 max 6934 min
Histogram: 1 2 1 0 0 0 0 1 0 1
Neighs:    224536 ave 228023 max 220161 min
Histogram: 1 0 0 1 0 0 3 0 0 1

Total # of neighbors = 1347215
Ave neighs/atom = 68.5536
Neighbor list builds = 66172
Dangerous builds not checked
Setting up Verlet run ...
  Unit style    : metal
  Current step  : 2973348
  Time step     : 0.001
Per MPI rank memory allocation (min/avg/max) = 5.58 | 5.863 | 6.005 Mbytes
Step Temp Press TotEng PotEng Enthalpy 
 2973348    246.57277    381.38065   -88214.321   -88840.638    -88127.08 
 2973843    225.44019     29.45081   -88347.352   -88919.991   -88340.619 
Loop time of 13.68 on 6 procs for 495 steps with 19652 atoms

Performance: 3.126 ns/day, 7.677 hours/ns, 36.184 timesteps/s
99.6% CPU use with 6 MPI tasks x no OpenMP threads

MPI task timing breakdown:
Section |  min time  |  avg time  |  max time  |%varavg| %total
---------------------------------------------------------------
Pair    | 7.2011     | 7.4517     | 7.6484     |   5.1 | 54.47
Neigh   | 4.2776     | 4.7666     | 5.8502     |  23.2 | 34.84
Comm    | 0.41646    | 1.2774     | 1.5761     |  35.3 |  9.34
Output  | 4.8161e-05 | 5.9565e-05 | 0.00010204 |   0.0 |  0.00
Modify  | 0.13308    | 0.14198    | 0.1625     |   2.7 |  1.04
Other   |            | 0.04229    |            |       |  0.31

Nlocal:    3275.33 ave 3287 max 3251 min
Histogram: 1 0 0 0 0 0 1 1 2 1
Nghost:    6957.17 ave 6970 max 6944 min
Histogram: 1 1 0 0 0 1 1 1 0 1
Neighs:    224659 ave 227565 max 221046 min
Histogram: 1 0 1 0 0 0 1 2 0 1

Total # of neighbors = 1347954
Ave neighs/atom = 68.5912
Neighbor list builds = 495
Dangerous builds not checked
Setting up Verlet run ...
  Unit style    : metal
  Current step  : 2973843
  Time step     : 0.001
Per MPI rank memory allocation (min/avg/max) = 5.58 | 5.863 | 6.005 Mbytes
Step Temp Press TotEng PotEng Enthalpy 
 2973843    225.44019     29.45081   -88347.352   -88919.991   -88340.619 
 3000015     202.1207    231.19727    -88474.96   -88988.365   -88422.139 
 3040015    200.98714    143.59715   -88482.348   -88992.874    -88449.53 
Loop time of 1780.87 on 6 procs for 66172 steps with 19652 atoms

Performance: 3.210 ns/day, 7.476 hours/ns, 37.157 timesteps/s
99.1% CPU use with 6 MPI tasks x no OpenMP threads

MPI task timing breakdown:
Section |  min time  |  avg time  |  max time  |%varavg| %total
---------------------------------------------------------------
Pair    | 935.58     | 952.82     | 961.5      |  31.2 | 53.50
Neigh   | 607.88     | 619.54     | 644.01     |  48.5 | 34.79
Comm    | 148.84     | 161.8      | 180.8      |  83.4 |  9.09
Output  | 0.10767    | 2.0316     | 11.651     | 301.8 |  0.11
Modify  | 28.977     | 29.614     | 29.971     |   6.7 |  1.66
Other   |            | 15.06      |            |       |  0.85

Nlocal:    3275.33 ave 3289 max 3263 min
Histogram: 1 0 0 3 0 0 0 0 1 1
Nghost:    6973 ave 7002 max 6948 min
Histogram: 1 0 2 0 0 1 0 0 1 1
Neighs:    224706 ave 227377 max 220188 min
Histogram: 1 0 0 0 1 1 0 1 0 2

Total # of neighbors = 1348234
Ave neighs/atom = 68.6054
Neighbor list builds = 66172
Dangerous builds not checked
Setting up Verlet run ...
  Unit style    : metal
  Current step  : 3040015
  Time step     : 0.001
Per MPI rank memory allocation (min/avg/max) = 5.58 | 5.863 | 6.005 Mbytes
Step Temp Press TotEng PotEng Enthalpy 
 3040015    200.98714    143.59715   -88482.348   -88992.874    -88449.53 
 3040510    175.23693   -307.45609   -88612.864   -89057.982   -88683.119 
Loop time of 13.7945 on 6 procs for 495 steps with 19652 atoms

Performance: 3.100 ns/day, 7.741 hours/ns, 35.884 timesteps/s
99.8% CPU use with 6 MPI tasks x no OpenMP threads

MPI task timing breakdown:
Section |  min time  |  avg time  |  max time  |%varavg| %total
---------------------------------------------------------------
Pair    | 7.3289     | 7.4707     | 7.7211     |   4.5 | 54.16
Neigh   | 4.2411     | 4.95       | 5.6667     |  19.4 | 35.88
Comm    | 0.59499    | 1.1896     | 1.6616     |  30.3 |  8.62
Output  | 4.6968e-05 | 5.5512e-05 | 8.7023e-05 |   0.0 |  0.00
Modify  | 0.13206    | 0.1426     | 0.15735    |   2.3 |  1.03
Other   |            | 0.04163    |            |       |  0.30

Nlocal:    3275.33 ave 3286 max 3261 min
Histogram: 1 0 0 1 1 0 1 0 0 2
Nghost:    6975.33 ave 6997 max 6956 min
Histogram: 1 1 0 1 0 1 1 0 0 1
Neighs:    224747 ave 227250 max 221074 min
Histogram: 1 0 1 0 0 0 0 2 1 1

Total # of neighbors = 1348481
Ave neighs/atom = 68.618
Neighbor list builds = 495
Dangerous builds not checked
Setting up Verlet run ...
  Unit style    : metal
  Current step  : 3040510
  Time step     : 0.001
Per MPI rank memory allocation (min/avg/max) = 5.58 | 5.863 | 6.005 Mbytes
Step Temp Press TotEng PotEng Enthalpy 
 3040510    175.23693   -307.45609   -88612.864   -89057.982   -88683.119 
 3066682    149.44302    218.69599   -88752.387   -89131.985   -88702.478 
 3106682    151.07205    176.08134   -88753.625   -89137.361    -88713.45 
Loop time of 1824.46 on 6 procs for 66172 steps with 19652 atoms

Performance: 3.134 ns/day, 7.659 hours/ns, 36.269 timesteps/s
99.8% CPU use with 6 MPI tasks x no OpenMP threads

MPI task timing breakdown:
Section |  min time  |  avg time  |  max time  |%varavg| %total
---------------------------------------------------------------
Pair    | 977.45     | 987.11     | 994.85     |  19.2 | 54.10
Neigh   | 621.49     | 642.47     | 659.41     |  48.9 | 35.21
Comm    | 149.27     | 169.9      | 186.95     | 103.7 |  9.31
Output  | 0.11125    | 0.11127    | 0.11136    |   0.0 |  0.01
Modify  | 18.677     | 19.374     | 19.819     |   8.1 |  1.06
Other   |            | 5.496      |            |       |  0.30

Nlocal:    3275.33 ave 3292 max 3264 min
Histogram: 1 1 1 0 0 1 1 0 0 1
Nghost:    6971 ave 7005 max 6952 min
Histogram: 2 1 0 1 0 1 0 0 0 1
Neighs:    225106 ave 227251 max 220983 min
Histogram: 1 0 0 1 0 0 0 1 1 2

Total # of neighbors = 1350633
Ave neighs/atom = 68.7275
Neighbor list builds = 66172
Dangerous builds not checked
Setting up Verlet run ...
  Unit style    : metal
  Current step  : 3106682
  Time step     : 0.001
Per MPI rank memory allocation (min/avg/max) = 5.58 | 5.863 | 6.005 Mbytes
Step Temp Press TotEng PotEng Enthalpy 
 3106682    151.07205    176.08134   -88753.625   -89137.361    -88713.45 
 3107177    127.45181    104.69029   -88874.211    -89197.95   -88850.336 
Loop time of 14.5032 on 6 procs for 495 steps with 19652 atoms

Performance: 2.949 ns/day, 8.139 hours/ns, 34.130 timesteps/s
99.9% CPU use with 6 MPI tasks x no OpenMP threads

MPI task timing breakdown:
Section |  min time  |  avg time  |  max time  |%varavg| %total
---------------------------------------------------------------
Pair    | 7.4773     | 7.7144     | 7.8446     |   4.7 | 53.19
Neigh   | 4.619      | 5.2056     | 5.7926     |  19.1 | 35.89
Comm    | 0.71596    | 1.3852     | 1.852      |  34.5 |  9.55
Output  | 5.0068e-05 | 6.1194e-05 | 0.00011206 |   0.0 |  0.00
Modify  | 0.14482    | 0.15395    | 0.16379    |   1.8 |  1.06
Other   |            | 0.04393    |            |       |  0.30

Nlocal:    3275.33 ave 3298 max 3266 min
Histogram: 2 1 2 0 0 0 0 0 0 1
Nghost:    6971 ave 7000 max 6941 min
Histogram: 1 0 0 2 0 0 2 0 0 1
Neighs:    225166 ave 227775 max 221143 min
Histogram: 1 1 0 0 0 0 1 0 1 2

Total # of neighbors = 1350999
Ave neighs/atom = 68.7461
Neighbor list builds = 495
Dangerous builds not checked
Setting up Verlet run ...
  Unit style    : metal
  Current step  : 3107177
  Time step     : 0.001
Per MPI rank memory allocation (min/avg/max) = 5.58 | 5.863 | 6.005 Mbytes
Step Temp Press TotEng PotEng Enthalpy 
 3107177    127.45181    104.69029   -88874.211    -89197.95   -88850.336 
 3133349    99.919506    221.57031   -89017.241   -89271.046    -88966.75 
 3173349    99.280489   -324.69662   -89020.756   -89272.937   -89094.783 
Loop time of 1844.47 on 6 procs for 66172 steps with 19652 atoms

Performance: 3.100 ns/day, 7.743 hours/ns, 35.876 timesteps/s
99.7% CPU use with 6 MPI tasks x no OpenMP threads

MPI task timing breakdown:
Section |  min time  |  avg time  |  max time  |%varavg| %total
---------------------------------------------------------------
Pair    | 986.41     | 994.29     | 1004.1     |  20.1 | 53.91
Neigh   | 643.84     | 651.03     | 658.37     |  22.6 | 35.30
Comm    | 158.77     | 173.49     | 188.47     |  68.8 |  9.41
Output  | 0.040993   | 0.041009   | 0.041077   |   0.0 |  0.00
Modify  | 20.043     | 20.192     | 20.544     |   3.8 |  1.09
Other   |            | 5.435      |            |       |  0.29

Nlocal:    3275.33 ave 3295 max 3264 min
Histogram: 1 1 1 1 1 0 0 0 0 1
Nghost:    6978.17 ave 7005 max 6948 min
Histogram: 1 0 0 0 2 1 0 1 0 1
Neighs:    225258 ave 227541 max 221679 min
Histogram: 1 0 1 0 0 1 0 0 1 2

Total # of neighbors = 1351551
Ave neighs/atom = 68.7742
Neighbor list builds = 66172
Dangerous builds not checked
Total wall time: 25:12:23
