LAMMPS (12 Dec 2018)
Lattice spacing in x,y,z = 4 4 4
Created orthogonal box = (0 0 0) to (68 68 68)
  1 by 1 by 1 MPI processor grid
Created 19652 atoms
  Time spent = 0.0047369 secs
Setting atom values ...
  19480 settings made for type/fraction
Neighbor list info ...
  update every 1 steps, delay 0 steps, check no
  max neighbors/atom: 2000, page size: 100000
  master list distance cutoff = 8.5
  ghost atom cutoff = 8.5
  binsize = 4.25, bins = 16 16 16
  1 neighbor lists, perpetual/occasional/extra = 1 0 0
  (1) pair eam/alloy, perpetual
      attributes: half, newton on
      pair build: half/bin/atomonly/newton
      stencil: half/bin/3d/newton
      bin: standard
Setting up Verlet run ...
  Unit style    : metal
  Current step  : 0
  Time step     : 0.001
Per MPI rank memory allocation (min/avg/max) = 18.19 | 18.19 | 18.19 Mbytes
Step Temp Press TotEng PotEng Enthalpy 
       0          300    58241.258   -55124.656   -55886.684   -43694.633 
    1000    155.24363    64828.377   -55124.608   -55518.941   -42401.842 
Loop time of 153.684 on 1 procs for 1000 steps with 19652 atoms

Performance: 0.562 ns/day, 42.690 hours/ns, 6.507 timesteps/s
99.4% CPU use with 1 MPI tasks x no OpenMP threads

MPI task timing breakdown:
Section |  min time  |  avg time  |  max time  |%varavg| %total
---------------------------------------------------------------
Pair    | 87.861     | 87.861     | 87.861     |   0.0 | 57.17
Neigh   | 63.805     | 63.805     | 63.805     |   0.0 | 41.52
Comm    | 1.1977     | 1.1977     | 1.1977     |   0.0 |  0.78
Output  | 0.00017214 | 0.00017214 | 0.00017214 |   0.0 |  0.00
Modify  | 0.41869    | 0.41869    | 0.41869    |   0.0 |  0.27
Other   |            | 0.4013     |            |       |  0.26

Nlocal:    19652 ave 19652 max 19652 min
Histogram: 1 0 0 0 0 0 0 0 0 0
Nghost:    20102 ave 20102 max 20102 min
Histogram: 1 0 0 0 0 0 0 0 0 0
Neighs:    1.57409e+06 ave 1.57409e+06 max 1.57409e+06 min
Histogram: 1 0 0 0 0 0 0 0 0 0

Total # of neighbors = 1574091
Ave neighs/atom = 80.0983
Neighbor list builds = 1000
Dangerous builds not checked
Setting up Verlet run ...
  Unit style    : metal
  Current step  : 1000
  Time step     : 0.001
Per MPI rank memory allocation (min/avg/max) = 18.19 | 18.19 | 18.19 Mbytes
Step Temp Press TotEng PotEng Enthalpy 
    1000    155.24363    64828.377   -55124.608   -55518.941   -42401.842 
    2000    290.94321    74.975864   -54648.733   -55387.756   -54632.984 
Loop time of 144.632 on 1 procs for 1000 steps with 19652 atoms

Performance: 0.597 ns/day, 40.176 hours/ns, 6.914 timesteps/s
97.7% CPU use with 1 MPI tasks x no OpenMP threads

MPI task timing breakdown:
Section |  min time  |  avg time  |  max time  |%varavg| %total
---------------------------------------------------------------
Pair    | 80.135     | 80.135     | 80.135     |   0.0 | 55.41
Neigh   | 61.555     | 61.555     | 61.555     |   0.0 | 42.56
Comm    | 1.1455     | 1.1455     | 1.1455     |   0.0 |  0.79
Output  | 0.00018001 | 0.00018001 | 0.00018001 |   0.0 |  0.00
Modify  | 1.404      | 1.404      | 1.404      |   0.0 |  0.97
Other   |            | 0.3917     |            |       |  0.27

Nlocal:    19652 ave 19652 max 19652 min
Histogram: 1 0 0 0 0 0 0 0 0 0
Nghost:    20088 ave 20088 max 20088 min
Histogram: 1 0 0 0 0 0 0 0 0 0
Neighs:    1.4109e+06 ave 1.4109e+06 max 1.4109e+06 min
Histogram: 1 0 0 0 0 0 0 0 0 0

Total # of neighbors = 1410895
Ave neighs/atom = 71.794
Neighbor list builds = 1000
Dangerous builds not checked
Setting up Verlet run ...
  Unit style    : metal
  Current step  : 2000
  Time step     : 0.001
Per MPI rank memory allocation (min/avg/max) = 18.19 | 18.19 | 18.19 Mbytes
Step Temp Press TotEng PotEng Enthalpy 
    2000    290.94321    74.975864   -54648.733   -55387.756   -54632.984 
    5000    1094.7381    664.74765   -49990.179   -52770.914   -49840.242 
   10000     2471.133   -23.978583   -39787.439   -46064.342   -39794.261 
Loop time of 1179.56 on 1 procs for 8000 steps with 19652 atoms

Performance: 0.586 ns/day, 40.957 hours/ns, 6.782 timesteps/s
98.0% CPU use with 1 MPI tasks x no OpenMP threads

MPI task timing breakdown:
Section |  min time  |  avg time  |  max time  |%varavg| %total
---------------------------------------------------------------
Pair    | 639.59     | 639.59     | 639.59     |   0.0 | 54.22
Neigh   | 515.45     | 515.45     | 515.45     |   0.0 | 43.70
Comm    | 9.22       | 9.22       | 9.22       |   0.0 |  0.78
Output  | 0.12661    | 0.12661    | 0.12661    |   0.0 |  0.01
Modify  | 11.871     | 11.871     | 11.871     |   0.0 |  1.01
Other   |            | 3.302      |            |       |  0.28

Nlocal:    19652 ave 19652 max 19652 min
Histogram: 1 0 0 0 0 0 0 0 0 0
Nghost:    16058 ave 16058 max 16058 min
Histogram: 1 0 0 0 0 0 0 0 0 0
Neighs:    1.08432e+06 ave 1.08432e+06 max 1.08432e+06 min
Histogram: 1 0 0 0 0 0 0 0 0 0

Total # of neighbors = 1084315
Ave neighs/atom = 55.1758
Neighbor list builds = 8000
Dangerous builds not checked
Setting up Verlet run ...
  Unit style    : metal
  Current step  : 10000
  Time step     : 0.001
Per MPI rank memory allocation (min/avg/max) = 18.19 | 18.19 | 18.19 Mbytes
Step Temp Press TotEng PotEng Enthalpy 
   10000     2471.133   -23.978583   -39787.439   -46064.342   -39794.261 
   15000    2437.0386    -1228.994   -39702.787   -45893.087   -40055.934 
   20000    2452.4614   -872.64751   -39569.331   -45798.807   -39820.887 
   25000    2447.4629    757.34596   -39729.502   -45946.281   -39513.036 
   30000    2452.0539   -241.93522   -39684.561   -45913.001   -39753.856 
   35000    2465.2642   -445.56592   -39562.349   -45824.345   -39690.734 
   40000    2415.3548   -20.759048   -39833.124   -45968.345   -39839.062 
Loop time of 4234.13 on 1 procs for 30000 steps with 19652 atoms

Performance: 0.612 ns/day, 39.205 hours/ns, 7.085 timesteps/s
98.3% CPU use with 1 MPI tasks x no OpenMP threads

MPI task timing breakdown:
Section |  min time  |  avg time  |  max time  |%varavg| %total
---------------------------------------------------------------
Pair    | 2307.1     | 2307.1     | 2307.1     |   0.0 | 54.49
Neigh   | 1830.8     | 1830.8     | 1830.8     |   0.0 | 43.24
Comm    | 35.642     | 35.642     | 35.642     |   0.0 |  0.84
Output  | 0.48154    | 0.48154    | 0.48154    |   0.0 |  0.01
Modify  | 46.914     | 46.914     | 46.914     |   0.0 |  1.11
Other   |            | 13.19      |            |       |  0.31

Nlocal:    19652 ave 19652 max 19652 min
Histogram: 1 0 0 0 0 0 0 0 0 0
Nghost:    16086 ave 16086 max 16086 min
Histogram: 1 0 0 0 0 0 0 0 0 0
Neighs:    1.07822e+06 ave 1.07822e+06 max 1.07822e+06 min
Histogram: 1 0 0 0 0 0 0 0 0 0

Total # of neighbors = 1078219
Ave neighs/atom = 54.8656
Neighbor list builds = 30000
Dangerous builds not checked
Setting up Verlet run ...
  Unit style    : metal
  Current step  : 40000
  Time step     : 0.001
Per MPI rank memory allocation (min/avg/max) = 18.19 | 18.19 | 18.19 Mbytes
Step Temp Press TotEng PotEng Enthalpy 
   40000    2415.3548   -20.759048   -39833.124   -45968.345   -39839.062 
   40495    2400.0655   -383.69494   -39834.465    -45930.85   -39944.441 
Loop time of 62.5637 on 1 procs for 495 steps with 19652 atoms

Performance: 0.684 ns/day, 35.109 hours/ns, 7.912 timesteps/s
97.8% CPU use with 1 MPI tasks x no OpenMP threads

MPI task timing breakdown:
Section |  min time  |  avg time  |  max time  |%varavg| %total
---------------------------------------------------------------
Pair    | 33.074     | 33.074     | 33.074     |   0.0 | 52.87
Neigh   | 28.021     | 28.021     | 28.021     |   0.0 | 44.79
Comm    | 0.53591    | 0.53591    | 0.53591    |   0.0 |  0.86
Output  | 0.00018597 | 0.00018597 | 0.00018597 |   0.0 |  0.00
Modify  | 0.72827    | 0.72827    | 0.72827    |   0.0 |  1.16
Other   |            | 0.2037     |            |       |  0.33

Nlocal:    19652 ave 19652 max 19652 min
Histogram: 1 0 0 0 0 0 0 0 0 0
Nghost:    16093 ave 16093 max 16093 min
Histogram: 1 0 0 0 0 0 0 0 0 0
Neighs:    1.07586e+06 ave 1.07586e+06 max 1.07586e+06 min
Histogram: 1 0 0 0 0 0 0 0 0 0

Total # of neighbors = 1075864
Ave neighs/atom = 54.7458
Neighbor list builds = 495
Dangerous builds not checked
Setting up Verlet run ...
  Unit style    : metal
  Current step  : 40495
  Time step     : 0.001
Per MPI rank memory allocation (min/avg/max) = 18.19 | 18.19 | 18.19 Mbytes
Step Temp Press TotEng PotEng Enthalpy 
   40495    2400.0655   -383.69494   -39834.465    -45930.85   -39944.441 
   45000    2385.1139     94.70087   -39994.313    -46052.72   -39967.345 
Loop time of 612.321 on 1 procs for 4505 steps with 19652 atoms

Performance: 0.636 ns/day, 37.756 hours/ns, 7.357 timesteps/s
98.8% CPU use with 1 MPI tasks x no OpenMP threads

MPI task timing breakdown:
Section |  min time  |  avg time  |  max time  |%varavg| %total
---------------------------------------------------------------
Pair    | 332.42     | 332.42     | 332.42     |   0.0 | 54.29
Neigh   | 265.86     | 265.86     | 265.86     |   0.0 | 43.42
Comm    | 5.1777     | 5.1777     | 5.1777     |   0.0 |  0.85
Output  | 0.093401   | 0.093401   | 0.093401   |   0.0 |  0.02
Modify  | 6.8413     | 6.8413     | 6.8413     |   0.0 |  1.12
Other   |            | 1.93       |            |       |  0.32

Nlocal:    19652 ave 19652 max 19652 min
Histogram: 1 0 0 0 0 0 0 0 0 0
Nghost:    16041 ave 16041 max 16041 min
Histogram: 1 0 0 0 0 0 0 0 0 0
Neighs:    1.0827e+06 ave 1.0827e+06 max 1.0827e+06 min
Histogram: 1 0 0 0 0 0 0 0 0 0

Total # of neighbors = 1082700
Ave neighs/atom = 55.0936
Neighbor list builds = 4505
Dangerous builds not checked
Setting up Verlet run ...
  Unit style    : metal
  Current step  : 45000
  Time step     : 0.001
Per MPI rank memory allocation (min/avg/max) = 18.19 | 18.19 | 18.19 Mbytes
Step Temp Press TotEng PotEng Enthalpy 
   45000    2385.1139     94.70087   -39994.313    -46052.72   -39967.345 
   45495    2354.2797    527.76394   -40173.751   -46153.836   -40024.129 
Loop time of 67.4577 on 1 procs for 495 steps with 19652 atoms

Performance: 0.634 ns/day, 37.855 hours/ns, 7.338 timesteps/s
99.0% CPU use with 1 MPI tasks x no OpenMP threads

MPI task timing breakdown:
Section |  min time  |  avg time  |  max time  |%varavg| %total
---------------------------------------------------------------
Pair    | 36.446     | 36.446     | 36.446     |   0.0 | 54.03
Neigh   | 29.418     | 29.418     | 29.418     |   0.0 | 43.61
Comm    | 0.57905    | 0.57905    | 0.57905    |   0.0 |  0.86
Output  | 0.00018811 | 0.00018811 | 0.00018811 |   0.0 |  0.00
Modify  | 0.79029    | 0.79029    | 0.79029    |   0.0 |  1.17
Other   |            | 0.2238     |            |       |  0.33

Nlocal:    19652 ave 19652 max 19652 min
Histogram: 1 0 0 0 0 0 0 0 0 0
Nghost:    16063 ave 16063 max 16063 min
Histogram: 1 0 0 0 0 0 0 0 0 0
Neighs:    1.08742e+06 ave 1.08742e+06 max 1.08742e+06 min
Histogram: 1 0 0 0 0 0 0 0 0 0

Total # of neighbors = 1087417
Ave neighs/atom = 55.3337
Neighbor list builds = 495
Dangerous builds not checked
Setting up Verlet run ...
  Unit style    : metal
  Current step  : 45495
  Time step     : 0.001
Per MPI rank memory allocation (min/avg/max) = 18.19 | 18.19 | 18.19 Mbytes
Step Temp Press TotEng PotEng Enthalpy 
   45495    2354.2797    527.76394   -40173.751   -46153.836   -40024.129 
   50000    2342.3405    542.95672   -40307.569   -46257.327   -40154.469 
Loop time of 612.211 on 1 procs for 4505 steps with 19652 atoms

Performance: 0.636 ns/day, 37.749 hours/ns, 7.359 timesteps/s
98.6% CPU use with 1 MPI tasks x no OpenMP threads

MPI task timing breakdown:
Section |  min time  |  avg time  |  max time  |%varavg| %total
---------------------------------------------------------------
Pair    | 333.5      | 333.5      | 333.5      |   0.0 | 54.47
Neigh   | 264.66     | 264.66     | 264.66     |   0.0 | 43.23
Comm    | 5.1701     | 5.1701     | 5.1701     |   0.0 |  0.84
Output  | 0.08653    | 0.08653    | 0.08653    |   0.0 |  0.01
Modify  | 6.8548     | 6.8548     | 6.8548     |   0.0 |  1.12
Other   |            | 1.941      |            |       |  0.32

Nlocal:    19652 ave 19652 max 19652 min
Histogram: 1 0 0 0 0 0 0 0 0 0
Nghost:    16152 ave 16152 max 16152 min
Histogram: 1 0 0 0 0 0 0 0 0 0
Neighs:    1.09318e+06 ave 1.09318e+06 max 1.09318e+06 min
Histogram: 1 0 0 0 0 0 0 0 0 0

Total # of neighbors = 1093185
Ave neighs/atom = 55.6272
Neighbor list builds = 4505
Dangerous builds not checked
Setting up Verlet run ...
  Unit style    : metal
  Current step  : 50000
  Time step     : 0.001
Per MPI rank memory allocation (min/avg/max) = 18.19 | 18.19 | 18.19 Mbytes
Step Temp Press TotEng PotEng Enthalpy 
   50000    2342.3405    542.95672   -40307.569   -46257.327   -40154.469 
   50495    2307.1169    232.51263   -40466.313     -46326.6   -40400.848 
Loop time of 63.3702 on 1 procs for 495 steps with 19652 atoms

Performance: 0.675 ns/day, 35.561 hours/ns, 7.811 timesteps/s
99.2% CPU use with 1 MPI tasks x no OpenMP threads

MPI task timing breakdown:
Section |  min time  |  avg time  |  max time  |%varavg| %total
---------------------------------------------------------------
Pair    | 33.934     | 33.934     | 33.934     |   0.0 | 53.55
Neigh   | 27.942     | 27.942     | 27.942     |   0.0 | 44.09
Comm    | 0.54178    | 0.54178    | 0.54178    |   0.0 |  0.85
Output  | 0.0001688  | 0.0001688  | 0.0001688  |   0.0 |  0.00
Modify  | 0.74506    | 0.74506    | 0.74506    |   0.0 |  1.18
Other   |            | 0.2073     |            |       |  0.33

Nlocal:    19652 ave 19652 max 19652 min
Histogram: 1 0 0 0 0 0 0 0 0 0
Nghost:    16124 ave 16124 max 16124 min
Histogram: 1 0 0 0 0 0 0 0 0 0
Neighs:    1.09556e+06 ave 1.09556e+06 max 1.09556e+06 min
Histogram: 1 0 0 0 0 0 0 0 0 0

Total # of neighbors = 1095565
Ave neighs/atom = 55.7483
Neighbor list builds = 495
Dangerous builds not checked
Setting up Verlet run ...
  Unit style    : metal
  Current step  : 50495
  Time step     : 0.001
Per MPI rank memory allocation (min/avg/max) = 18.19 | 18.19 | 18.19 Mbytes
Step Temp Press TotEng PotEng Enthalpy 
   50495    2307.1169    232.51263   -40466.313     -46326.6   -40400.848 
   55000    2311.1855    30.924094   -40577.017   -46447.639   -40568.351 
Loop time of 583.969 on 1 procs for 4505 steps with 19652 atoms

Performance: 0.667 ns/day, 36.007 hours/ns, 7.714 timesteps/s
99.2% CPU use with 1 MPI tasks x no OpenMP threads

MPI task timing breakdown:
Section |  min time  |  avg time  |  max time  |%varavg| %total
---------------------------------------------------------------
Pair    | 311.15     | 311.15     | 311.15     |   0.0 | 53.28
Neigh   | 259.2      | 259.2      | 259.2      |   0.0 | 44.39
Comm    | 4.9033     | 4.9033     | 4.9033     |   0.0 |  0.84
Output  | 0.28669    | 0.28669    | 0.28669    |   0.0 |  0.05
Modify  | 6.5687     | 6.5687     | 6.5687     |   0.0 |  1.12
Other   |            | 1.859      |            |       |  0.32

Nlocal:    19652 ave 19652 max 19652 min
Histogram: 1 0 0 0 0 0 0 0 0 0
Nghost:    16228 ave 16228 max 16228 min
Histogram: 1 0 0 0 0 0 0 0 0 0
Neighs:    1.09998e+06 ave 1.09998e+06 max 1.09998e+06 min
Histogram: 1 0 0 0 0 0 0 0 0 0

Total # of neighbors = 1099980
Ave neighs/atom = 55.9729
Neighbor list builds = 4505
Dangerous builds not checked
Setting up Verlet run ...
  Unit style    : metal
  Current step  : 55000
  Time step     : 0.001
Per MPI rank memory allocation (min/avg/max) = 18.2 | 18.2 | 18.2 Mbytes
Step Temp Press TotEng PotEng Enthalpy 
   55000    2311.1855    30.924094   -40577.017   -46447.639   -40568.351 
   55495    2271.2057   -341.13246   -40827.723   -46596.792   -40922.891 
Loop time of 66.5498 on 1 procs for 495 steps with 19652 atoms

Performance: 0.643 ns/day, 37.346 hours/ns, 7.438 timesteps/s
99.1% CPU use with 1 MPI tasks x no OpenMP threads

MPI task timing breakdown:
Section |  min time  |  avg time  |  max time  |%varavg| %total
---------------------------------------------------------------
Pair    | 35.396     | 35.396     | 35.396     |   0.0 | 53.19
Neigh   | 29.582     | 29.582     | 29.582     |   0.0 | 44.45
Comm    | 0.56444    | 0.56444    | 0.56444    |   0.0 |  0.85
Output  | 0.00021887 | 0.00021887 | 0.00021887 |   0.0 |  0.00
Modify  | 0.78386    | 0.78386    | 0.78386    |   0.0 |  1.18
Other   |            | 0.2228     |            |       |  0.33

Nlocal:    19652 ave 19652 max 19652 min
Histogram: 1 0 0 0 0 0 0 0 0 0
Nghost:    16324 ave 16324 max 16324 min
Histogram: 1 0 0 0 0 0 0 0 0 0
Neighs:    1.1059e+06 ave 1.1059e+06 max 1.1059e+06 min
Histogram: 1 0 0 0 0 0 0 0 0 0

Total # of neighbors = 1105895
Ave neighs/atom = 56.2739
Neighbor list builds = 495
Dangerous builds not checked
Setting up Verlet run ...
  Unit style    : metal
  Current step  : 55495
  Time step     : 0.001
Per MPI rank memory allocation (min/avg/max) = 18.2 | 18.2 | 18.2 Mbytes
Step Temp Press TotEng PotEng Enthalpy 
   55495    2271.2057   -341.13246   -40827.723   -46596.792   -40922.891 
   60000    2245.2508   -207.29479   -40959.602   -46662.743   -41017.142 
Loop time of 620.36 on 1 procs for 4505 steps with 19652 atoms

Performance: 0.627 ns/day, 38.251 hours/ns, 7.262 timesteps/s
98.5% CPU use with 1 MPI tasks x no OpenMP threads

MPI task timing breakdown:
Section |  min time  |  avg time  |  max time  |%varavg| %total
---------------------------------------------------------------
Pair    | 322.11     | 322.11     | 322.11     |   0.0 | 51.92
Neigh   | 283.31     | 283.31     | 283.31     |   0.0 | 45.67
Comm    | 5.1296     | 5.1296     | 5.1296     |   0.0 |  0.83
Output  | 1.0409     | 1.0409     | 1.0409     |   0.0 |  0.17
Modify  | 6.8012     | 6.8012     | 6.8012     |   0.0 |  1.10
Other   |            | 1.966      |            |       |  0.32

Nlocal:    19652 ave 19652 max 19652 min
Histogram: 1 0 0 0 0 0 0 0 0 0
Nghost:    16284 ave 16284 max 16284 min
Histogram: 1 0 0 0 0 0 0 0 0 0
Neighs:    1.11118e+06 ave 1.11118e+06 max 1.11118e+06 min
Histogram: 1 0 0 0 0 0 0 0 0 0

Total # of neighbors = 1111181
Ave neighs/atom = 56.5429
Neighbor list builds = 4505
Dangerous builds not checked
Setting up Verlet run ...
  Unit style    : metal
  Current step  : 60000
  Time step     : 0.001
Per MPI rank memory allocation (min/avg/max) = 18.2 | 18.2 | 18.2 Mbytes
Step Temp Press TotEng PotEng Enthalpy 
   60000    2245.2508   -207.29479   -40959.602   -46662.743   -41017.142 
   60495    2200.5732   -58.977377   -41174.507   -46764.164   -41190.826 
Loop time of 68.1276 on 1 procs for 495 steps with 19652 atoms

Performance: 0.628 ns/day, 38.231 hours/ns, 7.266 timesteps/s
97.0% CPU use with 1 MPI tasks x no OpenMP threads

MPI task timing breakdown:
Section |  min time  |  avg time  |  max time  |%varavg| %total
---------------------------------------------------------------
Pair    | 35.343     | 35.343     | 35.343     |   0.0 | 51.88
Neigh   | 31.247     | 31.247     | 31.247     |   0.0 | 45.87
Comm    | 0.55089    | 0.55089    | 0.55089    |   0.0 |  0.81
Output  | 0.00019097 | 0.00019097 | 0.00019097 |   0.0 |  0.00
Modify  | 0.7738     | 0.7738     | 0.7738     |   0.0 |  1.14
Other   |            | 0.2126     |            |       |  0.31

Nlocal:    19652 ave 19652 max 19652 min
Histogram: 1 0 0 0 0 0 0 0 0 0
Nghost:    16294 ave 16294 max 16294 min
Histogram: 1 0 0 0 0 0 0 0 0 0
Neighs:    1.11526e+06 ave 1.11526e+06 max 1.11526e+06 min
Histogram: 1 0 0 0 0 0 0 0 0 0

Total # of neighbors = 1115265
Ave neighs/atom = 56.7507
Neighbor list builds = 495
Dangerous builds not checked
Setting up Verlet run ...
  Unit style    : metal
  Current step  : 60495
  Time step     : 0.001
Per MPI rank memory allocation (min/avg/max) = 18.2 | 18.2 | 18.2 Mbytes
Step Temp Press TotEng PotEng Enthalpy 
   60495    2200.5732   -58.977377   -41174.507   -46764.164   -41190.826 
   65000    2198.1592    1028.2666   -41219.472   -46802.997   -40935.881 
Loop time of 592.553 on 1 procs for 4505 steps with 19652 atoms

Performance: 0.657 ns/day, 36.537 hours/ns, 7.603 timesteps/s
98.4% CPU use with 1 MPI tasks x no OpenMP threads

MPI task timing breakdown:
Section |  min time  |  avg time  |  max time  |%varavg| %total
---------------------------------------------------------------
Pair    | 307.67     | 307.67     | 307.67     |   0.0 | 51.92
Neigh   | 271.86     | 271.86     | 271.86     |   0.0 | 45.88
Comm    | 4.7391     | 4.7391     | 4.7391     |   0.0 |  0.80
Output  | 0.063887   | 0.063887   | 0.063887   |   0.0 |  0.01
Modify  | 6.3681     | 6.3681     | 6.3681     |   0.0 |  1.07
Other   |            | 1.857      |            |       |  0.31

Nlocal:    19652 ave 19652 max 19652 min
Histogram: 1 0 0 0 0 0 0 0 0 0
Nghost:    16336 ave 16336 max 16336 min
Histogram: 1 0 0 0 0 0 0 0 0 0
Neighs:    1.11933e+06 ave 1.11933e+06 max 1.11933e+06 min
Histogram: 1 0 0 0 0 0 0 0 0 0

Total # of neighbors = 1119334
Ave neighs/atom = 56.9578
Neighbor list builds = 4505
Dangerous builds not checked
Setting up Verlet run ...
  Unit style    : metal
  Current step  : 65000
  Time step     : 0.001
Per MPI rank memory allocation (min/avg/max) = 18.2 | 18.2 | 18.2 Mbytes
Step Temp Press TotEng PotEng Enthalpy 
   65000    2198.1592    1028.2666   -41219.472   -46802.997   -40935.881 
   65495    2155.8606   -425.63396   -41448.421   -46924.504   -41565.574 
Loop time of 57.8641 on 1 procs for 495 steps with 19652 atoms

Performance: 0.739 ns/day, 32.471 hours/ns, 8.555 timesteps/s
99.9% CPU use with 1 MPI tasks x no OpenMP threads

MPI task timing breakdown:
Section |  min time  |  avg time  |  max time  |%varavg| %total
---------------------------------------------------------------
Pair    | 29.61      | 29.61      | 29.61      |   0.0 | 51.17
Neigh   | 26.969     | 26.969     | 26.969     |   0.0 | 46.61
Comm    | 0.4685     | 0.4685     | 0.4685     |   0.0 |  0.81
Output  | 0.00013208 | 0.00013208 | 0.00013208 |   0.0 |  0.00
Modify  | 0.63291    | 0.63291    | 0.63291    |   0.0 |  1.09
Other   |            | 0.1842     |            |       |  0.32

Nlocal:    19652 ave 19652 max 19652 min
Histogram: 1 0 0 0 0 0 0 0 0 0
Nghost:    16303 ave 16303 max 16303 min
Histogram: 1 0 0 0 0 0 0 0 0 0
Neighs:    1.12116e+06 ave 1.12116e+06 max 1.12116e+06 min
Histogram: 1 0 0 0 0 0 0 0 0 0

Total # of neighbors = 1121164
Ave neighs/atom = 57.0509
Neighbor list builds = 495
Dangerous builds not checked
Setting up Verlet run ...
  Unit style    : metal
  Current step  : 65495
  Time step     : 0.001
Per MPI rank memory allocation (min/avg/max) = 18.2 | 18.2 | 18.2 Mbytes
Step Temp Press TotEng PotEng Enthalpy 
   65495    2155.8606   -425.63396   -41448.421   -46924.504   -41565.574 
   70000     2147.439    709.43992   -41645.024   -47099.715   -41451.355 
Loop time of 603.016 on 1 procs for 4505 steps with 19652 atoms

Performance: 0.645 ns/day, 37.182 hours/ns, 7.471 timesteps/s
98.7% CPU use with 1 MPI tasks x no OpenMP threads

MPI task timing breakdown:
Section |  min time  |  avg time  |  max time  |%varavg| %total
---------------------------------------------------------------
Pair    | 314.97     | 314.97     | 314.97     |   0.0 | 52.23
Neigh   | 274.86     | 274.86     | 274.86     |   0.0 | 45.58
Comm    | 4.8127     | 4.8127     | 4.8127     |   0.0 |  0.80
Output  | 0.087534   | 0.087534   | 0.087534   |   0.0 |  0.01
Modify  | 6.4518     | 6.4518     | 6.4518     |   0.0 |  1.07
Other   |            | 1.837      |            |       |  0.30

Nlocal:    19652 ave 19652 max 19652 min
Histogram: 1 0 0 0 0 0 0 0 0 0
Nghost:    16414 ave 16414 max 16414 min
Histogram: 1 0 0 0 0 0 0 0 0 0
Neighs:    1.13087e+06 ave 1.13087e+06 max 1.13087e+06 min
Histogram: 1 0 0 0 0 0 0 0 0 0

Total # of neighbors = 1130872
Ave neighs/atom = 57.5449
Neighbor list builds = 4505
Dangerous builds not checked
Setting up Verlet run ...
  Unit style    : metal
  Current step  : 70000
  Time step     : 0.001
Per MPI rank memory allocation (min/avg/max) = 18.2 | 18.2 | 18.2 Mbytes
Step Temp Press TotEng PotEng Enthalpy 
   70000     2147.439    709.43992   -41645.024   -47099.715   -41451.355 
   70495    2110.3473   -106.78338   -41797.153   -47157.628   -41826.249 
Loop time of 64.4223 on 1 procs for 495 steps with 19652 atoms

Performance: 0.664 ns/day, 36.152 hours/ns, 7.684 timesteps/s
98.2% CPU use with 1 MPI tasks x no OpenMP threads

MPI task timing breakdown:
Section |  min time  |  avg time  |  max time  |%varavg| %total
---------------------------------------------------------------
Pair    | 33.362     | 33.362     | 33.362     |   0.0 | 51.79
Neigh   | 29.612     | 29.612     | 29.612     |   0.0 | 45.96
Comm    | 0.54466    | 0.54466    | 0.54466    |   0.0 |  0.85
Output  | 0.00016403 | 0.00016403 | 0.00016403 |   0.0 |  0.00
Modify  | 0.70202    | 0.70202    | 0.70202    |   0.0 |  1.09
Other   |            | 0.2017     |            |       |  0.31

Nlocal:    19652 ave 19652 max 19652 min
Histogram: 1 0 0 0 0 0 0 0 0 0
Nghost:    16384 ave 16384 max 16384 min
Histogram: 1 0 0 0 0 0 0 0 0 0
Neighs:    1.13185e+06 ave 1.13185e+06 max 1.13185e+06 min
Histogram: 1 0 0 0 0 0 0 0 0 0

Total # of neighbors = 1131849
Ave neighs/atom = 57.5946
Neighbor list builds = 495
Dangerous builds not checked
Setting up Verlet run ...
  Unit style    : metal
  Current step  : 70495
  Time step     : 0.001
Per MPI rank memory allocation (min/avg/max) = 18.2 | 18.2 | 18.2 Mbytes
Step Temp Press TotEng PotEng Enthalpy 
   70495    2110.3473   -106.78338   -41797.153   -47157.628   -41826.249 
   75000    2090.8867   -412.44581   -41892.724   -47203.767   -42004.806 
Loop time of 612.193 on 1 procs for 4505 steps with 19652 atoms

Performance: 0.636 ns/day, 37.748 hours/ns, 7.359 timesteps/s
99.5% CPU use with 1 MPI tasks x no OpenMP threads

MPI task timing breakdown:
Section |  min time  |  avg time  |  max time  |%varavg| %total
---------------------------------------------------------------
Pair    | 320.19     | 320.19     | 320.19     |   0.0 | 52.30
Neigh   | 278.46     | 278.46     | 278.46     |   0.0 | 45.49
Comm    | 4.8842     | 4.8842     | 4.8842     |   0.0 |  0.80
Output  | 0.29202    | 0.29202    | 0.29202    |   0.0 |  0.05
Modify  | 6.5285     | 6.5285     | 6.5285     |   0.0 |  1.07
Other   |            | 1.839      |            |       |  0.30

Nlocal:    19652 ave 19652 max 19652 min
Histogram: 1 0 0 0 0 0 0 0 0 0
Nghost:    16445 ave 16445 max 16445 min
Histogram: 1 0 0 0 0 0 0 0 0 0
Neighs:    1.13572e+06 ave 1.13572e+06 max 1.13572e+06 min
Histogram: 1 0 0 0 0 0 0 0 0 0

Total # of neighbors = 1135716
Ave neighs/atom = 57.7914
Neighbor list builds = 4505
Dangerous builds not checked
Setting up Verlet run ...
  Unit style    : metal
  Current step  : 75000
  Time step     : 0.001
Per MPI rank memory allocation (min/avg/max) = 18.2 | 18.2 | 18.2 Mbytes
Step Temp Press TotEng PotEng Enthalpy 
   75000    2090.8867   -412.44581   -41892.724   -47203.767   -42004.806 
   75495    2062.3991   -68.704848   -42058.208    -47296.89    -42076.83 
Loop time of 61.587 on 1 procs for 495 steps with 19652 atoms

Performance: 0.694 ns/day, 34.561 hours/ns, 8.037 timesteps/s
99.8% CPU use with 1 MPI tasks x no OpenMP threads

MPI task timing breakdown:
Section |  min time  |  avg time  |  max time  |%varavg| %total
---------------------------------------------------------------
Pair    | 31.782     | 31.782     | 31.782     |   0.0 | 51.60
Neigh   | 28.438     | 28.438     | 28.438     |   0.0 | 46.18
Comm    | 0.49949    | 0.49949    | 0.49949    |   0.0 |  0.81
Output  | 0.00014305 | 0.00014305 | 0.00014305 |   0.0 |  0.00
Modify  | 0.67222    | 0.67222    | 0.67222    |   0.0 |  1.09
Other   |            | 0.1953     |            |       |  0.32

Nlocal:    19652 ave 19652 max 19652 min
Histogram: 1 0 0 0 0 0 0 0 0 0
Nghost:    16393 ave 16393 max 16393 min
Histogram: 1 0 0 0 0 0 0 0 0 0
Neighs:    1.13901e+06 ave 1.13901e+06 max 1.13901e+06 min
Histogram: 1 0 0 0 0 0 0 0 0 0

Total # of neighbors = 1139007
Ave neighs/atom = 57.9588
Neighbor list builds = 495
Dangerous builds not checked
Setting up Verlet run ...
  Unit style    : metal
  Current step  : 75495
  Time step     : 0.001
Per MPI rank memory allocation (min/avg/max) = 18.2 | 18.2 | 18.2 Mbytes
Step Temp Press TotEng PotEng Enthalpy 
   75495    2062.3991   -68.704848   -42058.208    -47296.89    -42076.83 
   80000    2048.9858    597.34775   -42201.509    -47406.12   -42040.379 
Loop time of 592.191 on 1 procs for 4505 steps with 19652 atoms

Performance: 0.657 ns/day, 36.514 hours/ns, 7.607 timesteps/s
99.1% CPU use with 1 MPI tasks x no OpenMP threads

MPI task timing breakdown:
Section |  min time  |  avg time  |  max time  |%varavg| %total
---------------------------------------------------------------
Pair    | 307.6      | 307.6      | 307.6      |   0.0 | 51.94
Neigh   | 268.36     | 268.36     | 268.36     |   0.0 | 45.32
Comm    | 4.6974     | 4.6974     | 4.6974     |   0.0 |  0.79
Output  | 3.4888     | 3.4888     | 3.4888     |   0.0 |  0.59
Modify  | 6.2683     | 6.2683     | 6.2683     |   0.0 |  1.06
Other   |            | 1.775      |            |       |  0.30

Nlocal:    19652 ave 19652 max 19652 min
Histogram: 1 0 0 0 0 0 0 0 0 0
Nghost:    16458 ave 16458 max 16458 min
Histogram: 1 0 0 0 0 0 0 0 0 0
Neighs:    1.14418e+06 ave 1.14418e+06 max 1.14418e+06 min
Histogram: 1 0 0 0 0 0 0 0 0 0

Total # of neighbors = 1144178
Ave neighs/atom = 58.222
Neighbor list builds = 4505
Dangerous builds not checked
Setting up Verlet run ...
  Unit style    : metal
  Current step  : 80000
  Time step     : 0.001
Per MPI rank memory allocation (min/avg/max) = 18.2 | 18.2 | 18.2 Mbytes
Step Temp Press TotEng PotEng Enthalpy 
   80000    2048.9858    597.34775   -42201.509    -47406.12   -42040.379 
   80495     2015.452   -542.24061   -42381.612   -47501.044   -42527.556 
Loop time of 64.5735 on 1 procs for 495 steps with 19652 atoms

Performance: 0.662 ns/day, 36.237 hours/ns, 7.666 timesteps/s
98.2% CPU use with 1 MPI tasks x no OpenMP threads

MPI task timing breakdown:
Section |  min time  |  avg time  |  max time  |%varavg| %total
---------------------------------------------------------------
Pair    | 33.555     | 33.555     | 33.555     |   0.0 | 51.96
Neigh   | 29.595     | 29.595     | 29.595     |   0.0 | 45.83
Comm    | 0.51849    | 0.51849    | 0.51849    |   0.0 |  0.80
Output  | 0.00012302 | 0.00012302 | 0.00012302 |   0.0 |  0.00
Modify  | 0.70651    | 0.70651    | 0.70651    |   0.0 |  1.09
Other   |            | 0.199      |            |       |  0.31

Nlocal:    19652 ave 19652 max 19652 min
Histogram: 1 0 0 0 0 0 0 0 0 0
Nghost:    16512 ave 16512 max 16512 min
Histogram: 1 0 0 0 0 0 0 0 0 0
Neighs:    1.14773e+06 ave 1.14773e+06 max 1.14773e+06 min
Histogram: 1 0 0 0 0 0 0 0 0 0

Total # of neighbors = 1147730
Ave neighs/atom = 58.4027
Neighbor list builds = 495
Dangerous builds not checked
Setting up Verlet run ...
  Unit style    : metal
  Current step  : 80495
  Time step     : 0.001
Per MPI rank memory allocation (min/avg/max) = 18.2 | 18.2 | 18.2 Mbytes
Step Temp Press TotEng PotEng Enthalpy 
   80495     2015.452   -542.24061   -42381.612   -47501.044   -42527.556 
   85000    1997.1611    315.38503   -42472.769    -47545.74   -42388.156 
Loop time of 513.105 on 1 procs for 4505 steps with 19652 atoms

Performance: 0.759 ns/day, 31.638 hours/ns, 8.780 timesteps/s
99.2% CPU use with 1 MPI tasks x no OpenMP threads

MPI task timing breakdown:
Section |  min time  |  avg time  |  max time  |%varavg| %total
---------------------------------------------------------------
Pair    | 258.99     | 258.99     | 258.99     |   0.0 | 50.47
Neigh   | 242.91     | 242.91     | 242.91     |   0.0 | 47.34
Comm    | 4.0114     | 4.0114     | 4.0114     |   0.0 |  0.78
Output  | 0.31925    | 0.31925    | 0.31925    |   0.0 |  0.06
Modify  | 5.4344     | 5.4344     | 5.4344     |   0.0 |  1.06
Other   |            | 1.439      |            |       |  0.28

Nlocal:    19652 ave 19652 max 19652 min
Histogram: 1 0 0 0 0 0 0 0 0 0
Nghost:    16487 ave 16487 max 16487 min
Histogram: 1 0 0 0 0 0 0 0 0 0
Neighs:    1.15117e+06 ave 1.15117e+06 max 1.15117e+06 min
Histogram: 1 0 0 0 0 0 0 0 0 0

Total # of neighbors = 1151167
Ave neighs/atom = 58.5776
Neighbor list builds = 4505
Dangerous builds not checked
Setting up Verlet run ...
  Unit style    : metal
  Current step  : 85000
  Time step     : 0.001
Per MPI rank memory allocation (min/avg/max) = 18.2 | 18.2 | 18.2 Mbytes
Step Temp Press TotEng PotEng Enthalpy 
   85000    1997.1611    315.38503   -42472.769    -47545.74   -42388.156 
   85495    1967.2492   -639.92421   -42684.727   -47681.719   -42855.832 
Loop time of 59.7498 on 1 procs for 495 steps with 19652 atoms

Performance: 0.716 ns/day, 33.530 hours/ns, 8.285 timesteps/s
98.5% CPU use with 1 MPI tasks x no OpenMP threads

MPI task timing breakdown:
Section |  min time  |  avg time  |  max time  |%varavg| %total
---------------------------------------------------------------
Pair    | 30.381     | 30.381     | 30.381     |   0.0 | 50.85
Neigh   | 28.069     | 28.069     | 28.069     |   0.0 | 46.98
Comm    | 0.46839    | 0.46839    | 0.46839    |   0.0 |  0.78
Output  | 0.000139   | 0.000139   | 0.000139   |   0.0 |  0.00
Modify  | 0.65843    | 0.65843    | 0.65843    |   0.0 |  1.10
Other   |            | 0.1722     |            |       |  0.29

Nlocal:    19652 ave 19652 max 19652 min
Histogram: 1 0 0 0 0 0 0 0 0 0
Nghost:    16500 ave 16500 max 16500 min
Histogram: 1 0 0 0 0 0 0 0 0 0
Neighs:    1.15466e+06 ave 1.15466e+06 max 1.15466e+06 min
Histogram: 1 0 0 0 0 0 0 0 0 0

Total # of neighbors = 1154656
Ave neighs/atom = 58.7551
Neighbor list builds = 495
Dangerous builds not checked
Setting up Verlet run ...
  Unit style    : metal
  Current step  : 85495
  Time step     : 0.001
Per MPI rank memory allocation (min/avg/max) = 18.2 | 18.2 | 18.2 Mbytes
Step Temp Press TotEng PotEng Enthalpy 
   85495    1967.2492   -639.92421   -42684.727   -47681.719   -42855.832 
   90000    1953.3638     867.8632   -42740.554   -47702.276   -42509.201 
Loop time of 545.693 on 1 procs for 4505 steps with 19652 atoms

Performance: 0.713 ns/day, 33.647 hours/ns, 8.256 timesteps/s
99.3% CPU use with 1 MPI tasks x no OpenMP threads

MPI task timing breakdown:
Section |  min time  |  avg time  |  max time  |%varavg| %total
---------------------------------------------------------------
Pair    | 279.51     | 279.51     | 279.51     |   0.0 | 51.22
Neigh   | 254.45     | 254.45     | 254.45     |   0.0 | 46.63
Comm    | 4.2846     | 4.2846     | 4.2846     |   0.0 |  0.79
Output  | 0.079373   | 0.079373   | 0.079373   |   0.0 |  0.01
Modify  | 5.8019     | 5.8019     | 5.8019     |   0.0 |  1.06
Other   |            | 1.566      |            |       |  0.29

Nlocal:    19652 ave 19652 max 19652 min
Histogram: 1 0 0 0 0 0 0 0 0 0
Nghost:    16562 ave 16562 max 16562 min
Histogram: 1 0 0 0 0 0 0 0 0 0
Neighs:    1.15842e+06 ave 1.15842e+06 max 1.15842e+06 min
Histogram: 1 0 0 0 0 0 0 0 0 0

Total # of neighbors = 1158420
Ave neighs/atom = 58.9467
Neighbor list builds = 4505
Dangerous builds not checked
Setting up Verlet run ...
  Unit style    : metal
  Current step  : 90000
  Time step     : 0.001
Per MPI rank memory allocation (min/avg/max) = 18.2 | 18.2 | 18.2 Mbytes
Step Temp Press TotEng PotEng Enthalpy 
   90000    1953.3638     867.8632   -42740.554   -47702.276   -42509.201 
   90495    1931.1723    -52.67166   -42938.542   -47843.895   -42952.525 
Loop time of 58.9687 on 1 procs for 495 steps with 19652 atoms

Performance: 0.725 ns/day, 33.091 hours/ns, 8.394 timesteps/s
99.1% CPU use with 1 MPI tasks x no OpenMP threads

MPI task timing breakdown:
Section |  min time  |  avg time  |  max time  |%varavg| %total
---------------------------------------------------------------
Pair    | 30.115     | 30.115     | 30.115     |   0.0 | 51.07
Neigh   | 27.579     | 27.579     | 27.579     |   0.0 | 46.77
Comm    | 0.46443    | 0.46443    | 0.46443    |   0.0 |  0.79
Output  | 0.00016904 | 0.00016904 | 0.00016904 |   0.0 |  0.00
Modify  | 0.64136    | 0.64136    | 0.64136    |   0.0 |  1.09
Other   |            | 0.1683     |            |       |  0.29

Nlocal:    19652 ave 19652 max 19652 min
Histogram: 1 0 0 0 0 0 0 0 0 0
Nghost:    16602 ave 16602 max 16602 min
Histogram: 1 0 0 0 0 0 0 0 0 0
Neighs:    1.16402e+06 ave 1.16402e+06 max 1.16402e+06 min
Histogram: 1 0 0 0 0 0 0 0 0 0

Total # of neighbors = 1164020
Ave neighs/atom = 59.2316
Neighbor list builds = 495
Dangerous builds not checked
Setting up Verlet run ...
  Unit style    : metal
  Current step  : 90495
  Time step     : 0.001
Per MPI rank memory allocation (min/avg/max) = 18.2 | 18.2 | 18.2 Mbytes
Step Temp Press TotEng PotEng Enthalpy 
   90495    1931.1723    -52.67166   -42938.542   -47843.895   -42952.525 
   95000    1873.4612    27.177901    -43228.83   -47987.592   -43221.654 
Loop time of 512.059 on 1 procs for 4505 steps with 19652 atoms

Performance: 0.760 ns/day, 31.573 hours/ns, 8.798 timesteps/s
99.7% CPU use with 1 MPI tasks x no OpenMP threads

MPI task timing breakdown:
Section |  min time  |  avg time  |  max time  |%varavg| %total
---------------------------------------------------------------
Pair    | 262.04     | 262.04     | 262.04     |   0.0 | 51.17
Neigh   | 239.14     | 239.14     | 239.14     |   0.0 | 46.70
Comm    | 3.9996     | 3.9996     | 3.9996     |   0.0 |  0.78
Output  | 0.060412   | 0.060412   | 0.060412   |   0.0 |  0.01
Modify  | 5.3675     | 5.3675     | 5.3675     |   0.0 |  1.05
Other   |            | 1.453      |            |       |  0.28

Nlocal:    19652 ave 19652 max 19652 min
Histogram: 1 0 0 0 0 0 0 0 0 0
Nghost:    16584 ave 16584 max 16584 min
Histogram: 1 0 0 0 0 0 0 0 0 0
Neighs:    1.1705e+06 ave 1.1705e+06 max 1.1705e+06 min
Histogram: 1 0 0 0 0 0 0 0 0 0

Total # of neighbors = 1170496
Ave neighs/atom = 59.5612
Neighbor list builds = 4505
Dangerous builds not checked
Setting up Verlet run ...
  Unit style    : metal
  Current step  : 95000
  Time step     : 0.001
Per MPI rank memory allocation (min/avg/max) = 18.2 | 18.2 | 18.2 Mbytes
Step Temp Press TotEng PotEng Enthalpy 
   95000    1873.4612    27.177901    -43228.83   -47987.592   -43221.654 
   95495    1862.6377   -383.84181   -43273.021   -48004.291   -43374.368 
Loop time of 54.9851 on 1 procs for 495 steps with 19652 atoms

Performance: 0.778 ns/day, 30.856 hours/ns, 9.002 timesteps/s
100.0% CPU use with 1 MPI tasks x no OpenMP threads

MPI task timing breakdown:
Section |  min time  |  avg time  |  max time  |%varavg| %total
---------------------------------------------------------------
Pair    | 28.083     | 28.083     | 28.083     |   0.0 | 51.07
Neigh   | 25.705     | 25.705     | 25.705     |   0.0 | 46.75
Comm    | 0.43829    | 0.43829    | 0.43829    |   0.0 |  0.80
Output  | 0.0001328  | 0.0001328  | 0.0001328  |   0.0 |  0.00
Modify  | 0.59386    | 0.59386    | 0.59386    |   0.0 |  1.08
Other   |            | 0.165      |            |       |  0.30

Nlocal:    19652 ave 19652 max 19652 min
Histogram: 1 0 0 0 0 0 0 0 0 0
Nghost:    16583 ave 16583 max 16583 min
Histogram: 1 0 0 0 0 0 0 0 0 0
Neighs:    1.1704e+06 ave 1.1704e+06 max 1.1704e+06 min
Histogram: 1 0 0 0 0 0 0 0 0 0

Total # of neighbors = 1170399
Ave neighs/atom = 59.5562
Neighbor list builds = 495
Dangerous builds not checked
Setting up Verlet run ...
  Unit style    : metal
  Current step  : 95495
  Time step     : 0.001
Per MPI rank memory allocation (min/avg/max) = 18.2 | 18.2 | 18.2 Mbytes
Step Temp Press TotEng PotEng Enthalpy 
   95495    1862.6377   -383.84181   -43273.021   -48004.291   -43374.368 
  100000     1863.032    164.76496   -43387.605   -48119.876   -43344.319 
Loop time of 586.827 on 1 procs for 4505 steps with 19652 atoms

Performance: 0.663 ns/day, 36.184 hours/ns, 7.677 timesteps/s
99.4% CPU use with 1 MPI tasks x no OpenMP threads

MPI task timing breakdown:
Section |  min time  |  avg time  |  max time  |%varavg| %total
---------------------------------------------------------------
Pair    | 306.56     | 306.56     | 306.56     |   0.0 | 52.24
Neigh   | 267.36     | 267.36     | 267.36     |   0.0 | 45.56
Comm    | 4.7293     | 4.7293     | 4.7293     |   0.0 |  0.81
Output  | 0.21071    | 0.21071    | 0.21071    |   0.0 |  0.04
Modify  | 6.2326     | 6.2326     | 6.2326     |   0.0 |  1.06
Other   |            | 1.732      |            |       |  0.30

Nlocal:    19652 ave 19652 max 19652 min
Histogram: 1 0 0 0 0 0 0 0 0 0
Nghost:    16578 ave 16578 max 16578 min
Histogram: 1 0 0 0 0 0 0 0 0 0
Neighs:    1.17607e+06 ave 1.17607e+06 max 1.17607e+06 min
Histogram: 1 0 0 0 0 0 0 0 0 0

Total # of neighbors = 1176066
Ave neighs/atom = 59.8446
Neighbor list builds = 4505
Dangerous builds not checked
Setting up Verlet run ...
  Unit style    : metal
  Current step  : 100000
  Time step     : 0.001
Per MPI rank memory allocation (min/avg/max) = 18.2 | 18.2 | 18.2 Mbytes
Step Temp Press TotEng PotEng Enthalpy 
  100000     1863.032    164.76496   -43387.605   -48119.876   -43344.319 
  100495    1818.9513   -10.066219   -43639.496   -48259.798   -43642.128 
Loop time of 66.1269 on 1 procs for 495 steps with 19652 atoms

Performance: 0.647 ns/day, 37.108 hours/ns, 7.486 timesteps/s
99.1% CPU use with 1 MPI tasks x no OpenMP threads

MPI task timing breakdown:
Section |  min time  |  avg time  |  max time  |%varavg| %total
---------------------------------------------------------------
Pair    | 34.687     | 34.687     | 34.687     |   0.0 | 52.45
Neigh   | 29.983     | 29.983     | 29.983     |   0.0 | 45.34
Comm    | 0.53774    | 0.53774    | 0.53774    |   0.0 |  0.81
Output  | 0.00013208 | 0.00013208 | 0.00013208 |   0.0 |  0.00
Modify  | 0.71017    | 0.71017    | 0.71017    |   0.0 |  1.07
Other   |            | 0.209      |            |       |  0.32

Nlocal:    19652 ave 19652 max 19652 min
Histogram: 1 0 0 0 0 0 0 0 0 0
Nghost:    16637 ave 16637 max 16637 min
Histogram: 1 0 0 0 0 0 0 0 0 0
Neighs:    1.18246e+06 ave 1.18246e+06 max 1.18246e+06 min
Histogram: 1 0 0 0 0 0 0 0 0 0

Total # of neighbors = 1182459
Ave neighs/atom = 60.1699
Neighbor list builds = 495
Dangerous builds not checked
Setting up Verlet run ...
  Unit style    : metal
  Current step  : 100495
  Time step     : 0.001
Per MPI rank memory allocation (min/avg/max) = 18.2 | 18.2 | 18.2 Mbytes
Step Temp Press TotEng PotEng Enthalpy 
  100495    1818.9513   -10.066219   -43639.496   -48259.798   -43642.128 
  105000    1819.2956    1006.6734   -43684.505   -48305.682   -43422.165 
Loop time of 584.991 on 1 procs for 4505 steps with 19652 atoms

Performance: 0.665 ns/day, 36.070 hours/ns, 7.701 timesteps/s
99.3% CPU use with 1 MPI tasks x no OpenMP threads

MPI task timing breakdown:
Section |  min time  |  avg time  |  max time  |%varavg| %total
---------------------------------------------------------------
Pair    | 307.37     | 307.37     | 307.37     |   0.0 | 52.54
Neigh   | 264.81     | 264.81     | 264.81     |   0.0 | 45.27
Comm    | 4.7615     | 4.7615     | 4.7615     |   0.0 |  0.81
Output  | 0.084897   | 0.084897   | 0.084897   |   0.0 |  0.01
Modify  | 6.156      | 6.156      | 6.156      |   0.0 |  1.05
Other   |            | 1.806      |            |       |  0.31

Nlocal:    19652 ave 19652 max 19652 min
Histogram: 1 0 0 0 0 0 0 0 0 0
Nghost:    16743 ave 16743 max 16743 min
Histogram: 1 0 0 0 0 0 0 0 0 0
Neighs:    1.18608e+06 ave 1.18608e+06 max 1.18608e+06 min
Histogram: 1 0 0 0 0 0 0 0 0 0

Total # of neighbors = 1186085
Ave neighs/atom = 60.3544
Neighbor list builds = 4505
Dangerous builds not checked
Setting up Verlet run ...
  Unit style    : metal
  Current step  : 105000
  Time step     : 0.001
Per MPI rank memory allocation (min/avg/max) = 18.2 | 18.2 | 18.2 Mbytes
Step Temp Press TotEng PotEng Enthalpy 
  105000    1819.2956    1006.6734   -43684.505   -48305.682   -43422.165 
  105495    1770.3867    892.54798   -43907.707    -48404.65   -43675.802 
Loop time of 65.2618 on 1 procs for 495 steps with 19652 atoms

Performance: 0.655 ns/day, 36.623 hours/ns, 7.585 timesteps/s
99.1% CPU use with 1 MPI tasks x no OpenMP threads

MPI task timing breakdown:
Section |  min time  |  avg time  |  max time  |%varavg| %total
---------------------------------------------------------------
Pair    | 34.144     | 34.144     | 34.144     |   0.0 | 52.32
Neigh   | 29.686     | 29.686     | 29.686     |   0.0 | 45.49
Comm    | 0.52353    | 0.52353    | 0.52353    |   0.0 |  0.80
Output  | 0.00021982 | 0.00021982 | 0.00021982 |   0.0 |  0.00
Modify  | 0.70613    | 0.70613    | 0.70613    |   0.0 |  1.08
Other   |            | 0.202      |            |       |  0.31

Nlocal:    19652 ave 19652 max 19652 min
Histogram: 1 0 0 0 0 0 0 0 0 0
Nghost:    16692 ave 16692 max 16692 min
Histogram: 1 0 0 0 0 0 0 0 0 0
Neighs:    1.19013e+06 ave 1.19013e+06 max 1.19013e+06 min
Histogram: 1 0 0 0 0 0 0 0 0 0

Total # of neighbors = 1190133
Ave neighs/atom = 60.5604
Neighbor list builds = 495
Dangerous builds not checked
Setting up Verlet run ...
  Unit style    : metal
  Current step  : 105495
  Time step     : 0.001
Per MPI rank memory allocation (min/avg/max) = 18.2 | 18.2 | 18.2 Mbytes
Step Temp Press TotEng PotEng Enthalpy 
  105495    1770.3867    892.54798   -43907.707    -48404.65   -43675.802 
  110000    1748.5259   -1125.5786   -44093.001   -48534.416   -44384.888 
Loop time of 583.845 on 1 procs for 4505 steps with 19652 atoms

Performance: 0.667 ns/day, 36.000 hours/ns, 7.716 timesteps/s
99.2% CPU use with 1 MPI tasks x no OpenMP threads

MPI task timing breakdown:
Section |  min time  |  avg time  |  max time  |%varavg| %total
---------------------------------------------------------------
Pair    | 307.18     | 307.18     | 307.18     |   0.0 | 52.61
Neigh   | 264.04     | 264.04     | 264.04     |   0.0 | 45.22
Comm    | 4.6673     | 4.6673     | 4.6673     |   0.0 |  0.80
Output  | 0.083927   | 0.083927   | 0.083927   |   0.0 |  0.01
Modify  | 6.1044     | 6.1044     | 6.1044     |   0.0 |  1.05
Other   |            | 1.777      |            |       |  0.30

Nlocal:    19652 ave 19652 max 19652 min
Histogram: 1 0 0 0 0 0 0 0 0 0
Nghost:    16700 ave 16700 max 16700 min
Histogram: 1 0 0 0 0 0 0 0 0 0
Neighs:    1.19256e+06 ave 1.19256e+06 max 1.19256e+06 min
Histogram: 1 0 0 0 0 0 0 0 0 0

Total # of neighbors = 1192563
Ave neighs/atom = 60.6841
Neighbor list builds = 4505
Dangerous builds not checked
Setting up Verlet run ...
  Unit style    : metal
  Current step  : 110000
  Time step     : 0.001
Per MPI rank memory allocation (min/avg/max) = 18.2 | 18.2 | 18.2 Mbytes
Step Temp Press TotEng PotEng Enthalpy 
  110000    1748.5259   -1125.5786   -44093.001   -48534.416   -44384.888 
  110495    1706.1002   -205.47237   -44268.487   -48602.137   -44321.581 
Loop time of 65.4376 on 1 procs for 495 steps with 19652 atoms

Performance: 0.654 ns/day, 36.721 hours/ns, 7.564 timesteps/s
100.0% CPU use with 1 MPI tasks x no OpenMP threads

MPI task timing breakdown:
Section |  min time  |  avg time  |  max time  |%varavg| %total
---------------------------------------------------------------
Pair    | 34.585     | 34.585     | 34.585     |   0.0 | 52.85
Neigh   | 29.411     | 29.411     | 29.411     |   0.0 | 44.95
Comm    | 0.53161    | 0.53161    | 0.53161    |   0.0 |  0.81
Output  | 0.0001359  | 0.0001359  | 0.0001359  |   0.0 |  0.00
Modify  | 0.70492    | 0.70492    | 0.70492    |   0.0 |  1.08
Other   |            | 0.2051     |            |       |  0.31

Nlocal:    19652 ave 19652 max 19652 min
Histogram: 1 0 0 0 0 0 0 0 0 0
Nghost:    16788 ave 16788 max 16788 min
Histogram: 1 0 0 0 0 0 0 0 0 0
Neighs:    1.19688e+06 ave 1.19688e+06 max 1.19688e+06 min
Histogram: 1 0 0 0 0 0 0 0 0 0

Total # of neighbors = 1196881
Ave neighs/atom = 60.9038
Neighbor list builds = 495
Dangerous builds not checked
Setting up Verlet run ...
  Unit style    : metal
  Current step  : 110495
  Time step     : 0.001
Per MPI rank memory allocation (min/avg/max) = 18.2 | 18.2 | 18.2 Mbytes
Step Temp Press TotEng PotEng Enthalpy 
  110495    1706.1002   -205.47237   -44268.487   -48602.137   -44321.581 
  115000     1711.837    556.98938   -44290.943   -48639.165   -44147.408 
Loop time of 585.689 on 1 procs for 4505 steps with 19652 atoms

Performance: 0.665 ns/day, 36.114 hours/ns, 7.692 timesteps/s
99.6% CPU use with 1 MPI tasks x no OpenMP threads

MPI task timing breakdown:
Section |  min time  |  avg time  |  max time  |%varavg| %total
---------------------------------------------------------------
Pair    | 308.78     | 308.78     | 308.78     |   0.0 | 52.72
Neigh   | 264.3      | 264.3      | 264.3      |   0.0 | 45.13
Comm    | 4.6256     | 4.6256     | 4.6256     |   0.0 |  0.79
Output  | 0.11531    | 0.11531    | 0.11531    |   0.0 |  0.02
Modify  | 6.1239     | 6.1239     | 6.1239     |   0.0 |  1.05
Other   |            | 1.748      |            |       |  0.30

Nlocal:    19652 ave 19652 max 19652 min
Histogram: 1 0 0 0 0 0 0 0 0 0
Nghost:    16779 ave 16779 max 16779 min
Histogram: 1 0 0 0 0 0 0 0 0 0
Neighs:    1.20041e+06 ave 1.20041e+06 max 1.20041e+06 min
Histogram: 1 0 0 0 0 0 0 0 0 0

Total # of neighbors = 1200406
Ave neighs/atom = 61.0831
Neighbor list builds = 4505
Dangerous builds not checked
Setting up Verlet run ...
  Unit style    : metal
  Current step  : 115000
  Time step     : 0.001
Per MPI rank memory allocation (min/avg/max) = 18.2 | 18.2 | 18.2 Mbytes
Step Temp Press TotEng PotEng Enthalpy 
  115000     1711.837    556.98938   -44290.943   -48639.165   -44147.408 
  115495      1661.97     262.1772    -44551.45   -48773.006   -44484.185 
Loop time of 65.5339 on 1 procs for 495 steps with 19652 atoms

Performance: 0.653 ns/day, 36.775 hours/ns, 7.553 timesteps/s
99.8% CPU use with 1 MPI tasks x no OpenMP threads

MPI task timing breakdown:
Section |  min time  |  avg time  |  max time  |%varavg| %total
---------------------------------------------------------------
Pair    | 34.654     | 34.654     | 34.654     |   0.0 | 52.88
Neigh   | 29.445     | 29.445     | 29.445     |   0.0 | 44.93
Comm    | 0.52432    | 0.52432    | 0.52432    |   0.0 |  0.80
Output  | 0.000175   | 0.000175   | 0.000175   |   0.0 |  0.00
Modify  | 0.71017    | 0.71017    | 0.71017    |   0.0 |  1.08
Other   |            | 0.1999     |            |       |  0.30

Nlocal:    19652 ave 19652 max 19652 min
Histogram: 1 0 0 0 0 0 0 0 0 0
Nghost:    16783 ave 16783 max 16783 min
Histogram: 1 0 0 0 0 0 0 0 0 0
Neighs:    1.2054e+06 ave 1.2054e+06 max 1.2054e+06 min
Histogram: 1 0 0 0 0 0 0 0 0 0

Total # of neighbors = 1205402
Ave neighs/atom = 61.3374
Neighbor list builds = 495
Dangerous builds not checked
Setting up Verlet run ...
  Unit style    : metal
  Current step  : 115495
  Time step     : 0.001
Per MPI rank memory allocation (min/avg/max) = 18.2 | 18.2 | 18.2 Mbytes
Step Temp Press TotEng PotEng Enthalpy 
  115495      1661.97     262.1772    -44551.45   -48773.006   -44484.185 
  120000    1652.4697    97.941597   -44689.349   -48886.773   -44664.308 
Loop time of 572.361 on 1 procs for 4505 steps with 19652 atoms

Performance: 0.680 ns/day, 35.292 hours/ns, 7.871 timesteps/s
99.3% CPU use with 1 MPI tasks x no OpenMP threads

MPI task timing breakdown:
Section |  min time  |  avg time  |  max time  |%varavg| %total
---------------------------------------------------------------
Pair    | 299.11     | 299.11     | 299.11     |   0.0 | 52.26
Neigh   | 260.9      | 260.9      | 260.9      |   0.0 | 45.58
Comm    | 4.4636     | 4.4636     | 4.4636     |   0.0 |  0.78
Output  | 0.17853    | 0.17853    | 0.17853    |   0.0 |  0.03
Modify  | 6.0452     | 6.0452     | 6.0452     |   0.0 |  1.06
Other   |            | 1.672      |            |       |  0.29

Nlocal:    19652 ave 19652 max 19652 min
Histogram: 1 0 0 0 0 0 0 0 0 0
Nghost:    16789 ave 16789 max 16789 min
Histogram: 1 0 0 0 0 0 0 0 0 0
Neighs:    1.21007e+06 ave 1.21007e+06 max 1.21007e+06 min
Histogram: 1 0 0 0 0 0 0 0 0 0

Total # of neighbors = 1210067
Ave neighs/atom = 61.5748
Neighbor list builds = 4505
Dangerous builds not checked
Setting up Verlet run ...
  Unit style    : metal
  Current step  : 120000
  Time step     : 0.001
Per MPI rank memory allocation (min/avg/max) = 18.2 | 18.2 | 18.2 Mbytes
Step Temp Press TotEng PotEng Enthalpy 
  120000    1652.4697    97.941597   -44689.349   -48886.773   -44664.308 
  120495    1621.6497    34.368081   -44857.926   -48977.064   -44849.165 
Loop time of 56.6131 on 1 procs for 495 steps with 19652 atoms

Performance: 0.755 ns/day, 31.769 hours/ns, 8.744 timesteps/s
99.9% CPU use with 1 MPI tasks x no OpenMP threads

MPI task timing breakdown:
Section |  min time  |  avg time  |  max time  |%varavg| %total
---------------------------------------------------------------
Pair    | 29.113     | 29.113     | 29.113     |   0.0 | 51.43
Neigh   | 26.308     | 26.308     | 26.308     |   0.0 | 46.47
Comm    | 0.43815    | 0.43815    | 0.43815    |   0.0 |  0.77
Output  | 0.00015688 | 0.00015688 | 0.00015688 |   0.0 |  0.00
Modify  | 0.59381    | 0.59381    | 0.59381    |   0.0 |  1.05
Other   |            | 0.1592     |            |       |  0.28

Nlocal:    19652 ave 19652 max 19652 min
Histogram: 1 0 0 0 0 0 0 0 0 0
Nghost:    16861 ave 16861 max 16861 min
Histogram: 1 0 0 0 0 0 0 0 0 0
Neighs:    1.21331e+06 ave 1.21331e+06 max 1.21331e+06 min
Histogram: 1 0 0 0 0 0 0 0 0 0

Total # of neighbors = 1213307
Ave neighs/atom = 61.7396
Neighbor list builds = 495
Dangerous builds not checked
Setting up Verlet run ...
  Unit style    : metal
  Current step  : 120495
  Time step     : 0.001
Per MPI rank memory allocation (min/avg/max) = 18.2 | 18.2 | 18.2 Mbytes
Step Temp Press TotEng PotEng Enthalpy 
  120495    1621.6497    34.368081   -44857.926   -48977.064   -44849.165 
  125000    1606.9083    353.71917   -45059.889   -49141.583   -44970.259 
Loop time of 624.614 on 1 procs for 4505 steps with 19652 atoms

Performance: 0.623 ns/day, 38.514 hours/ns, 7.212 timesteps/s
99.2% CPU use with 1 MPI tasks x no OpenMP threads

MPI task timing breakdown:
Section |  min time  |  avg time  |  max time  |%varavg| %total
---------------------------------------------------------------
Pair    | 333.15     | 333.15     | 333.15     |   0.0 | 53.34
Neigh   | 278.09     | 278.09     | 278.09     |   0.0 | 44.52
Comm    | 4.8661     | 4.8661     | 4.8661     |   0.0 |  0.78
Output  | 0.2325     | 0.2325     | 0.2325     |   0.0 |  0.04
Modify  | 6.4638     | 6.4638     | 6.4638     |   0.0 |  1.03
Other   |            | 1.809      |            |       |  0.29

Nlocal:    19652 ave 19652 max 19652 min
Histogram: 1 0 0 0 0 0 0 0 0 0
Nghost:    16908 ave 16908 max 16908 min
Histogram: 1 0 0 0 0 0 0 0 0 0
Neighs:    1.22114e+06 ave 1.22114e+06 max 1.22114e+06 min
Histogram: 1 0 0 0 0 0 0 0 0 0

Total # of neighbors = 1221136
Ave neighs/atom = 62.138
Neighbor list builds = 4505
Dangerous builds not checked
Setting up Verlet run ...
  Unit style    : metal
  Current step  : 125000
  Time step     : 0.001
Per MPI rank memory allocation (min/avg/max) = 18.2 | 18.2 | 18.2 Mbytes
Step Temp Press TotEng PotEng Enthalpy 
  125000    1606.9083    353.71917   -45059.889   -49141.583   -44970.259 
  125495    1564.2199    1052.4804   -45189.243   -49162.504   -44922.949 
Loop time of 68.8658 on 1 procs for 495 steps with 19652 atoms

Performance: 0.621 ns/day, 38.645 hours/ns, 7.188 timesteps/s
98.2% CPU use with 1 MPI tasks x no OpenMP threads

MPI task timing breakdown:
Section |  min time  |  avg time  |  max time  |%varavg| %total
---------------------------------------------------------------
Pair    | 36.66      | 36.66      | 36.66      |   0.0 | 53.23
Neigh   | 30.736     | 30.736     | 30.736     |   0.0 | 44.63
Comm    | 0.54508    | 0.54508    | 0.54508    |   0.0 |  0.79
Output  | 0.00016809 | 0.00016809 | 0.00016809 |   0.0 |  0.00
Modify  | 0.72868    | 0.72868    | 0.72868    |   0.0 |  1.06
Other   |            | 0.1957     |            |       |  0.28

Nlocal:    19652 ave 19652 max 19652 min
Histogram: 1 0 0 0 0 0 0 0 0 0
Nghost:    16864 ave 16864 max 16864 min
Histogram: 1 0 0 0 0 0 0 0 0 0
Neighs:    1.22315e+06 ave 1.22315e+06 max 1.22315e+06 min
Histogram: 1 0 0 0 0 0 0 0 0 0

Total # of neighbors = 1223151
Ave neighs/atom = 62.2405
Neighbor list builds = 495
Dangerous builds not checked
Setting up Verlet run ...
  Unit style    : metal
  Current step  : 125495
  Time step     : 0.001
Per MPI rank memory allocation (min/avg/max) = 18.2 | 18.2 | 18.2 Mbytes
Step Temp Press TotEng PotEng Enthalpy 
  125495    1564.2199    1052.4804   -45189.243   -49162.504   -44922.949 
  130000    1547.0992    41.375972   -45306.951   -49236.724   -45296.501 
Loop time of 659.112 on 1 procs for 4505 steps with 19652 atoms

Performance: 0.591 ns/day, 40.641 hours/ns, 6.835 timesteps/s
99.4% CPU use with 1 MPI tasks x no OpenMP threads

MPI task timing breakdown:
Section |  min time  |  avg time  |  max time  |%varavg| %total
---------------------------------------------------------------
Pair    | 355.67     | 355.67     | 355.67     |   0.0 | 53.96
Neigh   | 289.36     | 289.36     | 289.36     |   0.0 | 43.90
Comm    | 5.2049     | 5.2049     | 5.2049     |   0.0 |  0.79
Output  | 0.079672   | 0.079672   | 0.079672   |   0.0 |  0.01
Modify  | 6.8564     | 6.8564     | 6.8564     |   0.0 |  1.04
Other   |            | 1.938      |            |       |  0.29

Nlocal:    19652 ave 19652 max 19652 min
Histogram: 1 0 0 0 0 0 0 0 0 0
Nghost:    16918 ave 16918 max 16918 min
Histogram: 1 0 0 0 0 0 0 0 0 0
Neighs:    1.22552e+06 ave 1.22552e+06 max 1.22552e+06 min
Histogram: 1 0 0 0 0 0 0 0 0 0

Total # of neighbors = 1225519
Ave neighs/atom = 62.361
Neighbor list builds = 4505
Dangerous builds not checked
Setting up Verlet run ...
  Unit style    : metal
  Current step  : 130000
  Time step     : 0.001
Per MPI rank memory allocation (min/avg/max) = 18.2 | 18.2 | 18.2 Mbytes
Step Temp Press TotEng PotEng Enthalpy 
  130000    1547.0992    41.375972   -45306.951   -49236.724   -45296.501 
  130495    1514.5334   -189.15817   -45483.659   -49330.712     -45531.3 
Loop time of 71.332 on 1 procs for 495 steps with 19652 atoms

Performance: 0.600 ns/day, 40.029 hours/ns, 6.939 timesteps/s
99.9% CPU use with 1 MPI tasks x no OpenMP threads

MPI task timing breakdown:
Section |  min time  |  avg time  |  max time  |%varavg| %total
---------------------------------------------------------------
Pair    | 38.286     | 38.286     | 38.286     |   0.0 | 53.67
Neigh   | 31.506     | 31.506     | 31.506     |   0.0 | 44.17
Comm    | 0.55914    | 0.55914    | 0.55914    |   0.0 |  0.78
Output  | 0.00016713 | 0.00016713 | 0.00016713 |   0.0 |  0.00
Modify  | 0.76975    | 0.76975    | 0.76975    |   0.0 |  1.08
Other   |            | 0.211      |            |       |  0.30

Nlocal:    19652 ave 19652 max 19652 min
Histogram: 1 0 0 0 0 0 0 0 0 0
Nghost:    16933 ave 16933 max 16933 min
Histogram: 1 0 0 0 0 0 0 0 0 0
Neighs:    1.22952e+06 ave 1.22952e+06 max 1.22952e+06 min
Histogram: 1 0 0 0 0 0 0 0 0 0

Total # of neighbors = 1229522
Ave neighs/atom = 62.5647
Neighbor list builds = 495
Dangerous builds not checked
Setting up Verlet run ...
  Unit style    : metal
  Current step  : 130495
  Time step     : 0.001
Per MPI rank memory allocation (min/avg/max) = 18.2 | 18.2 | 18.2 Mbytes
Step Temp Press TotEng PotEng Enthalpy 
  130495    1514.5334   -189.15817   -45483.659   -49330.712     -45531.3 
  135000    1487.0539   -1183.3517   -45656.306   -49433.559   -45953.693 
Loop time of 573.69 on 1 procs for 4505 steps with 19652 atoms

Performance: 0.678 ns/day, 35.374 hours/ns, 7.853 timesteps/s
99.0% CPU use with 1 MPI tasks x no OpenMP threads

MPI task timing breakdown:
Section |  min time  |  avg time  |  max time  |%varavg| %total
---------------------------------------------------------------
Pair    | 301.25     | 301.25     | 301.25     |   0.0 | 52.51
Neigh   | 260.38     | 260.38     | 260.38     |   0.0 | 45.39
Comm    | 4.3422     | 4.3422     | 4.3422     |   0.0 |  0.76
Output  | 0.18429    | 0.18429    | 0.18429    |   0.0 |  0.03
Modify  | 5.9424     | 5.9424     | 5.9424     |   0.0 |  1.04
Other   |            | 1.588      |            |       |  0.28

Nlocal:    19652 ave 19652 max 19652 min
Histogram: 1 0 0 0 0 0 0 0 0 0
Nghost:    16934 ave 16934 max 16934 min
Histogram: 1 0 0 0 0 0 0 0 0 0
Neighs:    1.2324e+06 ave 1.2324e+06 max 1.2324e+06 min
Histogram: 1 0 0 0 0 0 0 0 0 0

Total # of neighbors = 1232398
Ave neighs/atom = 62.7111
Neighbor list builds = 4505
Dangerous builds not checked
Setting up Verlet run ...
  Unit style    : metal
  Current step  : 135000
  Time step     : 0.001
Per MPI rank memory allocation (min/avg/max) = 18.2 | 18.2 | 18.2 Mbytes
Step Temp Press TotEng PotEng Enthalpy 
  135000    1487.0539   -1183.3517   -45656.306   -49433.559   -45953.693 
  135495    1452.0355    -689.0355   -45809.767    -49498.07   -45982.368 
Loop time of 65.9499 on 1 procs for 495 steps with 19652 atoms

Performance: 0.648 ns/day, 37.009 hours/ns, 7.506 timesteps/s
99.4% CPU use with 1 MPI tasks x no OpenMP threads

MPI task timing breakdown:
Section |  min time  |  avg time  |  max time  |%varavg| %total
---------------------------------------------------------------
Pair    | 34.79      | 34.79      | 34.79      |   0.0 | 52.75
Neigh   | 29.769     | 29.769     | 29.769     |   0.0 | 45.14
Comm    | 0.51494    | 0.51494    | 0.51494    |   0.0 |  0.78
Output  | 0.00012493 | 0.00012493 | 0.00012493 |   0.0 |  0.00
Modify  | 0.69289    | 0.69289    | 0.69289    |   0.0 |  1.05
Other   |            | 0.1833     |            |       |  0.28

Nlocal:    19652 ave 19652 max 19652 min
Histogram: 1 0 0 0 0 0 0 0 0 0
Nghost:    16950 ave 16950 max 16950 min
Histogram: 1 0 0 0 0 0 0 0 0 0
Neighs:    1.23581e+06 ave 1.23581e+06 max 1.23581e+06 min
Histogram: 1 0 0 0 0 0 0 0 0 0

Total # of neighbors = 1235809
Ave neighs/atom = 62.8846
Neighbor list builds = 495
Dangerous builds not checked
Setting up Verlet run ...
  Unit style    : metal
  Current step  : 135495
  Time step     : 0.001
Per MPI rank memory allocation (min/avg/max) = 18.2 | 18.2 | 18.2 Mbytes
Step Temp Press TotEng PotEng Enthalpy 
  135495    1452.0355    -689.0355   -45809.767    -49498.07   -45982.368 
  140000    1463.9838    789.47915   -45904.811   -49623.463   -45708.149 
Loop time of 592.98 on 1 procs for 4505 steps with 19652 atoms

Performance: 0.656 ns/day, 36.563 hours/ns, 7.597 timesteps/s
99.3% CPU use with 1 MPI tasks x no OpenMP threads

MPI task timing breakdown:
Section |  min time  |  avg time  |  max time  |%varavg| %total
---------------------------------------------------------------
Pair    | 315.25     | 315.25     | 315.25     |   0.0 | 53.16
Neigh   | 265.01     | 265.01     | 265.01     |   0.0 | 44.69
Comm    | 4.6593     | 4.6593     | 4.6593     |   0.0 |  0.79
Output  | 0.088339   | 0.088339   | 0.088339   |   0.0 |  0.01
Modify  | 6.232      | 6.232      | 6.232      |   0.0 |  1.05
Other   |            | 1.738      |            |       |  0.29

Nlocal:    19652 ave 19652 max 19652 min
Histogram: 1 0 0 0 0 0 0 0 0 0
Nghost:    16944 ave 16944 max 16944 min
Histogram: 1 0 0 0 0 0 0 0 0 0
Neighs:    1.24317e+06 ave 1.24317e+06 max 1.24317e+06 min
Histogram: 1 0 0 0 0 0 0 0 0 0

Total # of neighbors = 1243166
Ave neighs/atom = 63.259
Neighbor list builds = 4505
Dangerous builds not checked
Setting up Verlet run ...
  Unit style    : metal
  Current step  : 140000
  Time step     : 0.001
Per MPI rank memory allocation (min/avg/max) = 18.2 | 18.2 | 18.2 Mbytes
Step Temp Press TotEng PotEng Enthalpy 
  140000    1463.9838    789.47915   -45904.811   -49623.463   -45708.149 
  140495    1426.3001     326.5083   -46108.115   -49731.047    -46027.04 
Loop time of 63.9692 on 1 procs for 495 steps with 19652 atoms

Performance: 0.669 ns/day, 35.897 hours/ns, 7.738 timesteps/s
99.3% CPU use with 1 MPI tasks x no OpenMP threads

MPI task timing breakdown:
Section |  min time  |  avg time  |  max time  |%varavg| %total
---------------------------------------------------------------
Pair    | 33.863     | 33.863     | 33.863     |   0.0 | 52.94
Neigh   | 28.717     | 28.717     | 28.717     |   0.0 | 44.89
Comm    | 0.50514    | 0.50514    | 0.50514    |   0.0 |  0.79
Output  | 0.00019908 | 0.00019908 | 0.00019908 |   0.0 |  0.00
Modify  | 0.69265    | 0.69265    | 0.69265    |   0.0 |  1.08
Other   |            | 0.1908     |            |       |  0.30

Nlocal:    19652 ave 19652 max 19652 min
Histogram: 1 0 0 0 0 0 0 0 0 0
Nghost:    17055 ave 17055 max 17055 min
Histogram: 1 0 0 0 0 0 0 0 0 0
Neighs:    1.24723e+06 ave 1.24723e+06 max 1.24723e+06 min
Histogram: 1 0 0 0 0 0 0 0 0 0

Total # of neighbors = 1247228
Ave neighs/atom = 63.4657
Neighbor list builds = 495
Dangerous builds not checked
Setting up Verlet run ...
  Unit style    : metal
  Current step  : 140495
  Time step     : 0.001
Per MPI rank memory allocation (min/avg/max) = 18.2 | 18.2 | 18.2 Mbytes
Step Temp Press TotEng PotEng Enthalpy 
  140495    1426.3001     326.5083   -46108.115   -49731.047    -46027.04 
  145000    1406.5869    1707.7099   -46240.454   -49813.313    -45818.24 
Loop time of 590.433 on 1 procs for 4505 steps with 19652 atoms

Performance: 0.659 ns/day, 36.406 hours/ns, 7.630 timesteps/s
99.3% CPU use with 1 MPI tasks x no OpenMP threads

MPI task timing breakdown:
Section |  min time  |  avg time  |  max time  |%varavg| %total
---------------------------------------------------------------
Pair    | 314.67     | 314.67     | 314.67     |   0.0 | 53.30
Neigh   | 263.26     | 263.26     | 263.26     |   0.0 | 44.59
Comm    | 4.6334     | 4.6334     | 4.6334     |   0.0 |  0.78
Output  | 0.064979   | 0.064979   | 0.064979   |   0.0 |  0.01
Modify  | 6.0933     | 6.0933     | 6.0933     |   0.0 |  1.03
Other   |            | 1.708      |            |       |  0.29

Nlocal:    19652 ave 19652 max 19652 min
Histogram: 1 0 0 0 0 0 0 0 0 0
Nghost:    17007 ave 17007 max 17007 min
Histogram: 1 0 0 0 0 0 0 0 0 0
Neighs:    1.25347e+06 ave 1.25347e+06 max 1.25347e+06 min
Histogram: 1 0 0 0 0 0 0 0 0 0

Total # of neighbors = 1253467
Ave neighs/atom = 63.7832
Neighbor list builds = 4505
Dangerous builds not checked
Setting up Verlet run ...
  Unit style    : metal
  Current step  : 145000
  Time step     : 0.001
Per MPI rank memory allocation (min/avg/max) = 18.2 | 18.2 | 18.2 Mbytes
Step Temp Press TotEng PotEng Enthalpy 
  145000    1406.5869    1707.7099   -46240.454   -49813.313    -45818.24 
  145495    1376.6899   -497.50095   -46451.785   -49948.703   -46574.597 
Loop time of 69.9531 on 1 procs for 495 steps with 19652 atoms

Performance: 0.611 ns/day, 39.255 hours/ns, 7.076 timesteps/s
99.5% CPU use with 1 MPI tasks x no OpenMP threads

MPI task timing breakdown:
Section |  min time  |  avg time  |  max time  |%varavg| %total
---------------------------------------------------------------
Pair    | 37.756     | 37.756     | 37.756     |   0.0 | 53.97
Neigh   | 30.684     | 30.684     | 30.684     |   0.0 | 43.86
Comm    | 0.55147    | 0.55147    | 0.55147    |   0.0 |  0.79
Output  | 0.00020385 | 0.00020385 | 0.00020385 |   0.0 |  0.00
Modify  | 0.74833    | 0.74833    | 0.74833    |   0.0 |  1.07
Other   |            | 0.2137     |            |       |  0.31

Nlocal:    19652 ave 19652 max 19652 min
Histogram: 1 0 0 0 0 0 0 0 0 0
Nghost:    17078 ave 17078 max 17078 min
Histogram: 1 0 0 0 0 0 0 0 0 0
Neighs:    1.25517e+06 ave 1.25517e+06 max 1.25517e+06 min
Histogram: 1 0 0 0 0 0 0 0 0 0

Total # of neighbors = 1255171
Ave neighs/atom = 63.8699
Neighbor list builds = 495
Dangerous builds not checked
Setting up Verlet run ...
  Unit style    : metal
  Current step  : 145495
  Time step     : 0.001
Per MPI rank memory allocation (min/avg/max) = 18.2 | 18.2 | 18.2 Mbytes
Step Temp Press TotEng PotEng Enthalpy 
  145495    1376.6899   -497.50095   -46451.785   -49948.703   -46574.597 
  150000    1342.1033   -792.65952   -46562.288   -49971.353    -46757.85 
Loop time of 686.555 on 1 procs for 4505 steps with 19652 atoms

Performance: 0.567 ns/day, 42.333 hours/ns, 6.562 timesteps/s
99.0% CPU use with 1 MPI tasks x no OpenMP threads

MPI task timing breakdown:
Section |  min time  |  avg time  |  max time  |%varavg| %total
---------------------------------------------------------------
Pair    | 374.91     | 374.91     | 374.91     |   0.0 | 54.61
Neigh   | 296.77     | 296.77     | 296.77     |   0.0 | 43.23
Comm    | 5.6782     | 5.6782     | 5.6782     |   0.0 |  0.83
Output  | 0.062636   | 0.062636   | 0.062636   |   0.0 |  0.01
Modify  | 7.0949     | 7.0949     | 7.0949     |   0.0 |  1.03
Other   |            | 2.043      |            |       |  0.30

Nlocal:    19652 ave 19652 max 19652 min
Histogram: 1 0 0 0 0 0 0 0 0 0
Nghost:    17072 ave 17072 max 17072 min
Histogram: 1 0 0 0 0 0 0 0 0 0
Neighs:    1.25667e+06 ave 1.25667e+06 max 1.25667e+06 min
Histogram: 1 0 0 0 0 0 0 0 0 0

Total # of neighbors = 1256673
Ave neighs/atom = 63.9463
Neighbor list builds = 4505
Dangerous builds not checked
Setting up Verlet run ...
  Unit style    : metal
  Current step  : 150000
  Time step     : 0.001
Per MPI rank memory allocation (min/avg/max) = 18.2 | 18.2 | 18.2 Mbytes
Step Temp Press TotEng PotEng Enthalpy 
  150000    1342.1033   -792.65952   -46562.288   -49971.353    -46757.85 
  150495    1312.4622   -166.10268   -46776.748   -50110.521   -46817.517 
Loop time of 78.0427 on 1 procs for 495 steps with 19652 atoms

Performance: 0.548 ns/day, 43.795 hours/ns, 6.343 timesteps/s
98.6% CPU use with 1 MPI tasks x no OpenMP threads

MPI task timing breakdown:
Section |  min time  |  avg time  |  max time  |%varavg| %total
---------------------------------------------------------------
Pair    | 42.373     | 42.373     | 42.373     |   0.0 | 54.29
Neigh   | 33.911     | 33.911     | 33.911     |   0.0 | 43.45
Comm    | 0.7047     | 0.7047     | 0.7047     |   0.0 |  0.90
Output  | 0.00014305 | 0.00014305 | 0.00014305 |   0.0 |  0.00
Modify  | 0.82415    | 0.82415    | 0.82415    |   0.0 |  1.06
Other   |            | 0.2301     |            |       |  0.29

Nlocal:    19652 ave 19652 max 19652 min
Histogram: 1 0 0 0 0 0 0 0 0 0
Nghost:    17019 ave 17019 max 17019 min
Histogram: 1 0 0 0 0 0 0 0 0 0
Neighs:    1.26325e+06 ave 1.26325e+06 max 1.26325e+06 min
Histogram: 1 0 0 0 0 0 0 0 0 0

Total # of neighbors = 1263253
Ave neighs/atom = 64.2811
Neighbor list builds = 495
Dangerous builds not checked
Setting up Verlet run ...
  Unit style    : metal
  Current step  : 150495
  Time step     : 0.001
Per MPI rank memory allocation (min/avg/max) = 18.2 | 18.2 | 18.2 Mbytes
Step Temp Press TotEng PotEng Enthalpy 
  150495    1312.4622   -166.10268   -46776.748   -50110.521   -46817.517 
  155000    1300.6538    1008.7384    -46868.61   -50172.389   -46622.052 
Loop time of 611.389 on 1 procs for 4505 steps with 19652 atoms

Performance: 0.637 ns/day, 37.698 hours/ns, 7.368 timesteps/s
98.9% CPU use with 1 MPI tasks x no OpenMP threads

MPI task timing breakdown:
Section |  min time  |  avg time  |  max time  |%varavg| %total
---------------------------------------------------------------
Pair    | 327.69     | 327.69     | 327.69     |   0.0 | 53.60
Neigh   | 270.63     | 270.63     | 270.63     |   0.0 | 44.26
Comm    | 4.9507     | 4.9507     | 4.9507     |   0.0 |  0.81
Output  | 0.082212   | 0.082212   | 0.082212   |   0.0 |  0.01
Modify  | 6.2945     | 6.2945     | 6.2945     |   0.0 |  1.03
Other   |            | 1.748      |            |       |  0.29

Nlocal:    19652 ave 19652 max 19652 min
Histogram: 1 0 0 0 0 0 0 0 0 0
Nghost:    17154 ave 17154 max 17154 min
Histogram: 1 0 0 0 0 0 0 0 0 0
Neighs:    1.26883e+06 ave 1.26883e+06 max 1.26883e+06 min
Histogram: 1 0 0 0 0 0 0 0 0 0

Total # of neighbors = 1268832
Ave neighs/atom = 64.565
Neighbor list builds = 4505
Dangerous builds not checked
Setting up Verlet run ...
  Unit style    : metal
  Current step  : 155000
  Time step     : 0.001
Per MPI rank memory allocation (min/avg/max) = 18.2 | 18.2 | 18.2 Mbytes
Step Temp Press TotEng PotEng Enthalpy 
  155000    1300.6538    1008.7384    -46868.61   -50172.389   -46622.052 
  155495    1275.2522    351.56357   -47054.041   -50293.297   -46968.276 
Loop time of 63.5578 on 1 procs for 495 steps with 19652 atoms

Performance: 0.673 ns/day, 35.667 hours/ns, 7.788 timesteps/s
98.5% CPU use with 1 MPI tasks x no OpenMP threads

MPI task timing breakdown:
Section |  min time  |  avg time  |  max time  |%varavg| %total
---------------------------------------------------------------
Pair    | 33.934     | 33.934     | 33.934     |   0.0 | 53.39
Neigh   | 28.291     | 28.291     | 28.291     |   0.0 | 44.51
Comm    | 0.49736    | 0.49736    | 0.49736    |   0.0 |  0.78
Output  | 0.00013399 | 0.00013399 | 0.00013399 |   0.0 |  0.00
Modify  | 0.65728    | 0.65728    | 0.65728    |   0.0 |  1.03
Other   |            | 0.1784     |            |       |  0.28

Nlocal:    19652 ave 19652 max 19652 min
Histogram: 1 0 0 0 0 0 0 0 0 0
Nghost:    17171 ave 17171 max 17171 min
Histogram: 1 0 0 0 0 0 0 0 0 0
Neighs:    1.27069e+06 ave 1.27069e+06 max 1.27069e+06 min
Histogram: 1 0 0 0 0 0 0 0 0 0

Total # of neighbors = 1270690
Ave neighs/atom = 64.6596
Neighbor list builds = 495
Dangerous builds not checked
Setting up Verlet run ...
  Unit style    : metal
  Current step  : 155495
  Time step     : 0.001
Per MPI rank memory allocation (min/avg/max) = 18.2 | 18.2 | 18.2 Mbytes
Step Temp Press TotEng PotEng Enthalpy 
  155495    1275.2522    351.56357   -47054.041   -50293.297   -46968.276 
  160000    1257.1143     156.2555   -47184.654   -50377.838   -47146.657 
Loop time of 661.037 on 1 procs for 4505 steps with 19652 atoms

Performance: 0.589 ns/day, 40.759 hours/ns, 6.815 timesteps/s
98.7% CPU use with 1 MPI tasks x no OpenMP threads

MPI task timing breakdown:
Section |  min time  |  avg time  |  max time  |%varavg| %total
---------------------------------------------------------------
Pair    | 361.58     | 361.58     | 361.58     |   0.0 | 54.70
Neigh   | 285.11     | 285.11     | 285.11     |   0.0 | 43.13
Comm    | 5.464      | 5.464      | 5.464      |   0.0 |  0.83
Output  | 0.091646   | 0.091646   | 0.091646   |   0.0 |  0.01
Modify  | 6.8789     | 6.8789     | 6.8789     |   0.0 |  1.04
Other   |            | 1.911      |            |       |  0.29

Nlocal:    19652 ave 19652 max 19652 min
Histogram: 1 0 0 0 0 0 0 0 0 0
Nghost:    17152 ave 17152 max 17152 min
Histogram: 1 0 0 0 0 0 0 0 0 0
Neighs:    1.27558e+06 ave 1.27558e+06 max 1.27558e+06 min
Histogram: 1 0 0 0 0 0 0 0 0 0

Total # of neighbors = 1275579
Ave neighs/atom = 64.9084
Neighbor list builds = 4505
Dangerous builds not checked
Setting up Verlet run ...
  Unit style    : metal
  Current step  : 160000
  Time step     : 0.001
Per MPI rank memory allocation (min/avg/max) = 18.2 | 18.2 | 18.2 Mbytes
Step Temp Press TotEng PotEng Enthalpy 
  160000    1257.1143     156.2555   -47184.654   -50377.838   -47146.657 
  160495    1218.1925    302.08211   -47370.372   -50464.692   -47297.139 
Loop time of 74.8132 on 1 procs for 495 steps with 19652 atoms

Performance: 0.572 ns/day, 41.983 hours/ns, 6.616 timesteps/s
97.7% CPU use with 1 MPI tasks x no OpenMP threads

MPI task timing breakdown:
Section |  min time  |  avg time  |  max time  |%varavg| %total
---------------------------------------------------------------
Pair    | 40.887     | 40.887     | 40.887     |   0.0 | 54.65
Neigh   | 32.281     | 32.281     | 32.281     |   0.0 | 43.15
Comm    | 0.63128    | 0.63128    | 0.63128    |   0.0 |  0.84
Output  | 0.00020909 | 0.00020909 | 0.00020909 |   0.0 |  0.00
Modify  | 0.7966     | 0.7966     | 0.7966     |   0.0 |  1.06
Other   |            | 0.2169     |            |       |  0.29

Nlocal:    19652 ave 19652 max 19652 min
Histogram: 1 0 0 0 0 0 0 0 0 0
Nghost:    17139 ave 17139 max 17139 min
Histogram: 1 0 0 0 0 0 0 0 0 0
Neighs:    1.27894e+06 ave 1.27894e+06 max 1.27894e+06 min
Histogram: 1 0 0 0 0 0 0 0 0 0

Total # of neighbors = 1278938
Ave neighs/atom = 65.0793
Neighbor list builds = 495
Dangerous builds not checked
Setting up Verlet run ...
  Unit style    : metal
  Current step  : 160495
  Time step     : 0.001
Per MPI rank memory allocation (min/avg/max) = 18.2 | 18.2 | 18.2 Mbytes
Step Temp Press TotEng PotEng Enthalpy 
  160495    1218.1925    302.08211   -47370.372   -50464.692   -47297.139 
  165000    1200.0877   -979.48118   -47541.351   -50589.683   -47778.254 
Loop time of 709.21 on 1 procs for 4505 steps with 19652 atoms

Performance: 0.549 ns/day, 43.730 hours/ns, 6.352 timesteps/s
97.6% CPU use with 1 MPI tasks x no OpenMP threads

MPI task timing breakdown:
Section |  min time  |  avg time  |  max time  |%varavg| %total
---------------------------------------------------------------
Pair    | 393.7      | 393.7      | 393.7      |   0.0 | 55.51
Neigh   | 300.19     | 300.19     | 300.19     |   0.0 | 42.33
Comm    | 5.7657     | 5.7657     | 5.7657     |   0.0 |  0.81
Output  | 0.084693   | 0.084693   | 0.084693   |   0.0 |  0.01
Modify  | 7.4467     | 7.4467     | 7.4467     |   0.0 |  1.05
Other   |            | 2.017      |            |       |  0.28

Nlocal:    19652 ave 19652 max 19652 min
Histogram: 1 0 0 0 0 0 0 0 0 0
Nghost:    17255 ave 17255 max 17255 min
Histogram: 1 0 0 0 0 0 0 0 0 0
Neighs:    1.28243e+06 ave 1.28243e+06 max 1.28243e+06 min
Histogram: 1 0 0 0 0 0 0 0 0 0

Total # of neighbors = 1282432
Ave neighs/atom = 65.2571
Neighbor list builds = 4505
Dangerous builds not checked
Setting up Verlet run ...
  Unit style    : metal
  Current step  : 165000
  Time step     : 0.001
Per MPI rank memory allocation (min/avg/max) = 18.2 | 18.2 | 18.2 Mbytes
Step Temp Press TotEng PotEng Enthalpy 
  165000    1200.0877   -979.48118   -47541.351   -50589.683   -47778.254 
  165495    1167.2626    254.03579   -47739.874   -50704.827   -47678.754 
Loop time of 73.6536 on 1 procs for 495 steps with 19652 atoms

Performance: 0.581 ns/day, 41.332 hours/ns, 6.721 timesteps/s
97.7% CPU use with 1 MPI tasks x no OpenMP threads

MPI task timing breakdown:
Section |  min time  |  avg time  |  max time  |%varavg| %total
---------------------------------------------------------------
Pair    | 40.924     | 40.924     | 40.924     |   0.0 | 55.56
Neigh   | 31.136     | 31.136     | 31.136     |   0.0 | 42.27
Comm    | 0.61478    | 0.61478    | 0.61478    |   0.0 |  0.83
Output  | 0.00015807 | 0.00015807 | 0.00015807 |   0.0 |  0.00
Modify  | 0.77019    | 0.77019    | 0.77019    |   0.0 |  1.05
Other   |            | 0.2085     |            |       |  0.28

Nlocal:    19652 ave 19652 max 19652 min
Histogram: 1 0 0 0 0 0 0 0 0 0
Nghost:    17281 ave 17281 max 17281 min
Histogram: 1 0 0 0 0 0 0 0 0 0
Neighs:    1.28962e+06 ave 1.28962e+06 max 1.28962e+06 min
Histogram: 1 0 0 0 0 0 0 0 0 0

Total # of neighbors = 1289624
Ave neighs/atom = 65.623
Neighbor list builds = 495
Dangerous builds not checked
Setting up Verlet run ...
  Unit style    : metal
  Current step  : 165495
  Time step     : 0.001
Per MPI rank memory allocation (min/avg/max) = 18.2 | 18.2 | 18.2 Mbytes
Step Temp Press TotEng PotEng Enthalpy 
  165495    1167.2626    254.03579   -47739.874   -50704.827   -47678.754 
  170000    1145.0777    743.79119   -47871.638   -50780.239    -47693.23 
Loop time of 680.546 on 1 procs for 4505 steps with 19652 atoms

Performance: 0.572 ns/day, 41.962 hours/ns, 6.620 timesteps/s
98.4% CPU use with 1 MPI tasks x no OpenMP threads

MPI task timing breakdown:
Section |  min time  |  avg time  |  max time  |%varavg| %total
[...]
Neighbor list builds = 4505
Dangerous builds not checked
Setting up Verlet run ...
  Unit style    : metal
  Current step  : 240000
  Time step     : 0.001
Per MPI rank memory allocation (min/avg/max) = 18.2 | 18.2 | 18.2 Mbytes
Step Temp Press TotEng PotEng Enthalpy 
  240000     449.8866   -660.77794   -52618.727    -53761.48   -52764.091 
  240495    418.60436   -422.06642   -52783.433   -53846.726   -52876.035 
Loop time of 64.2106 on 1 procs for 495 steps with 19652 atoms

Performance: 0.666 ns/day, 36.033 hours/ns, 7.709 timesteps/s
99.3% CPU use with 1 MPI tasks x no OpenMP threads

MPI task timing breakdown:
Section |  min time  |  avg time  |  max time  |%varavg| %total
---------------------------------------------------------------
Pair    | 33.693     | 33.693     | 33.693     |   0.0 | 52.47
Neigh   | 29.239     | 29.239     | 29.239     |   0.0 | 45.54
Comm    | 0.46342    | 0.46342    | 0.46342    |   0.0 |  0.72
Output  | 0.0001471  | 0.0001471  | 0.0001471  |   0.0 |  0.00
Modify  | 0.64283    | 0.64283    | 0.64283    |   0.0 |  1.00
Other   |            | 0.1715     |            |       |  0.27

Nlocal:    19652 ave 19652 max 19652 min
Histogram: 1 0 0 0 0 0 0 0 0 0
Nghost:    17868 ave 17868 max 17868 min
Histogram: 1 0 0 0 0 0 0 0 0 0
Neighs:    1.41802e+06 ave 1.41802e+06 max 1.41802e+06 min
Histogram: 1 0 0 0 0 0 0 0 0 0

Total # of neighbors = 1418019
Ave neighs/atom = 72.1565
Neighbor list builds = 495
Dangerous builds not checked
Setting up Verlet run ...
  Unit style    : metal
  Current step  : 240495
  Time step     : 0.001
Per MPI rank memory allocation (min/avg/max) = 18.2 | 18.2 | 18.2 Mbytes
Step Temp Press TotEng PotEng Enthalpy 
  240495    418.60436   -422.06642   -52783.433   -53846.726   -52876.035 
  245000    397.97204    -453.3785   -52943.916   -53954.801    -53043.09 
Loop time of 580.245 on 1 procs for 4505 steps with 19652 atoms

Performance: 0.671 ns/day, 35.778 hours/ns, 7.764 timesteps/s
99.3% CPU use with 1 MPI tasks x no OpenMP threads

MPI task timing breakdown:
Section |  min time  |  avg time  |  max time  |%varavg| %total
---------------------------------------------------------------
Pair    | 303.75     | 303.75     | 303.75     |   0.0 | 52.35
Neigh   | 265.14     | 265.14     | 265.14     |   0.0 | 45.69
Comm    | 4.1083     | 4.1083     | 4.1083     |   0.0 |  0.71
Output  | 0.063256   | 0.063256   | 0.063256   |   0.0 |  0.01
Modify  | 5.6349     | 5.6349     | 5.6349     |   0.0 |  0.97
Other   |            | 1.554      |            |       |  0.27

Nlocal:    19652 ave 19652 max 19652 min
Histogram: 1 0 0 0 0 0 0 0 0 0
Nghost:    17932 ave 17932 max 17932 min
Histogram: 1 0 0 0 0 0 0 0 0 0
Neighs:    1.42238e+06 ave 1.42238e+06 max 1.42238e+06 min
Histogram: 1 0 0 0 0 0 0 0 0 0

Total # of neighbors = 1422382
Ave neighs/atom = 72.3785
Neighbor list builds = 4505
Dangerous builds not checked
Setting up Verlet run ...
  Unit style    : metal
  Current step  : 245000
  Time step     : 0.001
Per MPI rank memory allocation (min/avg/max) = 18.2 | 18.2 | 18.2 Mbytes
Step Temp Press TotEng PotEng Enthalpy 
  245000    397.97204    -453.3785   -52943.916   -53954.801    -53043.09 
  245495    373.13679    407.35686   -53081.363   -54029.164   -52992.521 
Loop time of 60.5705 on 1 procs for 495 steps with 19652 atoms

Performance: 0.706 ns/day, 33.990 hours/ns, 8.172 timesteps/s
99.8% CPU use with 1 MPI tasks x no OpenMP threads

MPI task timing breakdown:
Section |  min time  |  avg time  |  max time  |%varavg| %total
---------------------------------------------------------------
Pair    | 31.765     | 31.765     | 31.765     |   0.0 | 52.44
Neigh   | 27.611     | 27.611     | 27.611     |   0.0 | 45.59
Comm    | 0.43558    | 0.43558    | 0.43558    |   0.0 |  0.72
Output  | 0.00014591 | 0.00014591 | 0.00014591 |   0.0 |  0.00
Modify  | 0.59732    | 0.59732    | 0.59732    |   0.0 |  0.99
Other   |            | 0.161      |            |       |  0.27

Nlocal:    19652 ave 19652 max 19652 min
Histogram: 1 0 0 0 0 0 0 0 0 0
Nghost:    17907 ave 17907 max 17907 min
Histogram: 1 0 0 0 0 0 0 0 0 0
Neighs:    1.42643e+06 ave 1.42643e+06 max 1.42643e+06 min
Histogram: 1 0 0 0 0 0 0 0 0 0

Total # of neighbors = 1426426
Ave neighs/atom = 72.5843
Neighbor list builds = 495
Dangerous builds not checked
Setting up Verlet run ...
  Unit style    : metal
  Current step  : 245495
  Time step     : 0.001
Per MPI rank memory allocation (min/avg/max) = 18.2 | 18.2 | 18.2 Mbytes
Step Temp Press TotEng PotEng Enthalpy 
  245495    373.13679    407.35686   -53081.363   -54029.164   -52992.521 
  250000    349.38277   -731.70885   -53225.066    -54112.53   -53384.502 
Loop time of 647.45 on 1 procs for 4505 steps with 19652 atoms

Performance: 0.601 ns/day, 39.922 hours/ns, 6.958 timesteps/s
99.4% CPU use with 1 MPI tasks x no OpenMP threads

MPI task timing breakdown:
Section |  min time  |  avg time  |  max time  |%varavg| %total
---------------------------------------------------------------
Pair    | 349.3      | 349.3      | 349.3      |   0.0 | 53.95
Neigh   | 284.78     | 284.78     | 284.78     |   0.0 | 43.98
Comm    | 4.9965     | 4.9965     | 4.9965     |   0.0 |  0.77
Output  | 0.1742     | 0.1742     | 0.1742     |   0.0 |  0.03
Modify  | 6.4371     | 6.4371     | 6.4371     |   0.0 |  0.99
Other   |            | 1.762      |            |       |  0.27

Nlocal:    19652 ave 19652 max 19652 min
Histogram: 1 0 0 0 0 0 0 0 0 0
Nghost:    17974 ave 17974 max 17974 min
Histogram: 1 0 0 0 0 0 0 0 0 0
Neighs:    1.42769e+06 ave 1.42769e+06 max 1.42769e+06 min
Histogram: 1 0 0 0 0 0 0 0 0 0

Total # of neighbors = 1427692
Ave neighs/atom = 72.6487
Neighbor list builds = 4505
Dangerous builds not checked
Setting up Verlet run ...
  Unit style    : metal
  Current step  : 250000
  Time step     : 0.001
Per MPI rank memory allocation (min/avg/max) = 18.2 | 18.2 | 18.2 Mbytes
Step Temp Press TotEng PotEng Enthalpy 
  250000    349.38277   -731.70885   -53225.066    -54112.53   -53384.502 
  250495    321.47664    313.91423   -53366.003   -54182.583   -53297.807 
Loop time of 73.2528 on 1 procs for 495 steps with 19652 atoms

Performance: 0.584 ns/day, 41.107 hours/ns, 6.757 timesteps/s
95.8% CPU use with 1 MPI tasks x no OpenMP threads

MPI task timing breakdown:
Section |  min time  |  avg time  |  max time  |%varavg| %total
---------------------------------------------------------------
Pair    | 39.57      | 39.57      | 39.57      |   0.0 | 54.02
Neigh   | 32.19      | 32.19      | 32.19      |   0.0 | 43.94
Comm    | 0.56369    | 0.56369    | 0.56369    |   0.0 |  0.77
Output  | 0.00018907 | 0.00018907 | 0.00018907 |   0.0 |  0.00
Modify  | 0.72767    | 0.72767    | 0.72767    |   0.0 |  0.99
Other   |            | 0.201      |            |       |  0.27

Nlocal:    19652 ave 19652 max 19652 min
Histogram: 1 0 0 0 0 0 0 0 0 0
Nghost:    17957 ave 17957 max 17957 min
Histogram: 1 0 0 0 0 0 0 0 0 0
Neighs:    1.43225e+06 ave 1.43225e+06 max 1.43225e+06 min
Histogram: 1 0 0 0 0 0 0 0 0 0

Total # of neighbors = 1432246
Ave neighs/atom = 72.8804
Neighbor list builds = 495
Dangerous builds not checked
Setting up Verlet run ...
  Unit style    : metal
  Current step  : 250495
  Time step     : 0.001
Per MPI rank memory allocation (min/avg/max) = 18.2 | 18.2 | 18.2 Mbytes
Step Temp Press TotEng PotEng Enthalpy 
  250495    321.47664    313.91423   -53366.003   -54182.583   -53297.807 
  255000     300.5404    582.34193   -53500.171   -54263.571   -53373.989 
Loop time of 673.418 on 1 procs for 4505 steps with 19652 atoms

Performance: 0.578 ns/day, 41.523 hours/ns, 6.690 timesteps/s
98.1% CPU use with 1 MPI tasks x no OpenMP threads

MPI task timing breakdown:
Section |  min time  |  avg time  |  max time  |%varavg| %total
---------------------------------------------------------------
Pair    | 363.67     | 363.67     | 363.67     |   0.0 | 54.00
Neigh   | 296.02     | 296.02     | 296.02     |   0.0 | 43.96
Comm    | 5.0993     | 5.0993     | 5.0993     |   0.0 |  0.76
Output  | 0.080923   | 0.080923   | 0.080923   |   0.0 |  0.01
Modify  | 6.712      | 6.712      | 6.712      |   0.0 |  1.00
Other   |            | 1.844      |            |       |  0.27

Nlocal:    19652 ave 19652 max 19652 min
Histogram: 1 0 0 0 0 0 0 0 0 0
Nghost:    18038 ave 18038 max 18038 min
Histogram: 1 0 0 0 0 0 0 0 0 0
Neighs:    1.4356e+06 ave 1.4356e+06 max 1.4356e+06 min
Histogram: 1 0 0 0 0 0 0 0 0 0

Total # of neighbors = 1435598
Ave neighs/atom = 73.051
Neighbor list builds = 4505
Dangerous builds not checked
Setting up Verlet run ...
  Unit style    : metal
  Current step  : 255000
  Time step     : 0.001
Per MPI rank memory allocation (min/avg/max) = 18.2 | 18.2 | 18.2 Mbytes
Step Temp Press TotEng PotEng Enthalpy 
  255000     300.5404    582.34193   -53500.171   -54263.571   -53373.989 
  255495     273.2473   -447.50836   -53642.003   -54336.076   -53738.898 
Loop time of 67.6324 on 1 procs for 495 steps with 19652 atoms

Performance: 0.632 ns/day, 37.953 hours/ns, 7.319 timesteps/s
99.8% CPU use with 1 MPI tasks x no OpenMP threads

MPI task timing breakdown:
Section |  min time  |  avg time  |  max time  |%varavg| %total
---------------------------------------------------------------
Pair    | 36.165     | 36.165     | 36.165     |   0.0 | 53.47
Neigh   | 30.134     | 30.134     | 30.134     |   0.0 | 44.56
Comm    | 0.48897    | 0.48897    | 0.48897    |   0.0 |  0.72
Output  | 0.00013494 | 0.00013494 | 0.00013494 |   0.0 |  0.00
Modify  | 0.6649     | 0.6649     | 0.6649     |   0.0 |  0.98
Other   |            | 0.1802     |            |       |  0.27

Nlocal:    19652 ave 19652 max 19652 min
Histogram: 1 0 0 0 0 0 0 0 0 0
Nghost:    18033 ave 18033 max 18033 min
Histogram: 1 0 0 0 0 0 0 0 0 0
Neighs:    1.43668e+06 ave 1.43668e+06 max 1.43668e+06 min
Histogram: 1 0 0 0 0 0 0 0 0 0

Total # of neighbors = 1436679
Ave neighs/atom = 73.106
Neighbor list builds = 495
Dangerous builds not checked
Setting up Verlet run ...
  Unit style    : metal
  Current step  : 255495
  Time step     : 0.001
Per MPI rank memory allocation (min/avg/max) = 18.2 | 18.2 | 18.2 Mbytes
Step Temp Press TotEng PotEng Enthalpy 
  255495     273.2473   -447.50836   -53642.003   -54336.076   -53738.898 
  260000    247.27318   -426.58505   -53787.751   -54415.847   -53879.898 
Loop time of 588.879 on 1 procs for 4505 steps with 19652 atoms

Performance: 0.661 ns/day, 36.310 hours/ns, 7.650 timesteps/s
99.5% CPU use with 1 MPI tasks x no OpenMP threads

MPI task timing breakdown:
Section |  min time  |  avg time  |  max time  |%varavg| %total
---------------------------------------------------------------
Pair    | 311.5      | 311.5      | 311.5      |   0.0 | 52.90
Neigh   | 265.75     | 265.75     | 265.75     |   0.0 | 45.13
Comm    | 4.2612     | 4.2612     | 4.2612     |   0.0 |  0.72
Output  | 0.059822   | 0.059822   | 0.059822   |   0.0 |  0.01
Modify  | 5.7531     | 5.7531     | 5.7531     |   0.0 |  0.98
Other   |            | 1.559      |            |       |  0.26

Nlocal:    19652 ave 19652 max 19652 min
Histogram: 1 0 0 0 0 0 0 0 0 0
Nghost:    18047 ave 18047 max 18047 min
Histogram: 1 0 0 0 0 0 0 0 0 0
Neighs:    1.43978e+06 ave 1.43978e+06 max 1.43978e+06 min
Histogram: 1 0 0 0 0 0 0 0 0 0

Total # of neighbors = 1439776
Ave neighs/atom = 73.2636
Neighbor list builds = 4505
Dangerous builds not checked
Setting up Verlet run ...
  Unit style    : metal
  Current step  : 260000
  Time step     : 0.001
Per MPI rank memory allocation (min/avg/max) = 18.2 | 18.2 | 18.2 Mbytes
Step Temp Press TotEng PotEng Enthalpy 
  260000    247.27318   -426.58505   -53787.751   -54415.847   -53879.898 
  260495     222.4206    134.71893   -53912.013   -54476.981   -53882.979 
Loop time of 60.437 on 1 procs for 495 steps with 19652 atoms

Performance: 0.708 ns/day, 33.915 hours/ns, 8.190 timesteps/s
100.0% CPU use with 1 MPI tasks x no OpenMP threads

MPI task timing breakdown:
Section |  min time  |  avg time  |  max time  |%varavg| %total
---------------------------------------------------------------
Pair    | 31.734     | 31.734     | 31.734     |   0.0 | 52.51
Neigh   | 27.532     | 27.532     | 27.532     |   0.0 | 45.55
Comm    | 0.4311     | 0.4311     | 0.4311     |   0.0 |  0.71
Output  | 0.00014114 | 0.00014114 | 0.00014114 |   0.0 |  0.00
Modify  | 0.58246    | 0.58246    | 0.58246    |   0.0 |  0.96
Other   |            | 0.1574     |            |       |  0.26

Nlocal:    19652 ave 19652 max 19652 min
Histogram: 1 0 0 0 0 0 0 0 0 0
Nghost:    18059 ave 18059 max 18059 min
Histogram: 1 0 0 0 0 0 0 0 0 0
Neighs:    1.44296e+06 ave 1.44296e+06 max 1.44296e+06 min
Histogram: 1 0 0 0 0 0 0 0 0 0

Total # of neighbors = 1442955
Ave neighs/atom = 73.4254
Neighbor list builds = 495
Dangerous builds not checked
Setting up Verlet run ...
  Unit style    : metal
  Current step  : 260495
  Time step     : 0.001
Per MPI rank memory allocation (min/avg/max) = 18.2 | 18.2 | 18.2 Mbytes
Step Temp Press TotEng PotEng Enthalpy 
  260495     222.4206    134.71893   -53912.013   -54476.981   -53882.979 
  265000    200.69885   -710.66202   -54041.548   -54551.342   -54194.548 
Loop time of 582.879 on 1 procs for 4505 steps with 19652 atoms

Performance: 0.668 ns/day, 35.940 hours/ns, 7.729 timesteps/s
99.3% CPU use with 1 MPI tasks x no OpenMP threads

MPI task timing breakdown:
Section |  min time  |  avg time  |  max time  |%varavg| %total
---------------------------------------------------------------
Pair    | 308        | 308        | 308        |   0.0 | 52.84
Neigh   | 263.15     | 263.15     | 263.15     |   0.0 | 45.15
Comm    | 4.208      | 4.208      | 4.208      |   0.0 |  0.72
Output  | 0.24782    | 0.24782    | 0.24782    |   0.0 |  0.04
Modify  | 5.7416     | 5.7416     | 5.7416     |   0.0 |  0.99
Other   |            | 1.538      |            |       |  0.26

Nlocal:    19652 ave 19652 max 19652 min
Histogram: 1 0 0 0 0 0 0 0 0 0
Nghost:    18044 ave 18044 max 18044 min
Histogram: 1 0 0 0 0 0 0 0 0 0
Neighs:    1.44442e+06 ave 1.44442e+06 max 1.44442e+06 min
Histogram: 1 0 0 0 0 0 0 0 0 0

Total # of neighbors = 1444423
Ave neighs/atom = 73.5001
Neighbor list builds = 4505
Dangerous builds not checked
Setting up Verlet run ...
  Unit style    : metal
  Current step  : 265000
  Time step     : 0.001
Per MPI rank memory allocation (min/avg/max) = 18.2 | 18.2 | 18.2 Mbytes
Step Temp Press TotEng PotEng Enthalpy 
  265000    200.69885   -710.66202   -54041.548   -54551.342   -54194.548 
  265495    176.16459    297.92052   -54176.267   -54623.741   -54112.318 
Loop time of 67.15 on 1 procs for 495 steps with 19652 atoms

Performance: 0.637 ns/day, 37.682 hours/ns, 7.372 timesteps/s
99.8% CPU use with 1 MPI tasks x no OpenMP threads

MPI task timing breakdown:
Section |  min time  |  avg time  |  max time  |%varavg| %total
---------------------------------------------------------------
Pair    | 35.491     | 35.491     | 35.491     |   0.0 | 52.85
Neigh   | 30.332     | 30.332     | 30.332     |   0.0 | 45.17
Comm    | 0.48177    | 0.48177    | 0.48177    |   0.0 |  0.72
Output  | 0.00012302 | 0.00012302 | 0.00012302 |   0.0 |  0.00
Modify  | 0.66465    | 0.66465    | 0.66465    |   0.0 |  0.99
Other   |            | 0.1808     |            |       |  0.27

Nlocal:    19652 ave 19652 max 19652 min
Histogram: 1 0 0 0 0 0 0 0 0 0
Nghost:    18099 ave 18099 max 18099 min
Histogram: 1 0 0 0 0 0 0 0 0 0
Neighs:    1.44778e+06 ave 1.44778e+06 max 1.44778e+06 min
Histogram: 1 0 0 0 0 0 0 0 0 0

Total # of neighbors = 1447783
Ave neighs/atom = 73.671
Neighbor list builds = 495
Dangerous builds not checked
Setting up Verlet run ...
  Unit style    : metal
  Current step  : 265495
  Time step     : 0.001
Per MPI rank memory allocation (min/avg/max) = 18.2 | 18.2 | 18.2 Mbytes
Step Temp Press TotEng PotEng Enthalpy 
  265495    176.16459    297.92052   -54176.267   -54623.741   -54112.318 
  270000    150.51614    823.46589   -54320.779   -54703.103   -54144.495 
Loop time of 644.506 on 1 procs for 4505 steps with 19652 atoms

Performance: 0.604 ns/day, 39.740 hours/ns, 6.990 timesteps/s
98.6% CPU use with 1 MPI tasks x no OpenMP threads

MPI task timing breakdown:
Section |  min time  |  avg time  |  max time  |%varavg| %total
---------------------------------------------------------------
Pair    | 345.47     | 345.47     | 345.47     |   0.0 | 53.60
Neigh   | 285.91     | 285.91     | 285.91     |   0.0 | 44.36
Comm    | 4.8491     | 4.8491     | 4.8491     |   0.0 |  0.75
Output  | 0.070068   | 0.070068   | 0.070068   |   0.0 |  0.01
Modify  | 6.4412     | 6.4412     | 6.4412     |   0.0 |  1.00
Other   |            | 1.764      |            |       |  0.27

Nlocal:    19652 ave 19652 max 19652 min
Histogram: 1 0 0 0 0 0 0 0 0 0
Nghost:    18111 ave 18111 max 18111 min
Histogram: 1 0 0 0 0 0 0 0 0 0
Neighs:    1.45149e+06 ave 1.45149e+06 max 1.45149e+06 min
Histogram: 1 0 0 0 0 0 0 0 0 0

Total # of neighbors = 1451486
Ave neighs/atom = 73.8595
Neighbor list builds = 4505
Dangerous builds not checked
Setting up Verlet run ...
  Unit style    : metal
  Current step  : 270000
  Time step     : 0.001
Per MPI rank memory allocation (min/avg/max) = 18.2 | 18.2 | 18.2 Mbytes
Step Temp Press TotEng PotEng Enthalpy 
  270000    150.51614    823.46589   -54320.779   -54703.103   -54144.495 
  270495    126.41471     280.3791   -54437.934   -54759.039   -54377.962 
Loop time of 67.2958 on 1 procs for 495 steps with 19652 atoms

Performance: 0.636 ns/day, 37.764 hours/ns, 7.356 timesteps/s
99.1% CPU use with 1 MPI tasks x no OpenMP threads

MPI task timing breakdown:
Section |  min time  |  avg time  |  max time  |%varavg| %total
---------------------------------------------------------------
Pair    | 35.902     | 35.902     | 35.902     |   0.0 | 53.35
Neigh   | 30.072     | 30.072     | 30.072     |   0.0 | 44.69
Comm    | 0.48095    | 0.48095    | 0.48095    |   0.0 |  0.71
Output  | 0.0001111  | 0.0001111  | 0.0001111  |   0.0 |  0.00
Modify  | 0.66369    | 0.66369    | 0.66369    |   0.0 |  0.99
Other   |            | 0.177      |            |       |  0.26

Nlocal:    19652 ave 19652 max 19652 min
Histogram: 1 0 0 0 0 0 0 0 0 0
Nghost:    18102 ave 18102 max 18102 min
Histogram: 1 0 0 0 0 0 0 0 0 0
Neighs:    1.45312e+06 ave 1.45312e+06 max 1.45312e+06 min
Histogram: 1 0 0 0 0 0 0 0 0 0

Total # of neighbors = 1453118
Ave neighs/atom = 73.9425
Neighbor list builds = 495
Dangerous builds not checked
Setting up Verlet run ...
  Unit style    : metal
  Current step  : 270495
  Time step     : 0.001
Per MPI rank memory allocation (min/avg/max) = 18.2 | 18.2 | 18.2 Mbytes
Step Temp Press TotEng PotEng Enthalpy 
  270495    126.41471     280.3791   -54437.934   -54759.039   -54377.962 
  275000    100.97603    169.24591   -54579.754   -54836.242   -54543.624 
Loop time of 586.635 on 1 procs for 4505 steps with 19652 atoms

Performance: 0.663 ns/day, 36.172 hours/ns, 7.679 timesteps/s
99.4% CPU use with 1 MPI tasks x no OpenMP threads

MPI task timing breakdown:
Section |  min time  |  avg time  |  max time  |%varavg| %total
---------------------------------------------------------------
Pair    | 310.68     | 310.68     | 310.68     |   0.0 | 52.96
Neigh   | 264.29     | 264.29     | 264.29     |   0.0 | 45.05
Comm    | 4.2436     | 4.2436     | 4.2436     |   0.0 |  0.72
Output  | 0.084901   | 0.084901   | 0.084901   |   0.0 |  0.01
Modify  | 5.7689     | 5.7689     | 5.7689     |   0.0 |  0.98
Other   |            | 1.568      |            |       |  0.27

Nlocal:    19652 ave 19652 max 19652 min
Histogram: 1 0 0 0 0 0 0 0 0 0
Nghost:    18149 ave 18149 max 18149 min
Histogram: 1 0 0 0 0 0 0 0 0 0
Neighs:    1.45526e+06 ave 1.45526e+06 max 1.45526e+06 min
Histogram: 1 0 0 0 0 0 0 0 0 0

Total # of neighbors = 1455261
Ave neighs/atom = 74.0515
Neighbor list builds = 4505
Dangerous builds not checked
Total wall time: 10:28:37
