LAMMPS (12 Dec 2018)
Lattice spacing in x,y,z = 4 4 4
Created orthogonal box = (0 0 0) to (68 68 68)
  1 by 1 by 2 MPI processor grid
Created 19652 atoms
  Time spent = 0.00184011 secs
Setting atom values ...
  417 settings made for type/fraction
Neighbor list info ...
  update every 1 steps, delay 0 steps, check no
  max neighbors/atom: 2000, page size: 100000
  master list distance cutoff = 8.5
  ghost atom cutoff = 8.5
  binsize = 4.25, bins = 16 16 16
  1 neighbor lists, perpetual/occasional/extra = 1 0 0
  (1) pair eam/alloy, perpetual
      attributes: half, newton on
      pair build: half/bin/atomonly/newton
      stencil: half/bin/3d/newton
      bin: standard
Setting up Verlet run ...
  Unit style    : metal
  Current step  : 0
  Time step     : 0.001
Per MPI rank memory allocation (min/avg/max) = 11.15 | 11.15 | 11.15 Mbytes
Step Temp Press TotEng PotEng Enthalpy 
       0          300     281057.6   -21441.367   -22203.394     33717.04 
    1000    165.44579    278680.97   -21441.151   -21861.399    33250.834 
Loop time of 93.2452 on 2 procs for 1000 steps with 19652 atoms

Performance: 0.927 ns/day, 25.901 hours/ns, 10.724 timesteps/s
98.8% CPU use with 2 MPI tasks x no OpenMP threads

MPI task timing breakdown:
Section |  min time  |  avg time  |  max time  |%varavg| %total
---------------------------------------------------------------
Pair    | 53.845     | 54.185     | 54.524     |   4.6 | 58.11
Neigh   | 34.027     | 34.525     | 35.023     |   8.5 | 37.03
Comm    | 3.253      | 4.1041     | 4.9552     |  42.0 |  4.40
Output  | 7.7963e-05 | 0.00010443 | 0.00013089 |   0.0 |  0.00
Modify  | 0.21184    | 0.22045    | 0.22905    |   1.8 |  0.24
Other   |            | 0.2109     |            |       |  0.23

Nlocal:    9826 ave 9847 max 9805 min
Histogram: 1 0 0 0 0 0 0 0 0 1
Nghost:    14211 ave 14232 max 14190 min
Histogram: 1 0 0 0 0 0 0 0 0 1
Neighs:    785822 ave 787884 max 783759 min
Histogram: 1 0 0 0 0 0 0 0 0 1

Total # of neighbors = 1571643
Ave neighs/atom = 79.9737
Neighbor list builds = 1000
Dangerous builds not checked
Setting up Verlet run ...
  Unit style    : metal
  Current step  : 1000
  Time step     : 0.001
Per MPI rank memory allocation (min/avg/max) = 11.15 | 11.15 | 11.15 Mbytes
Step Temp Press TotEng PotEng Enthalpy 
    1000    165.44579    278680.97   -21441.151   -21861.399    33250.834 
    2000    264.88679    302.36442   -29503.899   -30176.735    -29416.94 
Loop time of 83.9504 on 2 procs for 1000 steps with 19652 atoms

Performance: 1.029 ns/day, 23.320 hours/ns, 11.912 timesteps/s
99.7% CPU use with 2 MPI tasks x no OpenMP threads

MPI task timing breakdown:
Section |  min time  |  avg time  |  max time  |%varavg| %total
---------------------------------------------------------------
Pair    | 45.233     | 45.787     | 46.341     |   8.2 | 54.54
Neigh   | 32.061     | 33.021     | 33.982     |  16.7 | 39.33
Comm    | 2.4956     | 4.0406     | 5.5856     |  76.9 |  4.81
Output  | 8.2016e-05 | 0.00011003 | 0.00013804 |   0.0 |  0.00
Modify  | 0.86035    | 0.88297    | 0.90559    |   2.4 |  1.05
Other   |            | 0.2185     |            |       |  0.26

Nlocal:    9826 ave 9837 max 9815 min
Histogram: 1 0 0 0 0 0 0 0 0 1
Nghost:    10346 ave 10357 max 10335 min
Histogram: 1 0 0 0 0 0 0 0 0 1
Neighs:    539093 ave 540182 max 538004 min
Histogram: 1 0 0 0 0 0 0 0 0 1

Total # of neighbors = 1078186
Ave neighs/atom = 54.8639
Neighbor list builds = 1000
Dangerous builds not checked
Setting up Verlet run ...
  Unit style    : metal
  Current step  : 2000
  Time step     : 0.001
Per MPI rank memory allocation (min/avg/max) = 11.15 | 11.15 | 11.15 Mbytes
Step Temp Press TotEng PotEng Enthalpy 
    2000    264.88679    302.36442   -29503.899   -30176.735    -29416.94 
   10000    2421.7159   -36.684025   -15444.903   -21596.282   -15459.856 
Loop time of 590.718 on 2 procs for 8000 steps with 19652 atoms

Performance: 1.170 ns/day, 20.511 hours/ns, 13.543 timesteps/s
98.8% CPU use with 2 MPI tasks x no OpenMP threads

MPI task timing breakdown:
Section |  min time  |  avg time  |  max time  |%varavg| %total
---------------------------------------------------------------
Pair    | 320.33     | 323.67     | 327.01     |  18.5 | 54.79
Neigh   | 231.04     | 231.73     | 232.42     |   4.5 | 39.23
Comm    | 22.165     | 26.263     | 30.36      |  80.0 |  4.45
Output  | 8.297e-05  | 0.00011003 | 0.00013709 |   0.0 |  0.00
Modify  | 7.1102     | 7.1575     | 7.2048     |   1.8 |  1.21
Other   |            | 1.899      |            |       |  0.32

Nlocal:    9826 ave 9873 max 9779 min
Histogram: 1 0 0 0 0 0 0 0 0 1
Nghost:    9767.5 ave 9830 max 9705 min
Histogram: 1 0 0 0 0 0 0 0 0 1
Neighs:    375518 ave 378915 max 372122 min
Histogram: 1 0 0 0 0 0 0 0 0 1

Total # of neighbors = 751037
Ave neighs/atom = 38.2168
Neighbor list builds = 8000
Dangerous builds not checked
Setting up Verlet run ...
  Unit style    : metal
  Current step  : 10000
  Time step     : 0.001
Per MPI rank memory allocation (min/avg/max) = 11.17 | 11.17 | 11.17 Mbytes
Step Temp Press TotEng PotEng Enthalpy 
   10000    2421.7159   -36.684025   -15444.903   -21596.282   -15459.856 
   20000    2448.3007   -6.2592589   -15296.012   -21514.919   -15298.574 
   40000    2435.9346   -101.24124   -15318.418   -21505.914   -15359.951 
Loop time of 2041.38 on 2 procs for 30000 steps with 19652 atoms

Performance: 1.270 ns/day, 18.902 hours/ns, 14.696 timesteps/s
97.6% CPU use with 2 MPI tasks x no OpenMP threads

MPI task timing breakdown:
Section |  min time  |  avg time  |  max time  |%varavg| %total
---------------------------------------------------------------
Pair    | 1090.1     | 1095       | 1099.9     |  14.7 | 53.64
Neigh   | 806.41     | 808.96     | 811.51     |   9.0 | 39.63
Comm    | 96.212     | 103.13     | 110.06     |  68.2 |  5.05
Output  | 0.22232    | 0.22236    | 0.2224     |   0.0 |  0.01
Modify  | 26.754     | 27.334     | 27.913     |  11.1 |  1.34
Other   |            | 6.716      |            |       |  0.33

Nlocal:    9826 ave 9859 max 9793 min
Histogram: 1 0 0 0 0 0 0 0 0 1
Nghost:    9693 ave 9704 max 9682 min
Histogram: 1 0 0 0 0 0 0 0 0 1
Neighs:    373248 ave 375655 max 370842 min
Histogram: 1 0 0 0 0 0 0 0 0 1

Total # of neighbors = 746497
Ave neighs/atom = 37.9858
Neighbor list builds = 30000
Dangerous builds not checked
Setting up Verlet run ...
  Unit style    : metal
  Current step  : 40000
  Time step     : 0.001
Per MPI rank memory allocation (min/avg/max) = 11.3 | 11.3 | 11.3 Mbytes
Step Temp Press TotEng PotEng Enthalpy 
   40000    2435.9346   -101.24124   -15318.418   -21505.914   -15359.951 
   40495    2394.8571   -408.45769   -15459.373   -21542.528   -15626.715 
Loop time of 30.6878 on 2 procs for 495 steps with 19652 atoms

Performance: 1.394 ns/day, 17.221 hours/ns, 16.130 timesteps/s
99.2% CPU use with 2 MPI tasks x no OpenMP threads

MPI task timing breakdown:
Section |  min time  |  avg time  |  max time  |%varavg| %total
---------------------------------------------------------------
Pair    | 16.151     | 16.208     | 16.264     |   1.4 | 52.82
Neigh   | 12.385     | 12.826     | 13.268     |  12.3 | 41.80
Comm    | 0.59839    | 1.1159     | 1.6335     |  49.0 |  3.64
Output  | 7.4863e-05 | 0.00011599 | 0.00015712 |   0.0 |  0.00
Modify  | 0.40529    | 0.42259    | 0.43989    |   2.7 |  1.38
Other   |            | 0.1148     |            |       |  0.37

Nlocal:    9826 ave 9868 max 9784 min
Histogram: 1 0 0 0 0 0 0 0 0 1
Nghost:    9700 ave 9719 max 9681 min
Histogram: 1 0 0 0 0 0 0 0 0 1
Neighs:    373740 ave 376923 max 370557 min
Histogram: 1 0 0 0 0 0 0 0 0 1

Total # of neighbors = 747480
Ave neighs/atom = 38.0358
Neighbor list builds = 495
Dangerous builds not checked
Setting up Verlet run ...
  Unit style    : metal
  Current step  : 40495
  Time step     : 0.001
Per MPI rank memory allocation (min/avg/max) = 11.3 | 11.3 | 11.3 Mbytes
Step Temp Press TotEng PotEng Enthalpy 
   40495    2394.8571   -408.45769   -15459.373   -21542.528   -15626.715 
   60000    2389.8106   -326.17586   -15611.773    -21682.11   -15744.481 
Loop time of 1352.99 on 2 procs for 19505 steps with 19652 atoms

Performance: 1.246 ns/day, 19.268 hours/ns, 14.416 timesteps/s
97.2% CPU use with 2 MPI tasks x no OpenMP threads

MPI task timing breakdown:
Section |  min time  |  avg time  |  max time  |%varavg| %total
---------------------------------------------------------------
Pair    | 726.13     | 726.42     | 726.72     |   1.1 | 53.69
Neigh   | 515.44     | 524.82     | 534.2      |  40.9 | 38.79
Comm    | 69.937     | 79.869     | 89.801     | 111.1 |  5.90
Output  | 0.074102   | 0.074117   | 0.074132   |   0.0 |  0.01
Modify  | 17.319     | 17.482     | 17.645     |   3.9 |  1.29
Other   |            | 4.319      |            |       |  0.32

Nlocal:    9826 ave 9832 max 9820 min
Histogram: 1 0 0 0 0 0 0 0 0 1
Nghost:    9766 ave 9781 max 9751 min
Histogram: 1 0 0 0 0 0 0 0 0 1
Neighs:    376008 ave 376139 max 375877 min
Histogram: 1 0 0 0 0 0 0 0 0 1

Total # of neighbors = 752016
Ave neighs/atom = 38.2666
Neighbor list builds = 19505
Dangerous builds not checked
Setting up Verlet run ...
  Unit style    : metal
  Current step  : 60000
  Time step     : 0.001
Per MPI rank memory allocation (min/avg/max) = 11.32 | 11.32 | 11.32 Mbytes
Step Temp Press TotEng PotEng Enthalpy 
   60000    2389.8106   -326.17586   -15611.773    -21682.11   -15744.481 
   60495    2344.7167    173.29142   -15793.805   -21749.599   -15723.865 
Loop time of 30.0683 on 2 procs for 495 steps with 19652 atoms

Performance: 1.422 ns/day, 16.873 hours/ns, 16.463 timesteps/s
98.2% CPU use with 2 MPI tasks x no OpenMP threads

MPI task timing breakdown:
Section |  min time  |  avg time  |  max time  |%varavg| %total
---------------------------------------------------------------
Pair    | 15.421     | 15.662     | 15.903     |   6.1 | 52.09
Neigh   | 11.645     | 12.163     | 12.681     |  14.9 | 40.45
Comm    | 0.9453     | 1.721      | 2.4967     |  59.1 |  5.72
Output  | 6.9141e-05 | 0.00010109 | 0.00013304 |   0.0 |  0.00
Modify  | 0.41161    | 0.42268    | 0.43376    |   1.7 |  1.41
Other   |            | 0.09994    |            |       |  0.33

Nlocal:    9826 ave 9862 max 9790 min
Histogram: 1 0 0 0 0 0 0 0 0 1
Nghost:    9801.5 ave 9806 max 9797 min
Histogram: 1 0 0 0 0 0 0 0 0 1
Neighs:    379146 ave 381437 max 376854 min
Histogram: 1 0 0 0 0 0 0 0 0 1

Total # of neighbors = 758291
Ave neighs/atom = 38.5859
Neighbor list builds = 495
Dangerous builds not checked
Setting up Verlet run ...
  Unit style    : metal
  Current step  : 60495
  Time step     : 0.001
Per MPI rank memory allocation (min/avg/max) = 11.32 | 11.32 | 11.32 Mbytes
Step Temp Press TotEng PotEng Enthalpy 
   60495    2344.7167    173.29142   -15793.805   -21749.599   -15723.865 
   80000    2342.9157    90.988876   -15871.953   -21823.172   -15835.393 
Loop time of 1203.75 on 2 procs for 19505 steps with 19652 atoms

Performance: 1.400 ns/day, 17.143 hours/ns, 16.204 timesteps/s
98.3% CPU use with 2 MPI tasks x no OpenMP threads

MPI task timing breakdown:
Section |  min time  |  avg time  |  max time  |%varavg| %total
---------------------------------------------------------------
Pair    | 618.78     | 628.98     | 639.19     |  40.7 | 52.25
Neigh   | 500.1      | 500.86     | 501.62     |   3.4 | 41.61
Comm    | 43.296     | 54.262     | 65.227     | 148.9 |  4.51
Output  | 0.060174   | 0.060192   | 0.06021    |   0.0 |  0.01
Modify  | 15.602     | 15.625     | 15.649     |   0.6 |  1.30
Other   |            | 3.964      |            |       |  0.33

Nlocal:    9826 ave 9828 max 9824 min
Histogram: 1 0 0 0 0 0 0 0 0 1
Nghost:    9773.5 ave 9786 max 9761 min
Histogram: 1 0 0 0 0 0 0 0 0 1
Neighs:    381032 ave 381421 max 380644 min
Histogram: 1 0 0 0 0 0 0 0 0 1

Total # of neighbors = 762065
Ave neighs/atom = 38.778
Neighbor list builds = 19505
Dangerous builds not checked
Setting up Verlet run ...
  Unit style    : metal
  Current step  : 80000
  Time step     : 0.001
Per MPI rank memory allocation (min/avg/max) = 11.34 | 11.34 | 11.34 Mbytes
Step Temp Press TotEng PotEng Enthalpy 
   80000    2342.9157    90.988876   -15871.953   -21823.172   -15835.393 
   80495    2323.3272   -214.67971   -16118.977   -22020.439   -16204.618 
Loop time of 27.813 on 2 procs for 495 steps with 19652 atoms

Performance: 1.538 ns/day, 15.608 hours/ns, 17.797 timesteps/s
99.4% CPU use with 2 MPI tasks x no OpenMP threads

MPI task timing breakdown:
Section |  min time  |  avg time  |  max time  |%varavg| %total
---------------------------------------------------------------
Pair    | 14.387     | 14.422     | 14.456     |   0.9 | 51.85
Neigh   | 10.958     | 11.583     | 12.208     |  18.4 | 41.65
Comm    | 0.72551    | 1.3394     | 1.9532     |  53.0 |  4.82
Output  | 7.5817e-05 | 9.9421e-05 | 0.00012302 |   0.0 |  0.00
Modify  | 0.35893    | 0.37623    | 0.39352    |   2.8 |  1.35
Other   |            | 0.0927     |            |       |  0.33

Nlocal:    9826 ave 9837 max 9815 min
Histogram: 1 0 0 0 0 0 0 0 0 1
Nghost:    9758 ave 9786 max 9730 min
Histogram: 1 0 0 0 0 0 0 0 0 1
Neighs:    383816 ave 383960 max 383673 min
Histogram: 1 0 0 0 0 0 0 0 0 1

Total # of neighbors = 767633
Ave neighs/atom = 39.0613
Neighbor list builds = 495
Dangerous builds not checked
Setting up Verlet run ...
  Unit style    : metal
  Current step  : 80495
  Time step     : 0.001
Per MPI rank memory allocation (min/avg/max) = 11.34 | 11.34 | 11.34 Mbytes
Step Temp Press TotEng PotEng Enthalpy 
   80495    2323.3272   -214.67971   -16118.977   -22020.439   -16204.618 
  100000    2299.2683   -230.02293   -16176.805   -22017.156   -16268.592 
Loop time of 1301.39 on 2 procs for 19505 steps with 19652 atoms

Performance: 1.295 ns/day, 18.534 hours/ns, 14.988 timesteps/s
98.5% CPU use with 2 MPI tasks x no OpenMP threads

MPI task timing breakdown:
Section |  min time  |  avg time  |  max time  |%varavg| %total
---------------------------------------------------------------
Pair    | 683.22     | 694.83     | 706.44     |  44.0 | 53.39
Neigh   | 509.94     | 522.79     | 535.64     |  56.2 | 40.17
Comm    | 37.756     | 62.714     | 87.672     | 315.2 |  4.82
Output  | 0.060372   | 0.060386   | 0.0604     |   0.0 |  0.00
Modify  | 16.4       | 16.74      | 17.08      |   8.3 |  1.29
Other   |            | 4.255      |            |       |  0.33

Nlocal:    9826 ave 9851 max 9801 min
Histogram: 1 0 0 0 0 0 0 0 0 1
Nghost:    9770 ave 9828 max 9712 min
Histogram: 1 0 0 0 0 0 0 0 0 1
Neighs:    383289 ave 386701 max 379877 min
Histogram: 1 0 0 0 0 0 0 0 0 1

Total # of neighbors = 766578
Ave neighs/atom = 39.0076
Neighbor list builds = 19505
Dangerous builds not checked
Setting up Verlet run ...
  Unit style    : metal
  Current step  : 100000
  Time step     : 0.001
Per MPI rank memory allocation (min/avg/max) = 11.34 | 11.34 | 11.34 Mbytes
Step Temp Press TotEng PotEng Enthalpy 
  100000    2299.2683   -230.02293   -16176.805   -22017.156   -16268.592 
  100495     2269.839    216.66118    -16453.05   -22218.648   -16367.726 
Loop time of 34.8651 on 2 procs for 495 steps with 19652 atoms

Performance: 1.227 ns/day, 19.565 hours/ns, 14.198 timesteps/s
99.8% CPU use with 2 MPI tasks x no OpenMP threads

MPI task timing breakdown:
Section |  min time  |  avg time  |  max time  |%varavg| %total
---------------------------------------------------------------
Pair    | 17.625     | 18.796     | 19.967     |  27.0 | 53.91
Neigh   | 12.278     | 12.921     | 13.563     |  17.9 | 37.06
Comm    | 0.69729    | 2.5462     | 4.3951     | 115.9 |  7.30
Output  | 8.9169e-05 | 0.0001266  | 0.00016403 |   0.0 |  0.00
Modify  | 0.46289    | 0.48624    | 0.50958    |   3.3 |  1.39
Other   |            | 0.1162     |            |       |  0.33

Nlocal:    9826 ave 9827 max 9825 min
Histogram: 1 0 0 0 0 0 0 0 0 1
Nghost:    9868 ave 9887 max 9849 min
Histogram: 1 0 0 0 0 0 0 0 0 1
Neighs:    388732 ave 389280 max 388183 min
Histogram: 1 0 0 0 0 0 0 0 0 1

Total # of neighbors = 777463
Ave neighs/atom = 39.5615
Neighbor list builds = 495
Dangerous builds not checked
Setting up Verlet run ...
  Unit style    : metal
  Current step  : 100495
  Time step     : 0.001
Per MPI rank memory allocation (min/avg/max) = 11.34 | 11.34 | 11.34 Mbytes
Step Temp Press TotEng PotEng Enthalpy 
  100495     2269.839    216.66118    -16453.05   -22218.648   -16367.726 
  120000    2242.5104   -71.643411   -16633.521   -22329.701   -16661.597 
Loop time of 1377.07 on 2 procs for 19505 steps with 19652 atoms

Performance: 1.224 ns/day, 19.611 hours/ns, 14.164 timesteps/s
98.9% CPU use with 2 MPI tasks x no OpenMP threads

MPI task timing breakdown:
Section |  min time  |  avg time  |  max time  |%varavg| %total
---------------------------------------------------------------
Pair    | 709.37     | 739.87     | 770.36     | 112.1 | 53.73
Neigh   | 517.5      | 533.01     | 548.51     |  67.2 | 38.71
Comm    | 35.43      | 81.966     | 128.5      | 514.0 |  5.95
Output  | 0.234      | 0.23402    | 0.23405    |   0.0 |  0.02
Modify  | 17.272     | 17.537     | 17.803     |   6.3 |  1.27
Other   |            | 4.463      |            |       |  0.32

Nlocal:    9826 ave 9839 max 9813 min
Histogram: 1 0 0 0 0 0 0 0 0 1
Nghost:    9959.5 ave 9969 max 9950 min
Histogram: 1 0 0 0 0 0 0 0 0 1
Neighs:    390355 ave 391601 max 389109 min
Histogram: 1 0 0 0 0 0 0 0 0 1

Total # of neighbors = 780710
Ave neighs/atom = 39.7267
Neighbor list builds = 19505
Dangerous builds not checked
Setting up Verlet run ...
  Unit style    : metal
  Current step  : 120000
  Time step     : 0.001
Per MPI rank memory allocation (min/avg/max) = 11.35 | 11.35 | 11.35 Mbytes
Step Temp Press TotEng PotEng Enthalpy 
  120000    2242.5104   -71.643411   -16633.521   -22329.701   -16661.597 
  120495    2207.2301   -357.47931    -16738.49   -22345.055   -16878.708 
Loop time of 31.027 on 2 procs for 495 steps with 19652 atoms

Performance: 1.378 ns/day, 17.411 hours/ns, 15.954 timesteps/s
99.0% CPU use with 2 MPI tasks x no OpenMP threads

MPI task timing breakdown:
Section |  min time  |  avg time  |  max time  |%varavg| %total
---------------------------------------------------------------
Pair    | 15.736     | 16.26      | 16.784     |  13.0 | 52.41
Neigh   | 12.176     | 12.545     | 12.913     |  10.4 | 40.43
Comm    | 0.78918    | 1.6861     | 2.5831     |  69.1 |  5.43
Output  | 9.8944e-05 | 0.00010848 | 0.00011802 |   0.0 |  0.00
Modify  | 0.42571    | 0.42996    | 0.43422    |   0.6 |  1.39
Other   |            | 0.106      |            |       |  0.34

Nlocal:    9826 ave 9841 max 9811 min
Histogram: 1 0 0 0 0 0 0 0 0 1
Nghost:    9886.5 ave 9921 max 9852 min
Histogram: 1 0 0 0 0 0 0 0 0 1
Neighs:    390062 ave 391797 max 388327 min
Histogram: 1 0 0 0 0 0 0 0 0 1

Total # of neighbors = 780124
Ave neighs/atom = 39.6969
Neighbor list builds = 495
Dangerous builds not checked
Setting up Verlet run ...
  Unit style    : metal
  Current step  : 120495
  Time step     : 0.001
Per MPI rank memory allocation (min/avg/max) = 11.35 | 11.35 | 11.35 Mbytes
Step Temp Press TotEng PotEng Enthalpy 
  120495    2207.2301   -357.47931    -16738.49   -22345.055   -16878.708 
  140000    2204.9062   -144.23293    -16810.09   -22410.753   -16866.342 
Loop time of 1315.08 on 2 procs for 19505 steps with 19652 atoms

Performance: 1.281 ns/day, 18.728 hours/ns, 14.832 timesteps/s
98.4% CPU use with 2 MPI tasks x no OpenMP threads

MPI task timing breakdown:
Section |  min time  |  avg time  |  max time  |%varavg| %total
---------------------------------------------------------------
Pair    | 685.97     | 702.32     | 718.67     |  61.7 | 53.41
Neigh   | 516.85     | 525.31     | 533.77     |  36.9 | 39.95
Comm    | 40.684     | 65.815     | 90.947     | 309.8 |  5.00
Output  | 0.059962   | 0.059991   | 0.060019   |   0.0 |  0.00
Modify  | 17.06      | 17.2       | 17.34      |   3.4 |  1.31
Other   |            | 4.373      |            |       |  0.33

Nlocal:    9826 ave 9833 max 9819 min
Histogram: 1 0 0 0 0 0 0 0 0 1
Nghost:    9932.5 ave 9951 max 9914 min
Histogram: 1 0 0 0 0 0 0 0 0 1
Neighs:    392308 ave 393385 max 391231 min
Histogram: 1 0 0 0 0 0 0 0 0 1

Total # of neighbors = 784616
Ave neighs/atom = 39.9255
Neighbor list builds = 19505
Dangerous builds not checked
Setting up Verlet run ...
  Unit style    : metal
  Current step  : 140000
  Time step     : 0.001
Per MPI rank memory allocation (min/avg/max) = 11.35 | 11.35 | 11.35 Mbytes
Step Temp Press TotEng PotEng Enthalpy 
  140000    2204.9062   -144.23293    -16810.09   -22410.753   -16866.342 
  140495    2178.8522    -261.6431   -17059.889   -22594.372   -17161.133 
Loop time of 35.5525 on 2 procs for 495 steps with 19652 atoms

Performance: 1.203 ns/day, 19.951 hours/ns, 13.923 timesteps/s
95.1% CPU use with 2 MPI tasks x no OpenMP threads

MPI task timing breakdown:
Section |  min time  |  avg time  |  max time  |%varavg| %total
---------------------------------------------------------------
Pair    | 18.344     | 19.022     | 19.7       |  15.6 | 53.50
Neigh   | 12.338     | 13.407     | 14.475     |  29.2 | 37.71
Comm    | 0.7501     | 2.5344     | 4.3187     | 112.1 |  7.13
Output  | 8.6069e-05 | 0.00014997 | 0.00021386 |   0.0 |  0.00
Modify  | 0.44992    | 0.4745     | 0.49909    |   3.6 |  1.33
Other   |            | 0.1148     |            |       |  0.32

Nlocal:    9826 ave 9859 max 9793 min
Histogram: 1 0 0 0 0 0 0 0 0 1
Nghost:    9921 ave 9959 max 9883 min
Histogram: 1 0 0 0 0 0 0 0 0 1
Neighs:    395372 ave 397084 max 393661 min
Histogram: 1 0 0 0 0 0 0 0 0 1

Total # of neighbors = 790745
Ave neighs/atom = 40.2374
Neighbor list builds = 495
Dangerous builds not checked
Setting up Verlet run ...
  Unit style    : metal
  Current step  : 140495
  Time step     : 0.001
Per MPI rank memory allocation (min/avg/max) = 11.35 | 11.35 | 11.35 Mbytes
Step Temp Press TotEng PotEng Enthalpy 
  140495    2178.8522    -261.6431   -17059.889   -22594.372   -17161.133 
  160000     2172.122   -501.27726   -17033.676   -22551.063   -17228.356 
Loop time of 1351.91 on 2 procs for 19505 steps with 19652 atoms

Performance: 1.247 ns/day, 19.253 hours/ns, 14.428 timesteps/s
98.7% CPU use with 2 MPI tasks x no OpenMP threads

MPI task timing breakdown:
Section |  min time  |  avg time  |  max time  |%varavg| %total
---------------------------------------------------------------
Pair    | 714.66     | 731.41     | 748.16     |  61.9 | 54.10
Neigh   | 515.84     | 529.52     | 543.19     |  59.4 | 39.17
Comm    | 38.143     | 68.943     | 99.743     | 370.9 |  5.10
Output  | 0.056913   | 0.056929   | 0.056944   |   0.0 |  0.00
Modify  | 17.051     | 17.329     | 17.607     |   6.7 |  1.28
Other   |            | 4.652      |            |       |  0.34

Nlocal:    9826 ave 9831 max 9821 min
Histogram: 1 0 0 0 0 0 0 0 0 1
Nghost:    9938 ave 9940 max 9936 min
Histogram: 1 0 0 0 0 0 0 0 0 1
Neighs:    394126 ave 394794 max 393459 min
Histogram: 1 0 0 0 0 0 0 0 0 1

Total # of neighbors = 788253
Ave neighs/atom = 40.1106
Neighbor list builds = 19505
Dangerous builds not checked
Setting up Verlet run ...
  Unit style    : metal
  Current step  : 160000
  Time step     : 0.001
Per MPI rank memory allocation (min/avg/max) = 11.36 | 11.36 | 11.36 Mbytes
Step Temp Press TotEng PotEng Enthalpy 
  160000     2172.122   -501.27726   -17033.676   -22551.063   -17228.356 
  160495    2113.2486    280.47627   -17316.429   -22684.273   -17208.677 
Loop time of 30.8588 on 2 procs for 495 steps with 19652 atoms

Performance: 1.386 ns/day, 17.317 hours/ns, 16.041 timesteps/s
99.7% CPU use with 2 MPI tasks x no OpenMP threads

MPI task timing breakdown:
Section |  min time  |  avg time  |  max time  |%varavg| %total
---------------------------------------------------------------
Pair    | 16.588     | 16.627     | 16.666     |   1.0 | 53.88
Neigh   | 12.217     | 12.391     | 12.566     |   5.0 | 40.15
Comm    | 1.1466     | 1.2943     | 1.442      |  13.0 |  4.19
Output  | 7.2956e-05 | 0.00010002 | 0.00012708 |   0.0 |  0.00
Modify  | 0.40463    | 0.41506    | 0.42549    |   1.6 |  1.35
Other   |            | 0.1315     |            |       |  0.43

Nlocal:    9826 ave 9835 max 9817 min
Histogram: 1 0 0 0 0 0 0 0 0 1
Nghost:    9961 ave 9979 max 9943 min
Histogram: 1 0 0 0 0 0 0 0 0 1
Neighs:    398627 ave 399259 max 397995 min
Histogram: 1 0 0 0 0 0 0 0 0 1

Total # of neighbors = 797254
Ave neighs/atom = 40.5686
Neighbor list builds = 495
Dangerous builds not checked
Setting up Verlet run ...
  Unit style    : metal
  Current step  : 160495
  Time step     : 0.001
Per MPI rank memory allocation (min/avg/max) = 11.36 | 11.36 | 11.36 Mbytes
Step Temp Press TotEng PotEng Enthalpy 
  160495    2113.2486    280.47627   -17316.429   -22684.273   -17208.677 
  180000    2071.7287   -402.20497   -17460.338   -22722.718   -17614.699 
Loop time of 1471.31 on 2 procs for 19505 steps with 19652 atoms

Performance: 1.145 ns/day, 20.953 hours/ns, 13.257 timesteps/s
98.3% CPU use with 2 MPI tasks x no OpenMP threads

MPI task timing breakdown:
Section |  min time  |  avg time  |  max time  |%varavg| %total
---------------------------------------------------------------
Pair    | 786.75     | 803.36     | 819.96     |  58.6 | 54.60
Neigh   | 557.75     | 573.33     | 588.91     |  65.0 | 38.97
Comm    | 38.473     | 71.084     | 103.7      | 386.8 |  4.83
Output  | 0.092814   | 0.092838   | 0.092862   |   0.0 |  0.01
Modify  | 17.679     | 18.053     | 18.427     |   8.8 |  1.23
Other   |            | 5.391      |            |       |  0.37

Nlocal:    9826 ave 9870 max 9782 min
Histogram: 1 0 0 0 0 0 0 0 0 1
Nghost:    9974.5 ave 9989 max 9960 min
Histogram: 1 0 0 0 0 0 0 0 0 1
Neighs:    398488 ave 401729 max 395247 min
Histogram: 1 0 0 0 0 0 0 0 0 1

Total # of neighbors = 796976
Ave neighs/atom = 40.5544
Neighbor list builds = 19505
Dangerous builds not checked
Setting up Verlet run ...
  Unit style    : metal
  Current step  : 180000
  Time step     : 0.001
Per MPI rank memory allocation (min/avg/max) = 11.36 | 11.36 | 11.36 Mbytes
Step Temp Press TotEng PotEng Enthalpy 
  180000    2071.7287   -402.20497   -17460.338   -22722.718   -17614.699 
  180495    2059.9795   -74.242447   -17649.018   -22881.554   -17677.269 
Loop time of 32.7056 on 2 procs for 495 steps with 19652 atoms

Performance: 1.308 ns/day, 18.353 hours/ns, 15.135 timesteps/s
99.7% CPU use with 2 MPI tasks x no OpenMP threads

MPI task timing breakdown:
Section |  min time  |  avg time  |  max time  |%varavg| %total
---------------------------------------------------------------
Pair    | 16.857     | 17.255     | 17.654     |   9.6 | 52.76
Neigh   | 13.509     | 13.676     | 13.844     |   4.5 | 41.82
Comm    | 0.98235    | 1.2142     | 1.446      |  21.0 |  3.71
Output  | 7.987e-05  | 0.00011241 | 0.00014496 |   0.0 |  0.00
Modify  | 0.42903    | 0.43024    | 0.43146    |   0.2 |  1.32
Other   |            | 0.1295     |            |       |  0.40

Nlocal:    9826 ave 9873 max 9779 min
Histogram: 1 0 0 0 0 0 0 0 0 1
Nghost:    9972 ave 10011 max 9933 min
Histogram: 1 0 0 0 0 0 0 0 0 1
Neighs:    402408 ave 409005 max 395811 min
Histogram: 1 0 0 0 0 0 0 0 0 1

Total # of neighbors = 804816
Ave neighs/atom = 40.9534
Neighbor list builds = 495
Dangerous builds not checked
Setting up Verlet run ...
  Unit style    : metal
  Current step  : 180495
  Time step     : 0.001
Per MPI rank memory allocation (min/avg/max) = 11.36 | 11.36 | 11.36 Mbytes
Step Temp Press TotEng PotEng Enthalpy 
  180495    2059.9795   -74.242447   -17649.018   -22881.554   -17677.269 
  200000    2074.2727    381.67323   -17685.793   -22954.634   -17541.269 
Loop time of 1477.86 on 2 procs for 19505 steps with 19652 atoms

Performance: 1.140 ns/day, 21.047 hours/ns, 13.198 timesteps/s
97.9% CPU use with 2 MPI tasks x no OpenMP threads

MPI task timing breakdown:
Section |  min time  |  avg time  |  max time  |%varavg| %total
---------------------------------------------------------------
Pair    | 793.8      | 797.42     | 801.05     |  12.8 | 53.96
Neigh   | 578.95     | 581.65     | 584.36     |  11.2 | 39.36
Comm    | 61.863     | 68.186     | 74.509     |  76.6 |  4.61
Output  | 0.048426   | 0.048442   | 0.048458   |   0.0 |  0.00
Modify  | 25.323     | 25.338     | 25.353     |   0.3 |  1.71
Other   |            | 5.211      |            |       |  0.35

Nlocal:    9826 ave 9843 max 9809 min
Histogram: 1 0 0 0 0 0 0 0 0 1
Nghost:    10022.5 ave 10035 max 10010 min
Histogram: 1 0 0 0 0 0 0 0 0 1
Neighs:    404424 ave 406696 max 402152 min
Histogram: 1 0 0 0 0 0 0 0 0 1

Total # of neighbors = 808848
Ave neighs/atom = 41.1586
Neighbor list builds = 19505
Dangerous builds not checked
Setting up Verlet run ...
  Unit style    : metal
  Current step  : 200000
  Time step     : 0.001
Per MPI rank memory allocation (min/avg/max) = 11.36 | 11.36 | 11.36 Mbytes
Step Temp Press TotEng PotEng Enthalpy 
  200000    2074.2727    381.67323   -17685.793   -22954.634   -17541.269 
  200495    2012.4209   -349.21967   -17937.497   -23049.229   -18069.535 
Loop time of 35.376 on 2 procs for 495 steps with 19652 atoms

Performance: 1.209 ns/day, 19.852 hours/ns, 13.993 timesteps/s
98.4% CPU use with 2 MPI tasks x no OpenMP threads

MPI task timing breakdown:
Section |  min time  |  avg time  |  max time  |%varavg| %total
---------------------------------------------------------------
Pair    | 18.839     | 19.051     | 19.264     |   4.9 | 53.85
Neigh   | 13.846     | 14.088     | 14.331     |   6.5 | 39.82
Comm    | 1.1808     | 1.6402     | 2.0996     |  35.9 |  4.64
Output  | 0.00017405 | 0.00018454 | 0.00019503 |   0.0 |  0.00
Modify  | 0.46669    | 0.47194    | 0.47719    |   0.8 |  1.33
Other   |            | 0.1239     |            |       |  0.35

Nlocal:    9826 ave 9844 max 9808 min
Histogram: 1 0 0 0 0 0 0 0 0 1
Nghost:    9948 ave 9983 max 9913 min
Histogram: 1 0 0 0 0 0 0 0 0 1
Neighs:    404914 ave 409670 max 400158 min
Histogram: 1 0 0 0 0 0 0 0 0 1

Total # of neighbors = 809828
Ave neighs/atom = 41.2084
Neighbor list builds = 495
Dangerous builds not checked
Setting up Verlet run ...
  Unit style    : metal
  Current step  : 200495
  Time step     : 0.001
Per MPI rank memory allocation (min/avg/max) = 11.36 | 11.36 | 11.36 Mbytes
Step Temp Press TotEng PotEng Enthalpy 
  200495    2012.4209   -349.21967   -17937.497   -23049.229   -18069.535 
  220000    1993.6105   -126.46345   -18067.228   -23131.181   -18114.823 
Loop time of 1444.72 on 2 procs for 19505 steps with 19652 atoms

Performance: 1.166 ns/day, 20.575 hours/ns, 13.501 timesteps/s
97.4% CPU use with 2 MPI tasks x no OpenMP threads

MPI task timing breakdown:
Section |  min time  |  avg time  |  max time  |%varavg| %total
---------------------------------------------------------------
Pair    | 770.82     | 771.87     | 772.91     |   3.8 | 53.43
Neigh   | 565.63     | 571.27     | 576.91     |  23.6 | 39.54
Comm    | 64.682     | 71.506     | 78.33      |  80.7 |  4.95
Output  | 2.9593     | 2.9593     | 2.9593     |   0.0 |  0.20
Modify  | 22.187     | 22.286     | 22.384     |   2.1 |  1.54
Other   |            | 4.832      |            |       |  0.33

Nlocal:    9826 ave 9867 max 9785 min
Histogram: 1 0 0 0 0 0 0 0 0 1
Nghost:    10049.5 ave 10093 max 10006 min
Histogram: 1 0 0 0 0 0 0 0 0 1
Neighs:    406765 ave 408337 max 405193 min
Histogram: 1 0 0 0 0 0 0 0 0 1

Total # of neighbors = 813530
Ave neighs/atom = 41.3968
Neighbor list builds = 19505
Dangerous builds not checked
Setting up Verlet run ...
  Unit style    : metal
  Current step  : 220000
  Time step     : 0.001
Per MPI rank memory allocation (min/avg/max) = 11.36 | 11.36 | 11.36 Mbytes
Step Temp Press TotEng PotEng Enthalpy 
  220000    1993.6105   -126.46345   -18067.228   -23131.181   -18114.823 
  220495    1958.5489   -5.3681972   -18234.072   -23208.964   -18236.085 
Loop time of 36.9336 on 2 procs for 495 steps with 19652 atoms

Performance: 1.158 ns/day, 20.726 hours/ns, 13.402 timesteps/s
95.6% CPU use with 2 MPI tasks x no OpenMP threads

MPI task timing breakdown:
Section |  min time  |  avg time  |  max time  |%varavg| %total
---------------------------------------------------------------
Pair    | 19.682     | 19.914     | 20.146     |   5.2 | 53.92
Neigh   | 14.396     | 14.581     | 14.766     |   4.8 | 39.48
Comm    | 1.425      | 1.8538     | 2.2826     |  31.5 |  5.02
Output  | 8.0109e-05 | 0.00011504 | 0.00014997 |   0.0 |  0.00
Modify  | 0.44724    | 0.46256    | 0.47788    |   2.3 |  1.25
Other   |            | 0.1225     |            |       |  0.33

Nlocal:    9826 ave 9829 max 9823 min
Histogram: 1 0 0 0 0 0 0 0 0 1
Nghost:    10044 ave 10059 max 10029 min
Histogram: 1 0 0 0 0 0 0 0 0 1
Neighs:    408198 ave 411669 max 404726 min
Histogram: 1 0 0 0 0 0 0 0 0 1

Total # of neighbors = 816395
Ave neighs/atom = 41.5426
Neighbor list builds = 495
Dangerous builds not checked
Setting up Verlet run ...
  Unit style    : metal
  Current step  : 220495
  Time step     : 0.001
Per MPI rank memory allocation (min/avg/max) = 11.36 | 11.36 | 11.36 Mbytes
Step Temp Press TotEng PotEng Enthalpy 
  220495    1958.5489   -5.3681972   -18234.072   -23208.964   -18236.085 
  240000    1974.3053   -14.092868   -18269.206   -23284.122   -18274.469 
Loop time of 1434.05 on 2 procs for 19505 steps with 19652 atoms

Performance: 1.175 ns/day, 20.423 hours/ns, 13.601 timesteps/s
98.8% CPU use with 2 MPI tasks x no OpenMP threads

MPI task timing breakdown:
Section |  min time  |  avg time  |  max time  |%varavg| %total
---------------------------------------------------------------
Pair    | 768.89     | 769.74     | 770.59     |   3.1 | 53.68
Neigh   | 570.73     | 571.63     | 572.53     |   3.8 | 39.86
Comm    | 68.196     | 69.876     | 71.556     |  20.1 |  4.87
Output  | 0.07596    | 0.075979   | 0.075998   |   0.0 |  0.01
Modify  | 17.614     | 17.65      | 17.686     |   0.9 |  1.23
Other   |            | 5.072      |            |       |  0.35

Nlocal:    9826 ave 9841 max 9811 min
Histogram: 1 0 0 0 0 0 0 0 0 1
Nghost:    10089 ave 10138 max 10040 min
Histogram: 1 0 0 0 0 0 0 0 0 1
Neighs:    409910 ave 413366 max 406453 min
Histogram: 1 0 0 0 0 0 0 0 0 1

Total # of neighbors = 819819
Ave neighs/atom = 41.7168
Neighbor list builds = 19505
Dangerous builds not checked
Setting up Verlet run ...
  Unit style    : metal
  Current step  : 240000
  Time step     : 0.001
Per MPI rank memory allocation (min/avg/max) = 11.36 | 11.36 | 11.36 Mbytes
Step Temp Press TotEng PotEng Enthalpy 
  240000    1974.3053   -14.092868   -18269.206   -23284.122   -18274.469 
  240495    1920.9477   -342.23794   -18499.785   -23379.167   -18627.179 
Loop time of 37.3319 on 2 procs for 495 steps with 19652 atoms

Performance: 1.146 ns/day, 20.949 hours/ns, 13.259 timesteps/s
99.2% CPU use with 2 MPI tasks x no OpenMP threads

MPI task timing breakdown:
Section |  min time  |  avg time  |  max time  |%varavg| %total
---------------------------------------------------------------
Pair    | 19.185     | 20.104     | 21.023     |  20.5 | 53.85
Neigh   | 13.877     | 14.359     | 14.842     |  12.7 | 38.46
Comm    | 0.80732    | 2.242      | 3.6768     |  95.8 |  6.01
Output  | 7.6056e-05 | 0.00010252 | 0.00012898 |   0.0 |  0.00
Modify  | 0.46427    | 0.49206    | 0.51986    |   4.0 |  1.32
Other   |            | 0.1344     |            |       |  0.36

Nlocal:    9826 ave 9841 max 9811 min
Histogram: 1 0 0 0 0 0 0 0 0 1
Nghost:    10133.5 ave 10147 max 10120 min
Histogram: 1 0 0 0 0 0 0 0 0 1
Neighs:    411290 ave 413616 max 408964 min
Histogram: 1 0 0 0 0 0 0 0 0 1

Total # of neighbors = 822580
Ave neighs/atom = 41.8573
Neighbor list builds = 495
Dangerous builds not checked
Setting up Verlet run ...
  Unit style    : metal
  Current step  : 240495
  Time step     : 0.001
Per MPI rank memory allocation (min/avg/max) = 11.36 | 11.36 | 11.36 Mbytes
Step Temp Press TotEng PotEng Enthalpy 
  240495    1920.9477   -342.23794   -18499.785   -23379.167   -18627.179 
  260000    1874.8376   -161.19077   -18719.064   -23481.322   -18778.657 
Loop time of 1466.84 on 2 procs for 19505 steps with 19652 atoms

Performance: 1.149 ns/day, 20.890 hours/ns, 13.297 timesteps/s
99.1% CPU use with 2 MPI tasks x no OpenMP threads

MPI task timing breakdown:
Section |  min time  |  avg time  |  max time  |%varavg| %total
---------------------------------------------------------------
Pair    | 794.17     | 794.48     | 794.79     |   1.1 | 54.16
Neigh   | 577.6      | 581.25     | 584.9      |  15.1 | 39.63
Comm    | 63.742     | 67.717     | 71.692     |  48.3 |  4.62
Output  | 0.13494    | 0.13497    | 0.135      |   0.0 |  0.01
Modify  | 18.152     | 18.199     | 18.245     |   1.1 |  1.24
Other   |            | 5.061      |            |       |  0.35

Nlocal:    9826 ave 9864 max 9788 min
Histogram: 1 0 0 0 0 0 0 0 0 1
Nghost:    10122 ave 10182 max 10062 min
Histogram: 1 0 0 0 0 0 0 0 0 1
Neighs:    414070 ave 414238 max 413901 min
Histogram: 1 0 0 0 0 0 0 0 0 1

Total # of neighbors = 828139
Ave neighs/atom = 42.1402
Neighbor list builds = 19505
Dangerous builds not checked
Setting up Verlet run ...
  Unit style    : metal
  Current step  : 260000
  Time step     : 0.001
Per MPI rank memory allocation (min/avg/max) = 11.36 | 11.36 | 11.36 Mbytes
Step Temp Press TotEng PotEng Enthalpy 
  260000    1874.8376   -161.19077   -18719.064   -23481.322   -18778.657 
  260495    1864.1861   -481.73043   -18808.575   -23543.778   -18986.555 
Loop time of 34.1968 on 2 procs for 495 steps with 19652 atoms

Performance: 1.251 ns/day, 19.190 hours/ns, 14.475 timesteps/s
98.7% CPU use with 2 MPI tasks x no OpenMP threads

MPI task timing breakdown:
Section |  min time  |  avg time  |  max time  |%varavg| %total
---------------------------------------------------------------
Pair    | 17.727     | 18.115     | 18.503     |   9.1 | 52.97
Neigh   | 13.611     | 14.01      | 14.41      |  10.7 | 40.97
Comm    | 0.69536    | 1.5        | 2.3046     |  65.7 |  4.39
Output  | 8.2016e-05 | 0.00011349 | 0.00014496 |   0.0 |  0.00
Modify  | 0.42358    | 0.44013    | 0.45667    |   2.5 |  1.29
Other   |            | 0.1312     |            |       |  0.38

Nlocal:    9826 ave 9851 max 9801 min
Histogram: 1 0 0 0 0 0 0 0 0 1
Nghost:    10148 ave 10162 max 10134 min
Histogram: 1 0 0 0 0 0 0 0 0 1
Neighs:    414380 ave 416305 max 412456 min
Histogram: 1 0 0 0 0 0 0 0 0 1

Total # of neighbors = 828761
Ave neighs/atom = 42.1718
Neighbor list builds = 495
Dangerous builds not checked
Setting up Verlet run ...
  Unit style    : metal
  Current step  : 260495
  Time step     : 0.001
Per MPI rank memory allocation (min/avg/max) = 11.36 | 11.36 | 11.36 Mbytes
Step Temp Press TotEng PotEng Enthalpy 
  260495    1864.1861   -481.73043   -18808.575   -23543.778   -18986.555 
  280000    1836.3936    182.73519    -19026.31   -23690.917   -18959.471 
Loop time of 1412.47 on 2 procs for 19505 steps with 19652 atoms

Performance: 1.193 ns/day, 20.115 hours/ns, 13.809 timesteps/s
99.1% CPU use with 2 MPI tasks x no OpenMP threads

MPI task timing breakdown:
Section |  min time  |  avg time  |  max time  |%varavg| %total
---------------------------------------------------------------
Pair    | 759.38     | 762.77     | 766.15     |  12.3 | 54.00
Neigh   | 575.12     | 577.48     | 579.83     |   9.8 | 40.88
Comm    | 48.429     | 49.496     | 50.563     |  15.2 |  3.50
Output  | 0.053937   | 0.053962   | 0.053987   |   0.0 |  0.00
Modify  | 17.575     | 17.634     | 17.692     |   1.4 |  1.25
Other   |            | 5.041      |            |       |  0.36

Nlocal:    9826 ave 9842 max 9810 min
Histogram: 1 0 0 0 0 0 0 0 0 1
Nghost:    10162 ave 10173 max 10151 min
Histogram: 1 0 0 0 0 0 0 0 0 1
Neighs:    418539 ave 420629 max 416449 min
Histogram: 1 0 0 0 0 0 0 0 0 1

Total # of neighbors = 837078
Ave neighs/atom = 42.5951
Neighbor list builds = 19505
Dangerous builds not checked
Setting up Verlet run ...
  Unit style    : metal
  Current step  : 280000
  Time step     : 0.001
Per MPI rank memory allocation (min/avg/max) = 11.36 | 11.36 | 11.36 Mbytes
Step Temp Press TotEng PotEng Enthalpy 
  280000    1836.3936    182.73519    -19026.31   -23690.917   -18959.471 
  280495    1799.8216   -582.44466    -19090.43    -23662.14   -19304.478 
Loop time of 33.8923 on 2 procs for 495 steps with 19652 atoms

Performance: 1.262 ns/day, 19.019 hours/ns, 14.605 timesteps/s
99.3% CPU use with 2 MPI tasks x no OpenMP threads

MPI task timing breakdown:
Section |  min time  |  avg time  |  max time  |%varavg| %total
---------------------------------------------------------------
Pair    | 18.032     | 18.198     | 18.365     |   3.9 | 53.69
Neigh   | 13.856     | 14.064     | 14.272     |   5.5 | 41.50
Comm    | 1.0496     | 1.0905     | 1.1314     |   3.9 |  3.22
Output  | 5.2929e-05 | 8.7023e-05 | 0.00012112 |   0.0 |  0.00
Modify  | 0.41611    | 0.41856    | 0.42101    |   0.4 |  1.23
Other   |            | 0.1204     |            |       |  0.36

Nlocal:    9826 ave 9830 max 9822 min
Histogram: 1 0 0 0 0 0 0 0 0 1
Nghost:    10164 ave 10176 max 10152 min
Histogram: 1 0 0 0 0 0 0 0 0 1
Neighs:    416434 ave 420095 max 412773 min
Histogram: 1 0 0 0 0 0 0 0 0 1

Total # of neighbors = 832868
Ave neighs/atom = 42.3808
Neighbor list builds = 495
Dangerous builds not checked
Setting up Verlet run ...
  Unit style    : metal
  Current step  : 280495
  Time step     : 0.001
Per MPI rank memory allocation (min/avg/max) = 11.36 | 11.36 | 11.36 Mbytes
Step Temp Press TotEng PotEng Enthalpy 
  280495    1799.8216   -582.44466    -19090.43    -23662.14   -19304.478 
  300000    1794.8738   -483.40619   -19192.866   -23752.009    -19369.77 
Loop time of 1419.55 on 2 procs for 19505 steps with 19652 atoms

Performance: 1.187 ns/day, 20.216 hours/ns, 13.740 timesteps/s
99.1% CPU use with 2 MPI tasks x no OpenMP threads

MPI task timing breakdown:
Section |  min time  |  avg time  |  max time  |%varavg| %total
---------------------------------------------------------------
Pair    | 765.19     | 770.57     | 775.96     |  19.4 | 54.28
Neigh   | 567.16     | 568.47     | 569.78     |   5.5 | 40.05
Comm    | 54.175     | 58.338     | 62.501     |  54.5 |  4.11
Output  | 0.057333   | 0.057371   | 0.05741    |   0.0 |  0.00
Modify  | 17.203     | 17.254     | 17.306     |   1.2 |  1.22
Other   |            | 4.854      |            |       |  0.34

Nlocal:    9826 ave 9832 max 9820 min
Histogram: 1 0 0 0 0 0 0 0 0 1
Nghost:    10168 ave 10196 max 10140 min
Histogram: 1 0 0 0 0 0 0 0 0 1
Neighs:    418222 ave 422804 max 413641 min
Histogram: 1 0 0 0 0 0 0 0 0 1

Total # of neighbors = 836445
Ave neighs/atom = 42.5628
Neighbor list builds = 19505
Dangerous builds not checked
Setting up Verlet run ...
  Unit style    : metal
  Current step  : 300000
  Time step     : 0.001
Per MPI rank memory allocation (min/avg/max) = 11.36 | 11.36 | 11.36 Mbytes
Step Temp Press TotEng PotEng Enthalpy 
  300000    1794.8738   -483.40619   -19192.866   -23752.009    -19369.77 
  300495    1770.7591     239.7278    -19445.53    -23943.42   -19358.871 
Loop time of 33.5285 on 2 procs for 495 steps with 19652 atoms

Performance: 1.276 ns/day, 18.815 hours/ns, 14.764 timesteps/s
99.9% CPU use with 2 MPI tasks x no OpenMP threads

MPI task timing breakdown:
Section |  min time  |  avg time  |  max time  |%varavg| %total
---------------------------------------------------------------
Pair    | 17.829     | 17.97      | 18.11      |   3.3 | 53.60
Neigh   | 13.155     | 13.598     | 14.041     |  12.0 | 40.56
Comm    | 0.81481    | 1.4109     | 2.007      |  50.2 |  4.21
Output  | 7.2002e-05 | 0.00010502 | 0.00013804 |   0.0 |  0.00
Modify  | 0.40689    | 0.42014    | 0.4334     |   2.0 |  1.25
Other   |            | 0.1293     |            |       |  0.39

Nlocal:    9826 ave 9838 max 9814 min
Histogram: 1 0 0 0 0 0 0 0 0 1
Nghost:    10221 ave 10231 max 10211 min
Histogram: 1 0 0 0 0 0 0 0 0 1
Neighs:    423347 ave 425954 max 420740 min
Histogram: 1 0 0 0 0 0 0 0 0 1

Total # of neighbors = 846694
Ave neighs/atom = 43.0844
Neighbor list builds = 495
Dangerous builds not checked
Setting up Verlet run ...
  Unit style    : metal
  Current step  : 300495
  Time step     : 0.001
Per MPI rank memory allocation (min/avg/max) = 11.36 | 11.36 | 11.36 Mbytes
Step Temp Press TotEng PotEng Enthalpy 
  300495    1770.7591     239.7278    -19445.53    -23943.42   -19358.871 
  320000    1768.2166   -132.02733   -19468.706   -23960.137   -19516.519 
Loop time of 1480.87 on 2 procs for 19505 steps with 19652 atoms

Performance: 1.138 ns/day, 21.090 hours/ns, 13.171 timesteps/s
98.9% CPU use with 2 MPI tasks x no OpenMP threads

MPI task timing breakdown:
Section |  min time  |  avg time  |  max time  |%varavg| %total
---------------------------------------------------------------
Pair    | 804.62     | 810.68     | 816.74     |  21.3 | 54.74
Neigh   | 573.01     | 580.02     | 587.02     |  29.1 | 39.17
Comm    | 53.408     | 66.603     | 79.799     | 161.7 |  4.50
Output  | 0.054822   | 0.054842   | 0.054863   |   0.0 |  0.00
Modify  | 18.216     | 18.392     | 18.569     |   4.1 |  1.24
Other   |            | 5.123      |            |       |  0.35

Nlocal:    9826 ave 9836 max 9816 min
Histogram: 1 0 0 0 0 0 0 0 0 1
Nghost:    10232 ave 10253 max 10211 min
Histogram: 1 0 0 0 0 0 0 0 0 1
Neighs:    422708 ave 427554 max 417862 min
Histogram: 1 0 0 0 0 0 0 0 0 1

Total # of neighbors = 845416
Ave neighs/atom = 43.0193
Neighbor list builds = 19505
Dangerous builds not checked
Setting up Verlet run ...
  Unit style    : metal
  Current step  : 320000
  Time step     : 0.001
Per MPI rank memory allocation (min/avg/max) = 11.36 | 11.36 | 11.36 Mbytes
Step Temp Press TotEng PotEng Enthalpy 
  320000    1768.2166   -132.02733   -19468.706   -23960.137   -19516.519 
  320495      1719.99     13.18733   -19694.755   -24063.686   -19690.008 
Loop time of 33.7951 on 2 procs for 495 steps with 19652 atoms

Performance: 1.266 ns/day, 18.965 hours/ns, 14.647 timesteps/s
99.5% CPU use with 2 MPI tasks x no OpenMP threads

MPI task timing breakdown:
Section |  min time  |  avg time  |  max time  |%varavg| %total
---------------------------------------------------------------
Pair    | 17.97      | 18.144     | 18.318     |   4.1 | 53.69
Neigh   | 13.541     | 13.763     | 13.984     |   6.0 | 40.72
Comm    | 0.92326    | 1.3355     | 1.7477     |  35.7 |  3.95
Output  | 8.1062e-05 | 0.00012851 | 0.00017595 |   0.0 |  0.00
Modify  | 0.42165    | 0.43305    | 0.44445    |   1.7 |  1.28
Other   |            | 0.1197     |            |       |  0.35

Nlocal:    9826 ave 9854 max 9798 min
Histogram: 1 0 0 0 0 0 0 0 0 1
Nghost:    10191.5 ave 10206 max 10177 min
Histogram: 1 0 0 0 0 0 0 0 0 1
Neighs:    425324 ave 431408 max 419241 min
Histogram: 1 0 0 0 0 0 0 0 0 1

Total # of neighbors = 850649
Ave neighs/atom = 43.2856
Neighbor list builds = 495
Dangerous builds not checked
Setting up Verlet run ...
  Unit style    : metal
  Current step  : 320495
  Time step     : 0.001
Per MPI rank memory allocation (min/avg/max) = 11.36 | 11.36 | 11.36 Mbytes
Step Temp Press TotEng PotEng Enthalpy 
  320495      1719.99     13.18733   -19694.755   -24063.686   -19690.008 
  340000     1687.097   -97.716473   -19805.264   -24090.644   -19840.368 
Loop time of 1367.49 on 2 procs for 19505 steps with 19652 atoms

Performance: 1.232 ns/day, 19.475 hours/ns, 14.263 timesteps/s
99.4% CPU use with 2 MPI tasks x no OpenMP threads

MPI task timing breakdown:
Section |  min time  |  avg time  |  max time  |%varavg| %total
---------------------------------------------------------------
Pair    | 731.93     | 735.33     | 738.74     |  12.6 | 53.77
Neigh   | 557.18     | 558.93     | 560.67     |   7.4 | 40.87
Comm    | 46.562     | 51.644     | 56.726     |  70.7 |  3.78
Output  | 0.054454   | 0.054476   | 0.054497   |   0.0 |  0.00
Modify  | 16.882     | 16.925     | 16.968     |   1.0 |  1.24
Other   |            | 4.61       |            |       |  0.34

Nlocal:    9826 ave 9848 max 9804 min
Histogram: 1 0 0 0 0 0 0 0 0 1
Nghost:    10305 ave 10309 max 10301 min
Histogram: 1 0 0 0 0 0 0 0 0 1
Neighs:    426214 ave 427509 max 424920 min
Histogram: 1 0 0 0 0 0 0 0 0 1

Total # of neighbors = 852429
Ave neighs/atom = 43.3762
Neighbor list builds = 19505
Dangerous builds not checked
Setting up Verlet run ...
  Unit style    : metal
  Current step  : 340000
  Time step     : 0.001
Per MPI rank memory allocation (min/avg/max) = 11.36 | 11.36 | 11.36 Mbytes
Step Temp Press TotEng PotEng Enthalpy 
  340000     1687.097   -97.716473   -19805.264   -24090.644   -19840.368 
  340495    1645.4197    233.06662   -19995.148   -24174.664   -19911.809 
Loop time of 32.4331 on 2 procs for 495 steps with 19652 atoms

Performance: 1.319 ns/day, 18.200 hours/ns, 15.262 timesteps/s
99.5% CPU use with 2 MPI tasks x no OpenMP threads

MPI task timing breakdown:
Section |  min time  |  avg time  |  max time  |%varavg| %total
---------------------------------------------------------------
Pair    | 16.839     | 17.191     | 17.542     |   8.5 | 53.00
Neigh   | 13.634     | 13.692     | 13.75      |   1.6 | 42.22
Comm    | 0.72505    | 1.03       | 1.3349     |  30.0 |  3.18
Output  | 8.297e-05  | 0.00012755 | 0.00017214 |   0.0 |  0.00
Modify  | 0.39624    | 0.40688    | 0.41752    |   1.7 |  1.25
Other   |            | 0.1135     |            |       |  0.35

Nlocal:    9826 ave 9846 max 9806 min
Histogram: 1 0 0 0 0 0 0 0 0 1
Nghost:    10298 ave 10313 max 10283 min
Histogram: 1 0 0 0 0 0 0 0 0 1
Neighs:    428373 ave 431328 max 425418 min
Histogram: 1 0 0 0 0 0 0 0 0 1

Total # of neighbors = 856746
Ave neighs/atom = 43.5959
Neighbor list builds = 495
Dangerous builds not checked
Setting up Verlet run ...
  Unit style    : metal
  Current step  : 340495
  Time step     : 0.001
Per MPI rank memory allocation (min/avg/max) = 11.36 | 11.36 | 11.36 Mbytes
Step Temp Press TotEng PotEng Enthalpy 
  340495    1645.4197    233.06662   -19995.148   -24174.664   -19911.809 
  360000    1639.5734   -478.03901   -20166.256   -24330.921   -20336.805 
Loop time of 1348.24 on 2 procs for 19505 steps with 19652 atoms

Performance: 1.250 ns/day, 19.201 hours/ns, 14.467 timesteps/s
98.5% CPU use with 2 MPI tasks x no OpenMP threads

MPI task timing breakdown:
Section |  min time  |  avg time  |  max time  |%varavg| %total
---------------------------------------------------------------
Pair    | 718.5      | 720.82     | 723.14     |   8.6 | 53.46
Neigh   | 552.76     | 553.97     | 555.17     |   5.1 | 41.09
Comm    | 50.337     | 51.586     | 52.834     |  17.4 |  3.83
Output  | 0.057112   | 0.057136   | 0.057159   |   0.0 |  0.00
Modify  | 16.835     | 16.88      | 16.926     |   1.1 |  1.25
Other   |            | 4.927      |            |       |  0.37

Nlocal:    9826 ave 9841 max 9811 min
Histogram: 1 0 0 0 0 0 0 0 0 1
Nghost:    10340.5 ave 10380 max 10301 min
Histogram: 1 0 0 0 0 0 0 0 0 1
Neighs:    429136 ave 434435 max 423837 min
Histogram: 1 0 0 0 0 0 0 0 0 1

Total # of neighbors = 858272
Ave neighs/atom = 43.6735
Neighbor list builds = 19505
Dangerous builds not checked
Setting up Verlet run ...
  Unit style    : metal
  Current step  : 360000
  Time step     : 0.001
Per MPI rank memory allocation (min/avg/max) = 11.36 | 11.36 | 11.36 Mbytes
Step Temp Press TotEng PotEng Enthalpy 
  360000    1639.5734   -478.03901   -20166.256   -24330.921   -20336.805 
  360495    1604.6876   -154.74798   -20265.358   -24341.411   -20320.394 
Loop time of 32.8177 on 2 procs for 495 steps with 19652 atoms

Performance: 1.303 ns/day, 18.416 hours/ns, 15.083 timesteps/s
99.7% CPU use with 2 MPI tasks x no OpenMP threads

MPI task timing breakdown:
Section |  min time  |  avg time  |  max time  |%varavg| %total
---------------------------------------------------------------
Pair    | 17.429     | 17.553     | 17.677     |   3.0 | 53.49
Neigh   | 13.46      | 13.632     | 13.805     |   4.7 | 41.54
Comm    | 0.77367    | 1.0715     | 1.3693     |  28.8 |  3.26
Output  | 7.2002e-05 | 9.501e-05  | 0.00011802 |   0.0 |  0.00
Modify  | 0.42597    | 0.42992    | 0.43388    |   0.6 |  1.31
Other   |            | 0.1309     |            |       |  0.40

Nlocal:    9826 ave 9847 max 9805 min
Histogram: 1 0 0 0 0 0 0 0 0 1
Nghost:    10292 ave 10313 max 10271 min
Histogram: 1 0 0 0 0 0 0 0 0 1
Neighs:    430724 ave 433290 max 428157 min
Histogram: 1 0 0 0 0 0 0 0 0 1

Total # of neighbors = 861447
Ave neighs/atom = 43.8351
Neighbor list builds = 495
Dangerous builds not checked
Setting up Verlet run ...
  Unit style    : metal
  Current step  : 360495
  Time step     : 0.001
Per MPI rank memory allocation (min/avg/max) = 11.36 | 11.36 | 11.36 Mbytes
Step Temp Press TotEng PotEng Enthalpy 
  360495    1604.6876   -154.74798   -20265.358   -24341.411   -20320.394 
  380000    1607.6308    12.526128   -20335.131    -24418.66   -20330.692 
Loop time of 1373.04 on 2 procs for 19505 steps with 19652 atoms

Performance: 1.227 ns/day, 19.554 hours/ns, 14.206 timesteps/s
98.5% CPU use with 2 MPI tasks x no OpenMP threads

MPI task timing breakdown:
Section |  min time  |  avg time  |  max time  |%varavg| %total
---------------------------------------------------------------
Pair    | 731        | 736.78     | 742.57     |  21.3 | 53.66
Neigh   | 539.17     | 554.76     | 570.36     |  66.2 | 40.40
Comm    | 37.706     | 59.489     | 81.272     | 282.4 |  4.33
Output  | 0.058652   | 0.05866    | 0.058668   |   0.0 |  0.00
Modify  | 16.609     | 17.007     | 17.405     |   9.7 |  1.24
Other   |            | 4.937      |            |       |  0.36

Nlocal:    9826 ave 9830 max 9822 min
Histogram: 1 0 0 0 0 0 0 0 0 1
Nghost:    10294 ave 10333 max 10255 min
Histogram: 1 0 0 0 0 0 0 0 0 1
Neighs:    432376 ave 434878 max 429873 min
Histogram: 1 0 0 0 0 0 0 0 0 1

Total # of neighbors = 864751
Ave neighs/atom = 44.0032
Neighbor list builds = 19505
Dangerous builds not checked
Setting up Verlet run ...
  Unit style    : metal
  Current step  : 380000
  Time step     : 0.001
Per MPI rank memory allocation (min/avg/max) = 11.36 | 11.36 | 11.36 Mbytes
Step Temp Press TotEng PotEng Enthalpy 
  380000    1607.6308    12.526128   -20335.131    -24418.66   -20330.692 
  380495    1554.6223    89.078422   -20564.324   -24513.207   -20532.908 
Loop time of 29.9935 on 2 procs for 495 steps with 19652 atoms

Performance: 1.426 ns/day, 16.831 hours/ns, 16.504 timesteps/s
99.5% CPU use with 2 MPI tasks x no OpenMP threads

MPI task timing breakdown:
Section |  min time  |  avg time  |  max time  |%varavg| %total
---------------------------------------------------------------
Pair    | 15.516     | 15.547     | 15.578     |   0.8 | 51.83
Neigh   | 12.999     | 13.103     | 13.207     |   2.9 | 43.69
Comm    | 0.75394    | 0.82936    | 0.90478    |   8.3 |  2.77
Output  | 7.1049e-05 | 9.3579e-05 | 0.00011611 |   0.0 |  0.00
Modify  | 0.38596    | 0.38991    | 0.39385    |   0.6 |  1.30
Other   |            | 0.1242     |            |       |  0.41

Nlocal:    9826 ave 9875 max 9777 min
Histogram: 1 0 0 0 0 0 0 0 0 1
Nghost:    10319 ave 10339 max 10299 min
Histogram: 1 0 0 0 0 0 0 0 0 1
Neighs:    434498 ave 434911 max 434084 min
Histogram: 1 0 0 0 0 0 0 0 0 1

Total # of neighbors = 868995
Ave neighs/atom = 44.2192
Neighbor list builds = 495
Dangerous builds not checked
Setting up Verlet run ...
  Unit style    : metal
  Current step  : 380495
  Time step     : 0.001
Per MPI rank memory allocation (min/avg/max) = 11.36 | 11.36 | 11.36 Mbytes
Step Temp Press TotEng PotEng Enthalpy 
  380495    1554.6223    89.078422   -20564.324   -24513.207   -20532.908 
  400000    1539.6787   -327.20303    -20637.44   -24548.364   -20752.798 
Loop time of 1259.4 on 2 procs for 19505 steps with 19652 atoms

Performance: 1.338 ns/day, 17.936 hours/ns, 15.488 timesteps/s
99.2% CPU use with 2 MPI tasks x no OpenMP threads

MPI task timing breakdown:
Section |  min time  |  avg time  |  max time  |%varavg| %total
---------------------------------------------------------------
Pair    | 663.53     | 665.26     | 666.99     |   6.7 | 52.82
Neigh   | 526.59     | 529.17     | 531.74     |  11.2 | 42.02
Comm    | 43.54      | 44.437     | 45.335     |  13.5 |  3.53
Output  | 0.053471   | 0.053483   | 0.053496   |   0.0 |  0.00
Modify  | 15.614     | 15.698     | 15.782     |   2.1 |  1.25
Other   |            | 4.785      |            |       |  0.38

Nlocal:    9826 ave 9843 max 9809 min
Histogram: 1 0 0 0 0 0 0 0 0 1
Nghost:    10298 ave 10313 max 10283 min
Histogram: 1 0 0 0 0 0 0 0 0 1
Neighs:    434265 ave 439313 max 429217 min
Histogram: 1 0 0 0 0 0 0 0 0 1

Total # of neighbors = 868530
Ave neighs/atom = 44.1955
Neighbor list builds = 19505
Dangerous builds not checked
Setting up Verlet run ...
  Unit style    : metal
  Current step  : 400000
  Time step     : 0.001
Per MPI rank memory allocation (min/avg/max) = 11.36 | 11.36 | 11.36 Mbytes
Step Temp Press TotEng PotEng Enthalpy 
  400000    1539.6787   -327.20303    -20637.44   -24548.364   -20752.798 
  400495    1511.3318    223.54864   -20861.967   -24700.887   -20783.766 
Loop time of 29.7304 on 2 procs for 495 steps with 19652 atoms

Performance: 1.439 ns/day, 16.684 hours/ns, 16.650 timesteps/s
99.9% CPU use with 2 MPI tasks x no OpenMP threads

MPI task timing breakdown:
Section |  min time  |  avg time  |  max time  |%varavg| %total
---------------------------------------------------------------
Pair    | 15.163     | 15.382     | 15.602     |   5.6 | 51.74
Neigh   | 12.756     | 13.01      | 13.263     |   7.0 | 43.76
Comm    | 0.79785    | 0.83185    | 0.86585    |   3.7 |  2.80
Output  | 7.391e-05  | 9.2387e-05 | 0.00011086 |   0.0 |  0.00
Modify  | 0.38322    | 0.38597    | 0.38872    |   0.4 |  1.30
Other   |            | 0.1207     |            |       |  0.41

Nlocal:    9826 ave 9827 max 9825 min
Histogram: 1 0 0 0 0 0 0 0 0 1
Nghost:    10367 ave 10373 max 10361 min
Histogram: 1 0 0 0 0 0 0 0 0 1
Neighs:    438112 ave 441812 max 434413 min
Histogram: 1 0 0 0 0 0 0 0 0 1

Total # of neighbors = 876225
Ave neighs/atom = 44.5871
Neighbor list builds = 495
Dangerous builds not checked
Setting up Verlet run ...
  Unit style    : metal
  Current step  : 400495
  Time step     : 0.001
Per MPI rank memory allocation (min/avg/max) = 11.36 | 11.36 | 11.36 Mbytes
Step Temp Press TotEng PotEng Enthalpy 
  400495    1511.3318    223.54864   -20861.967   -24700.887   -20783.766 
  420000      1519.76    376.05415   -20939.862   -24800.191   -20808.825 
Loop time of 1255.91 on 2 procs for 19505 steps with 19652 atoms

Performance: 1.342 ns/day, 17.886 hours/ns, 15.531 timesteps/s
98.2% CPU use with 2 MPI tasks x no OpenMP threads

MPI task timing breakdown:
Section |  min time  |  avg time  |  max time  |%varavg| %total
---------------------------------------------------------------
Pair    | 649.37     | 655.04     | 660.71     |  22.1 | 52.16
Neigh   | 523.02     | 525.02     | 527.02     |   8.7 | 41.80
Comm    | 46.867     | 54.539     | 62.211     | 103.9 |  4.34
Output  | 0.10959    | 0.1096     | 0.10962    |   0.0 |  0.01
Modify  | 16.534     | 16.603     | 16.673     |   1.7 |  1.32
Other   |            | 4.594      |            |       |  0.37

Nlocal:    9826 ave 9851 max 9801 min
Histogram: 1 0 0 0 0 0 0 0 0 1
Nghost:    10381 ave 10392 max 10370 min
Histogram: 1 0 0 0 0 0 0 0 0 1
Neighs:    439376 ave 441178 max 437574 min
Histogram: 1 0 0 0 0 0 0 0 0 1

Total # of neighbors = 878752
Ave neighs/atom = 44.7157
Neighbor list builds = 19505
Dangerous builds not checked
Setting up Verlet run ...
  Unit style    : metal
  Current step  : 420000
  Time step     : 0.001
Per MPI rank memory allocation (min/avg/max) = 11.36 | 11.36 | 11.36 Mbytes
Step Temp Press TotEng PotEng Enthalpy 
  420000      1519.76    376.05415   -20939.862   -24800.191   -20808.825 
  420495    1468.8844    35.472694   -21114.259   -24845.359   -21101.916 
Loop time of 31.8768 on 2 procs for 495 steps with 19652 atoms

Performance: 1.342 ns/day, 17.888 hours/ns, 15.529 timesteps/s
98.0% CPU use with 2 MPI tasks x no OpenMP threads

MPI task timing breakdown:
Section |  min time  |  avg time  |  max time  |%varavg| %total
---------------------------------------------------------------
Pair    | 16.23      | 16.59      | 16.951     |   8.9 | 52.04
Neigh   | 12.854     | 12.861     | 12.868     |   0.2 | 40.35
Comm    | 1.5419     | 1.8979     | 2.2539     |  25.8 |  5.95
Output  | 8.4162e-05 | 0.00011766 | 0.00015116 |   0.0 |  0.00
Modify  | 0.4083     | 0.40896    | 0.40963    |   0.1 |  1.28
Other   |            | 0.1184     |            |       |  0.37

Nlocal:    9826 ave 9831 max 9821 min
Histogram: 1 0 0 0 0 0 0 0 0 1
Nghost:    10369.5 ave 10410 max 10329 min
Histogram: 1 0 0 0 0 0 0 0 0 1
Neighs:    440511 ave 443505 max 437517 min
Histogram: 1 0 0 0 0 0 0 0 0 1

Total # of neighbors = 881022
Ave neighs/atom = 44.8312
Neighbor list builds = 495
Dangerous builds not checked
Setting up Verlet run ...
  Unit style    : metal
  Current step  : 420495
  Time step     : 0.001
Per MPI rank memory allocation (min/avg/max) = 11.36 | 11.36 | 11.36 Mbytes
Step Temp Press TotEng PotEng Enthalpy 
  420495    1468.8844    35.472694   -21114.259   -24845.359   -21101.916 
  440000    1440.7841   -54.436549   -21263.313   -24923.036   -21282.197 
Loop time of 1435.78 on 2 procs for 19505 steps with 19652 atoms

Performance: 1.174 ns/day, 20.447 hours/ns, 13.585 timesteps/s
97.7% CPU use with 2 MPI tasks x no OpenMP threads

MPI task timing breakdown:
Section |  min time  |  avg time  |  max time  |%varavg| %total
---------------------------------------------------------------
Pair    | 767.92     | 776.47     | 785.01     |  30.7 | 54.08
Neigh   | 560.14     | 562.09     | 564.05     |   8.2 | 39.15
Comm    | 57.767     | 67.135     | 76.503     | 114.3 |  4.68
Output  | 0.054214   | 0.054239   | 0.054265   |   0.0 |  0.00
Modify  | 23.925     | 24.967     | 26.009     |  20.8 |  1.74
Other   |            | 5.06       |            |       |  0.35

Nlocal:    9826 ave 9838 max 9814 min
Histogram: 1 0 0 0 0 0 0 0 0 1
Nghost:    10382 ave 10392 max 10372 min
Histogram: 1 0 0 0 0 0 0 0 0 1
Neighs:    441422 ave 444519 max 438326 min
Histogram: 1 0 0 0 0 0 0 0 0 1

Total # of neighbors = 882845
Ave neighs/atom = 44.9239
Neighbor list builds = 19505
Dangerous builds not checked
Setting up Verlet run ...
  Unit style    : metal
  Current step  : 440000
  Time step     : 0.001
Per MPI rank memory allocation (min/avg/max) = 11.36 | 11.36 | 11.36 Mbytes
Step Temp Press TotEng PotEng Enthalpy 
  440000    1440.7841   -54.436549   -21263.313   -24923.036   -21282.197 
  440495    1415.1297   -182.09616   -21431.127   -25025.686   -21494.052 
Loop time of 34.5896 on 2 procs for 495 steps with 19652 atoms

Performance: 1.236 ns/day, 19.411 hours/ns, 14.311 timesteps/s
99.9% CPU use with 2 MPI tasks x no OpenMP threads

MPI task timing breakdown:
Section |  min time  |  avg time  |  max time  |%varavg| %total
---------------------------------------------------------------
Pair    | 18.925     | 18.993     | 19.062     |   1.6 | 54.91
Neigh   | 13.068     | 13.687     | 14.307     |  16.7 | 39.57
Comm    | 0.61741    | 1.3267     | 2.0359     |  61.6 |  3.84
Output  | 7.4863e-05 | 9.7394e-05 | 0.00011992 |   0.0 |  0.00
Modify  | 0.4269     | 0.44405    | 0.46121    |   2.6 |  1.28
Other   |            | 0.138      |            |       |  0.40

Nlocal:    9826 ave 9851 max 9801 min
Histogram: 1 0 0 0 0 0 0 0 0 1
Nghost:    10396 ave 10401 max 10391 min
Histogram: 1 0 0 0 0 0 0 0 0 1
Neighs:    443424 ave 449111 max 437737 min
Histogram: 1 0 0 0 0 0 0 0 0 1

Total # of neighbors = 886848
Ave neighs/atom = 45.1276
Neighbor list builds = 495
Dangerous builds not checked
Setting up Verlet run ...
  Unit style    : metal
  Current step  : 440495
  Time step     : 0.001
Per MPI rank memory allocation (min/avg/max) = 11.36 | 11.36 | 11.36 Mbytes
Step Temp Press TotEng PotEng Enthalpy 
  440495    1415.1297   -182.09616   -21431.127   -25025.686   -21494.052 
  460000    1397.4552    314.74675   -21515.207    -25064.87   -21406.794 
Loop time of 1522.5 on 2 procs for 19505 steps with 19652 atoms

Performance: 1.107 ns/day, 21.682 hours/ns, 12.811 timesteps/s
98.2% CPU use with 2 MPI tasks x no OpenMP threads

MPI task timing breakdown:
Section |  min time  |  avg time  |  max time  |%varavg| %total
---------------------------------------------------------------
Pair    | 842.37     | 848.88     | 855.39     |  22.3 | 55.76
Neigh   | 562.85     | 567.75     | 572.64     |  20.5 | 37.29
Comm    | 80.536     | 81.97      | 83.404     |  15.8 |  5.38
Output  | 0.29165    | 0.29167    | 0.29169    |   0.0 |  0.02
Modify  | 18.208     | 18.3       | 18.392     |   2.2 |  1.20
Other   |            | 5.308      |            |       |  0.35

Nlocal:    9826 ave 9854 max 9798 min
Histogram: 1 0 0 0 0 0 0 0 0 1
Nghost:    10445.5 ave 10466 max 10425 min
Histogram: 1 0 0 0 0 0 0 0 0 1
Neighs:    445066 ave 447509 max 442622 min
Histogram: 1 0 0 0 0 0 0 0 0 1

Total # of neighbors = 890131
Ave neighs/atom = 45.2947
Neighbor list builds = 19505
Dangerous builds not checked
Setting up Verlet run ...
  Unit style    : metal
  Current step  : 460000
  Time step     : 0.001
Per MPI rank memory allocation (min/avg/max) = 11.36 | 11.36 | 11.36 Mbytes
Step Temp Press TotEng PotEng Enthalpy 
  460000    1397.4552    314.74675   -21515.207    -25064.87   -21406.794 
  460495    1364.7916    99.354303    -21714.31   -25181.005   -21680.245 
Loop time of 35.4374 on 2 procs for 495 steps with 19652 atoms

Performance: 1.207 ns/day, 19.886 hours/ns, 13.968 timesteps/s
98.8% CPU use with 2 MPI tasks x no OpenMP threads

MPI task timing breakdown:
Section |  min time  |  avg time  |  max time  |%varavg| %total
---------------------------------------------------------------
Pair    | 19.045     | 19.125     | 19.204     |   1.8 | 53.97
Neigh   | 13.789     | 13.909     | 14.028     |   3.2 | 39.25
Comm    | 1.787      | 1.8311     | 1.8753     |   3.3 |  5.17
Output  | 6.5804e-05 | 8.9407e-05 | 0.00011301 |   0.0 |  0.00
Modify  | 0.43417    | 0.44034    | 0.44651    |   0.9 |  1.24
Other   |            | 0.1326     |            |       |  0.37

Nlocal:    9826 ave 9839 max 9813 min
Histogram: 1 0 0 0 0 0 0 0 0 1
Nghost:    10506 ave 10527 max 10485 min
Histogram: 1 0 0 0 0 0 0 0 0 1
Neighs:    447092 ave 450566 max 443617 min
Histogram: 1 0 0 0 0 0 0 0 0 1

Total # of neighbors = 894183
Ave neighs/atom = 45.5009
Neighbor list builds = 495
Dangerous builds not checked
Setting up Verlet run ...
  Unit style    : metal
  Current step  : 460495
  Time step     : 0.001
Per MPI rank memory allocation (min/avg/max) = 11.36 | 11.36 | 11.36 Mbytes
Step Temp Press TotEng PotEng Enthalpy 
  460495    1364.7916    99.354303    -21714.31   -25181.005   -21680.245 
  480000    1349.9182   -237.06256   -21771.478   -25200.393   -21852.835 
Loop time of 1708.48 on 2 procs for 19505 steps with 19652 atoms

Performance: 0.986 ns/day, 24.331 hours/ns, 11.417 timesteps/s
96.4% CPU use with 2 MPI tasks x no OpenMP threads

MPI task timing breakdown:
Section |  min time  |  avg time  |  max time  |%varavg| %total
---------------------------------------------------------------
Pair    | 946.73     | 953.52     | 960.31     |  22.0 | 55.81
Neigh   | 570.85     | 583        | 595.16     |  50.3 | 34.12
Comm    | 123.56     | 143.68     | 163.79     | 167.8 |  8.41
Output  | 0.30578    | 0.3058     | 0.30583    |   0.0 |  0.02
Modify  | 20.91      | 22.027     | 23.143     |  23.8 |  1.29
Other   |            | 5.945      |            |       |  0.35

Nlocal:    9826 ave 9850 max 9802 min
Histogram: 1 0 0 0 0 0 0 0 0 1
Nghost:    10452.5 ave 10475 max 10430 min
Histogram: 1 0 0 0 0 0 0 0 0 1
Neighs:    446738 ave 451874 max 441601 min
Histogram: 1 0 0 0 0 0 0 0 0 1

Total # of neighbors = 893475
Ave neighs/atom = 45.4648
Neighbor list builds = 19505
Dangerous builds not checked
Setting up Verlet run ...
  Unit style    : metal
  Current step  : 480000
  Time step     : 0.001
Per MPI rank memory allocation (min/avg/max) = 11.36 | 11.36 | 11.36 Mbytes
Step Temp Press TotEng PotEng Enthalpy 
  480000    1349.9182   -237.06256   -21771.478   -25200.393   -21852.835 
  480495    1307.4096    221.57956   -21993.497   -25314.437    -21917.89 
Loop time of 36.9303 on 2 procs for 495 steps with 19652 atoms

Performance: 1.158 ns/day, 20.724 hours/ns, 13.404 timesteps/s
99.4% CPU use with 2 MPI tasks x no OpenMP threads

MPI task timing breakdown:
Section |  min time  |  avg time  |  max time  |%varavg| %total
---------------------------------------------------------------
Pair    | 19.975     | 20.415     | 20.856     |   9.7 | 55.28
Neigh   | 13.159     | 13.397     | 13.636     |   6.5 | 36.28
Comm    | 2.3056     | 2.5265     | 2.7474     |  13.9 |  6.84
Output  | 8.7023e-05 | 0.00012147 | 0.00015593 |   0.0 |  0.00
Modify  | 0.44163    | 0.45142    | 0.46121    |   1.5 |  1.22
Other   |            | 0.1397     |            |       |  0.38

Nlocal:    9826 ave 9839 max 9813 min
Histogram: 1 0 0 0 0 0 0 0 0 1
Nghost:    10435 ave 10464 max 10406 min
Histogram: 1 0 0 0 0 0 0 0 0 1
Neighs:    449463 ave 454900 max 444026 min
Histogram: 1 0 0 0 0 0 0 0 0 1

Total # of neighbors = 898926
Ave neighs/atom = 45.7422
Neighbor list builds = 495
Dangerous builds not checked
Setting up Verlet run ...
  Unit style    : metal
  Current step  : 480495
  Time step     : 0.001
Per MPI rank memory allocation (min/avg/max) = 11.36 | 11.36 | 11.36 Mbytes
Step Temp Press TotEng PotEng Enthalpy 
  480495    1307.4096    221.57956   -21993.497   -25314.437    -21917.89 
  500000    1287.9311   -291.70949   -22160.521   -25431.983   -22259.745 
Loop time of 1706.12 on 2 procs for 19505 steps with 19652 atoms

Performance: 0.988 ns/day, 24.297 hours/ns, 11.432 timesteps/s
94.1% CPU use with 2 MPI tasks x no OpenMP threads

MPI task timing breakdown:
Section |  min time  |  avg time  |  max time  |%varavg| %total
---------------------------------------------------------------
Pair    | 895.35     | 901.01     | 906.67     |  18.9 | 52.81
Neigh   | 524.37     | 548.81     | 573.25     | 104.3 | 32.17
Comm    | 184.63     | 215.41     | 246.19     | 209.7 | 12.63
Output  | 0.094263   | 0.094293   | 0.094324   |   0.0 |  0.01
Modify  | 34.833     | 35.397     | 35.961     |   9.5 |  2.07
Other   |            | 5.394      |            |       |  0.32

Nlocal:    9826 ave 9835 max 9817 min
Histogram: 1 0 0 0 0 0 0 0 0 1
Nghost:    10462 ave 10465 max 10459 min
Histogram: 1 0 0 0 0 0 0 0 0 1
Neighs:    450721 ave 454689 max 446753 min
Histogram: 1 0 0 0 0 0 0 0 0 1

Total # of neighbors = 901442
Ave neighs/atom = 45.8702
Neighbor list builds = 19505
Dangerous builds not checked
Setting up Verlet run ...
  Unit style    : metal
  Current step  : 500000
  Time step     : 0.001
Per MPI rank memory allocation (min/avg/max) = 11.36 | 11.36 | 11.36 Mbytes
Step Temp Press TotEng PotEng Enthalpy 
  500000    1287.9311   -291.70949   -22160.521   -25431.983   -22259.745 
  500495    1247.6766   -388.96931   -22275.994   -25445.206   -22408.216 
Loop time of 55.6808 on 2 procs for 495 steps with 19652 atoms

Performance: 0.768 ns/day, 31.246 hours/ns, 8.890 timesteps/s
83.9% CPU use with 2 MPI tasks x no OpenMP threads

MPI task timing breakdown:
Section |  min time  |  avg time  |  max time  |%varavg| %total
---------------------------------------------------------------
Pair    | 24.183     | 24.185     | 24.186     |   0.0 | 43.43
Neigh   | 13.731     | 13.959     | 14.188     |   6.1 | 25.07
Comm    | 16.573     | 16.808     | 17.044     |   5.7 | 30.19
Output  | 8.297e-05  | 0.00010848 | 0.00013399 |   0.0 |  0.00
Modify  | 0.58176    | 0.58448    | 0.5872     |   0.4 |  1.05
Other   |            | 0.1439     |            |       |  0.26

Nlocal:    9826 ave 9837 max 9815 min
Histogram: 1 0 0 0 0 0 0 0 0 1
Nghost:    10498 ave 10537 max 10459 min
Histogram: 1 0 0 0 0 0 0 0 0 1
Neighs:    451165 ave 453923 max 448407 min
Histogram: 1 0 0 0 0 0 0 0 0 1

Total # of neighbors = 902330
Ave neighs/atom = 45.9154
Neighbor list builds = 495
Dangerous builds not checked
Setting up Verlet run ...
  Unit style    : metal
  Current step  : 500495
  Time step     : 0.001
Per MPI rank memory allocation (min/avg/max) = 11.36 | 11.36 | 11.36 Mbytes
Step Temp Press TotEng PotEng Enthalpy 
  500495    1247.6766   -388.96931   -22275.994   -25445.206   -22408.216 
  520000    1241.7854    130.66115    -22420.03   -25574.278   -22375.884 
Loop time of 2066.45 on 2 procs for 19505 steps with 19652 atoms

Performance: 0.816 ns/day, 29.429 hours/ns, 9.439 timesteps/s
89.1% CPU use with 2 MPI tasks x no OpenMP threads

MPI task timing breakdown:
Section |  min time  |  avg time  |  max time  |%varavg| %total
---------------------------------------------------------------
Pair    | 1138.2     | 1145.7     | 1153.2     |  22.2 | 55.44
Neigh   | 591.29     | 597.9      | 604.51     |  27.0 | 28.93
Comm    | 268.33     | 282.69     | 297.06     |  85.4 | 13.68
Output  | 0.16217    | 0.16219    | 0.16221    |   0.0 |  0.01
Modify  | 33.532     | 33.656     | 33.78      |   2.1 |  1.63
Other   |            | 6.339      |            |       |  0.31

Nlocal:    9826 ave 9867 max 9785 min
Histogram: 1 0 0 0 0 0 0 0 0 1
Nghost:    10504 ave 10513 max 10495 min
Histogram: 1 0 0 0 0 0 0 0 0 1
Neighs:    454296 ave 462072 max 446520 min
Histogram: 1 0 0 0 0 0 0 0 0 1

Total # of neighbors = 908592
Ave neighs/atom = 46.2341
Neighbor list builds = 19505
Dangerous builds not checked
Setting up Verlet run ...
  Unit style    : metal
  Current step  : 520000
  Time step     : 0.001
Per MPI rank memory allocation (min/avg/max) = 11.36 | 11.36 | 11.36 Mbytes
Step Temp Press TotEng PotEng Enthalpy 
  520000    1241.7854    130.66115    -22420.03   -25574.278   -22375.884 
  520495    1217.8459    154.52573   -22596.538   -25689.977   -22544.565 
Loop time of 45.4278 on 2 procs for 495 steps with 19652 atoms

Performance: 0.941 ns/day, 25.493 hours/ns, 10.896 timesteps/s
96.0% CPU use with 2 MPI tasks x no OpenMP threads

MPI task timing breakdown:
Section |  min time  |  avg time  |  max time  |%varavg| %total
---------------------------------------------------------------
Pair    | 25.066     | 25.717     | 26.368     |  12.8 | 56.61
Neigh   | 15.6       | 15.808     | 16.016     |   5.2 | 34.80
Comm    | 2.1382     | 3.0065     | 3.8747     |  50.1 |  6.62
Output  | 8.0109e-05 | 0.00011361 | 0.0001471  |   0.0 |  0.00
Modify  | 0.72107    | 0.72945    | 0.73782    |   1.0 |  1.61
Other   |            | 0.1671     |            |       |  0.37

Nlocal:    9826 ave 9855 max 9797 min
Histogram: 1 0 0 0 0 0 0 0 0 1
Nghost:    10499.5 ave 10505 max 10494 min
Histogram: 1 0 0 0 0 0 0 0 0 1
Neighs:    456230 ave 462668 max 449793 min
Histogram: 1 0 0 0 0 0 0 0 0 1

Total # of neighbors = 912461
Ave neighs/atom = 46.4309
Neighbor list builds = 495
Dangerous builds not checked
Setting up Verlet run ...
  Unit style    : metal
  Current step  : 520495
  Time step     : 0.001
Per MPI rank memory allocation (min/avg/max) = 11.36 | 11.36 | 11.36 Mbytes
Step Temp Press TotEng PotEng Enthalpy 
  520495    1217.8459    154.52573   -22596.538   -25689.977   -22544.565 
  540000    1188.6501   -388.55071   -22696.174   -25715.454   -22826.958 
Loop time of 1787.38 on 2 procs for 19505 steps with 19652 atoms

Performance: 0.943 ns/day, 25.455 hours/ns, 10.913 timesteps/s
98.0% CPU use with 2 MPI tasks x no OpenMP threads

MPI task timing breakdown:
Section |  min time  |  avg time  |  max time  |%varavg| %total
---------------------------------------------------------------
Pair    | 1030.2     | 1034.1     | 1038       |  12.0 | 57.86
Neigh   | 612.38     | 616.6      | 620.81     |  17.0 | 34.50
Comm    | 104.81     | 105.09     | 105.37     |   2.7 |  5.88
Output  | 0.14348    | 0.14352    | 0.14355    |   0.0 |  0.01
Modify  | 24.898     | 25.021     | 25.143     |   2.5 |  1.40
Other   |            | 6.424      |            |       |  0.36

Nlocal:    9826 ave 9837 max 9815 min
Histogram: 1 0 0 0 0 0 0 0 0 1
Nghost:    10536 ave 10545 max 10527 min
Histogram: 1 0 0 0 0 0 0 0 0 1
Neighs:    455755 ave 461220 max 450290 min
Histogram: 1 0 0 0 0 0 0 0 0 1

Total # of neighbors = 911510
Ave neighs/atom = 46.3826
Neighbor list builds = 19505
Dangerous builds not checked
Setting up Verlet run ...
  Unit style    : metal
  Current step  : 540000
  Time step     : 0.001
Per MPI rank memory allocation (min/avg/max) = 11.36 | 11.36 | 11.36 Mbytes
Step Temp Press TotEng PotEng Enthalpy 
  540000    1188.6501   -388.55071   -22696.174   -25715.454   -22826.958 
  540495    1166.6902    -34.89207   -22890.147   -25853.646   -22901.817 
Loop time of 42.49 on 2 procs for 495 steps with 19652 atoms

Performance: 1.007 ns/day, 23.844 hours/ns, 11.650 timesteps/s
98.6% CPU use with 2 MPI tasks x no OpenMP threads

MPI task timing breakdown:
Section |  min time  |  avg time  |  max time  |%varavg| %total
---------------------------------------------------------------
Pair    | 24.275     | 24.349     | 24.422     |   1.5 | 57.30
Neigh   | 15.29      | 15.763     | 16.235     |  11.9 | 37.10
Comm    | 1.1457     | 1.6938     | 2.2419     |  42.1 |  3.99
Output  | 8.7023e-05 | 0.000121   | 0.00015497 |   0.0 |  0.00
Modify  | 0.51786    | 0.51998    | 0.5221     |   0.3 |  1.22
Other   |            | 0.1647     |            |       |  0.39

Nlocal:    9826 ave 9842 max 9810 min
Histogram: 1 0 0 0 0 0 0 0 0 1
Nghost:    10551 ave 10558 max 10544 min
Histogram: 1 0 0 0 0 0 0 0 0 1
Neighs:    459208 ave 462285 max 456130 min
Histogram: 1 0 0 0 0 0 0 0 0 1

Total # of neighbors = 918415
Ave neighs/atom = 46.7339
Neighbor list builds = 495
Dangerous builds not checked
Setting up Verlet run ...
  Unit style    : metal
  Current step  : 540495
  Time step     : 0.001
Per MPI rank memory allocation (min/avg/max) = 11.36 | 11.36 | 11.36 Mbytes
Step Temp Press TotEng PotEng Enthalpy 
  540495    1166.6902    -34.89207   -22890.147   -25853.646   -22901.817 
  560000    1151.7049   -121.13842   -22960.079   -25885.515   -23000.548 
Loop time of 1819.76 on 2 procs for 19505 steps with 19652 atoms

Performance: 0.926 ns/day, 25.916 hours/ns, 10.718 timesteps/s
95.0% CPU use with 2 MPI tasks x no OpenMP threads

MPI task timing breakdown:
Section |  min time  |  avg time  |  max time  |%varavg| %total
---------------------------------------------------------------
Pair    | 990.64     | 1000       | 1009.4     |  29.7 | 54.95
Neigh   | 589.48     | 590.28     | 591.07     |   3.3 | 32.44
Comm    | 177.48     | 186.16     | 194.84     |  63.6 | 10.23
Output  | 0.056665   | 0.056718   | 0.05677    |   0.0 |  0.00
Modify  | 35.523     | 37.044     | 38.565     |  25.0 |  2.04
Other   |            | 6.183      |            |       |  0.34

Nlocal:    9826 ave 9835 max 9817 min
Histogram: 1 0 0 0 0 0 0 0 0 1
Nghost:    10548 ave 10560 max 10536 min
Histogram: 1 0 0 0 0 0 0 0 0 1
Neighs:    459345 ave 461835 max 456855 min
Histogram: 1 0 0 0 0 0 0 0 0 1

Total # of neighbors = 918690
Ave neighs/atom = 46.7479
Neighbor list builds = 19505
Dangerous builds not checked
Setting up Verlet run ...
  Unit style    : metal
  Current step  : 560000
  Time step     : 0.001
Per MPI rank memory allocation (min/avg/max) = 11.36 | 11.36 | 11.36 Mbytes
Step Temp Press TotEng PotEng Enthalpy 
  560000    1151.7049   -121.13842   -22960.079   -25885.515   -23000.548 
  560495    1114.1678    179.13745   -23169.517   -25999.605   -23109.999 
[...]
Histogram: 1 0 0 0 0 0 0 0 0 1
Neighs:    516014 ave 517276 max 514751 min
Histogram: 1 0 0 0 0 0 0 0 0 1

Total # of neighbors = 1032027
Ave neighs/atom = 52.5151
Neighbor list builds = 19505
Dangerous builds not checked
Setting up Verlet run ...
  Unit style    : metal
  Current step  : 840000
  Time step     : 0.001
Per MPI rank memory allocation (min/avg/max) = 11.36 | 11.36 | 11.36 Mbytes
Step Temp Press TotEng PotEng Enthalpy 
  840000    451.49101    108.78246    -27483.92   -28630.749   -27450.971 
  840495    422.81747   -153.35858   -27631.505     -28705.5   -27677.873 
Loop time of 44.7763 on 2 procs for 495 steps with 19652 atoms

Performance: 0.955 ns/day, 25.127 hours/ns, 11.055 timesteps/s
99.9% CPU use with 2 MPI tasks x no OpenMP threads

MPI task timing breakdown:
Section |  min time  |  avg time  |  max time  |%varavg| %total
---------------------------------------------------------------
Pair    | 24.007     | 25.014     | 26.021     |  20.1 | 55.86
Neigh   | 15.611     | 16.184     | 16.757     |  14.2 | 36.14
Comm    | 1.1234     | 2.7453     | 4.3671     |  97.9 |  6.13
Output  | 8.7976e-05 | 0.00013852 | 0.00018907 |   0.0 |  0.00
Modify  | 0.61293    | 0.6416     | 0.67027    |   3.6 |  1.43
Other   |            | 0.1915     |            |       |  0.43

Nlocal:    9826 ave 9837 max 9815 min
Histogram: 1 0 0 0 0 0 0 0 0 1
Nghost:    11025 ave 11053 max 10997 min
Histogram: 1 0 0 0 0 0 0 0 0 1
Neighs:    517020 ave 518024 max 516016 min
Histogram: 1 0 0 0 0 0 0 0 0 1

Total # of neighbors = 1034040
Ave neighs/atom = 52.6175
Neighbor list builds = 495
Dangerous builds not checked
Setting up Verlet run ...
  Unit style    : metal
  Current step  : 840495
  Time step     : 0.001
Per MPI rank memory allocation (min/avg/max) = 11.36 | 11.36 | 11.36 Mbytes
Step Temp Press TotEng PotEng Enthalpy 
  840495    422.81747   -153.35858   -27631.505     -28705.5   -27677.873 
  860000    400.88206   -298.54302   -27816.229   -28834.506   -27906.133 
Loop time of 1906.56 on 2 procs for 19505 steps with 19652 atoms

Performance: 0.884 ns/day, 27.152 hours/ns, 10.230 timesteps/s
97.5% CPU use with 2 MPI tasks x no OpenMP threads

MPI task timing breakdown:
Section |  min time  |  avg time  |  max time  |%varavg| %total
---------------------------------------------------------------
Pair    | 1075.9     | 1086.6     | 1097.2     |  32.2 | 56.99
Neigh   | 656.64     | 665.95     | 675.26     |  36.1 | 34.93
Comm    | 98.836     | 118.82     | 138.8      | 183.3 |  6.23
Output  | 0.063686   | 0.063707   | 0.063727   |   0.0 |  0.00
Modify  | 27.119     | 27.134     | 27.15      |   0.3 |  1.42
Other   |            | 8.033      |            |       |  0.42

Nlocal:    9826 ave 9840 max 9812 min
Histogram: 1 0 0 0 0 0 0 0 0 1
Nghost:    11041 ave 11074 max 11008 min
Histogram: 1 0 0 0 0 0 0 0 0 1
Neighs:    520021 ave 520658 max 519384 min
Histogram: 1 0 0 0 0 0 0 0 0 1

Total # of neighbors = 1040042
Ave neighs/atom = 52.923
Neighbor list builds = 19505
Dangerous builds not checked
Setting up Verlet run ...
  Unit style    : metal
  Current step  : 860000
  Time step     : 0.001
Per MPI rank memory allocation (min/avg/max) = 11.36 | 11.36 | 11.36 Mbytes
Step Temp Press TotEng PotEng Enthalpy 
  860000    400.88206   -298.54302   -27816.229   -28834.506   -27906.133 
  860495    373.12483    64.522325    -27963.89   -28911.661   -27944.531 
Loop time of 46.1068 on 2 procs for 495 steps with 19652 atoms

Performance: 0.928 ns/day, 25.874 hours/ns, 10.736 timesteps/s
98.2% CPU use with 2 MPI tasks x no OpenMP threads

MPI task timing breakdown:
Section |  min time  |  avg time  |  max time  |%varavg| %total
---------------------------------------------------------------
Pair    | 26.05      | 26.141     | 26.231     |   1.8 | 56.70
Neigh   | 16.46      | 16.708     | 16.956     |   6.1 | 36.24
Comm    | 2.2617     | 2.4017     | 2.5417     |   9.0 |  5.21
Output  | 0.00010896 | 0.00013101 | 0.00015306 |   0.0 |  0.00
Modify  | 0.63783    | 0.65357    | 0.66932    |   1.9 |  1.42
Other   |            | 0.2028     |            |       |  0.44

Nlocal:    9826 ave 9827 max 9825 min
Histogram: 1 0 0 0 0 0 0 0 0 1
Nghost:    11067.5 ave 11075 max 11060 min
Histogram: 1 0 0 0 0 0 0 0 0 1
Neighs:    522710 ave 523593 max 521826 min
Histogram: 1 0 0 0 0 0 0 0 0 1

Total # of neighbors = 1045419
Ave neighs/atom = 53.1966
Neighbor list builds = 495
Dangerous builds not checked
Setting up Verlet run ...
  Unit style    : metal
  Current step  : 860495
  Time step     : 0.001
Per MPI rank memory allocation (min/avg/max) = 11.36 | 11.36 | 11.36 Mbytes
Step Temp Press TotEng PotEng Enthalpy 
  860495    373.12483    64.522325    -27963.89   -28911.661   -27944.531 
  880000    345.43096   -84.045014    -28133.63   -29011.056   -28158.762 
Loop time of 1963.2 on 2 procs for 19505 steps with 19652 atoms

Performance: 0.858 ns/day, 27.959 hours/ns, 9.935 timesteps/s
96.6% CPU use with 2 MPI tasks x no OpenMP threads

MPI task timing breakdown:
Section |  min time  |  avg time  |  max time  |%varavg| %total
---------------------------------------------------------------
Pair    | 1105.5     | 1115.7     | 1125.8     |  30.4 | 56.83
Neigh   | 677.3      | 678.3      | 679.3      |   3.8 | 34.55
Comm    | 123.32     | 132.01     | 140.7      |  75.7 |  6.72
Output  | 0.068741   | 0.068774   | 0.068806   |   0.0 |  0.00
Modify  | 28.414     | 28.743     | 29.072     |   6.1 |  1.46
Other   |            | 8.411      |            |       |  0.43

Nlocal:    9826 ave 9843 max 9809 min
Histogram: 1 0 0 0 0 0 0 0 0 1
Nghost:    11055.5 ave 11076 max 11035 min
Histogram: 1 0 0 0 0 0 0 0 0 1
Neighs:    524674 ave 526000 max 523348 min
Histogram: 1 0 0 0 0 0 0 0 0 1

Total # of neighbors = 1049348
Ave neighs/atom = 53.3965
Neighbor list builds = 19505
Dangerous builds not checked
Setting up Verlet run ...
  Unit style    : metal
  Current step  : 880000
  Time step     : 0.001
Per MPI rank memory allocation (min/avg/max) = 11.36 | 11.36 | 11.36 Mbytes
Step Temp Press TotEng PotEng Enthalpy 
  880000    345.43096   -84.045014    -28133.63   -29011.056   -28158.762 
  880495    321.60729     60.63726    -28269.15   -29086.062   -28251.071 
Loop time of 53.1531 on 2 procs for 495 steps with 19652 atoms

Performance: 0.805 ns/day, 29.828 hours/ns, 9.313 timesteps/s
93.9% CPU use with 2 MPI tasks x no OpenMP threads

MPI task timing breakdown:
Section |  min time  |  avg time  |  max time  |%varavg| %total
---------------------------------------------------------------
Pair    | 30.183     | 30.541     | 30.9       |   6.5 | 57.46
Neigh   | 16.746     | 17.409     | 18.073     |  15.9 | 32.75
Comm    | 3.0613     | 4.1263     | 5.1912     |  52.4 |  7.76
Output  | 8.0109e-05 | 0.00011396 | 0.00014782 |   0.0 |  0.00
Modify  | 0.80376    | 0.82112    | 0.83848    |   1.9 |  1.54
Other   |            | 0.2549     |            |       |  0.48

Nlocal:    9826 ave 9829 max 9823 min
Histogram: 1 0 0 0 0 0 0 0 0 1
Nghost:    11081 ave 11087 max 11075 min
Histogram: 1 0 0 0 0 0 0 0 0 1
Neighs:    526644 ave 526679 max 526610 min
Histogram: 1 0 0 0 0 0 0 0 0 1

Total # of neighbors = 1053289
Ave neighs/atom = 53.597
Neighbor list builds = 495
Dangerous builds not checked
Setting up Verlet run ...
  Unit style    : metal
  Current step  : 880495
  Time step     : 0.001
Per MPI rank memory allocation (min/avg/max) = 11.36 | 11.36 | 11.36 Mbytes
Step Temp Press TotEng PotEng Enthalpy 
  880495    321.60729     60.63726    -28269.15   -29086.062   -28251.071 
  900000    300.52769   -13.912855   -28421.923    -29185.29   -28426.057 
Loop time of 2014.51 on 2 procs for 19505 steps with 19652 atoms

Performance: 0.837 ns/day, 28.689 hours/ns, 9.682 timesteps/s
95.0% CPU use with 2 MPI tasks x no OpenMP threads

MPI task timing breakdown:
Section |  min time  |  avg time  |  max time  |%varavg| %total
---------------------------------------------------------------
Pair    | 1130.7     | 1148.1     | 1165.5     |  51.4 | 56.99
Neigh   | 671.73     | 684.88     | 698.03     |  50.2 | 34.00
Comm    | 111.63     | 142.25     | 172.87     | 256.7 |  7.06
Output  | 0.069434   | 0.069469   | 0.069504   |   0.0 |  0.00
Modify  | 30.414     | 30.452     | 30.491     |   0.7 |  1.51
Other   |            | 8.769      |            |       |  0.44

Nlocal:    9826 ave 9827 max 9825 min
Histogram: 1 0 0 0 0 0 0 0 0 1
Nghost:    11055.5 ave 11061 max 11050 min
Histogram: 1 0 0 0 0 0 0 0 0 1
Neighs:    529132 ave 529281 max 528983 min
Histogram: 1 0 0 0 0 0 0 0 0 1

Total # of neighbors = 1058264
Ave neighs/atom = 53.8502
Neighbor list builds = 19505
Dangerous builds not checked
Setting up Verlet run ...
  Unit style    : metal
  Current step  : 900000
  Time step     : 0.001
Per MPI rank memory allocation (min/avg/max) = 11.36 | 11.36 | 11.36 Mbytes
Step Temp Press TotEng PotEng Enthalpy 
  900000    300.52769   -13.912855   -28421.923    -29185.29   -28426.057 
  900495     273.2674    146.93372    -28558.79   -29252.914   -28515.265 
Loop time of 48.3795 on 2 procs for 495 steps with 19652 atoms

Performance: 0.884 ns/day, 27.149 hours/ns, 10.232 timesteps/s
99.0% CPU use with 2 MPI tasks x no OpenMP threads

MPI task timing breakdown:
Section |  min time  |  avg time  |  max time  |%varavg| %total
---------------------------------------------------------------
Pair    | 27.098     | 28.052     | 29.005     |  18.0 | 57.98
Neigh   | 15.554     | 16.119     | 16.683     |  14.1 | 33.32
Comm    | 1.7221     | 3.2657     | 4.8093     |  85.4 |  6.75
Output  | 9.1076e-05 | 0.00013256 | 0.00017405 |   0.0 |  0.00
Modify  | 0.70746    | 0.73268    | 0.7579     |   2.9 |  1.51
Other   |            | 0.2107     |            |       |  0.44

Nlocal:    9826 ave 9833 max 9819 min
Histogram: 1 0 0 0 0 0 0 0 0 1
Nghost:    11104 ave 11111 max 11097 min
Histogram: 1 0 0 0 0 0 0 0 0 1
Neighs:    531056 ave 531323 max 530788 min
Histogram: 1 0 0 0 0 0 0 0 0 1

Total # of neighbors = 1062111
Ave neighs/atom = 54.0459
Neighbor list builds = 495
Dangerous builds not checked
Setting up Verlet run ...
  Unit style    : metal
  Current step  : 900495
  Time step     : 0.001
Per MPI rank memory allocation (min/avg/max) = 11.36 | 11.36 | 11.36 Mbytes
Step Temp Press TotEng PotEng Enthalpy 
  900495     273.2674    146.93372    -28558.79   -29252.914   -28515.265 
  920000    251.34012   -186.87384   -28698.229   -29336.656   -28753.495 
Loop time of 1892.76 on 2 procs for 19505 steps with 19652 atoms

Performance: 0.890 ns/day, 26.955 hours/ns, 10.305 timesteps/s
98.6% CPU use with 2 MPI tasks x no OpenMP threads

MPI task timing breakdown:
Section |  min time  |  avg time  |  max time  |%varavg| %total
---------------------------------------------------------------
Pair    | 1058.8     | 1077.1     | 1095.5     |  55.8 | 56.91
Neigh   | 643        | 660.76     | 678.51     |  69.1 | 34.91
Comm    | 80.44      | 117.51     | 154.57     | 341.9 |  6.21
Output  | 0.07851    | 0.078544   | 0.078577   |   0.0 |  0.00
Modify  | 28.058     | 28.579     | 29.099     |   9.7 |  1.51
Other   |            | 8.691      |            |       |  0.46

Nlocal:    9826 ave 9826 max 9826 min
Histogram: 2 0 0 0 0 0 0 0 0 0
Nghost:    11087.5 ave 11094 max 11081 min
Histogram: 1 0 0 0 0 0 0 0 0 1
Neighs:    532476 ave 532540 max 532413 min
Histogram: 1 0 0 0 0 0 0 0 0 1

Total # of neighbors = 1064953
Ave neighs/atom = 54.1906
Neighbor list builds = 19505
Dangerous builds not checked
Setting up Verlet run ...
  Unit style    : metal
  Current step  : 920000
  Time step     : 0.001
Per MPI rank memory allocation (min/avg/max) = 11.36 | 11.36 | 11.36 Mbytes
Step Temp Press TotEng PotEng Enthalpy 
  920000    251.34012   -186.87384   -28698.229   -29336.656   -28753.495 
  920495    225.30056   -58.127707   -28838.222   -29410.506   -28855.367 
Loop time of 45.4144 on 2 procs for 495 steps with 19652 atoms

Performance: 0.942 ns/day, 25.485 hours/ns, 10.900 timesteps/s
99.6% CPU use with 2 MPI tasks x no OpenMP threads

MPI task timing breakdown:
Section |  min time  |  avg time  |  max time  |%varavg| %total
---------------------------------------------------------------
Pair    | 25.399     | 25.638     | 25.876     |   4.7 | 56.45
Neigh   | 16.044     | 16.406     | 16.768     |   8.9 | 36.13
Comm    | 2.308      | 2.4623     | 2.6166     |   9.8 |  5.42
Output  | 8.6069e-05 | 0.00012505 | 0.00016403 |   0.0 |  0.00
Modify  | 0.66665    | 0.68602    | 0.70538    |   2.3 |  1.51
Other   |            | 0.2221     |            |       |  0.49

Nlocal:    9826 ave 9833 max 9819 min
Histogram: 1 0 0 0 0 0 0 0 0 1
Nghost:    11113.5 ave 11128 max 11099 min
Histogram: 1 0 0 0 0 0 0 0 0 1
Neighs:    534202 ave 535258 max 533147 min
Histogram: 1 0 0 0 0 0 0 0 0 1

Total # of neighbors = 1068405
Ave neighs/atom = 54.3662
Neighbor list builds = 495
Dangerous builds not checked
Setting up Verlet run ...
  Unit style    : metal
  Current step  : 920495
  Time step     : 0.001
Per MPI rank memory allocation (min/avg/max) = 11.36 | 11.36 | 11.36 Mbytes
Step Temp Press TotEng PotEng Enthalpy 
  920495    225.30056   -58.127707   -28838.222   -29410.506   -28855.367 
  940000    201.34735    2.4561532   -28971.004   -29482.444   -28970.281 
Loop time of 1861.61 on 2 procs for 19505 steps with 19652 atoms

Performance: 0.905 ns/day, 26.512 hours/ns, 10.478 timesteps/s
99.1% CPU use with 2 MPI tasks x no OpenMP threads

MPI task timing breakdown:
Section |  min time  |  avg time  |  max time  |%varavg| %total
---------------------------------------------------------------
Pair    | 1047.1     | 1055.2     | 1063.2     |  24.8 | 56.68
Neigh   | 656.08     | 656.25     | 656.43     |   0.7 | 35.25
Comm    | 103.12     | 111.75     | 120.38     |  81.6 |  6.00
Output  | 0.078129   | 0.078164   | 0.078199   |   0.0 |  0.00
Modify  | 28.787     | 29.094     | 29.401     |   5.7 |  1.56
Other   |            | 9.259      |            |       |  0.50

Nlocal:    9826 ave 9833 max 9819 min
Histogram: 1 0 0 0 0 0 0 0 0 1
Nghost:    11136.5 ave 11161 max 11112 min
Histogram: 1 0 0 0 0 0 0 0 0 1
Neighs:    536132 ave 536301 max 535963 min
Histogram: 1 0 0 0 0 0 0 0 0 1

Total # of neighbors = 1072264
Ave neighs/atom = 54.5626
Neighbor list builds = 19505
Dangerous builds not checked
Setting up Verlet run ...
  Unit style    : metal
  Current step  : 940000
  Time step     : 0.001
Per MPI rank memory allocation (min/avg/max) = 11.36 | 11.36 | 11.36 Mbytes
Step Temp Press TotEng PotEng Enthalpy 
  940000    201.34735    2.4561532   -28971.004   -29482.444   -28970.281 
  940495     176.6632   -24.930622   -29103.968   -29552.709   -29111.285 
Loop time of 45.6283 on 2 procs for 495 steps with 19652 atoms

Performance: 0.937 ns/day, 25.605 hours/ns, 10.849 timesteps/s
99.9% CPU use with 2 MPI tasks x no OpenMP threads

MPI task timing breakdown:
Section |  min time  |  avg time  |  max time  |%varavg| %total
---------------------------------------------------------------
Pair    | 25.757     | 26.233     | 26.709     |   9.3 | 57.49
Neigh   | 15.896     | 16.319     | 16.743     |  10.5 | 35.77
Comm    | 2.0581     | 2.1103     | 2.1625     |   3.6 |  4.62
Output  | 8.7976e-05 | 0.00013494 | 0.00018191 |   0.0 |  0.00
Modify  | 0.71179    | 0.71975    | 0.72772    |   0.9 |  1.58
Other   |            | 0.2454     |            |       |  0.54

Nlocal:    9826 ave 9835 max 9817 min
Histogram: 1 0 0 0 0 0 0 0 0 1
Nghost:    11164.5 ave 11188 max 11141 min
Histogram: 1 0 0 0 0 0 0 0 0 1
Neighs:    537638 ave 537855 max 537420 min
Histogram: 1 0 0 0 0 0 0 0 0 1

Total # of neighbors = 1075275
Ave neighs/atom = 54.7158
Neighbor list builds = 495
Dangerous builds not checked
Setting up Verlet run ...
  Unit style    : metal
  Current step  : 940495
  Time step     : 0.001
Per MPI rank memory allocation (min/avg/max) = 11.36 | 11.36 | 11.36 Mbytes
Step Temp Press TotEng PotEng Enthalpy 
  940495     176.6632   -24.930622   -29103.968   -29552.709   -29111.285 
  960000    150.84774   -281.77095   -29244.774   -29627.941   -29327.306 
Loop time of 1890.52 on 2 procs for 19505 steps with 19652 atoms

Performance: 0.891 ns/day, 26.924 hours/ns, 10.317 timesteps/s
97.1% CPU use with 2 MPI tasks x no OpenMP threads

MPI task timing breakdown:
Section |  min time  |  avg time  |  max time  |%varavg| %total
---------------------------------------------------------------
Pair    | 1051.8     | 1074.8     | 1097.7     |  70.0 | 56.85
Neigh   | 653.83     | 655.93     | 658.03     |   8.2 | 34.70
Comm    | 96.118     | 121.04     | 145.96     | 226.5 |  6.40
Output  | 0.067082   | 0.067109   | 0.067135   |   0.0 |  0.00
Modify  | 29.448     | 29.552     | 29.655     |   1.9 |  1.56
Other   |            | 9.16       |            |       |  0.48

Nlocal:    9826 ave 9843 max 9809 min
Histogram: 1 0 0 0 0 0 0 0 0 1
Nghost:    11151 ave 11182 max 11120 min
Histogram: 1 0 0 0 0 0 0 0 0 1
Neighs:    539046 ave 539902 max 538191 min
Histogram: 1 0 0 0 0 0 0 0 0 1

Total # of neighbors = 1078093
Ave neighs/atom = 54.8592
Neighbor list builds = 19505
Dangerous builds not checked
Setting up Verlet run ...
  Unit style    : metal
  Current step  : 960000
  Time step     : 0.001
Per MPI rank memory allocation (min/avg/max) = 11.36 | 11.36 | 11.36 Mbytes
Step Temp Press TotEng PotEng Enthalpy 
  960000    150.84774   -281.77095   -29244.774   -29627.941   -29327.306 
  960495    126.97441    149.22047   -29366.075   -29688.602    -29322.51 
Loop time of 52.3998 on 2 procs for 495 steps with 19652 atoms

Performance: 0.816 ns/day, 29.405 hours/ns, 9.447 timesteps/s
98.6% CPU use with 2 MPI tasks x no OpenMP threads

MPI task timing breakdown:
Section |  min time  |  avg time  |  max time  |%varavg| %total
---------------------------------------------------------------
Pair    | 27.226     | 29.776     | 32.325     |  46.7 | 56.82
Neigh   | 16.258     | 16.84      | 17.422     |  14.2 | 32.14
Comm    | 1.4337     | 4.6325     | 7.8313     | 148.6 |  8.84
Output  | 0.00011706 | 0.00017154 | 0.00022602 |   0.0 |  0.00
Modify  | 0.85529    | 0.90752    | 0.95975    |   5.5 |  1.73
Other   |            | 0.2439     |            |       |  0.47

Nlocal:    9826 ave 9837 max 9815 min
Histogram: 1 0 0 0 0 0 0 0 0 1
Nghost:    11170 ave 11203 max 11137 min
Histogram: 1 0 0 0 0 0 0 0 0 1
Neighs:    541126 ave 541755 max 540496 min
Histogram: 1 0 0 0 0 0 0 0 0 1

Total # of neighbors = 1082251
Ave neighs/atom = 55.0708
Neighbor list builds = 495
Dangerous builds not checked
Setting up Verlet run ...
  Unit style    : metal
  Current step  : 960495
  Time step     : 0.001
Per MPI rank memory allocation (min/avg/max) = 11.36 | 11.36 | 11.36 Mbytes
Step Temp Press TotEng PotEng Enthalpy 
  960495    126.97441    149.22047   -29366.075   -29688.602    -29322.51 
  980000    99.596748   -155.47351   -29515.286    -29768.27   -29560.604 
Loop time of 1799.42 on 2 procs for 19505 steps with 19652 atoms

Performance: 0.937 ns/day, 25.626 hours/ns, 10.840 timesteps/s
97.5% CPU use with 2 MPI tasks x no OpenMP threads

MPI task timing breakdown:
Section |  min time  |  avg time  |  max time  |%varavg| %total
---------------------------------------------------------------
Pair    | 997.01     | 1014.4     | 1031.9     |  54.7 | 56.38
Neigh   | 640.53     | 644.43     | 648.32     |  15.4 | 35.81
Comm    | 89.777     | 103.08     | 116.39     | 131.1 |  5.73
Output  | 0.060591   | 0.060627   | 0.060662   |   0.0 |  0.00
Modify  | 28.48      | 28.513     | 28.546     |   0.6 |  1.58
Other   |            | 8.903      |            |       |  0.49

Nlocal:    9826 ave 9833 max 9819 min
Histogram: 1 0 0 0 0 0 0 0 0 1
Nghost:    11207.5 ave 11241 max 11174 min
Histogram: 1 0 0 0 0 0 0 0 0 1
Neighs:    542276 ave 542421 max 542131 min
Histogram: 1 0 0 0 0 0 0 0 0 1

Total # of neighbors = 1084552
Ave neighs/atom = 55.1879
Neighbor list builds = 19505
Dangerous builds not checked
Total wall time: 22:55:10
