LAMMPS (12 Dec 2018)
Lattice spacing in x,y,z = 4 4 4
Created orthogonal box = (0 0 0) to (68 68 68)
  1 by 1 by 1 MPI processor grid
Created 19652 atoms
  Time spent = 0.00390196 secs
Setting atom values ...
  19480 settings made for type/fraction
Neighbor list info ...
  update every 1 steps, delay 0 steps, check no
  max neighbors/atom: 2000, page size: 100000
  master list distance cutoff = 8.5
  ghost atom cutoff = 8.5
  binsize = 4.25, bins = 16 16 16
  1 neighbor lists, perpetual/occasional/extra = 1 0 0
  (1) pair eam/alloy, perpetual
      attributes: half, newton on
      pair build: half/bin/atomonly/newton
      stencil: half/bin/3d/newton
      bin: standard
Setting up Verlet run ...
  Unit style    : metal
  Current step  : 0
  Time step     : 0.001
Per MPI rank memory allocation (min/avg/max) = 18.19 | 18.19 | 18.19 Mbytes
Step Temp Press TotEng PotEng Enthalpy Volume 
       0          300    15950.205   -65977.094   -66739.122   -62846.818       314432 
     667    153.66293    22613.284   -65976.912    -66367.23   -61538.986       314432 
    1000    153.40422    22650.181   -65976.911   -66366.571   -61531.744       314432 
Loop time of 120.326 on 1 procs for 1000 steps with 19652 atoms

Performance: 0.718 ns/day, 33.424 hours/ns, 8.311 timesteps/s
99.9% CPU use with 1 MPI tasks x no OpenMP threads

MPI task timing breakdown:
Section |  min time  |  avg time  |  max time  |%varavg| %total
---------------------------------------------------------------
Pair    | 67.75      | 67.75      | 67.75      |   0.0 | 56.31
Neigh   | 51.046     | 51.046     | 51.046     |   0.0 | 42.42
Comm    | 0.89453    | 0.89453    | 0.89453    |   0.0 |  0.74
Output  | 0.056652   | 0.056652   | 0.056652   |   0.0 |  0.05
Modify  | 0.29414    | 0.29414    | 0.29414    |   0.0 |  0.24
Other   |            | 0.2843     |            |       |  0.24

Nlocal:    19652 ave 19652 max 19652 min
Histogram: 1 0 0 0 0 0 0 0 0 0
Nghost:    20102 ave 20102 max 20102 min
Histogram: 1 0 0 0 0 0 0 0 0 0
Neighs:    1.57357e+06 ave 1.57357e+06 max 1.57357e+06 min
Histogram: 1 0 0 0 0 0 0 0 0 0

Total # of neighbors = 1573566
Ave neighs/atom = 80.0715
Neighbor list builds = 1000
Dangerous builds not checked
Setting up Verlet run ...
  Unit style    : metal
  Current step  : 1000
  Time step     : 0.001
Per MPI rank memory allocation (min/avg/max) = 18.2 | 18.2 | 18.2 Mbytes
Step Temp Press TotEng PotEng Enthalpy Volume 
    1000    153.40422    22650.181   -65976.911   -66366.571   -61531.744       314432 
    1334    184.23793   -731.81423   -65820.308    -66288.29   -65968.571    324595.02 
    2000    297.43092    -43.18413    -65220.85   -65976.351   -65229.675    327445.53 
Loop time of 123.232 on 1 procs for 1000 steps with 19652 atoms

Performance: 0.701 ns/day, 34.231 hours/ns, 8.115 timesteps/s
99.8% CPU use with 1 MPI tasks x no OpenMP threads

MPI task timing breakdown:
Section |  min time  |  avg time  |  max time  |%varavg| %total
---------------------------------------------------------------
Pair    | 68.286     | 68.286     | 68.286     |   0.0 | 55.41
Neigh   | 52.603     | 52.603     | 52.603     |   0.0 | 42.69
Comm    | 0.87764    | 0.87764    | 0.87764    |   0.0 |  0.71
Output  | 0.078231   | 0.078231   | 0.078231   |   0.0 |  0.06
Modify  | 1.0911     | 1.0911     | 1.0911     |   0.0 |  0.89
Other   |            | 0.2967     |            |       |  0.24

Nlocal:    19652 ave 19652 max 19652 min
Histogram: 1 0 0 0 0 0 0 0 0 0
Nghost:    20102 ave 20102 max 20102 min
Histogram: 1 0 0 0 0 0 0 0 0 0
Neighs:    1.45846e+06 ave 1.45846e+06 max 1.45846e+06 min
Histogram: 1 0 0 0 0 0 0 0 0 0

Total # of neighbors = 1458462
Ave neighs/atom = 74.2144
Neighbor list builds = 1000
Dangerous builds not checked
Setting up Verlet run ...
  Unit style    : metal
  Current step  : 2000
  Time step     : 0.001
Per MPI rank memory allocation (min/avg/max) = 18.2 | 18.2 | 18.2 Mbytes
Step Temp Press TotEng PotEng Enthalpy Volume 
    2000    297.43092    -43.18413    -65220.85   -65976.351   -65229.675    327445.53 
    2001    297.30782     -36.4478   -65220.849   -65976.038   -65228.298    327445.52 
    2668    384.26408   -70.240885   -64750.516   -65726.582   -64764.981    329945.66 
    3335    566.93013    274.69553   -63710.729   -65150.783   -63653.186     335620.1 
    4002    789.78697    250.05393   -62369.843   -64375.973   -62316.148     344040.5 
    4669    972.36598    546.49739   -60945.251   -63415.149   -60824.148    355038.88 
    5336      1133.28    720.52985   -59284.267   -62162.901   -59117.304    371259.98 
    6003    1346.3829    -115.3974   -57281.075   -60701.011   -57309.322    392170.27 
    6670    1548.1379   -342.87635   -55975.718    -59908.13   -56062.142    403835.51 
    7337    1732.5888     1141.283   -54938.203   -59339.136   -54644.975    411644.39 
    8004    1913.6288     -25.3143   -53890.358   -58751.149   -53897.022    421751.71 
    8671     2101.662     789.2978   -52895.434   -58233.847   -52683.987    429212.06 
    9338    2265.2862   -306.65984   -51888.214   -57642.248   -51972.476    440233.45 
   10000    2437.1941    275.02584   -50943.094   -57133.789   -50866.106    448498.18 
Loop time of 897.572 on 1 procs for 8000 steps with 19652 atoms

Performance: 0.770 ns/day, 31.166 hours/ns, 8.913 timesteps/s
99.8% CPU use with 1 MPI tasks x no OpenMP threads

MPI task timing breakdown:
Section |  min time  |  avg time  |  max time  |%varavg| %total
---------------------------------------------------------------
Pair    | 468.61     | 468.61     | 468.61     |   0.0 | 52.21
Neigh   | 410.87     | 410.87     | 410.87     |   0.0 | 45.78
Comm    | 6.6754     | 6.6754     | 6.6754     |   0.0 |  0.74
Output  | 0.77583    | 0.77583    | 0.77583    |   0.0 |  0.09
Modify  | 8.3938     | 8.3938     | 8.3938     |   0.0 |  0.94
Other   |            | 2.248      |            |       |  0.25

Nlocal:    19652 ave 19652 max 19652 min
Histogram: 1 0 0 0 0 0 0 0 0 0
Nghost:    16199 ave 16199 max 16199 min
Histogram: 1 0 0 0 0 0 0 0 0 0
Neighs:    1.09973e+06 ave 1.09973e+06 max 1.09973e+06 min
Histogram: 1 0 0 0 0 0 0 0 0 0

Total # of neighbors = 1099729
Ave neighs/atom = 55.9602
Neighbor list builds = 8000
Dangerous builds not checked
Setting up Verlet run ...
  Unit style    : metal
  Current step  : 10000
  Time step     : 0.001
Per MPI rank memory allocation (min/avg/max) = 18.2 | 18.2 | 18.2 Mbytes
Step Temp Press TotEng PotEng Enthalpy Volume 
   10000    2437.1941    275.02584   -50943.094   -57133.789   -50866.106    448498.18 
   10005    2441.0844     254.5211   -50943.046   -57143.622   -50871.797    448498.48 
   10672    2469.2186    899.43924   -50895.919   -57167.959   -50644.615    447649.17 
   11339    2452.5057   -682.20155   -50867.063   -57096.651   -51058.732    450141.59 
   12006    2454.4623    265.82391   -50963.767   -57198.325   -50889.499    447631.65 
   12673    2470.2743    1081.0489   -50852.772   -57127.494   -50550.319    448252.27 
   13340    2469.9649   -629.55175   -50834.121   -57108.057    -51010.94    449996.42 
   14007    2446.5338   -279.75085   -50941.219   -57155.638   -51019.569    448722.32 
   14674    2410.1358    2301.4296   -51089.933   -57211.898   -50450.413    445211.92 
   15341    2470.0868   -1289.5616   -50839.724    -57113.97   -51202.413    450611.19 
   16008     2451.364    136.73859   -50886.202    -57112.89   -50847.893    448872.63 
   16675     2440.232    186.15712   -50988.393   -57186.805   -50936.377    447677.67 
   17342    2461.5033   -1254.7722   -50739.633   -56992.076   -51093.978    452451.63 
   18009     2444.114    671.79306   -50955.529   -57163.801   -50767.798    447723.64 
   18676    2442.9698    420.77372   -50917.481   -57122.847   -50799.582    448924.62 
   19343    2439.8904   -173.02161   -50881.495   -57079.039   -50930.108    450151.21 
   20010    2443.2849   -140.30332   -50954.656   -57160.822   -50993.957    448788.18 
   20677    2447.0934    576.38178   -50999.676   -57215.517   -50838.849    447053.55 
   21344    2460.8267   -470.37552   -50813.399   -57064.123   -50945.618     450362.7 
   22011    2435.7165    475.96281   -50992.732   -57179.674   -50859.809    447442.83 
   22678    2451.6538   -77.286571   -50866.411   -57093.835     -50888.1    449623.49 
   23345    2453.8967   -496.25049   -50986.358    -57219.48   -51125.048    447769.02 
   24012     2442.782   -367.08841    -50930.06   -57134.949   -51033.034    449437.71 
   24679    2454.2623    167.25547   -50889.496   -57123.546   -50842.658    448672.15 
   25346     2446.988   -971.96293   -50906.045   -57121.618   -51179.192    450253.02 
   26013    2441.2682   -217.51338   -50953.717   -57154.761   -51014.616    448574.68 
   26680    2442.9352    1125.1389   -50996.829   -57202.107   -50683.145    446680.24 
   27347      2457.37    297.26384   -50887.876    -57129.82   -50804.604    448814.16 
   28014     2465.746    712.89921   -50903.417   -57166.636   -50704.227    447659.93 
   28681    2468.8444   -830.12799   -50873.439   -57144.529   -51106.627     450060.4 
   29348    2451.0511    596.67026   -50891.105   -57116.998   -50724.023    448647.88 
   30015      2447.97     458.1182   -50890.388   -57108.455   -50762.109     448631.4 
   30682    2428.1137   -789.92426    -50912.56    -57080.19    -51134.54    450234.98 
   31349    2467.2549    -113.2835   -50927.565   -57194.618   -50959.247    448075.52 
   32016    2482.2452    1539.3727   -50822.778   -57127.907    -50392.62    447707.67 
   32683    2455.9759   -404.83189    -50934.93   -57173.332   -51048.295       448657 
   33350    2446.1226   -156.21226   -50919.984   -57133.358   -50963.756    448945.96 
   34017    2481.0927   -5.7421721   -50847.919   -57150.121   -50849.528    448764.88 
   34684    2430.8433     319.4195   -50934.008   -57108.571   -50844.539    448767.07 
   35351    2447.6091   -447.83591   -50879.608   -57096.758   -51005.313     449723.1 
   36018    2469.3123    1937.2345   -50936.404   -57208.682   -50397.039    446078.52 
   36685    2471.1441   -448.25957   -50858.078   -57135.009   -50983.847    449527.43 
   37352    2455.0119   -934.68875   -50902.561   -57138.515     -51164.9       449682 
   38019    2450.1619    301.53533   -50901.585    -57125.22    -50817.14    448692.31 
   38686    2445.7385   -900.85095   -50924.752   -57137.151   -51177.513    449538.34 
   39353    2448.1326    753.92676     -50975.3    -57193.78   -50764.854    447221.18 
   40000     2455.177   -354.89868   -50842.367    -57078.74    -50942.16    450513.82 
Loop time of 3376.76 on 1 procs for 30000 steps with 19652 atoms

Performance: 0.768 ns/day, 31.266 hours/ns, 8.884 timesteps/s
99.7% CPU use with 1 MPI tasks x no OpenMP threads

MPI task timing breakdown:
Section |  min time  |  avg time  |  max time  |%varavg| %total
---------------------------------------------------------------
Pair    | 1753.4     | 1753.4     | 1753.4     |   0.0 | 51.93
Neigh   | 1549       | 1549       | 1549       |   0.0 | 45.87
Comm    | 27.323     | 27.323     | 27.323     |   0.0 |  0.81
Output  | 3.0601     | 3.0601     | 3.0601     |   0.0 |  0.09
Modify  | 34.47      | 34.47      | 34.47      |   0.0 |  1.02
Other   |            | 9.459      |            |       |  0.28

Nlocal:    19652 ave 19652 max 19652 min
Histogram: 1 0 0 0 0 0 0 0 0 0
Nghost:    16201 ave 16201 max 16201 min
Histogram: 1 0 0 0 0 0 0 0 0 0
Neighs:    1.09487e+06 ave 1.09487e+06 max 1.09487e+06 min
Histogram: 1 0 0 0 0 0 0 0 0 0

Total # of neighbors = 1094871
Ave neighs/atom = 55.713
Neighbor list builds = 30000
Dangerous builds not checked
Setting up Verlet run ...
  Unit style    : metal
  Current step  : 40000
  Time step     : 0.001
Per MPI rank memory allocation (min/avg/max) = 18.21 | 18.21 | 18.21 Mbytes
Step Temp Press TotEng PotEng Enthalpy Volume 
   40000     2455.177   -354.89868   -50842.367    -57078.74    -50942.16    450513.82 
   40020    2450.1105   -671.51803   -50842.945   -57066.449   -51031.764    450504.91 
   40495    2428.1819   -70.831018   -51129.008   -57296.811   -51148.737    446275.94 
Loop time of 52.485 on 1 procs for 495 steps with 19652 atoms

Performance: 0.815 ns/day, 29.453 hours/ns, 9.431 timesteps/s
100.0% CPU use with 1 MPI tasks x no OpenMP threads

MPI task timing breakdown:
Section |  min time  |  avg time  |  max time  |%varavg| %total
---------------------------------------------------------------
Pair    | 26.718     | 26.718     | 26.718     |   0.0 | 50.91
Neigh   | 24.599     | 24.599     | 24.599     |   0.0 | 46.87
Comm    | 0.40986    | 0.40986    | 0.40986    |   0.0 |  0.78
Output  | 0.057538   | 0.057538   | 0.057538   |   0.0 |  0.11
Modify  | 0.55773    | 0.55773    | 0.55773    |   0.0 |  1.06
Other   |            | 0.143      |            |       |  0.27

Nlocal:    19652 ave 19652 max 19652 min
Histogram: 1 0 0 0 0 0 0 0 0 0
Nghost:    16274 ave 16274 max 16274 min
Histogram: 1 0 0 0 0 0 0 0 0 0
Neighs:    1.10601e+06 ave 1.10601e+06 max 1.10601e+06 min
Histogram: 1 0 0 0 0 0 0 0 0 0

Total # of neighbors = 1106014
Ave neighs/atom = 56.28
Neighbor list builds = 495
Dangerous builds not checked
Setting up Verlet run ...
  Unit style    : metal
  Current step  : 40495
  Time step     : 0.001
Per MPI rank memory allocation (min/avg/max) = 18.21 | 18.21 | 18.21 Mbytes
Step Temp Press TotEng PotEng Enthalpy Volume 
   40495    2428.1819   -70.831018   -51129.008   -57296.811   -51148.737    446275.94 
   40667    2392.6739    -478.4686   -51211.351    -57288.96   -51344.703     446536.1 
Loop time of 16.5907 on 1 procs for 172 steps with 19652 atoms

Performance: 0.896 ns/day, 26.794 hours/ns, 10.367 timesteps/s
100.0% CPU use with 1 MPI tasks x no OpenMP threads

MPI task timing breakdown:
Section |  min time  |  avg time  |  max time  |%varavg| %total
---------------------------------------------------------------
Pair    | 8.2124     | 8.2124     | 8.2124     |   0.0 | 49.50
Neigh   | 8.0337     | 8.0337     | 8.0337     |   0.0 | 48.42
Comm    | 0.12684    | 0.12684    | 0.12684    |   0.0 |  0.76
Output  | 0.00011516 | 0.00011516 | 0.00011516 |   0.0 |  0.00
Modify  | 0.17236    | 0.17236    | 0.17236    |   0.0 |  1.04
Other   |            | 0.04536    |            |       |  0.27

Nlocal:    19652 ave 19652 max 19652 min
Histogram: 1 0 0 0 0 0 0 0 0 0
Nghost:    16269 ave 16269 max 16269 min
Histogram: 1 0 0 0 0 0 0 0 0 0
Neighs:    1.10506e+06 ave 1.10506e+06 max 1.10506e+06 min
Histogram: 1 0 0 0 0 0 0 0 0 0

Total # of neighbors = 1105060
Ave neighs/atom = 56.2314
Neighbor list builds = 172
Dangerous builds not checked
Setting up Verlet run ...
  Unit style    : metal
  Current step  : 40667
  Time step     : 0.001
Per MPI rank memory allocation (min/avg/max) = 18.21 | 18.21 | 18.21 Mbytes
Step Temp Press TotEng PotEng Enthalpy Volume 
   40667    2392.6739    -478.4686   -51211.351    -57288.96   -51344.703     446536.1 
   40687    2376.6482    -12.69067   -51210.026   -57246.929   -51213.563    446530.39 
   41162     2362.457   -189.39675   -51348.014    -57348.87    -51400.61     444932.1 
Loop time of 49.7072 on 1 procs for 495 steps with 19652 atoms

Performance: 0.860 ns/day, 27.894 hours/ns, 9.958 timesteps/s
99.9% CPU use with 1 MPI tasks x no OpenMP threads

MPI task timing breakdown:
Section |  min time  |  avg time  |  max time  |%varavg| %total
---------------------------------------------------------------
Pair    | 24.635     | 24.635     | 24.635     |   0.0 | 49.56
Neigh   | 23.962     | 23.962     | 23.962     |   0.0 | 48.21
Comm    | 0.3845     | 0.3845     | 0.3845     |   0.0 |  0.77
Output  | 0.070093   | 0.070093   | 0.070093   |   0.0 |  0.14
Modify  | 0.51966    | 0.51966    | 0.51966    |   0.0 |  1.05
Other   |            | 0.1361     |            |       |  0.27

Nlocal:    19652 ave 19652 max 19652 min
Histogram: 1 0 0 0 0 0 0 0 0 0
Nghost:    16315 ave 16315 max 16315 min
Histogram: 1 0 0 0 0 0 0 0 0 0
Neighs:    1.10904e+06 ave 1.10904e+06 max 1.10904e+06 min
Histogram: 1 0 0 0 0 0 0 0 0 0

Total # of neighbors = 1109045
Ave neighs/atom = 56.4342
Neighbor list builds = 495
Dangerous builds not checked
Setting up Verlet run ...
  Unit style    : metal
  Current step  : 41162
  Time step     : 0.001
Per MPI rank memory allocation (min/avg/max) = 18.21 | 18.21 | 18.21 Mbytes
Step Temp Press TotEng PotEng Enthalpy Volume 
   41162     2362.457   -189.39675   -51348.014    -57348.87    -51400.61     444932.1 
   41334    2341.6888   -577.36444   -51441.981   -57390.083   -51602.157    444485.96 
Loop time of 18.1146 on 1 procs for 172 steps with 19652 atoms

Performance: 0.820 ns/day, 29.255 hours/ns, 9.495 timesteps/s
99.9% CPU use with 1 MPI tasks x no OpenMP threads

MPI task timing breakdown:
Section |  min time  |  avg time  |  max time  |%varavg| %total
---------------------------------------------------------------
Pair    | 9.0791     | 9.0791     | 9.0791     |   0.0 | 50.12
Neigh   | 8.6565     | 8.6565     | 8.6565     |   0.0 | 47.79
Comm    | 0.14032    | 0.14032    | 0.14032    |   0.0 |  0.77
Output  | 0.00011992 | 0.00011992 | 0.00011992 |   0.0 |  0.00
Modify  | 0.1886     | 0.1886     | 0.1886     |   0.0 |  1.04
Other   |            | 0.05002    |            |       |  0.28

Nlocal:    19652 ave 19652 max 19652 min
Histogram: 1 0 0 0 0 0 0 0 0 0
Nghost:    16414 ave 16414 max 16414 min
Histogram: 1 0 0 0 0 0 0 0 0 0
Neighs:    1.11031e+06 ave 1.11031e+06 max 1.11031e+06 min
Histogram: 1 0 0 0 0 0 0 0 0 0

Total # of neighbors = 1110308
Ave neighs/atom = 56.4985
Neighbor list builds = 172
Dangerous builds not checked
Setting up Verlet run ...
  Unit style    : metal
  Current step  : 41334
  Time step     : 0.001
Per MPI rank memory allocation (min/avg/max) = 18.21 | 18.21 | 18.21 Mbytes
Step Temp Press TotEng PotEng Enthalpy Volume 
   41334    2341.6888   -577.36444   -51441.981   -57390.083   -51602.157    444485.96 
   41354    2356.3302    -908.2155   -51441.714   -57427.007    -51693.67    444473.12 
   41829    2317.4622    397.47906   -51688.713   -57575.278   -51579.314    440972.56 
Loop time of 54.8765 on 1 procs for 495 steps with 19652 atoms

Performance: 0.779 ns/day, 30.795 hours/ns, 9.020 timesteps/s
99.7% CPU use with 1 MPI tasks x no OpenMP threads

MPI task timing breakdown:
Section |  min time  |  avg time  |  max time  |%varavg| %total
---------------------------------------------------------------
Pair    | 27.438     | 27.438     | 27.438     |   0.0 | 50.00
Neigh   | 26.245     | 26.245     | 26.245     |   0.0 | 47.83
Comm    | 0.42017    | 0.42017    | 0.42017    |   0.0 |  0.77
Output  | 0.062054   | 0.062054   | 0.062054   |   0.0 |  0.11
Modify  | 0.56479    | 0.56479    | 0.56479    |   0.0 |  1.03
Other   |            | 0.1462     |            |       |  0.27

Nlocal:    19652 ave 19652 max 19652 min
Histogram: 1 0 0 0 0 0 0 0 0 0
Nghost:    16314 ave 16314 max 16314 min
Histogram: 1 0 0 0 0 0 0 0 0 0
Neighs:    1.11888e+06 ave 1.11888e+06 max 1.11888e+06 min
Histogram: 1 0 0 0 0 0 0 0 0 0

Total # of neighbors = 1118885
Ave neighs/atom = 56.9349
Neighbor list builds = 495
Dangerous builds not checked
Setting up Verlet run ...
  Unit style    : metal
  Current step  : 41829
  Time step     : 0.001
Per MPI rank memory allocation (min/avg/max) = 18.21 | 18.21 | 18.21 Mbytes
Step Temp Press TotEng PotEng Enthalpy Volume 
   41829    2317.4622    397.47906   -51688.713   -57575.278   -51579.314    440972.56 
   42001    2294.9687   -565.12277   -51774.979   -57604.408   -51930.613    441237.38 
Loop time of 18.631 on 1 procs for 172 steps with 19652 atoms

Performance: 0.798 ns/day, 30.089 hours/ns, 9.232 timesteps/s
100.0% CPU use with 1 MPI tasks x no OpenMP threads

MPI task timing breakdown:
Section |  min time  |  avg time  |  max time  |%varavg| %total
---------------------------------------------------------------
Pair    | 9.3076     | 9.3076     | 9.3076     |   0.0 | 49.96
Neigh   | 8.9332     | 8.9332     | 8.9332     |   0.0 | 47.95
Comm    | 0.14248    | 0.14248    | 0.14248    |   0.0 |  0.76
Output  | 0.00011396 | 0.00011396 | 0.00011396 |   0.0 |  0.00
Modify  | 0.19669    | 0.19669    | 0.19669    |   0.0 |  1.06
Other   |            | 0.05089    |            |       |  0.27

Nlocal:    19652 ave 19652 max 19652 min
Histogram: 1 0 0 0 0 0 0 0 0 0
Nghost:    16254 ave 16254 max 16254 min
Histogram: 1 0 0 0 0 0 0 0 0 0
Neighs:    1.1186e+06 ave 1.1186e+06 max 1.1186e+06 min
Histogram: 1 0 0 0 0 0 0 0 0 0

Total # of neighbors = 1118601
Ave neighs/atom = 56.9205
Neighbor list builds = 172
Dangerous builds not checked
Setting up Verlet run ...
  Unit style    : metal
  Current step  : 42001
  Time step     : 0.001
Per MPI rank memory allocation (min/avg/max) = 18.21 | 18.21 | 18.21 Mbytes
Step Temp Press TotEng PotEng Enthalpy Volume 
   42001    2294.9687   -565.12277   -51774.979   -57604.408   -51930.613    441237.38 
   42021    2278.2913    -223.2388   -51774.027   -57561.094   -51835.505    441228.65 
   42496    2246.8213    514.19229   -51978.636   -57685.767   -51837.848    438683.68 
Loop time of 52.4189 on 1 procs for 495 steps with 19652 atoms

Performance: 0.816 ns/day, 29.416 hours/ns, 9.443 timesteps/s
97.9% CPU use with 1 MPI tasks x no OpenMP threads

MPI task timing breakdown:
Section |  min time  |  avg time  |  max time  |%varavg| %total
---------------------------------------------------------------
Pair    | 26.067     | 26.067     | 26.067     |   0.0 | 49.73
Neigh   | 25.202     | 25.202     | 25.202     |   0.0 | 48.08
Comm    | 0.39512    | 0.39512    | 0.39512    |   0.0 |  0.75
Output  | 0.079478   | 0.079478   | 0.079478   |   0.0 |  0.15
Modify  | 0.53979    | 0.53979    | 0.53979    |   0.0 |  1.03
Other   |            | 0.1357     |            |       |  0.26

Nlocal:    19652 ave 19652 max 19652 min
Histogram: 1 0 0 0 0 0 0 0 0 0
Nghost:    16322 ave 16322 max 16322 min
Histogram: 1 0 0 0 0 0 0 0 0 0
Neighs:    1.12494e+06 ave 1.12494e+06 max 1.12494e+06 min
Histogram: 1 0 0 0 0 0 0 0 0 0

Total # of neighbors = 1124938
Ave neighs/atom = 57.2429
Neighbor list builds = 495
Dangerous builds not checked
Setting up Verlet run ...
  Unit style    : metal
  Current step  : 42496
  Time step     : 0.001
Per MPI rank memory allocation (min/avg/max) = 18.21 | 18.21 | 18.21 Mbytes
Step Temp Press TotEng PotEng Enthalpy Volume 
   42496    2246.8213    514.19229   -51978.636   -57685.767   -51837.848    438683.68 
   42668     2238.574    229.33257   -52008.627   -57694.809    -51945.79     438996.1 
Loop time of 16.5157 on 1 procs for 172 steps with 19652 atoms

Performance: 0.900 ns/day, 26.673 hours/ns, 10.414 timesteps/s
100.0% CPU use with 1 MPI tasks x no OpenMP threads

MPI task timing breakdown:
Section |  min time  |  avg time  |  max time  |%varavg| %total
---------------------------------------------------------------
Pair    | 8.2154     | 8.2154     | 8.2154     |   0.0 | 49.74
Neigh   | 7.9588     | 7.9588     | 7.9588     |   0.0 | 48.19
Comm    | 0.12479    | 0.12479    | 0.12479    |   0.0 |  0.76
Output  | 0.00015306 | 0.00015306 | 0.00015306 |   0.0 |  0.00
Modify  | 0.17196    | 0.17196    | 0.17196    |   0.0 |  1.04
Other   |            | 0.04464    |            |       |  0.27

Nlocal:    19652 ave 19652 max 19652 min
Histogram: 1 0 0 0 0 0 0 0 0 0
Nghost:    16333 ave 16333 max 16333 min
Histogram: 1 0 0 0 0 0 0 0 0 0
Neighs:    1.1238e+06 ave 1.1238e+06 max 1.1238e+06 min
Histogram: 1 0 0 0 0 0 0 0 0 0

Total # of neighbors = 1123796
Ave neighs/atom = 57.1848
Neighbor list builds = 172
Dangerous builds not checked
Setting up Verlet run ...
  Unit style    : metal
  Current step  : 42668
  Time step     : 0.001
Per MPI rank memory allocation (min/avg/max) = 18.21 | 18.21 | 18.21 Mbytes
Step Temp Press TotEng PotEng Enthalpy Volume 
   42668     2238.574    229.33257   -52008.627   -57694.809    -51945.79     438996.1 
   42688    2249.1176   -328.10364   -52007.635   -57720.598   -52097.535     438997.8 
   43163    2203.9677    893.53802   -52224.918   -57823.197   -51981.713    436082.84 
Loop time of 58.981 on 1 procs for 495 steps with 19652 atoms

Performance: 0.725 ns/day, 33.098 hours/ns, 8.393 timesteps/s
98.7% CPU use with 1 MPI tasks x no OpenMP threads

MPI task timing breakdown:
Section |  min time  |  avg time  |  max time  |%varavg| %total
---------------------------------------------------------------
Pair    | 30.083     | 30.083     | 30.083     |   0.0 | 51.00
Neigh   | 27.598     | 27.598     | 27.598     |   0.0 | 46.79
Comm    | 0.46556    | 0.46556    | 0.46556    |   0.0 |  0.79
Output  | 0.057214   | 0.057214   | 0.057214   |   0.0 |  0.10
Modify  | 0.60728    | 0.60728    | 0.60728    |   0.0 |  1.03
Other   |            | 0.1698     |            |       |  0.29

Nlocal:    19652 ave 19652 max 19652 min
Histogram: 1 0 0 0 0 0 0 0 0 0
Nghost:    16503 ave 16503 max 16503 min
Histogram: 1 0 0 0 0 0 0 0 0 0
Neighs:    1.13199e+06 ave 1.13199e+06 max 1.13199e+06 min
Histogram: 1 0 0 0 0 0 0 0 0 0

Total # of neighbors = 1131992
Ave neighs/atom = 57.6019
Neighbor list builds = 495
Dangerous builds not checked
Setting up Verlet run ...
  Unit style    : metal
  Current step  : 43163
  Time step     : 0.001
Per MPI rank memory allocation (min/avg/max) = 18.21 | 18.21 | 18.21 Mbytes
Step Temp Press TotEng PotEng Enthalpy Volume 
   43163    2203.9677    893.53802   -52224.918   -57823.197   -51981.713    436082.84 
   43335     2196.986   -270.53106   -52300.828   -57881.372   -52374.543    436566.37 
Loop time of 20.0704 on 1 procs for 172 steps with 19652 atoms

Performance: 0.740 ns/day, 32.414 hours/ns, 8.570 timesteps/s
103.6% CPU use with 1 MPI tasks x no OpenMP threads

MPI task timing breakdown:
Section |  min time  |  avg time  |  max time  |%varavg| %total
---------------------------------------------------------------
Pair    | 10.224     | 10.224     | 10.224     |   0.0 | 50.94
Neigh   | 9.4149     | 9.4149     | 9.4149     |   0.0 | 46.91
Comm    | 0.15975    | 0.15975    | 0.15975    |   0.0 |  0.80
Output  | 0.00013995 | 0.00013995 | 0.00013995 |   0.0 |  0.00
Modify  | 0.2118     | 0.2118     | 0.2118     |   0.0 |  1.06
Other   |            | 0.06035    |            |       |  0.30

Nlocal:    19652 ave 19652 max 19652 min
Histogram: 1 0 0 0 0 0 0 0 0 0
Nghost:    16473 ave 16473 max 16473 min
Histogram: 1 0 0 0 0 0 0 0 0 0
Neighs:    1.13091e+06 ave 1.13091e+06 max 1.13091e+06 min
Histogram: 1 0 0 0 0 0 0 0 0 0

Total # of neighbors = 1130907
Ave neighs/atom = 57.5467
Neighbor list builds = 172
Dangerous builds not checked
Setting up Verlet run ...
  Unit style    : metal
  Current step  : 43335
  Time step     : 0.001
Per MPI rank memory allocation (min/avg/max) = 18.21 | 18.21 | 18.21 Mbytes
Step Temp Press TotEng PotEng Enthalpy Volume 
   43335     2196.986   -270.53106   -52300.828   -57881.372   -52374.543    436566.37 
   43355    2186.8654   -114.07522   -52300.159   -57854.996   -52331.242    436562.53 
   43830     2158.209   -42.268513   -52477.941   -57959.988     -52489.4    434372.23 
Loop time of 59.8451 on 1 procs for 495 steps with 19652 atoms

Performance: 0.715 ns/day, 33.583 hours/ns, 8.271 timesteps/s
100.0% CPU use with 1 MPI tasks x no OpenMP threads

MPI task timing breakdown:
Section |  min time  |  avg time  |  max time  |%varavg| %total
---------------------------------------------------------------
Pair    | 30.763     | 30.763     | 30.763     |   0.0 | 51.40
Neigh   | 27.775     | 27.775     | 27.775     |   0.0 | 46.41
Comm    | 0.47747    | 0.47747    | 0.47747    |   0.0 |  0.80
Output  | 0.057358   | 0.057358   | 0.057358   |   0.0 |  0.10
Modify  | 0.59997    | 0.59997    | 0.59997    |   0.0 |  1.00
Other   |            | 0.173      |            |       |  0.29

Nlocal:    19652 ave 19652 max 19652 min
Histogram: 1 0 0 0 0 0 0 0 0 0
Nghost:    16456 ave 16456 max 16456 min
Histogram: 1 0 0 0 0 0 0 0 0 0
Neighs:    1.13677e+06 ave 1.13677e+06 max 1.13677e+06 min
Histogram: 1 0 0 0 0 0 0 0 0 0

Total # of neighbors = 1136771
Ave neighs/atom = 57.8451
Neighbor list builds = 495
Dangerous builds not checked
Setting up Verlet run ...
  Unit style    : metal
  Current step  : 43830
  Time step     : 0.001
Per MPI rank memory allocation (min/avg/max) = 18.21 | 18.21 | 18.21 Mbytes
Step Temp Press TotEng PotEng Enthalpy Volume 
   43830     2158.209   -42.268513   -52477.941   -57959.988     -52489.4    434372.23 
   44002    2142.3226   -349.94186   -52548.367   -57990.061   -52643.232    434331.75 
Loop time of 18.185 on 1 procs for 172 steps with 19652 atoms

Performance: 0.817 ns/day, 29.369 hours/ns, 9.458 timesteps/s
100.0% CPU use with 1 MPI tasks x no OpenMP threads

MPI task timing breakdown:
Section |  min time  |  avg time  |  max time  |%varavg| %total
---------------------------------------------------------------
Pair    | 9.2011     | 9.2011     | 9.2011     |   0.0 | 50.60
Neigh   | 8.5947     | 8.5947     | 8.5947     |   0.0 | 47.26
Comm    | 0.14557    | 0.14557    | 0.14557    |   0.0 |  0.80
Output  | 0.000139   | 0.000139   | 0.000139   |   0.0 |  0.00
Modify  | 0.1889     | 0.1889     | 0.1889     |   0.0 |  1.04
Other   |            | 0.05458    |            |       |  0.30

Nlocal:    19652 ave 19652 max 19652 min
Histogram: 1 0 0 0 0 0 0 0 0 0
Nghost:    16422 ave 16422 max 16422 min
Histogram: 1 0 0 0 0 0 0 0 0 0
Neighs:    1.13692e+06 ave 1.13692e+06 max 1.13692e+06 min
Histogram: 1 0 0 0 0 0 0 0 0 0

Total # of neighbors = 1136921
Ave neighs/atom = 57.8527
Neighbor list builds = 172
Dangerous builds not checked
Setting up Verlet run ...
  Unit style    : metal
  Current step  : 44002
  Time step     : 0.001
Per MPI rank memory allocation (min/avg/max) = 18.21 | 18.21 | 18.21 Mbytes
Step Temp Press TotEng PotEng Enthalpy Volume 
   44002    2142.3226   -349.94186   -52548.367   -57990.061   -52643.232    434331.75 
   44022    2151.2063    -588.0876    -52547.66    -58011.92   -52707.081    434324.01 
   44497    2116.9929    281.12483    -52769.54   -58146.895   -52693.898     431096.9 
Loop time of 59.1592 on 1 procs for 495 steps with 19652 atoms

Performance: 0.723 ns/day, 33.198 hours/ns, 8.367 timesteps/s
100.0% CPU use with 1 MPI tasks x no OpenMP threads

MPI task timing breakdown:
Section |  min time  |  avg time  |  max time  |%varavg| %total
---------------------------------------------------------------
Pair    | 30.517     | 30.517     | 30.517     |   0.0 | 51.58
Neigh   | 27.365     | 27.365     | 27.365     |   0.0 | 46.26
Comm    | 0.46833    | 0.46833    | 0.46833    |   0.0 |  0.79
Output  | 0.055437   | 0.055437   | 0.055437   |   0.0 |  0.09
Modify  | 0.58396    | 0.58396    | 0.58396    |   0.0 |  0.99
Other   |            | 0.1691     |            |       |  0.29

Nlocal:    19652 ave 19652 max 19652 min
Histogram: 1 0 0 0 0 0 0 0 0 0
Nghost:    16469 ave 16469 max 16469 min
Histogram: 1 0 0 0 0 0 0 0 0 0
Neighs:    1.1455e+06 ave 1.1455e+06 max 1.1455e+06 min
Histogram: 1 0 0 0 0 0 0 0 0 0

Total # of neighbors = 1145504
Ave neighs/atom = 58.2894
Neighbor list builds = 495
Dangerous builds not checked
Setting up Verlet run ...
  Unit style    : metal
  Current step  : 44497
  Time step     : 0.001
Per MPI rank memory allocation (min/avg/max) = 18.21 | 18.21 | 18.21 Mbytes
Step Temp Press TotEng PotEng Enthalpy Volume 
   44497    2116.9929    281.12483    -52769.54   -58146.895   -52693.898     431096.9 
   44669    2084.5473    180.19619   -52848.885   -58143.826   -52800.378    431288.91 
Loop time of 24.8615 on 1 procs for 172 steps with 19652 atoms

Performance: 0.598 ns/day, 40.151 hours/ns, 6.918 timesteps/s
94.5% CPU use with 1 MPI tasks x no OpenMP threads

MPI task timing breakdown:
Section |  min time  |  avg time  |  max time  |%varavg| %total
---------------------------------------------------------------
Pair    | 12.978     | 12.978     | 12.978     |   0.0 | 52.20
Neigh   | 11.341     | 11.341     | 11.341     |   0.0 | 45.62
Comm    | 0.19868    | 0.19868    | 0.19868    |   0.0 |  0.80
Output  | 0.00018883 | 0.00018883 | 0.00018883 |   0.0 |  0.00
Modify  | 0.263      | 0.263      | 0.263      |   0.0 |  1.06
Other   |            | 0.0804     |            |       |  0.32

Nlocal:    19652 ave 19652 max 19652 min
Histogram: 1 0 0 0 0 0 0 0 0 0
Nghost:    16410 ave 16410 max 16410 min
Histogram: 1 0 0 0 0 0 0 0 0 0
Neighs:    1.14472e+06 ave 1.14472e+06 max 1.14472e+06 min
Histogram: 1 0 0 0 0 0 0 0 0 0

Total # of neighbors = 1144718
Ave neighs/atom = 58.2494
Neighbor list builds = 172
Dangerous builds not checked
Setting up Verlet run ...
  Unit style    : metal
  Current step  : 44669
  Time step     : 0.001
Per MPI rank memory allocation (min/avg/max) = 18.21 | 18.21 | 18.21 Mbytes
Step Temp Press TotEng PotEng Enthalpy Volume 
   44669    2084.5473    180.19619   -52848.885   -58143.826   -52800.378    431288.91 
   44689    2096.8196   -461.11545   -52847.592   -58173.705   -52971.719    431288.39 
   45164    2047.0102    648.04886   -53046.234   -58245.826     -52872.6    429277.14 
Loop time of 55.6154 on 1 procs for 495 steps with 19652 atoms

Performance: 0.769 ns/day, 31.210 hours/ns, 8.900 timesteps/s
100.0% CPU use with 1 MPI tasks x no OpenMP threads

MPI task timing breakdown:
Section |  min time  |  avg time  |  max time  |%varavg| %total
---------------------------------------------------------------
Pair    | 28.426     | 28.426     | 28.426     |   0.0 | 51.11
Neigh   | 25.954     | 25.954     | 25.954     |   0.0 | 46.67
Comm    | 0.4427     | 0.4427     | 0.4427     |   0.0 |  0.80
Output  | 0.05907    | 0.05907    | 0.05907    |   0.0 |  0.11
Modify  | 0.56934    | 0.56934    | 0.56934    |   0.0 |  1.02
Other   |            | 0.1634     |            |       |  0.29

Nlocal:    19652 ave 19652 max 19652 min
Histogram: 1 0 0 0 0 0 0 0 0 0
Nghost:    16523 ave 16523 max 16523 min
Histogram: 1 0 0 0 0 0 0 0 0 0
Neighs:    1.15046e+06 ave 1.15046e+06 max 1.15046e+06 min
Histogram: 1 0 0 0 0 0 0 0 0 0

Total # of neighbors = 1150460
Ave neighs/atom = 58.5416
Neighbor list builds = 495
Dangerous builds not checked
Setting up Verlet run ...
  Unit style    : metal
  Current step  : 45164
  Time step     : 0.001
Per MPI rank memory allocation (min/avg/max) = 18.21 | 18.21 | 18.21 Mbytes
Step Temp Press TotEng PotEng Enthalpy Volume 
   45164    2047.0102    648.04886   -53046.234   -58245.826     -52872.6    429277.14 
   45336    2049.6748   -807.45068   -53110.618   -58316.978   -53327.086    429524.63 
Loop time of 21.0587 on 1 procs for 172 steps with 19652 atoms

Performance: 0.706 ns/day, 34.010 hours/ns, 8.168 timesteps/s
100.0% CPU use with 1 MPI tasks x no OpenMP threads

MPI task timing breakdown:
Section |  min time  |  avg time  |  max time  |%varavg| %total
---------------------------------------------------------------
Pair    | 10.852     | 10.852     | 10.852     |   0.0 | 51.53
Neigh   | 9.763      | 9.763      | 9.763      |   0.0 | 46.36
Comm    | 0.16918    | 0.16918    | 0.16918    |   0.0 |  0.80
Output  | 0.0001471  | 0.0001471  | 0.0001471  |   0.0 |  0.00
Modify  | 0.21216    | 0.21216    | 0.21216    |   0.0 |  1.01
Other   |            | 0.0623     |            |       |  0.30

Nlocal:    19652 ave 19652 max 19652 min
Histogram: 1 0 0 0 0 0 0 0 0 0
Nghost:    16468 ave 16468 max 16468 min
Histogram: 1 0 0 0 0 0 0 0 0 0
Neighs:    1.15009e+06 ave 1.15009e+06 max 1.15009e+06 min
Histogram: 1 0 0 0 0 0 0 0 0 0

Total # of neighbors = 1150090
Ave neighs/atom = 58.5228
Neighbor list builds = 172
Dangerous builds not checked
Setting up Verlet run ...
  Unit style    : metal
  Current step  : 45336
  Time step     : 0.001
Per MPI rank memory allocation (min/avg/max) = 18.21 | 18.21 | 18.21 Mbytes
Step Temp Press TotEng PotEng Enthalpy Volume 
   45336    2049.6748   -807.45068   -53110.618   -58316.978   -53327.086    429524.63 
   45356    2044.2073   -760.09723   -53110.589   -58303.061   -53314.354    429508.16 
   45831     2010.176   -453.99964   -53318.759   -58424.789   -53439.803    427170.24 
Loop time of 62.3315 on 1 procs for 495 steps with 19652 atoms

Performance: 0.686 ns/day, 34.978 hours/ns, 7.941 timesteps/s
98.8% CPU use with 1 MPI tasks x no OpenMP threads

MPI task timing breakdown:
Section |  min time  |  avg time  |  max time  |%varavg| %total
---------------------------------------------------------------
Pair    | 32.223     | 32.223     | 32.223     |   0.0 | 51.70
Neigh   | 28.766     | 28.766     | 28.766     |   0.0 | 46.15
Comm    | 0.49245    | 0.49245    | 0.49245    |   0.0 |  0.79
Output  | 0.061355   | 0.061355   | 0.061355   |   0.0 |  0.10
Modify  | 0.61334    | 0.61334    | 0.61334    |   0.0 |  0.98
Other   |            | 0.1754     |            |       |  0.28

Nlocal:    19652 ave 19652 max 19652 min
Histogram: 1 0 0 0 0 0 0 0 0 0
Nghost:    16505 ave 16505 max 16505 min
Histogram: 1 0 0 0 0 0 0 0 0 0
Neighs:    1.15613e+06 ave 1.15613e+06 max 1.15613e+06 min
Histogram: 1 0 0 0 0 0 0 0 0 0

Total # of neighbors = 1156134
Ave neighs/atom = 58.8303
Neighbor list builds = 495
Dangerous builds not checked
Setting up Verlet run ...
  Unit style    : metal
  Current step  : 45831
  Time step     : 0.001
Per MPI rank memory allocation (min/avg/max) = 18.21 | 18.21 | 18.21 Mbytes
Step Temp Press TotEng PotEng Enthalpy Volume 
   45831     2010.176   -453.99964   -53318.759   -58424.789   -53439.803    427170.24 
   46003    1991.8413   -292.14673   -53402.351   -58461.809   -53480.125    426525.13 
Loop time of 21.6292 on 1 procs for 172 steps with 19652 atoms

Performance: 0.687 ns/day, 34.931 hours/ns, 7.952 timesteps/s
100.0% CPU use with 1 MPI tasks x no OpenMP threads

MPI task timing breakdown:
Section |  min time  |  avg time  |  max time  |%varavg| %total
---------------------------------------------------------------
Pair    | 11.173     | 11.173     | 11.173     |   0.0 | 51.66
Neigh   | 9.9997     | 9.9997     | 9.9997     |   0.0 | 46.23
Comm    | 0.17376    | 0.17376    | 0.17376    |   0.0 |  0.80
Output  | 0.00013685 | 0.00013685 | 0.00013685 |   0.0 |  0.00
Modify  | 0.21878    | 0.21878    | 0.21878    |   0.0 |  1.01
Other   |            | 0.0635     |            |       |  0.29

Nlocal:    19652 ave 19652 max 19652 min
Histogram: 1 0 0 0 0 0 0 0 0 0
Nghost:    16456 ave 16456 max 16456 min
Histogram: 1 0 0 0 0 0 0 0 0 0
Neighs:    1.15772e+06 ave 1.15772e+06 max 1.15772e+06 min
Histogram: 1 0 0 0 0 0 0 0 0 0

Total # of neighbors = 1157719
Ave neighs/atom = 58.911
Neighbor list builds = 172
Dangerous builds not checked
Setting up Verlet run ...
  Unit style    : metal
  Current step  : 46003
  Time step     : 0.001
Per MPI rank memory allocation (min/avg/max) = 18.21 | 18.21 | 18.21 Mbytes
Step Temp Press TotEng PotEng Enthalpy Volume 
   46003    1991.8413   -292.14673   -53402.351   -58461.809   -53480.125    426525.13 
   46023    1995.8975   -330.37847    -53401.87   -58471.632   -53489.821    426517.37 
   46498     1953.131    500.53221   -53582.104   -58543.235   -53449.558    424273.25 
Loop time of 57.7472 on 1 procs for 495 steps with 19652 atoms

Performance: 0.741 ns/day, 32.406 hours/ns, 8.572 timesteps/s
99.9% CPU use with 1 MPI tasks x no OpenMP threads

MPI task timing breakdown:
Section |  min time  |  avg time  |  max time  |%varavg| %total
---------------------------------------------------------------
Pair    | 29.699     | 29.699     | 29.699     |   0.0 | 51.43
Neigh   | 26.789     | 26.789     | 26.789     |   0.0 | 46.39
Comm    | 0.45361    | 0.45361    | 0.45361    |   0.0 |  0.79
Output  | 0.056963   | 0.056963   | 0.056963   |   0.0 |  0.10
Modify  | 0.5816     | 0.5816     | 0.5816     |   0.0 |  1.01
Other   |            | 0.1667     |            |       |  0.29

Nlocal:    19652 ave 19652 max 19652 min
Histogram: 1 0 0 0 0 0 0 0 0 0
Nghost:    16620 ave 16620 max 16620 min
Histogram: 1 0 0 0 0 0 0 0 0 0
Neighs:    1.1644e+06 ave 1.1644e+06 max 1.1644e+06 min
Histogram: 1 0 0 0 0 0 0 0 0 0

Total # of neighbors = 1164397
Ave neighs/atom = 59.2508
Neighbor list builds = 495
Dangerous builds not checked
Setting up Verlet run ...
  Unit style    : metal
  Current step  : 46498
  Time step     : 0.001
Per MPI rank memory allocation (min/avg/max) = 18.21 | 18.21 | 18.21 Mbytes
Step Temp Press TotEng PotEng Enthalpy Volume 
   46498     1953.131    500.53221   -53582.104   -58543.235   -53449.558    424273.25 
   46670    1932.8647    47.026467   -53656.227   -58565.879   -53643.769    424431.33 
Loop time of 21.3916 on 1 procs for 172 steps with 19652 atoms

Performance: 0.695 ns/day, 34.547 hours/ns, 8.041 timesteps/s
100.0% CPU use with 1 MPI tasks x no OpenMP threads

MPI task timing breakdown:
Section |  min time  |  avg time  |  max time  |%varavg| %total
---------------------------------------------------------------
Pair    | 11.064     | 11.064     | 11.064     |   0.0 | 51.72
Neigh   | 9.8753     | 9.8753     | 9.8753     |   0.0 | 46.16
Comm    | 0.16637    | 0.16637    | 0.16637    |   0.0 |  0.78
Output  | 0.00016499 | 0.00016499 | 0.00016499 |   0.0 |  0.00
Modify  | 0.22286    | 0.22286    | 0.22286    |   0.0 |  1.04
Other   |            | 0.06316    |            |       |  0.30

Nlocal:    19652 ave 19652 max 19652 min
Histogram: 1 0 0 0 0 0 0 0 0 0
Nghost:    16624 ave 16624 max 16624 min
Histogram: 1 0 0 0 0 0 0 0 0 0
Neighs:    1.16379e+06 ave 1.16379e+06 max 1.16379e+06 min
Histogram: 1 0 0 0 0 0 0 0 0 0

Total # of neighbors = 1163789
Ave neighs/atom = 59.2199
Neighbor list builds = 172
Dangerous builds not checked
Setting up Verlet run ...
  Unit style    : metal
  Current step  : 46670
  Time step     : 0.001
Per MPI rank memory allocation (min/avg/max) = 18.21 | 18.21 | 18.21 Mbytes
Step Temp Press TotEng PotEng Enthalpy Volume 
   46670    1932.8647    47.026467   -53656.227   -58565.879   -53643.769    424431.33 
   46690    1941.0286   -230.85297    -53654.96   -58585.349   -53716.115    424430.92 
   47165    1902.4548    672.09055   -53899.753   -58732.161    -53723.03    421284.58 
Loop time of 63.0012 on 1 procs for 495 steps with 19652 atoms

Performance: 0.679 ns/day, 35.354 hours/ns, 7.857 timesteps/s
98.5% CPU use with 1 MPI tasks x no OpenMP threads

MPI task timing breakdown:
Section |  min time  |  avg time  |  max time  |%varavg| %total
---------------------------------------------------------------
Pair    | 32.699     | 32.699     | 32.699     |   0.0 | 51.90
Neigh   | 28.883     | 28.883     | 28.883     |   0.0 | 45.84
Comm    | 0.49773    | 0.49773    | 0.49773    |   0.0 |  0.79
Output  | 0.10028    | 0.10028    | 0.10028    |   0.0 |  0.16
Modify  | 0.64231    | 0.64231    | 0.64231    |   0.0 |  1.02
Other   |            | 0.1792     |            |       |  0.28

Nlocal:    19652 ave 19652 max 19652 min
Histogram: 1 0 0 0 0 0 0 0 0 0
Nghost:    16688 ave 16688 max 16688 min
Histogram: 1 0 0 0 0 0 0 0 0 0
Neighs:    1.17315e+06 ave 1.17315e+06 max 1.17315e+06 min
Histogram: 1 0 0 0 0 0 0 0 0 0

Total # of neighbors = 1173146
Ave neighs/atom = 59.696
Neighbor list builds = 495
Dangerous builds not checked
Setting up Verlet run ...
  Unit style    : metal
  Current step  : 47165
  Time step     : 0.001
Per MPI rank memory allocation (min/avg/max) = 18.21 | 18.21 | 18.21 Mbytes
Step Temp Press TotEng PotEng Enthalpy Volume 
   47165    1902.4548    672.09055   -53899.753   -58732.161    -53723.03    421284.58 
   47337    1888.5818   -50.952589    -53968.93     -58766.1    -53982.33    421362.89 
Loop time of 22.3942 on 1 procs for 172 steps with 19652 atoms

Performance: 0.664 ns/day, 36.166 hours/ns, 7.681 timesteps/s
100.0% CPU use with 1 MPI tasks x no OpenMP threads

MPI task timing breakdown:
Section |  min time  |  avg time  |  max time  |%varavg| %total
---------------------------------------------------------------
Pair    | 11.734     | 11.734     | 11.734     |   0.0 | 52.40
Neigh   | 10.192     | 10.192     | 10.192     |   0.0 | 45.51
Comm    | 0.1813     | 0.1813     | 0.1813     |   0.0 |  0.81
Output  | 0.00018811 | 0.00018811 | 0.00018811 |   0.0 |  0.00
Modify  | 0.2223     | 0.2223     | 0.2223     |   0.0 |  0.99
Other   |            | 0.06463    |            |       |  0.29

Nlocal:    19652 ave 19652 max 19652 min
Histogram: 1 0 0 0 0 0 0 0 0 0
Nghost:    16658 ave 16658 max 16658 min
Histogram: 1 0 0 0 0 0 0 0 0 0
Neighs:    1.17328e+06 ave 1.17328e+06 max 1.17328e+06 min
Histogram: 1 0 0 0 0 0 0 0 0 0

Total # of neighbors = 1173282
Ave neighs/atom = 59.7029
Neighbor list builds = 172
Dangerous builds not checked
Setting up Verlet run ...
  Unit style    : metal
  Current step  : 47337
  Time step     : 0.001
Per MPI rank memory allocation (min/avg/max) = 18.21 | 18.21 | 18.21 Mbytes
Step Temp Press TotEng PotEng Enthalpy Volume 
   47337    1888.5818   -50.952589    -53968.93     -58766.1    -53982.33    421362.89 
   47357    1899.0713   -299.42624   -53968.117   -58791.931   -54046.864     421361.1 
   47832    1867.1135   -276.87891    -54124.18   -58866.819   -54196.752    419938.12 
Loop time of 60.9973 on 1 procs for 495 steps with 19652 atoms

Performance: 0.701 ns/day, 34.230 hours/ns, 8.115 timesteps/s
99.9% CPU use with 1 MPI tasks x no OpenMP threads

MPI task timing breakdown:
Section |  min time  |  avg time  |  max time  |%varavg| %total
---------------------------------------------------------------
Pair    | 31.738     | 31.738     | 31.738     |   0.0 | 52.03
Neigh   | 27.925     | 27.925     | 27.925     |   0.0 | 45.78
Comm    | 0.47694    | 0.47694    | 0.47694    |   0.0 |  0.78
Output  | 0.083251   | 0.083251   | 0.083251   |   0.0 |  0.14
Modify  | 0.60241    | 0.60241    | 0.60241    |   0.0 |  0.99
Other   |            | 0.1726     |            |       |  0.28

Nlocal:    19652 ave 19652 max 19652 min
Histogram: 1 0 0 0 0 0 0 0 0 0
Nghost:    16638 ave 16638 max 16638 min
Histogram: 1 0 0 0 0 0 0 0 0 0
Neighs:    1.17678e+06 ave 1.17678e+06 max 1.17678e+06 min
Histogram: 1 0 0 0 0 0 0 0 0 0

Total # of neighbors = 1176783
Ave neighs/atom = 59.8811
Neighbor list builds = 495
Dangerous builds not checked
Setting up Verlet run ...
  Unit style    : metal
  Current step  : 47832
  Time step     : 0.001
Per MPI rank memory allocation (min/avg/max) = 18.21 | 18.21 | 18.21 Mbytes
Step Temp Press TotEng PotEng Enthalpy Volume 
   47832    1867.1135   -276.87891    -54124.18   -58866.819   -54196.752    419938.12 
   48004    1854.8452   -480.01693   -54205.502   -58916.978   -54331.131    419316.78 
Loop time of 21.5231 on 1 procs for 172 steps with 19652 atoms

Performance: 0.690 ns/day, 34.760 hours/ns, 7.991 timesteps/s
98.6% CPU use with 1 MPI tasks x no OpenMP threads

MPI task timing breakdown:
Section |  min time  |  avg time  |  max time  |%varavg| %total
---------------------------------------------------------------
Pair    | 11.268     | 11.268     | 11.268     |   0.0 | 52.35
Neigh   | 9.7945     | 9.7945     | 9.7945     |   0.0 | 45.51
Comm    | 0.17725    | 0.17725    | 0.17725    |   0.0 |  0.82
Output  | 0.00014281 | 0.00014281 | 0.00014281 |   0.0 |  0.00
Modify  | 0.22047    | 0.22047    | 0.22047    |   0.0 |  1.02
Other   |            | 0.06303    |            |       |  0.29

Nlocal:    19652 ave 19652 max 19652 min
Histogram: 1 0 0 0 0 0 0 0 0 0
Nghost:    16637 ave 16637 max 16637 min
Histogram: 1 0 0 0 0 0 0 0 0 0
Neighs:    1.17875e+06 ave 1.17875e+06 max 1.17875e+06 min
Histogram: 1 0 0 0 0 0 0 0 0 0

Total # of neighbors = 1178750
Ave neighs/atom = 59.9812
Neighbor list builds = 172
Dangerous builds not checked
Setting up Verlet run ...
  Unit style    : metal
  Current step  : 48004
  Time step     : 0.001
Per MPI rank memory allocation (min/avg/max) = 18.21 | 18.21 | 18.21 Mbytes
Step Temp Press TotEng PotEng Enthalpy Volume 
   48004    1854.8452   -480.01693   -54205.502   -58916.978   -54331.131    419316.78 
   48024    1858.5246   -530.82673   -54206.058    -58926.88   -54344.981    419307.13 
   48499    1807.2214   -33.491972   -54423.669   -59014.176   -54432.391    417239.35 
Loop time of 61.4124 on 1 procs for 495 steps with 19652 atoms

Performance: 0.696 ns/day, 34.463 hours/ns, 8.060 timesteps/s
99.9% CPU use with 1 MPI tasks x no OpenMP threads

MPI task timing breakdown:
Section |  min time  |  avg time  |  max time  |%varavg| %total
---------------------------------------------------------------
Pair    | 31.956     | 31.956     | 31.956     |   0.0 | 52.04
Neigh   | 28.104     | 28.104     | 28.104     |   0.0 | 45.76
Comm    | 0.47412    | 0.47412    | 0.47412    |   0.0 |  0.77
Output  | 0.084366   | 0.084366   | 0.084366   |   0.0 |  0.14
Modify  | 0.6195     | 0.6195     | 0.6195     |   0.0 |  1.01
Other   |            | 0.1739     |            |       |  0.28

Nlocal:    19652 ave 19652 max 19652 min
Histogram: 1 0 0 0 0 0 0 0 0 0
Nghost:    16680 ave 16680 max 16680 min
Histogram: 1 0 0 0 0 0 0 0 0 0
Neighs:    1.18486e+06 ave 1.18486e+06 max 1.18486e+06 min
Histogram: 1 0 0 0 0 0 0 0 0 0

Total # of neighbors = 1184856
Ave neighs/atom = 60.2919
Neighbor list builds = 495
Dangerous builds not checked
Setting up Verlet run ...
  Unit style    : metal
  Current step  : 48499
  Time step     : 0.001
Per MPI rank memory allocation (min/avg/max) = 18.21 | 18.21 | 18.21 Mbytes
Step Temp Press TotEng PotEng Enthalpy Volume 
   48499    1807.2214   -33.491972   -54423.669   -59014.176   -54432.391    417239.35 
   48671    1792.8924   -535.76032   -54495.575   -59049.685   -54635.031    417038.71 
Loop time of 17.8883 on 1 procs for 172 steps with 19652 atoms

Performance: 0.831 ns/day, 28.889 hours/ns, 9.615 timesteps/s
100.0% CPU use with 1 MPI tasks x no OpenMP threads

MPI task timing breakdown:
Section |  min time  |  avg time  |  max time  |%varavg| %total
---------------------------------------------------------------
Pair    | 9.1937     | 9.1937     | 9.1937     |   0.0 | 51.40
Neigh   | 8.3201     | 8.3201     | 8.3201     |   0.0 | 46.51
Comm    | 0.14044    | 0.14044    | 0.14044    |   0.0 |  0.79
Output  | 0.00013781 | 0.00013781 | 0.00013781 |   0.0 |  0.00
Modify  | 0.1815     | 0.1815     | 0.1815     |   0.0 |  1.01
Other   |            | 0.05239    |            |       |  0.29

Nlocal:    19652 ave 19652 max 19652 min
Histogram: 1 0 0 0 0 0 0 0 0 0
Nghost:    16587 ave 16587 max 16587 min
Histogram: 1 0 0 0 0 0 0 0 0 0
Neighs:    1.18546e+06 ave 1.18546e+06 max 1.18546e+06 min
Histogram: 1 0 0 0 0 0 0 0 0 0

Total # of neighbors = 1185463
Ave neighs/atom = 60.3228
Neighbor list builds = 172
Dangerous builds not checked
Setting up Verlet run ...
  Unit style    : metal
  Current step  : 48671
  Time step     : 0.001
Per MPI rank memory allocation (min/avg/max) = 18.21 | 18.21 | 18.21 Mbytes
Step Temp Press TotEng PotEng Enthalpy Volume 
   48671    1792.8924   -535.76032   -54495.575   -59049.685   -54635.031    417038.71 
   48691    1796.5099   -396.32533   -54495.111    -59058.41    -54598.27    417027.22 
   49166    1751.6998    682.19259   -54677.972   -59127.449   -54501.343    414824.65 
Loop time of 65.5611 on 1 procs for 495 steps with 19652 atoms

Performance: 0.652 ns/day, 36.791 hours/ns, 7.550 timesteps/s
97.9% CPU use with 1 MPI tasks x no OpenMP threads

MPI task timing breakdown:
Section |  min time  |  avg time  |  max time  |%varavg| %total
---------------------------------------------------------------
Pair    | 34.269     | 34.269     | 34.269     |   0.0 | 52.27
Neigh   | 29.635     | 29.635     | 29.635     |   0.0 | 45.20
Comm    | 0.51975    | 0.51975    | 0.51975    |   0.0 |  0.79
Output  | 0.2681     | 0.2681     | 0.2681     |   0.0 |  0.41
Modify  | 0.67267    | 0.67267    | 0.67267    |   0.0 |  1.03
Other   |            | 0.1969     |            |       |  0.30

Nlocal:    19652 ave 19652 max 19652 min
Histogram: 1 0 0 0 0 0 0 0 0 0
Nghost:    16729 ave 16729 max 16729 min
Histogram: 1 0 0 0 0 0 0 0 0 0
Neighs:    1.19227e+06 ave 1.19227e+06 max 1.19227e+06 min
Histogram: 1 0 0 0 0 0 0 0 0 0

Total # of neighbors = 1192271
Ave neighs/atom = 60.6692
Neighbor list builds = 495
Dangerous builds not checked
Setting up Verlet run ...
  Unit style    : metal
  Current step  : 49166
  Time step     : 0.001
Per MPI rank memory allocation (min/avg/max) = 18.21 | 18.21 | 18.21 Mbytes
Step Temp Press TotEng PotEng Enthalpy Volume 
   49166    1751.6998    682.19259   -54677.972   -59127.449   -54501.343    414824.65 
   49338    1753.7735    -731.1908   -54753.061   -59207.805   -54942.414       414908 
Loop time of 20.0647 on 1 procs for 172 steps with 19652 atoms

Performance: 0.741 ns/day, 32.404 hours/ns, 8.572 timesteps/s
99.7% CPU use with 1 MPI tasks x no OpenMP threads

MPI task timing breakdown:
Section |  min time  |  avg time  |  max time  |%varavg| %total
---------------------------------------------------------------
Pair    | 10.368     | 10.368     | 10.368     |   0.0 | 51.67
Neigh   | 9.2044     | 9.2044     | 9.2044     |   0.0 | 45.87
Comm    | 0.15541    | 0.15541    | 0.15541    |   0.0 |  0.77
Output  | 0.00016785 | 0.00016785 | 0.00016785 |   0.0 |  0.00
Modify  | 0.24794    | 0.24794    | 0.24794    |   0.0 |  1.24
Other   |            | 0.08922    |            |       |  0.44

Nlocal:    19652 ave 19652 max 19652 min
Histogram: 1 0 0 0 0 0 0 0 0 0
Nghost:    16764 ave 16764 max 16764 min
Histogram: 1 0 0 0 0 0 0 0 0 0
Neighs:    1.19159e+06 ave 1.19159e+06 max 1.19159e+06 min
Histogram: 1 0 0 0 0 0 0 0 0 0

Total # of neighbors = 1191594
Ave neighs/atom = 60.6347
Neighbor list builds = 172
Dangerous builds not checked
Setting up Verlet run ...
  Unit style    : metal
  Current step  : 49338
  Time step     : 0.001
Per MPI rank memory allocation (min/avg/max) = 18.21 | 18.21 | 18.21 Mbytes
Step Temp Press TotEng PotEng Enthalpy Volume 
   49338    1753.7735    -731.1908   -54753.061   -59207.805   -54942.414       414908 
   49358    1751.4592   -658.30633   -54753.556   -59202.422   -54924.028    414892.23 
   49833    1711.2473     50.68514   -55007.296    -59354.02   -54994.259    412097.74 
Loop time of 56.5121 on 1 procs for 495 steps with 19652 atoms

Performance: 0.757 ns/day, 31.713 hours/ns, 8.759 timesteps/s
99.4% CPU use with 1 MPI tasks x no OpenMP threads

MPI task timing breakdown:
Section |  min time  |  avg time  |  max time  |%varavg| %total
---------------------------------------------------------------
Pair    | 29.259     | 29.259     | 29.259     |   0.0 | 51.77
Neigh   | 25.839     | 25.839     | 25.839     |   0.0 | 45.72
Comm    | 0.43555    | 0.43555    | 0.43555    |   0.0 |  0.77
Output  | 0.26165    | 0.26165    | 0.26165    |   0.0 |  0.46
Modify  | 0.55736    | 0.55736    | 0.55736    |   0.0 |  0.99
Other   |            | 0.1597     |            |       |  0.28

Nlocal:    19652 ave 19652 max 19652 min
Histogram: 1 0 0 0 0 0 0 0 0 0
Nghost:    16834 ave 16834 max 16834 min
Histogram: 1 0 0 0 0 0 0 0 0 0
Neighs:    1.19975e+06 ave 1.19975e+06 max 1.19975e+06 min
Histogram: 1 0 0 0 0 0 0 0 0 0

Total # of neighbors = 1199752
Ave neighs/atom = 61.0499
Neighbor list builds = 495
Dangerous builds not checked
Setting up Verlet run ...
  Unit style    : metal
  Current step  : 49833
  Time step     : 0.001
Per MPI rank memory allocation (min/avg/max) = 18.21 | 18.21 | 18.21 Mbytes
Step Temp Press TotEng PotEng Enthalpy Volume 
   49833    1711.2473     50.68514   -55007.296    -59354.02   -54994.259    412097.74 
   50005    1690.0833    -22.98876   -55068.031   -59360.996   -55073.942    411965.39 
Loop time of 21.8342 on 1 procs for 172 steps with 19652 atoms

Performance: 0.681 ns/day, 35.262 hours/ns, 7.878 timesteps/s
100.0% CPU use with 1 MPI tasks x no OpenMP threads

MPI task timing breakdown:
Section |  min time  |  avg time  |  max time  |%varavg| %total
---------------------------------------------------------------
Pair    | 11.511     | 11.511     | 11.511     |   0.0 | 52.72
Neigh   | 9.8547     | 9.8547     | 9.8547     |   0.0 | 45.13
Comm    | 0.17635    | 0.17635    | 0.17635    |   0.0 |  0.81
Output  | 0.00018406 | 0.00018406 | 0.00018406 |   0.0 |  0.00
Modify  | 0.22742    | 0.22742    | 0.22742    |   0.0 |  1.04
Other   |            | 0.06472    |            |       |  0.30

Nlocal:    19652 ave 19652 max 19652 min
Histogram: 1 0 0 0 0 0 0 0 0 0
Nghost:    16855 ave 16855 max 16855 min
Histogram: 1 0 0 0 0 0 0 0 0 0
Neighs:    1.20046e+06 ave 1.20046e+06 max 1.20046e+06 min
Histogram: 1 0 0 0 0 0 0 0 0 0

Total # of neighbors = 1200459
Ave neighs/atom = 61.0858
Neighbor list builds = 172
Dangerous builds not checked
Setting up Verlet run ...
  Unit style    : metal
  Current step  : 50005
  Time step     : 0.001
Per MPI rank memory allocation (min/avg/max) = 18.21 | 18.21 | 18.21 Mbytes
Step Temp Press TotEng PotEng Enthalpy Volume 
   50005    1690.0833    -22.98876   -55068.031   -59360.996   -55073.942    411965.39 
   50025    1706.0513   -657.01323   -55067.431   -59400.957   -55236.366    411961.03 
   50500    1659.2554    560.93308   -55284.369   -59499.029   -55141.052     409351.9 
Loop time of 63.1852 on 1 procs for 495 steps with 19652 atoms

Performance: 0.677 ns/day, 35.457 hours/ns, 7.834 timesteps/s
99.4% CPU use with 1 MPI tasks x no OpenMP threads

MPI task timing breakdown:
Section |  min time  |  avg time  |  max time  |%varavg| %total
---------------------------------------------------------------
Pair    | 32.918     | 32.918     | 32.918     |   0.0 | 52.10
Neigh   | 28.601     | 28.601     | 28.601     |   0.0 | 45.27
Comm    | 0.48199    | 0.48199    | 0.48199    |   0.0 |  0.76
Output  | 0.38138    | 0.38138    | 0.38138    |   0.0 |  0.60
Modify  | 0.62638    | 0.62638    | 0.62638    |   0.0 |  0.99
Other   |            | 0.1761     |            |       |  0.28

Nlocal:    19652 ave 19652 max 19652 min
Histogram: 1 0 0 0 0 0 0 0 0 0
Nghost:    16794 ave 16794 max 16794 min
Histogram: 1 0 0 0 0 0 0 0 0 0
Neighs:    1.20865e+06 ave 1.20865e+06 max 1.20865e+06 min
Histogram: 1 0 0 0 0 0 0 0 0 0

Total # of neighbors = 1208652
Ave neighs/atom = 61.5027
Neighbor list builds = 495
Dangerous builds not checked
Setting up Verlet run ...
  Unit style    : metal
  Current step  : 50500
  Time step     : 0.001
Per MPI rank memory allocation (min/avg/max) = 18.21 | 18.21 | 18.21 Mbytes
Step Temp Press TotEng PotEng Enthalpy Volume 
   50500    1659.2554    560.93308   -55284.369   -59499.029   -55141.052     409351.9 
   50672    1637.2951   -278.58758   -55357.377   -59516.255   -55428.612    409679.88 
Loop time of 18.2406 on 1 procs for 172 steps with 19652 atoms

Performance: 0.815 ns/day, 29.458 hours/ns, 9.429 timesteps/s
100.0% CPU use with 1 MPI tasks x no OpenMP threads

MPI task timing breakdown:
Section |  min time  |  avg time  |  max time  |%varavg| %total
---------------------------------------------------------------
Pair    | 9.4228     | 9.4228     | 9.4228     |   0.0 | 51.66
Neigh   | 8.4406     | 8.4406     | 8.4406     |   0.0 | 46.27
Comm    | 0.13936    | 0.13936    | 0.13936    |   0.0 |  0.76
Output  | 0.00013399 | 0.00013399 | 0.00013399 |   0.0 |  0.00
Modify  | 0.18468    | 0.18468    | 0.18468    |   0.0 |  1.01
Other   |            | 0.0531     |            |       |  0.29

Nlocal:    19652 ave 19652 max 19652 min
Histogram: 1 0 0 0 0 0 0 0 0 0
Nghost:    16787 ave 16787 max 16787 min
Histogram: 1 0 0 0 0 0 0 0 0 0
Neighs:    1.20812e+06 ave 1.20812e+06 max 1.20812e+06 min
Histogram: 1 0 0 0 0 0 0 0 0 0

Total # of neighbors = 1208121
Ave neighs/atom = 61.4757
Neighbor list builds = 172
Dangerous builds not checked
Setting up Verlet run ...
  Unit style    : metal
  Current step  : 50672
  Time step     : 0.001
Per MPI rank memory allocation (min/avg/max) = 18.21 | 18.21 | 18.21 Mbytes
Step Temp Press TotEng PotEng Enthalpy Volume 
   50672    1637.2951   -278.58758   -55357.377   -59516.255   -55428.612    409679.88 
   50692    1647.7061   -598.05467   -55356.383   -59541.707   -55509.304    409672.92 
   51167    1610.8519    50.685431   -55576.588   -59668.299   -55563.707    407158.28 
Loop time of 64.3967 on 1 procs for 495 steps with 19652 atoms

Performance: 0.664 ns/day, 36.137 hours/ns, 7.687 timesteps/s
99.5% CPU use with 1 MPI tasks x no OpenMP threads

MPI task timing breakdown:
Section |  min time  |  avg time  |  max time  |%varavg| %total
---------------------------------------------------------------
Pair    | 33.733     | 33.733     | 33.733     |   0.0 | 52.38
Neigh   | 29.246     | 29.246     | 29.246     |   0.0 | 45.42
Comm    | 0.4982     | 0.4982     | 0.4982     |   0.0 |  0.77
Output  | 0.081541   | 0.081541   | 0.081541   |   0.0 |  0.13
Modify  | 0.65069    | 0.65069    | 0.65069    |   0.0 |  1.01
Other   |            | 0.1879     |            |       |  0.29

Nlocal:    19652 ave 19652 max 19652 min
Histogram: 1 0 0 0 0 0 0 0 0 0
Nghost:    16818 ave 16818 max 16818 min
Histogram: 1 0 0 0 0 0 0 0 0 0
Neighs:    1.21506e+06 ave 1.21506e+06 max 1.21506e+06 min
Histogram: 1 0 0 0 0 0 0 0 0 0

Total # of neighbors = 1215056
Ave neighs/atom = 61.8286
Neighbor list builds = 495
Dangerous builds not checked
Setting up Verlet run ...
  Unit style    : metal
  Current step  : 51167
  Time step     : 0.001
Per MPI rank memory allocation (min/avg/max) = 18.21 | 18.21 | 18.21 Mbytes
Step Temp Press TotEng PotEng Enthalpy Volume 
   51167    1610.8519    50.685431   -55576.588   -59668.299   -55563.707    407158.28 
   51339    1594.4885   -105.39916    -55647.54   -59697.686   -55674.309    406916.12 
Loop time of 22.0256 on 1 procs for 172 steps with 19652 atoms

Performance: 0.675 ns/day, 35.571 hours/ns, 7.809 timesteps/s
100.0% CPU use with 1 MPI tasks x no OpenMP threads

MPI task timing breakdown:
Section |  min time  |  avg time  |  max time  |%varavg| %total
---------------------------------------------------------------
Pair    | 11.643     | 11.643     | 11.643     |   0.0 | 52.86
Neigh   | 9.9178     | 9.9178     | 9.9178     |   0.0 | 45.03
Comm    | 0.17581    | 0.17581    | 0.17581    |   0.0 |  0.80
Output  | 0.00013494 | 0.00013494 | 0.00013494 |   0.0 |  0.00
Modify  | 0.22531    | 0.22531    | 0.22531    |   0.0 |  1.02
Other   |            | 0.064      |            |       |  0.29

Nlocal:    19652 ave 19652 max 19652 min
Histogram: 1 0 0 0 0 0 0 0 0 0
Nghost:    16843 ave 16843 max 16843 min
Histogram: 1 0 0 0 0 0 0 0 0 0
Neighs:    1.21602e+06 ave 1.21602e+06 max 1.21602e+06 min
Histogram: 1 0 0 0 0 0 0 0 0 0

Total # of neighbors = 1216019
Ave neighs/atom = 61.8776
Neighbor list builds = 172
Dangerous builds not checked
Setting up Verlet run ...
  Unit style    : metal
  Current step  : 51339
  Time step     : 0.001
Per MPI rank memory allocation (min/avg/max) = 18.21 | 18.21 | 18.21 Mbytes
Step Temp Press TotEng PotEng Enthalpy Volume 
   51339    1594.4885   -105.39916    -55647.54   -59697.686   -55674.309    406916.12 
   51359    1586.3456    145.58811   -55646.381   -59675.843   -55609.404    406917.37 
   51834    1544.8265    1260.1876   -55844.596   -59768.596   -55526.326    404641.87 
Loop time of 63.6594 on 1 procs for 495 steps with 19652 atoms

Performance: 0.672 ns/day, 35.724 hours/ns, 7.776 timesteps/s
99.8% CPU use with 1 MPI tasks x no OpenMP threads

MPI task timing breakdown:
Section |  min time  |  avg time  |  max time  |%varavg| %total
---------------------------------------------------------------
Pair    | 33.612     | 33.612     | 33.612     |   0.0 | 52.80
Neigh   | 28.671     | 28.671     | 28.671     |   0.0 | 45.04
Comm    | 0.48994    | 0.48994    | 0.48994    |   0.0 |  0.77
Output  | 0.080574   | 0.080574   | 0.080574   |   0.0 |  0.13
Modify  | 0.62719    | 0.62719    | 0.62719    |   0.0 |  0.99
Other   |            | 0.1784     |            |       |  0.28

Nlocal:    19652 ave 19652 max 19652 min
Histogram: 1 0 0 0 0 0 0 0 0 0
Nghost:    16906 ave 16906 max 16906 min
Histogram: 1 0 0 0 0 0 0 0 0 0
Neighs:    1.22294e+06 ave 1.22294e+06 max 1.22294e+06 min
Histogram: 1 0 0 0 0 0 0 0 0 0

Total # of neighbors = 1222941
Ave neighs/atom = 62.2298
Neighbor list builds = 495
Dangerous builds not checked
Setting up Verlet run ...
  Unit style    : metal
  Current step  : 51834
  Time step     : 0.001
Per MPI rank memory allocation (min/avg/max) = 18.21 | 18.21 | 18.21 Mbytes
Step Temp Press TotEng PotEng Enthalpy Volume 
   51834    1544.8265    1260.1876   -55844.596   -59768.596   -55526.326    404641.87 
   52006    1548.1969   -813.04403   -55913.091   -59845.652   -56118.532    404840.03 
Loop time of 23.1187 on 1 procs for 172 steps with 19652 atoms

Performance: 0.643 ns/day, 37.336 hours/ns, 7.440 timesteps/s
100.0% CPU use with 1 MPI tasks x no OpenMP threads

MPI task timing breakdown:
Section |  min time  |  avg time  |  max time  |%varavg| %total
---------------------------------------------------------------
Pair    | 12.147     | 12.147     | 12.147     |   0.0 | 52.54
Neigh   | 10.482     | 10.482     | 10.482     |   0.0 | 45.34
Comm    | 0.178      | 0.178      | 0.178      |   0.0 |  0.77
Output  | 0.00014305 | 0.00014305 | 0.00014305 |   0.0 |  0.00
Modify  | 0.24462    | 0.24462    | 0.24462    |   0.0 |  1.06
Other   |            | 0.06689    |            |       |  0.29

Nlocal:    19652 ave 19652 max 19652 min
Histogram: 1 0 0 0 0 0 0 0 0 0
Nghost:    16856 ave 16856 max 16856 min
Histogram: 1 0 0 0 0 0 0 0 0 0
Neighs:    1.22259e+06 ave 1.22259e+06 max 1.22259e+06 min
Histogram: 1 0 0 0 0 0 0 0 0 0

Total # of neighbors = 1222592
Ave neighs/atom = 62.2121
Neighbor list builds = 172
Dangerous builds not checked
Setting up Verlet run ...
  Unit style    : metal
  Current step  : 52006
  Time step     : 0.001
Per MPI rank memory allocation (min/avg/max) = 18.21 | 18.21 | 18.21 Mbytes
Step Temp Press TotEng PotEng Enthalpy Volume 
   52006    1548.1969   -813.04403   -55913.091   -59845.652   -56118.532    404840.03 
   52026    1555.6097    -937.1312   -55913.088   -59864.479   -56149.872    404819.61 
   52501    1506.8749    395.13522   -56142.648   -59970.248   -56043.411    402380.44 
Loop time of 59.8377 on 1 procs for 495 steps with 19652 atoms

Performance: 0.715 ns/day, 33.579 hours/ns, 8.272 timesteps/s
100.0% CPU use with 1 MPI tasks x no OpenMP threads

MPI task timing breakdown:
Section |  min time  |  avg time  |  max time  |%varavg| %total
---------------------------------------------------------------
Pair    | 31.343     | 31.343     | 31.343     |   0.0 | 52.38
Neigh   | 27.219     | 27.219     | 27.219     |   0.0 | 45.49
Comm    | 0.45955    | 0.45955    | 0.45955    |   0.0 |  0.77
Output  | 0.056727   | 0.056727   | 0.056727   |   0.0 |  0.09
Modify  | 0.5902     | 0.5902     | 0.5902     |   0.0 |  0.99
Other   |            | 0.1688     |            |       |  0.28

Nlocal:    19652 ave 19652 max 19652 min
Histogram: 1 0 0 0 0 0 0 0 0 0
Nghost:    16911 ave 16911 max 16911 min
Histogram: 1 0 0 0 0 0 0 0 0 0
Neighs:    1.22986e+06 ave 1.22986e+06 max 1.22986e+06 min
Histogram: 1 0 0 0 0 0 0 0 0 0

Total # of neighbors = 1229860
Ave neighs/atom = 62.5819
Neighbor list builds = 495
Dangerous builds not checked
Setting up Verlet run ...
  Unit style    : metal
  Current step  : 52501
  Time step     : 0.001
Per MPI rank memory allocation (min/avg/max) = 18.21 | 18.21 | 18.21 Mbytes
Step Temp Press TotEng PotEng Enthalpy Volume 
   52501    1506.8749    395.13522   -56142.648   -59970.248   -56043.411    402380.44 
   52673    1493.2059   -35.796838   -56202.493   -59995.372   -56211.482    402314.01 
Loop time of 17.6403 on 1 procs for 172 steps with 19652 atoms

Performance: 0.842 ns/day, 28.489 hours/ns, 9.750 timesteps/s
100.0% CPU use with 1 MPI tasks x no OpenMP threads

MPI task timing breakdown:
Section |  min time  |  avg time  |  max time  |%varavg| %total
---------------------------------------------------------------
Pair    | 9.1063     | 9.1063     | 9.1063     |   0.0 | 51.62
Neigh   | 8.1711     | 8.1711     | 8.1711     |   0.0 | 46.32
Comm    | 0.13377    | 0.13377    | 0.13377    |   0.0 |  0.76
Output  | 0.00013399 | 0.00013399 | 0.00013399 |   0.0 |  0.00
Modify  | 0.17744    | 0.17744    | 0.17744    |   0.0 |  1.01
Other   |            | 0.05163    |            |       |  0.29

Nlocal:    19652 ave 19652 max 19652 min
Histogram: 1 0 0 0 0 0 0 0 0 0
Nghost:    16884 ave 16884 max 16884 min
Histogram: 1 0 0 0 0 0 0 0 0 0
Neighs:    1.23044e+06 ave 1.23044e+06 max 1.23044e+06 min
Histogram: 1 0 0 0 0 0 0 0 0 0

Total # of neighbors = 1230443
Ave neighs/atom = 62.6116
Neighbor list builds = 172
Dangerous builds not checked
Setting up Verlet run ...
  Unit style    : metal
  Current step  : 52673
  Time step     : 0.001
Per MPI rank memory allocation (min/avg/max) = 18.21 | 18.21 | 18.21 Mbytes
Step Temp Press TotEng PotEng Enthalpy Volume 
   52673    1493.2059   -35.796838   -56202.493   -59995.372   -56211.482    402314.01 
   52693    1494.8211   -182.94249    -56201.59   -59998.572   -56247.528    402314.27 
   53168    1459.9827    314.02813   -56425.004   -60133.493   -56346.576    400137.92 
Loop time of 58.8137 on 1 procs for 495 steps with 19652 atoms

Performance: 0.727 ns/day, 33.004 hours/ns, 8.416 timesteps/s
99.0% CPU use with 1 MPI tasks x no OpenMP threads

MPI task timing breakdown:
Section |  min time  |  avg time  |  max time  |%varavg| %total
---------------------------------------------------------------
Pair    | 31.041     | 31.041     | 31.041     |   0.0 | 52.78
Neigh   | 26.511     | 26.511     | 26.511     |   0.0 | 45.08
Comm    | 0.45979    | 0.45979    | 0.45979    |   0.0 |  0.78
Output  | 0.060026   | 0.060026   | 0.060026   |   0.0 |  0.10
Modify  | 0.57663    | 0.57663    | 0.57663    |   0.0 |  0.98
Other   |            | 0.1652     |            |       |  0.28

Nlocal:    19652 ave 19652 max 19652 min
Histogram: 1 0 0 0 0 0 0 0 0 0
Nghost:    17019 ave 17019 max 17019 min
Histogram: 1 0 0 0 0 0 0 0 0 0
Neighs:    1.23736e+06 ave 1.23736e+06 max 1.23736e+06 min
Histogram: 1 0 0 0 0 0 0 0 0 0

Total # of neighbors = 1237358
Ave neighs/atom = 62.9635
Neighbor list builds = 495
Dangerous builds not checked
Setting up Verlet run ...
  Unit style    : metal
  Current step  : 53168
  Time step     : 0.001
Per MPI rank memory allocation (min/avg/max) = 18.21 | 18.21 | 18.21 Mbytes
Step Temp Press TotEng PotEng Enthalpy Volume 
   53168    1459.9827    314.02813   -56425.004   -60133.493   -56346.576    400137.92 
   53340     1444.687    41.010896   -56490.217   -60159.854   -56479.983    399803.98 
Loop time of 21.8175 on 1 procs for 172 steps with 19652 atoms

Performance: 0.681 ns/day, 35.235 hours/ns, 7.884 timesteps/s
100.0% CPU use with 1 MPI tasks x no OpenMP threads

MPI task timing breakdown:
Section |  min time  |  avg time  |  max time  |%varavg| %total
---------------------------------------------------------------
Pair    | 11.604     | 11.604     | 11.604     |   0.0 | 53.19
Neigh   | 9.7682     | 9.7682     | 9.7682     |   0.0 | 44.77
Comm    | 0.17084    | 0.17084    | 0.17084    |   0.0 |  0.78
Output  | 0.00017595 | 0.00017595 | 0.00017595 |   0.0 |  0.00
Modify  | 0.21235    | 0.21235    | 0.21235    |   0.0 |  0.97
Other   |            | 0.06155    |            |       |  0.28

Nlocal:    19652 ave 19652 max 19652 min
Histogram: 1 0 0 0 0 0 0 0 0 0
Nghost:    17058 ave 17058 max 17058 min
Histogram: 1 0 0 0 0 0 0 0 0 0
Neighs:    1.23841e+06 ave 1.23841e+06 max 1.23841e+06 min
Histogram: 1 0 0 0 0 0 0 0 0 0

Total # of neighbors = 1238413
Ave neighs/atom = 63.0171
Neighbor list builds = 172
Dangerous builds not checked
Setting up Verlet run ...
  Unit style    : metal
  Current step  : 53340
  Time step     : 0.001
Per MPI rank memory allocation (min/avg/max) = 18.21 | 18.21 | 18.21 Mbytes
Step Temp Press TotEng PotEng Enthalpy Volume 
   53340     1444.687    41.010896   -56490.217   -60159.854   -56479.983    399803.98 
   53360    1459.4613   -484.98976   -56490.342   -60197.507   -56611.364    399800.37 
   53835    1417.1229   -435.51083   -56730.692   -60330.313   -56838.793    397687.37 
Loop time of 58.2164 on 1 procs for 495 steps with 19652 atoms

Performance: 0.735 ns/day, 32.669 hours/ns, 8.503 timesteps/s
100.0% CPU use with 1 MPI tasks x no OpenMP threads

MPI task timing breakdown:
Section |  min time  |  avg time  |  max time  |%varavg| %total
---------------------------------------------------------------
Pair    | 30.67      | 30.67      | 30.67      |   0.0 | 52.68
Neigh   | 26.31      | 26.31      | 26.31      |   0.0 | 45.19
Comm    | 0.44956    | 0.44956    | 0.44956    |   0.0 |  0.77
Output  | 0.05593    | 0.05593    | 0.05593    |   0.0 |  0.10
Modify  | 0.56852    | 0.56852    | 0.56852    |   0.0 |  0.98
Other   |            | 0.1619     |            |       |  0.28

Nlocal:    19652 ave 19652 max 19652 min
Histogram: 1 0 0 0 0 0 0 0 0 0
Nghost:    16961 ave 16961 max 16961 min
Histogram: 1 0 0 0 0 0 0 0 0 0
Neighs:    1.24584e+06 ave 1.24584e+06 max 1.24584e+06 min
Histogram: 1 0 0 0 0 0 0 0 0 0

Total # of neighbors = 1245845
Ave neighs/atom = 63.3953
Neighbor list builds = 495
Dangerous builds not checked
Setting up Verlet run ...
  Unit style    : metal
  Current step  : 53835
  Time step     : 0.001
Per MPI rank memory allocation (min/avg/max) = 18.21 | 18.21 | 18.21 Mbytes
Step Temp Press TotEng PotEng Enthalpy Volume 
   53835    1417.1229   -435.51083   -56730.692   -60330.313   -56838.793    397687.37 
   54007    1404.3539   -142.31881   -56794.944    -60362.13   -56830.213    397047.38 
Loop time of 23.4484 on 1 procs for 172 steps with 19652 atoms

Performance: 0.634 ns/day, 37.869 hours/ns, 7.335 timesteps/s
100.0% CPU use with 1 MPI tasks x no OpenMP threads

MPI task timing breakdown:
Section |  min time  |  avg time  |  max time  |%varavg| %total
---------------------------------------------------------------
Pair    | 12.595     | 12.595     | 12.595     |   0.0 | 53.71
Neigh   | 10.367     | 10.367     | 10.367     |   0.0 | 44.21
Comm    | 0.1876     | 0.1876     | 0.1876     |   0.0 |  0.80
Output  | 0.00016594 | 0.00016594 | 0.00016594 |   0.0 |  0.00
Modify  | 0.23193    | 0.23193    | 0.23193    |   0.0 |  0.99
Other   |            | 0.06662    |            |       |  0.28

Nlocal:    19652 ave 19652 max 19652 min
Histogram: 1 0 0 0 0 0 0 0 0 0
Nghost:    16969 ave 16969 max 16969 min
Histogram: 1 0 0 0 0 0 0 0 0 0
Neighs:    1.24739e+06 ave 1.24739e+06 max 1.24739e+06 min
Histogram: 1 0 0 0 0 0 0 0 0 0

Total # of neighbors = 1247392
Ave neighs/atom = 63.474
Neighbor list builds = 172
Dangerous builds not checked
Setting up Verlet run ...
  Unit style    : metal
  Current step  : 54007
  Time step     : 0.001
Per MPI rank memory allocation (min/avg/max) = 18.21 | 18.21 | 18.21 Mbytes
Step Temp Press TotEng PotEng Enthalpy Volume 
   54007    1404.3539   -142.31881   -56794.944    -60362.13   -56830.213    397047.38 
   54027    1407.3014   -322.64637   -56795.535   -60370.209   -56875.491    397041.76 
   54502    1362.6054   -68.457062   -57043.116   -60504.257   -57059.998    395106.74 
Loop time of 56.4741 on 1 procs for 495 steps with 19652 atoms

Performance: 0.757 ns/day, 31.691 hours/ns, 8.765 timesteps/s
99.9% CPU use with 1 MPI tasks x no OpenMP threads

MPI task timing breakdown:
Section |  min time  |  avg time  |  max time  |%varavg| %total
---------------------------------------------------------------
Pair    | 29.773     | 29.773     | 29.773     |   0.0 | 52.72
Neigh   | 25.509     | 25.509     | 25.509     |   0.0 | 45.17
Comm    | 0.43056    | 0.43056    | 0.43056    |   0.0 |  0.76
Output  | 0.061517   | 0.061517   | 0.061517   |   0.0 |  0.11
Modify  | 0.54358    | 0.54358    | 0.54358    |   0.0 |  0.96
Other   |            | 0.1564     |            |       |  0.28

Nlocal:    19652 ave 19652 max 19652 min
Histogram: 1 0 0 0 0 0 0 0 0 0
Nghost:    17098 ave 17098 max 17098 min
Histogram: 1 0 0 0 0 0 0 0 0 0
Neighs:    1.25395e+06 ave 1.25395e+06 max 1.25395e+06 min
Histogram: 1 0 0 0 0 0 0 0 0 0

Total # of neighbors = 1253953
Ave neighs/atom = 63.8079
Neighbor list builds = 495
Dangerous builds not checked
Setting up Verlet run ...
  Unit style    : metal
  Current step  : 54502
  Time step     : 0.001
Per MPI rank memory allocation (min/avg/max) = 18.21 | 18.21 | 18.21 Mbytes
Step Temp Press TotEng PotEng Enthalpy Volume 
   54502    1362.6054   -68.457062   -57043.116   -60504.257   -57059.998    395106.74 
   54674    1353.9201   -256.27619   -57100.534   -60539.615   -57163.672    394717.95 
Loop time of 21.4419 on 1 procs for 172 steps with 19652 atoms

Performance: 0.693 ns/day, 34.628 hours/ns, 8.022 timesteps/s
100.0% CPU use with 1 MPI tasks x no OpenMP threads

MPI task timing breakdown:
Section |  min time  |  avg time  |  max time  |%varavg| %total
---------------------------------------------------------------
Pair    | 11.355     | 11.355     | 11.355     |   0.0 | 52.96
Neigh   | 9.6487     | 9.6487     | 9.6487     |   0.0 | 45.00
Comm    | 0.16319    | 0.16319    | 0.16319    |   0.0 |  0.76
Output  | 0.00018883 | 0.00018883 | 0.00018883 |   0.0 |  0.00
Modify  | 0.21458    | 0.21458    | 0.21458    |   0.0 |  1.00
Other   |            | 0.0604     |            |       |  0.28

Nlocal:    19652 ave 19652 max 19652 min
Histogram: 1 0 0 0 0 0 0 0 0 0
Nghost:    17059 ave 17059 max 17059 min
Histogram: 1 0 0 0 0 0 0 0 0 0
Neighs:    1.25548e+06 ave 1.25548e+06 max 1.25548e+06 min
Histogram: 1 0 0 0 0 0 0 0 0 0

Total # of neighbors = 1255480
Ave neighs/atom = 63.8856
Neighbor list builds = 172
Dangerous builds not checked
Setting up Verlet run ...
  Unit style    : metal
  Current step  : 54674
  Time step     : 0.001
Per MPI rank memory allocation (min/avg/max) = 18.21 | 18.21 | 18.21 Mbytes
Step Temp Press TotEng PotEng Enthalpy Volume 
   54674    1353.9201   -256.27619   -57100.534   -60539.615   -57163.672    394717.95 
   54694    1349.6793   -258.66913    -57100.96   -60529.268   -57164.685    394710.52 
   55169    1313.4594    137.87285   -57327.538   -60663.845   -57293.755     392585.7 
Loop time of 59.0303 on 1 procs for 495 steps with 19652 atoms

Performance: 0.725 ns/day, 33.126 hours/ns, 8.386 timesteps/s
100.0% CPU use with 1 MPI tasks x no OpenMP threads

MPI task timing breakdown:
Section |  min time  |  avg time  |  max time  |%varavg| %total
---------------------------------------------------------------
Pair    | 31.206     | 31.206     | 31.206     |   0.0 | 52.87
Neigh   | 26.543     | 26.543     | 26.543     |   0.0 | 44.96
Comm    | 0.45686    | 0.45686    | 0.45686    |   0.0 |  0.77
Output  | 0.057903   | 0.057903   | 0.057903   |   0.0 |  0.10
Modify  | 0.59818    | 0.59818    | 0.59818    |   0.0 |  1.01
Other   |            | 0.1684     |            |       |  0.29

Nlocal:    19652 ave 19652 max 19652 min
Histogram: 1 0 0 0 0 0 0 0 0 0
Nghost:    17111 ave 17111 max 17111 min
Histogram: 1 0 0 0 0 0 0 0 0 0
Neighs:    1.26249e+06 ave 1.26249e+06 max 1.26249e+06 min
Histogram: 1 0 0 0 0 0 0 0 0 0

Total # of neighbors = 1262489
Ave neighs/atom = 64.2423
Neighbor list builds = 495
Dangerous builds not checked
Setting up Verlet run ...
  Unit style    : metal
  Current step  : 55169
  Time step     : 0.001
Per MPI rank memory allocation (min/avg/max) = 18.21 | 18.21 | 18.21 Mbytes
Step Temp Press TotEng PotEng Enthalpy Volume 
   55169    1313.4594    137.87285   -57327.538   -60663.845   -57293.755     392585.7 
   55341    1303.3625   -496.62265   -57384.159   -60694.818   -57505.804    392445.02 
Loop time of 17.2176 on 1 procs for 172 steps with 19652 atoms

Performance: 0.863 ns/day, 27.806 hours/ns, 9.990 timesteps/s
100.0% CPU use with 1 MPI tasks x no OpenMP threads

MPI task timing breakdown:
Section |  min time  |  avg time  |  max time  |%varavg| %total
[...]
Modify  | 0.61951    | 0.61951    | 0.61951    |   0.0 |  0.90
Other   |            | 0.1812     |            |       |  0.26

Nlocal:    19652 ave 19652 max 19652 min
Histogram: 1 0 0 0 0 0 0 0 0 0
Nghost:    18015 ave 18015 max 18015 min
Histogram: 1 0 0 0 0 0 0 0 0 0
Neighs:    1.43574e+06 ave 1.43574e+06 max 1.43574e+06 min
Histogram: 1 0 0 0 0 0 0 0 0 0

Total # of neighbors = 1435742
Ave neighs/atom = 73.0583
Neighbor list builds = 495
Dangerous builds not checked
Setting up Verlet run ...
  Unit style    : metal
  Current step  : 67175
  Time step     : 0.001
Per MPI rank memory allocation (min/avg/max) = 18.21 | 18.21 | 18.21 Mbytes
Step Temp Press TotEng PotEng Enthalpy Volume 
   67175    428.62336    400.89678   -63095.089   -64183.832   -63008.337    346705.21 
   67347    416.22969    172.80471     -63164.2   -64221.462   -63126.843    346364.34 
Loop time of 21.7698 on 1 procs for 172 steps with 19652 atoms

Performance: 0.683 ns/day, 35.158 hours/ns, 7.901 timesteps/s
100.0% CPU use with 1 MPI tasks x no OpenMP threads

MPI task timing breakdown:
Section |  min time  |  avg time  |  max time  |%varavg| %total
---------------------------------------------------------------
Pair    | 11.485     | 11.485     | 11.485     |   0.0 | 52.76
Neigh   | 9.8733     | 9.8733     | 9.8733     |   0.0 | 45.35
Comm    | 0.15053    | 0.15053    | 0.15053    |   0.0 |  0.69
Output  | 0.00016308 | 0.00016308 | 0.00016308 |   0.0 |  0.00
Modify  | 0.20177    | 0.20177    | 0.20177    |   0.0 |  0.93
Other   |            | 0.0587     |            |       |  0.27

Nlocal:    19652 ave 19652 max 19652 min
Histogram: 1 0 0 0 0 0 0 0 0 0
Nghost:    18034 ave 18034 max 18034 min
Histogram: 1 0 0 0 0 0 0 0 0 0
Neighs:    1.43706e+06 ave 1.43706e+06 max 1.43706e+06 min
Histogram: 1 0 0 0 0 0 0 0 0 0

Total # of neighbors = 1437058
Ave neighs/atom = 73.1253
Neighbor list builds = 172
Dangerous builds not checked
Setting up Verlet run ...
  Unit style    : metal
  Current step  : 67347
  Time step     : 0.001
Per MPI rank memory allocation (min/avg/max) = 18.21 | 18.21 | 18.21 Mbytes
Step Temp Press TotEng PotEng Enthalpy Volume 
   67347    416.22969    172.80471     -63164.2   -64221.462   -63126.843    346364.34 
   67367    419.89067   -57.594506   -63166.189    -64232.75    -63178.64    346369.93 
   67842    379.76702    34.643978   -63420.229   -64384.872   -63412.781    344462.29 
Loop time of 65.0095 on 1 procs for 495 steps with 19652 atoms

Performance: 0.658 ns/day, 36.481 hours/ns, 7.614 timesteps/s
99.9% CPU use with 1 MPI tasks x no OpenMP threads

MPI task timing breakdown:
Section |  min time  |  avg time  |  max time  |%varavg| %total
---------------------------------------------------------------
Pair    | 34.322     | 34.322     | 34.322     |   0.0 | 52.80
Neigh   | 29.387     | 29.387     | 29.387     |   0.0 | 45.20
Comm    | 0.45729    | 0.45729    | 0.45729    |   0.0 |  0.70
Output  | 0.081254   | 0.081254   | 0.081254   |   0.0 |  0.12
Modify  | 0.58747    | 0.58747    | 0.58747    |   0.0 |  0.90
Other   |            | 0.174      |            |       |  0.27

Nlocal:    19652 ave 19652 max 19652 min
Histogram: 1 0 0 0 0 0 0 0 0 0
Nghost:    18055 ave 18055 max 18055 min
Histogram: 1 0 0 0 0 0 0 0 0 0
Neighs:    1.44464e+06 ave 1.44464e+06 max 1.44464e+06 min
Histogram: 1 0 0 0 0 0 0 0 0 0

Total # of neighbors = 1444643
Ave neighs/atom = 73.5112
Neighbor list builds = 495
Dangerous builds not checked
Setting up Verlet run ...
  Unit style    : metal
  Current step  : 67842
  Time step     : 0.001
Per MPI rank memory allocation (min/avg/max) = 18.21 | 18.21 | 18.21 Mbytes
Step Temp Press TotEng PotEng Enthalpy Volume 
   67842    379.76702    34.643978   -63420.229   -64384.872   -63412.781    344462.29 
   68014    372.64125   -133.87555   -63485.537    -64432.08   -63514.282    344008.59 
Loop time of 20.7068 on 1 procs for 172 steps with 19652 atoms

Performance: 0.718 ns/day, 33.441 hours/ns, 8.306 timesteps/s
100.0% CPU use with 1 MPI tasks x no OpenMP threads

MPI task timing breakdown:
Section |  min time  |  avg time  |  max time  |%varavg| %total
---------------------------------------------------------------
Pair    | 10.907     | 10.907     | 10.907     |   0.0 | 52.68
Neigh   | 9.4074     | 9.4074     | 9.4074     |   0.0 | 45.43
Comm    | 0.1464     | 0.1464     | 0.1464     |   0.0 |  0.71
Output  | 0.00012398 | 0.00012398 | 0.00012398 |   0.0 |  0.00
Modify  | 0.18904    | 0.18904    | 0.18904    |   0.0 |  0.91
Other   |            | 0.05639    |            |       |  0.27

Nlocal:    19652 ave 19652 max 19652 min
Histogram: 1 0 0 0 0 0 0 0 0 0
Nghost:    18090 ave 18090 max 18090 min
Histogram: 1 0 0 0 0 0 0 0 0 0
Neighs:    1.4464e+06 ave 1.4464e+06 max 1.4464e+06 min
Histogram: 1 0 0 0 0 0 0 0 0 0

Total # of neighbors = 1446395
Ave neighs/atom = 73.6004
Neighbor list builds = 172
Dangerous builds not checked
Setting up Verlet run ...
  Unit style    : metal
  Current step  : 68014
  Time step     : 0.001
Per MPI rank memory allocation (min/avg/max) = 18.21 | 18.21 | 18.21 Mbytes
Step Temp Press TotEng PotEng Enthalpy Volume 
   68014    372.64125   -133.87555   -63485.537    -64432.08   -63514.282    344008.59 
   68034     371.5884   -123.56904   -63488.141   -64432.009   -63514.672    343995.83 
   68509    328.43022    437.41286   -63736.979   -64571.222   -63643.576    342122.46 
Loop time of 61.0168 on 1 procs for 495 steps with 19652 atoms

Performance: 0.701 ns/day, 34.241 hours/ns, 8.113 timesteps/s
99.7% CPU use with 1 MPI tasks x no OpenMP threads

MPI task timing breakdown:
Section |  min time  |  avg time  |  max time  |%varavg| %total
---------------------------------------------------------------
Pair    | 32.15      | 32.15      | 32.15      |   0.0 | 52.69
Neigh   | 27.641     | 27.641     | 27.641     |   0.0 | 45.30
Comm    | 0.42257    | 0.42257    | 0.42257    |   0.0 |  0.69
Output  | 0.084973   | 0.084973   | 0.084973   |   0.0 |  0.14
Modify  | 0.55442    | 0.55442    | 0.55442    |   0.0 |  0.91
Other   |            | 0.1634     |            |       |  0.27

Nlocal:    19652 ave 19652 max 19652 min
Histogram: 1 0 0 0 0 0 0 0 0 0
Nghost:    18105 ave 18105 max 18105 min
Histogram: 1 0 0 0 0 0 0 0 0 0
Neighs:    1.45397e+06 ave 1.45397e+06 max 1.45397e+06 min
Histogram: 1 0 0 0 0 0 0 0 0 0

Total # of neighbors = 1453972
Ave neighs/atom = 73.986
Neighbor list builds = 495
Dangerous builds not checked
Setting up Verlet run ...
  Unit style    : metal
  Current step  : 68509
  Time step     : 0.001
Per MPI rank memory allocation (min/avg/max) = 18.21 | 18.21 | 18.21 Mbytes
Step Temp Press TotEng PotEng Enthalpy Volume 
   68509    328.43022    437.41286   -63736.979   -64571.222   -63643.576    342122.46 
   68681    318.79049     288.0314   -63798.889   -64608.645   -63737.452    341738.93 
Loop time of 20.5998 on 1 procs for 172 steps with 19652 atoms

Performance: 0.721 ns/day, 33.268 hours/ns, 8.350 timesteps/s
100.0% CPU use with 1 MPI tasks x no OpenMP threads

MPI task timing breakdown:
Section |  min time  |  avg time  |  max time  |%varavg| %total
---------------------------------------------------------------
Pair    | 10.889     | 10.889     | 10.889     |   0.0 | 52.86
Neigh   | 9.3195     | 9.3195     | 9.3195     |   0.0 | 45.24
Comm    | 0.14596    | 0.14596    | 0.14596    |   0.0 |  0.71
Output  | 0.00018501 | 0.00018501 | 0.00018501 |   0.0 |  0.00
Modify  | 0.18865    | 0.18865    | 0.18865    |   0.0 |  0.92
Other   |            | 0.05632    |            |       |  0.27

Nlocal:    19652 ave 19652 max 19652 min
Histogram: 1 0 0 0 0 0 0 0 0 0
Nghost:    18115 ave 18115 max 18115 min
Histogram: 1 0 0 0 0 0 0 0 0 0
Neighs:    1.45561e+06 ave 1.45561e+06 max 1.45561e+06 min
Histogram: 1 0 0 0 0 0 0 0 0 0

Total # of neighbors = 1455606
Ave neighs/atom = 74.0691
Neighbor list builds = 172
Dangerous builds not checked
Setting up Verlet run ...
  Unit style    : metal
  Current step  : 68681
  Time step     : 0.001
Per MPI rank memory allocation (min/avg/max) = 18.21 | 18.21 | 18.21 Mbytes
Step Temp Press TotEng PotEng Enthalpy Volume 
   68681    318.79049     288.0314   -63798.889   -64608.645   -63737.452    341738.93 
   68701    321.32269    95.114423   -63801.167   -64617.356   -63780.878    341756.75 
   69176    279.81207   -16.735894    -64038.04   -64748.788   -64041.596    340349.81 
Loop time of 66.859 on 1 procs for 495 steps with 19652 atoms

Performance: 0.640 ns/day, 37.519 hours/ns, 7.404 timesteps/s
99.9% CPU use with 1 MPI tasks x no OpenMP threads

MPI task timing breakdown:
Section |  min time  |  avg time  |  max time  |%varavg| %total
---------------------------------------------------------------
Pair    | 35.462     | 35.462     | 35.462     |   0.0 | 53.04
Neigh   | 30.053     | 30.053     | 30.053     |   0.0 | 44.95
Comm    | 0.47024    | 0.47024    | 0.47024    |   0.0 |  0.70
Output  | 0.086204   | 0.086204   | 0.086204   |   0.0 |  0.13
Modify  | 0.60704    | 0.60704    | 0.60704    |   0.0 |  0.91
Other   |            | 0.1799     |            |       |  0.27

Nlocal:    19652 ave 19652 max 19652 min
Histogram: 1 0 0 0 0 0 0 0 0 0
Nghost:    18131 ave 18131 max 18131 min
Histogram: 1 0 0 0 0 0 0 0 0 0
Neighs:    1.4608e+06 ave 1.4608e+06 max 1.4608e+06 min
Histogram: 1 0 0 0 0 0 0 0 0 0

Total # of neighbors = 1460797
Ave neighs/atom = 74.3332
Neighbor list builds = 495
Dangerous builds not checked
Setting up Verlet run ...
  Unit style    : metal
  Current step  : 69176
  Time step     : 0.001
Per MPI rank memory allocation (min/avg/max) = 18.21 | 18.21 | 18.21 Mbytes
Step Temp Press TotEng PotEng Enthalpy Volume 
   69176    279.81207   -16.735894    -64038.04   -64748.788   -64041.596    340349.81 
   69348    271.70691      -122.87   -64097.914   -64788.074   -64123.987    339985.95 
Loop time of 21.15 on 1 procs for 172 steps with 19652 atoms

Performance: 0.703 ns/day, 34.157 hours/ns, 8.132 timesteps/s
100.0% CPU use with 1 MPI tasks x no OpenMP threads

MPI task timing breakdown:
Section |  min time  |  avg time  |  max time  |%varavg| %total
---------------------------------------------------------------
Pair    | 11.249     | 11.249     | 11.249     |   0.0 | 53.19
Neigh   | 9.5003     | 9.5003     | 9.5003     |   0.0 | 44.92
Comm    | 0.14667    | 0.14667    | 0.14667    |   0.0 |  0.69
Output  | 0.0001452  | 0.0001452  | 0.0001452  |   0.0 |  0.00
Modify  | 0.19671    | 0.19671    | 0.19671    |   0.0 |  0.93
Other   |            | 0.05674    |            |       |  0.27

Nlocal:    19652 ave 19652 max 19652 min
Histogram: 1 0 0 0 0 0 0 0 0 0
Nghost:    18135 ave 18135 max 18135 min
Histogram: 1 0 0 0 0 0 0 0 0 0
Neighs:    1.46259e+06 ave 1.46259e+06 max 1.46259e+06 min
Histogram: 1 0 0 0 0 0 0 0 0 0

Total # of neighbors = 1462587
Ave neighs/atom = 74.4243
Neighbor list builds = 172
Dangerous builds not checked
Setting up Verlet run ...
  Unit style    : metal
  Current step  : 69348
  Time step     : 0.001
Per MPI rank memory allocation (min/avg/max) = 18.21 | 18.21 | 18.21 Mbytes
Step Temp Press TotEng PotEng Enthalpy Volume 
   69348    271.70691      -122.87   -64097.914   -64788.074   -64123.987    339985.95 
   69368    271.52151   -134.12462   -64100.435   -64790.124   -64128.895    339970.52 
   69843    229.14767    140.07061   -64326.052   -64908.108   -64296.453    338561.54 
Loop time of 59.7739 on 1 procs for 495 steps with 19652 atoms

Performance: 0.715 ns/day, 33.543 hours/ns, 8.281 timesteps/s
100.0% CPU use with 1 MPI tasks x no OpenMP threads

MPI task timing breakdown:
Section |  min time  |  avg time  |  max time  |%varavg| %total
---------------------------------------------------------------
Pair    | 31.517     | 31.517     | 31.517     |   0.0 | 52.73
Neigh   | 27.076     | 27.076     | 27.076     |   0.0 | 45.30
Comm    | 0.41618    | 0.41618    | 0.41618    |   0.0 |  0.70
Output  | 0.058701   | 0.058701   | 0.058701   |   0.0 |  0.10
Modify  | 0.54473    | 0.54473    | 0.54473    |   0.0 |  0.91
Other   |            | 0.1617     |            |       |  0.27

Nlocal:    19652 ave 19652 max 19652 min
Histogram: 1 0 0 0 0 0 0 0 0 0
Nghost:    18132 ave 18132 max 18132 min
Histogram: 1 0 0 0 0 0 0 0 0 0
Neighs:    1.46826e+06 ave 1.46826e+06 max 1.46826e+06 min
Histogram: 1 0 0 0 0 0 0 0 0 0

Total # of neighbors = 1468257
Ave neighs/atom = 74.7129
Neighbor list builds = 495
Dangerous builds not checked
Setting up Verlet run ...
  Unit style    : metal
  Current step  : 69843
  Time step     : 0.001
Per MPI rank memory allocation (min/avg/max) = 18.21 | 18.21 | 18.21 Mbytes
Step Temp Press TotEng PotEng Enthalpy Volume 
   69843    229.14767    140.07061   -64326.052   -64908.108   -64296.453    338561.54 
   70015    220.80524     108.0321   -64384.856   -64945.722   -64362.055    338148.52 
Loop time of 19.1305 on 1 procs for 172 steps with 19652 atoms

Performance: 0.777 ns/day, 30.896 hours/ns, 8.991 timesteps/s
100.0% CPU use with 1 MPI tasks x no OpenMP threads

MPI task timing breakdown:
Section |  min time  |  avg time  |  max time  |%varavg| %total
---------------------------------------------------------------
Pair    | 10.05      | 10.05      | 10.05      |   0.0 | 52.54
Neigh   | 8.7201     | 8.7201     | 8.7201     |   0.0 | 45.58
Comm    | 0.13249    | 0.13249    | 0.13249    |   0.0 |  0.69
Output  | 0.00013399 | 0.00013399 | 0.00013399 |   0.0 |  0.00
Modify  | 0.17521    | 0.17521    | 0.17521    |   0.0 |  0.92
Other   |            | 0.05222    |            |       |  0.27

Nlocal:    19652 ave 19652 max 19652 min
Histogram: 1 0 0 0 0 0 0 0 0 0
Nghost:    18156 ave 18156 max 18156 min
Histogram: 1 0 0 0 0 0 0 0 0 0
Neighs:    1.46996e+06 ave 1.46996e+06 max 1.46996e+06 min
Histogram: 1 0 0 0 0 0 0 0 0 0

Total # of neighbors = 1469956
Ave neighs/atom = 74.7993
Neighbor list builds = 172
Dangerous builds not checked
Setting up Verlet run ...
  Unit style    : metal
  Current step  : 70015
  Time step     : 0.001
Per MPI rank memory allocation (min/avg/max) = 18.21 | 18.21 | 18.21 Mbytes
Step Temp Press TotEng PotEng Enthalpy Volume 
   70015    220.80524     108.0321   -64384.856   -64945.722   -64362.055    338148.52 
   70035    221.73896   -21.760806   -64387.303    -64950.54   -64391.896    338156.87 
   70510    183.07769    121.73635   -64607.066     -65072.1   -64581.474    336828.18 
Loop time of 61.1068 on 1 procs for 495 steps with 19652 atoms

Performance: 0.700 ns/day, 34.291 hours/ns, 8.101 timesteps/s
99.3% CPU use with 1 MPI tasks x no OpenMP threads

MPI task timing breakdown:
Section |  min time  |  avg time  |  max time  |%varavg| %total
---------------------------------------------------------------
Pair    | 32.349     | 32.349     | 32.349     |   0.0 | 52.94
Neigh   | 27.55      | 27.55      | 27.55      |   0.0 | 45.09
Comm    | 0.42455    | 0.42455    | 0.42455    |   0.0 |  0.69
Output  | 0.060432   | 0.060432   | 0.060432   |   0.0 |  0.10
Modify  | 0.55911    | 0.55911    | 0.55911    |   0.0 |  0.91
Other   |            | 0.1634     |            |       |  0.27

Nlocal:    19652 ave 19652 max 19652 min
Histogram: 1 0 0 0 0 0 0 0 0 0
Nghost:    18217 ave 18217 max 18217 min
Histogram: 1 0 0 0 0 0 0 0 0 0
Neighs:    1.47534e+06 ave 1.47534e+06 max 1.47534e+06 min
Histogram: 1 0 0 0 0 0 0 0 0 0

Total # of neighbors = 1475345
Ave neighs/atom = 75.0735
Neighbor list builds = 495
Dangerous builds not checked
Setting up Verlet run ...
  Unit style    : metal
  Current step  : 70510
  Time step     : 0.001
Per MPI rank memory allocation (min/avg/max) = 18.21 | 18.21 | 18.21 Mbytes
Step Temp Press TotEng PotEng Enthalpy Volume 
   70510    183.07769    121.73635   -64607.066     -65072.1   -64581.474    336828.18 
   70682    172.65293    7.7807193   -64663.842   -65102.396   -64662.207    336591.86 
Loop time of 20.6847 on 1 procs for 172 steps with 19652 atoms

Performance: 0.718 ns/day, 33.405 hours/ns, 8.315 timesteps/s
100.0% CPU use with 1 MPI tasks x no OpenMP threads

MPI task timing breakdown:
Section |  min time  |  avg time  |  max time  |%varavg| %total
---------------------------------------------------------------
Pair    | 10.898     | 10.898     | 10.898     |   0.0 | 52.69
Neigh   | 9.3969     | 9.3969     | 9.3969     |   0.0 | 45.43
Comm    | 0.14238    | 0.14238    | 0.14238    |   0.0 |  0.69
Output  | 0.0001421  | 0.0001421  | 0.0001421  |   0.0 |  0.00
Modify  | 0.19144    | 0.19144    | 0.19144    |   0.0 |  0.93
Other   |            | 0.05592    |            |       |  0.27

Nlocal:    19652 ave 19652 max 19652 min
Histogram: 1 0 0 0 0 0 0 0 0 0
Nghost:    18231 ave 18231 max 18231 min
Histogram: 1 0 0 0 0 0 0 0 0 0
Neighs:    1.47626e+06 ave 1.47626e+06 max 1.47626e+06 min
Histogram: 1 0 0 0 0 0 0 0 0 0

Total # of neighbors = 1476260
Ave neighs/atom = 75.1201
Neighbor list builds = 172
Dangerous builds not checked
Setting up Verlet run ...
  Unit style    : metal
  Current step  : 70682
  Time step     : 0.001
Per MPI rank memory allocation (min/avg/max) = 18.21 | 18.21 | 18.21 Mbytes
Step Temp Press TotEng PotEng Enthalpy Volume 
   70682    172.65293    7.7807193   -64663.842   -65102.396   -64662.207    336591.86 
   70702    173.27192   -112.57255   -64666.537   -65106.664   -64690.187    336585.44 
   71177    134.44486   -113.05111   -64875.329   -65216.832   -64898.999    335446.06 
Loop time of 59.5369 on 1 procs for 495 steps with 19652 atoms

Performance: 0.718 ns/day, 33.410 hours/ns, 8.314 timesteps/s
99.0% CPU use with 1 MPI tasks x no OpenMP threads

MPI task timing breakdown:
Section |  min time  |  avg time  |  max time  |%varavg| %total
---------------------------------------------------------------
Pair    | 31.436     | 31.436     | 31.436     |   0.0 | 52.80
Neigh   | 26.927     | 26.927     | 26.927     |   0.0 | 45.23
Comm    | 0.40992    | 0.40992    | 0.40992    |   0.0 |  0.69
Output  | 0.054856   | 0.054856   | 0.054856   |   0.0 |  0.09
Modify  | 0.54626    | 0.54626    | 0.54626    |   0.0 |  0.92
Other   |            | 0.1635     |            |       |  0.27

Nlocal:    19652 ave 19652 max 19652 min
Histogram: 1 0 0 0 0 0 0 0 0 0
Nghost:    18278 ave 18278 max 18278 min
Histogram: 1 0 0 0 0 0 0 0 0 0
Neighs:    1.48087e+06 ave 1.48087e+06 max 1.48087e+06 min
Histogram: 1 0 0 0 0 0 0 0 0 0

Total # of neighbors = 1480867
Ave neighs/atom = 75.3545
Neighbor list builds = 495
Dangerous builds not checked
Setting up Verlet run ...
  Unit style    : metal
  Current step  : 71177
  Time step     : 0.001
Per MPI rank memory allocation (min/avg/max) = 18.21 | 18.21 | 18.21 Mbytes
Step Temp Press TotEng PotEng Enthalpy Volume 
   71177    134.44486   -113.05111   -64875.329   -65216.832   -64898.999    335446.06 
   71349    123.67855    136.94361   -64931.662   -65245.817   -64903.024    335051.89 
Loop time of 23.3111 on 1 procs for 172 steps with 19652 atoms

Performance: 0.637 ns/day, 37.647 hours/ns, 7.378 timesteps/s
100.0% CPU use with 1 MPI tasks x no OpenMP threads

MPI task timing breakdown:
Section |  min time  |  avg time  |  max time  |%varavg| %total
---------------------------------------------------------------
Pair    | 12.406     | 12.406     | 12.406     |   0.0 | 53.22
Neigh   | 10.464     | 10.464     | 10.464     |   0.0 | 44.89
Comm    | 0.16405    | 0.16405    | 0.16405    |   0.0 |  0.70
Output  | 0.0001328  | 0.0001328  | 0.0001328  |   0.0 |  0.00
Modify  | 0.21358    | 0.21358    | 0.21358    |   0.0 |  0.92
Other   |            | 0.06299    |            |       |  0.27

Nlocal:    19652 ave 19652 max 19652 min
Histogram: 1 0 0 0 0 0 0 0 0 0
Nghost:    18268 ave 18268 max 18268 min
Histogram: 1 0 0 0 0 0 0 0 0 0
Neighs:    1.48226e+06 ave 1.48226e+06 max 1.48226e+06 min
Histogram: 1 0 0 0 0 0 0 0 0 0

Total # of neighbors = 1482263
Ave neighs/atom = 75.4256
Neighbor list builds = 172
Dangerous builds not checked
Total wall time: 2:17:59
