LAMMPS (12 Dec 2018)
Lattice spacing in x,y,z = 4 4 4
Created orthogonal box = (0 0 0) to (68 68 68)
  1 by 1 by 1 MPI processor grid
Created 19652 atoms
  Time spent = 0.00413704 secs
Setting atom values ...
  19480 settings made for type/fraction
Neighbor list info ...
  update every 1 steps, delay 0 steps, check no
  max neighbors/atom: 2000, page size: 100000
  master list distance cutoff = 8.5
  ghost atom cutoff = 8.5
  binsize = 4.25, bins = 16 16 16
  1 neighbor lists, perpetual/occasional/extra = 1 0 0
  (1) pair eam/alloy, perpetual
      attributes: half, newton on
      pair build: half/bin/atomonly/newton
      stencil: half/bin/3d/newton
      bin: standard
Setting up Verlet run ...
  Unit style    : metal
  Current step  : 0
  Time step     : 0.001
Per MPI rank memory allocation (min/avg/max) = 18.19 | 18.19 | 18.19 Mbytes
Step Temp Press TotEng PotEng Enthalpy 
       0          300   -183049.92   -61915.329   -62677.356   -97839.431 
    1000    481.32912   -85221.436   -61915.357   -63137.977   -78640.322 
Loop time of 175.738 on 1 procs for 1000 steps with 19652 atoms

Performance: 0.492 ns/day, 48.816 hours/ns, 5.690 timesteps/s
88.3% CPU use with 1 MPI tasks x no OpenMP threads

MPI task timing breakdown:
Section |  min time  |  avg time  |  max time  |%varavg| %total
---------------------------------------------------------------
Pair    | 99.317     | 99.317     | 99.317     |   0.0 | 56.51
Neigh   | 74.118     | 74.118     | 74.118     |   0.0 | 42.18
Comm    | 1.3642     | 1.3642     | 1.3642     |   0.0 |  0.78
Output  | 0.00014496 | 0.00014496 | 0.00014496 |   0.0 |  0.00
Modify  | 0.4702     | 0.4702     | 0.4702     |   0.0 |  0.27
Other   |            | 0.4687     |            |       |  0.27

Nlocal:    19652 ave 19652 max 19652 min
Histogram: 1 0 0 0 0 0 0 0 0 0
Nghost:    19157 ave 19157 max 19157 min
Histogram: 1 0 0 0 0 0 0 0 0 0
Neighs:    1.57722e+06 ave 1.57722e+06 max 1.57722e+06 min
Histogram: 1 0 0 0 0 0 0 0 0 0

Total # of neighbors = 1577216
Ave neighs/atom = 80.2573
Neighbor list builds = 1000
Dangerous builds not checked
Setting up Verlet run ...
  Unit style    : metal
  Current step  : 1000
  Time step     : 0.001
Per MPI rank memory allocation (min/avg/max) = 18.19 | 18.19 | 18.19 Mbytes
Step Temp Press TotEng PotEng Enthalpy 
    1000    481.32912   -85221.436   -61915.357   -63137.977   -78640.322 
    2000    398.50055   -1491.4546   -66563.221   -67575.448   -66790.406 
Loop time of 231.319 on 1 procs for 1000 steps with 19652 atoms

Performance: 0.374 ns/day, 64.255 hours/ns, 4.323 timesteps/s
90.4% CPU use with 1 MPI tasks x no OpenMP threads

MPI task timing breakdown:
Section |  min time  |  avg time  |  max time  |%varavg| %total
---------------------------------------------------------------
Pair    | 128.16     | 128.16     | 128.16     |   0.0 | 55.40
Neigh   | 99.611     | 99.611     | 99.611     |   0.0 | 43.06
Comm    | 1.4085     | 1.4085     | 1.4085     |   0.0 |  0.61
Output  | 0.00017881 | 0.00017881 | 0.00017881 |   0.0 |  0.00
Modify  | 1.6665     | 1.6665     | 1.6665     |   0.0 |  0.72
Other   |            | 0.4754     |            |       |  0.21

Nlocal:    19652 ave 19652 max 19652 min
Histogram: 1 0 0 0 0 0 0 0 0 0
Nghost:    20330 ave 20330 max 20330 min
Histogram: 1 0 0 0 0 0 0 0 0 0
Neighs:    2.01012e+06 ave 2.01012e+06 max 2.01012e+06 min
Histogram: 1 0 0 0 0 0 0 0 0 0

Total # of neighbors = 2010122
Ave neighs/atom = 102.286
Neighbor list builds = 1000
Dangerous builds not checked
Setting up Verlet run ...
  Unit style    : metal
  Current step  : 2000
  Time step     : 0.001
Per MPI rank memory allocation (min/avg/max) = 19.33 | 19.33 | 19.33 Mbytes
Step Temp Press TotEng PotEng Enthalpy 
    2000    398.50055   -1491.4546   -66563.221   -67575.448   -66790.406 
    5000    1077.9255    685.67513   -63789.258   -66527.287   -63683.164 
   10000    2458.4315    810.90467   -53654.894   -59899.534   -53506.862 
Loop time of 1744.1 on 1 procs for 8000 steps with 19652 atoms

Performance: 0.396 ns/day, 60.559 hours/ns, 4.587 timesteps/s
91.7% CPU use with 1 MPI tasks x no OpenMP threads

MPI task timing breakdown:
Section |  min time  |  avg time  |  max time  |%varavg| %total
---------------------------------------------------------------
Pair    | 964.16     | 964.16     | 964.16     |   0.0 | 55.28
Neigh   | 752.61     | 752.61     | 752.61     |   0.0 | 43.15
Comm    | 10.517     | 10.517     | 10.517     |   0.0 |  0.60
Output  | 0.30901    | 0.30901    | 0.30901    |   0.0 |  0.02
Modify  | 12.973     | 12.973     | 12.973     |   0.0 |  0.74
Other   |            | 3.526      |            |       |  0.20

Nlocal:    19652 ave 19652 max 19652 min
Histogram: 1 0 0 0 0 0 0 0 0 0
Nghost:    19281 ave 19281 max 19281 min
Histogram: 1 0 0 0 0 0 0 0 0 0
Neighs:    1.68492e+06 ave 1.68492e+06 max 1.68492e+06 min
Histogram: 1 0 0 0 0 0 0 0 0 0

Total # of neighbors = 1684918
Ave neighs/atom = 85.7377
Neighbor list builds = 8000
Dangerous builds not checked
Setting up Verlet run ...
  Unit style    : metal
  Current step  : 10000
  Time step     : 0.001
Per MPI rank memory allocation (min/avg/max) = 19.34 | 19.34 | 19.34 Mbytes
Step Temp Press TotEng PotEng Enthalpy 
   10000    2458.4315    810.90467   -53654.894   -59899.534   -53506.862 
   15000    2473.6539   -385.88895   -53465.328   -59748.635    -53536.11 
   20000    2442.0756    1919.2185   -53628.984   -59832.078   -53278.479 
   25000    2473.0571     1582.871   -53457.062   -59738.852   -53167.109 
   30000    2439.7621    3010.9146   -53568.504   -59765.723   -53018.331 
   35000    2461.1483   -642.56068   -53449.227   -59700.768   -53567.337 
   40000    2447.5617    930.24732   -53492.982   -59710.012   -53322.359 
Loop time of 6915.45 on 1 procs for 30000 steps with 19652 atoms

Performance: 0.375 ns/day, 64.032 hours/ns, 4.338 timesteps/s
88.9% CPU use with 1 MPI tasks x no OpenMP threads

MPI task timing breakdown:
Section |  min time  |  avg time  |  max time  |%varavg| %total
---------------------------------------------------------------
Pair    | 3861.1     | 3861.1     | 3861.1     |   0.0 | 55.83
Neigh   | 2942       | 2942       | 2942       |   0.0 | 42.54
Comm    | 43.694     | 43.694     | 43.694     |   0.0 |  0.63
Output  | 0.45613    | 0.45613    | 0.45613    |   0.0 |  0.01
Modify  | 53.59      | 53.59      | 53.59      |   0.0 |  0.77
Other   |            | 14.63      |            |       |  0.21

Nlocal:    19652 ave 19652 max 19652 min
Histogram: 1 0 0 0 0 0 0 0 0 0
Nghost:    19230 ave 19230 max 19230 min
Histogram: 1 0 0 0 0 0 0 0 0 0
Neighs:    1.67714e+06 ave 1.67714e+06 max 1.67714e+06 min
Histogram: 1 0 0 0 0 0 0 0 0 0

Total # of neighbors = 1677141
Ave neighs/atom = 85.342
Neighbor list builds = 30000
Dangerous builds not checked
Setting up Verlet run ...
  Unit style    : metal
  Current step  : 40000
  Time step     : 0.001
Per MPI rank memory allocation (min/avg/max) = 19.34 | 19.34 | 19.34 Mbytes
Step Temp Press TotEng PotEng Enthalpy 
   40000    2447.5617    930.24732   -53492.982   -59710.012   -53322.359 
   40495    2418.3421     690.0028   -53735.264   -59878.073   -53609.221 
Loop time of 128.188 on 1 procs for 495 steps with 19652 atoms

Performance: 0.334 ns/day, 71.935 hours/ns, 3.862 timesteps/s
73.8% CPU use with 1 MPI tasks x no OpenMP threads

MPI task timing breakdown:
Section |  min time  |  avg time  |  max time  |%varavg| %total
---------------------------------------------------------------
Pair    | 70.321     | 70.321     | 70.321     |   0.0 | 54.86
Neigh   | 55.714     | 55.714     | 55.714     |   0.0 | 43.46
Comm    | 0.80117    | 0.80117    | 0.80117    |   0.0 |  0.62
Output  | 0.00012112 | 0.00012112 | 0.00012112 |   0.0 |  0.00
Modify  | 1.0465     | 1.0465     | 1.0465     |   0.0 |  0.82
Other   |            | 0.3053     |            |       |  0.24

Nlocal:    19652 ave 19652 max 19652 min
Histogram: 1 0 0 0 0 0 0 0 0 0
Nghost:    19199 ave 19199 max 19199 min
Histogram: 1 0 0 0 0 0 0 0 0 0
Neighs:    1.68444e+06 ave 1.68444e+06 max 1.68444e+06 min
Histogram: 1 0 0 0 0 0 0 0 0 0

Total # of neighbors = 1684445
Ave neighs/atom = 85.7137
Neighbor list builds = 495
Dangerous builds not checked
Setting up Verlet run ...
  Unit style    : metal
  Current step  : 40495
  Time step     : 0.001
Per MPI rank memory allocation (min/avg/max) = 19.34 | 19.34 | 19.34 Mbytes
Step Temp Press TotEng PotEng Enthalpy 
   40495    2418.3421     690.0028   -53735.264   -59878.073   -53609.221 
   45000    2390.4431   -742.05636   -53856.485   -59928.428   -53992.004 
Loop time of 1041.2 on 1 procs for 4505 steps with 19652 atoms

Performance: 0.374 ns/day, 64.200 hours/ns, 4.327 timesteps/s
74.0% CPU use with 1 MPI tasks x no OpenMP threads

MPI task timing breakdown:
Section |  min time  |  avg time  |  max time  |%varavg| %total
---------------------------------------------------------------
Pair    | 573.56     | 573.56     | 573.56     |   0.0 | 55.09
Neigh   | 450.82     | 450.82     | 450.82     |   0.0 | 43.30
Comm    | 6.5499     | 6.5499     | 6.5499     |   0.0 |  0.63
Output  | 0.060976   | 0.060976   | 0.060976   |   0.0 |  0.01
Modify  | 7.9929     | 7.9929     | 7.9929     |   0.0 |  0.77
Other   |            | 2.216      |            |       |  0.21

Nlocal:    19652 ave 19652 max 19652 min
Histogram: 1 0 0 0 0 0 0 0 0 0
Nghost:    19249 ave 19249 max 19249 min
Histogram: 1 0 0 0 0 0 0 0 0 0
Neighs:    1.68474e+06 ave 1.68474e+06 max 1.68474e+06 min
Histogram: 1 0 0 0 0 0 0 0 0 0

Total # of neighbors = 1684745
Ave neighs/atom = 85.7289
Neighbor list builds = 4505
Dangerous builds not checked
Setting up Verlet run ...
  Unit style    : metal
  Current step  : 45000
  Time step     : 0.001
Per MPI rank memory allocation (min/avg/max) = 19.34 | 19.34 | 19.34 Mbytes
Step Temp Press TotEng PotEng Enthalpy 
   45000    2390.4431   -742.05636   -53856.485   -59928.428   -53992.004 
   45495    2360.9332    10.571375   -54067.045   -60064.031   -54065.124 
Loop time of 129.381 on 1 procs for 495 steps with 19652 atoms

Performance: 0.331 ns/day, 72.604 hours/ns, 3.826 timesteps/s
66.3% CPU use with 1 MPI tasks x no OpenMP threads

MPI task timing breakdown:
Section |  min time  |  avg time  |  max time  |%varavg| %total
---------------------------------------------------------------
Pair    | 71.509     | 71.509     | 71.509     |   0.0 | 55.27
Neigh   | 55.777     | 55.777     | 55.777     |   0.0 | 43.11
Comm    | 0.74013    | 0.74013    | 0.74013    |   0.0 |  0.57
Output  | 0.00013185 | 0.00013185 | 0.00013185 |   0.0 |  0.00
Modify  | 1.0811     | 1.0811     | 1.0811     |   0.0 |  0.84
Other   |            | 0.2726     |            |       |  0.21

Nlocal:    19652 ave 19652 max 19652 min
Histogram: 1 0 0 0 0 0 0 0 0 0
Nghost:    19347 ave 19347 max 19347 min
Histogram: 1 0 0 0 0 0 0 0 0 0
Neighs:    1.69306e+06 ave 1.69306e+06 max 1.69306e+06 min
Histogram: 1 0 0 0 0 0 0 0 0 0

Total # of neighbors = 1693060
Ave neighs/atom = 86.152
Neighbor list builds = 495
Dangerous builds not checked
Setting up Verlet run ...
  Unit style    : metal
  Current step  : 45495
  Time step     : 0.001
Per MPI rank memory allocation (min/avg/max) = 19.34 | 19.34 | 19.34 Mbytes
Step Temp Press TotEng PotEng Enthalpy 
   45495    2360.9332    10.571375   -54067.045   -60064.031   -54065.124 
   50000    2351.8376    1862.1548   -54178.343   -60152.225   -53841.445 
Loop time of 974.733 on 1 procs for 4505 steps with 19652 atoms

Performance: 0.399 ns/day, 60.102 hours/ns, 4.622 timesteps/s
81.3% CPU use with 1 MPI tasks x no OpenMP threads

MPI task timing breakdown:
Section |  min time  |  avg time  |  max time  |%varavg| %total
---------------------------------------------------------------
Pair    | 537.99     | 537.99     | 537.99     |   0.0 | 55.19
Neigh   | 421.06     | 421.06     | 421.06     |   0.0 | 43.20
Comm    | 6.0963     | 6.0963     | 6.0963     |   0.0 |  0.63
Output  | 0.080645   | 0.080645   | 0.080645   |   0.0 |  0.01
Modify  | 7.4995     | 7.4995     | 7.4995     |   0.0 |  0.77
Other   |            | 2.004      |            |       |  0.21

Nlocal:    19652 ave 19652 max 19652 min
Histogram: 1 0 0 0 0 0 0 0 0 0
Nghost:    19410 ave 19410 max 19410 min
Histogram: 1 0 0 0 0 0 0 0 0 0
Neighs:    1.69966e+06 ave 1.69966e+06 max 1.69966e+06 min
Histogram: 1 0 0 0 0 0 0 0 0 0

Total # of neighbors = 1699663
Ave neighs/atom = 86.488
Neighbor list builds = 4505
Dangerous builds not checked
Setting up Verlet run ...
  Unit style    : metal
  Current step  : 50000
  Time step     : 0.001
Per MPI rank memory allocation (min/avg/max) = 19.34 | 19.34 | 19.34 Mbytes
Step Temp Press TotEng PotEng Enthalpy 
   50000    2351.8376    1862.1548   -54178.343   -60152.225   -53841.445 
   50495    2315.9147    296.79795   -54372.055   -60254.689   -54318.412 
Loop time of 101.092 on 1 procs for 495 steps with 19652 atoms

Performance: 0.423 ns/day, 56.730 hours/ns, 4.897 timesteps/s
97.1% CPU use with 1 MPI tasks x no OpenMP threads

MPI task timing breakdown:
Section |  min time  |  avg time  |  max time  |%varavg| %total
---------------------------------------------------------------
Pair    | 56.015     | 56.015     | 56.015     |   0.0 | 55.41
Neigh   | 43.392     | 43.392     | 43.392     |   0.0 | 42.92
Comm    | 0.64439    | 0.64439    | 0.64439    |   0.0 |  0.64
Output  | 0.00018787 | 0.00018787 | 0.00018787 |   0.0 |  0.00
Modify  | 0.81279    | 0.81279    | 0.81279    |   0.0 |  0.80
Other   |            | 0.2287     |            |       |  0.23

Nlocal:    19652 ave 19652 max 19652 min
Histogram: 1 0 0 0 0 0 0 0 0 0
Nghost:    19338 ave 19338 max 19338 min
Histogram: 1 0 0 0 0 0 0 0 0 0
Neighs:    1.70156e+06 ave 1.70156e+06 max 1.70156e+06 min
Histogram: 1 0 0 0 0 0 0 0 0 0

Total # of neighbors = 1701565
Ave neighs/atom = 86.5848
Neighbor list builds = 495
Dangerous builds not checked
Setting up Verlet run ...
  Unit style    : metal
  Current step  : 50495
  Time step     : 0.001
Per MPI rank memory allocation (min/avg/max) = 19.34 | 19.34 | 19.34 Mbytes
Step Temp Press TotEng PotEng Enthalpy 
   50495    2315.9147    296.79795   -54372.055   -60254.689   -54318.412 
   55000    2303.4187    746.63394   -54429.127    -60280.02   -54294.354 
Loop time of 897.508 on 1 procs for 4505 steps with 19652 atoms

Performance: 0.434 ns/day, 55.340 hours/ns, 5.019 timesteps/s
97.9% CPU use with 1 MPI tasks x no OpenMP threads

MPI task timing breakdown:
Section |  min time  |  avg time  |  max time  |%varavg| %total
---------------------------------------------------------------
Pair    | 495.3      | 495.3      | 495.3      |   0.0 | 55.19
Neigh   | 387.6      | 387.6      | 387.6      |   0.0 | 43.19
Comm    | 5.5615     | 5.5615     | 5.5615     |   0.0 |  0.62
Output  | 0.13232    | 0.13232    | 0.13232    |   0.0 |  0.01
Modify  | 6.9904     | 6.9904     | 6.9904     |   0.0 |  0.78
Other   |            | 1.922      |            |       |  0.21

Nlocal:    19652 ave 19652 max 19652 min
Histogram: 1 0 0 0 0 0 0 0 0 0
Nghost:    19435 ave 19435 max 19435 min
Histogram: 1 0 0 0 0 0 0 0 0 0
Neighs:    1.70402e+06 ave 1.70402e+06 max 1.70402e+06 min
Histogram: 1 0 0 0 0 0 0 0 0 0

Total # of neighbors = 1704022
Ave neighs/atom = 86.7099
Neighbor list builds = 4505
Dangerous builds not checked
Setting up Verlet run ...
  Unit style    : metal
  Current step  : 55000
  Time step     : 0.001
Per MPI rank memory allocation (min/avg/max) = 19.34 | 19.34 | 19.34 Mbytes
Step Temp Press TotEng PotEng Enthalpy 
   55000    2303.4187    746.63394   -54429.127    -60280.02   -54294.354 
   55495    2272.7543    1008.3845   -54637.506   -60410.509   -54455.973 
Loop time of 98.3521 on 1 procs for 495 steps with 19652 atoms

Performance: 0.435 ns/day, 55.192 hours/ns, 5.033 timesteps/s
100.0% CPU use with 1 MPI tasks x no OpenMP threads

MPI task timing breakdown:
Section |  min time  |  avg time  |  max time  |%varavg| %total
---------------------------------------------------------------
Pair    | 54.795     | 54.795     | 54.795     |   0.0 | 55.71
Neigh   | 41.919     | 41.919     | 41.919     |   0.0 | 42.62
Comm    | 0.62604    | 0.62604    | 0.62604    |   0.0 |  0.64
Output  | 0.00018096 | 0.00018096 | 0.00018096 |   0.0 |  0.00
Modify  | 0.78958    | 0.78958    | 0.78958    |   0.0 |  0.80
Other   |            | 0.2228     |            |       |  0.23

Nlocal:    19652 ave 19652 max 19652 min
Histogram: 1 0 0 0 0 0 0 0 0 0
Nghost:    19339 ave 19339 max 19339 min
Histogram: 1 0 0 0 0 0 0 0 0 0
Neighs:    1.70814e+06 ave 1.70814e+06 max 1.70814e+06 min
Histogram: 1 0 0 0 0 0 0 0 0 0

Total # of neighbors = 1708135
Ave neighs/atom = 86.9191
Neighbor list builds = 495
Dangerous builds not checked
Setting up Verlet run ...
  Unit style    : metal
  Current step  : 55495
  Time step     : 0.001
Per MPI rank memory allocation (min/avg/max) = 19.34 | 19.34 | 19.34 Mbytes
Step Temp Press TotEng PotEng Enthalpy 
   55495    2272.7543    1008.3845   -54637.506   -60410.509   -54455.973 
   60000    2242.2065   -406.97733   -54726.164   -60421.573   -54799.451 
Loop time of 888.554 on 1 procs for 4505 steps with 19652 atoms

Performance: 0.438 ns/day, 54.788 hours/ns, 5.070 timesteps/s
98.6% CPU use with 1 MPI tasks x no OpenMP threads

MPI task timing breakdown:
Section |  min time  |  avg time  |  max time  |%varavg| %total
---------------------------------------------------------------
Pair    | 492.56     | 492.56     | 492.56     |   0.0 | 55.43
Neigh   | 381.45     | 381.45     | 381.45     |   0.0 | 42.93
Comm    | 5.6161     | 5.6161     | 5.6161     |   0.0 |  0.63
Output  | 0.075913   | 0.075913   | 0.075913   |   0.0 |  0.01
Modify  | 6.943      | 6.943      | 6.943      |   0.0 |  0.78
Other   |            | 1.914      |            |       |  0.22

Nlocal:    19652 ave 19652 max 19652 min
Histogram: 1 0 0 0 0 0 0 0 0 0
Nghost:    19382 ave 19382 max 19382 min
Histogram: 1 0 0 0 0 0 0 0 0 0
Neighs:    1.70785e+06 ave 1.70785e+06 max 1.70785e+06 min
Histogram: 1 0 0 0 0 0 0 0 0 0

Total # of neighbors = 1707852
Ave neighs/atom = 86.9047
Neighbor list builds = 4505
Dangerous builds not checked
Setting up Verlet run ...
  Unit style    : metal
  Current step  : 60000
  Time step     : 0.001
Per MPI rank memory allocation (min/avg/max) = 19.34 | 19.34 | 19.34 Mbytes
Step Temp Press TotEng PotEng Enthalpy 
   60000    2242.2065   -406.97733   -54726.164   -60421.573   -54799.451 
   60495     2222.245   -1086.9403   -54920.032   -60564.737   -55115.008 
Loop time of 114.065 on 1 procs for 495 steps with 19652 atoms

Performance: 0.375 ns/day, 64.010 hours/ns, 4.340 timesteps/s
99.0% CPU use with 1 MPI tasks x no OpenMP threads

MPI task timing breakdown:
Section |  min time  |  avg time  |  max time  |%varavg| %total
---------------------------------------------------------------
Pair    | 65.982     | 65.982     | 65.982     |   0.0 | 57.85
Neigh   | 46.079     | 46.079     | 46.079     |   0.0 | 40.40
Comm    | 0.7861     | 0.7861     | 0.7861     |   0.0 |  0.69
Output  | 0.00017405 | 0.00017405 | 0.00017405 |   0.0 |  0.00
Modify  | 0.96586    | 0.96586    | 0.96586    |   0.0 |  0.85
Other   |            | 0.252      |            |       |  0.22

Nlocal:    19652 ave 19652 max 19652 min
Histogram: 1 0 0 0 0 0 0 0 0 0
Nghost:    19479 ave 19479 max 19479 min
Histogram: 1 0 0 0 0 0 0 0 0 0
Neighs:    1.71501e+06 ave 1.71501e+06 max 1.71501e+06 min
Histogram: 1 0 0 0 0 0 0 0 0 0

Total # of neighbors = 1715010
Ave neighs/atom = 87.269
Neighbor list builds = 495
Dangerous builds not checked
Setting up Verlet run ...
  Unit style    : metal
  Current step  : 60495
  Time step     : 0.001
Per MPI rank memory allocation (min/avg/max) = 19.34 | 19.34 | 19.34 Mbytes
Step Temp Press TotEng PotEng Enthalpy 
   60495     2222.245   -1086.9403   -54920.032   -60564.737   -55115.008 
   65000    2204.4062   -100.11117    -55008.96   -60608.352   -55026.889 
Loop time of 926.39 on 1 procs for 4505 steps with 19652 atoms

Performance: 0.420 ns/day, 57.121 hours/ns, 4.863 timesteps/s
99.0% CPU use with 1 MPI tasks x no OpenMP threads

MPI task timing breakdown:
Section |  min time  |  avg time  |  max time  |%varavg| %total
---------------------------------------------------------------
Pair    | 516.82     | 516.82     | 516.82     |   0.0 | 55.79
Neigh   | 394.43     | 394.43     | 394.43     |   0.0 | 42.58
Comm    | 5.8324     | 5.8324     | 5.8324     |   0.0 |  0.63
Output  | 0.084401   | 0.084401   | 0.084401   |   0.0 |  0.01
Modify  | 7.1505     | 7.1505     | 7.1505     |   0.0 |  0.77
Other   |            | 2.074      |            |       |  0.22

Nlocal:    19652 ave 19652 max 19652 min
Histogram: 1 0 0 0 0 0 0 0 0 0
Nghost:    19391 ave 19391 max 19391 min
Histogram: 1 0 0 0 0 0 0 0 0 0
Neighs:    1.71711e+06 ave 1.71711e+06 max 1.71711e+06 min
Histogram: 1 0 0 0 0 0 0 0 0 0

Total # of neighbors = 1717108
Ave neighs/atom = 87.3757
Neighbor list builds = 4505
Dangerous builds not checked
Setting up Verlet run ...
  Unit style    : metal
  Current step  : 65000
  Time step     : 0.001
Per MPI rank memory allocation (min/avg/max) = 19.34 | 19.34 | 19.34 Mbytes
Step Temp Press TotEng PotEng Enthalpy 
   65000    2204.4062   -100.11117    -55008.96   -60608.352   -55026.889 
   65495    2165.5834   -150.55682   -55189.414   -60690.193   -55216.318 
Loop time of 107.127 on 1 procs for 495 steps with 19652 atoms

Performance: 0.399 ns/day, 60.116 hours/ns, 4.621 timesteps/s
97.3% CPU use with 1 MPI tasks x no OpenMP threads

MPI task timing breakdown:
Section |  min time  |  avg time  |  max time  |%varavg| %total
---------------------------------------------------------------
Pair    | 59.573     | 59.573     | 59.573     |   0.0 | 55.61
Neigh   | 45.823     | 45.823     | 45.823     |   0.0 | 42.77
Comm    | 0.64568    | 0.64568    | 0.64568    |   0.0 |  0.60
Output  | 0.00017905 | 0.00017905 | 0.00017905 |   0.0 |  0.00
Modify  | 0.8443     | 0.8443     | 0.8443     |   0.0 |  0.79
Other   |            | 0.2404     |            |       |  0.22

Nlocal:    19652 ave 19652 max 19652 min
Histogram: 1 0 0 0 0 0 0 0 0 0
Nghost:    19368 ave 19368 max 19368 min
Histogram: 1 0 0 0 0 0 0 0 0 0
Neighs:    1.72036e+06 ave 1.72036e+06 max 1.72036e+06 min
Histogram: 1 0 0 0 0 0 0 0 0 0

Total # of neighbors = 1720365
Ave neighs/atom = 87.5415
Neighbor list builds = 495
Dangerous builds not checked
Setting up Verlet run ...
  Unit style    : metal
  Current step  : 65495
  Time step     : 0.001
Per MPI rank memory allocation (min/avg/max) = 19.34 | 19.34 | 19.34 Mbytes
Step Temp Press TotEng PotEng Enthalpy 
   65495    2165.5834   -150.55682   -55189.414   -60690.193   -55216.318 
   70000    2156.0429   -87.381914   -55227.522   -60704.068   -55243.132 
Loop time of 900.824 on 1 procs for 4505 steps with 19652 atoms

Performance: 0.432 ns/day, 55.545 hours/ns, 5.001 timesteps/s
92.1% CPU use with 1 MPI tasks x no OpenMP threads

MPI task timing breakdown:
Section |  min time  |  avg time  |  max time  |%varavg| %total
---------------------------------------------------------------
Pair    | 499.79     | 499.79     | 499.79     |   0.0 | 55.48
Neigh   | 386.47     | 386.47     | 386.47     |   0.0 | 42.90
Comm    | 5.6972     | 5.6972     | 5.6972     |   0.0 |  0.63
Output  | 0.083553   | 0.083553   | 0.083553   |   0.0 |  0.01
Modify  | 6.868      | 6.868      | 6.868      |   0.0 |  0.76
Other   |            | 1.908      |            |       |  0.21

Nlocal:    19652 ave 19652 max 19652 min
Histogram: 1 0 0 0 0 0 0 0 0 0
Nghost:    19475 ave 19475 max 19475 min
Histogram: 1 0 0 0 0 0 0 0 0 0
Neighs:    1.7211e+06 ave 1.7211e+06 max 1.7211e+06 min
Histogram: 1 0 0 0 0 0 0 0 0 0

Total # of neighbors = 1721105
Ave neighs/atom = 87.5791
Neighbor list builds = 4505
Dangerous builds not checked
Setting up Verlet run ...
  Unit style    : metal
  Current step  : 70000
  Time step     : 0.001
Per MPI rank memory allocation (min/avg/max) = 19.34 | 19.34 | 19.34 Mbytes
Step Temp Press TotEng PotEng Enthalpy 
   70000    2156.0429   -87.381914   -55227.522   -60704.068   -55243.132 
   70495    2102.4798    803.89728   -55516.844   -60857.335   -55374.105 
Loop time of 91.4958 on 1 procs for 495 steps with 19652 atoms

Performance: 0.467 ns/day, 51.344 hours/ns, 5.410 timesteps/s
91.1% CPU use with 1 MPI tasks x no OpenMP threads

MPI task timing breakdown:
Section |  min time  |  avg time  |  max time  |%varavg| %total
---------------------------------------------------------------
Pair    | 49.814     | 49.814     | 49.814     |   0.0 | 54.44
Neigh   | 40.17      | 40.17      | 40.17      |   0.0 | 43.90
Comm    | 0.58235    | 0.58235    | 0.58235    |   0.0 |  0.64
Output  | 0.00015402 | 0.00015402 | 0.00015402 |   0.0 |  0.00
Modify  | 0.72123    | 0.72123    | 0.72123    |   0.0 |  0.79
Other   |            | 0.2084     |            |       |  0.23

Nlocal:    19652 ave 19652 max 19652 min
Histogram: 1 0 0 0 0 0 0 0 0 0
Nghost:    19518 ave 19518 max 19518 min
Histogram: 1 0 0 0 0 0 0 0 0 0
Neighs:    1.73205e+06 ave 1.73205e+06 max 1.73205e+06 min
Histogram: 1 0 0 0 0 0 0 0 0 0

Total # of neighbors = 1732049
Ave neighs/atom = 88.136
Neighbor list builds = 495
Dangerous builds not checked
Setting up Verlet run ...
  Unit style    : metal
  Current step  : 70495
  Time step     : 0.001
Per MPI rank memory allocation (min/avg/max) = 19.34 | 19.34 | 19.34 Mbytes
Step Temp Press TotEng PotEng Enthalpy 
   70495    2102.4798    803.89728   -55516.844   -60857.335   -55374.105 
   75000    2091.2638   -551.67785   -55662.363   -60974.364    -55760.26 
Loop time of 1066.95 on 1 procs for 4505 steps with 19652 atoms

Performance: 0.365 ns/day, 65.788 hours/ns, 4.222 timesteps/s
80.4% CPU use with 1 MPI tasks x no OpenMP threads

MPI task timing breakdown:
Section |  min time  |  avg time  |  max time  |%varavg| %total
---------------------------------------------------------------
Pair    | 594.32     | 594.32     | 594.32     |   0.0 | 55.70
Neigh   | 455.23     | 455.23     | 455.23     |   0.0 | 42.67
Comm    | 6.7548     | 6.7548     | 6.7548     |   0.0 |  0.63
Output  | 0.082943   | 0.082943   | 0.082943   |   0.0 |  0.01
Modify  | 8.2716     | 8.2716     | 8.2716     |   0.0 |  0.78
Other   |            | 2.297      |            |       |  0.22

Nlocal:    19652 ave 19652 max 19652 min
Histogram: 1 0 0 0 0 0 0 0 0 0
Nghost:    19499 ave 19499 max 19499 min
Histogram: 1 0 0 0 0 0 0 0 0 0
Neighs:    1.73214e+06 ave 1.73214e+06 max 1.73214e+06 min
Histogram: 1 0 0 0 0 0 0 0 0 0

Total # of neighbors = 1732140
Ave neighs/atom = 88.1406
Neighbor list builds = 4505
Dangerous builds not checked
Setting up Verlet run ...
  Unit style    : metal
  Current step  : 75000
  Time step     : 0.001
Per MPI rank memory allocation (min/avg/max) = 19.34 | 19.34 | 19.34 Mbytes
Step Temp Press TotEng PotEng Enthalpy 
   75000    2091.2638   -551.67785   -55662.363   -60974.364    -55760.26 
   75495    2071.1061   -1374.5194   -55766.034   -61026.832   -56009.731 
Loop time of 98.8147 on 1 procs for 495 steps with 19652 atoms

Performance: 0.433 ns/day, 55.452 hours/ns, 5.009 timesteps/s
83.4% CPU use with 1 MPI tasks x no OpenMP threads

MPI task timing breakdown:
Section |  min time  |  avg time  |  max time  |%varavg| %total
---------------------------------------------------------------
Pair    | 54.876     | 54.876     | 54.876     |   0.0 | 55.53
Neigh   | 42.348     | 42.348     | 42.348     |   0.0 | 42.86
Comm    | 0.60812    | 0.60812    | 0.60812    |   0.0 |  0.62
Output  | 0.00017881 | 0.00017881 | 0.00017881 |   0.0 |  0.00
Modify  | 0.78384    | 0.78384    | 0.78384    |   0.0 |  0.79
Other   |            | 0.1988     |            |       |  0.20

Nlocal:    19652 ave 19652 max 19652 min
Histogram: 1 0 0 0 0 0 0 0 0 0
Nghost:    19486 ave 19486 max 19486 min
Histogram: 1 0 0 0 0 0 0 0 0 0
Neighs:    1.73342e+06 ave 1.73342e+06 max 1.73342e+06 min
Histogram: 1 0 0 0 0 0 0 0 0 0

Total # of neighbors = 1733419
Ave neighs/atom = 88.2057
Neighbor list builds = 495
Dangerous builds not checked
Setting up Verlet run ...
  Unit style    : metal
  Current step  : 75495
  Time step     : 0.001
Per MPI rank memory allocation (min/avg/max) = 19.34 | 19.34 | 19.34 Mbytes
Step Temp Press TotEng PotEng Enthalpy 
   75495    2071.1061   -1374.5194   -55766.034   -61026.832   -56009.731 
   80000    2068.7142    1134.7861   -55846.145   -61100.868   -55645.825 
Loop time of 953.988 on 1 procs for 4505 steps with 19652 atoms

Performance: 0.408 ns/day, 58.823 hours/ns, 4.722 timesteps/s
87.8% CPU use with 1 MPI tasks x no OpenMP threads

MPI task timing breakdown:
Section |  min time  |  avg time  |  max time  |%varavg| %total
---------------------------------------------------------------
Pair    | 530.04     | 530.04     | 530.04     |   0.0 | 55.56
Neigh   | 408.28     | 408.28     | 408.28     |   0.0 | 42.80
Comm    | 6.1059     | 6.1059     | 6.1059     |   0.0 |  0.64
Output  | 0.098932   | 0.098932   | 0.098932   |   0.0 |  0.01
Modify  | 7.4225     | 7.4225     | 7.4225     |   0.0 |  0.78
Other   |            | 2.044      |            |       |  0.21

Nlocal:    19652 ave 19652 max 19652 min
Histogram: 1 0 0 0 0 0 0 0 0 0
Nghost:    19566 ave 19566 max 19566 min
Histogram: 1 0 0 0 0 0 0 0 0 0
Neighs:    1.7418e+06 ave 1.7418e+06 max 1.7418e+06 min
Histogram: 1 0 0 0 0 0 0 0 0 0

Total # of neighbors = 1741796
Ave neighs/atom = 88.632
Neighbor list builds = 4505
Dangerous builds not checked
Setting up Verlet run ...
  Unit style    : metal
  Current step  : 80000
  Time step     : 0.001
Per MPI rank memory allocation (min/avg/max) = 19.34 | 19.34 | 19.34 Mbytes
Step Temp Press TotEng PotEng Enthalpy 
   80000    2068.7142    1134.7861   -55846.145   -61100.868   -55645.825 
   80495    2033.2034    -134.0181   -56057.733   -61222.255   -56081.345 
Loop time of 100.282 on 1 procs for 495 steps with 19652 atoms

Performance: 0.426 ns/day, 56.275 hours/ns, 4.936 timesteps/s
97.0% CPU use with 1 MPI tasks x no OpenMP threads

MPI task timing breakdown:
Section |  min time  |  avg time  |  max time  |%varavg| %total
---------------------------------------------------------------
Pair    | 55.448     | 55.448     | 55.448     |   0.0 | 55.29
Neigh   | 43.186     | 43.186     | 43.186     |   0.0 | 43.06
Comm    | 0.62512    | 0.62512    | 0.62512    |   0.0 |  0.62
Output  | 0.00015807 | 0.00015807 | 0.00015807 |   0.0 |  0.00
Modify  | 0.80479    | 0.80479    | 0.80479    |   0.0 |  0.80
Other   |            | 0.2175     |            |       |  0.22

Nlocal:    19652 ave 19652 max 19652 min
Histogram: 1 0 0 0 0 0 0 0 0 0
Nghost:    19580 ave 19580 max 19580 min
Histogram: 1 0 0 0 0 0 0 0 0 0
Neighs:    1.74491e+06 ave 1.74491e+06 max 1.74491e+06 min
Histogram: 1 0 0 0 0 0 0 0 0 0

Total # of neighbors = 1744909
Ave neighs/atom = 88.7904
Neighbor list builds = 495
Dangerous builds not checked
Setting up Verlet run ...
  Unit style    : metal
  Current step  : 80495
  Time step     : 0.001
Per MPI rank memory allocation (min/avg/max) = 19.34 | 19.34 | 19.34 Mbytes
Step Temp Press TotEng PotEng Enthalpy 
   80495    2033.2034    -134.0181   -56057.733   -61222.255   -56081.345 
   85000    2013.9881    425.94761   -56160.827   -61276.541   -56085.928 
Loop time of 1142.6 on 1 procs for 4505 steps with 19652 atoms

Performance: 0.341 ns/day, 70.453 hours/ns, 3.943 timesteps/s
77.8% CPU use with 1 MPI tasks x no OpenMP threads

MPI task timing breakdown:
Section |  min time  |  avg time  |  max time  |%varavg| %total
---------------------------------------------------------------
Pair    | 640.01     | 640.01     | 640.01     |   0.0 | 56.01
Neigh   | 483.72     | 483.72     | 483.72     |   0.0 | 42.33
Comm    | 7.2609     | 7.2609     | 7.2609     |   0.0 |  0.64
Output  | 0.36209    | 0.36209    | 0.36209    |   0.0 |  0.03
Modify  | 8.7462     | 8.7462     | 8.7462     |   0.0 |  0.77
Other   |            | 2.501      |            |       |  0.22

Nlocal:    19652 ave 19652 max 19652 min
Histogram: 1 0 0 0 0 0 0 0 0 0
Nghost:    19585 ave 19585 max 19585 min
Histogram: 1 0 0 0 0 0 0 0 0 0
Neighs:    1.74717e+06 ave 1.74717e+06 max 1.74717e+06 min
Histogram: 1 0 0 0 0 0 0 0 0 0

Total # of neighbors = 1747170
Ave neighs/atom = 88.9055
Neighbor list builds = 4505
Dangerous builds not checked
Setting up Verlet run ...
  Unit style    : metal
  Current step  : 85000
  Time step     : 0.001
Per MPI rank memory allocation (min/avg/max) = 19.34 | 19.34 | 19.34 Mbytes
Step Temp Press TotEng PotEng Enthalpy 
   85000    2013.9881    425.94761   -56160.827   -61276.541   -56085.928 
   85495    1968.7823    822.59246   -56411.962   -61412.848   -56267.969 
Loop time of 134.971 on 1 procs for 495 steps with 19652 atoms

Performance: 0.317 ns/day, 75.742 hours/ns, 3.667 timesteps/s
69.1% CPU use with 1 MPI tasks x no OpenMP threads

MPI task timing breakdown:
Section |  min time  |  avg time  |  max time  |%varavg| %total
---------------------------------------------------------------
Pair    | 76.568     | 76.568     | 76.568     |   0.0 | 56.73
Neigh   | 56.121     | 56.121     | 56.121     |   0.0 | 41.58
Comm    | 0.93734    | 0.93734    | 0.93734    |   0.0 |  0.69
Output  | 0.00019908 | 0.00019908 | 0.00019908 |   0.0 |  0.00
Modify  | 1.062      | 1.062      | 1.062      |   0.0 |  0.79
Other   |            | 0.2832     |            |       |  0.21

Nlocal:    19652 ave 19652 max 19652 min
Histogram: 1 0 0 0 0 0 0 0 0 0
Nghost:    19667 ave 19667 max 19667 min
Histogram: 1 0 0 0 0 0 0 0 0 0
Neighs:    1.75582e+06 ave 1.75582e+06 max 1.75582e+06 min
Histogram: 1 0 0 0 0 0 0 0 0 0

Total # of neighbors = 1755819
Ave neighs/atom = 89.3456
Neighbor list builds = 495
Dangerous builds not checked
Setting up Verlet run ...
  Unit style    : metal
  Current step  : 85495
  Time step     : 0.001
Per MPI rank memory allocation (min/avg/max) = 19.34 | 19.34 | 19.34 Mbytes
Step Temp Press TotEng PotEng Enthalpy 
   85495    1968.7823    822.59246   -56411.962   -61412.848   -56267.969 
   90000    1956.2906    432.73517     -56461.7   -61430.857   -56385.924 
Loop time of 976.623 on 1 procs for 4505 steps with 19652 atoms

Performance: 0.399 ns/day, 60.218 hours/ns, 4.613 timesteps/s
96.9% CPU use with 1 MPI tasks x no OpenMP threads

MPI task timing breakdown:
Section |  min time  |  avg time  |  max time  |%varavg| %total
---------------------------------------------------------------
Pair    | 552.17     | 552.17     | 552.17     |   0.0 | 56.54
Neigh   | 408.38     | 408.38     | 408.38     |   0.0 | 41.82
Comm    | 6.221      | 6.221      | 6.221      |   0.0 |  0.64
Output  | 0.076139   | 0.076139   | 0.076139   |   0.0 |  0.01
Modify  | 7.6925     | 7.6925     | 7.6925     |   0.0 |  0.79
Other   |            | 2.081      |            |       |  0.21

Nlocal:    19652 ave 19652 max 19652 min
Histogram: 1 0 0 0 0 0 0 0 0 0
Nghost:    19597 ave 19597 max 19597 min
Histogram: 1 0 0 0 0 0 0 0 0 0
Neighs:    1.75467e+06 ave 1.75467e+06 max 1.75467e+06 min
Histogram: 1 0 0 0 0 0 0 0 0 0

Total # of neighbors = 1754668
Ave neighs/atom = 89.287
Neighbor list builds = 4505
Dangerous builds not checked
Setting up Verlet run ...
  Unit style    : metal
  Current step  : 90000
  Time step     : 0.001
Per MPI rank memory allocation (min/avg/max) = 19.34 | 19.34 | 19.34 Mbytes
Step Temp Press TotEng PotEng Enthalpy 
   90000    1956.2906    432.73517     -56461.7   -61430.857   -56385.924 
   90495    1916.0298    927.35046    -56699.94    -61566.83   -56538.248 
Loop time of 99.424 on 1 procs for 495 steps with 19652 atoms

Performance: 0.430 ns/day, 55.793 hours/ns, 4.979 timesteps/s
96.8% CPU use with 1 MPI tasks x no OpenMP threads

MPI task timing breakdown:
Section |  min time  |  avg time  |  max time  |%varavg| %total
---------------------------------------------------------------
Pair    | 56.32      | 56.32      | 56.32      |   0.0 | 56.65
Neigh   | 41.445     | 41.445     | 41.445     |   0.0 | 41.69
Comm    | 0.64257    | 0.64257    | 0.64257    |   0.0 |  0.65
Output  | 0.00016999 | 0.00016999 | 0.00016999 |   0.0 |  0.00
Modify  | 0.79952    | 0.79952    | 0.79952    |   0.0 |  0.80
Other   |            | 0.2167     |            |       |  0.22

Nlocal:    19652 ave 19652 max 19652 min
Histogram: 1 0 0 0 0 0 0 0 0 0
Nghost:    19677 ave 19677 max 19677 min
Histogram: 1 0 0 0 0 0 0 0 0 0
Neighs:    1.76216e+06 ave 1.76216e+06 max 1.76216e+06 min
Histogram: 1 0 0 0 0 0 0 0 0 0

Total # of neighbors = 1762162
Ave neighs/atom = 89.6683
Neighbor list builds = 495
Dangerous builds not checked
Setting up Verlet run ...
  Unit style    : metal
  Current step  : 90495
  Time step     : 0.001
Per MPI rank memory allocation (min/avg/max) = 19.34 | 19.34 | 19.34 Mbytes
Step Temp Press TotEng PotEng Enthalpy 
   90495    1916.0298    927.35046    -56699.94    -61566.83   -56538.248 
   95000    1892.2429    2155.6673   -56783.462   -61589.932   -56408.387 
Loop time of 893.475 on 1 procs for 4505 steps with 19652 atoms

Performance: 0.436 ns/day, 55.092 hours/ns, 5.042 timesteps/s
99.1% CPU use with 1 MPI tasks x no OpenMP threads

MPI task timing breakdown:
Section |  min time  |  avg time  |  max time  |%varavg| %total
---------------------------------------------------------------
Pair    | 502.32     | 502.32     | 502.32     |   0.0 | 56.22
Neigh   | 376.71     | 376.71     | 376.71     |   0.0 | 42.16
Comm    | 5.5813     | 5.5813     | 5.5813     |   0.0 |  0.62
Output  | 0.077241   | 0.077241   | 0.077241   |   0.0 |  0.01
Modify  | 6.9321     | 6.9321     | 6.9321     |   0.0 |  0.78
Other   |            | 1.851      |            |       |  0.21

Nlocal:    19652 ave 19652 max 19652 min
Histogram: 1 0 0 0 0 0 0 0 0 0
Nghost:    19655 ave 19655 max 19655 min
Histogram: 1 0 0 0 0 0 0 0 0 0
Neighs:    1.76615e+06 ave 1.76615e+06 max 1.76615e+06 min
Histogram: 1 0 0 0 0 0 0 0 0 0

Total # of neighbors = 1766151
Ave neighs/atom = 89.8713
Neighbor list builds = 4505
Dangerous builds not checked
Setting up Verlet run ...
  Unit style    : metal
  Current step  : 95000
  Time step     : 0.001
Per MPI rank memory allocation (min/avg/max) = 19.34 | 19.34 | 19.34 Mbytes
Step Temp Press TotEng PotEng Enthalpy 
   95000    1892.2429    2155.6673   -56783.462   -61589.932   -56408.387 
   95495    1872.8138    944.90083   -57008.934   -61766.051   -56845.066 
Loop time of 96.9907 on 1 procs for 495 steps with 19652 atoms

Performance: 0.441 ns/day, 54.428 hours/ns, 5.104 timesteps/s
99.4% CPU use with 1 MPI tasks x no OpenMP threads

MPI task timing breakdown:
Section |  min time  |  avg time  |  max time  |%varavg| %total
---------------------------------------------------------------
Pair    | 54.233     | 54.233     | 54.233     |   0.0 | 55.92
Neigh   | 41.094     | 41.094     | 41.094     |   0.0 | 42.37
Comm    | 0.63048    | 0.63048    | 0.63048    |   0.0 |  0.65
Output  | 0.00013709 | 0.00013709 | 0.00013709 |   0.0 |  0.00
Modify  | 0.81043    | 0.81043    | 0.81043    |   0.0 |  0.84
Other   |            | 0.2227     |            |       |  0.23

Nlocal:    19652 ave 19652 max 19652 min
Histogram: 1 0 0 0 0 0 0 0 0 0
Nghost:    19744 ave 19744 max 19744 min
Histogram: 1 0 0 0 0 0 0 0 0 0
Neighs:    1.77134e+06 ave 1.77134e+06 max 1.77134e+06 min
Histogram: 1 0 0 0 0 0 0 0 0 0

Total # of neighbors = 1771342
Ave neighs/atom = 90.1355
Neighbor list builds = 495
Dangerous builds not checked
Setting up Verlet run ...
  Unit style    : metal
  Current step  : 95495
  Time step     : 0.001
Per MPI rank memory allocation (min/avg/max) = 19.34 | 19.34 | 19.34 Mbytes
Step Temp Press TotEng PotEng Enthalpy 
   95495    1872.8138    944.90083   -57008.934   -61766.051   -56845.066 
  100000    1856.6812   -2340.1472    -57032.88   -61749.019   -57440.062 
Loop time of 936.052 on 1 procs for 4505 steps with 19652 atoms

Performance: 0.416 ns/day, 57.717 hours/ns, 4.813 timesteps/s
98.8% CPU use with 1 MPI tasks x no OpenMP threads

MPI task timing breakdown:
Section |  min time  |  avg time  |  max time  |%varavg| %total
---------------------------------------------------------------
Pair    | 527.98     | 527.98     | 527.98     |   0.0 | 56.40
Neigh   | 392.64     | 392.64     | 392.64     |   0.0 | 41.95
Comm    | 6.0103     | 6.0103     | 6.0103     |   0.0 |  0.64
Output  | 0.090261   | 0.090261   | 0.090261   |   0.0 |  0.01
Modify  | 7.2838     | 7.2838     | 7.2838     |   0.0 |  0.78
Other   |            | 2.054      |            |       |  0.22

Nlocal:    19652 ave 19652 max 19652 min
Histogram: 1 0 0 0 0 0 0 0 0 0
Nghost:    19615 ave 19615 max 19615 min
Histogram: 1 0 0 0 0 0 0 0 0 0
Neighs:    1.76498e+06 ave 1.76498e+06 max 1.76498e+06 min
Histogram: 1 0 0 0 0 0 0 0 0 0

Total # of neighbors = 1764980
Ave neighs/atom = 89.8117
Neighbor list builds = 4505
Dangerous builds not checked
Setting up Verlet run ...
  Unit style    : metal
  Current step  : 100000
  Time step     : 0.001
Per MPI rank memory allocation (min/avg/max) = 19.34 | 19.34 | 19.34 Mbytes
Step Temp Press TotEng PotEng Enthalpy 
  100000    1856.6812   -2340.1472    -57032.88   -61749.019   -57440.062 
  100495    1819.7882   -1366.6468   -57305.492    -61927.92   -57542.118 
Loop time of 99.9567 on 1 procs for 495 steps with 19652 atoms

Performance: 0.428 ns/day, 56.092 hours/ns, 4.952 timesteps/s
99.9% CPU use with 1 MPI tasks x no OpenMP threads

MPI task timing breakdown:
Section |  min time  |  avg time  |  max time  |%varavg| %total
---------------------------------------------------------------
Pair    | 56.577     | 56.577     | 56.577     |   0.0 | 56.60
Neigh   | 41.807     | 41.807     | 41.807     |   0.0 | 41.83
Comm    | 0.62554    | 0.62554    | 0.62554    |   0.0 |  0.63
Output  | 0.00022602 | 0.00022602 | 0.00022602 |   0.0 |  0.00
Modify  | 0.73017    | 0.73017    | 0.73017    |   0.0 |  0.73
Other   |            | 0.2169     |            |       |  0.22

Nlocal:    19652 ave 19652 max 19652 min
Histogram: 1 0 0 0 0 0 0 0 0 0
Nghost:    19761 ave 19761 max 19761 min
Histogram: 1 0 0 0 0 0 0 0 0 0
Neighs:    1.77384e+06 ave 1.77384e+06 max 1.77384e+06 min
Histogram: 1 0 0 0 0 0 0 0 0 0

Total # of neighbors = 1773838
Ave neighs/atom = 90.2625
Neighbor list builds = 495
Dangerous builds not checked
Setting up Verlet run ...
  Unit style    : metal
  Current step  : 100495
  Time step     : 0.001
Per MPI rank memory allocation (min/avg/max) = 19.34 | 19.34 | 19.34 Mbytes
Step Temp Press TotEng PotEng Enthalpy 
  100495    1819.7882   -1366.6468   -57305.492    -61927.92   -57542.118 
  105000     1804.351    3372.1468   -57390.346   -61973.562   -56810.217 
Loop time of 989.066 on 1 procs for 4505 steps with 19652 atoms

Performance: 0.394 ns/day, 60.986 hours/ns, 4.555 timesteps/s
98.7% CPU use with 1 MPI tasks x no OpenMP threads

MPI task timing breakdown:
Section |  min time  |  avg time  |  max time  |%varavg| %total
---------------------------------------------------------------
Pair    | 564.18     | 564.18     | 564.18     |   0.0 | 57.04
Neigh   | 408.82     | 408.82     | 408.82     |   0.0 | 41.33
Comm    | 6.3162     | 6.3162     | 6.3162     |   0.0 |  0.64
Output  | 0.097325   | 0.097325   | 0.097325   |   0.0 |  0.01
Modify  | 7.5232     | 7.5232     | 7.5232     |   0.0 |  0.76
Other   |            | 2.123      |            |       |  0.21

Nlocal:    19652 ave 19652 max 19652 min
Histogram: 1 0 0 0 0 0 0 0 0 0
Nghost:    19762 ave 19762 max 19762 min
Histogram: 1 0 0 0 0 0 0 0 0 0
Neighs:    1.78568e+06 ave 1.78568e+06 max 1.78568e+06 min
Histogram: 1 0 0 0 0 0 0 0 0 0

Total # of neighbors = 1785683
Ave neighs/atom = 90.8652
Neighbor list builds = 4505
Dangerous builds not checked
Setting up Verlet run ...
  Unit style    : metal
  Current step  : 105000
  Time step     : 0.001
Per MPI rank memory allocation (min/avg/max) = 19.34 | 19.34 | 19.34 Mbytes
Step Temp Press TotEng PotEng Enthalpy 
  105000     1804.351    3372.1468   -57390.346   -61973.562   -56810.217 
  105495    1774.1336    1163.2434   -57591.569    -62098.03   -57391.513 
Loop time of 114.439 on 1 procs for 495 steps with 19652 atoms

Performance: 0.374 ns/day, 64.219 hours/ns, 4.325 timesteps/s
96.9% CPU use with 1 MPI tasks x no OpenMP threads

MPI task timing breakdown:
Section |  min time  |  avg time  |  max time  |%varavg| %total
---------------------------------------------------------------
Pair    | 66.312     | 66.312     | 66.312     |   0.0 | 57.95
Neigh   | 46.103     | 46.103     | 46.103     |   0.0 | 40.29
Comm    | 0.80352    | 0.80352    | 0.80352    |   0.0 |  0.70
Output  | 0.00021601 | 0.00021601 | 0.00021601 |   0.0 |  0.00
Modify  | 0.95439    | 0.95439    | 0.95439    |   0.0 |  0.83
Other   |            | 0.2662     |            |       |  0.23

Nlocal:    19652 ave 19652 max 19652 min
Histogram: 1 0 0 0 0 0 0 0 0 0
Nghost:    19854 ave 19854 max 19854 min
Histogram: 1 0 0 0 0 0 0 0 0 0
Neighs:    1.78542e+06 ave 1.78542e+06 max 1.78542e+06 min
Histogram: 1 0 0 0 0 0 0 0 0 0

Total # of neighbors = 1785422
Ave neighs/atom = 90.8519
Neighbor list builds = 495
Dangerous builds not checked
Setting up Verlet run ...
  Unit style    : metal
  Current step  : 105495
  Time step     : 0.001
Per MPI rank memory allocation (min/avg/max) = 19.34 | 19.34 | 19.34 Mbytes
Step Temp Press TotEng PotEng Enthalpy 
  105495    1774.1336    1163.2434   -57591.569    -62098.03   -57391.513 
  110000    1760.1256    523.60455   -57711.915   -62182.795   -57622.033 
Loop time of 944.849 on 1 procs for 4505 steps with 19652 atoms

Performance: 0.412 ns/day, 58.259 hours/ns, 4.768 timesteps/s
98.8% CPU use with 1 MPI tasks x no OpenMP threads

MPI task timing breakdown:
Section |  min time  |  avg time  |  max time  |%varavg| %total
---------------------------------------------------------------
Pair    | 539.68     | 539.68     | 539.68     |   0.0 | 57.12
Neigh   | 389.53     | 389.53     | 389.53     |   0.0 | 41.23
Comm    | 6.1226     | 6.1226     | 6.1226     |   0.0 |  0.65
Output  | 0.083206   | 0.083206   | 0.083206   |   0.0 |  0.01
Modify  | 7.4576     | 7.4576     | 7.4576     |   0.0 |  0.79
Other   |            | 1.98       |            |       |  0.21

Nlocal:    19652 ave 19652 max 19652 min
Histogram: 1 0 0 0 0 0 0 0 0 0
Nghost:    19787 ave 19787 max 19787 min
Histogram: 1 0 0 0 0 0 0 0 0 0
Neighs:    1.78873e+06 ave 1.78873e+06 max 1.78873e+06 min
Histogram: 1 0 0 0 0 0 0 0 0 0

Total # of neighbors = 1788728
Ave neighs/atom = 91.0202
Neighbor list builds = 4505
Dangerous builds not checked
Setting up Verlet run ...
  Unit style    : metal
  Current step  : 110000
  Time step     : 0.001
Per MPI rank memory allocation (min/avg/max) = 19.34 | 19.34 | 19.34 Mbytes
Step Temp Press TotEng PotEng Enthalpy 
  110000    1760.1256    523.60455   -57711.915   -62182.795   -57622.033 
  110495     1727.883    334.43311   -57942.803   -62331.784   -57885.572 
Loop time of 102.443 on 1 procs for 495 steps with 19652 atoms

Performance: 0.417 ns/day, 57.488 hours/ns, 4.832 timesteps/s
96.9% CPU use with 1 MPI tasks x no OpenMP threads

MPI task timing breakdown:
Section |  min time  |  avg time  |  max time  |%varavg| %total
---------------------------------------------------------------
Pair    | 58.504     | 58.504     | 58.504     |   0.0 | 57.11
Neigh   | 42.249     | 42.249     | 42.249     |   0.0 | 41.24
Comm    | 0.64512    | 0.64512    | 0.64512    |   0.0 |  0.63
Output  | 0.00022912 | 0.00022912 | 0.00022912 |   0.0 |  0.00
Modify  | 0.83222    | 0.83222    | 0.83222    |   0.0 |  0.81
Other   |            | 0.2125     |            |       |  0.21

Nlocal:    19652 ave 19652 max 19652 min
Histogram: 1 0 0 0 0 0 0 0 0 0
Nghost:    19909 ave 19909 max 19909 min
Histogram: 1 0 0 0 0 0 0 0 0 0
Neighs:    1.79389e+06 ave 1.79389e+06 max 1.79389e+06 min
Histogram: 1 0 0 0 0 0 0 0 0 0

Total # of neighbors = 1793889
Ave neighs/atom = 91.2828
Neighbor list builds = 495
Dangerous builds not checked
Setting up Verlet run ...
  Unit style    : metal
  Current step  : 110495
  Time step     : 0.001
Per MPI rank memory allocation (min/avg/max) = 19.34 | 19.34 | 19.34 Mbytes
Step Temp Press TotEng PotEng Enthalpy 
  110495     1727.883    334.43311   -57942.803   -62331.784   -57885.572 
  115000    1689.6386   -200.17471   -58080.965   -62372.801   -58115.193 
Loop time of 928.158 on 1 procs for 4505 steps with 19652 atoms

Performance: 0.419 ns/day, 57.230 hours/ns, 4.854 timesteps/s
98.7% CPU use with 1 MPI tasks x no OpenMP threads

MPI task timing breakdown:
Section |  min time  |  avg time  |  max time  |%varavg| %total
---------------------------------------------------------------
Pair    | 527.06     | 527.06     | 527.06     |   0.0 | 56.79
Neigh   | 386.11     | 386.11     | 386.11     |   0.0 | 41.60
Comm    | 5.8657     | 5.8657     | 5.8657     |   0.0 |  0.63
Output  | 0.084482   | 0.084482   | 0.084482   |   0.0 |  0.01
Modify  | 7.1317     | 7.1317     | 7.1317     |   0.0 |  0.77
Other   |            | 1.913      |            |       |  0.21

Nlocal:    19652 ave 19652 max 19652 min
Histogram: 1 0 0 0 0 0 0 0 0 0
Nghost:    19812 ave 19812 max 19812 min
Histogram: 1 0 0 0 0 0 0 0 0 0
Neighs:    1.79573e+06 ave 1.79573e+06 max 1.79573e+06 min
Histogram: 1 0 0 0 0 0 0 0 0 0

Total # of neighbors = 1795732
Ave neighs/atom = 91.3766
Neighbor list builds = 4505
Dangerous builds not checked
Setting up Verlet run ...
  Unit style    : metal
  Current step  : 115000
  Time step     : 0.001
Per MPI rank memory allocation (min/avg/max) = 19.34 | 19.34 | 19.34 Mbytes
Step Temp Press TotEng PotEng Enthalpy 
  115000    1689.6386   -200.17471   -58080.965   -62372.801   -58115.193 
  115495    1655.1896    285.17355   -58263.162   -62467.494   -58214.581 
Loop time of 96.3513 on 1 procs for 495 steps with 19652 atoms

Performance: 0.444 ns/day, 54.069 hours/ns, 5.137 timesteps/s
97.7% CPU use with 1 MPI tasks x no OpenMP threads

MPI task timing breakdown:
Section |  min time  |  avg time  |  max time  |%varavg| %total
---------------------------------------------------------------
Pair    | 54.506     | 54.506     | 54.506     |   0.0 | 56.57
Neigh   | 40.279     | 40.279     | 40.279     |   0.0 | 41.80
Comm    | 0.60686    | 0.60686    | 0.60686    |   0.0 |  0.63
Output  | 0.00017214 | 0.00017214 | 0.00017214 |   0.0 |  0.00
Modify  | 0.75254    | 0.75254    | 0.75254    |   0.0 |  0.78
Other   |            | 0.207      |            |       |  0.21

Nlocal:    19652 ave 19652 max 19652 min
Histogram: 1 0 0 0 0 0 0 0 0 0
Nghost:    19913 ave 19913 max 19913 min
Histogram: 1 0 0 0 0 0 0 0 0 0
Neighs:    1.80285e+06 ave 1.80285e+06 max 1.80285e+06 min
Histogram: 1 0 0 0 0 0 0 0 0 0

Total # of neighbors = 1802851
Ave neighs/atom = 91.7388
Neighbor list builds = 495
Dangerous builds not checked
Setting up Verlet run ...
  Unit style    : metal
  Current step  : 115495
  Time step     : 0.001
Per MPI rank memory allocation (min/avg/max) = 19.34 | 19.34 | 19.34 Mbytes
Step Temp Press TotEng PotEng Enthalpy 
  115495    1655.1896    285.17355   -58263.162   -62467.494   -58214.581 
  120000    1652.6051    973.02592   -58418.351   -62616.119   -58253.185 
Loop time of 891.178 on 1 procs for 4505 steps with 19652 atoms

Performance: 0.437 ns/day, 54.950 hours/ns, 5.055 timesteps/s
98.4% CPU use with 1 MPI tasks x no OpenMP threads

MPI task timing breakdown:
Section |  min time  |  avg time  |  max time  |%varavg| %total
---------------------------------------------------------------
Pair    | 500.74     | 500.74     | 500.74     |   0.0 | 56.19
Neigh   | 376.36     | 376.36     | 376.36     |   0.0 | 42.23
Comm    | 5.3759     | 5.3759     | 5.3759     |   0.0 |  0.60
Output  | 0.085367   | 0.085367   | 0.085367   |   0.0 |  0.01
Modify  | 6.7948     | 6.7948     | 6.7948     |   0.0 |  0.76
Other   |            | 1.83       |            |       |  0.21

Nlocal:    19652 ave 19652 max 19652 min
Histogram: 1 0 0 0 0 0 0 0 0 0
Nghost:    19878 ave 19878 max 19878 min
Histogram: 1 0 0 0 0 0 0 0 0 0
Neighs:    1.80876e+06 ave 1.80876e+06 max 1.80876e+06 min
Histogram: 1 0 0 0 0 0 0 0 0 0

Total # of neighbors = 1808758
Ave neighs/atom = 92.0394
Neighbor list builds = 4505
Dangerous builds not checked
Setting up Verlet run ...
  Unit style    : metal
  Current step  : 120000
  Time step     : 0.001
Per MPI rank memory allocation (min/avg/max) = 19.34 | 19.34 | 19.34 Mbytes
Step Temp Press TotEng PotEng Enthalpy 
  120000    1652.6051    973.02592   -58418.351   -62616.119   -58253.185 
  120495    1625.2129    439.95716   -58493.716   -62621.905   -58419.031 
Loop time of 106.279 on 1 procs for 495 steps with 19652 atoms

Performance: 0.402 ns/day, 59.640 hours/ns, 4.658 timesteps/s
98.2% CPU use with 1 MPI tasks x no OpenMP threads

MPI task timing breakdown:
Section |  min time  |  avg time  |  max time  |%varavg| %total
---------------------------------------------------------------
Pair    | 60.206     | 60.206     | 60.206     |   0.0 | 56.65
Neigh   | 44.324     | 44.324     | 44.324     |   0.0 | 41.71
Comm    | 0.6741     | 0.6741     | 0.6741     |   0.0 |  0.63
Output  | 0.00020099 | 0.00020099 | 0.00020099 |   0.0 |  0.00
Modify  | 0.84018    | 0.84018    | 0.84018    |   0.0 |  0.79
Other   |            | 0.2344     |            |       |  0.22

Nlocal:    19652 ave 19652 max 19652 min
Histogram: 1 0 0 0 0 0 0 0 0 0
Nghost:    19839 ave 19839 max 19839 min
Histogram: 1 0 0 0 0 0 0 0 0 0
Neighs:    1.80834e+06 ave 1.80834e+06 max 1.80834e+06 min
Histogram: 1 0 0 0 0 0 0 0 0 0

Total # of neighbors = 1808335
Ave neighs/atom = 92.0179
Neighbor list builds = 495
Dangerous builds not checked
Setting up Verlet run ...
  Unit style    : metal
  Current step  : 120495
  Time step     : 0.001
Per MPI rank memory allocation (min/avg/max) = 19.34 | 19.34 | 19.34 Mbytes
Step Temp Press TotEng PotEng Enthalpy 
  120495    1625.2129    439.95716   -58493.716   -62621.905   -58419.031 
  125000    1608.1132    674.22189    -58655.59   -62740.344   -58541.506 
Loop time of 949.522 on 1 procs for 4505 steps with 19652 atoms

Performance: 0.410 ns/day, 58.547 hours/ns, 4.744 timesteps/s
98.3% CPU use with 1 MPI tasks x no OpenMP threads

MPI task timing breakdown:
Section |  min time  |  avg time  |  max time  |%varavg| %total
---------------------------------------------------------------
Pair    | 541.91     | 541.91     | 541.91     |   0.0 | 57.07
Neigh   | 392.08     | 392.08     | 392.08     |   0.0 | 41.29
Comm    | 5.992      | 5.992      | 5.992      |   0.0 |  0.63
Output  | 0.086422   | 0.086422   | 0.086422   |   0.0 |  0.01
Modify  | 7.4492     | 7.4492     | 7.4492     |   0.0 |  0.78
Other   |            | 2          |            |       |  0.21

Nlocal:    19652 ave 19652 max 19652 min
Histogram: 1 0 0 0 0 0 0 0 0 0
Nghost:    19935 ave 19935 max 19935 min
Histogram: 1 0 0 0 0 0 0 0 0 0
Neighs:    1.8142e+06 ave 1.8142e+06 max 1.8142e+06 min
Histogram: 1 0 0 0 0 0 0 0 0 0

Total # of neighbors = 1814202
Ave neighs/atom = 92.3164
Neighbor list builds = 4505
Dangerous builds not checked
Setting up Verlet run ...
  Unit style    : metal
  Current step  : 125000
  Time step     : 0.001
Per MPI rank memory allocation (min/avg/max) = 19.34 | 19.34 | 19.34 Mbytes
Step Temp Press TotEng PotEng Enthalpy 
  125000    1608.1132    674.22189    -58655.59   -62740.344   -58541.506 
  125495    1571.8098   -70.523546   -58866.166   -62858.706   -58878.069 
Loop time of 120.148 on 1 procs for 495 steps with 19652 atoms

Performance: 0.356 ns/day, 67.423 hours/ns, 4.120 timesteps/s
99.9% CPU use with 1 MPI tasks x no OpenMP threads

MPI task timing breakdown:
Section |  min time  |  avg time  |  max time  |%varavg| %total
---------------------------------------------------------------
Pair    | 71.906     | 71.906     | 71.906     |   0.0 | 59.85
Neigh   | 46.127     | 46.127     | 46.127     |   0.0 | 38.39
Comm    | 0.84066    | 0.84066    | 0.84066    |   0.0 |  0.70
Output  | 0.00022316 | 0.00022316 | 0.00022316 |   0.0 |  0.00
Modify  | 1.0062     | 1.0062     | 1.0062     |   0.0 |  0.84
Other   |            | 0.2682     |            |       |  0.22

Nlocal:    19652 ave 19652 max 19652 min
Histogram: 1 0 0 0 0 0 0 0 0 0
Nghost:    19931 ave 19931 max 19931 min
Histogram: 1 0 0 0 0 0 0 0 0 0
Neighs:    1.81849e+06 ave 1.81849e+06 max 1.81849e+06 min
Histogram: 1 0 0 0 0 0 0 0 0 0

Total # of neighbors = 1818491
Ave neighs/atom = 92.5347
Neighbor list builds = 495
Dangerous builds not checked
Setting up Verlet run ...
  Unit style    : metal
  Current step  : 125495
  Time step     : 0.001
Per MPI rank memory allocation (min/avg/max) = 19.34 | 19.34 | 19.34 Mbytes
Step Temp Press TotEng PotEng Enthalpy 
  125495    1571.8098   -70.523546   -58866.166   -62858.706   -58878.069 
  130000    1548.7337    1243.1096   -59019.386   -62953.311   -58810.263 
Loop time of 969.334 on 1 procs for 4505 steps with 19652 atoms

Performance: 0.402 ns/day, 59.769 hours/ns, 4.648 timesteps/s
98.9% CPU use with 1 MPI tasks x no OpenMP threads

MPI task timing breakdown:
Section |  min time  |  avg time  |  max time  |%varavg| %total
---------------------------------------------------------------
Pair    | 554.91     | 554.91     | 554.91     |   0.0 | 57.25
Neigh   | 398.57     | 398.57     | 398.57     |   0.0 | 41.12
Comm    | 6.1674     | 6.1674     | 6.1674     |   0.0 |  0.64
Output  | 0.086906   | 0.086906   | 0.086906   |   0.0 |  0.01
Modify  | 7.5117     | 7.5117     | 7.5117     |   0.0 |  0.77
Other   |            | 2.089      |            |       |  0.22

Nlocal:    19652 ave 19652 max 19652 min
Histogram: 1 0 0 0 0 0 0 0 0 0
Nghost:    19952 ave 19952 max 19952 min
Histogram: 1 0 0 0 0 0 0 0 0 0
Neighs:    1.82396e+06 ave 1.82396e+06 max 1.82396e+06 min
Histogram: 1 0 0 0 0 0 0 0 0 0

Total # of neighbors = 1823962
Ave neighs/atom = 92.813
Neighbor list builds = 4505
Dangerous builds not checked
Setting up Verlet run ...
  Unit style    : metal
  Current step  : 130000
  Time step     : 0.001
Per MPI rank memory allocation (min/avg/max) = 19.34 | 19.34 | 19.34 Mbytes
Step Temp Press TotEng PotEng Enthalpy 
  130000    1548.7337    1243.1096   -59019.386   -62953.311   -58810.263 
  130495    1519.2927    1049.9049   -59195.577   -63054.719   -59019.335 
Loop time of 97.1811 on 1 procs for 495 steps with 19652 atoms

Performance: 0.440 ns/day, 54.535 hours/ns, 5.094 timesteps/s
99.3% CPU use with 1 MPI tasks x no OpenMP threads

MPI task timing breakdown:
Section |  min time  |  avg time  |  max time  |%varavg| %total
---------------------------------------------------------------
Pair    | 55.811     | 55.811     | 55.811     |   0.0 | 57.43
Neigh   | 39.777     | 39.777     | 39.777     |   0.0 | 40.93
Comm    | 0.61263    | 0.61263    | 0.61263    |   0.0 |  0.63
Output  | 0.00016689 | 0.00016689 | 0.00016689 |   0.0 |  0.00
Modify  | 0.7757     | 0.7757     | 0.7757     |   0.0 |  0.80
Other   |            | 0.2053     |            |       |  0.21

Nlocal:    19652 ave 19652 max 19652 min
Histogram: 1 0 0 0 0 0 0 0 0 0
Nghost:    19985 ave 19985 max 19985 min
Histogram: 1 0 0 0 0 0 0 0 0 0
Neighs:    1.82797e+06 ave 1.82797e+06 max 1.82797e+06 min
Histogram: 1 0 0 0 0 0 0 0 0 0

Total # of neighbors = 1827974
Ave neighs/atom = 93.0172
Neighbor list builds = 495
Dangerous builds not checked
Setting up Verlet run ...
  Unit style    : metal
  Current step  : 130495
  Time step     : 0.001
Per MPI rank memory allocation (min/avg/max) = 19.34 | 19.34 | 19.34 Mbytes
Step Temp Press TotEng PotEng Enthalpy 
  130495    1519.2927    1049.9049   -59195.577   -63054.719   -59019.335 
  135000    1492.7665   -219.37197   -59322.409   -63114.172   -59359.216 
Loop time of 968.558 on 1 procs for 4505 steps with 19652 atoms

Performance: 0.402 ns/day, 59.721 hours/ns, 4.651 timesteps/s
97.8% CPU use with 1 MPI tasks x no OpenMP threads

MPI task timing breakdown:
Section |  min time  |  avg time  |  max time  |%varavg| %total
---------------------------------------------------------------
Pair    | 557.4      | 557.4      | 557.4      |   0.0 | 57.55
Neigh   | 395.32     | 395.32     | 395.32     |   0.0 | 40.82
Comm    | 6.081      | 6.081      | 6.081      |   0.0 |  0.63
Output  | 0.094485   | 0.094485   | 0.094485   |   0.0 |  0.01
Modify  | 7.6324     | 7.6324     | 7.6324     |   0.0 |  0.79
Other   |            | 2.03       |            |       |  0.21

Nlocal:    19652 ave 19652 max 19652 min
Histogram: 1 0 0 0 0 0 0 0 0 0
Nghost:    19936 ave 19936 max 19936 min
Histogram: 1 0 0 0 0 0 0 0 0 0
Neighs:    1.82857e+06 ave 1.82857e+06 max 1.82857e+06 min
Histogram: 1 0 0 0 0 0 0 0 0 0

Total # of neighbors = 1828573
Ave neighs/atom = 93.0477
Neighbor list builds = 4505
Dangerous builds not checked
Setting up Verlet run ...
  Unit style    : metal
  Current step  : 135000
  Time step     : 0.001
Per MPI rank memory allocation (min/avg/max) = 19.34 | 19.34 | 19.34 Mbytes
Step Temp Press TotEng PotEng Enthalpy 
  135000    1492.7665   -219.37197   -59322.409   -63114.172   -59359.216 
  135495     1465.306    428.48636   -59522.916   -63244.926   -59451.302 
Loop time of 110.653 on 1 procs for 495 steps with 19652 atoms

Performance: 0.387 ns/day, 62.095 hours/ns, 4.473 timesteps/s
93.5% CPU use with 1 MPI tasks x no OpenMP threads

MPI task timing breakdown:
Section |  min time  |  avg time  |  max time  |%varavg| %total
---------------------------------------------------------------
Pair    | 63.829     | 63.829     | 63.829     |   0.0 | 57.68
Neigh   | 44.914     | 44.914     | 44.914     |   0.0 | 40.59
Comm    | 0.7362     | 0.7362     | 0.7362     |   0.0 |  0.67
Output  | 0.00023699 | 0.00023699 | 0.00023699 |   0.0 |  0.00
Modify  | 0.92575    | 0.92575    | 0.92575    |   0.0 |  0.84
Other   |            | 0.2487     |            |       |  0.22

Nlocal:    19652 ave 19652 max 19652 min
Histogram: 1 0 0 0 0 0 0 0 0 0
Nghost:    20010 ave 20010 max 20010 min
Histogram: 1 0 0 0 0 0 0 0 0 0
Neighs:    1.83473e+06 ave 1.83473e+06 max 1.83473e+06 min
Histogram: 1 0 0 0 0 0 0 0 0 0

Total # of neighbors = 1834734
Ave neighs/atom = 93.3612
Neighbor list builds = 495
Dangerous builds not checked
Setting up Verlet run ...
  Unit style    : metal
  Current step  : 135495
  Time step     : 0.001
Per MPI rank memory allocation (min/avg/max) = 19.34 | 19.34 | 19.34 Mbytes
Step Temp Press TotEng PotEng Enthalpy 
  135495     1465.306    428.48636   -59522.916   -63244.926   -59451.302 
  140000    1446.7588   -314.02493   -59641.611    -63316.51   -59694.048 
Loop time of 957.469 on 1 procs for 4505 steps with 19652 atoms

Performance: 0.407 ns/day, 59.037 hours/ns, 4.705 timesteps/s
99.1% CPU use with 1 MPI tasks x no OpenMP threads

MPI task timing breakdown:
Section |  min time  |  avg time  |  max time  |%varavg| %total
---------------------------------------------------------------
Pair    | 550.31     | 550.31     | 550.31     |   0.0 | 57.48
Neigh   | 391.75     | 391.75     | 391.75     |   0.0 | 40.91
Comm    | 5.9795     | 5.9795     | 5.9795     |   0.0 |  0.62
Output  | 0.10812    | 0.10812    | 0.10812    |   0.0 |  0.01
Modify  | 7.2472     | 7.2472     | 7.2472     |   0.0 |  0.76
Other   |            | 2.079      |            |       |  0.22

Nlocal:    19652 ave 19652 max 19652 min
Histogram: 1 0 0 0 0 0 0 0 0 0
Nghost:    20059 ave 20059 max 20059 min
Histogram: 1 0 0 0 0 0 0 0 0 0
Neighs:    1.83703e+06 ave 1.83703e+06 max 1.83703e+06 min
Histogram: 1 0 0 0 0 0 0 0 0 0

Total # of neighbors = 1837032
Ave neighs/atom = 93.4781
Neighbor list builds = 4505
Dangerous builds not checked
Setting up Verlet run ...
  Unit style    : metal
  Current step  : 140000
  Time step     : 0.001
Per MPI rank memory allocation (min/avg/max) = 19.34 | 19.34 | 19.34 Mbytes
Step Temp Press TotEng PotEng Enthalpy 
  140000    1446.7588   -314.02493   -59641.611    -63316.51   -59694.048 
  140495    1417.9764    143.94089   -59837.596   -63439.385   -59813.653 
Loop time of 111.736 on 1 procs for 495 steps with 19652 atoms

Performance: 0.383 ns/day, 62.703 hours/ns, 4.430 timesteps/s
100.0% CPU use with 1 MPI tasks x no OpenMP threads

MPI task timing breakdown:
Section |  min time  |  avg time  |  max time  |%varavg| %total
---------------------------------------------------------------
Pair    | 65.833     | 65.833     | 65.833     |   0.0 | 58.92
Neigh   | 43.892     | 43.892     | 43.892     |   0.0 | 39.28
Comm    | 0.79838    | 0.79838    | 0.79838    |   0.0 |  0.71
Output  | 0.00026011 | 0.00026011 | 0.00026011 |   0.0 |  0.00
Modify  | 0.95907    | 0.95907    | 0.95907    |   0.0 |  0.86
Other   |            | 0.2535     |            |       |  0.23

Nlocal:    19652 ave 19652 max 19652 min
Histogram: 1 0 0 0 0 0 0 0 0 0
Nghost:    20050 ave 20050 max 20050 min
Histogram: 1 0 0 0 0 0 0 0 0 0
Neighs:    1.84376e+06 ave 1.84376e+06 max 1.84376e+06 min
Histogram: 1 0 0 0 0 0 0 0 0 0

Total # of neighbors = 1843759
Ave neighs/atom = 93.8204
Neighbor list builds = 495
Dangerous builds not checked
Setting up Verlet run ...
  Unit style    : metal
  Current step  : 140495
  Time step     : 0.001
Per MPI rank memory allocation (min/avg/max) = 19.34 | 19.34 | 19.34 Mbytes
Step Temp Press TotEng PotEng Enthalpy 
  140495    1417.9764    143.94089   -59837.596   -63439.385   -59813.653 
  145000     1377.645    -799.1788   -59951.565   -63450.909   -60084.518 
Loop time of 1005.75 on 1 procs for 4505 steps with 19652 atoms

Performance: 0.387 ns/day, 62.015 hours/ns, 4.479 timesteps/s
98.6% CPU use with 1 MPI tasks x no OpenMP threads

MPI task timing breakdown:
Section |  min time  |  avg time  |  max time  |%varavg| %total
---------------------------------------------------------------
Pair    | 585.74     | 585.74     | 585.74     |   0.0 | 58.24
Neigh   | 402.89     | 402.89     | 402.89     |   0.0 | 40.06
Comm    | 6.7872     | 6.7872     | 6.7872     |   0.0 |  0.67
Output  | 0.090068   | 0.090068   | 0.090068   |   0.0 |  0.01
Modify  | 8.0273     | 8.0273     | 8.0273     |   0.0 |  0.80
Other   |            | 2.218      |            |       |  0.22

Nlocal:    19652 ave 19652 max 19652 min
Histogram: 1 0 0 0 0 0 0 0 0 0
Nghost:    20114 ave 20114 max 20114 min
Histogram: 1 0 0 0 0 0 0 0 0 0
Neighs:    1.84334e+06 ave 1.84334e+06 max 1.84334e+06 min
Histogram: 1 0 0 0 0 0 0 0 0 0

Total # of neighbors = 1843336
Ave neighs/atom = 93.7989
Neighbor list builds = 4505
Dangerous builds not checked
Setting up Verlet run ...
  Unit style    : metal
  Current step  : 145000
  Time step     : 0.001
Per MPI rank memory allocation (min/avg/max) = 19.34 | 19.34 | 19.34 Mbytes
Step Temp Press TotEng PotEng Enthalpy 
  145000     1377.645    -799.1788   -59951.565   -63450.909   -60084.518 
  145495    1365.5805   -913.81458   -60150.201     -63618.9    -60301.71 
Loop time of 106.758 on 1 procs for 495 steps with 19652 atoms

Performance: 0.401 ns/day, 59.909 hours/ns, 4.637 timesteps/s
99.4% CPU use with 1 MPI tasks x no OpenMP threads

MPI task timing breakdown:
Section |  min time  |  avg time  |  max time  |%varavg| %total
---------------------------------------------------------------
Pair    | 62.76      | 62.76      | 62.76      |   0.0 | 58.79
Neigh   | 42.182     | 42.182     | 42.182     |   0.0 | 39.51
Comm    | 0.71785    | 0.71785    | 0.71785    |   0.0 |  0.67
Output  | 0.00021696 | 0.00021696 | 0.00021696 |   0.0 |  0.00
Modify  | 0.86112    | 0.86112    | 0.86112    |   0.0 |  0.81
Other   |            | 0.2366     |            |       |  0.22

Nlocal:    19652 ave 19652 max 19652 min
Histogram: 1 0 0 0 0 0 0 0 0 0
Nghost:    20060 ave 20060 max 20060 min
Histogram: 1 0 0 0 0 0 0 0 0 0
Neighs:    1.84878e+06 ave 1.84878e+06 max 1.84878e+06 min
Histogram: 1 0 0 0 0 0 0 0 0 0

Total # of neighbors = 1848779
Ave neighs/atom = 94.0759
Neighbor list builds = 495
Dangerous builds not checked
Setting up Verlet run ...
  Unit style    : metal
  Current step  : 145495
  Time step     : 0.001
Per MPI rank memory allocation (min/avg/max) = 19.34 | 19.34 | 19.34 Mbytes
Step Temp Press TotEng PotEng Enthalpy 
  145495    1365.5805   -913.81458   -60150.201     -63618.9    -60301.71 
  150000    1363.3878    1238.6446   -60271.761    -63734.89   -60067.349 
Loop time of 971.221 on 1 procs for 4505 steps with 19652 atoms

Performance: 0.401 ns/day, 59.885 hours/ns, 4.638 timesteps/s
98.4% CPU use with 1 MPI tasks x no OpenMP threads

MPI task timing breakdown:
Section |  min time  |  avg time  |  max time  |%varavg| %total
---------------------------------------------------------------
Pair    | 561.82     | 561.82     | 561.82     |   0.0 | 57.85
Neigh   | 393.62     | 393.62     | 393.62     |   0.0 | 40.53
Comm    | 6.1756     | 6.1756     | 6.1756     |   0.0 |  0.64
Output  | 0.082419   | 0.082419   | 0.082419   |   0.0 |  0.01
Modify  | 7.4021     | 7.4021     | 7.4021     |   0.0 |  0.76
Other   |            | 2.127      |            |       |  0.22

Nlocal:    19652 ave 19652 max 19652 min
Histogram: 1 0 0 0 0 0 0 0 0 0
Nghost:    20109 ave 20109 max 20109 min
Histogram: 1 0 0 0 0 0 0 0 0 0
Neighs:    1.85792e+06 ave 1.85792e+06 max 1.85792e+06 min
Histogram: 1 0 0 0 0 0 0 0 0 0

Total # of neighbors = 1857917
Ave neighs/atom = 94.5409
Neighbor list builds = 4505
Dangerous builds not checked
Setting up Verlet run ...
  Unit style    : metal
  Current step  : 150000
  Time step     : 0.001
Per MPI rank memory allocation (min/avg/max) = 19.34 | 19.34 | 19.34 Mbytes
Step Temp Press TotEng PotEng Enthalpy 
  150000    1363.3878    1238.6446   -60271.761    -63734.89   -60067.349 
  150495    1322.1922    753.47195   -60457.069   -63815.558    -60332.93 
Loop time of 115.443 on 1 procs for 495 steps with 19652 atoms

Performance: 0.370 ns/day, 64.783 hours/ns, 4.288 timesteps/s
96.7% CPU use with 1 MPI tasks x no OpenMP threads

MPI task timing breakdown:
Section |  min time  |  avg time  |  max time  |%varavg| %total
---------------------------------------------------------------
Pair    | 67.791     | 67.791     | 67.791     |   0.0 | 58.72
Neigh   | 45.642     | 45.642     | 45.642     |   0.0 | 39.54
Comm    | 0.77845    | 0.77845    | 0.77845    |   0.0 |  0.67
Output  | 0.00020313 | 0.00020313 | 0.00020313 |   0.0 |  0.00
Modify  | 0.97015    | 0.97015    | 0.97015    |   0.0 |  0.84
Other   |            | 0.2615     |            |       |  0.23

Nlocal:    19652 ave 19652 max 19652 min
Histogram: 1 0 0 0 0 0 0 0 0 0
Nghost:    20146 ave 20146 max 20146 min
Histogram: 1 0 0 0 0 0 0 0 0 0
Neighs:    1.86032e+06 ave 1.86032e+06 max 1.86032e+06 min
Histogram: 1 0 0 0 0 0 0 0 0 0

Total # of neighbors = 1860322
Ave neighs/atom = 94.6632
Neighbor list builds = 495
Dangerous builds not checked
Setting up Verlet run ...
  Unit style    : metal
  Current step  : 150495
  Time step     : 0.001
Per MPI rank memory allocation (min/avg/max) = 19.34 | 19.34 | 19.34 Mbytes
Step Temp Press TotEng PotEng Enthalpy 
  150495    1322.1922    753.47195   -60457.069   -63815.558    -60332.93 
  155000    1308.6631    995.37091   -60603.113   -63927.236   -60439.521 
Loop time of 936.167 on 1 procs for 4505 steps with 19652 atoms

Performance: 0.416 ns/day, 57.724 hours/ns, 4.812 timesteps/s
98.1% CPU use with 1 MPI tasks x no OpenMP threads

MPI task timing breakdown:
Section |  min time  |  avg time  |  max time  |%varavg| %total
---------------------------------------------------------------
Pair    | 537.33     | 537.33     | 537.33     |   0.0 | 57.40
Neigh   | 383.51     | 383.51     | 383.51     |   0.0 | 40.97
Comm    | 5.869      | 5.869      | 5.869      |   0.0 |  0.63
Output  | 0.1622     | 0.1622     | 0.1622     |   0.0 |  0.02
Modify  | 7.3187     | 7.3187     | 7.3187     |   0.0 |  0.78
Other   |            | 1.984      |            |       |  0.21

Nlocal:    19652 ave 19652 max 19652 min
Histogram: 1 0 0 0 0 0 0 0 0 0
Nghost:    20196 ave 20196 max 20196 min
Histogram: 1 0 0 0 0 0 0 0 0 0
Neighs:    1.86509e+06 ave 1.86509e+06 max 1.86509e+06 min
Histogram: 1 0 0 0 0 0 0 0 0 0

Total # of neighbors = 1865091
Ave neighs/atom = 94.9059
Neighbor list builds = 4505
Dangerous builds not checked
Setting up Verlet run ...
  Unit style    : metal
  Current step  : 155000
  Time step     : 0.001
Per MPI rank memory allocation (min/avg/max) = 19.34 | 19.34 | 19.34 Mbytes
Step Temp Press TotEng PotEng Enthalpy 
  155000    1308.6631    995.37091   -60603.113   -63927.236   -60439.521 
  155495    1264.6274    82.657966   -60798.701    -64010.97    -60785.14 
Loop time of 102.075 on 1 procs for 495 steps with 19652 atoms

Performance: 0.419 ns/day, 57.281 hours/ns, 4.849 timesteps/s
97.5% CPU use with 1 MPI tasks x no OpenMP threads

MPI task timing breakdown:
Section |  min time  |  avg time  |  max time  |%varavg| %total
---------------------------------------------------------------
Pair    | 58.933     | 58.933     | 58.933     |   0.0 | 57.73
Neigh   | 41.482     | 41.482     | 41.482     |   0.0 | 40.64
Comm    | 0.64225    | 0.64225    | 0.64225    |   0.0 |  0.63
Output  | 0.00016403 | 0.00016403 | 0.00016403 |   0.0 |  0.00
Modify  | 0.79882    | 0.79882    | 0.79882    |   0.0 |  0.78
Other   |            | 0.219      |            |       |  0.21

Nlocal:    19652 ave 19652 max 19652 min
Histogram: 1 0 0 0 0 0 0 0 0 0
Nghost:    20128 ave 20128 max 20128 min
Histogram: 1 0 0 0 0 0 0 0 0 0
Neighs:    1.86749e+06 ave 1.86749e+06 max 1.86749e+06 min
Histogram: 1 0 0 0 0 0 0 0 0 0

Total # of neighbors = 1867486
Ave neighs/atom = 95.0278
Neighbor list builds = 495
Dangerous builds not checked
Setting up Verlet run ...
  Unit style    : metal
  Current step  : 155495
  Time step     : 0.001
Per MPI rank memory allocation (min/avg/max) = 19.34 | 19.34 | 19.34 Mbytes
Step Temp Press TotEng PotEng Enthalpy 
  155495    1264.6274    82.657966   -60798.701    -64010.97    -60785.14 
  160000    1247.7565   -2476.0173   -60966.029   -64135.444   -61371.963 
Loop time of 880.89 on 1 procs for 4505 steps with 19652 atoms

Performance: 0.442 ns/day, 54.316 hours/ns, 5.114 timesteps/s
98.7% CPU use with 1 MPI tasks x no OpenMP threads

MPI task timing breakdown:
Section |  min time  |  avg time  |  max time  |%varavg| %total
---------------------------------------------------------------
Pair    | 502.64     | 502.64     | 502.64     |   0.0 | 57.06
Neigh   | 364        | 364        | 364        |   0.0 | 41.32
Comm    | 5.5075     | 5.5075     | 5.5075     |   0.0 |  0.63
Output  | 0.064533   | 0.064533   | 0.064533   |   0.0 |  0.01
Modify  | 6.8091     | 6.8091     | 6.8091     |   0.0 |  0.77
Other   |            | 1.863      |            |       |  0.21

Nlocal:    19652 ave 19652 max 19652 min
Histogram: 1 0 0 0 0 0 0 0 0 0
Nghost:    20200 ave 20200 max 20200 min
Histogram: 1 0 0 0 0 0 0 0 0 0
Neighs:    1.86864e+06 ave 1.86864e+06 max 1.86864e+06 min
Histogram: 1 0 0 0 0 0 0 0 0 0

Total # of neighbors = 1868635
Ave neighs/atom = 95.0863
Neighbor list builds = 4505
Dangerous builds not checked
Setting up Verlet run ...
  Unit style    : metal
  Current step  : 160000
  Time step     : 0.001
Per MPI rank memory allocation (min/avg/max) = 19.34 | 19.34 | 19.34 Mbytes
Step Temp Press TotEng PotEng Enthalpy 
  160000    1247.7565   -2476.0173   -60966.029   -64135.444   -61371.963 
  160495     1210.429   -14.746205   -61152.054   -64226.654   -61154.462 
Loop time of 88.4118 on 1 procs for 495 steps with 19652 atoms

Performance: 0.484 ns/day, 49.614 hours/ns, 5.599 timesteps/s
99.6% CPU use with 1 MPI tasks x no OpenMP threads

MPI task timing breakdown:
Section |  min time  |  avg time  |  max time  |%varavg| %total
---------------------------------------------------------------
Pair    | 50.238     | 50.238     | 50.238     |   0.0 | 56.82
Neigh   | 36.741     | 36.741     | 36.741     |   0.0 | 41.56
Comm    | 0.55524    | 0.55524    | 0.55524    |   0.0 |  0.63
Output  | 0.00019002 | 0.00019002 | 0.00019002 |   0.0 |  0.00
Modify  | 0.68915    | 0.68915    | 0.68915    |   0.0 |  0.78
Other   |            | 0.1885     |            |       |  0.21

Nlocal:    19652 ave 19652 max 19652 min
Histogram: 1 0 0 0 0 0 0 0 0 0
Nghost:    20197 ave 20197 max 20197 min
Histogram: 1 0 0 0 0 0 0 0 0 0
Neighs:    1.87589e+06 ave 1.87589e+06 max 1.87589e+06 min
Histogram: 1 0 0 0 0 0 0 0 0 0

Total # of neighbors = 1875889
Ave neighs/atom = 95.4554
Neighbor list builds = 495
Dangerous builds not checked
Setting up Verlet run ...
  Unit style    : metal
  Current step  : 160495
  Time step     : 0.001
Per MPI rank memory allocation (min/avg/max) = 19.34 | 19.34 | 19.34 Mbytes
Step Temp Press TotEng PotEng Enthalpy 
  160495     1210.429   -14.746205   -61152.054   -64226.654   -61154.462 
  165000    1185.7278   -931.88548   -61339.154   -64351.011   -61490.996 
Loop time of 905.574 on 1 procs for 4505 steps with 19652 atoms

Performance: 0.430 ns/day, 55.838 hours/ns, 4.975 timesteps/s
98.9% CPU use with 1 MPI tasks x no OpenMP threads

MPI task timing breakdown:
Section |  min time  |  avg time  |  max time  |%varavg| %total
---------------------------------------------------------------
Pair    | 522.25     | 522.25     | 522.25     |   0.0 | 57.67
Neigh   | 368.21     | 368.21     | 368.21     |   0.0 | 40.66
Comm    | 5.9296     | 5.9296     | 5.9296     |   0.0 |  0.65
Output  | 0.1073     | 0.1073     | 0.1073     |   0.0 |  0.01
Modify  | 7.1533     | 7.1533     | 7.1533     |   0.0 |  0.79
Other   |            | 1.926      |            |       |  0.21

Nlocal:    19652 ave 19652 max 19652 min
Histogram: 1 0 0 0 0 0 0 0 0 0
Nghost:    20242 ave 20242 max 20242 min
Histogram: 1 0 0 0 0 0 0 0 0 0
Neighs:    1.87929e+06 ave 1.87929e+06 max 1.87929e+06 min
Histogram: 1 0 0 0 0 0 0 0 0 0

Total # of neighbors = 1879293
Ave neighs/atom = 95.6286
Neighbor list builds = 4505
Dangerous builds not checked
Setting up Verlet run ...
  Unit style    : metal
  Current step  : 165000
  Time step     : 0.001
Per MPI rank memory allocation (min/avg/max) = 19.34 | 19.34 | 19.34 Mbytes
Step Temp Press TotEng PotEng Enthalpy 
  165000    1185.7278   -931.88548   -61339.154   -64351.011   -61490.996 
  165495    1154.6306    630.29612   -61501.327   -64434.194   -61399.019 
Loop time of 96.6676 on 1 procs for 495 steps with 19652 atoms

Performance: 0.442 ns/day, 54.247 hours/ns, 5.121 timesteps/s
97.1% CPU use with 1 MPI tasks x no OpenMP threads

MPI task timing breakdown:
Section |  min time  |  avg time  |  max time  |%varavg| %total
---------------------------------------------------------------
Pair    | 55.601     | 55.601     | 55.601     |   0.0 | 57.52
Neigh   | 39.44      | 39.44      | 39.44      |   0.0 | 40.80
Comm    | 0.62148    | 0.62148    | 0.62148    |   0.0 |  0.64
Output  | 0.00016713 | 0.00016713 | 0.00016713 |   0.0 |  0.00
Modify  | 0.79202    | 0.79202    | 0.79202    |   0.0 |  0.82
Other   |            | 0.2127     |            |       |  0.22

Nlocal:    19652 ave 19652 max 19652 min
Histogram: 1 0 0 0 0 0 0 0 0 0
Nghost:    20286 ave 20286 max 20286 min
Histogram: 1 0 0 0 0 0 0 0 0 0
Neighs:    1.88646e+06 ave 1.88646e+06 max 1.88646e+06 min
Histogram: 1 0 0 0 0 0 0 0 0 0

Total # of neighbors = 1886458
Ave neighs/atom = 95.9932
Neighbor list builds = 495
Dangerous builds not checked
Setting up Verlet run ...
  Unit style    : metal
  Current step  : 165495
  Time step     : 0.001
Per MPI rank memory allocation (min/avg/max) = 19.34 | 19.34 | 19.34 Mbytes
Step Temp Press TotEng PotEng Enthalpy 
  165495    1154.6306    630.29612   -61501.327   -64434.194   -61399.019 
  170000    1150.5942    1387.6155   -61608.451   -64531.065   -61383.793 
Loop time of 963.281 on 1 procs for 4505 steps with 19652 atoms

[...]
Setting up Verlet run ...
  Unit style    : metal
  Current step  : 240000
  Time step     : 0.001
Per MPI rank memory allocation (min/avg/max) = 19.35 | 19.35 | 19.35 Mbytes
Step Temp Press TotEng PotEng Enthalpy 
  240000    449.17533   -1262.8958   -66330.255   -67471.201   -66522.328 
  240495    423.24976    -557.1001   -66493.942   -67569.035   -66578.436 
Loop time of 101.32 on 1 procs for 495 steps with 19652 atoms

Performance: 0.422 ns/day, 56.857 hours/ns, 4.886 timesteps/s
98.9% CPU use with 1 MPI tasks x no OpenMP threads

MPI task timing breakdown:
Section |  min time  |  avg time  |  max time  |%varavg| %total
---------------------------------------------------------------
Pair    | 56.324     | 56.324     | 56.324     |   0.0 | 55.59
Neigh   | 43.477     | 43.477     | 43.477     |   0.0 | 42.91
Comm    | 0.58838    | 0.58838    | 0.58838    |   0.0 |  0.58
Output  | 0.00013304 | 0.00013304 | 0.00013304 |   0.0 |  0.00
Modify  | 0.73104    | 0.73104    | 0.73104    |   0.0 |  0.72
Other   |            | 0.1991     |            |       |  0.20

Nlocal:    19652 ave 19652 max 19652 min
Histogram: 1 0 0 0 0 0 0 0 0 0
Nghost:    20832 ave 20832 max 20832 min
Histogram: 1 0 0 0 0 0 0 0 0 0
Neighs:    2.01421e+06 ave 2.01421e+06 max 2.01421e+06 min
Histogram: 1 0 0 0 0 0 0 0 0 0

Total # of neighbors = 2014210
Ave neighs/atom = 102.494
Neighbor list builds = 495
Dangerous builds not checked
Setting up Verlet run ...
  Unit style    : metal
  Current step  : 240495
  Time step     : 0.001
Per MPI rank memory allocation (min/avg/max) = 19.35 | 19.35 | 19.35 Mbytes
Step Temp Press TotEng PotEng Enthalpy 
  240495    423.24976    -557.1001   -66493.942   -67569.035   -66578.436 
  245000    398.34044   -876.86245   -66626.314   -67638.135   -66759.142 
Loop time of 1013.98 on 1 procs for 4505 steps with 19652 atoms

Performance: 0.384 ns/day, 62.522 hours/ns, 4.443 timesteps/s
97.7% CPU use with 1 MPI tasks x no OpenMP threads

MPI task timing breakdown:
Section |  min time  |  avg time  |  max time  |%varavg| %total
---------------------------------------------------------------
Pair    | 571.56     | 571.56     | 571.56     |   0.0 | 56.37
Neigh   | 426.88     | 426.88     | 426.88     |   0.0 | 42.10
Comm    | 6.0172     | 6.0172     | 6.0172     |   0.0 |  0.59
Output  | 0.087347   | 0.087347   | 0.087347   |   0.0 |  0.01
Modify  | 7.3772     | 7.3772     | 7.3772     |   0.0 |  0.73
Other   |            | 2.058      |            |       |  0.20

Nlocal:    19652 ave 19652 max 19652 min
Histogram: 1 0 0 0 0 0 0 0 0 0
Nghost:    20870 ave 20870 max 20870 min
Histogram: 1 0 0 0 0 0 0 0 0 0
Neighs:    2.01743e+06 ave 2.01743e+06 max 2.01743e+06 min
Histogram: 1 0 0 0 0 0 0 0 0 0

Total # of neighbors = 2017426
Ave neighs/atom = 102.658
Neighbor list builds = 4505
Dangerous builds not checked
Setting up Verlet run ...
  Unit style    : metal
  Current step  : 245000
  Time step     : 0.001
Per MPI rank memory allocation (min/avg/max) = 19.35 | 19.35 | 19.35 Mbytes
Step Temp Press TotEng PotEng Enthalpy 
  245000    398.34044   -876.86245   -66626.314   -67638.135   -66759.142 
  245495    370.43314   -89.547456    -66777.28   -67718.214   -66790.812 
Loop time of 124.456 on 1 procs for 495 steps with 19652 atoms

Performance: 0.344 ns/day, 69.841 hours/ns, 3.977 timesteps/s
96.8% CPU use with 1 MPI tasks x no OpenMP threads

MPI task timing breakdown:
Section |  min time  |  avg time  |  max time  |%varavg| %total
---------------------------------------------------------------
Pair    | 72.453     | 72.453     | 72.453     |   0.0 | 58.22
Neigh   | 49.919     | 49.919     | 49.919     |   0.0 | 40.11
Comm    | 0.81521    | 0.81521    | 0.81521    |   0.0 |  0.66
Output  | 0.00021696 | 0.00021696 | 0.00021696 |   0.0 |  0.00
Modify  | 0.99578    | 0.99578    | 0.99578    |   0.0 |  0.80
Other   |            | 0.2732     |            |       |  0.22

Nlocal:    19652 ave 19652 max 19652 min
Histogram: 1 0 0 0 0 0 0 0 0 0
Nghost:    20880 ave 20880 max 20880 min
Histogram: 1 0 0 0 0 0 0 0 0 0
Neighs:    2.02321e+06 ave 2.02321e+06 max 2.02321e+06 min
Histogram: 1 0 0 0 0 0 0 0 0 0

Total # of neighbors = 2023211
Ave neighs/atom = 102.952
Neighbor list builds = 495
Dangerous builds not checked
Setting up Verlet run ...
  Unit style    : metal
  Current step  : 245495
  Time step     : 0.001
Per MPI rank memory allocation (min/avg/max) = 19.35 | 19.35 | 19.35 Mbytes
Step Temp Press TotEng PotEng Enthalpy 
  245495    370.43314   -89.547456    -66777.28   -67718.214   -66790.812 
  250000    350.33662    645.14551   -66898.802   -67788.689   -66801.503 
Loop time of 1078.24 on 1 procs for 4505 steps with 19652 atoms

Performance: 0.361 ns/day, 66.484 hours/ns, 4.178 timesteps/s
98.9% CPU use with 1 MPI tasks x no OpenMP threads

MPI task timing breakdown:
Section |  min time  |  avg time  |  max time  |%varavg| %total
---------------------------------------------------------------
Pair    | 620.01     | 620.01     | 620.01     |   0.0 | 57.50
Neigh   | 440.3      | 440.3      | 440.3      |   0.0 | 40.84
Comm    | 6.9945     | 6.9945     | 6.9945     |   0.0 |  0.65
Output  | 0.20362    | 0.20362    | 0.20362    |   0.0 |  0.02
Modify  | 8.3796     | 8.3796     | 8.3796     |   0.0 |  0.78
Other   |            | 2.346      |            |       |  0.22

Nlocal:    19652 ave 19652 max 19652 min
Histogram: 1 0 0 0 0 0 0 0 0 0
Nghost:    20866 ave 20866 max 20866 min
Histogram: 1 0 0 0 0 0 0 0 0 0
Neighs:    2.0275e+06 ave 2.0275e+06 max 2.0275e+06 min
Histogram: 1 0 0 0 0 0 0 0 0 0

Total # of neighbors = 2027495
Ave neighs/atom = 103.17
Neighbor list builds = 4505
Dangerous builds not checked
Setting up Verlet run ...
  Unit style    : metal
  Current step  : 250000
  Time step     : 0.001
Per MPI rank memory allocation (min/avg/max) = 19.35 | 19.35 | 19.35 Mbytes
Step Temp Press TotEng PotEng Enthalpy 
  250000    350.33662    645.14551   -66898.802   -67788.689   -66801.503 
  250495    325.58576   -281.20593   -67048.158   -67875.175   -67090.524 
Loop time of 110.347 on 1 procs for 495 steps with 19652 atoms

Performance: 0.388 ns/day, 61.923 hours/ns, 4.486 timesteps/s
99.0% CPU use with 1 MPI tasks x no OpenMP threads

MPI task timing breakdown:
Section |  min time  |  avg time  |  max time  |%varavg| %total
---------------------------------------------------------------
Pair    | 62.071     | 62.071     | 62.071     |   0.0 | 56.25
Neigh   | 46.52      | 46.52      | 46.52      |   0.0 | 42.16
Comm    | 0.68437    | 0.68437    | 0.68437    |   0.0 |  0.62
Output  | 0.00016904 | 0.00016904 | 0.00016904 |   0.0 |  0.00
Modify  | 0.83236    | 0.83236    | 0.83236    |   0.0 |  0.75
Other   |            | 0.2394     |            |       |  0.22

Nlocal:    19652 ave 19652 max 19652 min
Histogram: 1 0 0 0 0 0 0 0 0 0
Nghost:    20909 ave 20909 max 20909 min
Histogram: 1 0 0 0 0 0 0 0 0 0
Neighs:    2.03018e+06 ave 2.03018e+06 max 2.03018e+06 min
Histogram: 1 0 0 0 0 0 0 0 0 0

Total # of neighbors = 2030179
Ave neighs/atom = 103.306
Neighbor list builds = 495
Dangerous builds not checked
Setting up Verlet run ...
  Unit style    : metal
  Current step  : 250495
  Time step     : 0.001
Per MPI rank memory allocation (min/avg/max) = 19.35 | 19.35 | 19.35 Mbytes
Step Temp Press TotEng PotEng Enthalpy 
  250495    325.58576   -281.20593   -67048.158   -67875.175   -67090.524 
  255000    300.06909     599.7849   -67177.744   -67939.947    -67087.57 
Loop time of 1037.27 on 1 procs for 4505 steps with 19652 atoms

Performance: 0.375 ns/day, 63.958 hours/ns, 4.343 timesteps/s
98.5% CPU use with 1 MPI tasks x no OpenMP threads

MPI task timing breakdown:
Section |  min time  |  avg time  |  max time  |%varavg| %total
---------------------------------------------------------------
Pair    | 591.3      | 591.3      | 591.3      |   0.0 | 57.01
Neigh   | 429.21     | 429.21     | 429.21     |   0.0 | 41.38
Comm    | 6.5145     | 6.5145     | 6.5145     |   0.0 |  0.63
Output  | 0.21012    | 0.21012    | 0.21012    |   0.0 |  0.02
Modify  | 7.8169     | 7.8169     | 7.8169     |   0.0 |  0.75
Other   |            | 2.221      |            |       |  0.21

Nlocal:    19652 ave 19652 max 19652 min
Histogram: 1 0 0 0 0 0 0 0 0 0
Nghost:    20893 ave 20893 max 20893 min
Histogram: 1 0 0 0 0 0 0 0 0 0
Neighs:    2.03507e+06 ave 2.03507e+06 max 2.03507e+06 min
Histogram: 1 0 0 0 0 0 0 0 0 0

Total # of neighbors = 2035072
Ave neighs/atom = 103.555
Neighbor list builds = 4505
Dangerous builds not checked
Setting up Verlet run ...
  Unit style    : metal
  Current step  : 255000
  Time step     : 0.001
Per MPI rank memory allocation (min/avg/max) = 19.35 | 19.35 | 19.35 Mbytes
Step Temp Press TotEng PotEng Enthalpy 
  255000    300.06909     599.7849   -67177.744   -67939.947    -67087.57 
  255495    271.43155   -478.30346   -67316.615   -68006.076   -67388.482 
Loop time of 121.463 on 1 procs for 495 steps with 19652 atoms

Performance: 0.352 ns/day, 68.161 hours/ns, 4.075 timesteps/s
99.1% CPU use with 1 MPI tasks x no OpenMP threads

MPI task timing breakdown:
Section |  min time  |  avg time  |  max time  |%varavg| %total
---------------------------------------------------------------
Pair    | 71.577     | 71.577     | 71.577     |   0.0 | 58.93
Neigh   | 47.792     | 47.792     | 47.792     |   0.0 | 39.35
Comm    | 0.83569    | 0.83569    | 0.83569    |   0.0 |  0.69
Output  | 0.00027323 | 0.00027323 | 0.00027323 |   0.0 |  0.00
Modify  | 0.99202    | 0.99202    | 0.99202    |   0.0 |  0.82
Other   |            | 0.2659     |            |       |  0.22

Nlocal:    19652 ave 19652 max 19652 min
Histogram: 1 0 0 0 0 0 0 0 0 0
Nghost:    20915 ave 20915 max 20915 min
Histogram: 1 0 0 0 0 0 0 0 0 0
Neighs:    2.03591e+06 ave 2.03591e+06 max 2.03591e+06 min
Histogram: 1 0 0 0 0 0 0 0 0 0

Total # of neighbors = 2035910
Ave neighs/atom = 103.598
Neighbor list builds = 495
Dangerous builds not checked
Setting up Verlet run ...
  Unit style    : metal
  Current step  : 255495
  Time step     : 0.001
Per MPI rank memory allocation (min/avg/max) = 19.35 | 19.35 | 19.35 Mbytes
Step Temp Press TotEng PotEng Enthalpy 
  255495    271.43155   -478.30346   -67316.615   -68006.076   -67388.482 
  260000    252.80618    51.784207   -67437.601   -68079.752   -67429.835 
Loop time of 1058.31 on 1 procs for 4505 steps with 19652 atoms

Performance: 0.368 ns/day, 65.255 hours/ns, 4.257 timesteps/s
98.5% CPU use with 1 MPI tasks x no OpenMP threads

MPI task timing breakdown:
Section |  min time  |  avg time  |  max time  |%varavg| %total
---------------------------------------------------------------
Pair    | 607.33     | 607.33     | 607.33     |   0.0 | 57.39
Neigh   | 433.08     | 433.08     | 433.08     |   0.0 | 40.92
Comm    | 6.9757     | 6.9757     | 6.9757     |   0.0 |  0.66
Output  | 0.35452    | 0.35452    | 0.35452    |   0.0 |  0.03
Modify  | 8.2402     | 8.2402     | 8.2402     |   0.0 |  0.78
Other   |            | 2.33       |            |       |  0.22

Nlocal:    19652 ave 19652 max 19652 min
Histogram: 1 0 0 0 0 0 0 0 0 0
Nghost:    20927 ave 20927 max 20927 min
Histogram: 1 0 0 0 0 0 0 0 0 0
Neighs:    2.04067e+06 ave 2.04067e+06 max 2.04067e+06 min
Histogram: 1 0 0 0 0 0 0 0 0 0

Total # of neighbors = 2040670
Ave neighs/atom = 103.84
Neighbor list builds = 4505
Dangerous builds not checked
Setting up Verlet run ...
  Unit style    : metal
  Current step  : 260000
  Time step     : 0.001
Per MPI rank memory allocation (min/avg/max) = 19.35 | 19.35 | 19.35 Mbytes
Step Temp Press TotEng PotEng Enthalpy 
  260000    252.80618    51.784207   -67437.601   -68079.752   -67429.835 
  260495    225.14351    46.421003   -67576.842   -68148.727   -67569.891 
Loop time of 112.418 on 1 procs for 495 steps with 19652 atoms

Performance: 0.380 ns/day, 63.085 hours/ns, 4.403 timesteps/s
100.0% CPU use with 1 MPI tasks x no OpenMP threads

MPI task timing breakdown:
Section |  min time  |  avg time  |  max time  |%varavg| %total
---------------------------------------------------------------
Pair    | 63.167     | 63.167     | 63.167     |   0.0 | 56.19
Neigh   | 47.478     | 47.478     | 47.478     |   0.0 | 42.23
Comm    | 0.67385    | 0.67385    | 0.67385    |   0.0 |  0.60
Output  | 0.000247   | 0.000247   | 0.000247   |   0.0 |  0.00
Modify  | 0.85572    | 0.85572    | 0.85572    |   0.0 |  0.76
Other   |            | 0.2442     |            |       |  0.22

Nlocal:    19652 ave 19652 max 19652 min
Histogram: 1 0 0 0 0 0 0 0 0 0
Nghost:    20956 ave 20956 max 20956 min
Histogram: 1 0 0 0 0 0 0 0 0 0
Neighs:    2.0444e+06 ave 2.0444e+06 max 2.0444e+06 min
Histogram: 1 0 0 0 0 0 0 0 0 0

Total # of neighbors = 2044404
Ave neighs/atom = 104.03
Neighbor list builds = 495
Dangerous builds not checked
Setting up Verlet run ...
  Unit style    : metal
  Current step  : 260495
  Time step     : 0.001
Per MPI rank memory allocation (min/avg/max) = 19.35 | 19.35 | 19.35 Mbytes
Step Temp Press TotEng PotEng Enthalpy 
  260495    225.14351    46.421003   -67576.842   -68148.727   -67569.891 
  265000    200.69955    1142.7124   -67707.513   -68217.308   -67536.799 
Loop time of 1023.92 on 1 procs for 4505 steps with 19652 atoms

Performance: 0.380 ns/day, 63.135 hours/ns, 4.400 timesteps/s
97.7% CPU use with 1 MPI tasks x no OpenMP threads

MPI task timing breakdown:
Section |  min time  |  avg time  |  max time  |%varavg| %total
---------------------------------------------------------------
Pair    | 583.15     | 583.15     | 583.15     |   0.0 | 56.95
Neigh   | 424.27     | 424.27     | 424.27     |   0.0 | 41.44
Comm    | 6.3922     | 6.3922     | 6.3922     |   0.0 |  0.62
Output  | 0.18827    | 0.18827    | 0.18827    |   0.0 |  0.02
Modify  | 7.7433     | 7.7433     | 7.7433     |   0.0 |  0.76
Other   |            | 2.181      |            |       |  0.21

Nlocal:    19652 ave 19652 max 19652 min
Histogram: 1 0 0 0 0 0 0 0 0 0
Nghost:    20989 ave 20989 max 20989 min
Histogram: 1 0 0 0 0 0 0 0 0 0
Neighs:    2.04912e+06 ave 2.04912e+06 max 2.04912e+06 min
Histogram: 1 0 0 0 0 0 0 0 0 0

Total # of neighbors = 2049125
Ave neighs/atom = 104.271
Neighbor list builds = 4505
Dangerous builds not checked
Setting up Verlet run ...
  Unit style    : metal
  Current step  : 265000
  Time step     : 0.001
Per MPI rank memory allocation (min/avg/max) = 19.35 | 19.35 | 19.35 Mbytes
Step Temp Press TotEng PotEng Enthalpy 
  265000    200.69955    1142.7124   -67707.513   -68217.308   -67536.799 
  265495    176.56237   -159.52046   -67836.853   -68285.338   -67860.672 
Loop time of 107.477 on 1 procs for 495 steps with 19652 atoms

Performance: 0.398 ns/day, 60.312 hours/ns, 4.606 timesteps/s
99.2% CPU use with 1 MPI tasks x no OpenMP threads

MPI task timing breakdown:
Section |  min time  |  avg time  |  max time  |%varavg| %total
---------------------------------------------------------------
Pair    | 61.689     | 61.689     | 61.689     |   0.0 | 57.40
Neigh   | 43.961     | 43.961     | 43.961     |   0.0 | 40.90
Comm    | 0.72689    | 0.72689    | 0.72689    |   0.0 |  0.68
Output  | 0.00016308 | 0.00016308 | 0.00016308 |   0.0 |  0.00
Modify  | 0.85213    | 0.85213    | 0.85213    |   0.0 |  0.79
Other   |            | 0.2476     |            |       |  0.23

Nlocal:    19652 ave 19652 max 19652 min
Histogram: 1 0 0 0 0 0 0 0 0 0
Nghost:    20971 ave 20971 max 20971 min
Histogram: 1 0 0 0 0 0 0 0 0 0
Neighs:    2.05131e+06 ave 2.05131e+06 max 2.05131e+06 min
Histogram: 1 0 0 0 0 0 0 0 0 0

Total # of neighbors = 2051314
Ave neighs/atom = 104.382
Neighbor list builds = 495
Dangerous builds not checked
Setting up Verlet run ...
  Unit style    : metal
  Current step  : 265495
  Time step     : 0.001
Per MPI rank memory allocation (min/avg/max) = 19.35 | 19.35 | 19.35 Mbytes
Step Temp Press TotEng PotEng Enthalpy 
  265495    176.56237   -159.52046   -67836.853   -68285.338   -67860.672 
  270000    149.71375   -5.1918591   -67978.441   -68358.727   -67979.215 
Loop time of 1065.51 on 1 procs for 4505 steps with 19652 atoms

Performance: 0.365 ns/day, 65.699 hours/ns, 4.228 timesteps/s
97.4% CPU use with 1 MPI tasks x no OpenMP threads

MPI task timing breakdown:
Section |  min time  |  avg time  |  max time  |%varavg| %total
---------------------------------------------------------------
Pair    | 606.81     | 606.81     | 606.81     |   0.0 | 56.95
Neigh   | 441.45     | 441.45     | 441.45     |   0.0 | 41.43
Comm    | 6.6582     | 6.6582     | 6.6582     |   0.0 |  0.62
Output  | 0.087291   | 0.087291   | 0.087291   |   0.0 |  0.01
Modify  | 8.1859     | 8.1859     | 8.1859     |   0.0 |  0.77
Other   |            | 2.311      |            |       |  0.22

Nlocal:    19652 ave 19652 max 19652 min
Histogram: 1 0 0 0 0 0 0 0 0 0
Nghost:    21000 ave 21000 max 21000 min
Histogram: 1 0 0 0 0 0 0 0 0 0
Neighs:    2.05473e+06 ave 2.05473e+06 max 2.05473e+06 min
Histogram: 1 0 0 0 0 0 0 0 0 0

Total # of neighbors = 2054731
Ave neighs/atom = 104.556
Neighbor list builds = 4505
Dangerous builds not checked
Setting up Verlet run ...
  Unit style    : metal
  Current step  : 270000
  Time step     : 0.001
Per MPI rank memory allocation (min/avg/max) = 19.35 | 19.35 | 19.35 Mbytes
Step Temp Press TotEng PotEng Enthalpy 
  270000    149.71375   -5.1918591   -67978.441   -68358.727   -67979.215 
  270495    126.84566    87.374144   -68092.821   -68415.021   -68079.813 
Loop time of 121.938 on 1 procs for 495 steps with 19652 atoms

Performance: 0.351 ns/day, 68.427 hours/ns, 4.059 timesteps/s
99.5% CPU use with 1 MPI tasks x no OpenMP threads

MPI task timing breakdown:
Section |  min time  |  avg time  |  max time  |%varavg| %total
---------------------------------------------------------------
Pair    | 71.653     | 71.653     | 71.653     |   0.0 | 58.76
Neigh   | 48.217     | 48.217     | 48.217     |   0.0 | 39.54
Comm    | 0.81379    | 0.81379    | 0.81379    |   0.0 |  0.67
Output  | 0.00024414 | 0.00024414 | 0.00024414 |   0.0 |  0.00
Modify  | 0.98735    | 0.98735    | 0.98735    |   0.0 |  0.81
Other   |            | 0.2665     |            |       |  0.22

Nlocal:    19652 ave 19652 max 19652 min
Histogram: 1 0 0 0 0 0 0 0 0 0
Nghost:    21000 ave 21000 max 21000 min
Histogram: 1 0 0 0 0 0 0 0 0 0
Neighs:    2.05804e+06 ave 2.05804e+06 max 2.05804e+06 min
Histogram: 1 0 0 0 0 0 0 0 0 0

Total # of neighbors = 2058038
Ave neighs/atom = 104.724
Neighbor list builds = 495
Dangerous builds not checked
Setting up Verlet run ...
  Unit style    : metal
  Current step  : 270495
  Time step     : 0.001
Per MPI rank memory allocation (min/avg/max) = 19.35 | 19.35 | 19.35 Mbytes
Step Temp Press TotEng PotEng Enthalpy 
  270495    126.84566    87.374144   -68092.821   -68415.021   -68079.813 
  275000    100.81265   -283.89999   -68230.958   -68487.031   -68273.168 
Loop time of 1047.42 on 1 procs for 4505 steps with 19652 atoms

Performance: 0.372 ns/day, 64.584 hours/ns, 4.301 timesteps/s
95.2% CPU use with 1 MPI tasks x no OpenMP threads

MPI task timing breakdown:
Section |  min time  |  avg time  |  max time  |%varavg| %total
---------------------------------------------------------------
Pair    | 600.97     | 600.97     | 600.97     |   0.0 | 57.38
Neigh   | 429.51     | 429.51     | 429.51     |   0.0 | 41.01
Comm    | 6.5395     | 6.5395     | 6.5395     |   0.0 |  0.62
Output  | 0.080947   | 0.080947   | 0.080947   |   0.0 |  0.01
Modify  | 8.1136     | 8.1136     | 8.1136     |   0.0 |  0.77
Other   |            | 2.206      |            |       |  0.21

Nlocal:    19652 ave 19652 max 19652 min
Histogram: 1 0 0 0 0 0 0 0 0 0
Nghost:    21020 ave 21020 max 21020 min
Histogram: 1 0 0 0 0 0 0 0 0 0
Neighs:    2.06115e+06 ave 2.06115e+06 max 2.06115e+06 min
Histogram: 1 0 0 0 0 0 0 0 0 0

Total # of neighbors = 2061148
Ave neighs/atom = 104.882
Neighbor list builds = 4505
Dangerous builds not checked
Total wall time: 16:42:17
