LAMMPS (12 Dec 2018)
Lattice spacing in x,y,z = 4 4 4
Created orthogonal box = (0 0 0) to (68 68 68)
  1 by 1 by 1 MPI processor grid
Created 19652 atoms
  Time spent = 0.00328684 secs
Setting atom values ...
  19281 settings made for type/fraction
Neighbor list info ...
  update every 1 steps, delay 0 steps, check no
  max neighbors/atom: 2000, page size: 100000
  master list distance cutoff = 8.5
  ghost atom cutoff = 8.5
  binsize = 4.25, bins = 16 16 16
  1 neighbor lists, perpetual/occasional/extra = 1 0 0
  (1) pair eam/alloy, perpetual
      attributes: half, newton on
      pair build: half/bin/atomonly/newton
      stencil: half/bin/3d/newton
      bin: standard
Setting up Verlet run ...
  Unit style    : metal
  Current step  : 0
  Time step     : 0.001
Per MPI rank memory allocation (min/avg/max) = 18.19 | 18.19 | 18.19 Mbytes
Step Temp Press TotEng PotEng Enthalpy 
       0          300    29666.511   -65241.477   -66003.504   -59419.334 
    1000    176.43726    36465.277   -65241.349   -65689.516   -58084.928 
Loop time of 165.328 on 1 procs for 1000 steps with 19652 atoms

Performance: 0.523 ns/day, 45.924 hours/ns, 6.049 timesteps/s
99.5% CPU use with 1 MPI tasks x no OpenMP threads

MPI task timing breakdown:
Section |  min time  |  avg time  |  max time  |%varavg| %total
---------------------------------------------------------------
Pair    | 94.904     | 94.904     | 94.904     |   0.0 | 57.40
Neigh   | 68.298     | 68.298     | 68.298     |   0.0 | 41.31
Comm    | 1.2668     | 1.2668     | 1.2668     |   0.0 |  0.77
Output  | 0.00023603 | 0.00023603 | 0.00023603 |   0.0 |  0.00
Modify  | 0.45391    | 0.45391    | 0.45391    |   0.0 |  0.27
Other   |            | 0.4052     |            |       |  0.25

Nlocal:    19652 ave 19652 max 19652 min
Histogram: 1 0 0 0 0 0 0 0 0 0
Nghost:    20102 ave 20102 max 20102 min
Histogram: 1 0 0 0 0 0 0 0 0 0
Neighs:    1.56805e+06 ave 1.56805e+06 max 1.56805e+06 min
Histogram: 1 0 0 0 0 0 0 0 0 0

Total # of neighbors = 1568047
Ave neighs/atom = 79.7907
Neighbor list builds = 1000
Dangerous builds not checked
Setting up Verlet run ...
  Unit style    : metal
  Current step  : 1000
  Time step     : 0.001
Per MPI rank memory allocation (min/avg/max) = 18.19 | 18.19 | 18.19 Mbytes
Step Temp Press TotEng PotEng Enthalpy 
    1000    176.43726    36465.277   -65241.349   -65689.516   -58084.928 
    2000     304.6752   -19.522557   -64629.622   -65403.525   -64633.662 
Loop time of 165.391 on 1 procs for 1000 steps with 19652 atoms

Performance: 0.522 ns/day, 45.942 hours/ns, 6.046 timesteps/s
97.6% CPU use with 1 MPI tasks x no OpenMP threads

MPI task timing breakdown:
Section |  min time  |  avg time  |  max time  |%varavg| %total
---------------------------------------------------------------
Pair    | 92.459     | 92.459     | 92.459     |   0.0 | 55.90
Neigh   | 69.648     | 69.648     | 69.648     |   0.0 | 42.11
Comm    | 1.2203     | 1.2203     | 1.2203     |   0.0 |  0.74
Output  | 0.00020504 | 0.00020504 | 0.00020504 |   0.0 |  0.00
Modify  | 1.6329     | 1.6329     | 1.6329     |   0.0 |  0.99
Other   |            | 0.4313     |            |       |  0.26

Nlocal:    19652 ave 19652 max 19652 min
Histogram: 1 0 0 0 0 0 0 0 0 0
Nghost:    20090 ave 20090 max 20090 min
Histogram: 1 0 0 0 0 0 0 0 0 0
Neighs:    1.44945e+06 ave 1.44945e+06 max 1.44945e+06 min
Histogram: 1 0 0 0 0 0 0 0 0 0

Total # of neighbors = 1449447
Ave neighs/atom = 73.7557
Neighbor list builds = 1000
Dangerous builds not checked
Setting up Verlet run ...
  Unit style    : metal
  Current step  : 2000
  Time step     : 0.001
Per MPI rank memory allocation (min/avg/max) = 18.19 | 18.19 | 18.19 Mbytes
Step Temp Press TotEng PotEng Enthalpy 
    2000     304.6752   -19.522557   -64629.622   -65403.525   -64633.662 
    6667    1551.2163    22.815791   -56164.344   -60104.575   -56158.669 
   10000    2473.9628   -444.84671   -51168.144   -57452.235   -51290.368 
Loop time of 1283.25 on 1 procs for 8000 steps with 19652 atoms

Performance: 0.539 ns/day, 44.557 hours/ns, 6.234 timesteps/s
97.5% CPU use with 1 MPI tasks x no OpenMP threads

MPI task timing breakdown:
Section |  min time  |  avg time  |  max time  |%varavg| %total
---------------------------------------------------------------
Pair    | 690.99     | 690.99     | 690.99     |   0.0 | 53.85
Neigh   | 566.33     | 566.33     | 566.33     |   0.0 | 44.13
Comm    | 9.3901     | 9.3901     | 9.3901     |   0.0 |  0.73
Output  | 0.11123    | 0.11123    | 0.11123    |   0.0 |  0.01
Modify  | 13.117     | 13.117     | 13.117     |   0.0 |  1.02
Other   |            | 3.304      |            |       |  0.26

Nlocal:    19652 ave 19652 max 19652 min
Histogram: 1 0 0 0 0 0 0 0 0 0
Nghost:    16287 ave 16287 max 16287 min
Histogram: 1 0 0 0 0 0 0 0 0 0
Neighs:    1.11938e+06 ave 1.11938e+06 max 1.11938e+06 min
Histogram: 1 0 0 0 0 0 0 0 0 0

Total # of neighbors = 1119380
Ave neighs/atom = 56.9601
Neighbor list builds = 8000
Dangerous builds not checked
Setting up Verlet run ...
  Unit style    : metal
  Current step  : 10000
  Time step     : 0.001
Per MPI rank memory allocation (min/avg/max) = 18.19 | 18.19 | 18.19 Mbytes
Step Temp Press TotEng PotEng Enthalpy 
   10000    2473.9628   -444.84671   -51168.144   -57452.235   -51290.368 
   13334    2447.8582   -109.05521    -51119.76   -57337.543   -51149.858 
   20001    2472.5904   -128.29518   -51049.154   -57329.759   -51084.557 
   26668     2459.288    1188.8841   -51172.646   -57419.462   -50846.804 
   33335     2442.028     843.1707   -51104.561   -57307.535   -50872.474 
   40000    2460.2711    1159.9564   -51155.638   -57404.951   -50837.552 
Loop time of 4352.02 on 1 procs for 30000 steps with 19652 atoms

Performance: 0.596 ns/day, 40.296 hours/ns, 6.893 timesteps/s
99.6% CPU use with 1 MPI tasks x no OpenMP threads

MPI task timing breakdown:
Section |  min time  |  avg time  |  max time  |%varavg| %total
---------------------------------------------------------------
Pair    | 2233.4     | 2233.4     | 2233.4     |   0.0 | 51.32
Neigh   | 2026.6     | 2026.6     | 2026.6     |   0.0 | 46.57
Comm    | 33.008     | 33.008     | 33.008     |   0.0 |  0.76
Output  | 0.44101    | 0.44101    | 0.44101    |   0.0 |  0.01
Modify  | 46.839     | 46.839     | 46.839     |   0.0 |  1.08
Other   |            | 11.76      |            |       |  0.27

Nlocal:    19652 ave 19652 max 19652 min
Histogram: 1 0 0 0 0 0 0 0 0 0
Nghost:    16320 ave 16320 max 16320 min
Histogram: 1 0 0 0 0 0 0 0 0 0
Neighs:    1.12204e+06 ave 1.12204e+06 max 1.12204e+06 min
Histogram: 1 0 0 0 0 0 0 0 0 0

Total # of neighbors = 1122038
Ave neighs/atom = 57.0954
Neighbor list builds = 30000
Dangerous builds not checked
Setting up Verlet run ...
  Unit style    : metal
  Current step  : 40000
  Time step     : 0.001
Per MPI rank memory allocation (min/avg/max) = 18.19 | 18.19 | 18.19 Mbytes
Step Temp Press TotEng PotEng Enthalpy 
   40000    2460.2711    1159.9564   -51155.638   -57404.951   -50837.552 
   40002    2458.5465    1195.6276   -51155.653   -57400.585   -50827.784 
   40495    2432.6556   -850.27418   -51235.141   -57414.308   -51469.393 
Loop time of 66.7854 on 1 procs for 495 steps with 19652 atoms

Performance: 0.640 ns/day, 37.478 hours/ns, 7.412 timesteps/s
99.9% CPU use with 1 MPI tasks x no OpenMP threads

MPI task timing breakdown:
Section |  min time  |  avg time  |  max time  |%varavg| %total
---------------------------------------------------------------
Pair    | 33.995     | 33.995     | 33.995     |   0.0 | 50.90
Neigh   | 31.27      | 31.27      | 31.27      |   0.0 | 46.82
Comm    | 0.51468    | 0.51468    | 0.51468    |   0.0 |  0.77
Output  | 0.066435   | 0.066435   | 0.066435   |   0.0 |  0.10
Modify  | 0.75096    | 0.75096    | 0.75096    |   0.0 |  1.12
Other   |            | 0.1891     |            |       |  0.28

Nlocal:    19652 ave 19652 max 19652 min
Histogram: 1 0 0 0 0 0 0 0 0 0
Nghost:    16389 ave 16389 max 16389 min
Histogram: 1 0 0 0 0 0 0 0 0 0
Neighs:    1.11586e+06 ave 1.11586e+06 max 1.11586e+06 min
Histogram: 1 0 0 0 0 0 0 0 0 0

Total # of neighbors = 1115860
Ave neighs/atom = 56.781
Neighbor list builds = 495
Dangerous builds not checked
Setting up Verlet run ...
  Unit style    : metal
  Current step  : 40495
  Time step     : 0.001
Per MPI rank memory allocation (min/avg/max) = 18.19 | 18.19 | 18.19 Mbytes
Step Temp Press TotEng PotEng Enthalpy 
   40495    2432.6556   -850.27418   -51235.141   -57414.308   -51469.393 
   46667    2422.6153    431.89046   -51364.957   -57518.621   -51246.823 
Loop time of 874.601 on 1 procs for 6172 steps with 19652 atoms

Performance: 0.610 ns/day, 39.362 hours/ns, 7.057 timesteps/s
99.9% CPU use with 1 MPI tasks x no OpenMP threads

MPI task timing breakdown:
Section |  min time  |  avg time  |  max time  |%varavg| %total
---------------------------------------------------------------
Pair    | 448.59     | 448.59     | 448.59     |   0.0 | 51.29
Neigh   | 407.52     | 407.52     | 407.52     |   0.0 | 46.59
Comm    | 6.6488     | 6.6488     | 6.6488     |   0.0 |  0.76
Output  | 0.00021791 | 0.00021791 | 0.00021791 |   0.0 |  0.00
Modify  | 9.4503     | 9.4503     | 9.4503     |   0.0 |  1.08
Other   |            | 2.392      |            |       |  0.27

Nlocal:    19652 ave 19652 max 19652 min
Histogram: 1 0 0 0 0 0 0 0 0 0
Nghost:    16432 ave 16432 max 16432 min
Histogram: 1 0 0 0 0 0 0 0 0 0
Neighs:    1.12423e+06 ave 1.12423e+06 max 1.12423e+06 min
Histogram: 1 0 0 0 0 0 0 0 0 0

Total # of neighbors = 1124227
Ave neighs/atom = 57.2067
Neighbor list builds = 6172
Dangerous builds not checked
Setting up Verlet run ...
  Unit style    : metal
  Current step  : 46667
  Time step     : 0.001
Per MPI rank memory allocation (min/avg/max) = 18.19 | 18.19 | 18.19 Mbytes
Step Temp Press TotEng PotEng Enthalpy 
   46667    2422.6153    431.89046   -51364.957   -57518.621   -51246.823 
   46669    2420.7949    477.10396   -51364.975   -57514.015   -51234.474 
   47162    2363.6308   -336.37727   -51570.668   -57574.506   -51662.615 
Loop time of 67.3326 on 1 procs for 495 steps with 19652 atoms

Performance: 0.635 ns/day, 37.785 hours/ns, 7.352 timesteps/s
99.9% CPU use with 1 MPI tasks x no OpenMP threads

MPI task timing breakdown:
Section |  min time  |  avg time  |  max time  |%varavg| %total
---------------------------------------------------------------
Pair    | 34.411     | 34.411     | 34.411     |   0.0 | 51.11
Neigh   | 31.377     | 31.377     | 31.377     |   0.0 | 46.60
Comm    | 0.51498    | 0.51498    | 0.51498    |   0.0 |  0.76
Output  | 0.067667   | 0.067667   | 0.067667   |   0.0 |  0.10
Modify  | 0.76823    | 0.76823    | 0.76823    |   0.0 |  1.14
Other   |            | 0.1936     |            |       |  0.29

Nlocal:    19652 ave 19652 max 19652 min
Histogram: 1 0 0 0 0 0 0 0 0 0
Nghost:    16409 ave 16409 max 16409 min
Histogram: 1 0 0 0 0 0 0 0 0 0
Neighs:    1.12518e+06 ave 1.12518e+06 max 1.12518e+06 min
Histogram: 1 0 0 0 0 0 0 0 0 0

Total # of neighbors = 1125179
Ave neighs/atom = 57.2552
Neighbor list builds = 495
Dangerous builds not checked
Setting up Verlet run ...
  Unit style    : metal
  Current step  : 47162
  Time step     : 0.001
Per MPI rank memory allocation (min/avg/max) = 18.19 | 18.19 | 18.19 Mbytes
Step Temp Press TotEng PotEng Enthalpy 
   47162    2363.6308   -336.37727   -51570.668   -57574.506   -51662.615 
   53334    2332.6427   -188.27765   -51766.015    -57691.14   -51817.257 
Loop time of 902.202 on 1 procs for 6172 steps with 19652 atoms

Performance: 0.591 ns/day, 40.605 hours/ns, 6.841 timesteps/s
97.9% CPU use with 1 MPI tasks x no OpenMP threads

MPI task timing breakdown:
Section |  min time  |  avg time  |  max time  |%varavg| %total
---------------------------------------------------------------
Pair    | 467.53     | 467.53     | 467.53     |   0.0 | 51.82
Neigh   | 415.79     | 415.79     | 415.79     |   0.0 | 46.09
Comm    | 6.8154     | 6.8154     | 6.8154     |   0.0 |  0.76
Output  | 0.00021601 | 0.00021601 | 0.00021601 |   0.0 |  0.00
Modify  | 9.6087     | 9.6087     | 9.6087     |   0.0 |  1.07
Other   |            | 2.454      |            |       |  0.27

Nlocal:    19652 ave 19652 max 19652 min
Histogram: 1 0 0 0 0 0 0 0 0 0
Nghost:    16452 ave 16452 max 16452 min
Histogram: 1 0 0 0 0 0 0 0 0 0
Neighs:    1.13037e+06 ave 1.13037e+06 max 1.13037e+06 min
Histogram: 1 0 0 0 0 0 0 0 0 0

Total # of neighbors = 1130366
Ave neighs/atom = 57.5191
Neighbor list builds = 6172
Dangerous builds not checked
Setting up Verlet run ...
  Unit style    : metal
  Current step  : 53334
  Time step     : 0.001
Per MPI rank memory allocation (min/avg/max) = 18.19 | 18.19 | 18.19 Mbytes
Step Temp Press TotEng PotEng Enthalpy 
   53334    2332.6427   -188.27765   -51766.015    -57691.14   -51817.257 
   53336    2334.1473   -204.14362   -51765.994   -57694.941   -51821.554 
   53829    2303.6862   -555.40183   -51863.257    -57714.83   -52014.277 
Loop time of 80.6257 on 1 procs for 495 steps with 19652 atoms

Performance: 0.530 ns/day, 45.244 hours/ns, 6.139 timesteps/s
89.6% CPU use with 1 MPI tasks x no OpenMP threads

MPI task timing breakdown:
Section |  min time  |  avg time  |  max time  |%varavg| %total
---------------------------------------------------------------
Pair    | 42.254     | 42.254     | 42.254     |   0.0 | 52.41
Neigh   | 36.604     | 36.604     | 36.604     |   0.0 | 45.40
Comm    | 0.59287    | 0.59287    | 0.59287    |   0.0 |  0.74
Output  | 0.066101   | 0.066101   | 0.066101   |   0.0 |  0.08
Modify  | 0.88842    | 0.88842    | 0.88842    |   0.0 |  1.10
Other   |            | 0.2202     |            |       |  0.27

Nlocal:    19652 ave 19652 max 19652 min
Histogram: 1 0 0 0 0 0 0 0 0 0
Nghost:    16503 ave 16503 max 16503 min
Histogram: 1 0 0 0 0 0 0 0 0 0
Neighs:    1.13076e+06 ave 1.13076e+06 max 1.13076e+06 min
Histogram: 1 0 0 0 0 0 0 0 0 0

Total # of neighbors = 1130758
Ave neighs/atom = 57.5391
Neighbor list builds = 495
Dangerous builds not checked
Setting up Verlet run ...
  Unit style    : metal
  Current step  : 53829
  Time step     : 0.001
Per MPI rank memory allocation (min/avg/max) = 18.19 | 18.19 | 18.19 Mbytes
Step Temp Press TotEng PotEng Enthalpy 
   53829    2303.6862   -555.40183   -51863.257    -57714.83   -52014.277 
   60001    2296.9749    1328.2644   -51980.072   -57814.597   -51622.189 
Loop time of 874.915 on 1 procs for 6172 steps with 19652 atoms

Performance: 0.610 ns/day, 39.377 hours/ns, 7.054 timesteps/s
94.9% CPU use with 1 MPI tasks x no OpenMP threads

MPI task timing breakdown:
Section |  min time  |  avg time  |  max time  |%varavg| %total
---------------------------------------------------------------
Pair    | 452.06     | 452.06     | 452.06     |   0.0 | 51.67
Neigh   | 404.59     | 404.59     | 404.59     |   0.0 | 46.24
Comm    | 6.6448     | 6.6448     | 6.6448     |   0.0 |  0.76
Output  | 0.000247   | 0.000247   | 0.000247   |   0.0 |  0.00
Modify  | 9.2408     | 9.2408     | 9.2408     |   0.0 |  1.06
Other   |            | 2.377      |            |       |  0.27

Nlocal:    19652 ave 19652 max 19652 min
Histogram: 1 0 0 0 0 0 0 0 0 0
Nghost:    16524 ave 16524 max 16524 min
Histogram: 1 0 0 0 0 0 0 0 0 0
Neighs:    1.14181e+06 ave 1.14181e+06 max 1.14181e+06 min
Histogram: 1 0 0 0 0 0 0 0 0 0

Total # of neighbors = 1141812
Ave neighs/atom = 58.1016
Neighbor list builds = 6172
Dangerous builds not checked
Setting up Verlet run ...
  Unit style    : metal
  Current step  : 60001
  Time step     : 0.001
Per MPI rank memory allocation (min/avg/max) = 18.19 | 18.19 | 18.19 Mbytes
Step Temp Press TotEng PotEng Enthalpy 
   60001    2296.9749    1328.2644   -51980.072   -57814.597   -51622.189 
   60003    2295.4266    1327.4699   -51980.058   -57810.651   -51622.389 
   60496    2258.3002   -98.592789   -52069.748   -57806.036   -52096.444 
Loop time of 76.8018 on 1 procs for 495 steps with 19652 atoms

Performance: 0.557 ns/day, 43.099 hours/ns, 6.445 timesteps/s
91.2% CPU use with 1 MPI tasks x no OpenMP threads

MPI task timing breakdown:
Section |  min time  |  avg time  |  max time  |%varavg| %total
---------------------------------------------------------------
Pair    | 39.406     | 39.406     | 39.406     |   0.0 | 51.31
Neigh   | 35.584     | 35.584     | 35.584     |   0.0 | 46.33
Comm    | 0.61379    | 0.61379    | 0.61379    |   0.0 |  0.80
Output  | 0.16247    | 0.16247    | 0.16247    |   0.0 |  0.21
Modify  | 0.81865    | 0.81865    | 0.81865    |   0.0 |  1.07
Other   |            | 0.2176     |            |       |  0.28

Nlocal:    19652 ave 19652 max 19652 min
Histogram: 1 0 0 0 0 0 0 0 0 0
Nghost:    16533 ave 16533 max 16533 min
Histogram: 1 0 0 0 0 0 0 0 0 0
Neighs:    1.13604e+06 ave 1.13604e+06 max 1.13604e+06 min
Histogram: 1 0 0 0 0 0 0 0 0 0

Total # of neighbors = 1136035
Ave neighs/atom = 57.8076
Neighbor list builds = 495
Dangerous builds not checked
Setting up Verlet run ...
  Unit style    : metal
  Current step  : 60496
  Time step     : 0.001
Per MPI rank memory allocation (min/avg/max) = 18.19 | 18.19 | 18.19 Mbytes
Step Temp Press TotEng PotEng Enthalpy 
   60496    2258.3002   -98.592789   -52069.748   -57806.036   -52096.444 
   66668    2260.0494    1586.2031   -52233.317   -57974.049   -51808.214 
Loop time of 1073.63 on 1 procs for 6172 steps with 19652 atoms

Performance: 0.497 ns/day, 48.320 hours/ns, 5.749 timesteps/s
88.3% CPU use with 1 MPI tasks x no OpenMP threads

MPI task timing breakdown:
Section |  min time  |  avg time  |  max time  |%varavg| %total
---------------------------------------------------------------
Pair    | 561.28     | 561.28     | 561.28     |   0.0 | 52.28
Neigh   | 489.92     | 489.92     | 489.92     |   0.0 | 45.63
Comm    | 8.1776     | 8.1776     | 8.1776     |   0.0 |  0.76
Output  | 0.00037599 | 0.00037599 | 0.00037599 |   0.0 |  0.00
Modify  | 11.379     | 11.379     | 11.379     |   0.0 |  1.06
Other   |            | 2.874      |            |       |  0.27

Nlocal:    19652 ave 19652 max 19652 min
Histogram: 1 0 0 0 0 0 0 0 0 0
Nghost:    16553 ave 16553 max 16553 min
Histogram: 1 0 0 0 0 0 0 0 0 0
Neighs:    1.14763e+06 ave 1.14763e+06 max 1.14763e+06 min
Histogram: 1 0 0 0 0 0 0 0 0 0

Total # of neighbors = 1147634
Ave neighs/atom = 58.3978
Neighbor list builds = 6172
Dangerous builds not checked
Setting up Verlet run ...
  Unit style    : metal
  Current step  : 66668
  Time step     : 0.001
Per MPI rank memory allocation (min/avg/max) = 18.19 | 18.19 | 18.19 Mbytes
Step Temp Press TotEng PotEng Enthalpy 
   66668    2260.0494    1586.2031   -52233.317   -57974.049   -51808.214 
   66670    2260.6443    1604.6716   -52233.335   -57975.578   -51803.282 
   67163    2218.2022   -1004.6858   -52370.659   -58005.094   -52641.112 
Loop time of 86.8066 on 1 procs for 495 steps with 19652 atoms

Performance: 0.493 ns/day, 48.713 hours/ns, 5.702 timesteps/s
84.8% CPU use with 1 MPI tasks x no OpenMP threads

MPI task timing breakdown:
Section |  min time  |  avg time  |  max time  |%varavg| %total
---------------------------------------------------------------
Pair    | 45.366     | 45.366     | 45.366     |   0.0 | 52.26
Neigh   | 39.448     | 39.448     | 39.448     |   0.0 | 45.44
Comm    | 0.67967    | 0.67967    | 0.67967    |   0.0 |  0.78
Output  | 0.064126   | 0.064126   | 0.064126   |   0.0 |  0.07
Modify  | 0.99725    | 0.99725    | 0.99725    |   0.0 |  1.15
Other   |            | 0.2522     |            |       |  0.29

Nlocal:    19652 ave 19652 max 19652 min
Histogram: 1 0 0 0 0 0 0 0 0 0
Nghost:    16516 ave 16516 max 16516 min
Histogram: 1 0 0 0 0 0 0 0 0 0
Neighs:    1.14207e+06 ave 1.14207e+06 max 1.14207e+06 min
Histogram: 1 0 0 0 0 0 0 0 0 0

Total # of neighbors = 1142073
Ave neighs/atom = 58.1148
Neighbor list builds = 495
Dangerous builds not checked
Setting up Verlet run ...
  Unit style    : metal
  Current step  : 67163
  Time step     : 0.001
Per MPI rank memory allocation (min/avg/max) = 18.19 | 18.19 | 18.19 Mbytes
Step Temp Press TotEng PotEng Enthalpy 
   67163    2218.2022   -1004.6858   -52370.659   -58005.094   -52641.112 
   73335    2208.5778   -569.51617   -52443.659   -58053.648     -52596.6 
Loop time of 1062.63 on 1 procs for 6172 steps with 19652 atoms

Performance: 0.502 ns/day, 47.825 hours/ns, 5.808 timesteps/s
87.9% CPU use with 1 MPI tasks x no OpenMP threads

MPI task timing breakdown:
Section |  min time  |  avg time  |  max time  |%varavg| %total
---------------------------------------------------------------
Pair    | 557.25     | 557.25     | 557.25     |   0.0 | 52.44
Neigh   | 483.39     | 483.39     | 483.39     |   0.0 | 45.49
Comm    | 7.97       | 7.97       | 7.97       |   0.0 |  0.75
Output  | 0.00023198 | 0.00023198 | 0.00023198 |   0.0 |  0.00
Modify  | 11.2       | 11.2       | 11.2       |   0.0 |  1.05
Other   |            | 2.813      |            |       |  0.26

Nlocal:    19652 ave 19652 max 19652 min
Histogram: 1 0 0 0 0 0 0 0 0 0
Nghost:    16490 ave 16490 max 16490 min
Histogram: 1 0 0 0 0 0 0 0 0 0
Neighs:    1.14541e+06 ave 1.14541e+06 max 1.14541e+06 min
Histogram: 1 0 0 0 0 0 0 0 0 0

Total # of neighbors = 1145408
Ave neighs/atom = 58.2846
Neighbor list builds = 6172
Dangerous builds not checked
Setting up Verlet run ...
  Unit style    : metal
  Current step  : 73335
  Time step     : 0.001
Per MPI rank memory allocation (min/avg/max) = 18.19 | 18.19 | 18.19 Mbytes
Step Temp Press TotEng PotEng Enthalpy 
   73335    2208.5778   -569.51617   -52443.659   -58053.648     -52596.6 
   73337    2208.5856   -584.72273    -52443.66   -58053.669   -52600.685 
   73830    2157.2544       126.89    -52694.42   -58174.042   -52660.582 
Loop time of 84.73 on 1 procs for 495 steps with 19652 atoms

Performance: 0.505 ns/day, 47.548 hours/ns, 5.842 timesteps/s
87.6% CPU use with 1 MPI tasks x no OpenMP threads

MPI task timing breakdown:
Section |  min time  |  avg time  |  max time  |%varavg| %total
---------------------------------------------------------------
Pair    | 44.372     | 44.372     | 44.372     |   0.0 | 52.37
Neigh   | 38.478     | 38.478     | 38.478     |   0.0 | 45.41
Comm    | 0.66906    | 0.66906    | 0.66906    |   0.0 |  0.79
Output  | 0.067676   | 0.067676   | 0.067676   |   0.0 |  0.08
Modify  | 0.91473    | 0.91473    | 0.91473    |   0.0 |  1.08
Other   |            | 0.2289     |            |       |  0.27

Nlocal:    19652 ave 19652 max 19652 min
Histogram: 1 0 0 0 0 0 0 0 0 0
Nghost:    16517 ave 16517 max 16517 min
Histogram: 1 0 0 0 0 0 0 0 0 0
Neighs:    1.15393e+06 ave 1.15393e+06 max 1.15393e+06 min
Histogram: 1 0 0 0 0 0 0 0 0 0

Total # of neighbors = 1153933
Ave neighs/atom = 58.7183
Neighbor list builds = 495
Dangerous builds not checked
Setting up Verlet run ...
  Unit style    : metal
  Current step  : 73830
  Time step     : 0.001
Per MPI rank memory allocation (min/avg/max) = 18.19 | 18.19 | 18.19 Mbytes
Step Temp Press TotEng PotEng Enthalpy 
   73830    2157.2544       126.89    -52694.42   -58174.042   -52660.582 
   80002    2137.7572   -172.30196   -52754.845   -58184.943   -52800.799 
Loop time of 1098.81 on 1 procs for 6172 steps with 19652 atoms

Performance: 0.485 ns/day, 49.453 hours/ns, 5.617 timesteps/s
86.1% CPU use with 1 MPI tasks x no OpenMP threads

MPI task timing breakdown:
Section |  min time  |  avg time  |  max time  |%varavg| %total
---------------------------------------------------------------
Pair    | 578.02     | 578.02     | 578.02     |   0.0 | 52.60
Neigh   | 498.03     | 498.03     | 498.03     |   0.0 | 45.32
Comm    | 8.2599     | 8.2599     | 8.2599     |   0.0 |  0.75
Output  | 0.00026393 | 0.00026393 | 0.00026393 |   0.0 |  0.00
Modify  | 11.536     | 11.536     | 11.536     |   0.0 |  1.05
Other   |            | 2.955      |            |       |  0.27

Nlocal:    19652 ave 19652 max 19652 min
Histogram: 1 0 0 0 0 0 0 0 0 0
Nghost:    16541 ave 16541 max 16541 min
Histogram: 1 0 0 0 0 0 0 0 0 0
Neighs:    1.15354e+06 ave 1.15354e+06 max 1.15354e+06 min
Histogram: 1 0 0 0 0 0 0 0 0 0

Total # of neighbors = 1153544
Ave neighs/atom = 58.6986
Neighbor list builds = 6172
Dangerous builds not checked
Setting up Verlet run ...
  Unit style    : metal
  Current step  : 80002
  Time step     : 0.001
Per MPI rank memory allocation (min/avg/max) = 18.19 | 18.19 | 18.19 Mbytes
Step Temp Press TotEng PotEng Enthalpy 
   80002    2137.7572   -172.30196   -52754.845   -58184.943   -52800.799 
   80004     2139.603   -203.61918   -52754.841   -58189.628   -52809.148 
   80497    2118.4384    262.75938   -52993.304   -58374.331   -52923.715 
Loop time of 86.455 on 1 procs for 495 steps with 19652 atoms

Performance: 0.495 ns/day, 48.516 hours/ns, 5.726 timesteps/s
86.9% CPU use with 1 MPI tasks x no OpenMP threads

MPI task timing breakdown:
Section |  min time  |  avg time  |  max time  |%varavg| %total
---------------------------------------------------------------
Pair    | 45.519     | 45.519     | 45.519     |   0.0 | 52.65
Neigh   | 39.093     | 39.093     | 39.093     |   0.0 | 45.22
Comm    | 0.64995    | 0.64995    | 0.64995    |   0.0 |  0.75
Output  | 0.068023   | 0.068023   | 0.068023   |   0.0 |  0.08
Modify  | 0.89413    | 0.89413    | 0.89413    |   0.0 |  1.03
Other   |            | 0.2308     |            |       |  0.27

Nlocal:    19652 ave 19652 max 19652 min
Histogram: 1 0 0 0 0 0 0 0 0 0
Nghost:    16607 ave 16607 max 16607 min
Histogram: 1 0 0 0 0 0 0 0 0 0
Neighs:    1.16137e+06 ave 1.16137e+06 max 1.16137e+06 min
Histogram: 1 0 0 0 0 0 0 0 0 0

Total # of neighbors = 1161373
Ave neighs/atom = 59.0969
Neighbor list builds = 495
Dangerous builds not checked
Setting up Verlet run ...
  Unit style    : metal
  Current step  : 80497
  Time step     : 0.001
Per MPI rank memory allocation (min/avg/max) = 18.19 | 18.19 | 18.19 Mbytes
Step Temp Press TotEng PotEng Enthalpy 
   80497    2118.4384    262.75938   -52993.304   -58374.331   -52923.715 
   86669    2105.7453   -302.53919   -53088.971   -58437.755   -53168.969 
Loop time of 1104.42 on 1 procs for 6172 steps with 19652 atoms

Performance: 0.483 ns/day, 49.706 hours/ns, 5.588 timesteps/s
86.1% CPU use with 1 MPI tasks x no OpenMP threads

MPI task timing breakdown:
Section |  min time  |  avg time  |  max time  |%varavg| %total
---------------------------------------------------------------
Pair    | 581.03     | 581.03     | 581.03     |   0.0 | 52.61
Neigh   | 500.72     | 500.72     | 500.72     |   0.0 | 45.34
Comm    | 8.2007     | 8.2007     | 8.2007     |   0.0 |  0.74
Output  | 0.00023198 | 0.00023198 | 0.00023198 |   0.0 |  0.00
Modify  | 11.652     | 11.652     | 11.652     |   0.0 |  1.06
Other   |            | 2.821      |            |       |  0.26

Nlocal:    19652 ave 19652 max 19652 min
Histogram: 1 0 0 0 0 0 0 0 0 0
Nghost:    16543 ave 16543 max 16543 min
Histogram: 1 0 0 0 0 0 0 0 0 0
Neighs:    1.16353e+06 ave 1.16353e+06 max 1.16353e+06 min
Histogram: 1 0 0 0 0 0 0 0 0 0

Total # of neighbors = 1163530
Ave neighs/atom = 59.2067
Neighbor list builds = 6172
Dangerous builds not checked
Setting up Verlet run ...
  Unit style    : metal
  Current step  : 86669
  Time step     : 0.001
Per MPI rank memory allocation (min/avg/max) = 18.19 | 18.19 | 18.19 Mbytes
Step Temp Press TotEng PotEng Enthalpy 
   86669    2105.7453   -302.53919   -53088.971   -58437.755   -53168.969 
   86671    2105.6572   -295.29066   -53088.973   -58437.534   -53167.054 
   87164    2053.4412   -300.67672   -53278.822    -58494.75   -53358.106 
Loop time of 88.2371 on 1 procs for 495 steps with 19652 atoms

Performance: 0.485 ns/day, 49.516 hours/ns, 5.610 timesteps/s
83.9% CPU use with 1 MPI tasks x no OpenMP threads

MPI task timing breakdown:
Section |  min time  |  avg time  |  max time  |%varavg| %total
---------------------------------------------------------------
Pair    | 45.872     | 45.872     | 45.872     |   0.0 | 51.99
Neigh   | 40.381     | 40.381     | 40.381     |   0.0 | 45.76
Comm    | 0.64236    | 0.64236    | 0.64236    |   0.0 |  0.73
Output  | 0.10711    | 0.10711    | 0.10711    |   0.0 |  0.12
Modify  | 0.98675    | 0.98675    | 0.98675    |   0.0 |  1.12
Other   |            | 0.248      |            |       |  0.28

Nlocal:    19652 ave 19652 max 19652 min
Histogram: 1 0 0 0 0 0 0 0 0 0
Nghost:    16600 ave 16600 max 16600 min
Histogram: 1 0 0 0 0 0 0 0 0 0
Neighs:    1.16682e+06 ave 1.16682e+06 max 1.16682e+06 min
Histogram: 1 0 0 0 0 0 0 0 0 0

Total # of neighbors = 1166815
Ave neighs/atom = 59.3739
Neighbor list builds = 495
Dangerous builds not checked
Setting up Verlet run ...
  Unit style    : metal
  Current step  : 87164
  Time step     : 0.001
Per MPI rank memory allocation (min/avg/max) = 18.19 | 18.19 | 18.19 Mbytes
Step Temp Press TotEng PotEng Enthalpy 
   87164    2053.4412   -300.67672   -53278.822    -58494.75   -53358.106 
   93336    2035.9742   -290.76454   -53436.176   -58607.736   -53512.576 
Loop time of 1043.03 on 1 procs for 6172 steps with 19652 atoms

Performance: 0.511 ns/day, 46.943 hours/ns, 5.917 timesteps/s
89.7% CPU use with 1 MPI tasks x no OpenMP threads

MPI task timing breakdown:
Section |  min time  |  avg time  |  max time  |%varavg| %total
---------------------------------------------------------------
Pair    | 547.65     | 547.65     | 547.65     |   0.0 | 52.51
Neigh   | 473.98     | 473.98     | 473.98     |   0.0 | 45.44
Comm    | 7.6789     | 7.6789     | 7.6789     |   0.0 |  0.74
Output  | 0.00024605 | 0.00024605 | 0.00024605 |   0.0 |  0.00
Modify  | 10.968     | 10.968     | 10.968     |   0.0 |  1.05
Other   |            | 2.753      |            |       |  0.26

Nlocal:    19652 ave 19652 max 19652 min
Histogram: 1 0 0 0 0 0 0 0 0 0
Nghost:    16659 ave 16659 max 16659 min
Histogram: 1 0 0 0 0 0 0 0 0 0
Neighs:    1.17103e+06 ave 1.17103e+06 max 1.17103e+06 min
Histogram: 1 0 0 0 0 0 0 0 0 0

Total # of neighbors = 1171032
Ave neighs/atom = 59.5884
Neighbor list builds = 6172
Dangerous builds not checked
Setting up Verlet run ...
  Unit style    : metal
  Current step  : 93336
  Time step     : 0.001
Per MPI rank memory allocation (min/avg/max) = 18.19 | 18.19 | 18.19 Mbytes
Step Temp Press TotEng PotEng Enthalpy 
   93336    2035.9742   -290.76454   -53436.176   -58607.736   -53512.576 
   93338    2037.9366   -325.59853   -53436.172   -58612.717   -53521.724 
   93831    2000.7414   -601.71548   -53551.062   -58633.127   -53709.025 
Loop time of 86.5536 on 1 procs for 495 steps with 19652 atoms

Performance: 0.494 ns/day, 48.571 hours/ns, 5.719 timesteps/s
88.0% CPU use with 1 MPI tasks x no OpenMP threads

MPI task timing breakdown:
Section |  min time  |  avg time  |  max time  |%varavg| %total
---------------------------------------------------------------
Pair    | 45.169     | 45.169     | 45.169     |   0.0 | 52.19
Neigh   | 39.549     | 39.549     | 39.549     |   0.0 | 45.69
Comm    | 0.64079    | 0.64079    | 0.64079    |   0.0 |  0.74
Output  | 0.066859   | 0.066859   | 0.066859   |   0.0 |  0.08
Modify  | 0.8994     | 0.8994     | 0.8994     |   0.0 |  1.04
Other   |            | 0.2289     |            |       |  0.26

Nlocal:    19652 ave 19652 max 19652 min
Histogram: 1 0 0 0 0 0 0 0 0 0
Nghost:    16694 ave 16694 max 16694 min
Histogram: 1 0 0 0 0 0 0 0 0 0
Neighs:    1.17186e+06 ave 1.17186e+06 max 1.17186e+06 min
Histogram: 1 0 0 0 0 0 0 0 0 0

Total # of neighbors = 1171865
Ave neighs/atom = 59.6308
Neighbor list builds = 495
Dangerous builds not checked
Setting up Verlet run ...
  Unit style    : metal
  Current step  : 93831
  Time step     : 0.001
Per MPI rank memory allocation (min/avg/max) = 18.19 | 18.19 | 18.19 Mbytes
Step Temp Press TotEng PotEng Enthalpy 
   93831    2000.7414   -601.71548   -53551.062   -58633.127   -53709.025 
  100003    2007.7744   -289.55468   -53577.149   -58677.079   -53653.051 
Loop time of 1005.62 on 1 procs for 6172 steps with 19652 atoms

Performance: 0.530 ns/day, 45.259 hours/ns, 6.138 timesteps/s
93.1% CPU use with 1 MPI tasks x no OpenMP threads

MPI task timing breakdown:
Section |  min time  |  avg time  |  max time  |%varavg| %total
---------------------------------------------------------------
Pair    | 531.42     | 531.42     | 531.42     |   0.0 | 52.85
Neigh   | 453.63     | 453.63     | 453.63     |   0.0 | 45.11
Comm    | 7.4604     | 7.4604     | 7.4604     |   0.0 |  0.74
Output  | 0.00026822 | 0.00026822 | 0.00026822 |   0.0 |  0.00
Modify  | 10.483     | 10.483     | 10.483     |   0.0 |  1.04
Other   |            | 2.619      |            |       |  0.26

Nlocal:    19652 ave 19652 max 19652 min
Histogram: 1 0 0 0 0 0 0 0 0 0
Nghost:    16664 ave 16664 max 16664 min
Histogram: 1 0 0 0 0 0 0 0 0 0
Neighs:    1.17356e+06 ave 1.17356e+06 max 1.17356e+06 min
Histogram: 1 0 0 0 0 0 0 0 0 0

Total # of neighbors = 1173565
Ave neighs/atom = 59.7173
Neighbor list builds = 6172
Dangerous builds not checked
Setting up Verlet run ...
  Unit style    : metal
  Current step  : 100003
  Time step     : 0.001
Per MPI rank memory allocation (min/avg/max) = 18.19 | 18.19 | 18.19 Mbytes
Step Temp Press TotEng PotEng Enthalpy 
  100003    2007.7744   -289.55468   -53577.149   -58677.079   -53653.051 
  100005    2006.8587   -273.25544   -53577.156    -58674.76   -53648.785 
  100498    1971.7283    119.99879   -53791.071    -58799.44   -53759.809 
Loop time of 77.0936 on 1 procs for 495 steps with 19652 atoms

Performance: 0.555 ns/day, 43.262 hours/ns, 6.421 timesteps/s
94.7% CPU use with 1 MPI tasks x no OpenMP threads

MPI task timing breakdown:
Section |  min time  |  avg time  |  max time  |%varavg| %total
---------------------------------------------------------------
Pair    | 40.498     | 40.498     | 40.498     |   0.0 | 52.53
Neigh   | 34.877     | 34.877     | 34.877     |   0.0 | 45.24
Comm    | 0.58044    | 0.58044    | 0.58044    |   0.0 |  0.75
Output  | 0.094362   | 0.094362   | 0.094362   |   0.0 |  0.12
Modify  | 0.83947    | 0.83947    | 0.83947    |   0.0 |  1.09
Other   |            | 0.2041     |            |       |  0.26

Nlocal:    19652 ave 19652 max 19652 min
Histogram: 1 0 0 0 0 0 0 0 0 0
Nghost:    16687 ave 16687 max 16687 min
Histogram: 1 0 0 0 0 0 0 0 0 0
Neighs:    1.18078e+06 ave 1.18078e+06 max 1.18078e+06 min
Histogram: 1 0 0 0 0 0 0 0 0 0

Total # of neighbors = 1180780
Ave neighs/atom = 60.0845
Neighbor list builds = 495
Dangerous builds not checked
Setting up Verlet run ...
  Unit style    : metal
  Current step  : 100498
  Time step     : 0.001
Per MPI rank memory allocation (min/avg/max) = 18.19 | 18.19 | 18.19 Mbytes
Step Temp Press TotEng PotEng Enthalpy 
  100498    1971.7283    119.99879   -53791.071    -58799.44   -53759.809 
  106670    1960.7034     719.6068   -53888.738   -58869.103   -53701.909 
Loop time of 998.099 on 1 procs for 6172 steps with 19652 atoms

Performance: 0.534 ns/day, 44.921 hours/ns, 6.184 timesteps/s
94.5% CPU use with 1 MPI tasks x no OpenMP threads

MPI task timing breakdown:
Section |  min time  |  avg time  |  max time  |%varavg| %total
---------------------------------------------------------------
Pair    | 524.57     | 524.57     | 524.57     |   0.0 | 52.56
Neigh   | 453.03     | 453.03     | 453.03     |   0.0 | 45.39
Comm    | 7.4181     | 7.4181     | 7.4181     |   0.0 |  0.74
Output  | 0.00021791 | 0.00021791 | 0.00021791 |   0.0 |  0.00
Modify  | 10.515     | 10.515     | 10.515     |   0.0 |  1.05
Other   |            | 2.565      |            |       |  0.26

Nlocal:    19652 ave 19652 max 19652 min
Histogram: 1 0 0 0 0 0 0 0 0 0
Nghost:    16748 ave 16748 max 16748 min
Histogram: 1 0 0 0 0 0 0 0 0 0
Neighs:    1.18546e+06 ave 1.18546e+06 max 1.18546e+06 min
Histogram: 1 0 0 0 0 0 0 0 0 0

Total # of neighbors = 1185459
Ave neighs/atom = 60.3226
Neighbor list builds = 6172
Dangerous builds not checked
Setting up Verlet run ...
  Unit style    : metal
  Current step  : 106670
  Time step     : 0.001
Per MPI rank memory allocation (min/avg/max) = 18.19 | 18.19 | 18.19 Mbytes
Step Temp Press TotEng PotEng Enthalpy 
  106670    1960.7034     719.6068   -53888.738   -58869.103   -53701.909 
  106672    1959.8856    727.95424   -53888.756   -58867.044   -53699.759 
  107165    1911.9119   -181.31627    -54093.84    -58950.27   -54140.837 
Loop time of 72.1669 on 1 procs for 495 steps with 19652 atoms

Performance: 0.593 ns/day, 40.498 hours/ns, 6.859 timesteps/s
100.0% CPU use with 1 MPI tasks x no OpenMP threads

MPI task timing breakdown:
Section |  min time  |  avg time  |  max time  |%varavg| %total
---------------------------------------------------------------
Pair    | 37.782     | 37.782     | 37.782     |   0.0 | 52.35
Neigh   | 32.808     | 32.808     | 32.808     |   0.0 | 45.46
Comm    | 0.52694    | 0.52694    | 0.52694    |   0.0 |  0.73
Output  | 0.066683   | 0.066683   | 0.066683   |   0.0 |  0.09
Modify  | 0.78941    | 0.78941    | 0.78941    |   0.0 |  1.09
Other   |            | 0.1942     |            |       |  0.27

Nlocal:    19652 ave 19652 max 19652 min
Histogram: 1 0 0 0 0 0 0 0 0 0
Nghost:    16795 ave 16795 max 16795 min
Histogram: 1 0 0 0 0 0 0 0 0 0
Neighs:    1.18768e+06 ave 1.18768e+06 max 1.18768e+06 min
Histogram: 1 0 0 0 0 0 0 0 0 0

Total # of neighbors = 1187680
Ave neighs/atom = 60.4356
Neighbor list builds = 495
Dangerous builds not checked
Setting up Verlet run ...
  Unit style    : metal
  Current step  : 107165
  Time step     : 0.001
Per MPI rank memory allocation (min/avg/max) = 18.19 | 18.19 | 18.19 Mbytes
Step Temp Press TotEng PotEng Enthalpy 
  107165    1911.9119   -181.31627    -54093.84    -58950.27   -54140.837 
  113337    1900.0489    562.38033   -54191.787   -59018.084   -54046.622 
Loop time of 913.566 on 1 procs for 6172 steps with 19652 atoms

Performance: 0.584 ns/day, 41.116 hours/ns, 6.756 timesteps/s
100.0% CPU use with 1 MPI tasks x no OpenMP threads

MPI task timing breakdown:
Section |  min time  |  avg time  |  max time  |%varavg| %total
---------------------------------------------------------------
Pair    | 480.59     | 480.59     | 480.59     |   0.0 | 52.61
Neigh   | 414.03     | 414.03     | 414.03     |   0.0 | 45.32
Comm    | 6.7989     | 6.7989     | 6.7989     |   0.0 |  0.74
Output  | 0.00024295 | 0.00024295 | 0.00024295 |   0.0 |  0.00
Modify  | 9.6831     | 9.6831     | 9.6831     |   0.0 |  1.06
Other   |            | 2.461      |            |       |  0.27

Nlocal:    19652 ave 19652 max 19652 min
Histogram: 1 0 0 0 0 0 0 0 0 0
Nghost:    16780 ave 16780 max 16780 min
Histogram: 1 0 0 0 0 0 0 0 0 0
Neighs:    1.1923e+06 ave 1.1923e+06 max 1.1923e+06 min
Histogram: 1 0 0 0 0 0 0 0 0 0

Total # of neighbors = 1192305
Ave neighs/atom = 60.6709
Neighbor list builds = 6172
Dangerous builds not checked
Setting up Verlet run ...
  Unit style    : metal
  Current step  : 113337
  Time step     : 0.001
Per MPI rank memory allocation (min/avg/max) = 18.19 | 18.19 | 18.19 Mbytes
Step Temp Press TotEng PotEng Enthalpy 
  113337    1900.0489    562.38033   -54191.787   -59018.084   -54046.622 
  113339    1901.1081    557.77278    -54191.79   -59020.778   -54047.814 
  113832    1859.0516    44.866764   -54353.919    -59076.08   -54342.342 
Loop time of 69.6048 on 1 procs for 495 steps with 19652 atoms

Performance: 0.614 ns/day, 39.060 hours/ns, 7.112 timesteps/s
100.0% CPU use with 1 MPI tasks x no OpenMP threads

MPI task timing breakdown:
Section |  min time  |  avg time  |  max time  |%varavg| %total
---------------------------------------------------------------
Pair    | 36.107     | 36.107     | 36.107     |   0.0 | 51.87
Neigh   | 31.939     | 31.939     | 31.939     |   0.0 | 45.89
Comm    | 0.52412    | 0.52412    | 0.52412    |   0.0 |  0.75
Output  | 0.065897   | 0.065897   | 0.065897   |   0.0 |  0.09
Modify  | 0.77354    | 0.77354    | 0.77354    |   0.0 |  1.11
Other   |            | 0.1956     |            |       |  0.28

Nlocal:    19652 ave 19652 max 19652 min
Histogram: 1 0 0 0 0 0 0 0 0 0
Nghost:    16834 ave 16834 max 16834 min
Histogram: 1 0 0 0 0 0 0 0 0 0
Neighs:    1.19271e+06 ave 1.19271e+06 max 1.19271e+06 min
Histogram: 1 0 0 0 0 0 0 0 0 0

Total # of neighbors = 1192711
Ave neighs/atom = 60.6916
Neighbor list builds = 495
Dangerous builds not checked
Setting up Verlet run ...
  Unit style    : metal
  Current step  : 113832
  Time step     : 0.001
Per MPI rank memory allocation (min/avg/max) = 18.19 | 18.19 | 18.19 Mbytes
Step Temp Press TotEng PotEng Enthalpy 
  113832    1859.0516    44.866764   -54353.919    -59076.08   -54342.342 
  120004    1868.7053    1141.8623   -54378.756   -59125.438   -54085.123 
Loop time of 939.264 on 1 procs for 6172 steps with 19652 atoms

Performance: 0.568 ns/day, 42.273 hours/ns, 6.571 timesteps/s
99.9% CPU use with 1 MPI tasks x no OpenMP threads

MPI task timing breakdown:
Section |  min time  |  avg time  |  max time  |%varavg| %total
---------------------------------------------------------------
Pair    | 497.31     | 497.31     | 497.31     |   0.0 | 52.95
Neigh   | 422.57     | 422.57     | 422.57     |   0.0 | 44.99
Comm    | 6.9947     | 6.9947     | 6.9947     |   0.0 |  0.74
Output  | 0.00024509 | 0.00024509 | 0.00024509 |   0.0 |  0.00
Modify  | 9.8727     | 9.8727     | 9.8727     |   0.0 |  1.05
Other   |            | 2.511      |            |       |  0.27

Nlocal:    19652 ave 19652 max 19652 min
Histogram: 1 0 0 0 0 0 0 0 0 0
Nghost:    16863 ave 16863 max 16863 min
Histogram: 1 0 0 0 0 0 0 0 0 0
Neighs:    1.1971e+06 ave 1.1971e+06 max 1.1971e+06 min
Histogram: 1 0 0 0 0 0 0 0 0 0

Total # of neighbors = 1197099
Ave neighs/atom = 60.9149
Neighbor list builds = 6172
Dangerous builds not checked
Setting up Verlet run ...
  Unit style    : metal
  Current step  : 120004
  Time step     : 0.001
Per MPI rank memory allocation (min/avg/max) = 18.19 | 18.19 | 18.19 Mbytes
Step Temp Press TotEng PotEng Enthalpy 
  120004    1868.7053    1141.8623   -54378.756   -59125.438   -54085.123 
  120006    1868.2095    1162.5461   -54378.769   -59124.191   -54079.817 
  120499    1805.5278    193.96918   -54612.892   -59199.097   -54563.106 
Loop time of 76.006 on 1 procs for 495 steps with 19652 atoms

Performance: 0.563 ns/day, 42.652 hours/ns, 6.513 timesteps/s
99.9% CPU use with 1 MPI tasks x no OpenMP threads

MPI task timing breakdown:
Section |  min time  |  avg time  |  max time  |%varavg| %total
---------------------------------------------------------------
Pair    | 41.026     | 41.026     | 41.026     |   0.0 | 53.98
Neigh   | 33.326     | 33.326     | 33.326     |   0.0 | 43.85
Comm    | 0.58933    | 0.58933    | 0.58933    |   0.0 |  0.78
Output  | 0.056176   | 0.056176   | 0.056176   |   0.0 |  0.07
Modify  | 0.80134    | 0.80134    | 0.80134    |   0.0 |  1.05
Other   |            | 0.2071     |            |       |  0.27

Nlocal:    19652 ave 19652 max 19652 min
Histogram: 1 0 0 0 0 0 0 0 0 0
Nghost:    16762 ave 16762 max 16762 min
Histogram: 1 0 0 0 0 0 0 0 0 0
Neighs:    1.19904e+06 ave 1.19904e+06 max 1.19904e+06 min
Histogram: 1 0 0 0 0 0 0 0 0 0

Total # of neighbors = 1199043
Ave neighs/atom = 61.0138
Neighbor list builds = 495
Dangerous builds not checked
Setting up Verlet run ...
  Unit style    : metal
  Current step  : 120499
  Time step     : 0.001
Per MPI rank memory allocation (min/avg/max) = 18.19 | 18.19 | 18.19 Mbytes
Step Temp Press TotEng PotEng Enthalpy 
  120499    1805.5278    193.96918   -54612.892   -59199.097   -54563.106 
  126671    1782.8329    125.12743   -54780.913    -59309.47   -54748.899 
Loop time of 975.897 on 1 procs for 6172 steps with 19652 atoms

Performance: 0.546 ns/day, 43.921 hours/ns, 6.324 timesteps/s
99.9% CPU use with 1 MPI tasks x no OpenMP threads

MPI task timing breakdown:
Section |  min time  |  avg time  |  max time  |%varavg| %total
---------------------------------------------------------------
Pair    | 529.62     | 529.62     | 529.62     |   0.0 | 54.27
Neigh   | 426.36     | 426.36     | 426.36     |   0.0 | 43.69
Comm    | 7.3925     | 7.3925     | 7.3925     |   0.0 |  0.76
Output  | 0.00025201 | 0.00025201 | 0.00025201 |   0.0 |  0.00
Modify  | 9.9381     | 9.9381     | 9.9381     |   0.0 |  1.02
Other   |            | 2.581      |            |       |  0.26

Nlocal:    19652 ave 19652 max 19652 min
Histogram: 1 0 0 0 0 0 0 0 0 0
Nghost:    16801 ave 16801 max 16801 min
Histogram: 1 0 0 0 0 0 0 0 0 0
Neighs:    1.20302e+06 ave 1.20302e+06 max 1.20302e+06 min
Histogram: 1 0 0 0 0 0 0 0 0 0

Total # of neighbors = 1203019
Ave neighs/atom = 61.2161
Neighbor list builds = 6172
Dangerous builds not checked
Setting up Verlet run ...
  Unit style    : metal
  Current step  : 126671
  Time step     : 0.001
Per MPI rank memory allocation (min/avg/max) = 18.19 | 18.19 | 18.19 Mbytes
Step Temp Press TotEng PotEng Enthalpy 
  126671    1782.8329    125.12743   -54780.913    -59309.47   -54748.899 
  126673    1782.9655    81.300821   -54780.898   -59309.792   -54760.097 
  127166    1752.5342   -296.05765   -54928.254   -59379.851   -55003.846 
Loop time of 76.6556 on 1 procs for 495 steps with 19652 atoms

Performance: 0.558 ns/day, 43.017 hours/ns, 6.457 timesteps/s
99.9% CPU use with 1 MPI tasks x no OpenMP threads

MPI task timing breakdown:
Section |  min time  |  avg time  |  max time  |%varavg| %total
---------------------------------------------------------------
Pair    | 41.103     | 41.103     | 41.103     |   0.0 | 53.62
Neigh   | 33.863     | 33.863     | 33.863     |   0.0 | 44.18
Comm    | 0.57936    | 0.57936    | 0.57936    |   0.0 |  0.76
Output  | 0.073539   | 0.073539   | 0.073539   |   0.0 |  0.10
Modify  | 0.82028    | 0.82028    | 0.82028    |   0.0 |  1.07
Other   |            | 0.2171     |            |       |  0.28

Nlocal:    19652 ave 19652 max 19652 min
Histogram: 1 0 0 0 0 0 0 0 0 0
Nghost:    16781 ave 16781 max 16781 min
Histogram: 1 0 0 0 0 0 0 0 0 0
Neighs:    1.20586e+06 ave 1.20586e+06 max 1.20586e+06 min
Histogram: 1 0 0 0 0 0 0 0 0 0

Total # of neighbors = 1205855
Ave neighs/atom = 61.3604
Neighbor list builds = 495
Dangerous builds not checked
Setting up Verlet run ...
  Unit style    : metal
  Current step  : 127166
  Time step     : 0.001
Per MPI rank memory allocation (min/avg/max) = 18.19 | 18.19 | 18.19 Mbytes
Step Temp Press TotEng PotEng Enthalpy 
  127166    1752.5342   -296.05765   -54928.254   -59379.851   -55003.846 
  133338    1737.3708    517.76311    -55044.79    -59457.87   -54913.216 
Loop time of 978.025 on 1 procs for 6172 steps with 19652 atoms

Performance: 0.545 ns/day, 44.017 hours/ns, 6.311 timesteps/s
99.9% CPU use with 1 MPI tasks x no OpenMP threads

MPI task timing breakdown:
Section |  min time  |  avg time  |  max time  |%varavg| %total
---------------------------------------------------------------
Pair    | 531.16     | 531.16     | 531.16     |   0.0 | 54.31
Neigh   | 426.9      | 426.9      | 426.9      |   0.0 | 43.65
Comm    | 7.4565     | 7.4565     | 7.4565     |   0.0 |  0.76
Output  | 0.00018692 | 0.00018692 | 0.00018692 |   0.0 |  0.00
Modify  | 9.9412     | 9.9412     | 9.9412     |   0.0 |  1.02
Other   |            | 2.573      |            |       |  0.26

Nlocal:    19652 ave 19652 max 19652 min
Histogram: 1 0 0 0 0 0 0 0 0 0
Nghost:    16873 ave 16873 max 16873 min
Histogram: 1 0 0 0 0 0 0 0 0 0
Neighs:    1.21147e+06 ave 1.21147e+06 max 1.21147e+06 min
Histogram: 1 0 0 0 0 0 0 0 0 0

Total # of neighbors = 1211474
Ave neighs/atom = 61.6463
Neighbor list builds = 6172
Dangerous builds not checked
Setting up Verlet run ...
  Unit style    : metal
  Current step  : 133338
  Time step     : 0.001
Per MPI rank memory allocation (min/avg/max) = 18.19 | 18.19 | 18.19 Mbytes
Step Temp Press TotEng PotEng Enthalpy 
  133338    1737.3708    517.76311    -55044.79    -59457.87   -54913.216 
  133340    1737.6493    510.33784   -55044.787   -59458.575     -54915.1 
  133833    1711.7185    182.09703   -55198.588   -59546.509   -55152.407 
Loop time of 75.5121 on 1 procs for 495 steps with 19652 atoms

Performance: 0.566 ns/day, 42.375 hours/ns, 6.555 timesteps/s
99.5% CPU use with 1 MPI tasks x no OpenMP threads

MPI task timing breakdown:
Section |  min time  |  avg time  |  max time  |%varavg| %total
---------------------------------------------------------------
Pair    | 40.518     | 40.518     | 40.518     |   0.0 | 53.66
Neigh   | 33.299     | 33.299     | 33.299     |   0.0 | 44.10
Comm    | 0.57311    | 0.57311    | 0.57311    |   0.0 |  0.76
Output  | 0.12431    | 0.12431    | 0.12431    |   0.0 |  0.16
Modify  | 0.79092    | 0.79092    | 0.79092    |   0.0 |  1.05
Other   |            | 0.2065     |            |       |  0.27

Nlocal:    19652 ave 19652 max 19652 min
Histogram: 1 0 0 0 0 0 0 0 0 0
Nghost:    16856 ave 16856 max 16856 min
Histogram: 1 0 0 0 0 0 0 0 0 0
Neighs:    1.21363e+06 ave 1.21363e+06 max 1.21363e+06 min
Histogram: 1 0 0 0 0 0 0 0 0 0

Total # of neighbors = 1213630
Ave neighs/atom = 61.7561
Neighbor list builds = 495
Dangerous builds not checked
Setting up Verlet run ...
  Unit style    : metal
  Current step  : 133833
  Time step     : 0.001
Per MPI rank memory allocation (min/avg/max) = 18.19 | 18.19 | 18.19 Mbytes
Step Temp Press TotEng PotEng Enthalpy 
  133833    1711.7185    182.09703   -55198.588   -59546.509   -55152.407 
  140005    1726.8338    178.04037   -55164.351   -59550.666   -55119.213 
Loop time of 967.69 on 1 procs for 6172 steps with 19652 atoms

Performance: 0.551 ns/day, 43.552 hours/ns, 6.378 timesteps/s
99.9% CPU use with 1 MPI tasks x no OpenMP threads

MPI task timing breakdown:
Section |  min time  |  avg time  |  max time  |%varavg| %total
---------------------------------------------------------------
Pair    | 525.86     | 525.86     | 525.86     |   0.0 | 54.34
Neigh   | 422.04     | 422.04     | 422.04     |   0.0 | 43.61
Comm    | 7.3721     | 7.3721     | 7.3721     |   0.0 |  0.76
Output  | 0.00023222 | 0.00023222 | 0.00023222 |   0.0 |  0.00
Modify  | 9.8312     | 9.8312     | 9.8312     |   0.0 |  1.02
Other   |            | 2.583      |            |       |  0.27

Nlocal:    19652 ave 19652 max 19652 min
Histogram: 1 0 0 0 0 0 0 0 0 0
Nghost:    16931 ave 16931 max 16931 min
Histogram: 1 0 0 0 0 0 0 0 0 0
Neighs:    1.21451e+06 ave 1.21451e+06 max 1.21451e+06 min
Histogram: 1 0 0 0 0 0 0 0 0 0

Total # of neighbors = 1214508
Ave neighs/atom = 61.8007
Neighbor list builds = 6172
Dangerous builds not checked
Setting up Verlet run ...
  Unit style    : metal
  Current step  : 140005
  Time step     : 0.001
Per MPI rank memory allocation (min/avg/max) = 18.19 | 18.19 | 18.19 Mbytes
Step Temp Press TotEng PotEng Enthalpy 
  140005    1726.8338    178.04037   -55164.351   -59550.666   -55119.213 
  140007    1726.5721    183.50415   -55164.378   -59550.028   -55117.855 
  140500    1663.6676    327.47986   -55470.761   -59696.629   -55388.226 
Loop time of 75.4825 on 1 procs for 495 steps with 19652 atoms

Performance: 0.567 ns/day, 42.358 hours/ns, 6.558 timesteps/s
99.6% CPU use with 1 MPI tasks x no OpenMP threads

MPI task timing breakdown:
Section |  min time  |  avg time  |  max time  |%varavg| %total
---------------------------------------------------------------
Pair    | 40.735     | 40.735     | 40.735     |   0.0 | 53.97
Neigh   | 33.077     | 33.077     | 33.077     |   0.0 | 43.82
Comm    | 0.58416    | 0.58416    | 0.58416    |   0.0 |  0.77
Output  | 0.06519    | 0.06519    | 0.06519    |   0.0 |  0.09
Modify  | 0.80385    | 0.80385    | 0.80385    |   0.0 |  1.06
Other   |            | 0.217      |            |       |  0.29

Nlocal:    19652 ave 19652 max 19652 min
Histogram: 1 0 0 0 0 0 0 0 0 0
Nghost:    17014 ave 17014 max 17014 min
Histogram: 1 0 0 0 0 0 0 0 0 0
Neighs:    1.2213e+06 ave 1.2213e+06 max 1.2213e+06 min
Histogram: 1 0 0 0 0 0 0 0 0 0

Total # of neighbors = 1221301
Ave neighs/atom = 62.1464
Neighbor list builds = 495
Dangerous builds not checked
Setting up Verlet run ...
  Unit style    : metal
  Current step  : 140500
  Time step     : 0.001
Per MPI rank memory allocation (min/avg/max) = 18.19 | 18.19 | 18.19 Mbytes
Step Temp Press TotEng PotEng Enthalpy 
  140500    1663.6676    327.47986   -55470.761   -59696.629   -55388.226 
  146672    1652.9305   -75.863512   -55560.154   -59758.748    -55579.27 
Loop time of 971.086 on 1 procs for 6172 steps with 19652 atoms

Performance: 0.549 ns/day, 43.705 hours/ns, 6.356 timesteps/s
99.9% CPU use with 1 MPI tasks x no OpenMP threads

MPI task timing breakdown:
Section |  min time  |  avg time  |  max time  |%varavg| %total
---------------------------------------------------------------
Pair    | 528.27     | 528.27     | 528.27     |   0.0 | 54.40
Neigh   | 423.02     | 423.02     | 423.02     |   0.0 | 43.56
Comm    | 7.3436     | 7.3436     | 7.3436     |   0.0 |  0.76
Output  | 0.00019908 | 0.00019908 | 0.00019908 |   0.0 |  0.00
Modify  | 9.8596     | 9.8596     | 9.8596     |   0.0 |  1.02
Other   |            | 2.593      |            |       |  0.27

Nlocal:    19652 ave 19652 max 19652 min
Histogram: 1 0 0 0 0 0 0 0 0 0
Nghost:    16839 ave 16839 max 16839 min
Histogram: 1 0 0 0 0 0 0 0 0 0
Neighs:    1.22172e+06 ave 1.22172e+06 max 1.22172e+06 min
Histogram: 1 0 0 0 0 0 0 0 0 0

Total # of neighbors = 1221720
Ave neighs/atom = 62.1677
Neighbor list builds = 6172
Dangerous builds not checked
Setting up Verlet run ...
  Unit style    : metal
  Current step  : 146672
  Time step     : 0.001
Per MPI rank memory allocation (min/avg/max) = 18.19 | 18.19 | 18.19 Mbytes
Step Temp Press TotEng PotEng Enthalpy 
  146672    1652.9305   -75.863512   -55560.154   -59758.748    -55579.27 
  146674     1653.684   -79.252545   -55560.162    -59760.67   -55580.132 
  147167    1613.1495    176.94428   -55776.374    -59873.92   -55732.011 
Loop time of 77.3665 on 1 procs for 495 steps with 19652 atoms

Performance: 0.553 ns/day, 43.416 hours/ns, 6.398 timesteps/s
95.7% CPU use with 1 MPI tasks x no OpenMP threads

MPI task timing breakdown:
Section |  min time  |  avg time  |  max time  |%varavg| %total
---------------------------------------------------------------
Pair    | 40.831     | 40.831     | 40.831     |   0.0 | 52.78
Neigh   | 33.222     | 33.222     | 33.222     |   0.0 | 42.94
Comm    | 0.58651    | 0.58651    | 0.58651    |   0.0 |  0.76
Output  | 1.7128     | 1.7128     | 1.7128     |   0.0 |  2.21
Modify  | 0.80775    | 0.80775    | 0.80775    |   0.0 |  1.04
Other   |            | 0.2056     |            |       |  0.27

Nlocal:    19652 ave 19652 max 19652 min
Histogram: 1 0 0 0 0 0 0 0 0 0
Nghost:    16925 ave 16925 max 16925 min
Histogram: 1 0 0 0 0 0 0 0 0 0
Neighs:    1.22821e+06 ave 1.22821e+06 max 1.22821e+06 min
Histogram: 1 0 0 0 0 0 0 0 0 0

Total # of neighbors = 1228206
Ave neighs/atom = 62.4978
Neighbor list builds = 495
Dangerous builds not checked
Setting up Verlet run ...
  Unit style    : metal
  Current step  : 147167
  Time step     : 0.001
Per MPI rank memory allocation (min/avg/max) = 18.19 | 18.19 | 18.19 Mbytes
Step Temp Press TotEng PotEng Enthalpy 
  147167    1613.1495    176.94428   -55776.374    -59873.92   -55732.011 
  153339    1626.0425   -1124.2472   -55754.186   -59884.482   -56036.798 
Loop time of 929.729 on 1 procs for 6172 steps with 19652 atoms

Performance: 0.574 ns/day, 41.843 hours/ns, 6.638 timesteps/s
99.2% CPU use with 1 MPI tasks x no OpenMP threads

MPI task timing breakdown:
Section |  min time  |  avg time  |  max time  |%varavg| %total
---------------------------------------------------------------
Pair    | 501.5      | 501.5      | 501.5      |   0.0 | 53.94
Neigh   | 409.3      | 409.3      | 409.3      |   0.0 | 44.02
Comm    | 7.001      | 7.001      | 7.001      |   0.0 |  0.75
Output  | 0.00017595 | 0.00017595 | 0.00017595 |   0.0 |  0.00
Modify  | 9.4602     | 9.4602     | 9.4602     |   0.0 |  1.02
Other   |            | 2.468      |            |       |  0.27

Nlocal:    19652 ave 19652 max 19652 min
Histogram: 1 0 0 0 0 0 0 0 0 0
Nghost:    17086 ave 17086 max 17086 min
Histogram: 1 0 0 0 0 0 0 0 0 0
Neighs:    1.22466e+06 ave 1.22466e+06 max 1.22466e+06 min
Histogram: 1 0 0 0 0 0 0 0 0 0

Total # of neighbors = 1224665
Ave neighs/atom = 62.3176
Neighbor list builds = 6172
Dangerous builds not checked
Setting up Verlet run ...
  Unit style    : metal
  Current step  : 153339
  Time step     : 0.001
Per MPI rank memory allocation (min/avg/max) = 18.19 | 18.19 | 18.19 Mbytes
Step Temp Press TotEng PotEng Enthalpy 
  153339    1626.0425   -1124.2472   -55754.186   -59884.482   -56036.798 
  153341     1626.536   -1133.6143    -55754.21    -59885.76   -56039.176 
  153834    1556.9678    150.92656   -56038.032   -59992.872   -56000.375 
Loop time of 72.1049 on 1 procs for 495 steps with 19652 atoms

Performance: 0.593 ns/day, 40.463 hours/ns, 6.865 timesteps/s
99.1% CPU use with 1 MPI tasks x no OpenMP threads

MPI task timing breakdown:
Section |  min time  |  avg time  |  max time  |%varavg| %total
---------------------------------------------------------------
Pair    | 38.664     | 38.664     | 38.664     |   0.0 | 53.62
Neigh   | 31.904     | 31.904     | 31.904     |   0.0 | 44.25
Comm    | 0.53486    | 0.53486    | 0.53486    |   0.0 |  0.74
Output  | 0.050132   | 0.050132   | 0.050132   |   0.0 |  0.07
Modify  | 0.75149    | 0.75149    | 0.75149    |   0.0 |  1.04
Other   |            | 0.2002     |            |       |  0.28

Nlocal:    19652 ave 19652 max 19652 min
Histogram: 1 0 0 0 0 0 0 0 0 0
Nghost:    17031 ave 17031 max 17031 min
Histogram: 1 0 0 0 0 0 0 0 0 0
Neighs:    1.23416e+06 ave 1.23416e+06 max 1.23416e+06 min
Histogram: 1 0 0 0 0 0 0 0 0 0

Total # of neighbors = 1234155
Ave neighs/atom = 62.8005
Neighbor list builds = 495
Dangerous builds not checked
Setting up Verlet run ...
  Unit style    : metal
  Current step  : 153834
  Time step     : 0.001
Per MPI rank memory allocation (min/avg/max) = 18.19 | 18.19 | 18.19 Mbytes
Step Temp Press TotEng PotEng Enthalpy 
  153834    1556.9678    150.92656   -56038.032   -59992.872   -56000.375 
  160006    1554.4237     912.9651   -56143.642    -60092.02   -55916.914 
Loop time of 929.545 on 1 procs for 6172 steps with 19652 atoms

Performance: 0.574 ns/day, 41.835 hours/ns, 6.640 timesteps/s
99.7% CPU use with 1 MPI tasks x no OpenMP threads

MPI task timing breakdown:
Section |  min time  |  avg time  |  max time  |%varavg| %total
---------------------------------------------------------------
Pair    | 502.19     | 502.19     | 502.19     |   0.0 | 54.02
Neigh   | 408.51     | 408.51     | 408.51     |   0.0 | 43.95
Comm    | 6.9748     | 6.9748     | 6.9748     |   0.0 |  0.75
Output  | 0.00022197 | 0.00022197 | 0.00022197 |   0.0 |  0.00
Modify  | 9.4273     | 9.4273     | 9.4273     |   0.0 |  1.01
Other   |            | 2.446      |            |       |  0.26

Nlocal:    19652 ave 19652 max 19652 min
Histogram: 1 0 0 0 0 0 0 0 0 0
Nghost:    17111 ave 17111 max 17111 min
Histogram: 1 0 0 0 0 0 0 0 0 0
Neighs:    1.23978e+06 ave 1.23978e+06 max 1.23978e+06 min
Histogram: 1 0 0 0 0 0 0 0 0 0

Total # of neighbors = 1239776
Ave neighs/atom = 63.0865
Neighbor list builds = 6172
Dangerous builds not checked
Setting up Verlet run ...
  Unit style    : metal
  Current step  : 160006
  Time step     : 0.001
Per MPI rank memory allocation (min/avg/max) = 18.19 | 18.19 | 18.19 Mbytes
Step Temp Press TotEng PotEng Enthalpy 
  160006    1554.4237     912.9651   -56143.642    -60092.02   -55916.914 
  160008    1553.0839    918.80259   -56143.646   -60088.621   -55915.468 
  160501    1511.3558    833.27951   -56299.622   -60138.603   -56092.961 
Loop time of 71.6899 on 1 procs for 495 steps with 19652 atoms

Performance: 0.597 ns/day, 40.230 hours/ns, 6.905 timesteps/s
99.0% CPU use with 1 MPI tasks x no OpenMP threads

MPI task timing breakdown:
Section |  min time  |  avg time  |  max time  |%varavg| %total
---------------------------------------------------------------
Pair    | 38.203     | 38.203     | 38.203     |   0.0 | 53.29
Neigh   | 31.88      | 31.88      | 31.88      |   0.0 | 44.47
Comm    | 0.53692    | 0.53692    | 0.53692    |   0.0 |  0.75
Output  | 0.13241    | 0.13241    | 0.13241    |   0.0 |  0.18
Modify  | 0.74722    | 0.74722    | 0.74722    |   0.0 |  1.04
Other   |            | 0.1903     |            |       |  0.27

Nlocal:    19652 ave 19652 max 19652 min
Histogram: 1 0 0 0 0 0 0 0 0 0
Nghost:    17021 ave 17021 max 17021 min
Histogram: 1 0 0 0 0 0 0 0 0 0
Neighs:    1.24169e+06 ave 1.24169e+06 max 1.24169e+06 min
Histogram: 1 0 0 0 0 0 0 0 0 0

Total # of neighbors = 1241686
Ave neighs/atom = 63.1837
Neighbor list builds = 495
Dangerous builds not checked
Setting up Verlet run ...
  Unit style    : metal
  Current step  : 160501
  Time step     : 0.001
Per MPI rank memory allocation (min/avg/max) = 18.19 | 18.19 | 18.19 Mbytes
Step Temp Press TotEng PotEng Enthalpy 
  160501    1511.3558    833.27951   -56299.622   -60138.603   -56092.961 
  166673    1492.9968    -121.9097   -56411.876   -60204.224   -56442.091 
Loop time of 931.962 on 1 procs for 6172 steps with 19652 atoms

Performance: 0.572 ns/day, 41.944 hours/ns, 6.623 timesteps/s
99.5% CPU use with 1 MPI tasks x no OpenMP threads

MPI task timing breakdown:
Section |  min time  |  avg time  |  max time  |%varavg| %total
---------------------------------------------------------------
Pair    | 501.74     | 501.74     | 501.74     |   0.0 | 53.84
Neigh   | 411.23     | 411.23     | 411.23     |   0.0 | 44.12
Comm    | 6.9923     | 6.9923     | 6.9923     |   0.0 |  0.75
Output  | 0.00017715 | 0.00017715 | 0.00017715 |   0.0 |  0.00
Modify  | 9.5421     | 9.5421     | 9.5421     |   0.0 |  1.02
Other   |            | 2.462      |            |       |  0.26

Nlocal:    19652 ave 19652 max 19652 min
Histogram: 1 0 0 0 0 0 0 0 0 0
Nghost:    16947 ave 16947 max 16947 min
Histogram: 1 0 0 0 0 0 0 0 0 0
Neighs:    1.24243e+06 ave 1.24243e+06 max 1.24243e+06 min
Histogram: 1 0 0 0 0 0 0 0 0 0

Total # of neighbors = 1242429
Ave neighs/atom = 63.2215
Neighbor list builds = 6172
Dangerous builds not checked
Setting up Verlet run ...
  Unit style    : metal
  Current step  : 166673
  Time step     : 0.001
Per MPI rank memory allocation (min/avg/max) = 18.19 | 18.19 | 18.19 Mbytes
Step Temp Press TotEng PotEng Enthalpy 
  166673    1492.9968    -121.9097   -56411.876   -60204.224   -56442.091 
  166675    1491.9136   -108.01167   -56411.863   -60201.459   -56438.633 
  167168    1461.5444    227.05781   -56618.712   -60331.168   -56562.726 
Loop time of 70.1114 on 1 procs for 495 steps with 19652 atoms

Performance: 0.610 ns/day, 39.344 hours/ns, 7.060 timesteps/s
99.4% CPU use with 1 MPI tasks x no OpenMP threads

MPI task timing breakdown:
Section |  min time  |  avg time  |  max time  |%varavg| %total
---------------------------------------------------------------
Pair    | 37.795     | 37.795     | 37.795     |   0.0 | 53.91
Neigh   | 30.814     | 30.814     | 30.814     |   0.0 | 43.95
Comm    | 0.532      | 0.532      | 0.532      |   0.0 |  0.76
Output  | 0.04868    | 0.04868    | 0.04868    |   0.0 |  0.07
Modify  | 0.7323     | 0.7323     | 0.7323     |   0.0 |  1.04
Other   |            | 0.1898     |            |       |  0.27

Nlocal:    19652 ave 19652 max 19652 min
Histogram: 1 0 0 0 0 0 0 0 0 0
Nghost:    17093 ave 17093 max 17093 min
Histogram: 1 0 0 0 0 0 0 0 0 0
Neighs:    1.24887e+06 ave 1.24887e+06 max 1.24887e+06 min
Histogram: 1 0 0 0 0 0 0 0 0 0

Total # of neighbors = 1248868
Ave neighs/atom = 63.5492
Neighbor list builds = 495
Dangerous builds not checked
Setting up Verlet run ...
  Unit style    : metal
  Current step  : 167168
  Time step     : 0.001
Per MPI rank memory allocation (min/avg/max) = 18.19 | 18.19 | 18.19 Mbytes
Step Temp Press TotEng PotEng Enthalpy 
  167168    1461.5444    227.05781   -56618.712   -60331.168   -56562.726 
  173340     1442.754   -177.35148   -56682.893    -60347.62   -56726.618 
Loop time of 961.403 on 1 procs for 6172 steps with 19652 atoms

Performance: 0.555 ns/day, 43.269 hours/ns, 6.420 timesteps/s
99.8% CPU use with 1 MPI tasks x no OpenMP threads

MPI task timing breakdown:
Section |  min time  |  avg time  |  max time  |%varavg| %total
---------------------------------------------------------------
Pair    | 522.62     | 522.62     | 522.62     |   0.0 | 54.36
Neigh   | 419.17     | 419.17     | 419.17     |   0.0 | 43.60
Comm    | 7.2353     | 7.2353     | 7.2353     |   0.0 |  0.75
Output  | 0.00024104 | 0.00024104 | 0.00024104 |   0.0 |  0.00
Modify  | 9.8323     | 9.8323     | 9.8323     |   0.0 |  1.02
Other   |            | 2.547      |            |       |  0.26

Nlocal:    19652 ave 19652 max 19652 min
Histogram: 1 0 0 0 0 0 0 0 0 0
Nghost:    17053 ave 17053 max 17053 min
Histogram: 1 0 0 0 0 0 0 0 0 0
Neighs:    1.2493e+06 ave 1.2493e+06 max 1.2493e+06 min
Histogram: 1 0 0 0 0 0 0 0 0 0

Total # of neighbors = 1249297
Ave neighs/atom = 63.571
Neighbor list builds = 6172
Dangerous builds not checked
Setting up Verlet run ...
  Unit style    : metal
  Current step  : 173340
  Time step     : 0.001
Per MPI rank memory allocation (min/avg/max) = 18.19 | 18.19 | 18.19 Mbytes
Step Temp Press TotEng PotEng Enthalpy 
  173340     1442.754   -177.35148   -56682.893    -60347.62   -56726.618 
  173342     1443.509   -204.62228   -56682.887   -60349.532   -56733.335 
  173835    1403.5791     400.5014   -56893.417   -60458.636   -56795.051 
Loop time of 76.5703 on 1 procs for 495 steps with 19652 atoms

Performance: 0.559 ns/day, 42.969 hours/ns, 6.465 timesteps/s
99.9% CPU use with 1 MPI tasks x no OpenMP threads

MPI task timing breakdown:
Section |  min time  |  avg time  |  max time  |%varavg| %total
---------------------------------------------------------------
Pair    | 41.517     | 41.517     | 41.517     |   0.0 | 54.22
Neigh   | 33.416     | 33.416     | 33.416     |   0.0 | 43.64
Comm    | 0.56573    | 0.56573    | 0.56573    |   0.0 |  0.74
Output  | 0.068975   | 0.068975   | 0.068975   |   0.0 |  0.09
Modify  | 0.79438    | 0.79438    | 0.79438    |   0.0 |  1.04
Other   |            | 0.2087     |            |       |  0.27

Nlocal:    19652 ave 19652 max 19652 min
Histogram: 1 0 0 0 0 0 0 0 0 0
Nghost:    17095 ave 17095 max 17095 min
Histogram: 1 0 0 0 0 0 0 0 0 0
Neighs:    1.25429e+06 ave 1.25429e+06 max 1.25429e+06 min
Histogram: 1 0 0 0 0 0 0 0 0 0

Total # of neighbors = 1254291
Ave neighs/atom = 63.8251
Neighbor list builds = 495
Dangerous builds not checked
Setting up Verlet run ...
  Unit style    : metal
  Current step  : 173835
  Time step     : 0.001
Per MPI rank memory allocation (min/avg/max) = 18.19 | 18.19 | 18.19 Mbytes
Step Temp Press TotEng PotEng Enthalpy 
  173835    1403.5791     400.5014   -56893.417   -60458.636   -56795.051 
  180007    1386.5699   -453.53607   -57035.654   -60557.667   -57146.862 
Loop time of 966.389 on 1 procs for 6172 steps with 19652 atoms

Performance: 0.552 ns/day, 43.493 hours/ns, 6.387 timesteps/s
99.9% CPU use with 1 MPI tasks x no OpenMP threads

MPI task timing breakdown:
Section |  min time  |  avg time  |  max time  |%varavg| %total
---------------------------------------------------------------
Pair    | 525.66     | 525.66     | 525.66     |   0.0 | 54.39
Neigh   | 420.95     | 420.95     | 420.95     |   0.0 | 43.56
Comm    | 7.2805     | 7.2805     | 7.2805     |   0.0 |  0.75
Output  | 0.00022817 | 0.00022817 | 0.00022817 |   0.0 |  0.00
Modify  | 9.9186     | 9.9186     | 9.9186     |   0.0 |  1.03
Other   |            | 2.575      |            |       |  0.27

Nlocal:    19652 ave 19652 max 19652 min
Histogram: 1 0 0 0 0 0 0 0 0 0
Nghost:    17151 ave 17151 max 17151 min
Histogram: 1 0 0 0 0 0 0 0 0 0
Neighs:    1.25617e+06 ave 1.25617e+06 max 1.25617e+06 min
Histogram: 1 0 0 0 0 0 0 0 0 0

Total # of neighbors = 1256166
Ave neighs/atom = 63.9205
Neighbor list builds = 6172
Dangerous builds not checked
Setting up Verlet run ...
  Unit style    : metal
  Current step  : 180007
  Time step     : 0.001
Per MPI rank memory allocation (min/avg/max) = 18.19 | 18.19 | 18.19 Mbytes
Step Temp Press TotEng PotEng Enthalpy 
  180007    1386.5699   -453.53607   -57035.654   -60557.667   -57146.862 
  180009    1385.5855   -440.02049   -57035.634   -60555.147   -57143.528 
  180502    1368.5449   -458.74097    -57167.05   -60643.279   -57279.206 
Loop time of 76.9859 on 1 procs for 495 steps with 19652 atoms

Performance: 0.556 ns/day, 43.202 hours/ns, 6.430 timesteps/s
99.9% CPU use with 1 MPI tasks x no OpenMP threads

MPI task timing breakdown:
Section |  min time  |  avg time  |  max time  |%varavg| %total
---------------------------------------------------------------
Pair    | 41.957     | 41.957     | 41.957     |   0.0 | 54.50
Neigh   | 33.39      | 33.39      | 33.39      |   0.0 | 43.37
Comm    | 0.57343    | 0.57343    | 0.57343    |   0.0 |  0.74
Output  | 0.065367   | 0.065367   | 0.065367   |   0.0 |  0.08
Modify  | 0.79781    | 0.79781    | 0.79781    |   0.0 |  1.04
Other   |            | 0.2024     |            |       |  0.26

Nlocal:    19652 ave 19652 max 19652 min
Histogram: 1 0 0 0 0 0 0 0 0 0
Nghost:    17224 ave 17224 max 17224 min
Histogram: 1 0 0 0 0 0 0 0 0 0
Neighs:    1.25985e+06 ave 1.25985e+06 max 1.25985e+06 min
Histogram: 1 0 0 0 0 0 0 0 0 0

Total # of neighbors = 1259848
Ave neighs/atom = 64.1079
Neighbor list builds = 495
Dangerous builds not checked
Setting up Verlet run ...
  Unit style    : metal
  Current step  : 180502
  Time step     : 0.001
Per MPI rank memory allocation (min/avg/max) = 18.19 | 18.19 | 18.19 Mbytes
Step Temp Press TotEng PotEng Enthalpy 
  180502    1368.5449   -458.74097    -57167.05   -60643.279   -57279.206 
  186674     1349.431    1291.6607   -57297.606   -60725.284   -56983.712 
Loop time of 974.72 on 1 procs for 6172 steps with 19652 atoms

Performance: 0.547 ns/day, 43.868 hours/ns, 6.332 timesteps/s
99.9% CPU use with 1 MPI tasks x no OpenMP threads

MPI task timing breakdown:
Section |  min time  |  avg time  |  max time  |%varavg| %total
---------------------------------------------------------------
Pair    | 531.84     | 531.84     | 531.84     |   0.0 | 54.56
Neigh   | 422.99     | 422.99     | 422.99     |   0.0 | 43.40
Comm    | 7.3088     | 7.3088     | 7.3088     |   0.0 |  0.75
Output  | 0.0002358  | 0.0002358  | 0.0002358  |   0.0 |  0.00
Modify  | 9.9827     | 9.9827     | 9.9827     |   0.0 |  1.02
Other   |            | 2.592      |            |       |  0.27

Nlocal:    19652 ave 19652 max 19652 min
Histogram: 1 0 0 0 0 0 0 0 0 0
Nghost:    17158 ave 17158 max 17158 min
Histogram: 1 0 0 0 0 0 0 0 0 0
Neighs:    1.26769e+06 ave 1.26769e+06 max 1.26769e+06 min
Histogram: 1 0 0 0 0 0 0 0 0 0

Total # of neighbors = 1267689
Ave neighs/atom = 64.5069
Neighbor list builds = 6172
Dangerous builds not checked
Setting up Verlet run ...
  Unit style    : metal
  Current step  : 186674
  Time step     : 0.001
Per MPI rank memory allocation (min/avg/max) = 18.19 | 18.19 | 18.19 Mbytes
Step Temp Press TotEng PotEng Enthalpy 
  186674     1349.431    1291.6607   -57297.606   -60725.284   -56983.712 
  186676    1350.5254    1281.2955    -57297.61   -60728.067   -56986.234 
  187169    1318.5947    821.30598    -57469.25   -60818.601     -57270.4 
Loop time of 73.1986 on 1 procs for 495 steps with 19652 atoms

Performance: 0.584 ns/day, 41.077 hours/ns, 6.762 timesteps/s
99.9% CPU use with 1 MPI tasks x no OpenMP threads

MPI task timing breakdown:
Section |  min time  |  avg time  |  max time  |%varavg| %total
---------------------------------------------------------------
Pair    | 39.27      | 39.27      | 39.27      |   0.0 | 53.65
Neigh   | 32.336     | 32.336     | 32.336     |   0.0 | 44.18
Comm    | 0.54656    | 0.54656    | 0.54656    |   0.0 |  0.75
Output  | 0.067033   | 0.067033   | 0.067033   |   0.0 |  0.09
Modify  | 0.77991    | 0.77991    | 0.77991    |   0.0 |  1.07
Other   |            | 0.1984     |            |       |  0.27

Nlocal:    19652 ave 19652 max 19652 min
Histogram: 1 0 0 0 0 0 0 0 0 0
Nghost:    17121 ave 17121 max 17121 min
Histogram: 1 0 0 0 0 0 0 0 0 0
Neighs:    1.27208e+06 ave 1.27208e+06 max 1.27208e+06 min
Histogram: 1 0 0 0 0 0 0 0 0 0

Total # of neighbors = 1272075
Ave neighs/atom = 64.7301
Neighbor list builds = 495
Dangerous builds not checked
Setting up Verlet run ...
  Unit style    : metal
  Current step  : 187169
  Time step     : 0.001
Per MPI rank memory allocation (min/avg/max) = 18.19 | 18.19 | 18.19 Mbytes
Step Temp Press TotEng PotEng Enthalpy 
  187169    1318.5947    821.30598    -57469.25   -60818.601     -57270.4 
  193341    1303.6648    812.11112   -57537.501   -60848.929   -57340.893 
Loop time of 965.641 on 1 procs for 6172 steps with 19652 atoms

Performance: 0.552 ns/day, 43.460 hours/ns, 6.392 timesteps/s
98.9% CPU use with 1 MPI tasks x no OpenMP threads

MPI task timing breakdown:
Section |  min time  |  avg time  |  max time  |%varavg| %total
---------------------------------------------------------------
Pair    | 527.34     | 527.34     | 527.34     |   0.0 | 54.61
Neigh   | 418.84     | 418.84     | 418.84     |   0.0 | 43.37
Comm    | 7.1323     | 7.1323     | 7.1323     |   0.0 |  0.74
Output  | 0.00017285 | 0.00017285 | 0.00017285 |   0.0 |  0.00
Modify  | 9.7859     | 9.7859     | 9.7859     |   0.0 |  1.01
Other   |            | 2.534      |            |       |  0.26

Nlocal:    19652 ave 19652 max 19652 min
Histogram: 1 0 0 0 0 0 0 0 0 0
Nghost:    17123 ave 17123 max 17123 min
Histogram: 1 0 0 0 0 0 0 0 0 0
Neighs:    1.27322e+06 ave 1.27322e+06 max 1.27322e+06 min
Histogram: 1 0 0 0 0 0 0 0 0 0

Total # of neighbors = 1273217
Ave neighs/atom = 64.7882
Neighbor list builds = 6172
Dangerous builds not checked
Setting up Verlet run ...
  Unit style    : metal
  Current step  : 193341
  Time step     : 0.001
Per MPI rank memory allocation (min/avg/max) = 18.19 | 18.19 | 18.19 Mbytes
Step Temp Press TotEng PotEng Enthalpy 
  193341    1303.6648    812.11112   -57537.501   -60848.929   -57340.893 
  193343    1303.3582    821.15429   -57537.504   -60848.152   -57338.706 
  193836     1269.957    476.01998   -57743.758   -60969.564   -57628.876 
Loop time of 61.8171 on 1 procs for 495 steps with 19652 atoms

Performance: 0.692 ns/day, 34.690 hours/ns, 8.007 timesteps/s
99.9% CPU use with 1 MPI tasks x no OpenMP threads

MPI task timing breakdown:
Section |  min time  |  avg time  |  max time  |%varavg| %total
---------------------------------------------------------------
Pair    | 32.71      | 32.71      | 32.71      |   0.0 | 52.91
Neigh   | 27.803     | 27.803     | 27.803     |   0.0 | 44.98
Comm    | 0.45582    | 0.45582    | 0.45582    |   0.0 |  0.74
Output  | 0.049893   | 0.049893   | 0.049893   |   0.0 |  0.08
Modify  | 0.63473    | 0.63473    | 0.63473    |   0.0 |  1.03
Other   |            | 0.1635     |            |       |  0.26

Nlocal:    19652 ave 19652 max 19652 min
Histogram: 1 0 0 0 0 0 0 0 0 0
Nghost:    17191 ave 17191 max 17191 min
Histogram: 1 0 0 0 0 0 0 0 0 0
Neighs:    1.27688e+06 ave 1.27688e+06 max 1.27688e+06 min
Histogram: 1 0 0 0 0 0 0 0 0 0

Total # of neighbors = 1276880
Ave neighs/atom = 64.9746
Neighbor list builds = 495
Dangerous builds not checked
Setting up Verlet run ...
  Unit style    : metal
  Current step  : 193836
  Time step     : 0.001
Per MPI rank memory allocation (min/avg/max) = 18.19 | 18.19 | 18.19 Mbytes
Step Temp Press TotEng PotEng Enthalpy 
  193836     1269.957    476.01998   -57743.758   -60969.564   -57628.876 
  200008    1250.8169   -13.731353   -57845.951    -61023.14    -57849.26 
Loop time of 890.804 on 1 procs for 6172 steps with 19652 atoms

Performance: 0.599 ns/day, 40.092 hours/ns, 6.929 timesteps/s
96.8% CPU use with 1 MPI tasks x no OpenMP threads

MPI task timing breakdown:
Section |  min time  |  avg time  |  max time  |%varavg| %total
---------------------------------------------------------------
Pair    | 478.86     | 478.86     | 478.86     |   0.0 | 53.76
Neigh   | 393.86     | 393.86     | 393.86     |   0.0 | 44.21
Comm    | 6.645      | 6.645      | 6.645      |   0.0 |  0.75
Output  | 0.00021505 | 0.00021505 | 0.00021505 |   0.0 |  0.00
Modify  | 9.082      | 9.082      | 9.082      |   0.0 |  1.02
Other   |            | 2.36       |            |       |  0.26

Nlocal:    19652 ave 19652 max 19652 min
Histogram: 1 0 0 0 0 0 0 0 0 0
Nghost:    17194 ave 17194 max 17194 min
Histogram: 1 0 0 0 0 0 0 0 0 0
Neighs:    1.27955e+06 ave 1.27955e+06 max 1.27955e+06 min
Histogram: 1 0 0 0 0 0 0 0 0 0

Total # of neighbors = 1279548
Ave neighs/atom = 65.1103
Neighbor list builds = 6172
Dangerous builds not checked
Setting up Verlet run ...
  Unit style    : metal
  Current step  : 200008
  Time step     : 0.001
Per MPI rank memory allocation (min/avg/max) = 18.19 | 18.19 | 18.19 Mbytes
Step Temp Press TotEng PotEng Enthalpy 
  200008    1250.8169   -13.731353   -57845.951    -61023.14    -57849.26 
  200010    1251.1721   -11.005064   -57845.952   -61024.043   -57848.603 
  200503    1219.5584   -811.67868   -58043.182   -61140.972   -58238.271 
Loop time of 65.1483 on 1 procs for 495 steps with 19652 atoms

Performance: 0.656 ns/day, 36.559 hours/ns, 7.598 timesteps/s
99.9% CPU use with 1 MPI tasks x no OpenMP threads

MPI task timing breakdown:
Section |  min time  |  avg time  |  max time  |%varavg| %total
---------------------------------------------------------------
Pair    | 34.707     | 34.707     | 34.707     |   0.0 | 53.27
Neigh   | 29.087     | 29.087     | 29.087     |   0.0 | 44.65
Comm    | 0.47566    | 0.47566    | 0.47566    |   0.0 |  0.73
Output  | 0.042844   | 0.042844   | 0.042844   |   0.0 |  0.07
Modify  | 0.66384    | 0.66384    | 0.66384    |   0.0 |  1.02
Other   |            | 0.1714     |            |       |  0.26

Nlocal:    19652 ave 19652 max 19652 min
Histogram: 1 0 0 0 0 0 0 0 0 0
Nghost:    17317 ave 17317 max 17317 min
Histogram: 1 0 0 0 0 0 0 0 0 0
Neighs:    1.28252e+06 ave 1.28252e+06 max 1.28252e+06 min
Histogram: 1 0 0 0 0 0 0 0 0 0

Total # of neighbors = 1282517
Ave neighs/atom = 65.2614
Neighbor list builds = 495
Dangerous builds not checked
Setting up Verlet run ...
  Unit style    : metal
  Current step  : 200503
  Time step     : 0.001
Per MPI rank memory allocation (min/avg/max) = 18.19 | 18.19 | 18.19 Mbytes
Step Temp Press TotEng PotEng Enthalpy 
  200503    1219.5584   -811.67868   -58043.182   -61140.972   -58238.271 
  206675    1202.7477    -552.0255     -58116.8   -61171.889    -58249.39 
Loop time of 808.32 on 1 procs for 6172 steps with 19652 atoms

Performance: 0.660 ns/day, 36.379 hours/ns, 7.636 timesteps/s
99.5% CPU use with 1 MPI tasks x no OpenMP threads

MPI task timing breakdown:
Section |  min time  |  avg time  |  max time  |%varavg| %total
---------------------------------------------------------------
Pair    | 430.3      | 430.3      | 430.3      |   0.0 | 53.23
Neigh   | 361.7      | 361.7      | 361.7      |   0.0 | 44.75
Comm    | 5.9661     | 5.9661     | 5.9661     |   0.0 |  0.74
Output  | 0.0001471  | 0.0001471  | 0.0001471  |   0.0 |  0.00
Modify  | 8.228      | 8.228      | 8.228      |   0.0 |  1.02
Other   |            | 2.124      |            |       |  0.26

Nlocal:    19652 ave 19652 max 19652 min
Histogram: 1 0 0 0 0 0 0 0 0 0
Nghost:    17254 ave 17254 max 17254 min
Histogram: 1 0 0 0 0 0 0 0 0 0
Neighs:    1.28292e+06 ave 1.28292e+06 max 1.28292e+06 min
Histogram: 1 0 0 0 0 0 0 0 0 0

Total # of neighbors = 1282923
Ave neighs/atom = 65.2821
Neighbor list builds = 6172
Dangerous builds not checked
Setting up Verlet run ...
  Unit style    : metal
  Current step  : 206675
  Time step     : 0.001
[...]

Performance: 0.506 ns/day, 47.416 hours/ns, 5.858 timesteps/s
96.9% CPU use with 1 MPI tasks x no OpenMP threads

MPI task timing breakdown:
Section |  min time  |  avg time  |  max time  |%varavg| %total
---------------------------------------------------------------
Pair    | 45.789     | 45.789     | 45.789     |   0.0 | 54.19
Neigh   | 36.943     | 36.943     | 36.943     |   0.0 | 43.72
Comm    | 0.61398    | 0.61398    | 0.61398    |   0.0 |  0.73
Output  | 0.069894   | 0.069894   | 0.069894   |   0.0 |  0.08
Modify  | 0.85492    | 0.85492    | 0.85492    |   0.0 |  1.01
Other   |            | 0.224      |            |       |  0.27

Nlocal:    19652 ave 19652 max 19652 min
Histogram: 1 0 0 0 0 0 0 0 0 0
Nghost:    17905 ave 17905 max 17905 min
Histogram: 1 0 0 0 0 0 0 0 0 0
Neighs:    1.41228e+06 ave 1.41228e+06 max 1.41228e+06 min
Histogram: 1 0 0 0 0 0 0 0 0 0

Total # of neighbors = 1412278
Ave neighs/atom = 71.8643
Neighbor list builds = 495
Dangerous builds not checked
Setting up Verlet run ...
  Unit style    : metal
  Current step  : 307175
  Time step     : 0.001
Per MPI rank memory allocation (min/avg/max) = 18.2 | 18.2 | 18.2 Mbytes
Step Temp Press TotEng PotEng Enthalpy 
  307175    422.54251    243.99911   -63106.629   -64179.925   -63053.332 
  313347    400.39138   -634.71058   -63263.293   -64280.324   -63401.692 
Loop time of 1066.4 on 1 procs for 6172 steps with 19652 atoms

Performance: 0.500 ns/day, 47.994 hours/ns, 5.788 timesteps/s
98.4% CPU use with 1 MPI tasks x no OpenMP threads

MPI task timing breakdown:
Section |  min time  |  avg time  |  max time  |%varavg| %total
---------------------------------------------------------------
Pair    | 585.46     | 585.46     | 585.46     |   0.0 | 54.90
Neigh   | 458.93     | 458.93     | 458.93     |   0.0 | 43.04
Comm    | 8.2536     | 8.2536     | 8.2536     |   0.0 |  0.77
Output  | 0.00023317 | 0.00023317 | 0.00023317 |   0.0 |  0.00
Modify  | 10.915     | 10.915     | 10.915     |   0.0 |  1.02
Other   |            | 2.841      |            |       |  0.27

Nlocal:    19652 ave 19652 max 19652 min
Histogram: 1 0 0 0 0 0 0 0 0 0
Nghost:    17951 ave 17951 max 17951 min
Histogram: 1 0 0 0 0 0 0 0 0 0
Neighs:    1.41482e+06 ave 1.41482e+06 max 1.41482e+06 min
Histogram: 1 0 0 0 0 0 0 0 0 0

Total # of neighbors = 1414817
Ave neighs/atom = 71.9935
Neighbor list builds = 6172
Dangerous builds not checked
Setting up Verlet run ...
  Unit style    : metal
  Current step  : 313347
  Time step     : 0.001
Per MPI rank memory allocation (min/avg/max) = 18.2 | 18.2 | 18.2 Mbytes
Step Temp Press TotEng PotEng Enthalpy 
  313347    400.39138   -634.71058   -63263.293   -64280.324   -63401.692 
  313349    400.31711   -626.89317   -63263.294   -64280.136   -63399.988 
  313842     371.5891    -548.3823   -63419.378   -64363.248   -63538.639 
Loop time of 83.5645 on 1 procs for 495 steps with 19652 atoms

Performance: 0.512 ns/day, 46.894 hours/ns, 5.924 timesteps/s
95.2% CPU use with 1 MPI tasks x no OpenMP threads

MPI task timing breakdown:
Section |  min time  |  avg time  |  max time  |%varavg| %total
---------------------------------------------------------------
Pair    | 45.438     | 45.438     | 45.438     |   0.0 | 54.37
Neigh   | 36.356     | 36.356     | 36.356     |   0.0 | 43.51
Comm    | 0.63172    | 0.63172    | 0.63172    |   0.0 |  0.76
Output  | 0.068896   | 0.068896   | 0.068896   |   0.0 |  0.08
Modify  | 0.82721    | 0.82721    | 0.82721    |   0.0 |  0.99
Other   |            | 0.243      |            |       |  0.29

Nlocal:    19652 ave 19652 max 19652 min
Histogram: 1 0 0 0 0 0 0 0 0 0
Nghost:    18017 ave 18017 max 18017 min
Histogram: 1 0 0 0 0 0 0 0 0 0
Neighs:    1.41852e+06 ave 1.41852e+06 max 1.41852e+06 min
Histogram: 1 0 0 0 0 0 0 0 0 0

Total # of neighbors = 1418521
Ave neighs/atom = 72.182
Neighbor list builds = 495
Dangerous builds not checked
Setting up Verlet run ...
  Unit style    : metal
  Current step  : 313842
  Time step     : 0.001
Per MPI rank memory allocation (min/avg/max) = 18.2 | 18.2 | 18.2 Mbytes
Step Temp Press TotEng PotEng Enthalpy 
  313842     371.5891    -548.3823   -63419.378   -64363.248   -63538.639 
  320014    350.83115    656.76565   -63576.727    -64467.87   -63434.468 
Loop time of 1029.45 on 1 procs for 6172 steps with 19652 atoms

Performance: 0.518 ns/day, 46.332 hours/ns, 5.995 timesteps/s
97.7% CPU use with 1 MPI tasks x no OpenMP threads

MPI task timing breakdown:
Section |  min time  |  avg time  |  max time  |%varavg| %total
---------------------------------------------------------------
Pair    | 556.81     | 556.81     | 556.81     |   0.0 | 54.09
Neigh   | 451.9      | 451.9      | 451.9      |   0.0 | 43.90
Comm    | 7.5822     | 7.5822     | 7.5822     |   0.0 |  0.74
Output  | 0.0002799  | 0.0002799  | 0.0002799  |   0.0 |  0.00
Modify  | 10.393     | 10.393     | 10.393     |   0.0 |  1.01
Other   |            | 2.772      |            |       |  0.27

Nlocal:    19652 ave 19652 max 19652 min
Histogram: 1 0 0 0 0 0 0 0 0 0
Nghost:    17963 ave 17963 max 17963 min
Histogram: 1 0 0 0 0 0 0 0 0 0
Neighs:    1.42419e+06 ave 1.42419e+06 max 1.42419e+06 min
Histogram: 1 0 0 0 0 0 0 0 0 0

Total # of neighbors = 1424187
Ave neighs/atom = 72.4703
Neighbor list builds = 6172
Dangerous builds not checked
Setting up Verlet run ...
  Unit style    : metal
  Current step  : 320014
  Time step     : 0.001
Per MPI rank memory allocation (min/avg/max) = 18.2 | 18.2 | 18.2 Mbytes
Step Temp Press TotEng PotEng Enthalpy 
  320014    350.83115    656.76565   -63576.727    -64467.87   -63434.468 
  320016    350.31653    652.22213   -63576.727   -64466.563   -63435.452 
  320509     322.3615    138.61204   -63722.754   -64541.582   -63692.763 
Loop time of 82.6242 on 1 procs for 495 steps with 19652 atoms

Performance: 0.518 ns/day, 46.366 hours/ns, 5.991 timesteps/s
97.8% CPU use with 1 MPI tasks x no OpenMP threads

MPI task timing breakdown:
Section |  min time  |  avg time  |  max time  |%varavg| %total
---------------------------------------------------------------
Pair    | 44.562     | 44.562     | 44.562     |   0.0 | 53.93
Neigh   | 36.292     | 36.292     | 36.292     |   0.0 | 43.92
Comm    | 0.61666    | 0.61666    | 0.61666    |   0.0 |  0.75
Output  | 0.073802   | 0.073802   | 0.073802   |   0.0 |  0.09
Modify  | 0.84806    | 0.84806    | 0.84806    |   0.0 |  1.03
Other   |            | 0.2317     |            |       |  0.28

Nlocal:    19652 ave 19652 max 19652 min
Histogram: 1 0 0 0 0 0 0 0 0 0
Nghost:    18008 ave 18008 max 18008 min
Histogram: 1 0 0 0 0 0 0 0 0 0
Neighs:    1.42609e+06 ave 1.42609e+06 max 1.42609e+06 min
Histogram: 1 0 0 0 0 0 0 0 0 0

Total # of neighbors = 1426087
Ave neighs/atom = 72.567
Neighbor list builds = 495
Dangerous builds not checked
Setting up Verlet run ...
  Unit style    : metal
  Current step  : 320509
  Time step     : 0.001
Per MPI rank memory allocation (min/avg/max) = 18.2 | 18.2 | 18.2 Mbytes
Step Temp Press TotEng PotEng Enthalpy 
  320509     322.3615    138.61204   -63722.754   -64541.582   -63692.763 
  326681    299.50551   -154.82963   -63862.358   -64623.129   -63895.806 
Loop time of 1062.52 on 1 procs for 6172 steps with 19652 atoms

Performance: 0.502 ns/day, 47.820 hours/ns, 5.809 timesteps/s
98.0% CPU use with 1 MPI tasks x no OpenMP threads

MPI task timing breakdown:
Section |  min time  |  avg time  |  max time  |%varavg| %total
---------------------------------------------------------------
Pair    | 586.77     | 586.77     | 586.77     |   0.0 | 55.22
Neigh   | 453.46     | 453.46     | 453.46     |   0.0 | 42.68
Comm    | 8.391      | 8.391      | 8.391      |   0.0 |  0.79
Output  | 0.00037599 | 0.00037599 | 0.00037599 |   0.0 |  0.00
Modify  | 10.972     | 10.972     | 10.972     |   0.0 |  1.03
Other   |            | 2.925      |            |       |  0.28

Nlocal:    19652 ave 19652 max 19652 min
Histogram: 1 0 0 0 0 0 0 0 0 0
Nghost:    18013 ave 18013 max 18013 min
Histogram: 1 0 0 0 0 0 0 0 0 0
Neighs:    1.4282e+06 ave 1.4282e+06 max 1.4282e+06 min
Histogram: 1 0 0 0 0 0 0 0 0 0

Total # of neighbors = 1428204
Ave neighs/atom = 72.6747
Neighbor list builds = 6172
Dangerous builds not checked
Setting up Verlet run ...
  Unit style    : metal
  Current step  : 326681
  Time step     : 0.001
Per MPI rank memory allocation (min/avg/max) = 18.2 | 18.2 | 18.2 Mbytes
Step Temp Press TotEng PotEng Enthalpy 
  326681    299.50551   -154.82963   -63862.358   -64623.129   -63895.806 
  326683    299.63089   -166.93636   -63862.358   -64623.447   -63898.421 
  327176    274.37886   -67.512314   -64004.274   -64701.222   -64018.829 
Loop time of 77.5982 on 1 procs for 495 steps with 19652 atoms

Performance: 0.551 ns/day, 43.546 hours/ns, 6.379 timesteps/s
99.4% CPU use with 1 MPI tasks x no OpenMP threads

MPI task timing breakdown:
Section |  min time  |  avg time  |  max time  |%varavg| %total
---------------------------------------------------------------
Pair    | 41.92      | 41.92      | 41.92      |   0.0 | 54.02
Neigh   | 34.009     | 34.009     | 34.009     |   0.0 | 43.83
Comm    | 0.58655    | 0.58655    | 0.58655    |   0.0 |  0.76
Output  | 0.083769   | 0.083769   | 0.083769   |   0.0 |  0.11
Modify  | 0.78524    | 0.78524    | 0.78524    |   0.0 |  1.01
Other   |            | 0.2137     |            |       |  0.28

Nlocal:    19652 ave 19652 max 19652 min
Histogram: 1 0 0 0 0 0 0 0 0 0
Nghost:    18047 ave 18047 max 18047 min
Histogram: 1 0 0 0 0 0 0 0 0 0
Neighs:    1.43058e+06 ave 1.43058e+06 max 1.43058e+06 min
Histogram: 1 0 0 0 0 0 0 0 0 0

Total # of neighbors = 1430580
Ave neighs/atom = 72.7956
Neighbor list builds = 495
Dangerous builds not checked
Setting up Verlet run ...
  Unit style    : metal
  Current step  : 327176
  Time step     : 0.001
Per MPI rank memory allocation (min/avg/max) = 18.2 | 18.2 | 18.2 Mbytes
Step Temp Press TotEng PotEng Enthalpy 
  327176    274.37886   -67.512314   -64004.274   -64701.222   -64018.829 
  333348    248.36393    150.12499   -64145.294   -64776.161   -64112.996 
Loop time of 1105.64 on 1 procs for 6172 steps with 19652 atoms

Performance: 0.482 ns/day, 49.760 hours/ns, 5.582 timesteps/s
92.0% CPU use with 1 MPI tasks x no OpenMP threads

MPI task timing breakdown:
Section |  min time  |  avg time  |  max time  |%varavg| %total
---------------------------------------------------------------
Pair    | 605.27     | 605.27     | 605.27     |   0.0 | 54.74
Neigh   | 477.52     | 477.52     | 477.52     |   0.0 | 43.19
Comm    | 8.4419     | 8.4419     | 8.4419     |   0.0 |  0.76
Output  | 0.0002718  | 0.0002718  | 0.0002718  |   0.0 |  0.00
Modify  | 11.313     | 11.313     | 11.313     |   0.0 |  1.02
Other   |            | 3.089      |            |       |  0.28

Nlocal:    19652 ave 19652 max 19652 min
Histogram: 1 0 0 0 0 0 0 0 0 0
Nghost:    18048 ave 18048 max 18048 min
Histogram: 1 0 0 0 0 0 0 0 0 0
Neighs:    1.43328e+06 ave 1.43328e+06 max 1.43328e+06 min
Histogram: 1 0 0 0 0 0 0 0 0 0

Total # of neighbors = 1433278
Ave neighs/atom = 72.9329
Neighbor list builds = 6172
Dangerous builds not checked
Setting up Verlet run ...
  Unit style    : metal
  Current step  : 333348
  Time step     : 0.001
Per MPI rank memory allocation (min/avg/max) = 18.2 | 18.2 | 18.2 Mbytes
Step Temp Press TotEng PotEng Enthalpy 
  333348    248.36393    150.12499   -64145.294   -64776.161   -64112.996 
  333350    248.48656    145.90133   -64145.292   -64776.471   -64113.903 
  333843    224.23513    29.154103   -64278.348   -64847.925   -64272.082 
Loop time of 100.136 on 1 procs for 495 steps with 19652 atoms

Performance: 0.427 ns/day, 56.193 hours/ns, 4.943 timesteps/s
84.7% CPU use with 1 MPI tasks x no OpenMP threads

MPI task timing breakdown:
Section |  min time  |  avg time  |  max time  |%varavg| %total
---------------------------------------------------------------
Pair    | 54.718     | 54.718     | 54.718     |   0.0 | 54.64
Neigh   | 43.242     | 43.242     | 43.242     |   0.0 | 43.18
Comm    | 0.75404    | 0.75404    | 0.75404    |   0.0 |  0.75
Output  | 0.074468   | 0.074468   | 0.074468   |   0.0 |  0.07
Modify  | 1.0469     | 1.0469     | 1.0469     |   0.0 |  1.05
Other   |            | 0.3011     |            |       |  0.30

Nlocal:    19652 ave 19652 max 19652 min
Histogram: 1 0 0 0 0 0 0 0 0 0
Nghost:    18105 ave 18105 max 18105 min
Histogram: 1 0 0 0 0 0 0 0 0 0
Neighs:    1.43497e+06 ave 1.43497e+06 max 1.43497e+06 min
Histogram: 1 0 0 0 0 0 0 0 0 0

Total # of neighbors = 1434971
Ave neighs/atom = 73.0191
Neighbor list builds = 495
Dangerous builds not checked
Setting up Verlet run ...
  Unit style    : metal
  Current step  : 333843
  Time step     : 0.001
Per MPI rank memory allocation (min/avg/max) = 18.2 | 18.2 | 18.2 Mbytes
Step Temp Press TotEng PotEng Enthalpy 
  333843    224.23513    29.154103   -64278.348   -64847.925   -64272.082 
  340015    200.88908   -319.74384   -64409.955   -64920.231   -64478.612 
Loop time of 1182.98 on 1 procs for 6172 steps with 19652 atoms

Performance: 0.451 ns/day, 53.241 hours/ns, 5.217 timesteps/s
89.1% CPU use with 1 MPI tasks x no OpenMP threads

MPI task timing breakdown:
Section |  min time  |  avg time  |  max time  |%varavg| %total
---------------------------------------------------------------
Pair    | 649.68     | 649.68     | 649.68     |   0.0 | 54.92
Neigh   | 508.43     | 508.43     | 508.43     |   0.0 | 42.98
Comm    | 9.2992     | 9.2992     | 9.2992     |   0.0 |  0.79
Output  | 0.00024104 | 0.00024104 | 0.00024104 |   0.0 |  0.00
Modify  | 12.268     | 12.268     | 12.268     |   0.0 |  1.04
Other   |            | 3.305      |            |       |  0.28

Nlocal:    19652 ave 19652 max 19652 min
Histogram: 1 0 0 0 0 0 0 0 0 0
Nghost:    18043 ave 18043 max 18043 min
Histogram: 1 0 0 0 0 0 0 0 0 0
Neighs:    1.43614e+06 ave 1.43614e+06 max 1.43614e+06 min
Histogram: 1 0 0 0 0 0 0 0 0 0

Total # of neighbors = 1436139
Ave neighs/atom = 73.0785
Neighbor list builds = 6172
Dangerous builds not checked
Setting up Verlet run ...
  Unit style    : metal
  Current step  : 340015
  Time step     : 0.001
Per MPI rank memory allocation (min/avg/max) = 18.2 | 18.2 | 18.2 Mbytes
Step Temp Press TotEng PotEng Enthalpy 
  340015    200.88908   -319.74384   -64409.955   -64920.231   -64478.612 
  340017    200.88533   -323.04447   -64409.956   -64920.223   -64479.322 
  340510    175.71632    92.085871   -64542.703   -64989.038   -64522.975 
Loop time of 93.8994 on 1 procs for 495 steps with 19652 atoms

Performance: 0.455 ns/day, 52.693 hours/ns, 5.272 timesteps/s
88.6% CPU use with 1 MPI tasks x no OpenMP threads

MPI task timing breakdown:
Section |  min time  |  avg time  |  max time  |%varavg| %total
---------------------------------------------------------------
Pair    | 51.683     | 51.683     | 51.683     |   0.0 | 55.04
Neigh   | 40.167     | 40.167     | 40.167     |   0.0 | 42.78
Comm    | 0.71527    | 0.71527    | 0.71527    |   0.0 |  0.76
Output  | 0.072986   | 0.072986   | 0.072986   |   0.0 |  0.08
Modify  | 0.99738    | 0.99738    | 0.99738    |   0.0 |  1.06
Other   |            | 0.263      |            |       |  0.28

Nlocal:    19652 ave 19652 max 19652 min
Histogram: 1 0 0 0 0 0 0 0 0 0
Nghost:    18053 ave 18053 max 18053 min
Histogram: 1 0 0 0 0 0 0 0 0 0
Neighs:    1.43953e+06 ave 1.43953e+06 max 1.43953e+06 min
Histogram: 1 0 0 0 0 0 0 0 0 0

Total # of neighbors = 1439526
Ave neighs/atom = 73.2509
Neighbor list builds = 495
Dangerous builds not checked
Setting up Verlet run ...
  Unit style    : metal
  Current step  : 340510
  Time step     : 0.001
Per MPI rank memory allocation (min/avg/max) = 18.2 | 18.2 | 18.2 Mbytes
Step Temp Press TotEng PotEng Enthalpy 
  340510    175.71632    92.085871   -64542.703   -64989.038   -64522.975 
  346682    149.72403   -144.59413   -64681.868    -65062.18   -64712.814 
Loop time of 1141.29 on 1 procs for 6172 steps with 19652 atoms

Performance: 0.467 ns/day, 51.365 hours/ns, 5.408 timesteps/s
88.6% CPU use with 1 MPI tasks x no OpenMP threads

MPI task timing breakdown:
Section |  min time  |  avg time  |  max time  |%varavg| %total
---------------------------------------------------------------
Pair    | 623.91     | 623.91     | 623.91     |   0.0 | 54.67
Neigh   | 493.85     | 493.85     | 493.85     |   0.0 | 43.27
Comm    | 8.6873     | 8.6873     | 8.6873     |   0.0 |  0.76
Output  | 0.00024509 | 0.00024509 | 0.00024509 |   0.0 |  0.00
Modify  | 11.754     | 11.754     | 11.754     |   0.0 |  1.03
Other   |            | 3.082      |            |       |  0.27

Nlocal:    19652 ave 19652 max 19652 min
Histogram: 1 0 0 0 0 0 0 0 0 0
Nghost:    18148 ave 18148 max 18148 min
Histogram: 1 0 0 0 0 0 0 0 0 0
Neighs:    1.44068e+06 ave 1.44068e+06 max 1.44068e+06 min
Histogram: 1 0 0 0 0 0 0 0 0 0

Total # of neighbors = 1440683
Ave neighs/atom = 73.3097
Neighbor list builds = 6172
Dangerous builds not checked
Setting up Verlet run ...
  Unit style    : metal
  Current step  : 346682
  Time step     : 0.001
Per MPI rank memory allocation (min/avg/max) = 18.2 | 18.2 | 18.2 Mbytes
Step Temp Press TotEng PotEng Enthalpy 
  346682    149.72403   -144.59413   -64681.868    -65062.18   -64712.814 
  346684    149.70146   -142.65924   -64681.867   -65062.123     -64712.4 
  347177    126.58866   -6.5766231   -64800.033    -65121.58   -64801.439 
Loop time of 97.1833 on 1 procs for 495 steps with 19652 atoms

Performance: 0.440 ns/day, 54.536 hours/ns, 5.093 timesteps/s
85.0% CPU use with 1 MPI tasks x no OpenMP threads

MPI task timing breakdown:
Section |  min time  |  avg time  |  max time  |%varavg| %total
---------------------------------------------------------------
Pair    | 53.487     | 53.487     | 53.487     |   0.0 | 55.04
Neigh   | 41.562     | 41.562     | 41.562     |   0.0 | 42.77
Comm    | 0.76279    | 0.76279    | 0.76279    |   0.0 |  0.78
Output  | 0.070323   | 0.070323   | 0.070323   |   0.0 |  0.07
Modify  | 1.022      | 1.022      | 1.022      |   0.0 |  1.05
Other   |            | 0.2787     |            |       |  0.29

Nlocal:    19652 ave 19652 max 19652 min
Histogram: 1 0 0 0 0 0 0 0 0 0
Nghost:    18114 ave 18114 max 18114 min
Histogram: 1 0 0 0 0 0 0 0 0 0
Neighs:    1.44242e+06 ave 1.44242e+06 max 1.44242e+06 min
Histogram: 1 0 0 0 0 0 0 0 0 0

Total # of neighbors = 1442421
Ave neighs/atom = 73.3982
Neighbor list builds = 495
Dangerous builds not checked
Setting up Verlet run ...
  Unit style    : metal
  Current step  : 347177
  Time step     : 0.001
Per MPI rank memory allocation (min/avg/max) = 18.2 | 18.2 | 18.2 Mbytes
Step Temp Press TotEng PotEng Enthalpy 
  347177    126.58866   -6.5766231   -64800.033    -65121.58   -64801.439 
  353349    99.846304    426.57025   -64941.357   -65194.976   -64850.382 
Loop time of 1134.68 on 1 procs for 6172 steps with 19652 atoms

Performance: 0.470 ns/day, 51.067 hours/ns, 5.439 timesteps/s
89.0% CPU use with 1 MPI tasks x no OpenMP threads

MPI task timing breakdown:
Section |  min time  |  avg time  |  max time  |%varavg| %total
---------------------------------------------------------------
Pair    | 617.36     | 617.36     | 617.36     |   0.0 | 54.41
Neigh   | 493.66     | 493.66     | 493.66     |   0.0 | 43.51
Comm    | 8.6217     | 8.6217     | 8.6217     |   0.0 |  0.76
Output  | 0.00020981 | 0.00020981 | 0.00020981 |   0.0 |  0.00
Modify  | 11.808     | 11.808     | 11.808     |   0.0 |  1.04
Other   |            | 3.224      |            |       |  0.28

Nlocal:    19652 ave 19652 max 19652 min
Histogram: 1 0 0 0 0 0 0 0 0 0
Nghost:    18130 ave 18130 max 18130 min
Histogram: 1 0 0 0 0 0 0 0 0 0
Neighs:    1.44575e+06 ave 1.44575e+06 max 1.44575e+06 min
Histogram: 1 0 0 0 0 0 0 0 0 0

Total # of neighbors = 1445753
Ave neighs/atom = 73.5677
Neighbor list builds = 6172
Dangerous builds not checked
Total wall time: 15:27:15
