LAMMPS (12 Dec 2018)
Lattice spacing in x,y,z = 4 4 4
Created orthogonal box = (0 0 0) to (68 68 68)
  1 by 1 by 1 MPI processor grid
Created 19652 atoms
  Time spent = 0.00462294 secs
Setting atom values ...
  19652 settings made for type/fraction
Neighbor list info ...
  update every 1 steps, delay 0 steps, check no
  max neighbors/atom: 2000, page size: 100000
  master list distance cutoff = 8.5
  ghost atom cutoff = 8.5
  binsize = 4.25, bins = 16 16 16
  1 neighbor lists, perpetual/occasional/extra = 1 0 0
  (1) pair eam/alloy, perpetual
      attributes: half, newton on
      pair build: half/bin/atomonly/newton
      stencil: half/bin/3d/newton
      bin: standard
Setting up Verlet run ...
  Unit style    : metal
  Current step  : 0
  Time step     : 0.001
Per MPI rank memory allocation (min/avg/max) = 18.19 | 18.19 | 18.19 Mbytes
Step Temp Press TotEng PotEng Enthalpy 
       0          300   -186199.32   -61187.265   -61949.292   -97729.446 
    1000    548.06876   -69279.183   -61187.306    -62579.45   -74783.555 
Loop time of 181.977 on 1 procs for 1000 steps with 19652 atoms

Performance: 0.475 ns/day, 50.549 hours/ns, 5.495 timesteps/s
97.6% CPU use with 1 MPI tasks x no OpenMP threads

MPI task timing breakdown:
Section |  min time  |  avg time  |  max time  |%varavg| %total
---------------------------------------------------------------
Pair    | 104.27     | 104.27     | 104.27     |   0.0 | 57.30
Neigh   | 74.955     | 74.955     | 74.955     |   0.0 | 41.19
Comm    | 1.6856     | 1.6856     | 1.6856     |   0.0 |  0.93
Output  | 0.0002501  | 0.0002501  | 0.0002501  |   0.0 |  0.00
Modify  | 0.56732    | 0.56732    | 0.56732    |   0.0 |  0.31
Other   |            | 0.5026     |            |       |  0.28

Nlocal:    19652 ave 19652 max 19652 min
Histogram: 1 0 0 0 0 0 0 0 0 0
Nghost:    19021 ave 19021 max 19021 min
Histogram: 1 0 0 0 0 0 0 0 0 0
Neighs:    1.58751e+06 ave 1.58751e+06 max 1.58751e+06 min
Histogram: 1 0 0 0 0 0 0 0 0 0

Total # of neighbors = 1587506
Ave neighs/atom = 80.7809
Neighbor list builds = 1000
Dangerous builds not checked
Setting up Verlet run ...
  Unit style    : metal
  Current step  : 1000
  Time step     : 0.001
Per MPI rank memory allocation (min/avg/max) = 18.19 | 18.19 | 18.19 Mbytes
Step Temp Press TotEng PotEng Enthalpy 
    1000    548.06876   -69279.183   -61187.306    -62579.45   -74783.555 
    2000    396.98986   -2097.0362   -65638.703   -66647.094    -65961.58 
Loop time of 228.729 on 1 procs for 1000 steps with 19652 atoms

Performance: 0.378 ns/day, 63.536 hours/ns, 4.372 timesteps/s
99.2% CPU use with 1 MPI tasks x no OpenMP threads

MPI task timing breakdown:
Section |  min time  |  avg time  |  max time  |%varavg| %total
---------------------------------------------------------------
Pair    | 128.11     | 128.11     | 128.11     |   0.0 | 56.01
Neigh   | 96.835     | 96.835     | 96.835     |   0.0 | 42.34
Comm    | 1.5943     | 1.5943     | 1.5943     |   0.0 |  0.70
Output  | 0.00025606 | 0.00025606 | 0.00025606 |   0.0 |  0.00
Modify  | 1.6888     | 1.6888     | 1.6888     |   0.0 |  0.74
Other   |            | 0.4966     |            |       |  0.22

Nlocal:    19652 ave 19652 max 19652 min
Histogram: 1 0 0 0 0 0 0 0 0 0
Nghost:    20320 ave 20320 max 20320 min
Histogram: 1 0 0 0 0 0 0 0 0 0
Neighs:    1.99536e+06 ave 1.99536e+06 max 1.99536e+06 min
Histogram: 1 0 0 0 0 0 0 0 0 0

Total # of neighbors = 1995361
Ave neighs/atom = 101.535
Neighbor list builds = 1000
Dangerous builds not checked
Setting up Verlet run ...
  Unit style    : metal
  Current step  : 2000
  Time step     : 0.001
Per MPI rank memory allocation (min/avg/max) = 19.33 | 19.33 | 19.33 Mbytes
Step Temp Press TotEng PotEng Enthalpy 
    2000    396.98986   -2097.0362   -65638.703   -66647.094    -65961.58 
    6667    1508.2093   -337.41119   -60207.916   -64038.905   -60262.126 
   10000    2462.7165     1229.093   -53008.128   -59263.653   -52784.573 
Loop time of 1842.74 on 1 procs for 8000 steps with 19652 atoms

Performance: 0.375 ns/day, 63.984 hours/ns, 4.341 timesteps/s
99.2% CPU use with 1 MPI tasks x no OpenMP threads

MPI task timing breakdown:
Section |  min time  |  avg time  |  max time  |%varavg| %total
---------------------------------------------------------------
Pair    | 1034.6     | 1034.6     | 1034.6     |   0.0 | 56.14
Neigh   | 774.48     | 774.48     | 774.48     |   0.0 | 42.03
Comm    | 13.851     | 13.851     | 13.851     |   0.0 |  0.75
Output  | 0.074348   | 0.074348   | 0.074348   |   0.0 |  0.00
Modify  | 15.397     | 15.397     | 15.397     |   0.0 |  0.84
Other   |            | 4.358      |            |       |  0.24

Nlocal:    19652 ave 19652 max 19652 min
Histogram: 1 0 0 0 0 0 0 0 0 0
Nghost:    19297 ave 19297 max 19297 min
Histogram: 1 0 0 0 0 0 0 0 0 0
Neighs:    1.69163e+06 ave 1.69163e+06 max 1.69163e+06 min
Histogram: 1 0 0 0 0 0 0 0 0 0

Total # of neighbors = 1691629
Ave neighs/atom = 86.0792
Neighbor list builds = 8000
Dangerous builds not checked
Setting up Verlet run ...
  Unit style    : metal
  Current step  : 10000
  Time step     : 0.001
Per MPI rank memory allocation (min/avg/max) = 19.34 | 19.34 | 19.34 Mbytes
Step Temp Press TotEng PotEng Enthalpy 
   10000    2462.7165     1229.093   -53008.128   -59263.653   -52784.573 
   13334    2484.9871    1110.3228   -52950.489   -59262.582   -52748.549 
   20001    2459.1676    663.31956   -52937.603   -59184.112   -52816.755 
   26668     2456.853     557.0307   -52970.038   -59210.668   -52868.609 
   33335    2456.7823   -677.14347   -52929.067   -59169.518   -53052.719 
   40000    2439.8467   -119.99857   -53020.342   -59217.775   -53042.198 
Loop time of 6617.1 on 1 procs for 30000 steps with 19652 atoms

Performance: 0.392 ns/day, 61.269 hours/ns, 4.534 timesteps/s
99.1% CPU use with 1 MPI tasks x no OpenMP threads

MPI task timing breakdown:
Section |  min time  |  avg time  |  max time  |%varavg| %total
---------------------------------------------------------------
Pair    | 3749.2     | 3749.2     | 3749.2     |   0.0 | 56.66
Neigh   | 2749.2     | 2749.2     | 2749.2     |   0.0 | 41.55
Comm    | 48.989     | 48.989     | 48.989     |   0.0 |  0.74
Output  | 0.42202    | 0.42202    | 0.42202    |   0.0 |  0.01
Modify  | 53.71      | 53.71      | 53.71      |   0.0 |  0.81
Other   |            | 15.56      |            |       |  0.24

Nlocal:    19652 ave 19652 max 19652 min
Histogram: 1 0 0 0 0 0 0 0 0 0
Nghost:    19330 ave 19330 max 19330 min
Histogram: 1 0 0 0 0 0 0 0 0 0
Neighs:    1.68813e+06 ave 1.68813e+06 max 1.68813e+06 min
Histogram: 1 0 0 0 0 0 0 0 0 0

Total # of neighbors = 1688128
Ave neighs/atom = 85.9011
Neighbor list builds = 30000
Dangerous builds not checked
Setting up Verlet run ...
  Unit style    : metal
  Current step  : 40000
  Time step     : 0.001
Per MPI rank memory allocation (min/avg/max) = 19.34 | 19.34 | 19.34 Mbytes
Step Temp Press TotEng PotEng Enthalpy 
   40000    2439.8467   -119.99857   -53020.342   -59217.775   -53042.198 
   40002    2439.4985   -134.56674   -53020.323   -59216.871   -53044.832 
   40495    2399.4633   -27.224668   -53204.031   -59298.887   -53208.978 
Loop time of 87.6825 on 1 procs for 495 steps with 19652 atoms

Performance: 0.488 ns/day, 49.205 hours/ns, 5.645 timesteps/s
99.1% CPU use with 1 MPI tasks x no OpenMP threads

MPI task timing breakdown:
Section |  min time  |  avg time  |  max time  |%varavg| %total
---------------------------------------------------------------
Pair    | 48.514     | 48.514     | 48.514     |   0.0 | 55.33
Neigh   | 37.3       | 37.3       | 37.3       |   0.0 | 42.54
Comm    | 0.65011    | 0.65011    | 0.65011    |   0.0 |  0.74
Output  | 0.2682     | 0.2682     | 0.2682     |   0.0 |  0.31
Modify  | 0.73534    | 0.73534    | 0.73534    |   0.0 |  0.84
Other   |            | 0.215      |            |       |  0.25

Nlocal:    19652 ave 19652 max 19652 min
Histogram: 1 0 0 0 0 0 0 0 0 0
Nghost:    19463 ave 19463 max 19463 min
Histogram: 1 0 0 0 0 0 0 0 0 0
Neighs:    1.69311e+06 ave 1.69311e+06 max 1.69311e+06 min
Histogram: 1 0 0 0 0 0 0 0 0 0

Total # of neighbors = 1693113
Ave neighs/atom = 86.1547
Neighbor list builds = 495
Dangerous builds not checked
Setting up Verlet run ...
  Unit style    : metal
  Current step  : 40495
  Time step     : 0.001
Per MPI rank memory allocation (min/avg/max) = 19.34 | 19.34 | 19.34 Mbytes
Step Temp Press TotEng PotEng Enthalpy 
   40495    2399.4633   -27.224668   -53204.031   -59298.887   -53208.978 
   46667    2402.9412    70.645893   -53207.254   -59310.944   -53194.419 
Loop time of 1367.35 on 1 procs for 6172 steps with 19652 atoms

Performance: 0.390 ns/day, 61.539 hours/ns, 4.514 timesteps/s
99.2% CPU use with 1 MPI tasks x no OpenMP threads

MPI task timing breakdown:
Section |  min time  |  avg time  |  max time  |%varavg| %total
---------------------------------------------------------------
Pair    | 776.62     | 776.62     | 776.62     |   0.0 | 56.80
Neigh   | 565.66     | 565.66     | 565.66     |   0.0 | 41.37
Comm    | 10.483     | 10.483     | 10.483     |   0.0 |  0.77
Output  | 0.00018692 | 0.00018692 | 0.00018692 |   0.0 |  0.00
Modify  | 11.382     | 11.382     | 11.382     |   0.0 |  0.83
Other   |            | 3.205      |            |       |  0.23

Nlocal:    19652 ave 19652 max 19652 min
Histogram: 1 0 0 0 0 0 0 0 0 0
Nghost:    19339 ave 19339 max 19339 min
Histogram: 1 0 0 0 0 0 0 0 0 0
Neighs:    1.69297e+06 ave 1.69297e+06 max 1.69297e+06 min
Histogram: 1 0 0 0 0 0 0 0 0 0

Total # of neighbors = 1692968
Ave neighs/atom = 86.1474
Neighbor list builds = 6172
Dangerous builds not checked
Setting up Verlet run ...
  Unit style    : metal
  Current step  : 46667
  Time step     : 0.001
Per MPI rank memory allocation (min/avg/max) = 19.34 | 19.34 | 19.34 Mbytes
Step Temp Press TotEng PotEng Enthalpy 
   46667    2402.9412    70.645893   -53207.254   -59310.944   -53194.419 
   46669    2404.2427    33.331351   -53207.258   -59314.253   -53201.202 
   47162    2363.7743     737.2728   -53464.299   -59468.501   -53331.031 
Loop time of 85.9725 on 1 procs for 495 steps with 19652 atoms

Performance: 0.497 ns/day, 48.245 hours/ns, 5.758 timesteps/s
99.3% CPU use with 1 MPI tasks x no OpenMP threads

MPI task timing breakdown:
Section |  min time  |  avg time  |  max time  |%varavg| %total
---------------------------------------------------------------
Pair    | 47.276     | 47.276     | 47.276     |   0.0 | 54.99
Neigh   | 37.007     | 37.007     | 37.007     |   0.0 | 43.04
Comm    | 0.6092     | 0.6092     | 0.6092     |   0.0 |  0.71
Output  | 0.17513    | 0.17513    | 0.17513    |   0.0 |  0.20
Modify  | 0.69826    | 0.69826    | 0.69826    |   0.0 |  0.81
Other   |            | 0.2073     |            |       |  0.24

Nlocal:    19652 ave 19652 max 19652 min
Histogram: 1 0 0 0 0 0 0 0 0 0
Nghost:    19322 ave 19322 max 19322 min
Histogram: 1 0 0 0 0 0 0 0 0 0
Neighs:    1.7017e+06 ave 1.7017e+06 max 1.7017e+06 min
Histogram: 1 0 0 0 0 0 0 0 0 0

Total # of neighbors = 1701697
Ave neighs/atom = 86.5915
Neighbor list builds = 495
Dangerous builds not checked
Setting up Verlet run ...
  Unit style    : metal
  Current step  : 47162
  Time step     : 0.001
Per MPI rank memory allocation (min/avg/max) = 19.34 | 19.34 | 19.34 Mbytes
Step Temp Press TotEng PotEng Enthalpy 
   47162    2363.7743     737.2728   -53464.299   -59468.501   -53331.031 
   53334    2370.3853    897.95458   -53502.744   -59523.738   -53340.657 
Loop time of 1228.15 on 1 procs for 6172 steps with 19652 atoms

Performance: 0.434 ns/day, 55.274 hours/ns, 5.025 timesteps/s
98.8% CPU use with 1 MPI tasks x no OpenMP threads

MPI task timing breakdown:
Section |  min time  |  avg time  |  max time  |%varavg| %total
---------------------------------------------------------------
Pair    | 688.69     | 688.69     | 688.69     |   0.0 | 56.07
Neigh   | 518.26     | 518.26     | 518.26     |   0.0 | 42.20
Comm    | 8.722      | 8.722      | 8.722      |   0.0 |  0.71
Output  | 0.00019288 | 0.00019288 | 0.00019288 |   0.0 |  0.00
Modify  | 9.6378     | 9.6378     | 9.6378     |   0.0 |  0.78
Other   |            | 2.845      |            |       |  0.23

Nlocal:    19652 ave 19652 max 19652 min
Histogram: 1 0 0 0 0 0 0 0 0 0
Nghost:    19382 ave 19382 max 19382 min
Histogram: 1 0 0 0 0 0 0 0 0 0
Neighs:    1.70447e+06 ave 1.70447e+06 max 1.70447e+06 min
Histogram: 1 0 0 0 0 0 0 0 0 0

Total # of neighbors = 1704473
Ave neighs/atom = 86.7328
Neighbor list builds = 6172
Dangerous builds not checked
Setting up Verlet run ...
  Unit style    : metal
  Current step  : 53334
  Time step     : 0.001
Per MPI rank memory allocation (min/avg/max) = 19.34 | 19.34 | 19.34 Mbytes
Step Temp Press TotEng PotEng Enthalpy 
   53334    2370.3853    897.95458   -53502.744   -59523.738   -53340.657 
   53336    2370.8996      874.723   -53502.766   -59525.067   -53344.872 
   53829    2309.0567    1315.6861   -53736.086   -59601.301   -53499.283 
Loop time of 83.795 on 1 procs for 495 steps with 19652 atoms

Performance: 0.510 ns/day, 47.023 hours/ns, 5.907 timesteps/s
99.4% CPU use with 1 MPI tasks x no OpenMP threads

MPI task timing breakdown:
Section |  min time  |  avg time  |  max time  |%varavg| %total
---------------------------------------------------------------
Pair    | 45.791     | 45.791     | 45.791     |   0.0 | 54.65
Neigh   | 36.238     | 36.238     | 36.238     |   0.0 | 43.25
Comm    | 0.57949    | 0.57949    | 0.57949    |   0.0 |  0.69
Output  | 0.30748    | 0.30748    | 0.30748    |   0.0 |  0.37
Modify  | 0.67957    | 0.67957    | 0.67957    |   0.0 |  0.81
Other   |            | 0.1997     |            |       |  0.24

Nlocal:    19652 ave 19652 max 19652 min
Histogram: 1 0 0 0 0 0 0 0 0 0
Nghost:    19452 ave 19452 max 19452 min
Histogram: 1 0 0 0 0 0 0 0 0 0
Neighs:    1.70893e+06 ave 1.70893e+06 max 1.70893e+06 min
Histogram: 1 0 0 0 0 0 0 0 0 0

Total # of neighbors = 1708929
Ave neighs/atom = 86.9595
Neighbor list builds = 495
Dangerous builds not checked
Setting up Verlet run ...
  Unit style    : metal
  Current step  : 53829
  Time step     : 0.001
Per MPI rank memory allocation (min/avg/max) = 19.34 | 19.34 | 19.34 Mbytes
Step Temp Press TotEng PotEng Enthalpy 
   53829    2309.0567    1315.6861   -53736.086   -59601.301   -53499.283 
   60001    2304.2623    1095.0374   -53815.787   -59668.823   -53618.949 
Loop time of 1144.35 on 1 procs for 6172 steps with 19652 atoms

Performance: 0.466 ns/day, 51.503 hours/ns, 5.393 timesteps/s
99.5% CPU use with 1 MPI tasks x no OpenMP threads

MPI task timing breakdown:
Section |  min time  |  avg time  |  max time  |%varavg| %total
---------------------------------------------------------------
Pair    | 638.73     | 638.73     | 638.73     |   0.0 | 55.82
Neigh   | 485.85     | 485.85     | 485.85     |   0.0 | 42.46
Comm    | 7.9505     | 7.9505     | 7.9505     |   0.0 |  0.69
Output  | 0.00014901 | 0.00014901 | 0.00014901 |   0.0 |  0.00
Modify  | 9.1736     | 9.1736     | 9.1736     |   0.0 |  0.80
Other   |            | 2.645      |            |       |  0.23

Nlocal:    19652 ave 19652 max 19652 min
Histogram: 1 0 0 0 0 0 0 0 0 0
Nghost:    19413 ave 19413 max 19413 min
Histogram: 1 0 0 0 0 0 0 0 0 0
Neighs:    1.71103e+06 ave 1.71103e+06 max 1.71103e+06 min
Histogram: 1 0 0 0 0 0 0 0 0 0

Total # of neighbors = 1711030
Ave neighs/atom = 87.0665
Neighbor list builds = 6172
Dangerous builds not checked
Setting up Verlet run ...
  Unit style    : metal
  Current step  : 60001
  Time step     : 0.001
Per MPI rank memory allocation (min/avg/max) = 19.34 | 19.34 | 19.34 Mbytes
Step Temp Press TotEng PotEng Enthalpy 
   60001    2304.2623    1095.0374   -53815.787   -59668.823   -53618.949 
   60003    2304.5802    1087.9536   -53815.793   -59669.636   -53620.228 
   60496     2253.638    1694.2844   -54044.081   -59768.527     -53740.9 
Loop time of 86.4671 on 1 procs for 495 steps with 19652 atoms

Performance: 0.495 ns/day, 48.523 hours/ns, 5.725 timesteps/s
99.6% CPU use with 1 MPI tasks x no OpenMP threads

MPI task timing breakdown:
Section |  min time  |  avg time  |  max time  |%varavg| %total
---------------------------------------------------------------
Pair    | 47.921     | 47.921     | 47.921     |   0.0 | 55.42
Neigh   | 36.921     | 36.921     | 36.921     |   0.0 | 42.70
Comm    | 0.61272    | 0.61272    | 0.61272    |   0.0 |  0.71
Output  | 0.080173   | 0.080173   | 0.080173   |   0.0 |  0.09
Modify  | 0.71538    | 0.71538    | 0.71538    |   0.0 |  0.83
Other   |            | 0.2164     |            |       |  0.25

Nlocal:    19652 ave 19652 max 19652 min
Histogram: 1 0 0 0 0 0 0 0 0 0
Nghost:    19523 ave 19523 max 19523 min
Histogram: 1 0 0 0 0 0 0 0 0 0
Neighs:    1.71886e+06 ave 1.71886e+06 max 1.71886e+06 min
Histogram: 1 0 0 0 0 0 0 0 0 0

Total # of neighbors = 1718864
Ave neighs/atom = 87.4651
Neighbor list builds = 495
Dangerous builds not checked
Setting up Verlet run ...
  Unit style    : metal
  Current step  : 60496
  Time step     : 0.001
Per MPI rank memory allocation (min/avg/max) = 19.34 | 19.34 | 19.34 Mbytes
Step Temp Press TotEng PotEng Enthalpy 
   60496     2253.638    1694.2844   -54044.081   -59768.527     -53740.9 
   66668    2249.2335   -751.96284   -54171.086   -59884.344   -54305.636 
Loop time of 1097.26 on 1 procs for 6172 steps with 19652 atoms

Performance: 0.486 ns/day, 49.383 hours/ns, 5.625 timesteps/s
99.5% CPU use with 1 MPI tasks x no OpenMP threads

MPI task timing breakdown:
Section |  min time  |  avg time  |  max time  |%varavg| %total
---------------------------------------------------------------
Pair    | 611.62     | 611.62     | 611.62     |   0.0 | 55.74
Neigh   | 466.73     | 466.73     | 466.73     |   0.0 | 42.54
Comm    | 7.5534     | 7.5534     | 7.5534     |   0.0 |  0.69
Output  | 0.00016999 | 0.00016999 | 0.00016999 |   0.0 |  0.00
Modify  | 8.7232     | 8.7232     | 8.7232     |   0.0 |  0.80
Other   |            | 2.632      |            |       |  0.24

Nlocal:    19652 ave 19652 max 19652 min
Histogram: 1 0 0 0 0 0 0 0 0 0
Nghost:    19445 ave 19445 max 19445 min
Histogram: 1 0 0 0 0 0 0 0 0 0
Neighs:    1.71869e+06 ave 1.71869e+06 max 1.71869e+06 min
Histogram: 1 0 0 0 0 0 0 0 0 0

Total # of neighbors = 1718694
Ave neighs/atom = 87.4564
Neighbor list builds = 6172
Dangerous builds not checked
Setting up Verlet run ...
  Unit style    : metal
  Current step  : 66668
  Time step     : 0.001
Per MPI rank memory allocation (min/avg/max) = 19.34 | 19.34 | 19.34 Mbytes
Step Temp Press TotEng PotEng Enthalpy 
   66668    2249.2335   -751.96284   -54171.086   -59884.344   -54305.636 
   66670     2249.012   -744.30642   -54171.086   -59883.782   -54304.266 
   67163     2198.543    697.61786   -54356.651    -59941.15   -54232.257 
Loop time of 80.686 on 1 procs for 495 steps with 19652 atoms

Performance: 0.530 ns/day, 45.278 hours/ns, 6.135 timesteps/s
99.3% CPU use with 1 MPI tasks x no OpenMP threads

MPI task timing breakdown:
Section |  min time  |  avg time  |  max time  |%varavg| %total
---------------------------------------------------------------
Pair    | 44.579     | 44.579     | 44.579     |   0.0 | 55.25
Neigh   | 34.614     | 34.614     | 34.614     |   0.0 | 42.90
Comm    | 0.5603     | 0.5603     | 0.5603     |   0.0 |  0.69
Output  | 0.069693   | 0.069693   | 0.069693   |   0.0 |  0.09
Modify  | 0.66702    | 0.66702    | 0.66702    |   0.0 |  0.83
Other   |            | 0.1959     |            |       |  0.24

Nlocal:    19652 ave 19652 max 19652 min
Histogram: 1 0 0 0 0 0 0 0 0 0
Nghost:    19445 ave 19445 max 19445 min
Histogram: 1 0 0 0 0 0 0 0 0 0
Neighs:    1.7242e+06 ave 1.7242e+06 max 1.7242e+06 min
Histogram: 1 0 0 0 0 0 0 0 0 0

Total # of neighbors = 1724201
Ave neighs/atom = 87.7367
Neighbor list builds = 495
Dangerous builds not checked
Setting up Verlet run ...
  Unit style    : metal
  Current step  : 67163
  Time step     : 0.001
Per MPI rank memory allocation (min/avg/max) = 19.34 | 19.34 | 19.34 Mbytes
Step Temp Press TotEng PotEng Enthalpy 
   67163     2198.543    697.61786   -54356.651    -59941.15   -54232.257 
   73335    2197.7008    348.66869   -54474.989   -60057.349   -54412.959 
Loop time of 1229.16 on 1 procs for 6172 steps with 19652 atoms

Performance: 0.434 ns/day, 55.320 hours/ns, 5.021 timesteps/s
97.2% CPU use with 1 MPI tasks x no OpenMP threads

MPI task timing breakdown:
Section |  min time  |  avg time  |  max time  |%varavg| %total
---------------------------------------------------------------
Pair    | 691.36     | 691.36     | 691.36     |   0.0 | 56.25
Neigh   | 516.44     | 516.44     | 516.44     |   0.0 | 42.02
Comm    | 8.6888     | 8.6888     | 8.6888     |   0.0 |  0.71
Output  | 0.00020003 | 0.00020003 | 0.00020003 |   0.0 |  0.00
Modify  | 9.7625     | 9.7625     | 9.7625     |   0.0 |  0.79
Other   |            | 2.915      |            |       |  0.24

Nlocal:    19652 ave 19652 max 19652 min
Histogram: 1 0 0 0 0 0 0 0 0 0
Nghost:    19549 ave 19549 max 19549 min
Histogram: 1 0 0 0 0 0 0 0 0 0
Neighs:    1.72823e+06 ave 1.72823e+06 max 1.72823e+06 min
Histogram: 1 0 0 0 0 0 0 0 0 0

Total # of neighbors = 1728230
Ave neighs/atom = 87.9417
Neighbor list builds = 6172
Dangerous builds not checked
Setting up Verlet run ...
  Unit style    : metal
  Current step  : 73335
  Time step     : 0.001
Per MPI rank memory allocation (min/avg/max) = 19.34 | 19.34 | 19.34 Mbytes
Step Temp Press TotEng PotEng Enthalpy 
   73335    2197.7008    348.66869   -54474.989   -60057.349   -54412.959 
   73337    2199.6858    275.40377    -54474.99   -60062.392   -54425.994 
   73830    2166.2774    1088.5844   -54659.929   -60162.471   -54466.878 
Loop time of 126.96 on 1 procs for 495 steps with 19652 atoms

Performance: 0.337 ns/day, 71.246 hours/ns, 3.899 timesteps/s
90.6% CPU use with 1 MPI tasks x no OpenMP threads

MPI task timing breakdown:
Section |  min time  |  avg time  |  max time  |%varavg| %total
---------------------------------------------------------------
Pair    | 72.415     | 72.415     | 72.415     |   0.0 | 57.04
Neigh   | 51.787     | 51.787     | 51.787     |   0.0 | 40.79
Comm    | 1.1009     | 1.1009     | 1.1009     |   0.0 |  0.87
Output  | 0.12586    | 0.12586    | 0.12586    |   0.0 |  0.10
Modify  | 1.2044     | 1.2044     | 1.2044     |   0.0 |  0.95
Other   |            | 0.3263     |            |       |  0.26

Nlocal:    19652 ave 19652 max 19652 min
Histogram: 1 0 0 0 0 0 0 0 0 0
Nghost:    19590 ave 19590 max 19590 min
Histogram: 1 0 0 0 0 0 0 0 0 0
Neighs:    1.73357e+06 ave 1.73357e+06 max 1.73357e+06 min
Histogram: 1 0 0 0 0 0 0 0 0 0

Total # of neighbors = 1733574
Ave neighs/atom = 88.2136
Neighbor list builds = 495
Dangerous builds not checked
Setting up Verlet run ...
  Unit style    : metal
  Current step  : 73830
  Time step     : 0.001
Per MPI rank memory allocation (min/avg/max) = 19.34 | 19.34 | 19.34 Mbytes
Step Temp Press TotEng PotEng Enthalpy 
   73830    2166.2774    1088.5844   -54659.929   -60162.471   -54466.878 
   80002    2145.6258   -850.99998   -54653.173   -60103.258    -54804.52 
Loop time of 1369.68 on 1 procs for 6172 steps with 19652 atoms

Performance: 0.389 ns/day, 61.644 hours/ns, 4.506 timesteps/s
98.5% CPU use with 1 MPI tasks x no OpenMP threads

MPI task timing breakdown:
Section |  min time  |  avg time  |  max time  |%varavg| %total
---------------------------------------------------------------
Pair    | 780.58     | 780.58     | 780.58     |   0.0 | 56.99
Neigh   | 564.66     | 564.66     | 564.66     |   0.0 | 41.23
Comm    | 10.176     | 10.176     | 10.176     |   0.0 |  0.74
Output  | 0.00020599 | 0.00020599 | 0.00020599 |   0.0 |  0.00
Modify  | 11.167     | 11.167     | 11.167     |   0.0 |  0.82
Other   |            | 3.088      |            |       |  0.23

Nlocal:    19652 ave 19652 max 19652 min
Histogram: 1 0 0 0 0 0 0 0 0 0
Nghost:    19559 ave 19559 max 19559 min
Histogram: 1 0 0 0 0 0 0 0 0 0
Neighs:    1.72909e+06 ave 1.72909e+06 max 1.72909e+06 min
Histogram: 1 0 0 0 0 0 0 0 0 0

Total # of neighbors = 1729091
Ave neighs/atom = 87.9855
Neighbor list builds = 6172
Dangerous builds not checked
Setting up Verlet run ...
  Unit style    : metal
  Current step  : 80002
  Time step     : 0.001
Per MPI rank memory allocation (min/avg/max) = 19.34 | 19.34 | 19.34 Mbytes
Step Temp Press TotEng PotEng Enthalpy 
   80002    2145.6258   -850.99998   -54653.173   -60103.258    -54804.52 
   80004    2144.2317   -797.83716   -54653.169   -60099.713   -54795.061 
   80497    2108.7845   -227.69721   -54946.785    -60303.29   -54987.037 
Loop time of 94.8171 on 1 procs for 495 steps with 19652 atoms

Performance: 0.451 ns/day, 53.208 hours/ns, 5.221 timesteps/s
99.4% CPU use with 1 MPI tasks x no OpenMP threads

MPI task timing breakdown:
Section |  min time  |  avg time  |  max time  |%varavg| %total
---------------------------------------------------------------
Pair    | 52.729     | 52.729     | 52.729     |   0.0 | 55.61
Neigh   | 40.244     | 40.244     | 40.244     |   0.0 | 42.44
Comm    | 0.66568    | 0.66568    | 0.66568    |   0.0 |  0.70
Output  | 0.18417    | 0.18417    | 0.18417    |   0.0 |  0.19
Modify  | 0.77074    | 0.77074    | 0.77074    |   0.0 |  0.81
Other   |            | 0.2229     |            |       |  0.24

Nlocal:    19652 ave 19652 max 19652 min
Histogram: 1 0 0 0 0 0 0 0 0 0
Nghost:    19625 ave 19625 max 19625 min
Histogram: 1 0 0 0 0 0 0 0 0 0
Neighs:    1.73892e+06 ave 1.73892e+06 max 1.73892e+06 min
Histogram: 1 0 0 0 0 0 0 0 0 0

Total # of neighbors = 1738918
Ave neighs/atom = 88.4855
Neighbor list builds = 495
Dangerous builds not checked
Setting up Verlet run ...
  Unit style    : metal
  Current step  : 80497
  Time step     : 0.001
Per MPI rank memory allocation (min/avg/max) = 19.34 | 19.34 | 19.34 Mbytes
Step Temp Press TotEng PotEng Enthalpy 
   80497    2108.7845   -227.69721   -54946.785    -60303.29   -54987.037 
   86669    2098.1426   -502.25864   -54993.422   -60322.895   -55082.194 
Loop time of 1253.89 on 1 procs for 6172 steps with 19652 atoms

Performance: 0.425 ns/day, 56.433 hours/ns, 4.922 timesteps/s
99.0% CPU use with 1 MPI tasks x no OpenMP threads

MPI task timing breakdown:
Section |  min time  |  avg time  |  max time  |%varavg| %total
---------------------------------------------------------------
Pair    | 708.68     | 708.68     | 708.68     |   0.0 | 56.52
Neigh   | 522.85     | 522.85     | 522.85     |   0.0 | 41.70
Comm    | 9.1796     | 9.1796     | 9.1796     |   0.0 |  0.73
Output  | 0.00012589 | 0.00012589 | 0.00012589 |   0.0 |  0.00
Modify  | 10.259     | 10.259     | 10.259     |   0.0 |  0.82
Other   |            | 2.927      |            |       |  0.23

Nlocal:    19652 ave 19652 max 19652 min
Histogram: 1 0 0 0 0 0 0 0 0 0
Nghost:    19582 ave 19582 max 19582 min
Histogram: 1 0 0 0 0 0 0 0 0 0
Neighs:    1.73964e+06 ave 1.73964e+06 max 1.73964e+06 min
Histogram: 1 0 0 0 0 0 0 0 0 0

Total # of neighbors = 1739644
Ave neighs/atom = 88.5225
Neighbor list builds = 6172
Dangerous builds not checked
Setting up Verlet run ...
  Unit style    : metal
  Current step  : 86669
  Time step     : 0.001
Per MPI rank memory allocation (min/avg/max) = 19.34 | 19.34 | 19.34 Mbytes
Step Temp Press TotEng PotEng Enthalpy 
   86669    2098.1426   -502.25864   -54993.422   -60322.895   -55082.194 
   86671    2100.4149    -575.8836   -54993.429   -60328.674   -55095.213 
   87164    2051.6588    150.48965   -55239.449    -60450.85   -55212.964 
Loop time of 91.8684 on 1 procs for 495 steps with 19652 atoms

Performance: 0.466 ns/day, 51.554 hours/ns, 5.388 timesteps/s
99.6% CPU use with 1 MPI tasks x no OpenMP threads

MPI task timing breakdown:
Section |  min time  |  avg time  |  max time  |%varavg| %total
---------------------------------------------------------------
Pair    | 51.313     | 51.313     | 51.313     |   0.0 | 55.86
Neigh   | 38.758     | 38.758     | 38.758     |   0.0 | 42.19
Comm    | 0.67561    | 0.67561    | 0.67561    |   0.0 |  0.74
Output  | 0.10146    | 0.10146    | 0.10146    |   0.0 |  0.11
Modify  | 0.78777    | 0.78777    | 0.78777    |   0.0 |  0.86
Other   |            | 0.2322     |            |       |  0.25

Nlocal:    19652 ave 19652 max 19652 min
Histogram: 1 0 0 0 0 0 0 0 0 0
Nghost:    19597 ave 19597 max 19597 min
Histogram: 1 0 0 0 0 0 0 0 0 0
Neighs:    1.74633e+06 ave 1.74633e+06 max 1.74633e+06 min
Histogram: 1 0 0 0 0 0 0 0 0 0

Total # of neighbors = 1746331
Ave neighs/atom = 88.8628
Neighbor list builds = 495
Dangerous builds not checked
Setting up Verlet run ...
  Unit style    : metal
  Current step  : 87164
  Time step     : 0.001
Per MPI rank memory allocation (min/avg/max) = 19.34 | 19.34 | 19.34 Mbytes
Step Temp Press TotEng PotEng Enthalpy 
   87164    2051.6588    150.48965   -55239.449    -60450.85   -55212.964 
   93336    2051.4236    84.739321   -55323.223   -60534.026   -55308.338 
Loop time of 1244.06 on 1 procs for 6172 steps with 19652 atoms

Performance: 0.429 ns/day, 55.990 hours/ns, 4.961 timesteps/s
99.0% CPU use with 1 MPI tasks x no OpenMP threads

MPI task timing breakdown:
Section |  min time  |  avg time  |  max time  |%varavg| %total
---------------------------------------------------------------
Pair    | 701.19     | 701.19     | 701.19     |   0.0 | 56.36
Neigh   | 521.73     | 521.73     | 521.73     |   0.0 | 41.94
Comm    | 8.4949     | 8.4949     | 8.4949     |   0.0 |  0.68
Output  | 0.00019288 | 0.00019288 | 0.00019288 |   0.0 |  0.00
Modify  | 9.8342     | 9.8342     | 9.8342     |   0.0 |  0.79
Other   |            | 2.808      |            |       |  0.23

Nlocal:    19652 ave 19652 max 19652 min
Histogram: 1 0 0 0 0 0 0 0 0 0
Nghost:    19642 ave 19642 max 19642 min
Histogram: 1 0 0 0 0 0 0 0 0 0
Neighs:    1.74992e+06 ave 1.74992e+06 max 1.74992e+06 min
Histogram: 1 0 0 0 0 0 0 0 0 0

Total # of neighbors = 1749918
Ave neighs/atom = 89.0453
Neighbor list builds = 6172
Dangerous builds not checked
Setting up Verlet run ...
  Unit style    : metal
  Current step  : 93336
  Time step     : 0.001
Per MPI rank memory allocation (min/avg/max) = 19.34 | 19.34 | 19.34 Mbytes
Step Temp Press TotEng PotEng Enthalpy 
   93336    2051.4236    84.739321   -55323.223   -60534.026   -55308.338 
   93338    2051.7743     87.00703   -55323.223   -60534.917   -55307.939 
   93831    2004.6245    1163.0172   -55553.902    -60645.83   -55350.523 
Loop time of 101.426 on 1 procs for 495 steps with 19652 atoms

Performance: 0.422 ns/day, 56.917 hours/ns, 4.880 timesteps/s
98.7% CPU use with 1 MPI tasks x no OpenMP threads

MPI task timing breakdown:
Section |  min time  |  avg time  |  max time  |%varavg| %total
---------------------------------------------------------------
Pair    | 56.584     | 56.584     | 56.584     |   0.0 | 55.79
Neigh   | 43.007     | 43.007     | 43.007     |   0.0 | 42.40
Comm    | 0.68611    | 0.68611    | 0.68611    |   0.0 |  0.68
Output  | 0.091491   | 0.091491   | 0.091491   |   0.0 |  0.09
Modify  | 0.82833    | 0.82833    | 0.82833    |   0.0 |  0.82
Other   |            | 0.2293     |            |       |  0.23

Nlocal:    19652 ave 19652 max 19652 min
Histogram: 1 0 0 0 0 0 0 0 0 0
Nghost:    19605 ave 19605 max 19605 min
Histogram: 1 0 0 0 0 0 0 0 0 0
Neighs:    1.75792e+06 ave 1.75792e+06 max 1.75792e+06 min
Histogram: 1 0 0 0 0 0 0 0 0 0

Total # of neighbors = 1757922
Ave neighs/atom = 89.4526
Neighbor list builds = 495
Dangerous builds not checked
Setting up Verlet run ...
  Unit style    : metal
  Current step  : 93831
  Time step     : 0.001
Per MPI rank memory allocation (min/avg/max) = 19.34 | 19.34 | 19.34 Mbytes
Step Temp Press TotEng PotEng Enthalpy 
   93831    2004.6245    1163.0172   -55553.902    -60645.83   -55350.523 
  100003    1991.9331   -2358.0547   -55648.315   -60708.006   -56061.515 
Loop time of 1330.45 on 1 procs for 6172 steps with 19652 atoms

Performance: 0.401 ns/day, 59.878 hours/ns, 4.639 timesteps/s
99.0% CPU use with 1 MPI tasks x no OpenMP threads

MPI task timing breakdown:
Section |  min time  |  avg time  |  max time  |%varavg| %total
---------------------------------------------------------------
Pair    | 749.79     | 749.79     | 749.79     |   0.0 | 56.36
Neigh   | 558.71     | 558.71     | 558.71     |   0.0 | 41.99
Comm    | 8.8263     | 8.8263     | 8.8263     |   0.0 |  0.66
Output  | 0.00021601 | 0.00021601 | 0.00021601 |   0.0 |  0.00
Modify  | 10.219     | 10.219     | 10.219     |   0.0 |  0.77
Other   |            | 2.905      |            |       |  0.22

Nlocal:    19652 ave 19652 max 19652 min
Histogram: 1 0 0 0 0 0 0 0 0 0
Nghost:    19585 ave 19585 max 19585 min
Histogram: 1 0 0 0 0 0 0 0 0 0
Neighs:    1.75337e+06 ave 1.75337e+06 max 1.75337e+06 min
Histogram: 1 0 0 0 0 0 0 0 0 0

Total # of neighbors = 1753366
Ave neighs/atom = 89.2207
Neighbor list builds = 6172
Dangerous builds not checked
Setting up Verlet run ...
  Unit style    : metal
  Current step  : 100003
  Time step     : 0.001
Per MPI rank memory allocation (min/avg/max) = 19.34 | 19.34 | 19.34 Mbytes
Step Temp Press TotEng PotEng Enthalpy 
  100003    1991.9331   -2358.0547   -55648.315   -60708.006   -56061.515 
  100005    1992.3105   -2370.3208   -55648.307   -60708.958   -56063.657 
  100498    1950.3271   -1197.0064    -55866.62   -60820.629   -56075.462 
Loop time of 102.382 on 1 procs for 495 steps with 19652 atoms

Performance: 0.418 ns/day, 57.453 hours/ns, 4.835 timesteps/s
99.9% CPU use with 1 MPI tasks x no OpenMP threads

MPI task timing breakdown:
Section |  min time  |  avg time  |  max time  |%varavg| %total
---------------------------------------------------------------
Pair    | 56.486     | 56.486     | 56.486     |   0.0 | 55.17
Neigh   | 44.003     | 44.003     | 44.003     |   0.0 | 42.98
Comm    | 0.69417    | 0.69417    | 0.69417    |   0.0 |  0.68
Output  | 0.10633    | 0.10633    | 0.10633    |   0.0 |  0.10
Modify  | 0.84744    | 0.84744    | 0.84744    |   0.0 |  0.83
Other   |            | 0.245      |            |       |  0.24

Nlocal:    19652 ave 19652 max 19652 min
Histogram: 1 0 0 0 0 0 0 0 0 0
Nghost:    19658 ave 19658 max 19658 min
Histogram: 1 0 0 0 0 0 0 0 0 0
Neighs:    1.76078e+06 ave 1.76078e+06 max 1.76078e+06 min
Histogram: 1 0 0 0 0 0 0 0 0 0

Total # of neighbors = 1760778
Ave neighs/atom = 89.5979
Neighbor list builds = 495
Dangerous builds not checked
Setting up Verlet run ...
  Unit style    : metal
  Current step  : 100498
  Time step     : 0.001
Per MPI rank memory allocation (min/avg/max) = 19.34 | 19.34 | 19.34 Mbytes
Step Temp Press TotEng PotEng Enthalpy 
  100498    1950.3271   -1197.0064    -55866.62   -60820.629   -56075.462 
  106670    1954.7848    647.78446   -55953.865   -60919.196   -55841.338 
Loop time of 1278.3 on 1 procs for 6172 steps with 19652 atoms

Performance: 0.417 ns/day, 57.531 hours/ns, 4.828 timesteps/s
95.3% CPU use with 1 MPI tasks x no OpenMP threads

MPI task timing breakdown:
Section |  min time  |  avg time  |  max time  |%varavg| %total
---------------------------------------------------------------
Pair    | 714.47     | 714.47     | 714.47     |   0.0 | 55.89
Neigh   | 542.54     | 542.54     | 542.54     |   0.0 | 42.44
Comm    | 8.4706     | 8.4706     | 8.4706     |   0.0 |  0.66
Output  | 0.00017715 | 0.00017715 | 0.00017715 |   0.0 |  0.00
Modify  | 9.9936     | 9.9936     | 9.9936     |   0.0 |  0.78
Other   |            | 2.821      |            |       |  0.22

Nlocal:    19652 ave 19652 max 19652 min
Histogram: 1 0 0 0 0 0 0 0 0 0
Nghost:    19679 ave 19679 max 19679 min
Histogram: 1 0 0 0 0 0 0 0 0 0
Neighs:    1.76852e+06 ave 1.76852e+06 max 1.76852e+06 min
Histogram: 1 0 0 0 0 0 0 0 0 0

Total # of neighbors = 1768522
Ave neighs/atom = 89.992
Neighbor list builds = 6172
Dangerous builds not checked
Setting up Verlet run ...
  Unit style    : metal
  Current step  : 106670
  Time step     : 0.001
Per MPI rank memory allocation (min/avg/max) = 19.34 | 19.34 | 19.34 Mbytes
Step Temp Press TotEng PotEng Enthalpy 
  106670    1954.7848    647.78446   -55953.865   -60919.196   -55841.338 
  106672    1954.4684    641.51229   -55953.869   -60918.397   -55842.432 
  107165    1918.9885    470.33004    -56153.24   -61027.646    -56071.77 
Loop time of 83.4385 on 1 procs for 495 steps with 19652 atoms

Performance: 0.513 ns/day, 46.823 hours/ns, 5.933 timesteps/s
98.2% CPU use with 1 MPI tasks x no OpenMP threads

MPI task timing breakdown:
Section |  min time  |  avg time  |  max time  |%varavg| %total
---------------------------------------------------------------
Pair    | 45.99      | 45.99      | 45.99      |   0.0 | 55.12
Neigh   | 35.906     | 35.906     | 35.906     |   0.0 | 43.03
Comm    | 0.52396    | 0.52396    | 0.52396    |   0.0 |  0.63
Output  | 0.17814    | 0.17814    | 0.17814    |   0.0 |  0.21
Modify  | 0.662      | 0.662      | 0.662      |   0.0 |  0.79
Other   |            | 0.1791     |            |       |  0.21

Nlocal:    19652 ave 19652 max 19652 min
Histogram: 1 0 0 0 0 0 0 0 0 0
Nghost:    19682 ave 19682 max 19682 min
Histogram: 1 0 0 0 0 0 0 0 0 0
Neighs:    1.77419e+06 ave 1.77419e+06 max 1.77419e+06 min
Histogram: 1 0 0 0 0 0 0 0 0 0

Total # of neighbors = 1774189
Ave neighs/atom = 90.2803
Neighbor list builds = 495
Dangerous builds not checked
Setting up Verlet run ...
  Unit style    : metal
  Current step  : 107165
  Time step     : 0.001
Per MPI rank memory allocation (min/avg/max) = 19.34 | 19.34 | 19.34 Mbytes
Step Temp Press TotEng PotEng Enthalpy 
  107165    1918.9885    470.33004    -56153.24   -61027.646    -56071.77 
  113337    1895.0986    -1277.114    -56283.03   -61096.753   -56504.162 
Loop time of 1229.03 on 1 procs for 6172 steps with 19652 atoms

Performance: 0.434 ns/day, 55.314 hours/ns, 5.022 timesteps/s
98.0% CPU use with 1 MPI tasks x no OpenMP threads

MPI task timing breakdown:
Section |  min time  |  avg time  |  max time  |%varavg| %total
---------------------------------------------------------------
Pair    | 684.17     | 684.17     | 684.17     |   0.0 | 55.67
Neigh   | 523.79     | 523.79     | 523.79     |   0.0 | 42.62
Comm    | 7.9778     | 7.9778     | 7.9778     |   0.0 |  0.65
Output  | 0.72962    | 0.72962    | 0.72962    |   0.0 |  0.06
Modify  | 9.6396     | 9.6396     | 9.6396     |   0.0 |  0.78
Other   |            | 2.722      |            |       |  0.22

Nlocal:    19652 ave 19652 max 19652 min
Histogram: 1 0 0 0 0 0 0 0 0 0
Nghost:    19677 ave 19677 max 19677 min
Histogram: 1 0 0 0 0 0 0 0 0 0
Neighs:    1.77386e+06 ave 1.77386e+06 max 1.77386e+06 min
Histogram: 1 0 0 0 0 0 0 0 0 0

Total # of neighbors = 1773863
Ave neighs/atom = 90.2637
Neighbor list builds = 6172
Dangerous builds not checked
Setting up Verlet run ...
  Unit style    : metal
  Current step  : 113337
  Time step     : 0.001
Per MPI rank memory allocation (min/avg/max) = 19.34 | 19.34 | 19.34 Mbytes
Step Temp Press TotEng PotEng Enthalpy 
  113337    1895.0986    -1277.114    -56283.03   -61096.753   -56504.162 
  113339    1894.9893   -1274.6846   -56283.027   -61096.472   -56503.738 
  113832    1854.4025   -215.38932   -56430.013   -61140.364   -56467.229 
Loop time of 97.4508 on 1 procs for 495 steps with 19652 atoms

Performance: 0.439 ns/day, 54.686 hours/ns, 5.079 timesteps/s
98.4% CPU use with 1 MPI tasks x no OpenMP threads

MPI task timing breakdown:
Section |  min time  |  avg time  |  max time  |%varavg| %total
---------------------------------------------------------------
Pair    | 53.967     | 53.967     | 53.967     |   0.0 | 55.38
Neigh   | 41.467     | 41.467     | 41.467     |   0.0 | 42.55
Comm    | 0.61811    | 0.61811    | 0.61811    |   0.0 |  0.63
Output  | 0.42575    | 0.42575    | 0.42575    |   0.0 |  0.44
Modify  | 0.75351    | 0.75351    | 0.75351    |   0.0 |  0.77
Other   |            | 0.22       |            |       |  0.23

Nlocal:    19652 ave 19652 max 19652 min
Histogram: 1 0 0 0 0 0 0 0 0 0
Nghost:    19701 ave 19701 max 19701 min
Histogram: 1 0 0 0 0 0 0 0 0 0
Neighs:    1.7783e+06 ave 1.7783e+06 max 1.7783e+06 min
Histogram: 1 0 0 0 0 0 0 0 0 0

Total # of neighbors = 1778303
Ave neighs/atom = 90.4897
Neighbor list builds = 495
Dangerous builds not checked
Setting up Verlet run ...
  Unit style    : metal
  Current step  : 113832
  Time step     : 0.001
Per MPI rank memory allocation (min/avg/max) = 19.34 | 19.34 | 19.34 Mbytes
Step Temp Press TotEng PotEng Enthalpy 
  113832    1854.4025   -215.38932   -56430.013   -61140.364   -56467.229 
  120004    1861.2535   -927.10707   -56492.415   -61220.169   -56652.424 
Loop time of 1227.44 on 1 procs for 6172 steps with 19652 atoms

Performance: 0.434 ns/day, 55.242 hours/ns, 5.028 timesteps/s
98.5% CPU use with 1 MPI tasks x no OpenMP threads

MPI task timing breakdown:
Section |  min time  |  avg time  |  max time  |%varavg| %total
---------------------------------------------------------------
Pair    | 686.43     | 686.43     | 686.43     |   0.0 | 55.92
Neigh   | 520.67     | 520.67     | 520.67     |   0.0 | 42.42
Comm    | 8.0475     | 8.0475     | 8.0475     |   0.0 |  0.66
Output  | 0.00020099 | 0.00020099 | 0.00020099 |   0.0 |  0.00
Modify  | 9.561      | 9.561      | 9.561      |   0.0 |  0.78
Other   |            | 2.727      |            |       |  0.22

Nlocal:    19652 ave 19652 max 19652 min
Histogram: 1 0 0 0 0 0 0 0 0 0
Nghost:    19717 ave 19717 max 19717 min
Histogram: 1 0 0 0 0 0 0 0 0 0
Neighs:    1.77913e+06 ave 1.77913e+06 max 1.77913e+06 min
Histogram: 1 0 0 0 0 0 0 0 0 0

Total # of neighbors = 1779132
Ave neighs/atom = 90.5319
Neighbor list builds = 6172
Dangerous builds not checked
Setting up Verlet run ...
  Unit style    : metal
  Current step  : 120004
  Time step     : 0.001
Per MPI rank memory allocation (min/avg/max) = 19.34 | 19.34 | 19.34 Mbytes
Step Temp Press TotEng PotEng Enthalpy 
  120004    1861.2535   -927.10707   -56492.415   -61220.169   -56652.424 
  120006     1859.759   -870.72792   -56492.423    -61216.38   -56642.701 
  120499    1820.4339   -783.73672    -56736.88   -61360.948   -56871.677 
Loop time of 96.4624 on 1 procs for 495 steps with 19652 atoms

Performance: 0.443 ns/day, 54.132 hours/ns, 5.132 timesteps/s
99.9% CPU use with 1 MPI tasks x no OpenMP threads

MPI task timing breakdown:
Section |  min time  |  avg time  |  max time  |%varavg| %total
---------------------------------------------------------------
Pair    | 53.77      | 53.77      | 53.77      |   0.0 | 55.74
Neigh   | 40.957     | 40.957     | 40.957     |   0.0 | 42.46
Comm    | 0.62956    | 0.62956    | 0.62956    |   0.0 |  0.65
Output  | 0.12541    | 0.12541    | 0.12541    |   0.0 |  0.13
Modify  | 0.7575     | 0.7575     | 0.7575     |   0.0 |  0.79
Other   |            | 0.2223     |            |       |  0.23

Nlocal:    19652 ave 19652 max 19652 min
Histogram: 1 0 0 0 0 0 0 0 0 0
Nghost:    19867 ave 19867 max 19867 min
Histogram: 1 0 0 0 0 0 0 0 0 0
Neighs:    1.78599e+06 ave 1.78599e+06 max 1.78599e+06 min
Histogram: 1 0 0 0 0 0 0 0 0 0

Total # of neighbors = 1785988
Ave neighs/atom = 90.8807
Neighbor list builds = 495
Dangerous builds not checked
Setting up Verlet run ...
  Unit style    : metal
  Current step  : 120499
  Time step     : 0.001
Per MPI rank memory allocation (min/avg/max) = 19.34 | 19.34 | 19.34 Mbytes
Step Temp Press TotEng PotEng Enthalpy 
  120499    1820.4339   -783.73672    -56736.88   -61360.948   -56871.677 
  126671    1820.3226    1793.1882    -56920.15   -61543.935   -56613.989 
Loop time of 1343.18 on 1 procs for 6172 steps with 19652 atoms

Performance: 0.397 ns/day, 60.451 hours/ns, 4.595 timesteps/s
95.6% CPU use with 1 MPI tasks x no OpenMP threads

MPI task timing breakdown:
Section |  min time  |  avg time  |  max time  |%varavg| %total
---------------------------------------------------------------
Pair    | 754.84     | 754.84     | 754.84     |   0.0 | 56.20
Neigh   | 565.88     | 565.88     | 565.88     |   0.0 | 42.13
Comm    | 8.9441     | 8.9441     | 8.9441     |   0.0 |  0.67
Output  | 0.00018787 | 0.00018787 | 0.00018787 |   0.0 |  0.00
Modify  | 10.514     | 10.514     | 10.514     |   0.0 |  0.78
Other   |            | 3.006      |            |       |  0.22

Nlocal:    19652 ave 19652 max 19652 min
Histogram: 1 0 0 0 0 0 0 0 0 0
Nghost:    19776 ave 19776 max 19776 min
Histogram: 1 0 0 0 0 0 0 0 0 0
Neighs:    1.79878e+06 ave 1.79878e+06 max 1.79878e+06 min
Histogram: 1 0 0 0 0 0 0 0 0 0

Total # of neighbors = 1798781
Ave neighs/atom = 91.5317
Neighbor list builds = 6172
Dangerous builds not checked
Setting up Verlet run ...
  Unit style    : metal
  Current step  : 126671
  Time step     : 0.001
Per MPI rank memory allocation (min/avg/max) = 19.34 | 19.34 | 19.34 Mbytes
Step Temp Press TotEng PotEng Enthalpy 
  126671    1820.3226    1793.1882    -56920.15   -61543.935   -56613.989 
  126673    1819.9386    1780.1624    -56920.17    -61542.98   -56616.233 
  127166    1793.2686    141.63001   -56966.448   -61521.514   -56942.212 
Loop time of 95.5895 on 1 procs for 495 steps with 19652 atoms

Performance: 0.447 ns/day, 53.642 hours/ns, 5.178 timesteps/s
99.8% CPU use with 1 MPI tasks x no OpenMP threads

MPI task timing breakdown:
Section |  min time  |  avg time  |  max time  |%varavg| %total
---------------------------------------------------------------
Pair    | 53.12      | 53.12      | 53.12      |   0.0 | 55.57
Neigh   | 40.801     | 40.801     | 40.801     |   0.0 | 42.68
Comm    | 0.58588    | 0.58588    | 0.58588    |   0.0 |  0.61
Output  | 0.13444    | 0.13444    | 0.13444    |   0.0 |  0.14
Modify  | 0.74199    | 0.74199    | 0.74199    |   0.0 |  0.78
Other   |            | 0.2062     |            |       |  0.22

Nlocal:    19652 ave 19652 max 19652 min
Histogram: 1 0 0 0 0 0 0 0 0 0
Nghost:    19779 ave 19779 max 19779 min
Histogram: 1 0 0 0 0 0 0 0 0 0
Neighs:    1.79473e+06 ave 1.79473e+06 max 1.79473e+06 min
Histogram: 1 0 0 0 0 0 0 0 0 0

Total # of neighbors = 1794733
Ave neighs/atom = 91.3257
Neighbor list builds = 495
Dangerous builds not checked
Setting up Verlet run ...
  Unit style    : metal
  Current step  : 127166
  Time step     : 0.001
Per MPI rank memory allocation (min/avg/max) = 19.34 | 19.34 | 19.34 Mbytes
Step Temp Press TotEng PotEng Enthalpy 
  127166    1793.2686    141.63001   -56966.448   -61521.514   -56942.212 
  133338    1753.3347   -400.42591   -57122.374   -61576.004   -57190.797 
Loop time of 1376.33 on 1 procs for 6172 steps with 19652 atoms

Performance: 0.387 ns/day, 61.943 hours/ns, 4.484 timesteps/s
99.1% CPU use with 1 MPI tasks x no OpenMP threads

MPI task timing breakdown:
Section |  min time  |  avg time  |  max time  |%varavg| %total
---------------------------------------------------------------
Pair    | 790.11     | 790.11     | 790.11     |   0.0 | 57.41
Neigh   | 562.41     | 562.41     | 562.41     |   0.0 | 40.86
Comm    | 9.622      | 9.622      | 9.622      |   0.0 |  0.70
Output  | 0.00022101 | 0.00022101 | 0.00022101 |   0.0 |  0.00
Modify  | 11.209     | 11.209     | 11.209     |   0.0 |  0.81
Other   |            | 2.976      |            |       |  0.22

Nlocal:    19652 ave 19652 max 19652 min
Histogram: 1 0 0 0 0 0 0 0 0 0
Nghost:    19777 ave 19777 max 19777 min
Histogram: 1 0 0 0 0 0 0 0 0 0
Neighs:    1.79689e+06 ave 1.79689e+06 max 1.79689e+06 min
Histogram: 1 0 0 0 0 0 0 0 0 0

Total # of neighbors = 1796893
Ave neighs/atom = 91.4356
Neighbor list builds = 6172
Dangerous builds not checked
Setting up Verlet run ...
  Unit style    : metal
  Current step  : 133338
  Time step     : 0.001
Per MPI rank memory allocation (min/avg/max) = 19.34 | 19.34 | 19.34 Mbytes
Step Temp Press TotEng PotEng Enthalpy 
  133338    1753.3347   -400.42591   -57122.374   -61576.004   -57190.797 
  133340    1754.1232    -452.4598   -57122.379   -61578.012   -57199.694 
  133833    1718.5208   -1061.2294   -57358.743   -61723.942   -57539.518 
Loop time of 105.264 on 1 procs for 495 steps with 19652 atoms

Performance: 0.406 ns/day, 59.071 hours/ns, 4.702 timesteps/s
99.6% CPU use with 1 MPI tasks x no OpenMP threads

MPI task timing breakdown:
Section |  min time  |  avg time  |  max time  |%varavg| %total
---------------------------------------------------------------
Pair    | 59.393     | 59.393     | 59.393     |   0.0 | 56.42
Neigh   | 43.967     | 43.967     | 43.967     |   0.0 | 41.77
Comm    | 0.74063    | 0.74063    | 0.74063    |   0.0 |  0.70
Output  | 0.086336   | 0.086336   | 0.086336   |   0.0 |  0.08
Modify  | 0.84306    | 0.84306    | 0.84306    |   0.0 |  0.80
Other   |            | 0.2342     |            |       |  0.22

Nlocal:    19652 ave 19652 max 19652 min
Histogram: 1 0 0 0 0 0 0 0 0 0
Nghost:    19783 ave 19783 max 19783 min
Histogram: 1 0 0 0 0 0 0 0 0 0
Neighs:    1.80233e+06 ave 1.80233e+06 max 1.80233e+06 min
Histogram: 1 0 0 0 0 0 0 0 0 0

Total # of neighbors = 1802334
Ave neighs/atom = 91.7125
Neighbor list builds = 495
Dangerous builds not checked
Setting up Verlet run ...
  Unit style    : metal
  Current step  : 133833
  Time step     : 0.001
Per MPI rank memory allocation (min/avg/max) = 19.34 | 19.34 | 19.34 Mbytes
Step Temp Press TotEng PotEng Enthalpy 
  133833    1718.5208   -1061.2294   -57358.743   -61723.942   -57539.518 
  140005    1714.8898    2581.6738   -57402.772   -61758.748   -56965.025 
Loop time of 1343.75 on 1 procs for 6172 steps with 19652 atoms

Performance: 0.397 ns/day, 60.477 hours/ns, 4.593 timesteps/s
99.3% CPU use with 1 MPI tasks x no OpenMP threads

MPI task timing breakdown:
Section |  min time  |  avg time  |  max time  |%varavg| %total
---------------------------------------------------------------
Pair    | 761.17     | 761.17     | 761.17     |   0.0 | 56.65
Neigh   | 560.07     | 560.07     | 560.07     |   0.0 | 41.68
Comm    | 9.2515     | 9.2515     | 9.2515     |   0.0 |  0.69
Output  | 0.00026393 | 0.00026393 | 0.00026393 |   0.0 |  0.00
Modify  | 10.32      | 10.32      | 10.32      |   0.0 |  0.77
Other   |            | 2.939      |            |       |  0.22

Nlocal:    19652 ave 19652 max 19652 min
Histogram: 1 0 0 0 0 0 0 0 0 0
Nghost:    19891 ave 19891 max 19891 min
Histogram: 1 0 0 0 0 0 0 0 0 0
Neighs:    1.81054e+06 ave 1.81054e+06 max 1.81054e+06 min
Histogram: 1 0 0 0 0 0 0 0 0 0

Total # of neighbors = 1810540
Ave neighs/atom = 92.1301
Neighbor list builds = 6172
Dangerous builds not checked
Setting up Verlet run ...
  Unit style    : metal
  Current step  : 140005
  Time step     : 0.001
Per MPI rank memory allocation (min/avg/max) = 19.34 | 19.34 | 19.34 Mbytes
Step Temp Press TotEng PotEng Enthalpy 
  140005    1714.8898    2581.6738   -57402.772   -61758.748   -56965.025 
  140007    1713.5818    2624.6782   -57402.785   -61755.439   -56957.746 
  140500    1676.9684    1175.4783   -57656.863   -61916.515   -57458.036 
Loop time of 104.407 on 1 procs for 495 steps with 19652 atoms

Performance: 0.410 ns/day, 58.590 hours/ns, 4.741 timesteps/s
99.8% CPU use with 1 MPI tasks x no OpenMP threads

MPI task timing breakdown:
Section |  min time  |  avg time  |  max time  |%varavg| %total
---------------------------------------------------------------
Pair    | 57.883     | 57.883     | 57.883     |   0.0 | 55.44
Neigh   | 44.642     | 44.642     | 44.642     |   0.0 | 42.76
Comm    | 0.67456    | 0.67456    | 0.67456    |   0.0 |  0.65
Output  | 0.12892    | 0.12892    | 0.12892    |   0.0 |  0.12
Modify  | 0.83303    | 0.83303    | 0.83303    |   0.0 |  0.80
Other   |            | 0.2452     |            |       |  0.23

Nlocal:    19652 ave 19652 max 19652 min
Histogram: 1 0 0 0 0 0 0 0 0 0
Nghost:    19901 ave 19901 max 19901 min
Histogram: 1 0 0 0 0 0 0 0 0 0
Neighs:    1.81473e+06 ave 1.81473e+06 max 1.81473e+06 min
Histogram: 1 0 0 0 0 0 0 0 0 0

Total # of neighbors = 1814726
Ave neighs/atom = 92.3431
Neighbor list builds = 495
Dangerous builds not checked
Setting up Verlet run ...
  Unit style    : metal
  Current step  : 140500
  Time step     : 0.001
Per MPI rank memory allocation (min/avg/max) = 19.34 | 19.34 | 19.34 Mbytes
Step Temp Press TotEng PotEng Enthalpy 
  140500    1676.9684    1175.4783   -57656.863   -61916.515   -57458.036 
  146672    1656.8876    712.63787   -57806.259   -62014.904   -57685.941 
Loop time of 1325.56 on 1 procs for 6172 steps with 19652 atoms

Performance: 0.402 ns/day, 59.658 hours/ns, 4.656 timesteps/s
99.7% CPU use with 1 MPI tasks x no OpenMP threads

MPI task timing breakdown:
Section |  min time  |  avg time  |  max time  |%varavg| %total
---------------------------------------------------------------
Pair    | 751.78     | 751.78     | 751.78     |   0.0 | 56.71
Neigh   | 552.01     | 552.01     | 552.01     |   0.0 | 41.64
Comm    | 8.5886     | 8.5886     | 8.5886     |   0.0 |  0.65
Output  | 0.00018907 | 0.00018907 | 0.00018907 |   0.0 |  0.00
Modify  | 10.262     | 10.262     | 10.262     |   0.0 |  0.77
Other   |            | 2.915      |            |       |  0.22

Nlocal:    19652 ave 19652 max 19652 min
Histogram: 1 0 0 0 0 0 0 0 0 0
Nghost:    19899 ave 19899 max 19899 min
Histogram: 1 0 0 0 0 0 0 0 0 0
Neighs:    1.81809e+06 ave 1.81809e+06 max 1.81809e+06 min
Histogram: 1 0 0 0 0 0 0 0 0 0

Total # of neighbors = 1818089
Ave neighs/atom = 92.5142
Neighbor list builds = 6172
Dangerous builds not checked
Setting up Verlet run ...
  Unit style    : metal
  Current step  : 146672
  Time step     : 0.001
Per MPI rank memory allocation (min/avg/max) = 19.34 | 19.34 | 19.34 Mbytes
Step Temp Press TotEng PotEng Enthalpy 
  146672    1656.8876    712.63787   -57806.259   -62014.904   -57685.941 
  146674    1657.0013    713.85019   -57806.264   -62015.199   -57685.741 
  147167    1620.3551    1222.2469   -57968.385   -62084.234   -57762.572 
Loop time of 105.489 on 1 procs for 495 steps with 19652 atoms

Performance: 0.405 ns/day, 59.197 hours/ns, 4.692 timesteps/s
99.9% CPU use with 1 MPI tasks x no OpenMP threads

MPI task timing breakdown:
Section |  min time  |  avg time  |  max time  |%varavg| %total
---------------------------------------------------------------
Pair    | 59.874     | 59.874     | 59.874     |   0.0 | 56.76
Neigh   | 43.733     | 43.733     | 43.733     |   0.0 | 41.46
Comm    | 0.70389    | 0.70389    | 0.70389    |   0.0 |  0.67
Output  | 0.095135   | 0.095135   | 0.095135   |   0.0 |  0.09
Modify  | 0.84402    | 0.84402    | 0.84402    |   0.0 |  0.80
Other   |            | 0.2385     |            |       |  0.23

Nlocal:    19652 ave 19652 max 19652 min
Histogram: 1 0 0 0 0 0 0 0 0 0
Nghost:    19976 ave 19976 max 19976 min
Histogram: 1 0 0 0 0 0 0 0 0 0
Neighs:    1.82333e+06 ave 1.82333e+06 max 1.82333e+06 min
Histogram: 1 0 0 0 0 0 0 0 0 0

Total # of neighbors = 1823331
Ave neighs/atom = 92.7809
Neighbor list builds = 495
Dangerous builds not checked
Setting up Verlet run ...
  Unit style    : metal
  Current step  : 147167
  Time step     : 0.001
Per MPI rank memory allocation (min/avg/max) = 19.34 | 19.34 | 19.34 Mbytes
Step Temp Press TotEng PotEng Enthalpy 
  147167    1620.3551    1222.2469   -57968.385   -62084.234   -57762.572 
  153339     1608.332    109.99153   -58048.098   -62133.408   -58029.578 
Loop time of 1316.48 on 1 procs for 6172 steps with 19652 atoms

Performance: 0.405 ns/day, 59.250 hours/ns, 4.688 timesteps/s
99.2% CPU use with 1 MPI tasks x no OpenMP threads

MPI task timing breakdown:
Section |  min time  |  avg time  |  max time  |%varavg| %total
---------------------------------------------------------------
Pair    | 746.05     | 746.05     | 746.05     |   0.0 | 56.67
Neigh   | 548.21     | 548.21     | 548.21     |   0.0 | 41.64
Comm    | 8.7795     | 8.7795     | 8.7795     |   0.0 |  0.67
Output  | 0.00018287 | 0.00018287 | 0.00018287 |   0.0 |  0.00
Modify  | 10.53      | 10.53      | 10.53      |   0.0 |  0.80
Other   |            | 2.915      |            |       |  0.22

Nlocal:    19652 ave 19652 max 19652 min
Histogram: 1 0 0 0 0 0 0 0 0 0
Nghost:    19949 ave 19949 max 19949 min
Histogram: 1 0 0 0 0 0 0 0 0 0
Neighs:    1.82255e+06 ave 1.82255e+06 max 1.82255e+06 min
Histogram: 1 0 0 0 0 0 0 0 0 0

Total # of neighbors = 1822554
Ave neighs/atom = 92.7414
Neighbor list builds = 6172
Dangerous builds not checked
Setting up Verlet run ...
  Unit style    : metal
  Current step  : 153339
  Time step     : 0.001
Per MPI rank memory allocation (min/avg/max) = 19.34 | 19.34 | 19.34 Mbytes
Step Temp Press TotEng PotEng Enthalpy 
  153339     1608.332    109.99153   -58048.098   -62133.408   -58029.578 
  153341    1607.3513    182.59903   -58048.104   -62130.923   -58017.358 
  153834    1560.4188     596.5147   -58288.612   -62252.218   -58188.554 
Loop time of 91.9739 on 1 procs for 495 steps with 19652 atoms

Performance: 0.465 ns/day, 51.613 hours/ns, 5.382 timesteps/s
99.6% CPU use with 1 MPI tasks x no OpenMP threads

MPI task timing breakdown:
Section |  min time  |  avg time  |  max time  |%varavg| %total
---------------------------------------------------------------
Pair    | 51.237     | 51.237     | 51.237     |   0.0 | 55.71
Neigh   | 39.153     | 39.153     | 39.153     |   0.0 | 42.57
Comm    | 0.58801    | 0.58801    | 0.58801    |   0.0 |  0.64
Output  | 0.081405   | 0.081405   | 0.081405   |   0.0 |  0.09
Modify  | 0.71445    | 0.71445    | 0.71445    |   0.0 |  0.78
Other   |            | 0.1991     |            |       |  0.22

Nlocal:    19652 ave 19652 max 19652 min
Histogram: 1 0 0 0 0 0 0 0 0 0
Nghost:    19992 ave 19992 max 19992 min
Histogram: 1 0 0 0 0 0 0 0 0 0
Neighs:    1.82998e+06 ave 1.82998e+06 max 1.82998e+06 min
Histogram: 1 0 0 0 0 0 0 0 0 0

Total # of neighbors = 1829985
Ave neighs/atom = 93.1195
Neighbor list builds = 495
Dangerous builds not checked
Setting up Verlet run ...
  Unit style    : metal
  Current step  : 153834
  Time step     : 0.001
Per MPI rank memory allocation (min/avg/max) = 19.34 | 19.34 | 19.34 Mbytes
Step Temp Press TotEng PotEng Enthalpy 
  153834    1560.4188     596.5147   -58288.612   -62252.218   -58188.554 
  160006    1528.7926   -751.24586   -58465.537   -62348.809   -58591.451 
Loop time of 1338.97 on 1 procs for 6172 steps with 19652 atoms

Performance: 0.398 ns/day, 60.262 hours/ns, 4.610 timesteps/s
98.8% CPU use with 1 MPI tasks x no OpenMP threads

MPI task timing breakdown:
Section |  min time  |  avg time  |  max time  |%varavg| %total
---------------------------------------------------------------
Pair    | 760.19     | 760.19     | 760.19     |   0.0 | 56.77
Neigh   | 556.86     | 556.86     | 556.86     |   0.0 | 41.59
Comm    | 8.6624     | 8.6624     | 8.6624     |   0.0 |  0.65
Output  | 0.00020313 | 0.00020313 | 0.00020313 |   0.0 |  0.00
Modify  | 10.415     | 10.415     | 10.415     |   0.0 |  0.78
Other   |            | 2.838      |            |       |  0.21

Nlocal:    19652 ave 19652 max 19652 min
Histogram: 1 0 0 0 0 0 0 0 0 0
Nghost:    20003 ave 20003 max 20003 min
Histogram: 1 0 0 0 0 0 0 0 0 0
Neighs:    1.83052e+06 ave 1.83052e+06 max 1.83052e+06 min
Histogram: 1 0 0 0 0 0 0 0 0 0

Total # of neighbors = 1830521
Ave neighs/atom = 93.1468
Neighbor list builds = 6172
Dangerous builds not checked
Setting up Verlet run ...
  Unit style    : metal
  Current step  : 160006
  Time step     : 0.001
Per MPI rank memory allocation (min/avg/max) = 19.34 | 19.34 | 19.34 Mbytes
Step Temp Press TotEng PotEng Enthalpy 
  160006    1528.7926   -751.24586   -58465.537   -62348.809   -58591.451 
  160008    1528.5541   -729.58355   -58465.517   -62348.184   -58587.801 
  160501    1515.2201   -705.40311   -58597.387   -62446.184   -58715.304 
Loop time of 106.73 on 1 procs for 495 steps with 19652 atoms

Performance: 0.401 ns/day, 59.893 hours/ns, 4.638 timesteps/s
98.9% CPU use with 1 MPI tasks x no OpenMP threads

MPI task timing breakdown:
Section |  min time  |  avg time  |  max time  |%varavg| %total
---------------------------------------------------------------
Pair    | 60.3       | 60.3       | 60.3       |   0.0 | 56.50
Neigh   | 44.646     | 44.646     | 44.646     |   0.0 | 41.83
Comm    | 0.64665    | 0.64665    | 0.64665    |   0.0 |  0.61
Output  | 0.090822   | 0.090822   | 0.090822   |   0.0 |  0.09
Modify  | 0.81145    | 0.81145    | 0.81145    |   0.0 |  0.76
Other   |            | 0.2344     |            |       |  0.22

Nlocal:    19652 ave 19652 max 19652 min
Histogram: 1 0 0 0 0 0 0 0 0 0
Nghost:    20036 ave 20036 max 20036 min
Histogram: 1 0 0 0 0 0 0 0 0 0
Neighs:    1.83541e+06 ave 1.83541e+06 max 1.83541e+06 min
Histogram: 1 0 0 0 0 0 0 0 0 0

Total # of neighbors = 1835408
Ave neighs/atom = 93.3955
Neighbor list builds = 495
Dangerous builds not checked
Setting up Verlet run ...
  Unit style    : metal
  Current step  : 160501
  Time step     : 0.001
Per MPI rank memory allocation (min/avg/max) = 19.34 | 19.34 | 19.34 Mbytes
Step Temp Press TotEng PotEng Enthalpy 
  160501    1515.2201   -705.40311   -58597.387   -62446.184   -58715.304 
  166673    1499.1568    1098.9545   -58736.745    -62544.74   -58553.767 
Loop time of 1314.21 on 1 procs for 6172 steps with 19652 atoms

Performance: 0.406 ns/day, 59.147 hours/ns, 4.696 timesteps/s
98.0% CPU use with 1 MPI tasks x no OpenMP threads

MPI task timing breakdown:
Section |  min time  |  avg time  |  max time  |%varavg| %total
---------------------------------------------------------------
Pair    | 745.19     | 745.19     | 745.19     |   0.0 | 56.70
Neigh   | 547.18     | 547.18     | 547.18     |   0.0 | 41.64
Comm    | 8.4901     | 8.4901     | 8.4901     |   0.0 |  0.65
Output  | 0.0001688  | 0.0001688  | 0.0001688  |   0.0 |  0.00
Modify  | 10.533     | 10.533     | 10.533     |   0.0 |  0.80
Other   |            | 2.816      |            |       |  0.21

Nlocal:    19652 ave 19652 max 19652 min
Histogram: 1 0 0 0 0 0 0 0 0 0
Nghost:    20008 ave 20008 max 20008 min
Histogram: 1 0 0 0 0 0 0 0 0 0
Neighs:    1.84196e+06 ave 1.84196e+06 max 1.84196e+06 min
Histogram: 1 0 0 0 0 0 0 0 0 0

Total # of neighbors = 1841964
Ave neighs/atom = 93.7291
Neighbor list builds = 6172
Dangerous builds not checked
Setting up Verlet run ...
  Unit style    : metal
  Current step  : 166673
  Time step     : 0.001
Per MPI rank memory allocation (min/avg/max) = 19.34 | 19.34 | 19.34 Mbytes
Step Temp Press TotEng PotEng Enthalpy 
  166673    1499.1568    1098.9545   -58736.745    -62544.74   -58553.767 
  166675    1498.5097    1156.6788   -58736.743   -62543.094   -58544.154 
  167168    1474.0968    214.14531   -58916.938   -62661.278   -58881.355 
Loop time of 99.6089 on 1 procs for 495 steps with 19652 atoms

Performance: 0.429 ns/day, 55.897 hours/ns, 4.969 timesteps/s
98.7% CPU use with 1 MPI tasks x no OpenMP threads

MPI task timing breakdown:
Section |  min time  |  avg time  |  max time  |%varavg| %total
---------------------------------------------------------------
Pair    | 56.569     | 56.569     | 56.569     |   0.0 | 56.79
Neigh   | 41.298     | 41.298     | 41.298     |   0.0 | 41.46
Comm    | 0.63314    | 0.63314    | 0.63314    |   0.0 |  0.64
Output  | 0.085931   | 0.085931   | 0.085931   |   0.0 |  0.09
Modify  | 0.80912    | 0.80912    | 0.80912    |   0.0 |  0.81
Other   |            | 0.2137     |            |       |  0.21

Nlocal:    19652 ave 19652 max 19652 min
Histogram: 1 0 0 0 0 0 0 0 0 0
Nghost:    20064 ave 20064 max 20064 min
Histogram: 1 0 0 0 0 0 0 0 0 0
Neighs:    1.84579e+06 ave 1.84579e+06 max 1.84579e+06 min
Histogram: 1 0 0 0 0 0 0 0 0 0

Total # of neighbors = 1845790
Ave neighs/atom = 93.9238
Neighbor list builds = 495
Dangerous builds not checked
Setting up Verlet run ...
  Unit style    : metal
  Current step  : 167168
  Time step     : 0.001
Per MPI rank memory allocation (min/avg/max) = 19.34 | 19.34 | 19.34 Mbytes
Step Temp Press TotEng PotEng Enthalpy 
  167168    1474.0968    214.14531   -58916.938   -62661.278   -58881.355 
  173340    1448.4348    80.274712   -59037.642   -62716.798    -59024.32 
Loop time of 1275.76 on 1 procs for 6172 steps with 19652 atoms

Performance: 0.418 ns/day, 57.417 hours/ns, 4.838 timesteps/s
98.8% CPU use with 1 MPI tasks x no OpenMP threads

MPI task timing breakdown:
Section |  min time  |  avg time  |  max time  |%varavg| %total
---------------------------------------------------------------
Pair    | 720.75     | 720.75     | 720.75     |   0.0 | 56.50
Neigh   | 533.97     | 533.97     | 533.97     |   0.0 | 41.85
Comm    | 8.2431     | 8.2431     | 8.2431     |   0.0 |  0.65
Output  | 0.00022793 | 0.00022793 | 0.00022793 |   0.0 |  0.00
Modify  | 10.032     | 10.032     | 10.032     |   0.0 |  0.79
Other   |            | 2.769      |            |       |  0.22

Nlocal:    19652 ave 19652 max 19652 min
Histogram: 1 0 0 0 0 0 0 0 0 0
Nghost:    20056 ave 20056 max 20056 min
Histogram: 1 0 0 0 0 0 0 0 0 0
Neighs:    1.84813e+06 ave 1.84813e+06 max 1.84813e+06 min
Histogram: 1 0 0 0 0 0 0 0 0 0

Total # of neighbors = 1848129
Ave neighs/atom = 94.0428
Neighbor list builds = 6172
Dangerous builds not checked
Setting up Verlet run ...
  Unit style    : metal
  Current step  : 173340
  Time step     : 0.001
Per MPI rank memory allocation (min/avg/max) = 19.34 | 19.34 | 19.34 Mbytes
Step Temp Press TotEng PotEng Enthalpy 
  173340    1448.4348    80.274712   -59037.642   -62716.798    -59024.32 
  173342    1447.8033    99.443542    -59037.64   -62715.192   -59021.137 
  173835    1421.2604   -156.21684   -59253.942   -62864.073   -59279.771 
Loop time of 100.218 on 1 procs for 495 steps with 19652 atoms

Performance: 0.427 ns/day, 56.239 hours/ns, 4.939 timesteps/s
96.7% CPU use with 1 MPI tasks x no OpenMP threads

MPI task timing breakdown:
Section |  min time  |  avg time  |  max time  |%varavg| %total
---------------------------------------------------------------
Pair    | 56.201     | 56.201     | 56.201     |   0.0 | 56.08
Neigh   | 42.305     | 42.305     | 42.305     |   0.0 | 42.21
Comm    | 0.62655    | 0.62655    | 0.62655    |   0.0 |  0.63
Output  | 0.069207   | 0.069207   | 0.069207   |   0.0 |  0.07
Modify  | 0.7952     | 0.7952     | 0.7952     |   0.0 |  0.79
Other   |            | 0.2218     |            |       |  0.22

Nlocal:    19652 ave 19652 max 19652 min
Histogram: 1 0 0 0 0 0 0 0 0 0
Nghost:    20045 ave 20045 max 20045 min
Histogram: 1 0 0 0 0 0 0 0 0 0
Neighs:    1.85454e+06 ave 1.85454e+06 max 1.85454e+06 min
Histogram: 1 0 0 0 0 0 0 0 0 0

Total # of neighbors = 1854545
Ave neighs/atom = 94.3693
Neighbor list builds = 495
Dangerous builds not checked
Setting up Verlet run ...
  Unit style    : metal
  Current step  : 173835
  Time step     : 0.001
Per MPI rank memory allocation (min/avg/max) = 19.34 | 19.34 | 19.34 Mbytes
Step Temp Press TotEng PotEng Enthalpy 
  173835    1421.2604   -156.21684   -59253.942   -62864.073   -59279.771 
  180007    1397.2871   -1663.2806   -59421.426   -62970.662    -59696.16 
Loop time of 1313.93 on 1 procs for 6172 steps with 19652 atoms

Performance: 0.406 ns/day, 59.135 hours/ns, 4.697 timesteps/s
99.4% CPU use with 1 MPI tasks x no OpenMP threads

MPI task timing breakdown:
Section |  min time  |  avg time  |  max time  |%varavg| %total
---------------------------------------------------------------
Pair    | 746.27     | 746.27     | 746.27     |   0.0 | 56.80
Neigh   | 545.98     | 545.98     | 545.98     |   0.0 | 41.55
Comm    | 8.4457     | 8.4457     | 8.4457     |   0.0 |  0.64
Output  | 0.00020194 | 0.00020194 | 0.00020194 |   0.0 |  0.00
Modify  | 10.36      | 10.36      | 10.36      |   0.0 |  0.79
Other   |            | 2.87       |            |       |  0.22

Nlocal:    19652 ave 19652 max 19652 min
Histogram: 1 0 0 0 0 0 0 0 0 0
Nghost:    20108 ave 20108 max 20108 min
Histogram: 1 0 0 0 0 0 0 0 0 0
Neighs:    1.85513e+06 ave 1.85513e+06 max 1.85513e+06 min
Histogram: 1 0 0 0 0 0 0 0 0 0

Total # of neighbors = 1855127
Ave neighs/atom = 94.3989
Neighbor list builds = 6172
Dangerous builds not checked
Setting up Verlet run ...
  Unit style    : metal
  Current step  : 180007
  Time step     : 0.001
Per MPI rank memory allocation (min/avg/max) = 19.34 | 19.34 | 19.34 Mbytes
Step Temp Press TotEng PotEng Enthalpy 
  180007    1397.2871   -1663.2806   -59421.426   -62970.662    -59696.16 
  180009    1397.0625   -1670.6586   -59421.421   -62970.087   -59697.373 
  180502    1365.7971    -69.10457   -59604.891    -63074.14   -59616.263 
Loop time of 98.2413 on 1 procs for 495 steps with 19652 atoms

Performance: 0.435 ns/day, 55.130 hours/ns, 5.039 timesteps/s
99.9% CPU use with 1 MPI tasks x no OpenMP threads

MPI task timing breakdown:
Section |  min time  |  avg time  |  max time  |%varavg| %total
---------------------------------------------------------------
Pair    | 55.16      | 55.16      | 55.16      |   0.0 | 56.15
Neigh   | 41.304     | 41.304     | 41.304     |   0.0 | 42.04
Comm    | 0.6378     | 0.6378     | 0.6378     |   0.0 |  0.65
Output  | 0.11971    | 0.11971    | 0.11971    |   0.0 |  0.12
Modify  | 0.78117    | 0.78117    | 0.78117    |   0.0 |  0.80
Other   |            | 0.2379     |            |       |  0.24

Nlocal:    19652 ave 19652 max 19652 min
Histogram: 1 0 0 0 0 0 0 0 0 0
Nghost:    20151 ave 20151 max 20151 min
Histogram: 1 0 0 0 0 0 0 0 0 0
Neighs:    1.86344e+06 ave 1.86344e+06 max 1.86344e+06 min
Histogram: 1 0 0 0 0 0 0 0 0 0

Total # of neighbors = 1863436
Ave neighs/atom = 94.8217
Neighbor list builds = 495
Dangerous builds not checked
Setting up Verlet run ...
  Unit style    : metal
  Current step  : 180502
  Time step     : 0.001
Per MPI rank memory allocation (min/avg/max) = 19.34 | 19.34 | 19.34 Mbytes
Step Temp Press TotEng PotEng Enthalpy 
  180502    1365.7971    -69.10457   -59604.891    -63074.14   -59616.263 
  186674    1346.8744    1927.0924   -59698.244   -63119.428   -59382.137 
Loop time of 1304.38 on 1 procs for 6172 steps with 19652 atoms

Performance: 0.409 ns/day, 58.705 hours/ns, 4.732 timesteps/s
98.8% CPU use with 1 MPI tasks x no OpenMP threads

MPI task timing breakdown:
Section |  min time  |  avg time  |  max time  |%varavg| %total
---------------------------------------------------------------
Pair    | 738.13     | 738.13     | 738.13     |   0.0 | 56.59
Neigh   | 544.84     | 544.84     | 544.84     |   0.0 | 41.77
Comm    | 8.4453     | 8.4453     | 8.4453     |   0.0 |  0.65
Output  | 0.00016499 | 0.00016499 | 0.00016499 |   0.0 |  0.00
Modify  | 10.053     | 10.053     | 10.053     |   0.0 |  0.77
Other   |            | 2.903      |            |       |  0.22

Nlocal:    19652 ave 19652 max 19652 min
Histogram: 1 0 0 0 0 0 0 0 0 0
Nghost:    20128 ave 20128 max 20128 min
Histogram: 1 0 0 0 0 0 0 0 0 0
Neighs:    1.86884e+06 ave 1.86884e+06 max 1.86884e+06 min
Histogram: 1 0 0 0 0 0 0 0 0 0

Total # of neighbors = 1868840
Ave neighs/atom = 95.0967
Neighbor list builds = 6172
Dangerous builds not checked
Setting up Verlet run ...
  Unit style    : metal
  Current step  : 186674
  Time step     : 0.001
Per MPI rank memory allocation (min/avg/max) = 19.34 | 19.34 | 19.34 Mbytes
Step Temp Press TotEng PotEng Enthalpy 
  186674    1346.8744    1927.0924   -59698.244   -63119.428   -59382.137 
  186676    1347.3072    1918.4157   -59698.243   -63120.526   -59383.559 
  187169    1315.5633    79.213751   -59904.792   -63246.443   -59891.822 
Loop time of 93.863 on 1 procs for 495 steps with 19652 atoms

Performance: 0.456 ns/day, 52.673 hours/ns, 5.274 timesteps/s
98.3% CPU use with 1 MPI tasks x no OpenMP threads

MPI task timing breakdown:
Section |  min time  |  avg time  |  max time  |%varavg| %total
---------------------------------------------------------------
Pair    | 52.917     | 52.917     | 52.917     |   0.0 | 56.38
Neigh   | 39.307     | 39.307     | 39.307     |   0.0 | 41.88
Comm    | 0.59472    | 0.59472    | 0.59472    |   0.0 |  0.63
Output  | 0.079458   | 0.079458   | 0.079458   |   0.0 |  0.08
Modify  | 0.75376    | 0.75376    | 0.75376    |   0.0 |  0.80
Other   |            | 0.2108     |            |       |  0.22

Nlocal:    19652 ave 19652 max 19652 min
Histogram: 1 0 0 0 0 0 0 0 0 0
Nghost:    20154 ave 20154 max 20154 min
Histogram: 1 0 0 0 0 0 0 0 0 0
Neighs:    1.87186e+06 ave 1.87186e+06 max 1.87186e+06 min
Histogram: 1 0 0 0 0 0 0 0 0 0

Total # of neighbors = 1871857
Ave neighs/atom = 95.2502
Neighbor list builds = 495
Dangerous builds not checked
Setting up Verlet run ...
  Unit style    : metal
  Current step  : 187169
  Time step     : 0.001
Per MPI rank memory allocation (min/avg/max) = 19.34 | 19.34 | 19.34 Mbytes
Step Temp Press TotEng PotEng Enthalpy 
  187169    1315.5633    79.213751   -59904.792   -63246.443   -59891.822 
  193341    1297.0308   -1367.1634   -60041.629   -63336.206   -60265.257 
Loop time of 1292.06 on 1 procs for 6172 steps with 19652 atoms

Performance: 0.413 ns/day, 58.151 hours/ns, 4.777 timesteps/s
98.9% CPU use with 1 MPI tasks x no OpenMP threads

MPI task timing breakdown:
Section |  min time  |  avg time  |  max time  |%varavg| %total
---------------------------------------------------------------
Pair    | 736.92     | 736.92     | 736.92     |   0.0 | 57.03
Neigh   | 533.78     | 533.78     | 533.78     |   0.0 | 41.31
Comm    | 8.3784     | 8.3784     | 8.3784     |   0.0 |  0.65
Output  | 0.00018311 | 0.00018311 | 0.00018311 |   0.0 |  0.00
Modify  | 10.168     | 10.168     | 10.168     |   0.0 |  0.79
Other   |            | 2.818      |            |       |  0.22

Nlocal:    19652 ave 19652 max 19652 min
Histogram: 1 0 0 0 0 0 0 0 0 0
Nghost:    20191 ave 20191 max 20191 min
Histogram: 1 0 0 0 0 0 0 0 0 0
Neighs:    1.87344e+06 ave 1.87344e+06 max 1.87344e+06 min
Histogram: 1 0 0 0 0 0 0 0 0 0

Total # of neighbors = 1873441
Ave neighs/atom = 95.3308
Neighbor list builds = 6172
Dangerous builds not checked
Setting up Verlet run ...
  Unit style    : metal
  Current step  : 193341
  Time step     : 0.001
Per MPI rank memory allocation (min/avg/max) = 19.34 | 19.34 | 19.34 Mbytes
Step Temp Press TotEng PotEng Enthalpy 
  193341    1297.0308   -1367.1634   -60041.629   -63336.206   -60265.257 
  193343    1297.1358   -1359.8915   -60041.626   -63336.469   -60264.064 
  193836    1269.2349   -841.58666   -60242.457   -63466.429   -60379.675 
Loop time of 96.7454 on 1 procs for 495 steps with 19652 atoms

Performance: 0.442 ns/day, 54.290 hours/ns, 5.117 timesteps/s
97.5% CPU use with 1 MPI tasks x no OpenMP threads

MPI task timing breakdown:
Section |  min time  |  avg time  |  max time  |%varavg| %total
---------------------------------------------------------------
Pair    | 54.523     | 54.523     | 54.523     |   0.0 | 56.36
Neigh   | 40.525     | 40.525     | 40.525     |   0.0 | 41.89
Comm    | 0.61094    | 0.61094    | 0.61094    |   0.0 |  0.63
Output  | 0.12012    | 0.12012    | 0.12012    |   0.0 |  0.12
Modify  | 0.7617     | 0.7617     | 0.7617     |   0.0 |  0.79
Other   |            | 0.2052     |            |       |  0.21

Nlocal:    19652 ave 19652 max 19652 min
Histogram: 1 0 0 0 0 0 0 0 0 0
Nghost:    20190 ave 20190 max 20190 min
Histogram: 1 0 0 0 0 0 0 0 0 0
Neighs:    1.87871e+06 ave 1.87871e+06 max 1.87871e+06 min
Histogram: 1 0 0 0 0 0 0 0 0 0

Total # of neighbors = 1878713
Ave neighs/atom = 95.5991
Neighbor list builds = 495
Dangerous builds not checked
Setting up Verlet run ...
  Unit style    : metal
  Current step  : 193836
  Time step     : 0.001
Per MPI rank memory allocation (min/avg/max) = 19.34 | 19.34 | 19.34 Mbytes
Step Temp Press TotEng PotEng Enthalpy 
  193836    1269.2349   -841.58666   -60242.457   -63466.429   -60379.675 
  200008    1261.0795     1241.006   -60354.535   -63557.792   -60152.978 
Loop time of 1274.25 on 1 procs for 6172 steps with 19652 atoms

Performance: 0.418 ns/day, 57.349 hours/ns, 4.844 timesteps/s
98.5% CPU use with 1 MPI tasks x no OpenMP threads

MPI task timing breakdown:
Section |  min time  |  avg time  |  max time  |%varavg| %total
---------------------------------------------------------------
Pair    | 724.23     | 724.23     | 724.23     |   0.0 | 56.84
Neigh   | 529.54     | 529.54     | 529.54     |   0.0 | 41.56
Comm    | 8.0828     | 8.0828     | 8.0828     |   0.0 |  0.63
Output  | 0.00015402 | 0.00015402 | 0.00015402 |   0.0 |  0.00
Modify  | 9.6905     | 9.6905     | 9.6905     |   0.0 |  0.76
Other   |            | 2.703      |            |       |  0.21

Nlocal:    19652 ave 19652 max 19652 min
Histogram: 1 0 0 0 0 0 0 0 0 0
Nghost:    20271 ave 20271 max 20271 min
Histogram: 1 0 0 0 0 0 0 0 0 0
Neighs:    1.88643e+06 ave 1.88643e+06 max 1.88643e+06 min
Histogram: 1 0 0 0 0 0 0 0 0 0

Total # of neighbors = 1886433
Ave neighs/atom = 95.9919
Neighbor list builds = 6172
Dangerous builds not checked
Setting up Verlet run ...
  Unit style    : metal
  Current step  : 200008
  Time step     : 0.001
Per MPI rank memory allocation (min/avg/max) = 19.34 | 19.34 | 19.34 Mbytes
Step Temp Press TotEng PotEng Enthalpy 
  200008    1261.0795     1241.006   -60354.535   -63557.792   -60152.978 
  200010    1260.0887    1282.6379   -60354.544   -63555.284   -60146.225 
  200503    1212.9043   -662.46722   -60557.496   -63638.383   -60665.035 
Loop time of 97.3774 on 1 procs for 495 steps with 19652 atoms

Performance: 0.439 ns/day, 54.645 hours/ns, 5.083 timesteps/s
96.8% CPU use with 1 MPI tasks x no OpenMP threads

MPI task timing breakdown:
Section |  min time  |  avg time  |  max time  |%varavg| %total
---------------------------------------------------------------
Pair    | 54.494     | 54.494     | 54.494     |   0.0 | 55.96
Neigh   | 41.249     | 41.249     | 41.249     |   0.0 | 42.36
Comm    | 0.59325    | 0.59325    | 0.59325    |   0.0 |  0.61
Output  | 0.084916   | 0.084916   | 0.084916   |   0.0 |  0.09
Modify  | 0.74996    | 0.74996    | 0.74996    |   0.0 |  0.77
Other   |            | 0.2065     |            |       |  0.21

Nlocal:    19652 ave 19652 max 19652 min
Histogram: 1 0 0 0 0 0 0 0 0 0
Nghost:    20247 ave 20247 max 20247 min
Histogram: 1 0 0 0 0 0 0 0 0 0
Neighs:    1.88712e+06 ave 1.88712e+06 max 1.88712e+06 min
Histogram: 1 0 0 0 0 0 0 0 0 0

Total # of neighbors = 1887117
Ave neighs/atom = 96.0267
Neighbor list builds = 495
Dangerous builds not checked
Setting up Verlet run ...
  Unit style    : metal
  Current step  : 200503
  Time step     : 0.001
Per MPI rank memory allocation (min/avg/max) = 19.34 | 19.34 | 19.34 Mbytes
Step Temp Press TotEng PotEng Enthalpy 
  200503    1212.9043   -662.46722   -60557.496   -63638.383   -60665.035 
  206675    1206.9295   -1121.5083   -60703.396   -63769.107   -60884.977 
Loop time of 1290.39 on 1 procs for 6172 steps with 19652 atoms

Performance: 0.413 ns/day, 58.076 hours/ns, 4.783 timesteps/s
99.0% CPU use with 1 MPI tasks x no OpenMP threads

MPI task timing breakdown:
Section |  min time  |  avg time  |  max time  |%varavg| %total
---------------------------------------------------------------
Pair    | 722.51     | 722.51     | 722.51     |   0.0 | 55.99
Neigh   | 547.21     | 547.21     | 547.21     |   0.0 | 42.41
Comm    | 8.168      | 8.168      | 8.168      |   0.0 |  0.63
Output  | 0.00021195 | 0.00021195 | 0.00021195 |   0.0 |  0.00
Modify  | 9.8182     | 9.8182     | 9.8182     |   0.0 |  0.76
Other   |            | 2.695      |            |       |  0.21

Nlocal:    19652 ave 19652 max 19652 min
Histogram: 1 0 0 0 0 0 0 0 0 0
Nghost:    20294 ave 20294 max 20294 min
Histogram: 1 0 0 0 0 0 0 0 0 0
Neighs:    1.89173e+06 ave 1.89173e+06 max 1.89173e+06 min
Histogram: 1 0 0 0 0 0 0 0 0 0

Total # of neighbors = 1891732
Ave neighs/atom = 96.2616
Neighbor list builds = 6172
Dangerous builds not checked
Setting up Verlet run ...
  Unit style    : metal
  Current step  : 206675
  Time step     : 0.001
[...]
95.6% CPU use with 1 MPI tasks x no OpenMP threads

MPI task timing breakdown:
Section |  min time  |  avg time  |  max time  |%varavg| %total
---------------------------------------------------------------
Pair    | 60.195     | 60.195     | 60.195     |   0.0 | 54.97
Neigh   | 46.306     | 46.306     | 46.306     |   0.0 | 42.29
Comm    | 0.67961    | 0.67961    | 0.67961    |   0.0 |  0.62
Output  | 1.2946     | 1.2946     | 1.2946     |   0.0 |  1.18
Modify  | 0.78715    | 0.78715    | 0.78715    |   0.0 |  0.72
Other   |            | 0.2331     |            |       |  0.21

Nlocal:    19652 ave 19652 max 19652 min
Histogram: 1 0 0 0 0 0 0 0 0 0
Nghost:    20909 ave 20909 max 20909 min
Histogram: 1 0 0 0 0 0 0 0 0 0
Neighs:    2.0334e+06 ave 2.0334e+06 max 2.0334e+06 min
Histogram: 1 0 0 0 0 0 0 0 0 0

Total # of neighbors = 2033401
Ave neighs/atom = 103.47
Neighbor list builds = 495
Dangerous builds not checked
Setting up Verlet run ...
  Unit style    : metal
  Current step  : 307175
  Time step     : 0.001
Per MPI rank memory allocation (min/avg/max) = 19.35 | 19.35 | 19.35 Mbytes
Step Temp Press TotEng PotEng Enthalpy 
  307175    424.39691    494.40132   -65939.846   -67017.853   -65865.548 
  313347    399.36043   -634.64676   -66061.217   -67075.629   -66156.564 
Loop time of 1294.2 on 1 procs for 6172 steps with 19652 atoms

Performance: 0.412 ns/day, 58.247 hours/ns, 4.769 timesteps/s
98.6% CPU use with 1 MPI tasks x no OpenMP threads

MPI task timing breakdown:
Section |  min time  |  avg time  |  max time  |%varavg| %total
---------------------------------------------------------------
Pair    | 718.66     | 718.66     | 718.66     |   0.0 | 55.53
Neigh   | 555.51     | 555.51     | 555.51     |   0.0 | 42.92
Comm    | 7.923      | 7.923      | 7.923      |   0.0 |  0.61
Output  | 0.0002079  | 0.0002079  | 0.0002079  |   0.0 |  0.00
Modify  | 9.3584     | 9.3584     | 9.3584     |   0.0 |  0.72
Other   |            | 2.746      |            |       |  0.21

Nlocal:    19652 ave 19652 max 19652 min
Histogram: 1 0 0 0 0 0 0 0 0 0
Nghost:    20884 ave 20884 max 20884 min
Histogram: 1 0 0 0 0 0 0 0 0 0
Neighs:    2.03405e+06 ave 2.03405e+06 max 2.03405e+06 min
Histogram: 1 0 0 0 0 0 0 0 0 0

Total # of neighbors = 2034054
Ave neighs/atom = 103.504
Neighbor list builds = 6172
Dangerous builds not checked
Setting up Verlet run ...
  Unit style    : metal
  Current step  : 313347
  Time step     : 0.001
Per MPI rank memory allocation (min/avg/max) = 19.35 | 19.35 | 19.35 Mbytes
Step Temp Press TotEng PotEng Enthalpy 
  313347    399.36043   -634.64676   -66061.217   -67075.629   -66156.564 
  313349    399.44256   -640.66531   -66061.216   -67075.837   -66157.468 
  313842     370.9842    83.936443   -66218.843   -67161.177   -66206.263 
Loop time of 116.33 on 1 procs for 495 steps with 19652 atoms

Performance: 0.368 ns/day, 65.281 hours/ns, 4.255 timesteps/s
96.2% CPU use with 1 MPI tasks x no OpenMP threads

MPI task timing breakdown:
Section |  min time  |  avg time  |  max time  |%varavg| %total
---------------------------------------------------------------
Pair    | 65.712     | 65.712     | 65.712     |   0.0 | 56.49
Neigh   | 48.599     | 48.599     | 48.599     |   0.0 | 41.78
Comm    | 0.77255    | 0.77255    | 0.77255    |   0.0 |  0.66
Output  | 0.091537   | 0.091537   | 0.091537   |   0.0 |  0.08
Modify  | 0.90464    | 0.90464    | 0.90464    |   0.0 |  0.78
Other   |            | 0.2507     |            |       |  0.22

Nlocal:    19652 ave 19652 max 19652 min
Histogram: 1 0 0 0 0 0 0 0 0 0
Nghost:    20889 ave 20889 max 20889 min
Histogram: 1 0 0 0 0 0 0 0 0 0
Neighs:    2.03948e+06 ave 2.03948e+06 max 2.03948e+06 min
Histogram: 1 0 0 0 0 0 0 0 0 0

Total # of neighbors = 2039477
Ave neighs/atom = 103.78
Neighbor list builds = 495
Dangerous builds not checked
Setting up Verlet run ...
  Unit style    : metal
  Current step  : 313842
  Time step     : 0.001
Per MPI rank memory allocation (min/avg/max) = 19.35 | 19.35 | 19.35 Mbytes
Step Temp Press TotEng PotEng Enthalpy 
  313842     370.9842    83.936443   -66218.843   -67161.177   -66206.263 
  320014     347.5934   -637.59888   -66349.115   -67232.034   -66444.586 
Loop time of 1241.45 on 1 procs for 6172 steps with 19652 atoms

Performance: 0.430 ns/day, 55.873 hours/ns, 4.972 timesteps/s
98.9% CPU use with 1 MPI tasks x no OpenMP threads

MPI task timing breakdown:
Section |  min time  |  avg time  |  max time  |%varavg| %total
---------------------------------------------------------------
Pair    | 693.03     | 693.03     | 693.03     |   0.0 | 55.82
Neigh   | 528.66     | 528.66     | 528.66     |   0.0 | 42.58
Comm    | 7.7996     | 7.7996     | 7.7996     |   0.0 |  0.63
Output  | 0.00015712 | 0.00015712 | 0.00015712 |   0.0 |  0.00
Modify  | 9.288      | 9.288      | 9.288      |   0.0 |  0.75
Other   |            | 2.676      |            |       |  0.22

Nlocal:    19652 ave 19652 max 19652 min
Histogram: 1 0 0 0 0 0 0 0 0 0
Nghost:    20946 ave 20946 max 20946 min
Histogram: 1 0 0 0 0 0 0 0 0 0
Neighs:    2.0422e+06 ave 2.0422e+06 max 2.0422e+06 min
Histogram: 1 0 0 0 0 0 0 0 0 0

Total # of neighbors = 2042200
Ave neighs/atom = 103.918
Neighbor list builds = 6172
Dangerous builds not checked
Setting up Verlet run ...
  Unit style    : metal
  Current step  : 320014
  Time step     : 0.001
Per MPI rank memory allocation (min/avg/max) = 19.35 | 19.35 | 19.35 Mbytes
Step Temp Press TotEng PotEng Enthalpy 
  320014     347.5934   -637.59888   -66349.115   -67232.034   -66444.586 
  320016    347.33101   -627.94918   -66349.113   -67231.365   -66443.138 
  320509    323.20601    392.39825   -66490.653   -67311.626   -66432.043 
Loop time of 89.676 on 1 procs for 495 steps with 19652 atoms

Performance: 0.477 ns/day, 50.323 hours/ns, 5.520 timesteps/s
96.0% CPU use with 1 MPI tasks x no OpenMP threads

MPI task timing breakdown:
Section |  min time  |  avg time  |  max time  |%varavg| %total
---------------------------------------------------------------
Pair    | 47.667     | 47.667     | 47.667     |   0.0 | 53.15
Neigh   | 37.633     | 37.633     | 37.633     |   0.0 | 41.97
Comm    | 0.49611    | 0.49611    | 0.49611    |   0.0 |  0.55
Output  | 3.0889     | 3.0889     | 3.0889     |   0.0 |  3.44
Modify  | 0.61384    | 0.61384    | 0.61384    |   0.0 |  0.68
Other   |            | 0.1777     |            |       |  0.20

Nlocal:    19652 ave 19652 max 19652 min
Histogram: 1 0 0 0 0 0 0 0 0 0
Nghost:    20999 ave 20999 max 20999 min
Histogram: 1 0 0 0 0 0 0 0 0 0
Neighs:    2.04821e+06 ave 2.04821e+06 max 2.04821e+06 min
Histogram: 1 0 0 0 0 0 0 0 0 0

Total # of neighbors = 2048210
Ave neighs/atom = 104.224
Neighbor list builds = 495
Dangerous builds not checked
Setting up Verlet run ...
  Unit style    : metal
  Current step  : 320509
  Time step     : 0.001
Per MPI rank memory allocation (min/avg/max) = 19.35 | 19.35 | 19.35 Mbytes
Step Temp Press TotEng PotEng Enthalpy 
  320509    323.20601    392.39825   -66490.653   -67311.626   -66432.043 
  326681    300.41853    -12.04342   -66622.505   -67385.595   -66624.301 
Loop time of 1050.42 on 1 procs for 6172 steps with 19652 atoms

Performance: 0.508 ns/day, 47.275 hours/ns, 5.876 timesteps/s
99.4% CPU use with 1 MPI tasks x no OpenMP threads

MPI task timing breakdown:
Section |  min time  |  avg time  |  max time  |%varavg| %total
---------------------------------------------------------------
Pair    | 576.44     | 576.44     | 576.44     |   0.0 | 54.88
Neigh   | 458.52     | 458.52     | 458.52     |   0.0 | 43.65
Comm    | 5.9977     | 5.9977     | 5.9977     |   0.0 |  0.57
Output  | 0.00012803 | 0.00012803 | 0.00012803 |   0.0 |  0.00
Modify  | 7.3858     | 7.3858     | 7.3858     |   0.0 |  0.70
Other   |            | 2.077      |            |       |  0.20

Nlocal:    19652 ave 19652 max 19652 min
Histogram: 1 0 0 0 0 0 0 0 0 0
Nghost:    20962 ave 20962 max 20962 min
Histogram: 1 0 0 0 0 0 0 0 0 0
Neighs:    2.05052e+06 ave 2.05052e+06 max 2.05052e+06 min
Histogram: 1 0 0 0 0 0 0 0 0 0

Total # of neighbors = 2050515
Ave neighs/atom = 104.341
Neighbor list builds = 6172
Dangerous builds not checked
Setting up Verlet run ...
  Unit style    : metal
  Current step  : 326681
  Time step     : 0.001
Per MPI rank memory allocation (min/avg/max) = 19.35 | 19.35 | 19.35 Mbytes
Step Temp Press TotEng PotEng Enthalpy 
  326681    300.41853    -12.04342   -66622.505   -67385.595   -66624.301 
  326683     300.2744   -2.2326656   -66622.505   -67385.229   -66622.838 
  327176     273.2371    248.25249   -66761.349   -67455.396   -66724.381 
Loop time of 81.2752 on 1 procs for 495 steps with 19652 atoms

Performance: 0.526 ns/day, 45.609 hours/ns, 6.090 timesteps/s
99.6% CPU use with 1 MPI tasks x no OpenMP threads

MPI task timing breakdown:
Section |  min time  |  avg time  |  max time  |%varavg| %total
---------------------------------------------------------------
Pair    | 44.541     | 44.541     | 44.541     |   0.0 | 54.80
Neigh   | 35.294     | 35.294     | 35.294     |   0.0 | 43.43
Comm    | 0.46411    | 0.46411    | 0.46411    |   0.0 |  0.57
Output  | 0.24084    | 0.24084    | 0.24084    |   0.0 |  0.30
Modify  | 0.57427    | 0.57427    | 0.57427    |   0.0 |  0.71
Other   |            | 0.1607     |            |       |  0.20

Nlocal:    19652 ave 19652 max 19652 min
Histogram: 1 0 0 0 0 0 0 0 0 0
Nghost:    21010 ave 21010 max 21010 min
Histogram: 1 0 0 0 0 0 0 0 0 0
Neighs:    2.05526e+06 ave 2.05526e+06 max 2.05526e+06 min
Histogram: 1 0 0 0 0 0 0 0 0 0

Total # of neighbors = 2055260
Ave neighs/atom = 104.583
Neighbor list builds = 495
Dangerous builds not checked
Setting up Verlet run ...
  Unit style    : metal
  Current step  : 327176
  Time step     : 0.001
Per MPI rank memory allocation (min/avg/max) = 19.35 | 19.35 | 19.35 Mbytes
Step Temp Press TotEng PotEng Enthalpy 
  327176     273.2371    248.25249   -66761.349   -67455.396   -66724.381 
  333348    250.18661   -771.76995   -66882.288   -67517.785   -66997.153 
Loop time of 1090.38 on 1 procs for 6172 steps with 19652 atoms

Performance: 0.489 ns/day, 49.074 hours/ns, 5.660 timesteps/s
99.4% CPU use with 1 MPI tasks x no OpenMP threads

MPI task timing breakdown:
Section |  min time  |  avg time  |  max time  |%varavg| %total
---------------------------------------------------------------
Pair    | 602.07     | 602.07     | 602.07     |   0.0 | 55.22
Neigh   | 472.31     | 472.31     | 472.31     |   0.0 | 43.32
Comm    | 6.1876     | 6.1876     | 6.1876     |   0.0 |  0.57
Output  | 0.00015807 | 0.00015807 | 0.00015807 |   0.0 |  0.00
Modify  | 7.6773     | 7.6773     | 7.6773     |   0.0 |  0.70
Other   |            | 2.138      |            |       |  0.20

Nlocal:    19652 ave 19652 max 19652 min
Histogram: 1 0 0 0 0 0 0 0 0 0
Nghost:    21007 ave 21007 max 21007 min
Histogram: 1 0 0 0 0 0 0 0 0 0
Neighs:    2.05665e+06 ave 2.05665e+06 max 2.05665e+06 min
Histogram: 1 0 0 0 0 0 0 0 0 0

Total # of neighbors = 2056653
Ave neighs/atom = 104.654
Neighbor list builds = 6172
Dangerous builds not checked
Setting up Verlet run ...
  Unit style    : metal
  Current step  : 333348
  Time step     : 0.001
Per MPI rank memory allocation (min/avg/max) = 19.73 | 19.73 | 19.73 Mbytes
Step Temp Press TotEng PotEng Enthalpy 
  333348    250.18661   -771.76995   -66882.288   -67517.785   -66997.153 
  333350    250.38204   -778.20488   -66882.289   -67518.282   -66998.112 
  333843    225.83381   -283.69076   -67021.713   -67595.351   -67063.847 
Loop time of 91.1181 on 1 procs for 495 steps with 19652 atoms

Performance: 0.469 ns/day, 51.133 hours/ns, 5.433 timesteps/s
99.9% CPU use with 1 MPI tasks x no OpenMP threads

MPI task timing breakdown:
Section |  min time  |  avg time  |  max time  |%varavg| %total
---------------------------------------------------------------
Pair    | 50.425     | 50.425     | 50.425     |   0.0 | 55.34
Neigh   | 39.232     | 39.232     | 39.232     |   0.0 | 43.06
Comm    | 0.53863    | 0.53863    | 0.53863    |   0.0 |  0.59
Output  | 0.064149   | 0.064149   | 0.064149   |   0.0 |  0.07
Modify  | 0.66224    | 0.66224    | 0.66224    |   0.0 |  0.73
Other   |            | 0.1966     |            |       |  0.22

Nlocal:    19652 ave 19652 max 19652 min
Histogram: 1 0 0 0 0 0 0 0 0 0
Nghost:    21006 ave 21006 max 21006 min
Histogram: 1 0 0 0 0 0 0 0 0 0
Neighs:    2.06165e+06 ave 2.06165e+06 max 2.06165e+06 min
Histogram: 1 0 0 0 0 0 0 0 0 0

Total # of neighbors = 2061647
Ave neighs/atom = 104.908
Neighbor list builds = 495
Dangerous builds not checked
Setting up Verlet run ...
  Unit style    : metal
  Current step  : 333843
  Time step     : 0.001
Per MPI rank memory allocation (min/avg/max) = 19.73 | 19.73 | 19.73 Mbytes
Step Temp Press TotEng PotEng Enthalpy 
  333843    225.83381   -283.69076   -67021.713   -67595.351   -67063.847 
  340015    198.00699   -112.47645   -67159.262   -67662.218   -67175.941 
Loop time of 1173.62 on 1 procs for 6172 steps with 19652 atoms

Performance: 0.454 ns/day, 52.820 hours/ns, 5.259 timesteps/s
99.3% CPU use with 1 MPI tasks x no OpenMP threads

MPI task timing breakdown:
Section |  min time  |  avg time  |  max time  |%varavg| %total
---------------------------------------------------------------
Pair    | 653.93     | 653.93     | 653.93     |   0.0 | 55.72
Neigh   | 501.71     | 501.71     | 501.71     |   0.0 | 42.75
Comm    | 6.967      | 6.967      | 6.967      |   0.0 |  0.59
Output  | 0.000139   | 0.000139   | 0.000139   |   0.0 |  0.00
Modify  | 8.5374     | 8.5374     | 8.5374     |   0.0 |  0.73
Other   |            | 2.471      |            |       |  0.21

Nlocal:    19652 ave 19652 max 19652 min
Histogram: 1 0 0 0 0 0 0 0 0 0
Nghost:    21060 ave 21060 max 21060 min
Histogram: 1 0 0 0 0 0 0 0 0 0
Neighs:    2.06547e+06 ave 2.06547e+06 max 2.06547e+06 min
Histogram: 1 0 0 0 0 0 0 0 0 0

Total # of neighbors = 2065466
Ave neighs/atom = 105.102
Neighbor list builds = 6172
Dangerous builds not checked
Setting up Verlet run ...
  Unit style    : metal
  Current step  : 340015
  Time step     : 0.001
Per MPI rank memory allocation (min/avg/max) = 19.73 | 19.73 | 19.73 Mbytes
Step Temp Press TotEng PotEng Enthalpy 
  340015    198.00699   -112.47645   -67159.262   -67662.218   -67175.941 
  340017    197.91999   -108.00443    -67159.26   -67661.995   -67175.276 
  340510    174.32591    359.18581   -67282.537   -67725.341   -67229.369 
Loop time of 87.1726 on 1 procs for 495 steps with 19652 atoms

Performance: 0.491 ns/day, 48.918 hours/ns, 5.678 timesteps/s
98.5% CPU use with 1 MPI tasks x no OpenMP threads

MPI task timing breakdown:
Section |  min time  |  avg time  |  max time  |%varavg| %total
---------------------------------------------------------------
Pair    | 47.98      | 47.98      | 47.98      |   0.0 | 55.04
Neigh   | 36.811     | 36.811     | 36.811     |   0.0 | 42.23
Comm    | 0.49295    | 0.49295    | 0.49295    |   0.0 |  0.57
Output  | 1.112      | 1.112      | 1.112      |   0.0 |  1.28
Modify  | 0.60669    | 0.60669    | 0.60669    |   0.0 |  0.70
Other   |            | 0.17       |            |       |  0.20

Nlocal:    19652 ave 19652 max 19652 min
Histogram: 1 0 0 0 0 0 0 0 0 0
Nghost:    21041 ave 21041 max 21041 min
Histogram: 1 0 0 0 0 0 0 0 0 0
Neighs:    2.06992e+06 ave 2.06992e+06 max 2.06992e+06 min
Histogram: 1 0 0 0 0 0 0 0 0 0

Total # of neighbors = 2069923
Ave neighs/atom = 105.329
Neighbor list builds = 495
Dangerous builds not checked
Setting up Verlet run ...
  Unit style    : metal
  Current step  : 340510
  Time step     : 0.001
Per MPI rank memory allocation (min/avg/max) = 19.73 | 19.73 | 19.73 Mbytes
Step Temp Press TotEng PotEng Enthalpy 
  340510    174.32591    359.18581   -67282.537   -67725.341   -67229.369 
  346682     149.9307    433.05095   -67417.913   -67798.751   -67353.911 
Loop time of 1145.97 on 1 procs for 6172 steps with 19652 atoms

Performance: 0.465 ns/day, 51.576 hours/ns, 5.386 timesteps/s
99.4% CPU use with 1 MPI tasks x no OpenMP threads

MPI task timing breakdown:
Section |  min time  |  avg time  |  max time  |%varavg| %total
---------------------------------------------------------------
Pair    | 639.19     | 639.19     | 639.19     |   0.0 | 55.78
Neigh   | 489.15     | 489.15     | 489.15     |   0.0 | 42.68
Comm    | 6.9017     | 6.9017     | 6.9017     |   0.0 |  0.60
Output  | 0.00013494 | 0.00013494 | 0.00013494 |   0.0 |  0.00
Modify  | 8.3275     | 8.3275     | 8.3275     |   0.0 |  0.73
Other   |            | 2.399      |            |       |  0.21

Nlocal:    19652 ave 19652 max 19652 min
Histogram: 1 0 0 0 0 0 0 0 0 0
Nghost:    21065 ave 21065 max 21065 min
Histogram: 1 0 0 0 0 0 0 0 0 0
Neighs:    2.07364e+06 ave 2.07364e+06 max 2.07364e+06 min
Histogram: 1 0 0 0 0 0 0 0 0 0

Total # of neighbors = 2073637
Ave neighs/atom = 105.518
Neighbor list builds = 6172
Dangerous builds not checked
Setting up Verlet run ...
  Unit style    : metal
  Current step  : 346682
  Time step     : 0.001
Per MPI rank memory allocation (min/avg/max) = 19.73 | 19.73 | 19.73 Mbytes
Step Temp Press TotEng PotEng Enthalpy 
  346682     149.9307    433.05095   -67417.913   -67798.751   -67353.911 
  346684    149.97114    425.19484   -67417.913   -67798.853   -67355.072 
  347177    126.45248    459.22269    -67535.29   -67856.491   -67467.513 
Loop time of 81.0846 on 1 procs for 495 steps with 19652 atoms

Performance: 0.527 ns/day, 45.502 hours/ns, 6.105 timesteps/s
99.3% CPU use with 1 MPI tasks x no OpenMP threads

MPI task timing breakdown:
Section |  min time  |  avg time  |  max time  |%varavg| %total
---------------------------------------------------------------
Pair    | 44.449     | 44.449     | 44.449     |   0.0 | 54.82
Neigh   | 35.048     | 35.048     | 35.048     |   0.0 | 43.22
Comm    | 0.46516    | 0.46516    | 0.46516    |   0.0 |  0.57
Output  | 0.38963    | 0.38963    | 0.38963    |   0.0 |  0.48
Modify  | 0.5712     | 0.5712     | 0.5712     |   0.0 |  0.70
Other   |            | 0.162      |            |       |  0.20

Nlocal:    19652 ave 19652 max 19652 min
Histogram: 1 0 0 0 0 0 0 0 0 0
Nghost:    21056 ave 21056 max 21056 min
Histogram: 1 0 0 0 0 0 0 0 0 0
Neighs:    2.07713e+06 ave 2.07713e+06 max 2.07713e+06 min
Histogram: 1 0 0 0 0 0 0 0 0 0

Total # of neighbors = 2077134
Ave neighs/atom = 105.696
Neighbor list builds = 495
Dangerous builds not checked
Setting up Verlet run ...
  Unit style    : metal
  Current step  : 347177
  Time step     : 0.001
Per MPI rank memory allocation (min/avg/max) = 19.73 | 19.73 | 19.73 Mbytes
Step Temp Press TotEng PotEng Enthalpy 
  347177    126.45248    459.22269    -67535.29   -67856.491   -67467.513 
  353349    99.112698   -236.19535   -67677.561   -67929.316   -67712.382 
Loop time of 1119.53 on 1 procs for 6172 steps with 19652 atoms

Performance: 0.476 ns/day, 50.386 hours/ns, 5.513 timesteps/s
99.2% CPU use with 1 MPI tasks x no OpenMP threads

MPI task timing breakdown:
Section |  min time  |  avg time  |  max time  |%varavg| %total
---------------------------------------------------------------
Pair    | 623.2      | 623.2      | 623.2      |   0.0 | 55.67
Neigh   | 479.21     | 479.21     | 479.21     |   0.0 | 42.80
Comm    | 6.6677     | 6.6677     | 6.6677     |   0.0 |  0.60
Output  | 0.00015306 | 0.00015306 | 0.00015306 |   0.0 |  0.00
Modify  | 8.1401     | 8.1401     | 8.1401     |   0.0 |  0.73
Other   |            | 2.306      |            |       |  0.21

Nlocal:    19652 ave 19652 max 19652 min
Histogram: 1 0 0 0 0 0 0 0 0 0
Nghost:    21067 ave 21067 max 21067 min
Histogram: 1 0 0 0 0 0 0 0 0 0
Neighs:    2.07961e+06 ave 2.07961e+06 max 2.07961e+06 min
Histogram: 1 0 0 0 0 0 0 0 0 0

Total # of neighbors = 2079607
Ave neighs/atom = 105.822
Neighbor list builds = 6172
Dangerous builds not checked
Total wall time: 20:27:48
