LAMMPS (12 Dec 2018)
Lattice spacing in x,y,z = 4 4 4
Created orthogonal box = (0 0 0) to (68 68 68)
  1 by 1 by 1 MPI processor grid
Created 19652 atoms
  Time spent = 0.00377202 secs
Setting atom values ...
  19480 settings made for type/fraction
Neighbor list info ...
  update every 1 steps, delay 0 steps, check no
  max neighbors/atom: 2000, page size: 100000
  master list distance cutoff = 8.5
  ghost atom cutoff = 8.5
  binsize = 4.25, bins = 16 16 16
  1 neighbor lists, perpetual/occasional/extra = 1 0 0
  (1) pair eam/alloy, perpetual
      attributes: half, newton on
      pair build: half/bin/atomonly/newton
      stencil: half/bin/3d/newton
      bin: standard
Setting up Verlet run ...
  Unit style    : metal
  Current step  : 0
  Time step     : 0.001
Per MPI rank memory allocation (min/avg/max) = 18.19 | 18.19 | 18.19 Mbytes
Step Temp Press TotEng PotEng Enthalpy 
       0          300   -183049.92   -61915.329   -62677.356   -97839.431 
    1000    520.72086   -80872.515    -61915.36   -63238.038   -77786.837 
Loop time of 163.416 on 1 procs for 1000 steps with 19652 atoms

Performance: 0.529 ns/day, 45.393 hours/ns, 6.119 timesteps/s
99.7% CPU use with 1 MPI tasks x no OpenMP threads

MPI task timing breakdown:
Section |  min time  |  avg time  |  max time  |%varavg| %total
---------------------------------------------------------------
Pair    | 91.899     | 91.899     | 91.899     |   0.0 | 56.24
Neigh   | 69.298     | 69.298     | 69.298     |   0.0 | 42.41
Comm    | 1.3207     | 1.3207     | 1.3207     |   0.0 |  0.81
Output  | 0.00043297 | 0.00043297 | 0.00043297 |   0.0 |  0.00
Modify  | 0.47395    | 0.47395    | 0.47395    |   0.0 |  0.29
Other   |            | 0.4236     |            |       |  0.26

Nlocal:    19652 ave 19652 max 19652 min
Histogram: 1 0 0 0 0 0 0 0 0 0
Nghost:    19237 ave 19237 max 19237 min
Histogram: 1 0 0 0 0 0 0 0 0 0
Neighs:    1.58225e+06 ave 1.58225e+06 max 1.58225e+06 min
Histogram: 1 0 0 0 0 0 0 0 0 0

Total # of neighbors = 1582250
Ave neighs/atom = 80.5134
Neighbor list builds = 1000
Dangerous builds not checked
Setting up Verlet run ...
  Unit style    : metal
  Current step  : 1000
  Time step     : 0.001
Per MPI rank memory allocation (min/avg/max) = 18.19 | 18.19 | 18.19 Mbytes
Step Temp Press TotEng PotEng Enthalpy 
    1000    520.72086   -80872.515    -61915.36   -63238.038   -77786.837 
    2000    393.78276   -2069.4708   -66460.512   -67460.756     -66778.2 
Loop time of 208.034 on 1 procs for 1000 steps with 19652 atoms

Performance: 0.415 ns/day, 57.787 hours/ns, 4.807 timesteps/s
99.8% CPU use with 1 MPI tasks x no OpenMP threads

MPI task timing breakdown:
Section |  min time  |  avg time  |  max time  |%varavg| %total
---------------------------------------------------------------
Pair    | 115.47     | 115.47     | 115.47     |   0.0 | 55.51
Neigh   | 89.344     | 89.344     | 89.344     |   0.0 | 42.95
Comm    | 1.2371     | 1.2371     | 1.2371     |   0.0 |  0.59
Output  | 0.00021005 | 0.00021005 | 0.00021005 |   0.0 |  0.00
Modify  | 1.55       | 1.55       | 1.55       |   0.0 |  0.75
Other   |            | 0.4291     |            |       |  0.21

Nlocal:    19652 ave 19652 max 19652 min
Histogram: 1 0 0 0 0 0 0 0 0 0
Nghost:    20372 ave 20372 max 20372 min
Histogram: 1 0 0 0 0 0 0 0 0 0
Neighs:    1.9971e+06 ave 1.9971e+06 max 1.9971e+06 min
Histogram: 1 0 0 0 0 0 0 0 0 0

Total # of neighbors = 1997100
Ave neighs/atom = 101.623
Neighbor list builds = 1000
Dangerous builds not checked
Setting up Verlet run ...
  Unit style    : metal
  Current step  : 2000
  Time step     : 0.001
Per MPI rank memory allocation (min/avg/max) = 19.34 | 19.34 | 19.34 Mbytes
Step Temp Press TotEng PotEng Enthalpy 
    2000    393.78276   -2069.4708   -66460.512   -67460.756     -66778.2 
    6667    1508.5756   -602.22654   -60670.195   -64502.115   -60767.825 
   10000    2454.8237   -486.27526   -53590.119   -59825.595   -53679.181 
Loop time of 1650 on 1 procs for 8000 steps with 19652 atoms

Performance: 0.419 ns/day, 57.292 hours/ns, 4.848 timesteps/s
99.7% CPU use with 1 MPI tasks x no OpenMP threads

MPI task timing breakdown:
Section |  min time  |  avg time  |  max time  |%varavg| %total
---------------------------------------------------------------
Pair    | 906.3      | 906.3      | 906.3      |   0.0 | 54.93
Neigh   | 717.73     | 717.73     | 717.73     |   0.0 | 43.50
Comm    | 9.9204     | 9.9204     | 9.9204     |   0.0 |  0.60
Output  | 0.062993   | 0.062993   | 0.062993   |   0.0 |  0.00
Modify  | 12.544     | 12.544     | 12.544     |   0.0 |  0.76
Other   |            | 3.448      |            |       |  0.21

Nlocal:    19652 ave 19652 max 19652 min
Histogram: 1 0 0 0 0 0 0 0 0 0
Nghost:    19230 ave 19230 max 19230 min
Histogram: 1 0 0 0 0 0 0 0 0 0
Neighs:    1.67966e+06 ave 1.67966e+06 max 1.67966e+06 min
Histogram: 1 0 0 0 0 0 0 0 0 0

Total # of neighbors = 1679657
Ave neighs/atom = 85.47
Neighbor list builds = 8000
Dangerous builds not checked
Setting up Verlet run ...
  Unit style    : metal
  Current step  : 10000
  Time step     : 0.001
Per MPI rank memory allocation (min/avg/max) = 19.34 | 19.34 | 19.34 Mbytes
Step Temp Press TotEng PotEng Enthalpy 
   10000    2454.8237   -486.27526   -53590.119   -59825.595   -53679.181 
   13334    2447.7043    1026.8192   -53589.652   -59807.044   -53401.848 
   20001    2437.2027   -1494.4535   -53616.138   -59806.855   -53890.284 
   26668    2457.7807    1153.8948   -53585.383    -59828.37    -53374.45 
   33335    2448.0647   -679.88797   -53585.682   -59803.989   -53710.275 
   40000    2458.9896    760.19465   -53513.514   -59759.572   -53374.245 
Loop time of 5630.52 on 1 procs for 30000 steps with 19652 atoms

Performance: 0.460 ns/day, 52.134 hours/ns, 5.328 timesteps/s
99.6% CPU use with 1 MPI tasks x no OpenMP threads

MPI task timing breakdown:
Section |  min time  |  avg time  |  max time  |%varavg| %total
---------------------------------------------------------------
Pair    | 3097.3     | 3097.3     | 3097.3     |   0.0 | 55.01
Neigh   | 2442.4     | 2442.4     | 2442.4     |   0.0 | 43.38
Comm    | 34.861     | 34.861     | 34.861     |   0.0 |  0.62
Output  | 0.25818    | 0.25818    | 0.25818    |   0.0 |  0.00
Modify  | 43.86      | 43.86      | 43.86      |   0.0 |  0.78
Other   |            | 11.85      |            |       |  0.21

Nlocal:    19652 ave 19652 max 19652 min
Histogram: 1 0 0 0 0 0 0 0 0 0
Nghost:    19251 ave 19251 max 19251 min
Histogram: 1 0 0 0 0 0 0 0 0 0
Neighs:    1.67906e+06 ave 1.67906e+06 max 1.67906e+06 min
Histogram: 1 0 0 0 0 0 0 0 0 0

Total # of neighbors = 1679063
Ave neighs/atom = 85.4398
Neighbor list builds = 30000
Dangerous builds not checked
Setting up Verlet run ...
  Unit style    : metal
  Current step  : 40000
  Time step     : 0.001
Per MPI rank memory allocation (min/avg/max) = 19.34 | 19.34 | 19.34 Mbytes
Step Temp Press TotEng PotEng Enthalpy 
   40000    2458.9896    760.19465   -53513.514   -59759.572   -53374.245 
   40002    2459.2209    769.92999   -53513.525    -59760.17   -53372.472 
   40495    2416.4478    143.33847   -53712.289   -59850.286   -53686.086 
Loop time of 80.7226 on 1 procs for 495 steps with 19652 atoms

Performance: 0.530 ns/day, 45.299 hours/ns, 6.132 timesteps/s
99.9% CPU use with 1 MPI tasks x no OpenMP threads

MPI task timing breakdown:
Section |  min time  |  avg time  |  max time  |%varavg| %total
---------------------------------------------------------------
Pair    | 44.063     | 44.063     | 44.063     |   0.0 | 54.59
Neigh   | 35.252     | 35.252     | 35.252     |   0.0 | 43.67
Comm    | 0.52238    | 0.52238    | 0.52238    |   0.0 |  0.65
Output  | 0.052766   | 0.052766   | 0.052766   |   0.0 |  0.07
Modify  | 0.64881    | 0.64881    | 0.64881    |   0.0 |  0.80
Other   |            | 0.184      |            |       |  0.23

Nlocal:    19652 ave 19652 max 19652 min
Histogram: 1 0 0 0 0 0 0 0 0 0
Nghost:    19296 ave 19296 max 19296 min
Histogram: 1 0 0 0 0 0 0 0 0 0
Neighs:    1.68331e+06 ave 1.68331e+06 max 1.68331e+06 min
Histogram: 1 0 0 0 0 0 0 0 0 0

Total # of neighbors = 1683313
Ave neighs/atom = 85.6561
Neighbor list builds = 495
Dangerous builds not checked
Setting up Verlet run ...
  Unit style    : metal
  Current step  : 40495
  Time step     : 0.001
Per MPI rank memory allocation (min/avg/max) = 19.34 | 19.34 | 19.34 Mbytes
Step Temp Press TotEng PotEng Enthalpy 
   40495    2416.4478    143.33847   -53712.289   -59850.286   -53686.086 
   46667    2419.8106   -1379.0247   -53765.914   -59912.454   -54018.021 
Loop time of 993.749 on 1 procs for 6172 steps with 19652 atoms

Performance: 0.537 ns/day, 44.725 hours/ns, 6.211 timesteps/s
99.9% CPU use with 1 MPI tasks x no OpenMP threads

MPI task timing breakdown:
Section |  min time  |  avg time  |  max time  |%varavg| %total
---------------------------------------------------------------
Pair    | 542.36     | 542.36     | 542.36     |   0.0 | 54.58
Neigh   | 435.23     | 435.23     | 435.23     |   0.0 | 43.80
Comm    | 6.2938     | 6.2938     | 6.2938     |   0.0 |  0.63
Output  | 0.00016809 | 0.00016809 | 0.00016809 |   0.0 |  0.00
Modify  | 7.7078     | 7.7078     | 7.7078     |   0.0 |  0.78
Other   |            | 2.151      |            |       |  0.22

Nlocal:    19652 ave 19652 max 19652 min
Histogram: 1 0 0 0 0 0 0 0 0 0
Nghost:    19297 ave 19297 max 19297 min
Histogram: 1 0 0 0 0 0 0 0 0 0
Neighs:    1.6827e+06 ave 1.6827e+06 max 1.6827e+06 min
Histogram: 1 0 0 0 0 0 0 0 0 0

Total # of neighbors = 1682701
Ave neighs/atom = 85.6249
Neighbor list builds = 6172
Dangerous builds not checked
Setting up Verlet run ...
  Unit style    : metal
  Current step  : 46667
  Time step     : 0.001
Per MPI rank memory allocation (min/avg/max) = 19.34 | 19.34 | 19.34 Mbytes
Step Temp Press TotEng PotEng Enthalpy 
   46667    2419.8106   -1379.0247   -53765.914   -59912.454   -54018.021 
   46669     2419.868   -1360.6682   -53765.941   -59912.627   -54014.693 
   47162    2360.7143    175.38168   -54071.973   -60068.403   -54040.104 
Loop time of 74.4962 on 1 procs for 495 steps with 19652 atoms

Performance: 0.574 ns/day, 41.805 hours/ns, 6.645 timesteps/s
100.0% CPU use with 1 MPI tasks x no OpenMP threads

MPI task timing breakdown:
Section |  min time  |  avg time  |  max time  |%varavg| %total
---------------------------------------------------------------
Pair    | 40.366     | 40.366     | 40.366     |   0.0 | 54.19
Neigh   | 32.83      | 32.83      | 32.83      |   0.0 | 44.07
Comm    | 0.47599    | 0.47599    | 0.47599    |   0.0 |  0.64
Output  | 0.059439   | 0.059439   | 0.059439   |   0.0 |  0.08
Modify  | 0.59605    | 0.59605    | 0.59605    |   0.0 |  0.80
Other   |            | 0.1689     |            |       |  0.23

Nlocal:    19652 ave 19652 max 19652 min
Histogram: 1 0 0 0 0 0 0 0 0 0
Nghost:    19328 ave 19328 max 19328 min
Histogram: 1 0 0 0 0 0 0 0 0 0
Neighs:    1.69301e+06 ave 1.69301e+06 max 1.69301e+06 min
Histogram: 1 0 0 0 0 0 0 0 0 0

Total # of neighbors = 1693014
Ave neighs/atom = 86.1497
Neighbor list builds = 495
Dangerous builds not checked
Setting up Verlet run ...
  Unit style    : metal
  Current step  : 47162
  Time step     : 0.001
Per MPI rank memory allocation (min/avg/max) = 19.34 | 19.34 | 19.34 Mbytes
Step Temp Press TotEng PotEng Enthalpy 
   47162    2360.7143    175.38168   -54071.973   -60068.403   -54040.104 
   53334    2333.5026     824.9087   -54162.979   -60090.288   -54013.306 
Loop time of 996.796 on 1 procs for 6172 steps with 19652 atoms

Performance: 0.535 ns/day, 44.862 hours/ns, 6.192 timesteps/s
99.9% CPU use with 1 MPI tasks x no OpenMP threads

MPI task timing breakdown:
Section |  min time  |  avg time  |  max time  |%varavg| %total
---------------------------------------------------------------
Pair    | 544.06     | 544.06     | 544.06     |   0.0 | 54.58
Neigh   | 436.72     | 436.72     | 436.72     |   0.0 | 43.81
Comm    | 6.2313     | 6.2313     | 6.2313     |   0.0 |  0.63
Output  | 0.00017405 | 0.00017405 | 0.00017405 |   0.0 |  0.00
Modify  | 7.6664     | 7.6664     | 7.6664     |   0.0 |  0.77
Other   |            | 2.123      |            |       |  0.21

Nlocal:    19652 ave 19652 max 19652 min
Histogram: 1 0 0 0 0 0 0 0 0 0
Nghost:    19396 ave 19396 max 19396 min
Histogram: 1 0 0 0 0 0 0 0 0 0
Neighs:    1.69496e+06 ave 1.69496e+06 max 1.69496e+06 min
Histogram: 1 0 0 0 0 0 0 0 0 0

Total # of neighbors = 1694958
Ave neighs/atom = 86.2486
Neighbor list builds = 6172
Dangerous builds not checked
Setting up Verlet run ...
  Unit style    : metal
  Current step  : 53334
  Time step     : 0.001
Per MPI rank memory allocation (min/avg/max) = 19.34 | 19.34 | 19.34 Mbytes
Step Temp Press TotEng PotEng Enthalpy 
   53334    2333.5026     824.9087   -54162.979   -60090.288   -54013.306 
   53336    2333.8931    765.34723    -54162.96   -60091.262   -54024.095 
   53829    2319.1832   -27.612697   -54279.189   -60170.126   -54284.194 
Loop time of 79.0425 on 1 procs for 495 steps with 19652 atoms

Performance: 0.541 ns/day, 44.356 hours/ns, 6.262 timesteps/s
99.1% CPU use with 1 MPI tasks x no OpenMP threads

MPI task timing breakdown:
Section |  min time  |  avg time  |  max time  |%varavg| %total
---------------------------------------------------------------
Pair    | 42.948     | 42.948     | 42.948     |   0.0 | 54.34
Neigh   | 34.76      | 34.76      | 34.76      |   0.0 | 43.98
Comm    | 0.49645    | 0.49645    | 0.49645    |   0.0 |  0.63
Output  | 0.042795   | 0.042795   | 0.042795   |   0.0 |  0.05
Modify  | 0.62469    | 0.62469    | 0.62469    |   0.0 |  0.79
Other   |            | 0.1706     |            |       |  0.22

Nlocal:    19652 ave 19652 max 19652 min
Histogram: 1 0 0 0 0 0 0 0 0 0
Nghost:    19334 ave 19334 max 19334 min
Histogram: 1 0 0 0 0 0 0 0 0 0
Neighs:    1.69627e+06 ave 1.69627e+06 max 1.69627e+06 min
Histogram: 1 0 0 0 0 0 0 0 0 0

Total # of neighbors = 1696268
Ave neighs/atom = 86.3153
Neighbor list builds = 495
Dangerous builds not checked
Setting up Verlet run ...
  Unit style    : metal
  Current step  : 53829
  Time step     : 0.001
Per MPI rank memory allocation (min/avg/max) = 19.34 | 19.34 | 19.34 Mbytes
Step Temp Press TotEng PotEng Enthalpy 
   53829    2319.1832   -27.612697   -54279.189   -60170.126   -54284.194 
   60001     2288.067   -2009.0393    -54449.62   -60261.518   -54813.614 
Loop time of 1045.04 on 1 procs for 6172 steps with 19652 atoms

Performance: 0.510 ns/day, 47.033 hours/ns, 5.906 timesteps/s
99.9% CPU use with 1 MPI tasks x no OpenMP threads

MPI task timing breakdown:
Section |  min time  |  avg time  |  max time  |%varavg| %total
---------------------------------------------------------------
Pair    | 572.07     | 572.07     | 572.07     |   0.0 | 54.74
Neigh   | 456.32     | 456.32     | 456.32     |   0.0 | 43.67
Comm    | 6.461      | 6.461      | 6.461      |   0.0 |  0.62
Output  | 0.00022292 | 0.00022292 | 0.00022292 |   0.0 |  0.00
Modify  | 8.0067     | 8.0067     | 8.0067     |   0.0 |  0.77
Other   |            | 2.182      |            |       |  0.21

Nlocal:    19652 ave 19652 max 19652 min
Histogram: 1 0 0 0 0 0 0 0 0 0
Nghost:    19380 ave 19380 max 19380 min
Histogram: 1 0 0 0 0 0 0 0 0 0
Neighs:    1.69727e+06 ave 1.69727e+06 max 1.69727e+06 min
Histogram: 1 0 0 0 0 0 0 0 0 0

Total # of neighbors = 1697270
Ave neighs/atom = 86.3663
Neighbor list builds = 6172
Dangerous builds not checked
Setting up Verlet run ...
  Unit style    : metal
  Current step  : 60001
  Time step     : 0.001
Per MPI rank memory allocation (min/avg/max) = 19.34 | 19.34 | 19.34 Mbytes
Step Temp Press TotEng PotEng Enthalpy 
   60001     2288.067   -2009.0393    -54449.62   -60261.518   -54813.614 
   60003    2288.6607   -2033.1493   -54449.609   -60263.016   -54817.972 
   60496    2249.3221   -1373.1692   -54615.839   -60329.322   -54863.925 
Loop time of 89.3953 on 1 procs for 495 steps with 19652 atoms

Performance: 0.478 ns/day, 50.166 hours/ns, 5.537 timesteps/s
99.9% CPU use with 1 MPI tasks x no OpenMP threads

MPI task timing breakdown:
Section |  min time  |  avg time  |  max time  |%varavg| %total
---------------------------------------------------------------
Pair    | 49.175     | 49.175     | 49.175     |   0.0 | 55.01
Neigh   | 38.7       | 38.7       | 38.7       |   0.0 | 43.29
Comm    | 0.55752    | 0.55752    | 0.55752    |   0.0 |  0.62
Output  | 0.069075   | 0.069075   | 0.069075   |   0.0 |  0.08
Modify  | 0.70541    | 0.70541    | 0.70541    |   0.0 |  0.79
Other   |            | 0.1885     |            |       |  0.21

Nlocal:    19652 ave 19652 max 19652 min
Histogram: 1 0 0 0 0 0 0 0 0 0
Nghost:    19342 ave 19342 max 19342 min
Histogram: 1 0 0 0 0 0 0 0 0 0
Neighs:    1.70208e+06 ave 1.70208e+06 max 1.70208e+06 min
Histogram: 1 0 0 0 0 0 0 0 0 0

Total # of neighbors = 1702079
Ave neighs/atom = 86.611
Neighbor list builds = 495
Dangerous builds not checked
Setting up Verlet run ...
  Unit style    : metal
  Current step  : 60496
  Time step     : 0.001
Per MPI rank memory allocation (min/avg/max) = 19.34 | 19.34 | 19.34 Mbytes
Step Temp Press TotEng PotEng Enthalpy 
   60496    2249.3221   -1373.1692   -54615.839   -60329.322   -54863.925 
   66668     2257.914    947.26294   -54711.706   -60447.013   -54541.446 
Loop time of 1116.54 on 1 procs for 6172 steps with 19652 atoms

Performance: 0.478 ns/day, 50.251 hours/ns, 5.528 timesteps/s
99.9% CPU use with 1 MPI tasks x no OpenMP threads

MPI task timing breakdown:
Section |  min time  |  avg time  |  max time  |%varavg| %total
---------------------------------------------------------------
Pair    | 614.48     | 614.48     | 614.48     |   0.0 | 55.03
Neigh   | 484.09     | 484.09     | 484.09     |   0.0 | 43.36
Comm    | 6.9471     | 6.9471     | 6.9471     |   0.0 |  0.62
Output  | 0.00018787 | 0.00018787 | 0.00018787 |   0.0 |  0.00
Modify  | 8.6708     | 8.6708     | 8.6708     |   0.0 |  0.78
Other   |            | 2.352      |            |       |  0.21

Nlocal:    19652 ave 19652 max 19652 min
Histogram: 1 0 0 0 0 0 0 0 0 0
Nghost:    19360 ave 19360 max 19360 min
Histogram: 1 0 0 0 0 0 0 0 0 0
Neighs:    1.71155e+06 ave 1.71155e+06 max 1.71155e+06 min
Histogram: 1 0 0 0 0 0 0 0 0 0

Total # of neighbors = 1711546
Ave neighs/atom = 87.0927
Neighbor list builds = 6172
Dangerous builds not checked
Setting up Verlet run ...
  Unit style    : metal
  Current step  : 66668
  Time step     : 0.001
Per MPI rank memory allocation (min/avg/max) = 19.34 | 19.34 | 19.34 Mbytes
Step Temp Press TotEng PotEng Enthalpy 
   66668     2257.914    947.26294   -54711.706   -60447.013   -54541.446 
   66670    2256.0529    1003.0209   -54711.708   -60442.288   -54531.426 
   67163    2209.9865     1308.326   -54912.727   -60526.295   -54678.372 
Loop time of 87.0635 on 1 procs for 495 steps with 19652 atoms

Performance: 0.491 ns/day, 48.857 hours/ns, 5.686 timesteps/s
99.9% CPU use with 1 MPI tasks x no OpenMP threads

MPI task timing breakdown:
Section |  min time  |  avg time  |  max time  |%varavg| %total
---------------------------------------------------------------
Pair    | 48.101     | 48.101     | 48.101     |   0.0 | 55.25
Neigh   | 37.428     | 37.428     | 37.428     |   0.0 | 42.99
Comm    | 0.56627    | 0.56627    | 0.56627    |   0.0 |  0.65
Output  | 0.06122    | 0.06122    | 0.06122    |   0.0 |  0.07
Modify  | 0.70854    | 0.70854    | 0.70854    |   0.0 |  0.81
Other   |            | 0.1987     |            |       |  0.23

Nlocal:    19652 ave 19652 max 19652 min
Histogram: 1 0 0 0 0 0 0 0 0 0
Nghost:    19432 ave 19432 max 19432 min
Histogram: 1 0 0 0 0 0 0 0 0 0
Neighs:    1.71646e+06 ave 1.71646e+06 max 1.71646e+06 min
Histogram: 1 0 0 0 0 0 0 0 0 0

Total # of neighbors = 1716465
Ave neighs/atom = 87.343
Neighbor list builds = 495
Dangerous builds not checked
Setting up Verlet run ...
  Unit style    : metal
  Current step  : 67163
  Time step     : 0.001
Per MPI rank memory allocation (min/avg/max) = 19.34 | 19.34 | 19.34 Mbytes
Step Temp Press TotEng PotEng Enthalpy 
   67163    2209.9865     1308.326   -54912.727   -60526.295   -54678.372 
   73335    2206.7943   -120.31405   -54956.288   -60561.747    -54977.86 
Loop time of 1143.39 on 1 procs for 6172 steps with 19652 atoms

Performance: 0.466 ns/day, 51.460 hours/ns, 5.398 timesteps/s
99.9% CPU use with 1 MPI tasks x no OpenMP threads

MPI task timing breakdown:
Section |  min time  |  avg time  |  max time  |%varavg| %total
---------------------------------------------------------------
Pair    | 635.08     | 635.08     | 635.08     |   0.0 | 55.54
Neigh   | 489.9      | 489.9      | 489.9      |   0.0 | 42.85
Comm    | 7.1891     | 7.1891     | 7.1891     |   0.0 |  0.63
Output  | 0.00015783 | 0.00015783 | 0.00015783 |   0.0 |  0.00
Modify  | 8.8018     | 8.8018     | 8.8018     |   0.0 |  0.77
Other   |            | 2.424      |            |       |  0.21

Nlocal:    19652 ave 19652 max 19652 min
Histogram: 1 0 0 0 0 0 0 0 0 0
Nghost:    19547 ave 19547 max 19547 min
Histogram: 1 0 0 0 0 0 0 0 0 0
Neighs:    1.71546e+06 ave 1.71546e+06 max 1.71546e+06 min
Histogram: 1 0 0 0 0 0 0 0 0 0

Total # of neighbors = 1715456
Ave neighs/atom = 87.2917
Neighbor list builds = 6172
Dangerous builds not checked
Setting up Verlet run ...
  Unit style    : metal
  Current step  : 73335
  Time step     : 0.001
Per MPI rank memory allocation (min/avg/max) = 19.34 | 19.34 | 19.34 Mbytes
Step Temp Press TotEng PotEng Enthalpy 
   73335    2206.7943   -120.31405   -54956.288   -60561.747    -54977.86 
   73337    2206.6571   -117.83747   -54956.299   -60561.409   -54977.426 
   73830    2152.0401    983.24252   -55243.604   -60709.982   -55068.177 
Loop time of 84.6594 on 1 procs for 495 steps with 19652 atoms

Performance: 0.505 ns/day, 47.508 hours/ns, 5.847 timesteps/s
99.9% CPU use with 1 MPI tasks x no OpenMP threads

MPI task timing breakdown:
Section |  min time  |  avg time  |  max time  |%varavg| %total
---------------------------------------------------------------
Pair    | 46.616     | 46.616     | 46.616     |   0.0 | 55.06
Neigh   | 36.604     | 36.604     | 36.604     |   0.0 | 43.24
Comm    | 0.532      | 0.532      | 0.532      |   0.0 |  0.63
Output  | 0.055054   | 0.055054   | 0.055054   |   0.0 |  0.07
Modify  | 0.6663     | 0.6663     | 0.6663     |   0.0 |  0.79
Other   |            | 0.1851     |            |       |  0.22

Nlocal:    19652 ave 19652 max 19652 min
Histogram: 1 0 0 0 0 0 0 0 0 0
Nghost:    19522 ave 19522 max 19522 min
Histogram: 1 0 0 0 0 0 0 0 0 0
Neighs:    1.72364e+06 ave 1.72364e+06 max 1.72364e+06 min
Histogram: 1 0 0 0 0 0 0 0 0 0

Total # of neighbors = 1723645
Ave neighs/atom = 87.7084
Neighbor list builds = 495
Dangerous builds not checked
Setting up Verlet run ...
  Unit style    : metal
  Current step  : 73830
  Time step     : 0.001
Per MPI rank memory allocation (min/avg/max) = 19.34 | 19.34 | 19.34 Mbytes
Step Temp Press TotEng PotEng Enthalpy 
   73830    2152.0401    983.24252   -55243.604   -60709.982   -55068.177 
   80002    2150.9961     958.6253   -55354.853   -60818.579   -55184.371 
Loop time of 1098.67 on 1 procs for 6172 steps with 19652 atoms

Performance: 0.485 ns/day, 49.447 hours/ns, 5.618 timesteps/s
99.9% CPU use with 1 MPI tasks x no OpenMP threads

MPI task timing breakdown:
Section |  min time  |  avg time  |  max time  |%varavg| %total
---------------------------------------------------------------
Pair    | 608.1      | 608.1      | 608.1      |   0.0 | 55.35
Neigh   | 473.18     | 473.18     | 473.18     |   0.0 | 43.07
Comm    | 6.7626     | 6.7626     | 6.7626     |   0.0 |  0.62
Output  | 0.00018311 | 0.00018311 | 0.00018311 |   0.0 |  0.00
Modify  | 8.3656     | 8.3656     | 8.3656     |   0.0 |  0.76
Other   |            | 2.272      |            |       |  0.21

Nlocal:    19652 ave 19652 max 19652 min
Histogram: 1 0 0 0 0 0 0 0 0 0
Nghost:    19601 ave 19601 max 19601 min
Histogram: 1 0 0 0 0 0 0 0 0 0
Neighs:    1.72936e+06 ave 1.72936e+06 max 1.72936e+06 min
Histogram: 1 0 0 0 0 0 0 0 0 0

Total # of neighbors = 1729362
Ave neighs/atom = 87.9993
Neighbor list builds = 6172
Dangerous builds not checked
Setting up Verlet run ...
  Unit style    : metal
  Current step  : 80002
  Time step     : 0.001
Per MPI rank memory allocation (min/avg/max) = 19.34 | 19.34 | 19.34 Mbytes
Step Temp Press TotEng PotEng Enthalpy 
   80002    2150.9961     958.6253   -55354.853   -60818.579   -55184.371 
   80004    2150.5848    962.41542    -55354.85   -60817.531   -55183.694 
   80497    2112.8415    657.97531   -55468.703   -60835.513   -55351.624 
Loop time of 81.7733 on 1 procs for 495 steps with 19652 atoms

Performance: 0.523 ns/day, 45.889 hours/ns, 6.053 timesteps/s
99.9% CPU use with 1 MPI tasks x no OpenMP threads

MPI task timing breakdown:
Section |  min time  |  avg time  |  max time  |%varavg| %total
---------------------------------------------------------------
Pair    | 44.801     | 44.801     | 44.801     |   0.0 | 54.79
Neigh   | 35.594     | 35.594     | 35.594     |   0.0 | 43.53
Comm    | 0.51277    | 0.51277    | 0.51277    |   0.0 |  0.63
Output  | 0.057149   | 0.057149   | 0.057149   |   0.0 |  0.07
Modify  | 0.63419    | 0.63419    | 0.63419    |   0.0 |  0.78
Other   |            | 0.1741     |            |       |  0.21

Nlocal:    19652 ave 19652 max 19652 min
Histogram: 1 0 0 0 0 0 0 0 0 0
Nghost:    19478 ave 19478 max 19478 min
Histogram: 1 0 0 0 0 0 0 0 0 0
Neighs:    1.72804e+06 ave 1.72804e+06 max 1.72804e+06 min
Histogram: 1 0 0 0 0 0 0 0 0 0

Total # of neighbors = 1728038
Ave neighs/atom = 87.9319
Neighbor list builds = 495
Dangerous builds not checked
Setting up Verlet run ...
  Unit style    : metal
  Current step  : 80497
  Time step     : 0.001
Per MPI rank memory allocation (min/avg/max) = 19.34 | 19.34 | 19.34 Mbytes
Step Temp Press TotEng PotEng Enthalpy 
   80497    2112.8415    657.97531   -55468.703   -60835.513   -55351.624 
   86669    2093.7548    182.01121   -55635.579   -60953.906   -55603.302 
Loop time of 1188.01 on 1 procs for 6172 steps with 19652 atoms

Performance: 0.449 ns/day, 53.468 hours/ns, 5.195 timesteps/s
99.8% CPU use with 1 MPI tasks x no OpenMP threads

MPI task timing breakdown:
Section |  min time  |  avg time  |  max time  |%varavg| %total
---------------------------------------------------------------
Pair    | 662.98     | 662.98     | 662.98     |   0.0 | 55.81
Neigh   | 505.96     | 505.96     | 505.96     |   0.0 | 42.59
Comm    | 7.4087     | 7.4087     | 7.4087     |   0.0 |  0.62
Output  | 0.00037909 | 0.00037909 | 0.00037909 |   0.0 |  0.00
Modify  | 9.1315     | 9.1315     | 9.1315     |   0.0 |  0.77
Other   |            | 2.526      |            |       |  0.21

Nlocal:    19652 ave 19652 max 19652 min
Histogram: 1 0 0 0 0 0 0 0 0 0
Nghost:    19458 ave 19458 max 19458 min
Histogram: 1 0 0 0 0 0 0 0 0 0
Neighs:    1.73364e+06 ave 1.73364e+06 max 1.73364e+06 min
Histogram: 1 0 0 0 0 0 0 0 0 0

Total # of neighbors = 1733635
Ave neighs/atom = 88.2167
Neighbor list builds = 6172
Dangerous builds not checked
Setting up Verlet run ...
  Unit style    : metal
  Current step  : 86669
  Time step     : 0.001
Per MPI rank memory allocation (min/avg/max) = 19.34 | 19.34 | 19.34 Mbytes
Step Temp Press TotEng PotEng Enthalpy 
   86669    2093.7548    182.01121   -55635.579   -60953.906   -55603.302 
   86671    2094.3807    167.19282   -55635.574   -60955.491   -55605.925 
   87164    2074.1417   -1070.1341   -55735.798   -61004.307   -55925.668 
Loop time of 90.9546 on 1 procs for 495 steps with 19652 atoms

Performance: 0.470 ns/day, 51.041 hours/ns, 5.442 timesteps/s
99.9% CPU use with 1 MPI tasks x no OpenMP threads

MPI task timing breakdown:
Section |  min time  |  avg time  |  max time  |%varavg| %total
---------------------------------------------------------------
Pair    | 50.806     | 50.806     | 50.806     |   0.0 | 55.86
Neigh   | 38.563     | 38.563     | 38.563     |   0.0 | 42.40
Comm    | 0.58309    | 0.58309    | 0.58309    |   0.0 |  0.64
Output  | 0.068628   | 0.068628   | 0.068628   |   0.0 |  0.08
Modify  | 0.73159    | 0.73159    | 0.73159    |   0.0 |  0.80
Other   |            | 0.2022     |            |       |  0.22

Nlocal:    19652 ave 19652 max 19652 min
Histogram: 1 0 0 0 0 0 0 0 0 0
Nghost:    19501 ave 19501 max 19501 min
Histogram: 1 0 0 0 0 0 0 0 0 0
Neighs:    1.73252e+06 ave 1.73252e+06 max 1.73252e+06 min
Histogram: 1 0 0 0 0 0 0 0 0 0

Total # of neighbors = 1732521
Ave neighs/atom = 88.16
Neighbor list builds = 495
Dangerous builds not checked
Setting up Verlet run ...
  Unit style    : metal
  Current step  : 87164
  Time step     : 0.001
Per MPI rank memory allocation (min/avg/max) = 19.34 | 19.34 | 19.34 Mbytes
Step Temp Press TotEng PotEng Enthalpy 
   87164    2074.1417   -1070.1341   -55735.798   -61004.307   -55925.668 
   93336     2059.624      995.379   -55894.847    -61126.48   -55719.326 
Loop time of 1232.59 on 1 procs for 6172 steps with 19652 atoms

Performance: 0.433 ns/day, 55.474 hours/ns, 5.007 timesteps/s
99.8% CPU use with 1 MPI tasks x no OpenMP threads

MPI task timing breakdown:
Section |  min time  |  avg time  |  max time  |%varavg| %total
---------------------------------------------------------------
Pair    | 692.59     | 692.59     | 692.59     |   0.0 | 56.19
Neigh   | 520.22     | 520.22     | 520.22     |   0.0 | 42.21
Comm    | 7.7057     | 7.7057     | 7.7057     |   0.0 |  0.63
Output  | 0.00036383 | 0.00036383 | 0.00036383 |   0.0 |  0.00
Modify  | 9.4631     | 9.4631     | 9.4631     |   0.0 |  0.77
Other   |            | 2.617      |            |       |  0.21

Nlocal:    19652 ave 19652 max 19652 min
Histogram: 1 0 0 0 0 0 0 0 0 0
Nghost:    19525 ave 19525 max 19525 min
Histogram: 1 0 0 0 0 0 0 0 0 0
Neighs:    1.74353e+06 ave 1.74353e+06 max 1.74353e+06 min
Histogram: 1 0 0 0 0 0 0 0 0 0

Total # of neighbors = 1743527
Ave neighs/atom = 88.7201
Neighbor list builds = 6172
Dangerous builds not checked
Setting up Verlet run ...
  Unit style    : metal
  Current step  : 93336
  Time step     : 0.001
Per MPI rank memory allocation (min/avg/max) = 19.34 | 19.34 | 19.34 Mbytes
Step Temp Press TotEng PotEng Enthalpy 
   93336     2059.624      995.379   -55894.847    -61126.48   -55719.326 
   93338    2060.0028    998.42458   -55894.858   -61127.453     -55718.8 
   93831    2010.3005    1924.8163   -56112.306   -61218.652   -55773.975 
Loop time of 95.4171 on 1 procs for 495 steps with 19652 atoms

Performance: 0.448 ns/day, 53.545 hours/ns, 5.188 timesteps/s
99.9% CPU use with 1 MPI tasks x no OpenMP threads

MPI task timing breakdown:
Section |  min time  |  avg time  |  max time  |%varavg| %total
---------------------------------------------------------------
Pair    | 53.558     | 53.558     | 53.558     |   0.0 | 56.13
Neigh   | 40.216     | 40.216     | 40.216     |   0.0 | 42.15
Comm    | 0.60718    | 0.60718    | 0.60718    |   0.0 |  0.64
Output  | 0.066739   | 0.066739   | 0.066739   |   0.0 |  0.07
Modify  | 0.76027    | 0.76027    | 0.76027    |   0.0 |  0.80
Other   |            | 0.2086     |            |       |  0.22

Nlocal:    19652 ave 19652 max 19652 min
Histogram: 1 0 0 0 0 0 0 0 0 0
Nghost:    19589 ave 19589 max 19589 min
Histogram: 1 0 0 0 0 0 0 0 0 0
Neighs:    1.74849e+06 ave 1.74849e+06 max 1.74849e+06 min
Histogram: 1 0 0 0 0 0 0 0 0 0

Total # of neighbors = 1748491
Ave neighs/atom = 88.9727
Neighbor list builds = 495
Dangerous builds not checked
Setting up Verlet run ...
  Unit style    : metal
  Current step  : 93831
  Time step     : 0.001
Per MPI rank memory allocation (min/avg/max) = 19.34 | 19.34 | 19.34 Mbytes
Step Temp Press TotEng PotEng Enthalpy 
   93831    2010.3005    1924.8163   -56112.306   -61218.652   -55773.975 
  100003    2018.2051   -1511.7302   -56122.273   -61248.698   -56388.766 
Loop time of 1242.1 on 1 procs for 6172 steps with 19652 atoms

Performance: 0.429 ns/day, 55.902 hours/ns, 4.969 timesteps/s
99.8% CPU use with 1 MPI tasks x no OpenMP threads

MPI task timing breakdown:
Section |  min time  |  avg time  |  max time  |%varavg| %total
---------------------------------------------------------------
Pair    | 700.06     | 700.06     | 700.06     |   0.0 | 56.36
Neigh   | 522.11     | 522.11     | 522.11     |   0.0 | 42.03
Comm    | 7.7796     | 7.7796     | 7.7796     |   0.0 |  0.63
Output  | 0.00020909 | 0.00020909 | 0.00020909 |   0.0 |  0.00
Modify  | 9.5047     | 9.5047     | 9.5047     |   0.0 |  0.77
Other   |            | 2.651      |            |       |  0.21

Nlocal:    19652 ave 19652 max 19652 min
Histogram: 1 0 0 0 0 0 0 0 0 0
Nghost:    19525 ave 19525 max 19525 min
Histogram: 1 0 0 0 0 0 0 0 0 0
Neighs:    1.74402e+06 ave 1.74402e+06 max 1.74402e+06 min
Histogram: 1 0 0 0 0 0 0 0 0 0

Total # of neighbors = 1744018
Ave neighs/atom = 88.7451
Neighbor list builds = 6172
Dangerous builds not checked
Setting up Verlet run ...
  Unit style    : metal
  Current step  : 100003
  Time step     : 0.001
Per MPI rank memory allocation (min/avg/max) = 19.34 | 19.34 | 19.34 Mbytes
Step Temp Press TotEng PotEng Enthalpy 
  100003    2018.2051   -1511.7302   -56122.273   -61248.698   -56388.766 
  100005    2019.0867   -1570.0921   -56122.296    -61250.96   -56399.077 
  100498    1965.4066   -39.319293   -56407.733   -61400.045   -56414.626 
Loop time of 96.2319 on 1 procs for 495 steps with 19652 atoms

Performance: 0.444 ns/day, 54.002 hours/ns, 5.144 timesteps/s
99.9% CPU use with 1 MPI tasks x no OpenMP threads

MPI task timing breakdown:
Section |  min time  |  avg time  |  max time  |%varavg| %total
---------------------------------------------------------------
Pair    | 54.142     | 54.142     | 54.142     |   0.0 | 56.26
Neigh   | 40.435     | 40.435     | 40.435     |   0.0 | 42.02
Comm    | 0.60907    | 0.60907    | 0.60907    |   0.0 |  0.63
Output  | 0.068427   | 0.068427   | 0.068427   |   0.0 |  0.07
Modify  | 0.76763    | 0.76763    | 0.76763    |   0.0 |  0.80
Other   |            | 0.2098     |            |       |  0.22

Nlocal:    19652 ave 19652 max 19652 min
Histogram: 1 0 0 0 0 0 0 0 0 0
Nghost:    19634 ave 19634 max 19634 min
Histogram: 1 0 0 0 0 0 0 0 0 0
Neighs:    1.75356e+06 ave 1.75356e+06 max 1.75356e+06 min
Histogram: 1 0 0 0 0 0 0 0 0 0

Total # of neighbors = 1753560
Ave neighs/atom = 89.2306
Neighbor list builds = 495
Dangerous builds not checked
Setting up Verlet run ...
  Unit style    : metal
  Current step  : 100498
  Time step     : 0.001
Per MPI rank memory allocation (min/avg/max) = 19.34 | 19.34 | 19.34 Mbytes
Step Temp Press TotEng PotEng Enthalpy 
  100498    1965.4066   -39.319293   -56407.733   -61400.045   -56414.626 
  106670    1947.6689   -1445.3752   -56487.834   -61435.091   -56741.306 
Loop time of 1145.88 on 1 procs for 6172 steps with 19652 atoms

Performance: 0.465 ns/day, 51.572 hours/ns, 5.386 timesteps/s
99.9% CPU use with 1 MPI tasks x no OpenMP threads

MPI task timing breakdown:
Section |  min time  |  avg time  |  max time  |%varavg| %total
---------------------------------------------------------------
Pair    | 639.34     | 639.34     | 639.34     |   0.0 | 55.80
Neigh   | 488.33     | 488.33     | 488.33     |   0.0 | 42.62
Comm    | 7.0759     | 7.0759     | 7.0759     |   0.0 |  0.62
Output  | 0.00017095 | 0.00017095 | 0.00017095 |   0.0 |  0.00
Modify  | 8.744      | 8.744      | 8.744      |   0.0 |  0.76
Other   |            | 2.387      |            |       |  0.21

Nlocal:    19652 ave 19652 max 19652 min
Histogram: 1 0 0 0 0 0 0 0 0 0
Nghost:    19595 ave 19595 max 19595 min
Histogram: 1 0 0 0 0 0 0 0 0 0
Neighs:    1.7521e+06 ave 1.7521e+06 max 1.7521e+06 min
Histogram: 1 0 0 0 0 0 0 0 0 0

Total # of neighbors = 1752097
Ave neighs/atom = 89.1562
Neighbor list builds = 6172
Dangerous builds not checked
Setting up Verlet run ...
  Unit style    : metal
  Current step  : 106670
  Time step     : 0.001
Per MPI rank memory allocation (min/avg/max) = 19.34 | 19.34 | 19.34 Mbytes
Step Temp Press TotEng PotEng Enthalpy 
  106670    1947.6689   -1445.3752   -56487.834   -61435.091   -56741.306 
  106672    1947.7363   -1434.6744    -56487.83   -61435.258   -56739.425 
  107165     1899.011    333.58393   -56729.165   -61552.826   -56670.968 
Loop time of 90.0232 on 1 procs for 495 steps with 19652 atoms

Performance: 0.475 ns/day, 50.518 hours/ns, 5.499 timesteps/s
99.9% CPU use with 1 MPI tasks x no OpenMP threads

MPI task timing breakdown:
Section |  min time  |  avg time  |  max time  |%varavg| %total
---------------------------------------------------------------
Pair    | 50.234     | 50.234     | 50.234     |   0.0 | 55.80
Neigh   | 38.239     | 38.239     | 38.239     |   0.0 | 42.48
Comm    | 0.57198    | 0.57198    | 0.57198    |   0.0 |  0.64
Output  | 0.066215   | 0.066215   | 0.066215   |   0.0 |  0.07
Modify  | 0.71649    | 0.71649    | 0.71649    |   0.0 |  0.80
Other   |            | 0.1949     |            |       |  0.22

Nlocal:    19652 ave 19652 max 19652 min
Histogram: 1 0 0 0 0 0 0 0 0 0
Nghost:    19728 ave 19728 max 19728 min
Histogram: 1 0 0 0 0 0 0 0 0 0
Neighs:    1.76104e+06 ave 1.76104e+06 max 1.76104e+06 min
Histogram: 1 0 0 0 0 0 0 0 0 0

Total # of neighbors = 1761036
Ave neighs/atom = 89.611
Neighbor list builds = 495
Dangerous builds not checked
Setting up Verlet run ...
  Unit style    : metal
  Current step  : 107165
  Time step     : 0.001
Per MPI rank memory allocation (min/avg/max) = 19.34 | 19.34 | 19.34 Mbytes
Step Temp Press TotEng PotEng Enthalpy 
  107165     1899.011    333.58393   -56729.165   -61552.826   -56670.968 
  113337    1899.0612    1366.0237   -56804.833   -61628.621   -56567.118 
Loop time of 1104.56 on 1 procs for 6172 steps with 19652 atoms

Performance: 0.483 ns/day, 49.712 hours/ns, 5.588 timesteps/s
99.9% CPU use with 1 MPI tasks x no OpenMP threads

MPI task timing breakdown:
Section |  min time  |  avg time  |  max time  |%varavg| %total
---------------------------------------------------------------
Pair    | 614.71     | 614.71     | 614.71     |   0.0 | 55.65
Neigh   | 472.32     | 472.32     | 472.32     |   0.0 | 42.76
Comm    | 6.806      | 6.806      | 6.806      |   0.0 |  0.62
Output  | 0.00019789 | 0.00019789 | 0.00019789 |   0.0 |  0.00
Modify  | 8.4231     | 8.4231     | 8.4231     |   0.0 |  0.76
Other   |            | 2.3        |            |       |  0.21

Nlocal:    19652 ave 19652 max 19652 min
Histogram: 1 0 0 0 0 0 0 0 0 0
Nghost:    19677 ave 19677 max 19677 min
Histogram: 1 0 0 0 0 0 0 0 0 0
Neighs:    1.76577e+06 ave 1.76577e+06 max 1.76577e+06 min
Histogram: 1 0 0 0 0 0 0 0 0 0

Total # of neighbors = 1765768
Ave neighs/atom = 89.8518
Neighbor list builds = 6172
Dangerous builds not checked
Setting up Verlet run ...
  Unit style    : metal
  Current step  : 113337
  Time step     : 0.001
Per MPI rank memory allocation (min/avg/max) = 19.34 | 19.34 | 19.34 Mbytes
Step Temp Press TotEng PotEng Enthalpy 
  113337    1899.0612    1366.0237   -56804.833   -61628.621   -56567.118 
  113339    1899.3303    1337.7061   -56804.833   -61629.305   -56572.046 
  113832    1865.0272    1683.1616   -56967.401    -61704.74     -56675.3 
Loop time of 83.1403 on 1 procs for 495 steps with 19652 atoms

Performance: 0.514 ns/day, 46.656 hours/ns, 5.954 timesteps/s
99.9% CPU use with 1 MPI tasks x no OpenMP threads

MPI task timing breakdown:
Section |  min time  |  avg time  |  max time  |%varavg| %total
---------------------------------------------------------------
Pair    | 46.055     | 46.055     | 46.055     |   0.0 | 55.39
Neigh   | 35.7       | 35.7       | 35.7       |   0.0 | 42.94
Comm    | 0.51212    | 0.51212    | 0.51212    |   0.0 |  0.62
Output  | 0.049876   | 0.049876   | 0.049876   |   0.0 |  0.06
Modify  | 0.64463    | 0.64463    | 0.64463    |   0.0 |  0.78
Other   |            | 0.1786     |            |       |  0.21

Nlocal:    19652 ave 19652 max 19652 min
Histogram: 1 0 0 0 0 0 0 0 0 0
Nghost:    19726 ave 19726 max 19726 min
Histogram: 1 0 0 0 0 0 0 0 0 0
Neighs:    1.77072e+06 ave 1.77072e+06 max 1.77072e+06 min
Histogram: 1 0 0 0 0 0 0 0 0 0

Total # of neighbors = 1770719
Ave neighs/atom = 90.1038
Neighbor list builds = 495
Dangerous builds not checked
Setting up Verlet run ...
  Unit style    : metal
  Current step  : 113832
  Time step     : 0.001
Per MPI rank memory allocation (min/avg/max) = 19.34 | 19.34 | 19.34 Mbytes
Step Temp Press TotEng PotEng Enthalpy 
  113832    1865.0272    1683.1616   -56967.401    -61704.74     -56675.3 
  120004    1849.9437    845.46951   -57114.586   -61813.612   -56968.108 
Loop time of 1122.09 on 1 procs for 6172 steps with 19652 atoms

Performance: 0.475 ns/day, 50.501 hours/ns, 5.500 timesteps/s
99.8% CPU use with 1 MPI tasks x no OpenMP threads

MPI task timing breakdown:
Section |  min time  |  avg time  |  max time  |%varavg| %total
---------------------------------------------------------------
Pair    | 627.56     | 627.56     | 627.56     |   0.0 | 55.93
Neigh   | 476.83     | 476.83     | 476.83     |   0.0 | 42.50
Comm    | 6.8737     | 6.8737     | 6.8737     |   0.0 |  0.61
Output  | 0.00020599 | 0.00020599 | 0.00020599 |   0.0 |  0.00
Modify  | 8.4901     | 8.4901     | 8.4901     |   0.0 |  0.76
Other   |            | 2.328      |            |       |  0.21

Nlocal:    19652 ave 19652 max 19652 min
Histogram: 1 0 0 0 0 0 0 0 0 0
Nghost:    19766 ave 19766 max 19766 min
Histogram: 1 0 0 0 0 0 0 0 0 0
Neighs:    1.77311e+06 ave 1.77311e+06 max 1.77311e+06 min
Histogram: 1 0 0 0 0 0 0 0 0 0

Total # of neighbors = 1773106
Ave neighs/atom = 90.2252
Neighbor list builds = 6172
Dangerous builds not checked
Setting up Verlet run ...
  Unit style    : metal
  Current step  : 120004
  Time step     : 0.001
Per MPI rank memory allocation (min/avg/max) = 19.34 | 19.34 | 19.34 Mbytes
Step Temp Press TotEng PotEng Enthalpy 
  120004    1849.9437    845.46951   -57114.586   -61813.612   -56968.108 
  120006     1848.291    907.12209   -57114.583   -61809.411   -56957.424 
  120499    1830.6741    1307.5545   -57300.211    -61950.29   -57074.603 
Loop time of 84.084 on 1 procs for 495 steps with 19652 atoms

Performance: 0.509 ns/day, 47.185 hours/ns, 5.887 timesteps/s
99.9% CPU use with 1 MPI tasks x no OpenMP threads

MPI task timing breakdown:
Section |  min time  |  avg time  |  max time  |%varavg| %total
---------------------------------------------------------------
Pair    | 46.638     | 46.638     | 46.638     |   0.0 | 55.47
Neigh   | 36.04      | 36.04      | 36.04      |   0.0 | 42.86
Comm    | 0.51871    | 0.51871    | 0.51871    |   0.0 |  0.62
Output  | 0.05702    | 0.05702    | 0.05702    |   0.0 |  0.07
Modify  | 0.65225    | 0.65225    | 0.65225    |   0.0 |  0.78
Other   |            | 0.1774     |            |       |  0.21

Nlocal:    19652 ave 19652 max 19652 min
Histogram: 1 0 0 0 0 0 0 0 0 0
Nghost:    19755 ave 19755 max 19755 min
Histogram: 1 0 0 0 0 0 0 0 0 0
Neighs:    1.78051e+06 ave 1.78051e+06 max 1.78051e+06 min
Histogram: 1 0 0 0 0 0 0 0 0 0

Total # of neighbors = 1780512
Ave neighs/atom = 90.6021
Neighbor list builds = 495
Dangerous builds not checked
Setting up Verlet run ...
  Unit style    : metal
  Current step  : 120499
  Time step     : 0.001
Per MPI rank memory allocation (min/avg/max) = 19.34 | 19.34 | 19.34 Mbytes
Step Temp Press TotEng PotEng Enthalpy 
  120499    1830.6741    1307.5545   -57300.211    -61950.29   -57074.603 
  126671     1812.035    501.18965   -57388.736    -61991.47   -57302.291 
Loop time of 1134.31 on 1 procs for 6172 steps with 19652 atoms

Performance: 0.470 ns/day, 51.051 hours/ns, 5.441 timesteps/s
99.9% CPU use with 1 MPI tasks x no OpenMP threads

MPI task timing breakdown:
Section |  min time  |  avg time  |  max time  |%varavg| %total
---------------------------------------------------------------
Pair    | 636.13     | 636.13     | 636.13     |   0.0 | 56.08
Neigh   | 480.07     | 480.07     | 480.07     |   0.0 | 42.32
Comm    | 7.0535     | 7.0535     | 7.0535     |   0.0 |  0.62
Output  | 0.00019193 | 0.00019193 | 0.00019193 |   0.0 |  0.00
Modify  | 8.6535     | 8.6535     | 8.6535     |   0.0 |  0.76
Other   |            | 2.403      |            |       |  0.21

Nlocal:    19652 ave 19652 max 19652 min
Histogram: 1 0 0 0 0 0 0 0 0 0
Nghost:    19742 ave 19742 max 19742 min
Histogram: 1 0 0 0 0 0 0 0 0 0
Neighs:    1.78112e+06 ave 1.78112e+06 max 1.78112e+06 min
Histogram: 1 0 0 0 0 0 0 0 0 0

Total # of neighbors = 1781122
Ave neighs/atom = 90.6331
Neighbor list builds = 6172
Dangerous builds not checked
Setting up Verlet run ...
  Unit style    : metal
  Current step  : 126671
  Time step     : 0.001
Per MPI rank memory allocation (min/avg/max) = 19.34 | 19.34 | 19.34 Mbytes
Step Temp Press TotEng PotEng Enthalpy 
  126671     1812.035    501.18965   -57388.736    -61991.47   -57302.291 
  126673    1812.2573    473.51447    -57388.75   -61992.048   -57307.079 
  127166     1781.299    350.53789   -57599.581   -62124.243   -57539.295 
Loop time of 92.9398 on 1 procs for 495 steps with 19652 atoms

Performance: 0.460 ns/day, 52.155 hours/ns, 5.326 timesteps/s
99.5% CPU use with 1 MPI tasks x no OpenMP threads

MPI task timing breakdown:
Section |  min time  |  avg time  |  max time  |%varavg| %total
---------------------------------------------------------------
Pair    | 52.429     | 52.429     | 52.429     |   0.0 | 56.41
Neigh   | 38.926     | 38.926     | 38.926     |   0.0 | 41.88
Comm    | 0.57872    | 0.57872    | 0.57872    |   0.0 |  0.62
Output  | 0.074921   | 0.074921   | 0.074921   |   0.0 |  0.08
Modify  | 0.72837    | 0.72837    | 0.72837    |   0.0 |  0.78
Other   |            | 0.2034     |            |       |  0.22

Nlocal:    19652 ave 19652 max 19652 min
Histogram: 1 0 0 0 0 0 0 0 0 0
Nghost:    19766 ave 19766 max 19766 min
Histogram: 1 0 0 0 0 0 0 0 0 0
Neighs:    1.78625e+06 ave 1.78625e+06 max 1.78625e+06 min
Histogram: 1 0 0 0 0 0 0 0 0 0

Total # of neighbors = 1786252
Ave neighs/atom = 90.8942
Neighbor list builds = 495
Dangerous builds not checked
Setting up Verlet run ...
  Unit style    : metal
  Current step  : 127166
  Time step     : 0.001
Per MPI rank memory allocation (min/avg/max) = 19.34 | 19.34 | 19.34 Mbytes
Step Temp Press TotEng PotEng Enthalpy 
  127166     1781.299    350.53789   -57599.581   -62124.243   -57539.295 
  133338    1739.9937    407.04362   -57688.449   -62108.192   -57618.458 
Loop time of 1256.83 on 1 procs for 6172 steps with 19652 atoms

Performance: 0.424 ns/day, 56.565 hours/ns, 4.911 timesteps/s
99.8% CPU use with 1 MPI tasks x no OpenMP threads

MPI task timing breakdown:
Section |  min time  |  avg time  |  max time  |%varavg| %total
---------------------------------------------------------------
Pair    | 713.29     | 713.29     | 713.29     |   0.0 | 56.75
Neigh   | 523.14     | 523.14     | 523.14     |   0.0 | 41.62
Comm    | 7.962      | 7.962      | 7.962      |   0.0 |  0.63
Output  | 0.00022197 | 0.00022197 | 0.00022197 |   0.0 |  0.00
Modify  | 9.6974     | 9.6974     | 9.6974     |   0.0 |  0.77
Other   |            | 2.739      |            |       |  0.22

Nlocal:    19652 ave 19652 max 19652 min
Histogram: 1 0 0 0 0 0 0 0 0 0
Nghost:    19744 ave 19744 max 19744 min
Histogram: 1 0 0 0 0 0 0 0 0 0
Neighs:    1.78624e+06 ave 1.78624e+06 max 1.78624e+06 min
Histogram: 1 0 0 0 0 0 0 0 0 0

Total # of neighbors = 1786240
Ave neighs/atom = 90.8935
Neighbor list builds = 6172
Dangerous builds not checked
Setting up Verlet run ...
  Unit style    : metal
  Current step  : 133338
  Time step     : 0.001
Per MPI rank memory allocation (min/avg/max) = 19.34 | 19.34 | 19.34 Mbytes
Step Temp Press TotEng PotEng Enthalpy 
  133338    1739.9937    407.04362   -57688.449   -62108.192   -57618.458 
  133340    1740.6481    380.60474   -57688.439   -62109.844   -57622.994 
  133833    1708.1014    334.23006   -57930.354   -62269.087   -57873.128 
Loop time of 97.4028 on 1 procs for 495 steps with 19652 atoms

Performance: 0.439 ns/day, 54.659 hours/ns, 5.082 timesteps/s
99.9% CPU use with 1 MPI tasks x no OpenMP threads

MPI task timing breakdown:
Section |  min time  |  avg time  |  max time  |%varavg| %total
---------------------------------------------------------------
Pair    | 55.28      | 55.28      | 55.28      |   0.0 | 56.75
Neigh   | 40.431     | 40.431     | 40.431     |   0.0 | 41.51
Comm    | 0.63       | 0.63       | 0.63       |   0.0 |  0.65
Output  | 0.071406   | 0.071406   | 0.071406   |   0.0 |  0.07
Modify  | 0.77278    | 0.77278    | 0.77278    |   0.0 |  0.79
Other   |            | 0.2171     |            |       |  0.22

Nlocal:    19652 ave 19652 max 19652 min
Histogram: 1 0 0 0 0 0 0 0 0 0
Nghost:    19808 ave 19808 max 19808 min
Histogram: 1 0 0 0 0 0 0 0 0 0
Neighs:    1.79343e+06 ave 1.79343e+06 max 1.79343e+06 min
Histogram: 1 0 0 0 0 0 0 0 0 0

Total # of neighbors = 1793434
Ave neighs/atom = 91.2596
Neighbor list builds = 495
Dangerous builds not checked
Setting up Verlet run ...
  Unit style    : metal
  Current step  : 133833
  Time step     : 0.001
Per MPI rank memory allocation (min/avg/max) = 19.34 | 19.34 | 19.34 Mbytes
Step Temp Press TotEng PotEng Enthalpy 
  133833    1708.1014    334.23006   -57930.354   -62269.087   -57873.128 
  140005     1722.263    1774.5135    -57975.01   -62349.715   -57672.079 
Loop time of 1233.69 on 1 procs for 6172 steps with 19652 atoms

Performance: 0.432 ns/day, 55.523 hours/ns, 5.003 timesteps/s
99.8% CPU use with 1 MPI tasks x no OpenMP threads

MPI task timing breakdown:
Section |  min time  |  avg time  |  max time  |%varavg| %total
---------------------------------------------------------------
Pair    | 698.73     | 698.73     | 698.73     |   0.0 | 56.64
Neigh   | 515.09     | 515.09     | 515.09     |   0.0 | 41.75
Comm    | 7.7163     | 7.7163     | 7.7163     |   0.0 |  0.63
Output  | 0.00020099 | 0.00020099 | 0.00020099 |   0.0 |  0.00
Modify  | 9.4953     | 9.4953     | 9.4953     |   0.0 |  0.77
Other   |            | 2.651      |            |       |  0.21

Nlocal:    19652 ave 19652 max 19652 min
Histogram: 1 0 0 0 0 0 0 0 0 0
Nghost:    19829 ave 19829 max 19829 min
Histogram: 1 0 0 0 0 0 0 0 0 0
Neighs:    1.79921e+06 ave 1.79921e+06 max 1.79921e+06 min
Histogram: 1 0 0 0 0 0 0 0 0 0

Total # of neighbors = 1799209
Ave neighs/atom = 91.5535
Neighbor list builds = 6172
Dangerous builds not checked
Setting up Verlet run ...
  Unit style    : metal
  Current step  : 140005
  Time step     : 0.001
Per MPI rank memory allocation (min/avg/max) = 19.34 | 19.34 | 19.34 Mbytes
Step Temp Press TotEng PotEng Enthalpy 
  140005     1722.263    1774.5135    -57975.01   -62349.715   -57672.079 
  140007    1721.9895     1774.513   -57975.032   -62349.042   -57672.101 
  140500    1671.5618    1597.8221   -58208.558   -62454.477    -57936.54 
Loop time of 99.2901 on 1 procs for 495 steps with 19652 atoms

Performance: 0.431 ns/day, 55.718 hours/ns, 4.985 timesteps/s
99.8% CPU use with 1 MPI tasks x no OpenMP threads

MPI task timing breakdown:
Section |  min time  |  avg time  |  max time  |%varavg| %total
---------------------------------------------------------------
Pair    | 55.951     | 55.951     | 55.951     |   0.0 | 56.35
Neigh   | 41.648     | 41.648     | 41.648     |   0.0 | 41.95
Comm    | 0.62171    | 0.62171    | 0.62171    |   0.0 |  0.63
Output  | 0.067451   | 0.067451   | 0.067451   |   0.0 |  0.07
Modify  | 0.78992    | 0.78992    | 0.78992    |   0.0 |  0.80
Other   |            | 0.2123     |            |       |  0.21

Nlocal:    19652 ave 19652 max 19652 min
Histogram: 1 0 0 0 0 0 0 0 0 0
Nghost:    19816 ave 19816 max 19816 min
Histogram: 1 0 0 0 0 0 0 0 0 0
Neighs:    1.80362e+06 ave 1.80362e+06 max 1.80362e+06 min
Histogram: 1 0 0 0 0 0 0 0 0 0

Total # of neighbors = 1803624
Ave neighs/atom = 91.7781
Neighbor list builds = 495
Dangerous builds not checked
Setting up Verlet run ...
  Unit style    : metal
  Current step  : 140500
  Time step     : 0.001
Per MPI rank memory allocation (min/avg/max) = 19.34 | 19.34 | 19.34 Mbytes
Step Temp Press TotEng PotEng Enthalpy 
  140500    1671.5618    1597.8221   -58208.558   -62454.477    -57936.54 
  146672    1657.0577    430.66593   -58337.951   -62547.029   -58264.717 
Loop time of 1238.77 on 1 procs for 6172 steps with 19652 atoms

Performance: 0.430 ns/day, 55.752 hours/ns, 4.982 timesteps/s
99.9% CPU use with 1 MPI tasks x no OpenMP threads

MPI task timing breakdown:
Section |  min time  |  avg time  |  max time  |%varavg| %total
---------------------------------------------------------------
Pair    | 700.52     | 700.52     | 700.52     |   0.0 | 56.55
Neigh   | 518.55     | 518.55     | 518.55     |   0.0 | 41.86
Comm    | 7.628      | 7.628      | 7.628      |   0.0 |  0.62
Output  | 0.00019884 | 0.00019884 | 0.00019884 |   0.0 |  0.00
Modify  | 9.4259     | 9.4259     | 9.4259     |   0.0 |  0.76
Other   |            | 2.646      |            |       |  0.21

Nlocal:    19652 ave 19652 max 19652 min
Histogram: 1 0 0 0 0 0 0 0 0 0
Nghost:    19832 ave 19832 max 19832 min
Histogram: 1 0 0 0 0 0 0 0 0 0
Neighs:    1.80495e+06 ave 1.80495e+06 max 1.80495e+06 min
Histogram: 1 0 0 0 0 0 0 0 0 0

Total # of neighbors = 1804947
Ave neighs/atom = 91.8455
Neighbor list builds = 6172
Dangerous builds not checked
Setting up Verlet run ...
  Unit style    : metal
  Current step  : 146672
  Time step     : 0.001
Per MPI rank memory allocation (min/avg/max) = 19.34 | 19.34 | 19.34 Mbytes
Step Temp Press TotEng PotEng Enthalpy 
  146672    1657.0577    430.66593   -58337.951   -62547.029   -58264.717 
  146674    1655.9803    471.79126   -58337.956   -62544.297   -58257.729 
  147167    1628.3533    154.01976   -58543.638   -62679.804   -58517.518 
Loop time of 96.1327 on 1 procs for 495 steps with 19652 atoms

Performance: 0.445 ns/day, 53.947 hours/ns, 5.149 timesteps/s
99.8% CPU use with 1 MPI tasks x no OpenMP threads

MPI task timing breakdown:
Section |  min time  |  avg time  |  max time  |%varavg| %total
---------------------------------------------------------------
Pair    | 54.495     | 54.495     | 54.495     |   0.0 | 56.69
Neigh   | 39.977     | 39.977     | 39.977     |   0.0 | 41.58
Comm    | 0.60927    | 0.60927    | 0.60927    |   0.0 |  0.63
Output  | 0.069837   | 0.069837   | 0.069837   |   0.0 |  0.07
Modify  | 0.76607    | 0.76607    | 0.76607    |   0.0 |  0.80
Other   |            | 0.2163     |            |       |  0.23

Nlocal:    19652 ave 19652 max 19652 min
Histogram: 1 0 0 0 0 0 0 0 0 0
Nghost:    19910 ave 19910 max 19910 min
Histogram: 1 0 0 0 0 0 0 0 0 0
Neighs:    1.80958e+06 ave 1.80958e+06 max 1.80958e+06 min
Histogram: 1 0 0 0 0 0 0 0 0 0

Total # of neighbors = 1809583
Ave neighs/atom = 92.0814
Neighbor list builds = 495
Dangerous builds not checked
Setting up Verlet run ...
  Unit style    : metal
  Current step  : 147167
  Time step     : 0.001
Per MPI rank memory allocation (min/avg/max) = 19.34 | 19.34 | 19.34 Mbytes
Step Temp Press TotEng PotEng Enthalpy 
  147167    1628.3533    154.01976   -58543.638   -62679.804   -58517.518 
  153339    1581.3246   -1698.6201   -58727.452   -62744.161   -59015.484 
Loop time of 1121.58 on 1 procs for 6172 steps with 19652 atoms

Performance: 0.475 ns/day, 50.478 hours/ns, 5.503 timesteps/s
99.4% CPU use with 1 MPI tasks x no OpenMP threads

MPI task timing breakdown:
Section |  min time  |  avg time  |  max time  |%varavg| %total
---------------------------------------------------------------
Pair    | 630.66     | 630.66     | 630.66     |   0.0 | 56.23
Neigh   | 473.23     | 473.23     | 473.23     |   0.0 | 42.19
Comm    | 6.8623     | 6.8623     | 6.8623     |   0.0 |  0.61
Output  | 0.00015807 | 0.00015807 | 0.00015807 |   0.0 |  0.00
Modify  | 8.4707     | 8.4707     | 8.4707     |   0.0 |  0.76
Other   |            | 2.36       |            |       |  0.21

Nlocal:    19652 ave 19652 max 19652 min
Histogram: 1 0 0 0 0 0 0 0 0 0
Nghost:    19908 ave 19908 max 19908 min
Histogram: 1 0 0 0 0 0 0 0 0 0
Neighs:    1.80984e+06 ave 1.80984e+06 max 1.80984e+06 min
Histogram: 1 0 0 0 0 0 0 0 0 0

Total # of neighbors = 1809843
Ave neighs/atom = 92.0946
Neighbor list builds = 6172
Dangerous builds not checked
Setting up Verlet run ...
  Unit style    : metal
  Current step  : 153339
  Time step     : 0.001
Per MPI rank memory allocation (min/avg/max) = 19.34 | 19.34 | 19.34 Mbytes
Step Temp Press TotEng PotEng Enthalpy 
  153339    1581.3246   -1698.6201   -58727.452   -62744.161   -59015.484 
  153341    1582.4301   -1712.8608   -58727.436   -62746.953   -59017.883 
  153834    1568.5577   -1376.5953    -58855.46   -62839.739   -59088.311 
Loop time of 85.6049 on 1 procs for 495 steps with 19652 atoms

Performance: 0.500 ns/day, 48.039 hours/ns, 5.782 timesteps/s
99.5% CPU use with 1 MPI tasks x no OpenMP threads

MPI task timing breakdown:
Section |  min time  |  avg time  |  max time  |%varavg| %total
---------------------------------------------------------------
Pair    | 47.692     | 47.692     | 47.692     |   0.0 | 55.71
Neigh   | 36.515     | 36.515     | 36.515     |   0.0 | 42.65
Comm    | 0.51321    | 0.51321    | 0.51321    |   0.0 |  0.60
Output  | 0.049072   | 0.049072   | 0.049072   |   0.0 |  0.06
Modify  | 0.65906    | 0.65906    | 0.65906    |   0.0 |  0.77
Other   |            | 0.1772     |            |       |  0.21

Nlocal:    19652 ave 19652 max 19652 min
Histogram: 1 0 0 0 0 0 0 0 0 0
Nghost:    19819 ave 19819 max 19819 min
Histogram: 1 0 0 0 0 0 0 0 0 0
Neighs:    1.81412e+06 ave 1.81412e+06 max 1.81412e+06 min
Histogram: 1 0 0 0 0 0 0 0 0 0

Total # of neighbors = 1814125
Ave neighs/atom = 92.3125
Neighbor list builds = 495
Dangerous builds not checked
Setting up Verlet run ...
  Unit style    : metal
  Current step  : 153834
  Time step     : 0.001
Per MPI rank memory allocation (min/avg/max) = 19.34 | 19.34 | 19.34 Mbytes
Step Temp Press TotEng PotEng Enthalpy 
  153834    1568.5577   -1376.5953    -58855.46   -62839.739   -59088.311 
  160006    1537.9647   -808.46703   -58975.357   -62881.927   -59111.805 
Loop time of 1057.91 on 1 procs for 6172 steps with 19652 atoms

Performance: 0.504 ns/day, 47.612 hours/ns, 5.834 timesteps/s
99.4% CPU use with 1 MPI tasks x no OpenMP threads

MPI task timing breakdown:
Section |  min time  |  avg time  |  max time  |%varavg| %total
---------------------------------------------------------------
Pair    | 592.17     | 592.17     | 592.17     |   0.0 | 55.98
Neigh   | 449.21     | 449.21     | 449.21     |   0.0 | 42.46
Comm    | 6.4101     | 6.4101     | 6.4101     |   0.0 |  0.61
Output  | 0.00021005 | 0.00021005 | 0.00021005 |   0.0 |  0.00
Modify  | 7.941      | 7.941      | 7.941      |   0.0 |  0.75
Other   |            | 2.174      |            |       |  0.21

Nlocal:    19652 ave 19652 max 19652 min
Histogram: 1 0 0 0 0 0 0 0 0 0
Nghost:    19925 ave 19925 max 19925 min
Histogram: 1 0 0 0 0 0 0 0 0 0
Neighs:    1.81783e+06 ave 1.81783e+06 max 1.81783e+06 min
Histogram: 1 0 0 0 0 0 0 0 0 0

Total # of neighbors = 1817830
Ave neighs/atom = 92.501
Neighbor list builds = 6172
Dangerous builds not checked
Setting up Verlet run ...
  Unit style    : metal
  Current step  : 160006
  Time step     : 0.001
Per MPI rank memory allocation (min/avg/max) = 19.34 | 19.34 | 19.34 Mbytes
Step Temp Press TotEng PotEng Enthalpy 
  160006    1537.9647   -808.46703   -58975.357   -62881.927   -59111.805 
  160008    1537.9253    -813.3387   -58975.344   -62881.814   -59112.615 
  160501     1498.194   -240.70044   -59214.882   -63020.431   -59255.349 
Loop time of 85.5169 on 1 procs for 495 steps with 19652 atoms

Performance: 0.500 ns/day, 47.989 hours/ns, 5.788 timesteps/s
99.9% CPU use with 1 MPI tasks x no OpenMP threads

MPI task timing breakdown:
Section |  min time  |  avg time  |  max time  |%varavg| %total
---------------------------------------------------------------
Pair    | 48.199     | 48.199     | 48.199     |   0.0 | 56.36
Neigh   | 35.894     | 35.894     | 35.894     |   0.0 | 41.97
Comm    | 0.52079    | 0.52079    | 0.52079    |   0.0 |  0.61
Output  | 0.065888   | 0.065888   | 0.065888   |   0.0 |  0.08
Modify  | 0.6591     | 0.6591     | 0.6591     |   0.0 |  0.77
Other   |            | 0.1785     |            |       |  0.21

Nlocal:    19652 ave 19652 max 19652 min
Histogram: 1 0 0 0 0 0 0 0 0 0
Nghost:    19977 ave 19977 max 19977 min
Histogram: 1 0 0 0 0 0 0 0 0 0
Neighs:    1.8251e+06 ave 1.8251e+06 max 1.8251e+06 min
Histogram: 1 0 0 0 0 0 0 0 0 0

Total # of neighbors = 1825104
Ave neighs/atom = 92.8712
Neighbor list builds = 495
Dangerous builds not checked
Setting up Verlet run ...
  Unit style    : metal
  Current step  : 160501
  Time step     : 0.001
Per MPI rank memory allocation (min/avg/max) = 19.34 | 19.34 | 19.34 Mbytes
Step Temp Press TotEng PotEng Enthalpy 
  160501     1498.194   -240.70044   -59214.882   -63020.431   -59255.349 
  166673    1506.9697    568.80752   -59264.361   -63092.201   -59168.957 
Loop time of 1123.96 on 1 procs for 6172 steps with 19652 atoms

Performance: 0.474 ns/day, 50.585 hours/ns, 5.491 timesteps/s
99.3% CPU use with 1 MPI tasks x no OpenMP threads

MPI task timing breakdown:
Section |  min time  |  avg time  |  max time  |%varavg| %total
---------------------------------------------------------------
Pair    | 634.4      | 634.4      | 634.4      |   0.0 | 56.44
Neigh   | 471.86     | 471.86     | 471.86     |   0.0 | 41.98
Comm    | 6.8618     | 6.8618     | 6.8618     |   0.0 |  0.61
Output  | 0.00019693 | 0.00019693 | 0.00019693 |   0.0 |  0.00
Modify  | 8.5009     | 8.5009     | 8.5009     |   0.0 |  0.76
Other   |            | 2.333      |            |       |  0.21

Nlocal:    19652 ave 19652 max 19652 min
Histogram: 1 0 0 0 0 0 0 0 0 0
Nghost:    20068 ave 20068 max 20068 min
Histogram: 1 0 0 0 0 0 0 0 0 0
Neighs:    1.82919e+06 ave 1.82919e+06 max 1.82919e+06 min
Histogram: 1 0 0 0 0 0 0 0 0 0

Total # of neighbors = 1829186
Ave neighs/atom = 93.0789
Neighbor list builds = 6172
Dangerous builds not checked
Setting up Verlet run ...
  Unit style    : metal
  Current step  : 166673
  Time step     : 0.001
Per MPI rank memory allocation (min/avg/max) = 19.34 | 19.34 | 19.34 Mbytes
Step Temp Press TotEng PotEng Enthalpy 
  166673    1506.9697    568.80752   -59264.361   -63092.201   -59168.957 
  166675    1507.3523    542.83183   -59264.369   -63093.181   -59173.322 
  167168    1456.0835    1952.9704   -59494.562   -63193.147   -59168.306 
Loop time of 86.5111 on 1 procs for 495 steps with 19652 atoms

Performance: 0.494 ns/day, 48.547 hours/ns, 5.722 timesteps/s
99.9% CPU use with 1 MPI tasks x no OpenMP threads

MPI task timing breakdown:
Section |  min time  |  avg time  |  max time  |%varavg| %total
---------------------------------------------------------------
Pair    | 48.799     | 48.799     | 48.799     |   0.0 | 56.41
Neigh   | 36.269     | 36.269     | 36.269     |   0.0 | 41.92
Comm    | 0.53258    | 0.53258    | 0.53258    |   0.0 |  0.62
Output  | 0.050856   | 0.050856   | 0.050856   |   0.0 |  0.06
Modify  | 0.67502    | 0.67502    | 0.67502    |   0.0 |  0.78
Other   |            | 0.1839     |            |       |  0.21

Nlocal:    19652 ave 19652 max 19652 min
Histogram: 1 0 0 0 0 0 0 0 0 0
Nghost:    20017 ave 20017 max 20017 min
Histogram: 1 0 0 0 0 0 0 0 0 0
Neighs:    1.83632e+06 ave 1.83632e+06 max 1.83632e+06 min
Histogram: 1 0 0 0 0 0 0 0 0 0

Total # of neighbors = 1836317
Ave neighs/atom = 93.4417
Neighbor list builds = 495
Dangerous builds not checked
Setting up Verlet run ...
  Unit style    : metal
  Current step  : 167168
  Time step     : 0.001
Per MPI rank memory allocation (min/avg/max) = 19.34 | 19.34 | 19.34 Mbytes
Step Temp Press TotEng PotEng Enthalpy 
  167168    1456.0835    1952.9704   -59494.562   -63193.147   -59168.306 
  173340    1444.8651   -913.18736   -59612.859   -63282.948   -59765.469 
Loop time of 1139.07 on 1 procs for 6172 steps with 19652 atoms

Performance: 0.468 ns/day, 51.265 hours/ns, 5.418 timesteps/s
99.6% CPU use with 1 MPI tasks x no OpenMP threads

MPI task timing breakdown:
Section |  min time  |  avg time  |  max time  |%varavg| %total
---------------------------------------------------------------
Pair    | 643.61     | 643.61     | 643.61     |   0.0 | 56.50
Neigh   | 477.56     | 477.56     | 477.56     |   0.0 | 41.93
Comm    | 6.9472     | 6.9472     | 6.9472     |   0.0 |  0.61
Output  | 0.00017095 | 0.00017095 | 0.00017095 |   0.0 |  0.00
Modify  | 8.5995     | 8.5995     | 8.5995     |   0.0 |  0.75
Other   |            | 2.348      |            |       |  0.21

Nlocal:    19652 ave 19652 max 19652 min
Histogram: 1 0 0 0 0 0 0 0 0 0
Nghost:    20006 ave 20006 max 20006 min
Histogram: 1 0 0 0 0 0 0 0 0 0
Neighs:    1.83592e+06 ave 1.83592e+06 max 1.83592e+06 min
Histogram: 1 0 0 0 0 0 0 0 0 0

Total # of neighbors = 1835925
Ave neighs/atom = 93.4218
Neighbor list builds = 6172
Dangerous builds not checked
Setting up Verlet run ...
  Unit style    : metal
  Current step  : 173340
  Time step     : 0.001
Per MPI rank memory allocation (min/avg/max) = 19.34 | 19.34 | 19.34 Mbytes
Step Temp Press TotEng PotEng Enthalpy 
  173340    1444.8651   -913.18736   -59612.859   -63282.948   -59765.469 
  173342    1445.4863   -915.60606   -59612.857   -63284.524   -59765.871 
  173835    1408.4433    328.20243   -59836.468   -63414.043   -59781.852 
Loop time of 94.8086 on 1 procs for 495 steps with 19652 atoms

Performance: 0.451 ns/day, 53.203 hours/ns, 5.221 timesteps/s
99.7% CPU use with 1 MPI tasks x no OpenMP threads

MPI task timing breakdown:
Section |  min time  |  avg time  |  max time  |%varavg| %total
---------------------------------------------------------------
Pair    | 53.411     | 53.411     | 53.411     |   0.0 | 56.34
Neigh   | 39.852     | 39.852     | 39.852     |   0.0 | 42.03
Comm    | 0.5702     | 0.5702     | 0.5702     |   0.0 |  0.60
Output  | 0.043203   | 0.043203   | 0.043203   |   0.0 |  0.05
Modify  | 0.73706    | 0.73706    | 0.73706    |   0.0 |  0.78
Other   |            | 0.1944     |            |       |  0.21

Nlocal:    19652 ave 19652 max 19652 min
Histogram: 1 0 0 0 0 0 0 0 0 0
Nghost:    20023 ave 20023 max 20023 min
Histogram: 1 0 0 0 0 0 0 0 0 0
Neighs:    1.84264e+06 ave 1.84264e+06 max 1.84264e+06 min
Histogram: 1 0 0 0 0 0 0 0 0 0

Total # of neighbors = 1842635
Ave neighs/atom = 93.7632
Neighbor list builds = 495
Dangerous builds not checked
Setting up Verlet run ...
  Unit style    : metal
  Current step  : 173835
  Time step     : 0.001
Per MPI rank memory allocation (min/avg/max) = 19.34 | 19.34 | 19.34 Mbytes
Step Temp Press TotEng PotEng Enthalpy 
  173835    1408.4433    328.20243   -59836.468   -63414.043   -59781.852 
  180007    1403.8089   -492.28594   -60011.353   -63577.156   -60093.063 
Loop time of 1279.81 on 1 procs for 6172 steps with 19652 atoms

Performance: 0.417 ns/day, 57.599 hours/ns, 4.823 timesteps/s
99.8% CPU use with 1 MPI tasks x no OpenMP threads

MPI task timing breakdown:
Section |  min time  |  avg time  |  max time  |%varavg| %total
---------------------------------------------------------------
Pair    | 730.39     | 730.39     | 730.39     |   0.0 | 57.07
Neigh   | 529.16     | 529.16     | 529.16     |   0.0 | 41.35
Comm    | 7.8256     | 7.8256     | 7.8256     |   0.0 |  0.61
Output  | 0.0002811  | 0.0002811  | 0.0002811  |   0.0 |  0.00
Modify  | 9.7956     | 9.7956     | 9.7956     |   0.0 |  0.77
Other   |            | 2.639      |            |       |  0.21

Nlocal:    19652 ave 19652 max 19652 min
Histogram: 1 0 0 0 0 0 0 0 0 0
Nghost:    20039 ave 20039 max 20039 min
Histogram: 1 0 0 0 0 0 0 0 0 0
Neighs:    1.84708e+06 ave 1.84708e+06 max 1.84708e+06 min
Histogram: 1 0 0 0 0 0 0 0 0 0

Total # of neighbors = 1847078
Ave neighs/atom = 93.9893
Neighbor list builds = 6172
Dangerous builds not checked
Setting up Verlet run ...
  Unit style    : metal
  Current step  : 180007
  Time step     : 0.001
Per MPI rank memory allocation (min/avg/max) = 19.34 | 19.34 | 19.34 Mbytes
Step Temp Press TotEng PotEng Enthalpy 
  180007    1403.8089   -492.28594   -60011.353   -63577.156   -60093.063 
  180009    1403.6895   -498.41061   -60011.357   -63576.856   -60094.083 
  180502    1358.2261    648.10189   -60186.117   -63636.135   -60078.851 
Loop time of 100.338 on 1 procs for 495 steps with 19652 atoms

Performance: 0.426 ns/day, 56.307 hours/ns, 4.933 timesteps/s
99.8% CPU use with 1 MPI tasks x no OpenMP threads

MPI task timing breakdown:
Section |  min time  |  avg time  |  max time  |%varavg| %total
---------------------------------------------------------------
Pair    | 57.607     | 57.607     | 57.607     |   0.0 | 57.41
Neigh   | 41.042     | 41.042     | 41.042     |   0.0 | 40.90
Comm    | 0.62412    | 0.62412    | 0.62412    |   0.0 |  0.62
Output  | 0.067243   | 0.067243   | 0.067243   |   0.0 |  0.07
Modify  | 0.78344    | 0.78344    | 0.78344    |   0.0 |  0.78
Other   |            | 0.2141     |            |       |  0.21

Nlocal:    19652 ave 19652 max 19652 min
Histogram: 1 0 0 0 0 0 0 0 0 0
Nghost:    20113 ave 20113 max 20113 min
Histogram: 1 0 0 0 0 0 0 0 0 0
Neighs:    1.8523e+06 ave 1.8523e+06 max 1.8523e+06 min
Histogram: 1 0 0 0 0 0 0 0 0 0

Total # of neighbors = 1852305
Ave neighs/atom = 94.2553
Neighbor list builds = 495
Dangerous builds not checked
Setting up Verlet run ...
  Unit style    : metal
  Current step  : 180502
  Time step     : 0.001
Per MPI rank memory allocation (min/avg/max) = 19.34 | 19.34 | 19.34 Mbytes
Step Temp Press TotEng PotEng Enthalpy 
  180502    1358.2261    648.10189   -60186.117   -63636.135   -60078.851 
  186674    1350.2837   -139.20956    -60283.64   -63713.484   -60306.649 
Loop time of 1308.55 on 1 procs for 6172 steps with 19652 atoms

Performance: 0.408 ns/day, 58.893 hours/ns, 4.717 timesteps/s
99.8% CPU use with 1 MPI tasks x no OpenMP threads

MPI task timing breakdown:
Section |  min time  |  avg time  |  max time  |%varavg| %total
---------------------------------------------------------------
Pair    | 753.33     | 753.33     | 753.33     |   0.0 | 57.57
Neigh   | 534.15     | 534.15     | 534.15     |   0.0 | 40.82
Comm    | 8.177      | 8.177      | 8.177      |   0.0 |  0.62
Output  | 0.00024605 | 0.00024605 | 0.00024605 |   0.0 |  0.00
Modify  | 10.089     | 10.089     | 10.089     |   0.0 |  0.77
Other   |            | 2.798      |            |       |  0.21

Nlocal:    19652 ave 19652 max 19652 min
Histogram: 1 0 0 0 0 0 0 0 0 0
Nghost:    20130 ave 20130 max 20130 min
Histogram: 1 0 0 0 0 0 0 0 0 0
Neighs:    1.85523e+06 ave 1.85523e+06 max 1.85523e+06 min
Histogram: 1 0 0 0 0 0 0 0 0 0

Total # of neighbors = 1855232
Ave neighs/atom = 94.4042
Neighbor list builds = 6172
Dangerous builds not checked
Setting up Verlet run ...
  Unit style    : metal
  Current step  : 186674
  Time step     : 0.001
Per MPI rank memory allocation (min/avg/max) = 19.34 | 19.34 | 19.34 Mbytes
Step Temp Press TotEng PotEng Enthalpy 
  186674    1350.2837   -139.20956    -60283.64   -63713.484   -60306.649 
  186676    1350.5089   -132.24469   -60283.641   -63714.057   -60305.498 
  187169    1319.6599   -548.23907   -60496.215   -63848.271   -60586.585 
Loop time of 101.694 on 1 procs for 495 steps with 19652 atoms

Performance: 0.421 ns/day, 57.067 hours/ns, 4.868 timesteps/s
99.8% CPU use with 1 MPI tasks x no OpenMP threads

MPI task timing breakdown:
Section |  min time  |  avg time  |  max time  |%varavg| %total
---------------------------------------------------------------
Pair    | 58.101     | 58.101     | 58.101     |   0.0 | 57.13
Neigh   | 41.839     | 41.839     | 41.839     |   0.0 | 41.14
Comm    | 0.64486    | 0.64486    | 0.64486    |   0.0 |  0.63
Output  | 0.065811   | 0.065811   | 0.065811   |   0.0 |  0.06
Modify  | 0.81479    | 0.81479    | 0.81479    |   0.0 |  0.80
Other   |            | 0.228      |            |       |  0.22

Nlocal:    19652 ave 19652 max 19652 min
Histogram: 1 0 0 0 0 0 0 0 0 0
Nghost:    20148 ave 20148 max 20148 min
Histogram: 1 0 0 0 0 0 0 0 0 0
Neighs:    1.85922e+06 ave 1.85922e+06 max 1.85922e+06 min
Histogram: 1 0 0 0 0 0 0 0 0 0

Total # of neighbors = 1859221
Ave neighs/atom = 94.6072
Neighbor list builds = 495
Dangerous builds not checked
Setting up Verlet run ...
  Unit style    : metal
  Current step  : 187169
  Time step     : 0.001
Per MPI rank memory allocation (min/avg/max) = 19.34 | 19.34 | 19.34 Mbytes
Step Temp Press TotEng PotEng Enthalpy 
  187169    1319.6599   -548.23907   -60496.215   -63848.271   -60586.585 
  193341    1321.6216    1340.2841   -60615.901    -63972.94   -60395.934 
Loop time of 1341.86 on 1 procs for 6172 steps with 19652 atoms

Performance: 0.397 ns/day, 60.392 hours/ns, 4.600 timesteps/s
99.7% CPU use with 1 MPI tasks x no OpenMP threads

MPI task timing breakdown:
Section |  min time  |  avg time  |  max time  |%varavg| %total
---------------------------------------------------------------
Pair    | 773.76     | 773.76     | 773.76     |   0.0 | 57.66
Neigh   | 546.1      | 546.1      | 546.1      |   0.0 | 40.70
Comm    | 8.5818     | 8.5818     | 8.5818     |   0.0 |  0.64
Output  | 0.00041008 | 0.00041008 | 0.00041008 |   0.0 |  0.00
Modify  | 10.491     | 10.491     | 10.491     |   0.0 |  0.78
Other   |            | 2.923      |            |       |  0.22

Nlocal:    19652 ave 19652 max 19652 min
Histogram: 1 0 0 0 0 0 0 0 0 0
Nghost:    20175 ave 20175 max 20175 min
Histogram: 1 0 0 0 0 0 0 0 0 0
Neighs:    1.8672e+06 ave 1.8672e+06 max 1.8672e+06 min
Histogram: 1 0 0 0 0 0 0 0 0 0

Total # of neighbors = 1867205
Ave neighs/atom = 95.0135
Neighbor list builds = 6172
Dangerous builds not checked
Setting up Verlet run ...
  Unit style    : metal
  Current step  : 193341
  Time step     : 0.001
Per MPI rank memory allocation (min/avg/max) = 19.34 | 19.34 | 19.34 Mbytes
Step Temp Press TotEng PotEng Enthalpy 
  193341    1321.6216    1340.2841   -60615.901    -63972.94   -60395.934 
  193343     1321.547    1308.8968   -60615.922   -63972.772   -60401.107 
  193836    1267.9667     322.4327   -60805.255   -64026.006    -60752.38 
Loop time of 108.387 on 1 procs for 495 steps with 19652 atoms

Performance: 0.395 ns/day, 60.824 hours/ns, 4.567 timesteps/s
99.9% CPU use with 1 MPI tasks x no OpenMP threads

MPI task timing breakdown:
Section |  min time  |  avg time  |  max time  |%varavg| %total
---------------------------------------------------------------
Pair    | 62.478     | 62.478     | 62.478     |   0.0 | 57.64
Neigh   | 44.02      | 44.02      | 44.02      |   0.0 | 40.61
Comm    | 0.7026     | 0.7026     | 0.7026     |   0.0 |  0.65
Output  | 0.070303   | 0.070303   | 0.070303   |   0.0 |  0.06
Modify  | 0.87245    | 0.87245    | 0.87245    |   0.0 |  0.80
Other   |            | 0.2441     |            |       |  0.23

Nlocal:    19652 ave 19652 max 19652 min
Histogram: 1 0 0 0 0 0 0 0 0 0
Nghost:    20251 ave 20251 max 20251 min
Histogram: 1 0 0 0 0 0 0 0 0 0
Neighs:    1.8687e+06 ave 1.8687e+06 max 1.8687e+06 min
Histogram: 1 0 0 0 0 0 0 0 0 0

Total # of neighbors = 1868697
Ave neighs/atom = 95.0894
Neighbor list builds = 495
Dangerous builds not checked
Setting up Verlet run ...
  Unit style    : metal
  Current step  : 193836
  Time step     : 0.001
Per MPI rank memory allocation (min/avg/max) = 19.34 | 19.34 | 19.34 Mbytes
Step Temp Press TotEng PotEng Enthalpy 
  193836    1267.9667     322.4327   -60805.255   -64026.006    -60752.38 
  200008    1251.1053   -1565.5355   -60920.611   -64098.532   -61177.375 
Loop time of 1358.84 on 1 procs for 6172 steps with 19652 atoms

Performance: 0.392 ns/day, 61.156 hours/ns, 4.542 timesteps/s
99.7% CPU use with 1 MPI tasks x no OpenMP threads

MPI task timing breakdown:
Section |  min time  |  avg time  |  max time  |%varavg| %total
---------------------------------------------------------------
Pair    | 786.25     | 786.25     | 786.25     |   0.0 | 57.86
Neigh   | 550.41     | 550.41     | 550.41     |   0.0 | 40.51
Comm    | 8.6687     | 8.6687     | 8.6687     |   0.0 |  0.64
Output  | 0.0002768  | 0.0002768  | 0.0002768  |   0.0 |  0.00
Modify  | 10.553     | 10.553     | 10.553     |   0.0 |  0.78
Other   |            | 2.954      |            |       |  0.22

Nlocal:    19652 ave 19652 max 19652 min
Histogram: 1 0 0 0 0 0 0 0 0 0
Nghost:    20103 ave 20103 max 20103 min
Histogram: 1 0 0 0 0 0 0 0 0 0
Neighs:    1.86816e+06 ave 1.86816e+06 max 1.86816e+06 min
Histogram: 1 0 0 0 0 0 0 0 0 0

Total # of neighbors = 1868164
Ave neighs/atom = 95.0623
Neighbor list builds = 6172
Dangerous builds not checked
Setting up Verlet run ...
  Unit style    : metal
  Current step  : 200008
  Time step     : 0.001
Per MPI rank memory allocation (min/avg/max) = 19.34 | 19.34 | 19.34 Mbytes
Step Temp Press TotEng PotEng Enthalpy 
  200008    1251.1053   -1565.5355   -60920.611   -64098.532   -61177.375 
  200010    1250.4861   -1534.4356   -60920.612   -64096.961   -61172.275 
  200503    1214.8469   -927.28022   -61126.633   -64212.455   -61278.196 
Loop time of 106.321 on 1 procs for 495 steps with 19652 atoms

Performance: 0.402 ns/day, 59.664 hours/ns, 4.656 timesteps/s
99.8% CPU use with 1 MPI tasks x no OpenMP threads

MPI task timing breakdown:
Section |  min time  |  avg time  |  max time  |%varavg| %total
---------------------------------------------------------------
Pair    | 61.31      | 61.31      | 61.31      |   0.0 | 57.66
Neigh   | 43.207     | 43.207     | 43.207     |   0.0 | 40.64
Comm    | 0.67955    | 0.67955    | 0.67955    |   0.0 |  0.64
Output  | 0.055024   | 0.055024   | 0.055024   |   0.0 |  0.05
Modify  | 0.83641    | 0.83641    | 0.83641    |   0.0 |  0.79
Other   |            | 0.2334     |            |       |  0.22

Nlocal:    19652 ave 19652 max 19652 min
Histogram: 1 0 0 0 0 0 0 0 0 0
Nghost:    20204 ave 20204 max 20204 min
Histogram: 1 0 0 0 0 0 0 0 0 0
Neighs:    1.87372e+06 ave 1.87372e+06 max 1.87372e+06 min
Histogram: 1 0 0 0 0 0 0 0 0 0

Total # of neighbors = 1873720
Ave neighs/atom = 95.345
Neighbor list builds = 495
Dangerous builds not checked
Setting up Verlet run ...
  Unit style    : metal
  Current step  : 200503
  Time step     : 0.001
Per MPI rank memory allocation (min/avg/max) = 19.34 | 19.34 | 19.34 Mbytes
Step Temp Press TotEng PotEng Enthalpy 
  200503    1214.8469   -927.28022   -61126.633   -64212.455   -61278.196 
  206675    1205.2576    308.14568   -61296.916    -64358.38   -61246.765 
Loop time of 1347.7 on 1 procs for 6172 steps with 19652 atoms

Performance: 0.396 ns/day, 60.655 hours/ns, 4.580 timesteps/s
99.7% CPU use with 1 MPI tasks x no OpenMP threads

MPI task timing breakdown:
Section |  min time  |  avg time  |  max time  |%varavg| %total
---------------------------------------------------------------
Pair    | 779.51     | 779.51     | 779.51     |   0.0 | 57.84
Neigh   | 546.31     | 546.31     | 546.31     |   0.0 | 40.54
Comm    | 8.5059     | 8.5059     | 8.5059     |   0.0 |  0.63
Output  | 0.00024009 | 0.00024009 | 0.00024009 |   0.0 |  0.00
Modify  | 10.447     | 10.447     | 10.447     |   0.0 |  0.78
Other   |            | 2.934      |            |       |  0.22

Nlocal:    19652 ave 19652 max 19652 min
Histogram: 1 0 0 0 0 0 0 0 0 0
Nghost:    20212 ave 20212 max 20212 min
Histogram: 1 0 0 0 0 0 0 0 0 0
Neighs:    1.88172e+06 ave 1.88172e+06 max 1.88172e+06 min
Histogram: 1 0 0 0 0 0 0 0 0 0

Total # of neighbors = 1881724
Ave neighs/atom = 95.7523
Neighbor list builds = 6172
Dangerous builds not checked
Setting up Verlet run ...
  Unit style    : metal
  Current step  : 206675
  Time step     : 0.001
[...]
99.7% CPU use with 1 MPI tasks x no OpenMP threads

MPI task timing breakdown:
Section |  min time  |  avg time  |  max time  |%varavg| %total
---------------------------------------------------------------
Pair    | 66.405     | 66.405     | 66.405     |   0.0 | 56.54
Neigh   | 48.948     | 48.948     | 48.948     |   0.0 | 41.67
Comm    | 0.81128    | 0.81128    | 0.81128    |   0.0 |  0.69
Output  | 0.06949    | 0.06949    | 0.06949    |   0.0 |  0.06
Modify  | 0.94223    | 0.94223    | 0.94223    |   0.0 |  0.80
Other   |            | 0.2784     |            |       |  0.24

Nlocal:    19652 ave 19652 max 19652 min
Histogram: 1 0 0 0 0 0 0 0 0 0
Nghost:    20849 ave 20849 max 20849 min
Histogram: 1 0 0 0 0 0 0 0 0 0
Neighs:    2.01497e+06 ave 2.01497e+06 max 2.01497e+06 min
Histogram: 1 0 0 0 0 0 0 0 0 0

Total # of neighbors = 2014971
Ave neighs/atom = 102.533
Neighbor list builds = 495
Dangerous builds not checked
Setting up Verlet run ...
  Unit style    : metal
  Current step  : 307175
  Time step     : 0.001
Per MPI rank memory allocation (min/avg/max) = 19.35 | 19.35 | 19.35 Mbytes
Step Temp Press TotEng PotEng Enthalpy 
  307175    421.31967   -582.53666   -66508.978   -67579.168   -66597.325 
  313347    396.91729   -955.40315    -66656.16   -67664.366   -66800.829 
Loop time of 1467.51 on 1 procs for 6172 steps with 19652 atoms

Performance: 0.363 ns/day, 66.047 hours/ns, 4.206 timesteps/s
99.5% CPU use with 1 MPI tasks x no OpenMP threads

MPI task timing breakdown:
Section |  min time  |  avg time  |  max time  |%varavg| %total
---------------------------------------------------------------
Pair    | 831.72     | 831.72     | 831.72     |   0.0 | 56.68
Neigh   | 610.55     | 610.55     | 610.55     |   0.0 | 41.60
Comm    | 10.062     | 10.062     | 10.062     |   0.0 |  0.69
Output  | 0.00050521 | 0.00050521 | 0.00050521 |   0.0 |  0.00
Modify  | 11.723     | 11.723     | 11.723     |   0.0 |  0.80
Other   |            | 3.458      |            |       |  0.24

Nlocal:    19652 ave 19652 max 19652 min
Histogram: 1 0 0 0 0 0 0 0 0 0
Nghost:    20789 ave 20789 max 20789 min
Histogram: 1 0 0 0 0 0 0 0 0 0
Neighs:    2.01825e+06 ave 2.01825e+06 max 2.01825e+06 min
Histogram: 1 0 0 0 0 0 0 0 0 0

Total # of neighbors = 2018248
Ave neighs/atom = 102.699
Neighbor list builds = 6172
Dangerous builds not checked
Setting up Verlet run ...
  Unit style    : metal
  Current step  : 313347
  Time step     : 0.001
Per MPI rank memory allocation (min/avg/max) = 19.35 | 19.35 | 19.35 Mbytes
Step Temp Press TotEng PotEng Enthalpy 
  313347    396.91729   -955.40315    -66656.16   -67664.366   -66800.829 
  313349    396.48184   -934.85946   -66656.157   -67663.257   -66797.715 
  313842    372.60105   -252.82511   -66788.348   -67734.789    -66826.55 
Loop time of 120.261 on 1 procs for 495 steps with 19652 atoms

Performance: 0.356 ns/day, 67.486 hours/ns, 4.116 timesteps/s
99.8% CPU use with 1 MPI tasks x no OpenMP threads

MPI task timing breakdown:
Section |  min time  |  avg time  |  max time  |%varavg| %total
---------------------------------------------------------------
Pair    | 68.797     | 68.797     | 68.797     |   0.0 | 57.21
Neigh   | 49.235     | 49.235     | 49.235     |   0.0 | 40.94
Comm    | 0.87444    | 0.87444    | 0.87444    |   0.0 |  0.73
Output  | 0.071071   | 0.071071   | 0.071071   |   0.0 |  0.06
Modify  | 0.9943     | 0.9943     | 0.9943     |   0.0 |  0.83
Other   |            | 0.2884     |            |       |  0.24

Nlocal:    19652 ave 19652 max 19652 min
Histogram: 1 0 0 0 0 0 0 0 0 0
Nghost:    20878 ave 20878 max 20878 min
Histogram: 1 0 0 0 0 0 0 0 0 0
Neighs:    2.0229e+06 ave 2.0229e+06 max 2.0229e+06 min
Histogram: 1 0 0 0 0 0 0 0 0 0

Total # of neighbors = 2022900
Ave neighs/atom = 102.936
Neighbor list builds = 495
Dangerous builds not checked
Setting up Verlet run ...
  Unit style    : metal
  Current step  : 313842
  Time step     : 0.001
Per MPI rank memory allocation (min/avg/max) = 19.35 | 19.35 | 19.35 Mbytes
Step Temp Press TotEng PotEng Enthalpy 
  313842    372.60105   -252.82511   -66788.348   -67734.789    -66826.55 
  320014    353.37436    140.71402   -66900.017    -67797.62    -66878.79 
Loop time of 1497.38 on 1 procs for 6172 steps with 19652 atoms

Performance: 0.356 ns/day, 67.391 hours/ns, 4.122 timesteps/s
99.0% CPU use with 1 MPI tasks x no OpenMP threads

MPI task timing breakdown:
Section |  min time  |  avg time  |  max time  |%varavg| %total
---------------------------------------------------------------
Pair    | 855.62     | 855.62     | 855.62     |   0.0 | 57.14
Neigh   | 615.49     | 615.49     | 615.49     |   0.0 | 41.10
Comm    | 10.56      | 10.56      | 10.56      |   0.0 |  0.71
Output  | 0.0004499  | 0.0004499  | 0.0004499  |   0.0 |  0.00
Modify  | 12.12      | 12.12      | 12.12      |   0.0 |  0.81
Other   |            | 3.589      |            |       |  0.24

Nlocal:    19652 ave 19652 max 19652 min
Histogram: 1 0 0 0 0 0 0 0 0 0
Nghost:    20834 ave 20834 max 20834 min
Histogram: 1 0 0 0 0 0 0 0 0 0
Neighs:    2.02692e+06 ave 2.02692e+06 max 2.02692e+06 min
Histogram: 1 0 0 0 0 0 0 0 0 0

Total # of neighbors = 2026915
Ave neighs/atom = 103.14
Neighbor list builds = 6172
Dangerous builds not checked
Setting up Verlet run ...
  Unit style    : metal
  Current step  : 320014
  Time step     : 0.001
Per MPI rank memory allocation (min/avg/max) = 19.35 | 19.35 | 19.35 Mbytes
Step Temp Press TotEng PotEng Enthalpy 
  320014    353.37436    140.71402   -66900.017    -67797.62    -66878.79 
  320016    353.04484     157.6405    -66900.02   -67796.786    -66876.24 
  320509    319.58625   -711.40565   -67058.676   -67870.454   -67165.893 
Loop time of 129.458 on 1 procs for 495 steps with 19652 atoms

Performance: 0.330 ns/day, 72.647 hours/ns, 3.824 timesteps/s
92.8% CPU use with 1 MPI tasks x no OpenMP threads

MPI task timing breakdown:
Section |  min time  |  avg time  |  max time  |%varavg| %total
---------------------------------------------------------------
Pair    | 73.753     | 73.753     | 73.753     |   0.0 | 56.97
Neigh   | 53.363     | 53.363     | 53.363     |   0.0 | 41.22
Comm    | 0.88381    | 0.88381    | 0.88381    |   0.0 |  0.68
Output  | 0.073923   | 0.073923   | 0.073923   |   0.0 |  0.06
Modify  | 1.0621     | 1.0621     | 1.0621     |   0.0 |  0.82
Other   |            | 0.321      |            |       |  0.25

Nlocal:    19652 ave 19652 max 19652 min
Histogram: 1 0 0 0 0 0 0 0 0 0
Nghost:    20889 ave 20889 max 20889 min
Histogram: 1 0 0 0 0 0 0 0 0 0
Neighs:    2.02877e+06 ave 2.02877e+06 max 2.02877e+06 min
Histogram: 1 0 0 0 0 0 0 0 0 0

Total # of neighbors = 2028773
Ave neighs/atom = 103.235
Neighbor list builds = 495
Dangerous builds not checked
Setting up Verlet run ...
  Unit style    : metal
  Current step  : 320509
  Time step     : 0.001
Per MPI rank memory allocation (min/avg/max) = 19.35 | 19.35 | 19.35 Mbytes
Step Temp Press TotEng PotEng Enthalpy 
  320509    319.58625   -711.40565   -67058.676   -67870.454   -67165.893 
  326681    301.48677    -78.76012   -67172.719   -67938.522   -67184.565 
Loop time of 1614.38 on 1 procs for 6172 steps with 19652 atoms

Performance: 0.330 ns/day, 72.657 hours/ns, 3.823 timesteps/s
93.6% CPU use with 1 MPI tasks x no OpenMP threads

MPI task timing breakdown:
Section |  min time  |  avg time  |  max time  |%varavg| %total
---------------------------------------------------------------
Pair    | 924.38     | 924.38     | 924.38     |   0.0 | 57.26
Neigh   | 661.69     | 661.69     | 661.69     |   0.0 | 40.99
Comm    | 11.347     | 11.347     | 11.347     |   0.0 |  0.70
Output  | 0.00030208 | 0.00030208 | 0.00030208 |   0.0 |  0.00
Modify  | 13.155     | 13.155     | 13.155     |   0.0 |  0.81
Other   |            | 3.815      |            |       |  0.24

Nlocal:    19652 ave 19652 max 19652 min
Histogram: 1 0 0 0 0 0 0 0 0 0
Nghost:    20896 ave 20896 max 20896 min
Histogram: 1 0 0 0 0 0 0 0 0 0
Neighs:    2.03354e+06 ave 2.03354e+06 max 2.03354e+06 min
Histogram: 1 0 0 0 0 0 0 0 0 0

Total # of neighbors = 2033539
Ave neighs/atom = 103.477
Neighbor list builds = 6172
Dangerous builds not checked
Setting up Verlet run ...
  Unit style    : metal
  Current step  : 326681
  Time step     : 0.001
Per MPI rank memory allocation (min/avg/max) = 19.35 | 19.35 | 19.35 Mbytes
Step Temp Press TotEng PotEng Enthalpy 
  326681    301.48677    -78.76012   -67172.719   -67938.522   -67184.565 
  326683    301.62334    -77.41302    -67172.72   -67938.871   -67184.364 
  327176    273.15695    179.70738   -67322.436   -68016.279   -67295.455 
Loop time of 124.079 on 1 procs for 495 steps with 19652 atoms

Performance: 0.345 ns/day, 69.629 hours/ns, 3.989 timesteps/s
96.3% CPU use with 1 MPI tasks x no OpenMP threads

MPI task timing breakdown:
Section |  min time  |  avg time  |  max time  |%varavg| %total
---------------------------------------------------------------
Pair    | 71.023     | 71.023     | 71.023     |   0.0 | 57.24
Neigh   | 50.801     | 50.801     | 50.801     |   0.0 | 40.94
Comm    | 0.8733     | 0.8733     | 0.8733     |   0.0 |  0.70
Output  | 0.076261   | 0.076261   | 0.076261   |   0.0 |  0.06
Modify  | 1.0089     | 1.0089     | 1.0089     |   0.0 |  0.81
Other   |            | 0.2971     |            |       |  0.24

Nlocal:    19652 ave 19652 max 19652 min
Histogram: 1 0 0 0 0 0 0 0 0 0
Nghost:    20883 ave 20883 max 20883 min
Histogram: 1 0 0 0 0 0 0 0 0 0
Neighs:    2.03726e+06 ave 2.03726e+06 max 2.03726e+06 min
Histogram: 1 0 0 0 0 0 0 0 0 0

Total # of neighbors = 2037259
Ave neighs/atom = 103.667
Neighbor list builds = 495
Dangerous builds not checked
Setting up Verlet run ...
  Unit style    : metal
  Current step  : 327176
  Time step     : 0.001
Per MPI rank memory allocation (min/avg/max) = 19.35 | 19.35 | 19.35 Mbytes
Step Temp Press TotEng PotEng Enthalpy 
  327176    273.15695    179.70738   -67322.436   -68016.279   -67295.455 
  333348    251.84751    1243.6775   -67447.151   -68086.867   -67260.862 
Loop time of 1510.78 on 1 procs for 6172 steps with 19652 atoms

Performance: 0.353 ns/day, 67.994 hours/ns, 4.085 timesteps/s
97.0% CPU use with 1 MPI tasks x no OpenMP threads

MPI task timing breakdown:
Section |  min time  |  avg time  |  max time  |%varavg| %total
---------------------------------------------------------------
Pair    | 861.7      | 861.7      | 861.7      |   0.0 | 57.04
Neigh   | 623.31     | 623.31     | 623.31     |   0.0 | 41.26
Comm    | 10.242     | 10.242     | 10.242     |   0.0 |  0.68
Output  | 0.00029206 | 0.00029206 | 0.00029206 |   0.0 |  0.00
Modify  | 12.035     | 12.035     | 12.035     |   0.0 |  0.80
Other   |            | 3.49       |            |       |  0.23

Nlocal:    19652 ave 19652 max 19652 min
Histogram: 1 0 0 0 0 0 0 0 0 0
Nghost:    20920 ave 20920 max 20920 min
Histogram: 1 0 0 0 0 0 0 0 0 0
Neighs:    2.0429e+06 ave 2.0429e+06 max 2.0429e+06 min
Histogram: 1 0 0 0 0 0 0 0 0 0

Total # of neighbors = 2042903
Ave neighs/atom = 103.954
Neighbor list builds = 6172
Dangerous builds not checked
Setting up Verlet run ...
  Unit style    : metal
  Current step  : 333348
  Time step     : 0.001
Per MPI rank memory allocation (min/avg/max) = 19.35 | 19.35 | 19.35 Mbytes
Step Temp Press TotEng PotEng Enthalpy 
  333348    251.84751    1243.6775   -67447.151   -68086.867   -67260.862 
  333350     251.8006    1240.1858   -67447.154    -68086.75   -67261.386 
  333843    225.33999    1035.2966   -67585.863   -68158.248   -67431.007 
Loop time of 121.533 on 1 procs for 495 steps with 19652 atoms

Performance: 0.352 ns/day, 68.200 hours/ns, 4.073 timesteps/s
93.9% CPU use with 1 MPI tasks x no OpenMP threads

MPI task timing breakdown:
Section |  min time  |  avg time  |  max time  |%varavg| %total
---------------------------------------------------------------
Pair    | 69.187     | 69.187     | 69.187     |   0.0 | 56.93
Neigh   | 50.323     | 50.323     | 50.323     |   0.0 | 41.41
Comm    | 0.75087    | 0.75087    | 0.75087    |   0.0 |  0.62
Output  | 0.070365   | 0.070365   | 0.070365   |   0.0 |  0.06
Modify  | 0.93167    | 0.93167    | 0.93167    |   0.0 |  0.77
Other   |            | 0.2697     |            |       |  0.22

Nlocal:    19652 ave 19652 max 19652 min
Histogram: 1 0 0 0 0 0 0 0 0 0
Nghost:    20899 ave 20899 max 20899 min
Histogram: 1 0 0 0 0 0 0 0 0 0
Neighs:    2.04619e+06 ave 2.04619e+06 max 2.04619e+06 min
Histogram: 1 0 0 0 0 0 0 0 0 0

Total # of neighbors = 2046193
Ave neighs/atom = 104.121
Neighbor list builds = 495
Dangerous builds not checked
Setting up Verlet run ...
  Unit style    : metal
  Current step  : 333843
  Time step     : 0.001
Per MPI rank memory allocation (min/avg/max) = 19.35 | 19.35 | 19.35 Mbytes
Step Temp Press TotEng PotEng Enthalpy 
  333843    225.33999    1035.2966   -67585.863   -68158.248   -67431.007 
  340015    199.83057   -173.42263    -67717.83   -68225.418   -67743.756 
Loop time of 1503.12 on 1 procs for 6172 steps with 19652 atoms

Performance: 0.355 ns/day, 67.650 hours/ns, 4.106 timesteps/s
94.1% CPU use with 1 MPI tasks x no OpenMP threads

MPI task timing breakdown:
Section |  min time  |  avg time  |  max time  |%varavg| %total
---------------------------------------------------------------
Pair    | 849.98     | 849.98     | 849.98     |   0.0 | 56.55
Neigh   | 628.92     | 628.92     | 628.92     |   0.0 | 41.84
Comm    | 9.5986     | 9.5986     | 9.5986     |   0.0 |  0.64
Output  | 0.00025296 | 0.00025296 | 0.00025296 |   0.0 |  0.00
Modify  | 11.3       | 11.3       | 11.3       |   0.0 |  0.75
Other   |            | 3.325      |            |       |  0.22

Nlocal:    19652 ave 19652 max 19652 min
Histogram: 1 0 0 0 0 0 0 0 0 0
Nghost:    20900 ave 20900 max 20900 min
Histogram: 1 0 0 0 0 0 0 0 0 0
Neighs:    2.04768e+06 ave 2.04768e+06 max 2.04768e+06 min
Histogram: 1 0 0 0 0 0 0 0 0 0

Total # of neighbors = 2047684
Ave neighs/atom = 104.197
Neighbor list builds = 6172
Dangerous builds not checked
Setting up Verlet run ...
  Unit style    : metal
  Current step  : 340015
  Time step     : 0.001
Per MPI rank memory allocation (min/avg/max) = 19.35 | 19.35 | 19.35 Mbytes
Step Temp Press TotEng PotEng Enthalpy 
  340015    199.83057   -173.42263    -67717.83   -68225.418   -67743.756 
  340017    199.89863    -171.5424    -67717.83   -68225.591   -67743.475 
  340510    175.23107    153.69659   -67843.793   -68288.896   -67820.853 
Loop time of 123.071 on 1 procs for 495 steps with 19652 atoms

Performance: 0.348 ns/day, 69.063 hours/ns, 4.022 timesteps/s
93.6% CPU use with 1 MPI tasks x no OpenMP threads

MPI task timing breakdown:
Section |  min time  |  avg time  |  max time  |%varavg| %total
---------------------------------------------------------------
Pair    | 70.401     | 70.401     | 70.401     |   0.0 | 57.20
Neigh   | 50.562     | 50.562     | 50.562     |   0.0 | 41.08
Comm    | 0.76042    | 0.76042    | 0.76042    |   0.0 |  0.62
Output  | 0.066858   | 0.066858   | 0.066858   |   0.0 |  0.05
Modify  | 1.0138     | 1.0138     | 1.0138     |   0.0 |  0.82
Other   |            | 0.2668     |            |       |  0.22

Nlocal:    19652 ave 19652 max 19652 min
Histogram: 1 0 0 0 0 0 0 0 0 0
Nghost:    20919 ave 20919 max 20919 min
Histogram: 1 0 0 0 0 0 0 0 0 0
Neighs:    2.05132e+06 ave 2.05132e+06 max 2.05132e+06 min
Histogram: 1 0 0 0 0 0 0 0 0 0

Total # of neighbors = 2051322
Ave neighs/atom = 104.382
Neighbor list builds = 495
Dangerous builds not checked
Setting up Verlet run ...
  Unit style    : metal
  Current step  : 340510
  Time step     : 0.001
Per MPI rank memory allocation (min/avg/max) = 19.35 | 19.35 | 19.35 Mbytes
Step Temp Press TotEng PotEng Enthalpy 
  340510    175.23107    153.69659   -67843.793   -68288.896   -67820.853 
  346682    149.79698   -424.84497   -67984.348   -68364.846   -68047.684 
Loop time of 1575.32 on 1 procs for 6172 steps with 19652 atoms

Performance: 0.339 ns/day, 70.899 hours/ns, 3.918 timesteps/s
88.6% CPU use with 1 MPI tasks x no OpenMP threads

MPI task timing breakdown:
Section |  min time  |  avg time  |  max time  |%varavg| %total
---------------------------------------------------------------
Pair    | 891.95     | 891.95     | 891.95     |   0.0 | 56.62
Neigh   | 658.36     | 658.36     | 658.36     |   0.0 | 41.79
Comm    | 9.7457     | 9.7457     | 9.7457     |   0.0 |  0.62
Output  | 0.00048804 | 0.00048804 | 0.00048804 |   0.0 |  0.00
Modify  | 11.777     | 11.777     | 11.777     |   0.0 |  0.75
Other   |            | 3.489      |            |       |  0.22

Nlocal:    19652 ave 19652 max 19652 min
Histogram: 1 0 0 0 0 0 0 0 0 0
Nghost:    20961 ave 20961 max 20961 min
Histogram: 1 0 0 0 0 0 0 0 0 0
Neighs:    2.0541e+06 ave 2.0541e+06 max 2.0541e+06 min
Histogram: 1 0 0 0 0 0 0 0 0 0

Total # of neighbors = 2054105
Ave neighs/atom = 104.524
Neighbor list builds = 6172
Dangerous builds not checked
Setting up Verlet run ...
  Unit style    : metal
  Current step  : 346682
  Time step     : 0.001
Per MPI rank memory allocation (min/avg/max) = 19.35 | 19.35 | 19.35 Mbytes
Step Temp Press TotEng PotEng Enthalpy 
  346682    149.79698   -424.84497   -67984.348   -68364.846   -68047.684 
  346684    149.71993   -417.62739   -67984.348   -68364.651   -68046.607 
  347177    126.36402   -206.28486   -68098.207   -68419.184   -68128.919 
Loop time of 130.435 on 1 procs for 495 steps with 19652 atoms

Performance: 0.328 ns/day, 73.196 hours/ns, 3.795 timesteps/s
85.4% CPU use with 1 MPI tasks x no OpenMP threads

MPI task timing breakdown:
Section |  min time  |  avg time  |  max time  |%varavg| %total
---------------------------------------------------------------
Pair    | 73.472     | 73.472     | 73.472     |   0.0 | 56.33
Neigh   | 54.81      | 54.81      | 54.81      |   0.0 | 42.02
Comm    | 0.78801    | 0.78801    | 0.78801    |   0.0 |  0.60
Output  | 0.068048   | 0.068048   | 0.068048   |   0.0 |  0.05
Modify  | 1.0057     | 1.0057     | 1.0057     |   0.0 |  0.77
Other   |            | 0.2913     |            |       |  0.22

Nlocal:    19652 ave 19652 max 19652 min
Histogram: 1 0 0 0 0 0 0 0 0 0
Nghost:    20952 ave 20952 max 20952 min
Histogram: 1 0 0 0 0 0 0 0 0 0
Neighs:    2.05713e+06 ave 2.05713e+06 max 2.05713e+06 min
Histogram: 1 0 0 0 0 0 0 0 0 0

Total # of neighbors = 2057130
Ave neighs/atom = 104.678
Neighbor list builds = 495
Dangerous builds not checked
Setting up Verlet run ...
  Unit style    : metal
  Current step  : 347177
  Time step     : 0.001
Per MPI rank memory allocation (min/avg/max) = 19.35 | 19.35 | 19.35 Mbytes
Step Temp Press TotEng PotEng Enthalpy 
  347177    126.36402   -206.28486   -68098.207   -68419.184   -68128.919 
  353349    99.865987   -709.90238   -68238.247   -68491.915   -68343.811 
Loop time of 1639.59 on 1 procs for 6172 steps with 19652 atoms

Performance: 0.325 ns/day, 73.792 hours/ns, 3.764 timesteps/s
82.9% CPU use with 1 MPI tasks x no OpenMP threads

MPI task timing breakdown:
Section |  min time  |  avg time  |  max time  |%varavg| %total
---------------------------------------------------------------
Pair    | 926.08     | 926.08     | 926.08     |   0.0 | 56.48
Neigh   | 687.94     | 687.94     | 687.94     |   0.0 | 41.96
Comm    | 9.9423     | 9.9423     | 9.9423     |   0.0 |  0.61
Output  | 0.00022388 | 0.00022388 | 0.00022388 |   0.0 |  0.00
Modify  | 12.088     | 12.088     | 12.088     |   0.0 |  0.74
Other   |            | 3.541      |            |       |  0.22

Nlocal:    19652 ave 19652 max 19652 min
Histogram: 1 0 0 0 0 0 0 0 0 0
Nghost:    20926 ave 20926 max 20926 min
Histogram: 1 0 0 0 0 0 0 0 0 0
Neighs:    2.06064e+06 ave 2.06064e+06 max 2.06064e+06 min
Histogram: 1 0 0 0 0 0 0 0 0 0

Total # of neighbors = 2060642
Ave neighs/atom = 104.857
Neighbor list builds = 6172
Dangerous builds not checked
Total wall time: 20:36:16
