LAMMPS (12 Dec 2018)
Lattice spacing in x,y,z = 4 4 4
Created orthogonal box = (0 0 0) to (68 68 68)
  1 by 1 by 1 MPI processor grid
Created 19652 atoms
  Time spent = 0.010088 secs
Setting atom values ...
  0 settings made for type/fraction
Neighbor list info ...
  update every 1 steps, delay 0 steps, check no
  max neighbors/atom: 2000, page size: 100000
  master list distance cutoff = 8.5
  ghost atom cutoff = 8.5
  binsize = 4.25, bins = 16 16 16
  1 neighbor lists, perpetual/occasional/extra = 1 0 0
  (1) pair eam/alloy, perpetual
      attributes: half, newton on
      pair build: half/bin/atomonly/newton
      stencil: half/bin/3d/newton
      bin: standard
Setting up Verlet run ...
  Unit style    : metal
  Current step  : 0
  Time step     : 0.001
Per MPI rank memory allocation (min/avg/max) = 18.19 | 18.19 | 18.19 Mbytes
Step Temp Press TotEng PotEng Enthalpy Volume 
       0          300   -183460.02   -62645.811   -63407.838   -98650.396       314432 
     667    156.61869   -173207.19   -62645.797   -63043.623   -96638.235       314432 
    1000    157.12787   -173092.19   -62645.798   -63044.917   -96615.665       314432 
Loop time of 213.916 on 1 procs for 1000 steps with 19652 atoms

Performance: 0.404 ns/day, 59.421 hours/ns, 4.675 timesteps/s
80.3% CPU use with 1 MPI tasks x no OpenMP threads

MPI task timing breakdown:
Section |  min time  |  avg time  |  max time  |%varavg| %total
---------------------------------------------------------------
Pair    | 124.57     | 124.57     | 124.57     |   0.0 | 58.23
Neigh   | 86.2       | 86.2       | 86.2       |   0.0 | 40.30
Comm    | 1.7814     | 1.7814     | 1.7814     |   0.0 |  0.83
Output  | 0.064905   | 0.064905   | 0.064905   |   0.0 |  0.03
Modify  | 0.71172    | 0.71172    | 0.71172    |   0.0 |  0.33
Other   |            | 0.5879     |            |       |  0.27

Nlocal:    19652 ave 19652 max 19652 min
Histogram: 1 0 0 0 0 0 0 0 0 0
Nghost:    20091 ave 20091 max 20091 min
Histogram: 1 0 0 0 0 0 0 0 0 0
Neighs:    1.56402e+06 ave 1.56402e+06 max 1.56402e+06 min
Histogram: 1 0 0 0 0 0 0 0 0 0

Total # of neighbors = 1564020
Ave neighs/atom = 79.5858
Neighbor list builds = 1000
Dangerous builds not checked
Setting up Verlet run ...
  Unit style    : metal
  Current step  : 1000
  Time step     : 0.001
Per MPI rank memory allocation (min/avg/max) = 18.19 | 18.19 | 18.19 Mbytes
Step Temp Press TotEng PotEng Enthalpy Volume 
    1000    157.12787   -173092.19   -62645.798   -63044.917   -96615.665       314432 
    1334    357.86393   -14777.244   -67698.972   -68607.979    -69958.15    244944.33 
    2000    294.08567    240.37261   -68086.796   -68833.801   -68050.661    240855.64 
Loop time of 253.731 on 1 procs for 1000 steps with 19652 atoms

Performance: 0.341 ns/day, 70.481 hours/ns, 3.941 timesteps/s
85.4% CPU use with 1 MPI tasks x no OpenMP threads

MPI task timing breakdown:
Section |  min time  |  avg time  |  max time  |%varavg| %total
---------------------------------------------------------------
Pair    | 140.28     | 140.28     | 140.28     |   0.0 | 55.29
Neigh   | 108.83     | 108.83     | 108.83     |   0.0 | 42.89
Comm    | 1.6897     | 1.6897     | 1.6897     |   0.0 |  0.67
Output  | 0.059698   | 0.059698   | 0.059698   |   0.0 |  0.02
Modify  | 2.3072     | 2.3072     | 2.3072     |   0.0 |  0.91
Other   |            | 0.5613     |            |       |  0.22

Nlocal:    19652 ave 19652 max 19652 min
Histogram: 1 0 0 0 0 0 0 0 0 0
Nghost:    20102 ave 20102 max 20102 min
Histogram: 1 0 0 0 0 0 0 0 0 0
Neighs:    2.02227e+06 ave 2.02227e+06 max 2.02227e+06 min
Histogram: 1 0 0 0 0 0 0 0 0 0

Total # of neighbors = 2022269
Ave neighs/atom = 102.904
Neighbor list builds = 1000
Dangerous builds not checked
Setting up Verlet run ...
  Unit style    : metal
  Current step  : 2000
  Time step     : 0.001
Per MPI rank memory allocation (min/avg/max) = 19.33 | 19.33 | 19.33 Mbytes
Step Temp Press TotEng PotEng Enthalpy Volume 
    2000    294.08567    240.37261   -68086.796   -68833.801   -68050.661    240855.64 
    2001    294.02325    243.35272   -68086.795   -68833.641   -68050.211    240855.67 
    2668    383.59415    135.10246   -67609.053   -68583.417    -67588.62    242308.75 
    3335    575.29093   -1016.3951   -66579.182   -68040.474   -66734.957    245552.48 
    4002    796.26965    1639.9834   -65328.543    -67351.14   -65073.762    248907.41 
    4669    998.35529   -1104.2551   -64195.439   -66731.352   -64369.815    253004.55 
    5336    1178.1972    1831.6814   -63082.984   -66075.712   -62790.055    256225.73 
    6003    1355.5431   -1229.1459   -61904.455   -65347.658   -62104.842    261201.97 
    6670    1542.5356   -107.30296   -60576.865   -64495.045   -60594.702    266334.06 
    7337    1680.6706    1046.0996    -58734.28   -63003.337   -58554.234    275753.45 
    8004    1908.9047    928.63988   -56764.232   -61613.024   -56598.642    285690.81 
    8671    2078.3004   -1276.6055   -55657.548    -60936.62   -55889.553    291173.47 
    9338    2254.2792    -794.6821   -54669.211   -60395.286   -54815.598    295132.97 
   10000    2449.1222    508.42683   -53610.318   -59831.311   -53515.405    299094.16 
Loop time of 1660.67 on 1 procs for 8000 steps with 19652 atoms

Performance: 0.416 ns/day, 57.662 hours/ns, 4.817 timesteps/s
98.9% CPU use with 1 MPI tasks x no OpenMP threads

MPI task timing breakdown:
Section |  min time  |  avg time  |  max time  |%varavg| %total
---------------------------------------------------------------
Pair    | 922.78     | 922.78     | 922.78     |   0.0 | 55.57
Neigh   | 707.82     | 707.82     | 707.82     |   0.0 | 42.62
Comm    | 10.698     | 10.698     | 10.698     |   0.0 |  0.64
Output  | 0.70672    | 0.70672    | 0.70672    |   0.0 |  0.04
Modify  | 14.966     | 14.966     | 14.966     |   0.0 |  0.90
Other   |            | 3.7        |            |       |  0.22

Nlocal:    19652 ave 19652 max 19652 min
Histogram: 1 0 0 0 0 0 0 0 0 0
Nghost:    19242 ave 19242 max 19242 min
Histogram: 1 0 0 0 0 0 0 0 0 0
Neighs:    1.64842e+06 ave 1.64842e+06 max 1.64842e+06 min
Histogram: 1 0 0 0 0 0 0 0 0 0

Total # of neighbors = 1648418
Ave neighs/atom = 83.8804
Neighbor list builds = 8000
Dangerous builds not checked
Setting up Verlet run ...
  Unit style    : metal
  Current step  : 10000
  Time step     : 0.001
Per MPI rank memory allocation (min/avg/max) = 19.33 | 19.33 | 19.33 Mbytes
Step Temp Press TotEng PotEng Enthalpy Volume 
   10000    2449.1222    508.42683   -53610.318   -59831.311   -53515.405    299094.16 
   10005    2447.1309    587.06716   -53610.318   -59826.253   -53500.724    299094.43 
   10672    150948.63    924383.49    366856.35   -16566.936    744172.55    653978.74 
   11339    46933.137     143633.7    87378.708   -31835.737    175554.68    983567.73 
   12006    23304.247    48000.925    24995.823   -34199.087    61474.389    1217582.8 
   12673    15489.356     34658.91    2956.4728   -36387.903    33308.577    1403085.9 
   13340     12136.25    22428.629   -7719.9447   -38547.125    14112.542    1559591.4 
   14007    12578.782    18081.661    -7385.552   -39336.805    12140.485    1730159.6 
   14674    5509.8866    5239.6405   -26243.262   -40238.876   -20084.383    1883261.1 
   15341    3111.0973    2084.0252    -32866.85    -40769.32   -30218.559    2035977.8 
   16008    7811.3207    12025.064   -21316.684    -41158.15   -5039.3231    2168737.3 
   16675    4981.2524    4419.6328   -28976.074   -41628.909   -22527.503      2337694 
   17342    4128.7309    3776.1233    -31581.22   -42068.572   -25723.954    2485187.1 
   18009    5755.5896    4450.6084   -27636.053   -42255.774     -20267.5    2652608.4 
   18676     3122.617    2267.3864   -34558.722   -42490.454   -30577.383    2813286.6 
   19343    3380.6855    2583.8579   -34257.103   -42844.352    -29472.36    2966882.7 
   20010    2573.2521    1522.6807   -36663.788   -43200.083   -33680.584    3138950.3 
   20677    2934.7695    1888.9528   -36154.038    -43608.62   -32278.509    3287155.3 
   21344    3300.6867    3124.4821   -35195.026   -43579.071   -28425.529    3471272.7 
   22011    3411.8295    2674.0294   -34247.845   -42914.203   -28051.013    3712905.9 
   22678    3616.4035    2526.0733   -33445.884   -42631.879   -27297.659    3899547.1 
   23345    6178.7471    4197.8185   -27080.899    -42775.48    -16287.05    4119675.9 
   24012    2559.1347    1263.1355   -36513.272   -43013.708   -33091.833    4339795.5 
   24679    4427.9422     2551.201   -31763.095   -43010.472   -24552.593    4528258.5 
   25346    4780.5109    2540.6717   -31088.854   -43231.787   -23564.784    4744764.5 
   26013    3937.2289    2078.0278    -33058.53    -43059.45   -26624.219    4960906.2 
   26680    2587.5908    1596.5539    -36341.93   -42914.646   -31111.875    5248473.9 
   27347    1480.0952     630.7538   -39190.059   -42949.635    -37023.93    5502179.4 
   28014    3588.7369    2635.9588   -33475.092    -42590.81   -23978.828    5771976.1 
   28681    1537.1574    646.35812   -38834.759   -42739.278   -36399.538      6036365 
   29348    2973.1548    1271.4526   -34720.976    -42273.06   -29642.926    6398926.7 
   30015    2854.6419    1178.9015   -35073.812   -42324.863   -30179.013      6652237 
   30682    3896.4815    1413.4889   -32245.804   -42143.222   -26060.929    7010498.5 
   31349    3216.0282    1124.4447   -33951.971   -42120.976    -28797.69    7344129.8 
   32016      866.553    272.21105   -39777.425   -41978.548    -38474.59    7668210.4 
   32683    6011.8831    1995.7592   -26498.051   -41768.782    -16516.42    8013158.6 
   33350    2104.8586    651.81016   -36337.863   -41684.396   -32924.414    8390399.4 
   34017    3455.4446    1091.2444   -32600.574   -41377.718   -26593.584    8819525.4 
   34684    1587.8858     428.3797   -37250.245   -41283.619   -34771.494    9270737.8 
   35351    910.60617    238.13682   -38862.737   -41175.759   -37432.787    9620651.6 
   36018    3867.3744    1186.2313   -31104.112   -40927.595   -23622.112     10105520 
   36685    1308.7101    317.94058   -37720.608   -41044.851   -35619.779     10586563 
   37352    1401.0359    331.15058   -37361.857   -40920.616   -35081.644     11032151 
   38019    800.96343    181.65935   -38878.335   -40912.855   -37570.124     11537996 
   38686    1275.7542    276.54462    -37552.09   -40792.622   -35471.161     12055976 
   39353    1548.9416     327.1285    -36523.12   -40457.573   -33951.159     12596686 
   40000    6285.8798    1241.4894   -24258.871   -40225.578   -14034.565     13194750 
Loop time of 1330.07 on 1 procs for 30000 steps with 19652 atoms

Performance: 1.949 ns/day, 12.315 hours/ns, 22.555 timesteps/s
98.6% CPU use with 1 MPI tasks x no OpenMP threads

MPI task timing breakdown:
Section |  min time  |  avg time  |  max time  |%varavg| %total
---------------------------------------------------------------
Pair    | 645.91     | 645.91     | 645.91     |   0.0 | 48.56
Neigh   | 590.45     | 590.45     | 590.45     |   0.0 | 44.39
Comm    | 24.844     | 24.844     | 24.844     |   0.0 |  1.87
Output  | 2.5194     | 2.5194     | 2.5194     |   0.0 |  0.19
Modify  | 54.909     | 54.909     | 54.909     |   0.0 |  4.13
Other   |            | 11.44      |            |       |  0.86

Nlocal:    19652 ave 19652 max 19652 min
Histogram: 1 0 0 0 0 0 0 0 0 0
Nghost:    4372 ave 4372 max 4372 min
Histogram: 1 0 0 0 0 0 0 0 0 0
Neighs:    149542 ave 149542 max 149542 min
Histogram: 1 0 0 0 0 0 0 0 0 0

Total # of neighbors = 149542
Ave neighs/atom = 7.60951
Neighbor list builds = 30000
Dangerous builds not checked
Setting up Verlet run ...
  Unit style    : metal
  Current step  : 40000
  Time step     : 0.001
Per MPI rank memory allocation (min/avg/max) = 20.23 | 20.23 | 20.23 Mbytes
Step Temp Press TotEng PotEng Enthalpy Volume 
   40000    6285.8798    1241.4894   -24258.871   -40225.578   -14034.565     13194750 
   40020    7223.3118    1537.2082   -21451.016   -39798.886    -8771.525     13215375 
   40495    12426.932    2248.4514   -7997.8005    -39563.34    13928.123     15623731 
Loop time of 13.9755 on 1 procs for 495 steps with 19652 atoms

Performance: 3.060 ns/day, 7.843 hours/ns, 35.419 timesteps/s
99.9% CPU use with 1 MPI tasks x no OpenMP threads

MPI task timing breakdown:
Section |  min time  |  avg time  |  max time  |%varavg| %total
---------------------------------------------------------------
Pair    | 7.1475     | 7.1475     | 7.1475     |   0.0 | 51.14
Neigh   | 5.3984     | 5.3984     | 5.3984     |   0.0 | 38.63
Comm    | 0.33252    | 0.33252    | 0.33252    |   0.0 |  2.38
Output  | 0.054896   | 0.054896   | 0.054896   |   0.0 |  0.39
Modify  | 0.87622    | 0.87622    | 0.87622    |   0.0 |  6.27
Other   |            | 0.1659     |            |       |  1.19

Nlocal:    19652 ave 19652 max 19652 min
Histogram: 1 0 0 0 0 0 0 0 0 0
Nghost:    4093 ave 4093 max 4093 min
Histogram: 1 0 0 0 0 0 0 0 0 0
Neighs:    143619 ave 143619 max 143619 min
Histogram: 1 0 0 0 0 0 0 0 0 0

Total # of neighbors = 143619
Ave neighs/atom = 7.30811
Neighbor list builds = 495
Dangerous builds not checked
Setting up Verlet run ...
  Unit style    : metal
  Current step  : 40495
  Time step     : 0.001
Per MPI rank memory allocation (min/avg/max) = 20.28 | 20.28 | 20.28 Mbytes
Step Temp Press TotEng PotEng Enthalpy Volume 
   40495    12426.932    2248.4514   -7997.8005    -39563.34    13928.123     15623731 
   40667    15371.825    2626.7992   -81.267522   -39127.104    27435.983     16783731 
Loop time of 4.91136 on 1 procs for 172 steps with 19652 atoms

Performance: 3.026 ns/day, 7.932 hours/ns, 35.021 timesteps/s
96.7% CPU use with 1 MPI tasks x no OpenMP threads

MPI task timing breakdown:
Section |  min time  |  avg time  |  max time  |%varavg| %total
---------------------------------------------------------------
Pair    | 2.5186     | 2.5186     | 2.5186     |   0.0 | 51.28
Neigh   | 1.8986     | 1.8986     | 1.8986     |   0.0 | 38.66
Comm    | 0.11876    | 0.11876    | 0.11876    |   0.0 |  2.42
Output  | 0.00018692 | 0.00018692 | 0.00018692 |   0.0 |  0.00
Modify  | 0.31656    | 0.31656    | 0.31656    |   0.0 |  6.45
Other   |            | 0.05872    |            |       |  1.20

Nlocal:    19652 ave 19652 max 19652 min
Histogram: 1 0 0 0 0 0 0 0 0 0
Nghost:    4002 ave 4002 max 4002 min
Histogram: 1 0 0 0 0 0 0 0 0 0
Neighs:    141460 ave 141460 max 141460 min
Histogram: 1 0 0 0 0 0 0 0 0 0

Total # of neighbors = 141460
Ave neighs/atom = 7.19825
Neighbor list builds = 172
Dangerous builds not checked
Setting up Verlet run ...
  Unit style    : metal
  Current step  : 40667
  Time step     : 0.001
Per MPI rank memory allocation (min/avg/max) = 20.38 | 20.38 | 20.38 Mbytes
Step Temp Press TotEng PotEng Enthalpy Volume 
   40667    15371.825    2626.7992   -81.267522   -39127.104    27435.983     16783731 
   40687    15849.616    2632.7233      1111.95   -39147.518    28801.163     16850615 
   41162    7564.9435    1044.2601   -19256.205   -38471.851   -6093.0329     20195856 
Loop time of 13.3267 on 1 procs for 495 steps with 19652 atoms

Performance: 3.209 ns/day, 7.479 hours/ns, 37.144 timesteps/s
99.7% CPU use with 1 MPI tasks x no OpenMP threads

MPI task timing breakdown:
Section |  min time  |  avg time  |  max time  |%varavg| %total
---------------------------------------------------------------
Pair    | 6.6916     | 6.6916     | 6.6916     |   0.0 | 50.21
Neigh   | 5.1977     | 5.1977     | 5.1977     |   0.0 | 39.00
Comm    | 0.3304     | 0.3304     | 0.3304     |   0.0 |  2.48
Output  | 0.059057   | 0.059057   | 0.059057   |   0.0 |  0.44
Modify  | 0.8796     | 0.8796     | 0.8796     |   0.0 |  6.60
Other   |            | 0.1684     |            |       |  1.26

Nlocal:    19652 ave 19652 max 19652 min
Histogram: 1 0 0 0 0 0 0 0 0 0
Nghost:    3772 ave 3772 max 3772 min
Histogram: 1 0 0 0 0 0 0 0 0 0
Neighs:    132436 ave 132436 max 132436 min
Histogram: 1 0 0 0 0 0 0 0 0 0

Total # of neighbors = 132436
Ave neighs/atom = 6.73906
Neighbor list builds = 495
Dangerous builds not checked
Setting up Verlet run ...
  Unit style    : metal
  Current step  : 41162
  Time step     : 0.001
Per MPI rank memory allocation (min/avg/max) = 20.59 | 20.59 | 20.59 Mbytes
Step Temp Press TotEng PotEng Enthalpy Volume 
   41162    7564.9435    1044.2601   -19256.205   -38471.851   -6093.0329     20195856 
   41334    11709.047    1491.3278   -8539.0128    -38281.06    11488.784     21516441 
Loop time of 4.52529 on 1 procs for 172 steps with 19652 atoms

Performance: 3.284 ns/day, 7.308 hours/ns, 38.009 timesteps/s
99.1% CPU use with 1 MPI tasks x no OpenMP threads

MPI task timing breakdown:
Section |  min time  |  avg time  |  max time  |%varavg| %total
---------------------------------------------------------------
Pair    | 2.2471     | 2.2471     | 2.2471     |   0.0 | 49.66
Neigh   | 1.7864     | 1.7864     | 1.7864     |   0.0 | 39.48
Comm    | 0.11236    | 0.11236    | 0.11236    |   0.0 |  2.48
Output  | 0.00018501 | 0.00018501 | 0.00018501 |   0.0 |  0.00
Modify  | 0.30443    | 0.30443    | 0.30443    |   0.0 |  6.73
Other   |            | 0.07481    |            |       |  1.65

Nlocal:    19652 ave 19652 max 19652 min
Histogram: 1 0 0 0 0 0 0 0 0 0
Nghost:    3682 ave 3682 max 3682 min
Histogram: 1 0 0 0 0 0 0 0 0 0
Neighs:    131204 ave 131204 max 131204 min
Histogram: 1 0 0 0 0 0 0 0 0 0

Total # of neighbors = 131204
Ave neighs/atom = 6.67637
Neighbor list builds = 172
Dangerous builds not checked
Setting up Verlet run ...
  Unit style    : metal
  Current step  : 41334
  Time step     : 0.001
Per MPI rank memory allocation (min/avg/max) = 20.65 | 20.65 | 20.65 Mbytes
Step Temp Press TotEng PotEng Enthalpy Volume 
   41334    11709.047    1491.3278   -8539.0128    -38281.06    11488.784     21516441 
   41354    11644.744    1485.4488   -8703.2661   -38281.977    11307.862     21583618 
   41829    9403.8764    1050.7934   -13889.901   -37776.604    2801.4597     25449823 
Loop time of 13.4405 on 1 procs for 495 steps with 19652 atoms

Performance: 3.182 ns/day, 7.542 hours/ns, 36.829 timesteps/s
99.4% CPU use with 1 MPI tasks x no OpenMP threads

MPI task timing breakdown:
Section |  min time  |  avg time  |  max time  |%varavg| %total
---------------------------------------------------------------
Pair    | 6.6841     | 6.6841     | 6.6841     |   0.0 | 49.73
Neigh   | 5.2833     | 5.2833     | 5.2833     |   0.0 | 39.31
Comm    | 0.331      | 0.331      | 0.331      |   0.0 |  2.46
Output  | 0.05712    | 0.05712    | 0.05712    |   0.0 |  0.42
Modify  | 0.90378    | 0.90378    | 0.90378    |   0.0 |  6.72
Other   |            | 0.1812     |            |       |  1.35

Nlocal:    19652 ave 19652 max 19652 min
Histogram: 1 0 0 0 0 0 0 0 0 0
Nghost:    3476 ave 3476 max 3476 min
Histogram: 1 0 0 0 0 0 0 0 0 0
Neighs:    125426 ave 125426 max 125426 min
Histogram: 1 0 0 0 0 0 0 0 0 0

Total # of neighbors = 125426
Ave neighs/atom = 6.38235
Neighbor list builds = 495
Dangerous builds not checked
Setting up Verlet run ...
  Unit style    : metal
  Current step  : 41829
  Time step     : 0.001
Per MPI rank memory allocation (min/avg/max) = 21.02 | 21.02 | 21.02 Mbytes
Step Temp Press TotEng PotEng Enthalpy Volume 
   41829    9403.8764    1050.7934   -13889.901   -37776.604    2801.4597     25449823 
   42001    9015.4224    907.22899   -14789.954   -37689.948    648.75106     27264925 
Loop time of 4.49803 on 1 procs for 172 steps with 19652 atoms

Performance: 3.304 ns/day, 7.264 hours/ns, 38.239 timesteps/s
99.4% CPU use with 1 MPI tasks x no OpenMP threads

MPI task timing breakdown:
Section |  min time  |  avg time  |  max time  |%varavg| %total
---------------------------------------------------------------
Pair    | 2.2382     | 2.2382     | 2.2382     |   0.0 | 49.76
Neigh   | 1.7703     | 1.7703     | 1.7703     |   0.0 | 39.36
Comm    | 0.1158     | 0.1158     | 0.1158     |   0.0 |  2.57
Output  | 0.00019193 | 0.00019193 | 0.00019193 |   0.0 |  0.00
Modify  | 0.31046    | 0.31046    | 0.31046    |   0.0 |  6.90
Other   |            | 0.06306    |            |       |  1.40

Nlocal:    19652 ave 19652 max 19652 min
Histogram: 1 0 0 0 0 0 0 0 0 0
Nghost:    3401 ave 3401 max 3401 min
Histogram: 1 0 0 0 0 0 0 0 0 0
Neighs:    122948 ave 122948 max 122948 min
Histogram: 1 0 0 0 0 0 0 0 0 0

Total # of neighbors = 122948
Ave neighs/atom = 6.25626
Neighbor list builds = 172
Dangerous builds not checked
Setting up Verlet run ...
  Unit style    : metal
  Current step  : 42001
  Time step     : 0.001
Per MPI rank memory allocation (min/avg/max) = 21.02 | 21.02 | 21.02 Mbytes
Step Temp Press TotEng PotEng Enthalpy Volume 
   42001    9015.4224    907.22899   -14789.954   -37689.948    648.75106     27264925 
   42021    8647.7947    871.17245   -15740.467   -37706.653   -880.31426     27329362 
   42496    6567.8587    622.71599   -20915.105   -37598.064   -8648.1485     31561465 
Loop time of 13.0996 on 1 procs for 495 steps with 19652 atoms

Performance: 3.265 ns/day, 7.351 hours/ns, 37.788 timesteps/s
99.6% CPU use with 1 MPI tasks x no OpenMP threads

MPI task timing breakdown:
Section |  min time  |  avg time  |  max time  |%varavg| %total
---------------------------------------------------------------
Pair    | 6.4581     | 6.4581     | 6.4581     |   0.0 | 49.30
Neigh   | 5.1795     | 5.1795     | 5.1795     |   0.0 | 39.54
Comm    | 0.32667    | 0.32667    | 0.32667    |   0.0 |  2.49
Output  | 0.056403   | 0.056403   | 0.056403   |   0.0 |  0.43
Modify  | 0.89699    | 0.89699    | 0.89699    |   0.0 |  6.85
Other   |            | 0.182      |            |       |  1.39

Nlocal:    19652 ave 19652 max 19652 min
Histogram: 1 0 0 0 0 0 0 0 0 0
Nghost:    3229 ave 3229 max 3229 min
Histogram: 1 0 0 0 0 0 0 0 0 0
Neighs:    121137 ave 121137 max 121137 min
Histogram: 1 0 0 0 0 0 0 0 0 0

Total # of neighbors = 121137
Ave neighs/atom = 6.16411
Neighbor list builds = 495
Dangerous builds not checked
Setting up Verlet run ...
  Unit style    : metal
  Current step  : 42496
  Time step     : 0.001
Per MPI rank memory allocation (min/avg/max) = 21.31 | 21.31 | 21.31 Mbytes
Step Temp Press TotEng PotEng Enthalpy Volume 
   42496    6567.8587    622.71599   -20915.105   -37598.064   -8648.1485     31561465 
   42668    8203.2725    691.66579   -16461.152   -37298.212    -2054.187     33372333 
Loop time of 4.47743 on 1 procs for 172 steps with 19652 atoms

Performance: 3.319 ns/day, 7.231 hours/ns, 38.415 timesteps/s
99.8% CPU use with 1 MPI tasks x no OpenMP threads

MPI task timing breakdown:
Section |  min time  |  avg time  |  max time  |%varavg| %total
---------------------------------------------------------------
Pair    | 2.2001     | 2.2001     | 2.2001     |   0.0 | 49.14
Neigh   | 1.7794     | 1.7794     | 1.7794     |   0.0 | 39.74
Comm    | 0.11475    | 0.11475    | 0.11475    |   0.0 |  2.56
Output  | 0.00020504 | 0.00020504 | 0.00020504 |   0.0 |  0.00
Modify  | 0.31946    | 0.31946    | 0.31946    |   0.0 |  7.13
Other   |            | 0.06357    |            |       |  1.42

Nlocal:    19652 ave 19652 max 19652 min
Histogram: 1 0 0 0 0 0 0 0 0 0
Nghost:    3149 ave 3149 max 3149 min
Histogram: 1 0 0 0 0 0 0 0 0 0
Neighs:    120143 ave 120143 max 120143 min
Histogram: 1 0 0 0 0 0 0 0 0 0

Total # of neighbors = 120143
Ave neighs/atom = 6.11353
Neighbor list builds = 172
Dangerous builds not checked
Setting up Verlet run ...
  Unit style    : metal
  Current step  : 42668
  Time step     : 0.001
Per MPI rank memory allocation (min/avg/max) = 21.31 | 21.31 | 21.31 Mbytes
Step Temp Press TotEng PotEng Enthalpy Volume 
   42668    8203.2725    691.66579   -16461.152   -37298.212    -2054.187     33372333 
   42688    9077.4796    745.56291   -14424.698   -37482.324    1142.5558     33453232 
   43163    6944.6235    474.44603   -19653.089   -37293.065   -8184.7245     38727996 
Loop time of 12.9756 on 1 procs for 495 steps with 19652 atoms

Performance: 3.296 ns/day, 7.281 hours/ns, 38.148 timesteps/s
99.3% CPU use with 1 MPI tasks x no OpenMP threads

MPI task timing breakdown:
Section |  min time  |  avg time  |  max time  |%varavg| %total
---------------------------------------------------------------
Pair    | 6.316      | 6.316      | 6.316      |   0.0 | 48.68
Neigh   | 5.1766     | 5.1766     | 5.1766     |   0.0 | 39.89
Comm    | 0.32722    | 0.32722    | 0.32722    |   0.0 |  2.52
Output  | 0.060655   | 0.060655   | 0.060655   |   0.0 |  0.47
Modify  | 0.91295    | 0.91295    | 0.91295    |   0.0 |  7.04
Other   |            | 0.1822     |            |       |  1.40

Nlocal:    19652 ave 19652 max 19652 min
Histogram: 1 0 0 0 0 0 0 0 0 0
Nghost:    2952 ave 2952 max 2952 min
Histogram: 1 0 0 0 0 0 0 0 0 0
Neighs:    116288 ave 116288 max 116288 min
Histogram: 1 0 0 0 0 0 0 0 0 0

Total # of neighbors = 116288
Ave neighs/atom = 5.91736
Neighbor list builds = 495
Dangerous builds not checked
Setting up Verlet run ...
  Unit style    : metal
  Current step  : 43163
  Time step     : 0.001
Per MPI rank memory allocation (min/avg/max) = 21.79 | 21.79 | 21.79 Mbytes
Step Temp Press TotEng PotEng Enthalpy Volume 
   43163    6944.6235    474.44603   -19653.089   -37293.065   -8184.7245     38727996 
   43335    5534.0135    369.23567   -23243.338   -37300.236   -13862.418     40705408 
Loop time of 4.6058 on 1 procs for 172 steps with 19652 atoms

Performance: 3.227 ns/day, 7.438 hours/ns, 37.344 timesteps/s
99.7% CPU use with 1 MPI tasks x no OpenMP threads

MPI task timing breakdown:
Section |  min time  |  avg time  |  max time  |%varavg| %total
---------------------------------------------------------------
Pair    | 2.2182     | 2.2182     | 2.2182     |   0.0 | 48.16
Neigh   | 1.872      | 1.872      | 1.872      |   0.0 | 40.65
Comm    | 0.1171     | 0.1171     | 0.1171     |   0.0 |  2.54
Output  | 0.00020385 | 0.00020385 | 0.00020385 |   0.0 |  0.00
Modify  | 0.33056    | 0.33056    | 0.33056    |   0.0 |  7.18
Other   |            | 0.06769    |            |       |  1.47

Nlocal:    19652 ave 19652 max 19652 min
Histogram: 1 0 0 0 0 0 0 0 0 0
Nghost:    2890 ave 2890 max 2890 min
Histogram: 1 0 0 0 0 0 0 0 0 0
Neighs:    116026 ave 116026 max 116026 min
Histogram: 1 0 0 0 0 0 0 0 0 0

Total # of neighbors = 116026
Ave neighs/atom = 5.90403
Neighbor list builds = 172
Dangerous builds not checked
Setting up Verlet run ...
  Unit style    : metal
  Current step  : 43335
  Time step     : 0.001
Per MPI rank memory allocation (min/avg/max) = 21.88 | 21.88 | 21.88 Mbytes
Step Temp Press TotEng PotEng Enthalpy Volume 
   43335    5534.0135    369.23567   -23243.338   -37300.236   -13862.418     40705408 
   43355     6058.846    409.93429   -21917.118   -37307.139    -11485.69     40769924 
   43830    7451.2539    431.70987   -18321.198   -37248.061   -5927.5617     45995687 
Loop time of 13.542 on 1 procs for 495 steps with 19652 atoms

Performance: 3.158 ns/day, 7.599 hours/ns, 36.553 timesteps/s
99.5% CPU use with 1 MPI tasks x no OpenMP threads

MPI task timing breakdown:
Section |  min time  |  avg time  |  max time  |%varavg| %total
---------------------------------------------------------------
Pair    | 6.4338     | 6.4338     | 6.4338     |   0.0 | 47.51
Neigh   | 5.5666     | 5.5666     | 5.5666     |   0.0 | 41.11
Comm    | 0.33721    | 0.33721    | 0.33721    |   0.0 |  2.49
Output  | 0.057907   | 0.057907   | 0.057907   |   0.0 |  0.43
Modify  | 0.95211    | 0.95211    | 0.95211    |   0.0 |  7.03
Other   |            | 0.1944     |            |       |  1.44

Nlocal:    19652 ave 19652 max 19652 min
Histogram: 1 0 0 0 0 0 0 0 0 0
Nghost:    2752 ave 2752 max 2752 min
Histogram: 1 0 0 0 0 0 0 0 0 0
Neighs:    115173 ave 115173 max 115173 min
Histogram: 1 0 0 0 0 0 0 0 0 0

Total # of neighbors = 115173
Ave neighs/atom = 5.86062
Neighbor list builds = 495
Dangerous builds not checked
Setting up Verlet run ...
  Unit style    : metal
  Current step  : 43830
  Time step     : 0.001
Per MPI rank memory allocation (min/avg/max) = 22.16 | 22.16 | 22.16 Mbytes
Step Temp Press TotEng PotEng Enthalpy Volume 
   43830    7451.2539    431.70987   -18321.198   -37248.061   -5927.5617     45995687 
   44002    5207.9843    295.25083   -23991.473   -37220.228   -15064.918     48439887 
Loop time of 4.56792 on 1 procs for 172 steps with 19652 atoms

Performance: 3.253 ns/day, 7.377 hours/ns, 37.654 timesteps/s
99.5% CPU use with 1 MPI tasks x no OpenMP threads

MPI task timing breakdown:
Section |  min time  |  avg time  |  max time  |%varavg| %total
---------------------------------------------------------------
Pair    | 2.1697     | 2.1697     | 2.1697     |   0.0 | 47.50
Neigh   | 1.8814     | 1.8814     | 1.8814     |   0.0 | 41.19
Comm    | 0.11889    | 0.11889    | 0.11889    |   0.0 |  2.60
Output  | 0.00019097 | 0.00019097 | 0.00019097 |   0.0 |  0.00
Modify  | 0.33057    | 0.33057    | 0.33057    |   0.0 |  7.24
Other   |            | 0.06719    |            |       |  1.47

Nlocal:    19652 ave 19652 max 19652 min
Histogram: 1 0 0 0 0 0 0 0 0 0
Nghost:    2703 ave 2703 max 2703 min
Histogram: 1 0 0 0 0 0 0 0 0 0
Neighs:    114767 ave 114767 max 114767 min
Histogram: 1 0 0 0 0 0 0 0 0 0

Total # of neighbors = 114767
Ave neighs/atom = 5.83997
Neighbor list builds = 172
Dangerous builds not checked
Setting up Verlet run ...
  Unit style    : metal
  Current step  : 44002
  Time step     : 0.001
Per MPI rank memory allocation (min/avg/max) = 22.35 | 22.35 | 22.35 Mbytes
Step Temp Press TotEng PotEng Enthalpy Volume 
   44002    5207.9843    295.25083   -23991.473   -37220.228   -15064.918     48439887 
   44022    5068.4569    294.05849   -24346.346   -37220.689   -15442.633     48511844 
   44497    3356.7254    166.31474   -28605.024   -37131.412   -22922.182     54745095 
Loop time of 13.3351 on 1 procs for 495 steps with 19652 atoms

Performance: 3.207 ns/day, 7.483 hours/ns, 37.120 timesteps/s
99.5% CPU use with 1 MPI tasks x no OpenMP threads

MPI task timing breakdown:
Section |  min time  |  avg time  |  max time  |%varavg| %total
---------------------------------------------------------------
Pair    | 6.3053     | 6.3053     | 6.3053     |   0.0 | 47.28
Neigh   | 5.4998     | 5.4998     | 5.4998     |   0.0 | 41.24
Comm    | 0.33052    | 0.33052    | 0.33052    |   0.0 |  2.48
Output  | 0.059684   | 0.059684   | 0.059684   |   0.0 |  0.45
Modify  | 0.94839    | 0.94839    | 0.94839    |   0.0 |  7.11
Other   |            | 0.1914     |            |       |  1.44

Nlocal:    19652 ave 19652 max 19652 min
Histogram: 1 0 0 0 0 0 0 0 0 0
Nghost:    2595 ave 2595 max 2595 min
Histogram: 1 0 0 0 0 0 0 0 0 0
Neighs:    113843 ave 113843 max 113843 min
Histogram: 1 0 0 0 0 0 0 0 0 0

Total # of neighbors = 113843
Ave neighs/atom = 5.79295
Neighbor list builds = 495
Dangerous builds not checked
Setting up Verlet run ...
  Unit style    : metal
  Current step  : 44497
  Time step     : 0.001
Per MPI rank memory allocation (min/avg/max) = 22.76 | 22.76 | 22.76 Mbytes
Step Temp Press TotEng PotEng Enthalpy Volume 
   44497    3356.7254    166.31474   -28605.024   -37131.412   -22922.182     54745095 
   44669    5042.5234    242.26971   -24268.206   -37076.675   -15669.573     56864425 
Loop time of 4.57245 on 1 procs for 172 steps with 19652 atoms

Performance: 3.250 ns/day, 7.384 hours/ns, 37.617 timesteps/s
99.9% CPU use with 1 MPI tasks x no OpenMP threads

MPI task timing breakdown:
Section |  min time  |  avg time  |  max time  |%varavg| %total
---------------------------------------------------------------
Pair    | 2.1701     | 2.1701     | 2.1701     |   0.0 | 47.46
Neigh   | 1.8709     | 1.8709     | 1.8709     |   0.0 | 40.92
Comm    | 0.11765    | 0.11765    | 0.11765    |   0.0 |  2.57
Output  | 0.00020909 | 0.00020909 | 0.00020909 |   0.0 |  0.00
Modify  | 0.34625    | 0.34625    | 0.34625    |   0.0 |  7.57
Other   |            | 0.06732    |            |       |  1.47

Nlocal:    19652 ave 19652 max 19652 min
Histogram: 1 0 0 0 0 0 0 0 0 0
Nghost:    2557 ave 2557 max 2557 min
Histogram: 1 0 0 0 0 0 0 0 0 0
Neighs:    113545 ave 113545 max 113545 min
Histogram: 1 0 0 0 0 0 0 0 0 0

Total # of neighbors = 113545
Ave neighs/atom = 5.77778
Neighbor list builds = 172
Dangerous builds not checked
Setting up Verlet run ...
  Unit style    : metal
  Current step  : 44669
  Time step     : 0.001
Per MPI rank memory allocation (min/avg/max) = 22.76 | 22.76 | 22.76 Mbytes
Step Temp Press TotEng PotEng Enthalpy Volume 
   44669    5042.5234    242.26971   -24268.206   -37076.675   -15669.573     56864425 
   44689    5386.8188    260.89271   -23384.007   -37067.018   -14109.826     56953971 
   45164    2271.3999    95.908734   -31306.833   -37076.396    -27521.01     63243019 
Loop time of 13.2162 on 1 procs for 495 steps with 19652 atoms

Performance: 3.236 ns/day, 7.416 hours/ns, 37.454 timesteps/s
99.0% CPU use with 1 MPI tasks x no OpenMP threads

MPI task timing breakdown:
Section |  min time  |  avg time  |  max time  |%varavg| %total
---------------------------------------------------------------
Pair    | 6.2078     | 6.2078     | 6.2078     |   0.0 | 46.97
Neigh   | 5.4719     | 5.4719     | 5.4719     |   0.0 | 41.40
Comm    | 0.33289    | 0.33289    | 0.33289    |   0.0 |  2.52
Output  | 0.065776   | 0.065776   | 0.065776   |   0.0 |  0.50
Modify  | 0.94707    | 0.94707    | 0.94707    |   0.0 |  7.17
Other   |            | 0.1907     |            |       |  1.44

Nlocal:    19652 ave 19652 max 19652 min
Histogram: 1 0 0 0 0 0 0 0 0 0
Nghost:    2481 ave 2481 max 2481 min
Histogram: 1 0 0 0 0 0 0 0 0 0
Neighs:    113188 ave 113188 max 113188 min
Histogram: 1 0 0 0 0 0 0 0 0 0

Total # of neighbors = 113188
Ave neighs/atom = 5.75962
Neighbor list builds = 495
Dangerous builds not checked
Setting up Verlet run ...
  Unit style    : metal
  Current step  : 45164
  Time step     : 0.001
Per MPI rank memory allocation (min/avg/max) = 23.1 | 23.1 | 23.1 Mbytes
Step Temp Press TotEng PotEng Enthalpy Volume 
   45164    2271.3999    95.908734   -31306.833   -37076.396    -27521.01     63243019 
   45336    2141.3373    93.053088   -31636.349   -37075.541   -27855.987     65089801 
Loop time of 4.53846 on 1 procs for 172 steps with 19652 atoms

Performance: 3.274 ns/day, 7.330 hours/ns, 37.898 timesteps/s
99.9% CPU use with 1 MPI tasks x no OpenMP threads

MPI task timing breakdown:
Section |  min time  |  avg time  |  max time  |%varavg| %total
---------------------------------------------------------------
Pair    | 2.1418     | 2.1418     | 2.1418     |   0.0 | 47.19
Neigh   | 1.8844     | 1.8844     | 1.8844     |   0.0 | 41.52
Comm    | 0.11359    | 0.11359    | 0.11359    |   0.0 |  2.50
Output  | 0.00021601 | 0.00021601 | 0.00021601 |   0.0 |  0.00
Modify  | 0.33207    | 0.33207    | 0.33207    |   0.0 |  7.32
Other   |            | 0.06635    |            |       |  1.46

Nlocal:    19652 ave 19652 max 19652 min
Histogram: 1 0 0 0 0 0 0 0 0 0
Nghost:    2452 ave 2452 max 2452 min
Histogram: 1 0 0 0 0 0 0 0 0 0
Neighs:    113138 ave 113138 max 113138 min
Histogram: 1 0 0 0 0 0 0 0 0 0

Total # of neighbors = 113138
Ave neighs/atom = 5.75707
Neighbor list builds = 172
Dangerous builds not checked
Setting up Verlet run ...
  Unit style    : metal
  Current step  : 45336
  Time step     : 0.001
Per MPI rank memory allocation (min/avg/max) = 23.1 | 23.1 | 23.1 Mbytes
Step Temp Press TotEng PotEng Enthalpy Volume 
   45336    2141.3373    93.053088   -31636.349   -37075.541   -27855.987     65089801 
   45356    2136.8186    97.087895   -31648.691   -37076.405   -27701.777     65133283 
   45831    3002.5133    111.80421   -29412.158   -37038.815   -24449.328     71118332 
Loop time of 13.4275 on 1 procs for 495 steps with 19652 atoms

Performance: 3.185 ns/day, 7.535 hours/ns, 36.865 timesteps/s
99.2% CPU use with 1 MPI tasks x no OpenMP threads

MPI task timing breakdown:
Section |  min time  |  avg time  |  max time  |%varavg| %total
---------------------------------------------------------------
Pair    | 6.2731     | 6.2731     | 6.2731     |   0.0 | 46.72
Neigh   | 5.6039     | 5.6039     | 5.6039     |   0.0 | 41.73
Comm    | 0.32736    | 0.32736    | 0.32736    |   0.0 |  2.44
Output  | 0.060751   | 0.060751   | 0.060751   |   0.0 |  0.45
Modify  | 0.96977    | 0.96977    | 0.96977    |   0.0 |  7.22
Other   |            | 0.1926     |            |       |  1.43

Nlocal:    19652 ave 19652 max 19652 min
Histogram: 1 0 0 0 0 0 0 0 0 0
Nghost:    2393 ave 2393 max 2393 min
Histogram: 1 0 0 0 0 0 0 0 0 0
Neighs:    113034 ave 113034 max 113034 min
Histogram: 1 0 0 0 0 0 0 0 0 0

Total # of neighbors = 113034
Ave neighs/atom = 5.75178
Neighbor list builds = 495
Dangerous builds not checked
Setting up Verlet run ...
  Unit style    : metal
  Current step  : 45831
  Time step     : 0.001
Per MPI rank memory allocation (min/avg/max) = 23.57 | 23.57 | 23.57 Mbytes
Step Temp Press TotEng PotEng Enthalpy Volume 
   45831    3002.5133    111.80421   -29412.158   -37038.815   -24449.328     71118332 
   46003    4121.3843    153.17886   -26527.604   -36996.296   -19453.015     73996773 
Loop time of 4.56282 on 1 procs for 172 steps with 19652 atoms

Performance: 3.257 ns/day, 7.369 hours/ns, 37.696 timesteps/s
99.7% CPU use with 1 MPI tasks x no OpenMP threads

MPI task timing breakdown:
Section |  min time  |  avg time  |  max time  |%varavg| %total
---------------------------------------------------------------
Pair    | 2.128      | 2.128      | 2.128      |   0.0 | 46.64
Neigh   | 1.9188     | 1.9188     | 1.9188     |   0.0 | 42.05
Comm    | 0.11716    | 0.11716    | 0.11716    |   0.0 |  2.57
Output  | 0.00020289 | 0.00020289 | 0.00020289 |   0.0 |  0.00
Modify  | 0.33205    | 0.33205    | 0.33205    |   0.0 |  7.28
Other   |            | 0.06661    |            |       |  1.46

Nlocal:    19652 ave 19652 max 19652 min
Histogram: 1 0 0 0 0 0 0 0 0 0
Nghost:    2362 ave 2362 max 2362 min
Histogram: 1 0 0 0 0 0 0 0 0 0
Neighs:    112519 ave 112519 max 112519 min
Histogram: 1 0 0 0 0 0 0 0 0 0

Total # of neighbors = 112519
Ave neighs/atom = 5.72558
Neighbor list builds = 172
Dangerous builds not checked
Setting up Verlet run ...
  Unit style    : metal
  Current step  : 46003
  Time step     : 0.001
Per MPI rank memory allocation (min/avg/max) = 23.82 | 23.82 | 23.82 Mbytes
Step Temp Press TotEng PotEng Enthalpy Volume 
   46003    4121.3843    153.17886   -26527.604   -36996.296   -19453.015     73996773 
   46023     4025.317    154.26361   -26771.329   -36996.001   -19637.609     74090577 
   46498    2127.9221    70.661404   -31592.589   -36997.705   -27991.708     81646364 
Loop time of 13.307 on 1 procs for 495 steps with 19652 atoms

Performance: 3.214 ns/day, 7.467 hours/ns, 37.199 timesteps/s
99.7% CPU use with 1 MPI tasks x no OpenMP threads

MPI task timing breakdown:
Section |  min time  |  avg time  |  max time  |%varavg| %total
---------------------------------------------------------------
Pair    | 6.1293     | 6.1293     | 6.1293     |   0.0 | 46.06
Neigh   | 5.6681     | 5.6681     | 5.6681     |   0.0 | 42.60
Comm    | 0.31948    | 0.31948    | 0.31948    |   0.0 |  2.40
Output  | 0.058275   | 0.058275   | 0.058275   |   0.0 |  0.44
Modify  | 0.94124    | 0.94124    | 0.94124    |   0.0 |  7.07
Other   |            | 0.1906     |            |       |  1.43

Nlocal:    19652 ave 19652 max 19652 min
Histogram: 1 0 0 0 0 0 0 0 0 0
Nghost:    2270 ave 2270 max 2270 min
Histogram: 1 0 0 0 0 0 0 0 0 0
Neighs:    112541 ave 112541 max 112541 min
Histogram: 1 0 0 0 0 0 0 0 0 0

Total # of neighbors = 112541
Ave neighs/atom = 5.72669
Neighbor list builds = 495
Dangerous builds not checked
Setting up Verlet run ...
  Unit style    : metal
  Current step  : 46498
  Time step     : 0.001
Per MPI rank memory allocation (min/avg/max) = 24.36 | 24.36 | 24.36 Mbytes
Step Temp Press TotEng PotEng Enthalpy Volume 
   46498    2127.9221    70.661404   -31592.589   -36997.705   -27991.708     81646364 
   46670    2896.8729    98.214026   -29616.573   -36974.894   -24439.889     84447838 
Loop time of 4.44112 on 1 procs for 172 steps with 19652 atoms

Performance: 3.346 ns/day, 7.172 hours/ns, 38.729 timesteps/s
99.6% CPU use with 1 MPI tasks x no OpenMP threads

MPI task timing breakdown:
Section |  min time  |  avg time  |  max time  |%varavg| %total
---------------------------------------------------------------
Pair    | 2.0343     | 2.0343     | 2.0343     |   0.0 | 45.81
Neigh   | 1.9144     | 1.9144     | 1.9144     |   0.0 | 43.11
Comm    | 0.10739    | 0.10739    | 0.10739    |   0.0 |  2.42
Output  | 0.00019813 | 0.00019813 | 0.00019813 |   0.0 |  0.00
Modify  | 0.31954    | 0.31954    | 0.31954    |   0.0 |  7.19
Other   |            | 0.06531    |            |       |  1.47

Nlocal:    19652 ave 19652 max 19652 min
Histogram: 1 0 0 0 0 0 0 0 0 0
Nghost:    2255 ave 2255 max 2255 min
Histogram: 1 0 0 0 0 0 0 0 0 0
Neighs:    112414 ave 112414 max 112414 min
Histogram: 1 0 0 0 0 0 0 0 0 0

Total # of neighbors = 112414
Ave neighs/atom = 5.72023
Neighbor list builds = 172
Dangerous builds not checked
Setting up Verlet run ...
  Unit style    : metal
  Current step  : 46670
  Time step     : 0.001
Per MPI rank memory allocation (min/avg/max) = 24.5 | 24.5 | 24.5 Mbytes
Step Temp Press TotEng PotEng Enthalpy Volume 
   46670    2896.8729    98.214026   -29616.573   -36974.894   -24439.889     84447838 
   46690    3396.8956    116.84781   -28350.287   -36978.712   -22184.866     84538106 
   47165    1972.9447    57.076138    -31954.63   -36966.089   -28651.449     92723146 
Loop time of 12.9812 on 1 procs for 495 steps with 19652 atoms

Performance: 3.295 ns/day, 7.285 hours/ns, 38.132 timesteps/s
99.5% CPU use with 1 MPI tasks x no OpenMP threads

MPI task timing breakdown:
Section |  min time  |  avg time  |  max time  |%varavg| %total
---------------------------------------------------------------
Pair    | 5.8716     | 5.8716     | 5.8716     |   0.0 | 45.23
Neigh   | 5.6486     | 5.6486     | 5.6486     |   0.0 | 43.51
Comm    | 0.31454    | 0.31454    | 0.31454    |   0.0 |  2.42
Output  | 0.05745    | 0.05745    | 0.05745    |   0.0 |  0.44
Modify  | 0.90708    | 0.90708    | 0.90708    |   0.0 |  6.99
Other   |            | 0.1819     |            |       |  1.40

Nlocal:    19652 ave 19652 max 19652 min
Histogram: 1 0 0 0 0 0 0 0 0 0
Nghost:    2175 ave 2175 max 2175 min
Histogram: 1 0 0 0 0 0 0 0 0 0
Neighs:    112423 ave 112423 max 112423 min
Histogram: 1 0 0 0 0 0 0 0 0 0

Total # of neighbors = 112423
Ave neighs/atom = 5.72069
Neighbor list builds = 495
Dangerous builds not checked
Setting up Verlet run ...
  Unit style    : metal
  Current step  : 47165
  Time step     : 0.001
Per MPI rank memory allocation (min/avg/max) = 24.93 | 24.93 | 24.93 Mbytes
Step Temp Press TotEng PotEng Enthalpy Volume 
   47165    1972.9447    57.076138    -31954.63   -36966.089   -28651.449     92723146 
   47337    1886.5591    57.843533    -32179.15   -36971.182   -28737.444     95329951 
Loop time of 4.40703 on 1 procs for 172 steps with 19652 atoms

Performance: 3.372 ns/day, 7.117 hours/ns, 39.029 timesteps/s
99.7% CPU use with 1 MPI tasks x no OpenMP threads

MPI task timing breakdown:
Section |  min time  |  avg time  |  max time  |%varavg| %total
---------------------------------------------------------------
Pair    | 1.9866     | 1.9866     | 1.9866     |   0.0 | 45.08
Neigh   | 1.9444     | 1.9444     | 1.9444     |   0.0 | 44.12
Comm    | 0.10502    | 0.10502    | 0.10502    |   0.0 |  2.38
Output  | 0.00020599 | 0.00020599 | 0.00020599 |   0.0 |  0.00
Modify  | 0.3112     | 0.3112     | 0.3112     |   0.0 |  7.06
Other   |            | 0.05964    |            |       |  1.35

Nlocal:    19652 ave 19652 max 19652 min
Histogram: 1 0 0 0 0 0 0 0 0 0
Nghost:    2157 ave 2157 max 2157 min
Histogram: 1 0 0 0 0 0 0 0 0 0
Neighs:    112441 ave 112441 max 112441 min
Histogram: 1 0 0 0 0 0 0 0 0 0

Total # of neighbors = 112441
Ave neighs/atom = 5.72161
Neighbor list builds = 172
Dangerous builds not checked
Setting up Verlet run ...
  Unit style    : metal
  Current step  : 47337
  Time step     : 0.001
Per MPI rank memory allocation (min/avg/max) = 24.93 | 24.93 | 24.93 Mbytes
Step Temp Press TotEng PotEng Enthalpy Volume 
   47337    1886.5591    57.843533    -32179.15   -36971.182   -28737.444     95329951 
   47357    1886.2611    58.616759   -32180.153   -36971.428   -28690.173     95391892 
   47832    2441.0969     62.66791   -30773.118   -36973.726   -26721.964 1.0357237e+08 
Loop time of 13.3554 on 1 procs for 495 steps with 19652 atoms

Performance: 3.202 ns/day, 7.495 hours/ns, 37.064 timesteps/s
98.7% CPU use with 1 MPI tasks x no OpenMP threads

MPI task timing breakdown:
Section |  min time  |  avg time  |  max time  |%varavg| %total
---------------------------------------------------------------
Pair    | 6.0314     | 6.0314     | 6.0314     |   0.0 | 45.16
Neigh   | 5.8544     | 5.8544     | 5.8544     |   0.0 | 43.84
Comm    | 0.3062     | 0.3062     | 0.3062     |   0.0 |  2.29
Output  | 0.066856   | 0.066856   | 0.066856   |   0.0 |  0.50
Modify  | 0.91241    | 0.91241    | 0.91241    |   0.0 |  6.83
Other   |            | 0.1841     |            |       |  1.38

Nlocal:    19652 ave 19652 max 19652 min
Histogram: 1 0 0 0 0 0 0 0 0 0
Nghost:    2116 ave 2116 max 2116 min
Histogram: 1 0 0 0 0 0 0 0 0 0
Neighs:    112664 ave 112664 max 112664 min
Histogram: 1 0 0 0 0 0 0 0 0 0

Total # of neighbors = 112664
Ave neighs/atom = 5.73295
Neighbor list builds = 495
Dangerous builds not checked
Setting up Verlet run ...
  Unit style    : metal
  Current step  : 47832
  Time step     : 0.001
Per MPI rank memory allocation (min/avg/max) = 25.55 | 25.55 | 25.55 Mbytes
Step Temp Press TotEng PotEng Enthalpy Volume 
   47832    2441.0969     62.66791   -30773.118   -36973.726   -26721.964 1.0357237e+08 
   48004    2859.6015    74.562289    -29657.73   -36921.378   -24675.869 1.0704903e+08 
Loop time of 4.58229 on 1 procs for 172 steps with 19652 atoms

Performance: 3.243 ns/day, 7.400 hours/ns, 37.536 timesteps/s
99.1% CPU use with 1 MPI tasks x no OpenMP threads

MPI task timing breakdown:
Section |  min time  |  avg time  |  max time  |%varavg| %total
---------------------------------------------------------------
Pair    | 2.0632     | 2.0632     | 2.0632     |   0.0 | 45.03
Neigh   | 2.0271     | 2.0271     | 2.0271     |   0.0 | 44.24
Comm    | 0.11233    | 0.11233    | 0.11233    |   0.0 |  2.45
Output  | 0.00019789 | 0.00019789 | 0.00019789 |   0.0 |  0.00
Modify  | 0.31472    | 0.31472    | 0.31472    |   0.0 |  6.87
Other   |            | 0.06477    |            |       |  1.41

Nlocal:    19652 ave 19652 max 19652 min
Histogram: 1 0 0 0 0 0 0 0 0 0
Nghost:    2094 ave 2094 max 2094 min
Histogram: 1 0 0 0 0 0 0 0 0 0
Neighs:    112157 ave 112157 max 112157 min
Histogram: 1 0 0 0 0 0 0 0 0 0

Total # of neighbors = 112157
Ave neighs/atom = 5.70715
Neighbor list builds = 172
Dangerous builds not checked
Setting up Verlet run ...
  Unit style    : metal
  Current step  : 48004
  Time step     : 0.001
Per MPI rank memory allocation (min/avg/max) = 25.71 | 25.71 | 25.71 Mbytes
Step Temp Press TotEng PotEng Enthalpy Volume 
   48004    2859.6015    74.562289    -29657.73   -36921.378   -24675.869 1.0704903e+08 
   48024    2813.3863    75.440063   -29773.308   -36919.566   -24727.925 1.0715254e+08 
   48499     1792.144    40.194038   -32392.424   -36944.633   -29450.765 1.1725761e+08 
Loop time of 13.4793 on 1 procs for 495 steps with 19652 atoms

Performance: 3.173 ns/day, 7.564 hours/ns, 36.723 timesteps/s
99.2% CPU use with 1 MPI tasks x no OpenMP threads

MPI task timing breakdown:
Section |  min time  |  avg time  |  max time  |%varavg| %total
---------------------------------------------------------------
Pair    | 5.9892     | 5.9892     | 5.9892     |   0.0 | 44.43
Neigh   | 6.0334     | 6.0334     | 6.0334     |   0.0 | 44.76
Comm    | 0.30664    | 0.30664    | 0.30664    |   0.0 |  2.27
Output  | 0.057634   | 0.057634   | 0.057634   |   0.0 |  0.43
Modify  | 0.90634    | 0.90634    | 0.90634    |   0.0 |  6.72
Other   |            | 0.1861     |            |       |  1.38

Nlocal:    19652 ave 19652 max 19652 min
Histogram: 1 0 0 0 0 0 0 0 0 0
Nghost:    2046 ave 2046 max 2046 min
Histogram: 1 0 0 0 0 0 0 0 0 0
Neighs:    112194 ave 112194 max 112194 min
Histogram: 1 0 0 0 0 0 0 0 0 0

Total # of neighbors = 112194
Ave neighs/atom = 5.70904
Neighbor list builds = 495
Dangerous builds not checked
Setting up Verlet run ...
  Unit style    : metal
  Current step  : 48499
  Time step     : 0.001
Per MPI rank memory allocation (min/avg/max) = 26.38 | 26.38 | 26.38 Mbytes
Step Temp Press TotEng PotEng Enthalpy Volume 
   48499     1792.144    40.194038   -32392.424   -36944.633   -29450.765 1.1725761e+08 
   48671     2010.712     47.53473   -31832.043   -36939.434    -28255.14 1.205609e+08 
Loop time of 4.61036 on 1 procs for 172 steps with 19652 atoms

Performance: 3.223 ns/day, 7.446 hours/ns, 37.307 timesteps/s
98.9% CPU use with 1 MPI tasks x no OpenMP threads

MPI task timing breakdown:
Section |  min time  |  avg time  |  max time  |%varavg| %total
---------------------------------------------------------------
Pair    | 2.047      | 2.047      | 2.047      |   0.0 | 44.40
Neigh   | 2.0762     | 2.0762     | 2.0762     |   0.0 | 45.03
Comm    | 0.10642    | 0.10642    | 0.10642    |   0.0 |  2.31
Output  | 0.00020003 | 0.00020003 | 0.00020003 |   0.0 |  0.00
Modify  | 0.31539    | 0.31539    | 0.31539    |   0.0 |  6.84
Other   |            | 0.06512    |            |       |  1.41

Nlocal:    19652 ave 19652 max 19652 min
Histogram: 1 0 0 0 0 0 0 0 0 0
Nghost:    2015 ave 2015 max 2015 min
Histogram: 1 0 0 0 0 0 0 0 0 0
Neighs:    112112 ave 112112 max 112112 min
Histogram: 1 0 0 0 0 0 0 0 0 0

Total # of neighbors = 112112
Ave neighs/atom = 5.70486
Neighbor list builds = 172
Dangerous builds not checked
Setting up Verlet run ...
  Unit style    : metal
  Current step  : 48671
  Time step     : 0.001
Per MPI rank memory allocation (min/avg/max) = 26.55 | 26.55 | 26.55 Mbytes
Step Temp Press TotEng PotEng Enthalpy Volume 
   48671     2010.712     47.53473   -31832.043   -36939.434    -28255.14 1.205609e+08 
   48691    2000.6796     49.35202   -31857.966   -36939.874   -28141.634 1.2064791e+08 
   49166    1753.1379    35.074542   -32500.273   -36953.403   -29629.144 1.3115082e+08 
Loop time of 13.8203 on 1 procs for 495 steps with 19652 atoms

Performance: 3.095 ns/day, 7.756 hours/ns, 35.817 timesteps/s
97.6% CPU use with 1 MPI tasks x no OpenMP threads

MPI task timing breakdown:
Section |  min time  |  avg time  |  max time  |%varavg| %total
---------------------------------------------------------------
Pair    | 5.9897     | 5.9897     | 5.9897     |   0.0 | 43.34
Neigh   | 6.3026     | 6.3026     | 6.3026     |   0.0 | 45.60
Comm    | 0.31366    | 0.31366    | 0.31366    |   0.0 |  2.27
Output  | 0.057394   | 0.057394   | 0.057394   |   0.0 |  0.42
Modify  | 0.96212    | 0.96212    | 0.96212    |   0.0 |  6.96
Other   |            | 0.1948     |            |       |  1.41

Nlocal:    19652 ave 19652 max 19652 min
Histogram: 1 0 0 0 0 0 0 0 0 0
Nghost:    1958 ave 1958 max 1958 min
Histogram: 1 0 0 0 0 0 0 0 0 0
Neighs:    112225 ave 112225 max 112225 min
Histogram: 1 0 0 0 0 0 0 0 0 0

Total # of neighbors = 112225
Ave neighs/atom = 5.71061
Neighbor list builds = 495
Dangerous builds not checked
Setting up Verlet run ...
  Unit style    : metal
  Current step  : 49166
  Time step     : 0.001
Per MPI rank memory allocation (min/avg/max) = 27.09 | 27.09 | 27.09 Mbytes
Step Temp Press TotEng PotEng Enthalpy Volume 
   49166    1753.1379    35.074542   -32500.273   -36953.403   -29629.144 1.3115082e+08 
   49338    2064.2253    44.472708   -31708.427   -36951.747   -27957.801 1.3512028e+08 
Loop time of 4.65722 on 1 procs for 172 steps with 19652 atoms

Performance: 3.191 ns/day, 7.521 hours/ns, 36.932 timesteps/s
99.6% CPU use with 1 MPI tasks x no OpenMP threads

MPI task timing breakdown:
Section |  min time  |  avg time  |  max time  |%varavg| %total
---------------------------------------------------------------
Pair    | 2.0247     | 2.0247     | 2.0247     |   0.0 | 43.47
Neigh   | 2.1447     | 2.1447     | 2.1447     |   0.0 | 46.05
Comm    | 0.1059     | 0.1059     | 0.1059     |   0.0 |  2.27
Output  | 0.00019598 | 0.00019598 | 0.00019598 |   0.0 |  0.00
Modify  | 0.31744    | 0.31744    | 0.31744    |   0.0 |  6.82
Other   |            | 0.06434    |            |       |  1.38

Nlocal:    19652 ave 19652 max 19652 min
Histogram: 1 0 0 0 0 0 0 0 0 0
Nghost:    1933 ave 1933 max 1933 min
Histogram: 1 0 0 0 0 0 0 0 0 0
Neighs:    112146 ave 112146 max 112146 min
Histogram: 1 0 0 0 0 0 0 0 0 0

Total # of neighbors = 112146
Ave neighs/atom = 5.70659
Neighbor list builds = 172
Dangerous builds not checked
Setting up Verlet run ...
  Unit style    : metal
  Current step  : 49338
  Time step     : 0.001
Per MPI rank memory allocation (min/avg/max) = 27.09 | 27.09 | 27.09 Mbytes
Step Temp Press TotEng PotEng Enthalpy Volume 
   49338    2064.2253    44.472708   -31708.427   -36951.747   -27957.801 1.3512028e+08 
   49358    2049.5383    45.758575   -31746.723   -36952.737   -27884.661 1.3522503e+08 
   49833    1737.3741    30.998913   -32543.745   -36956.834   -29699.703 1.4699414e+08 
Loop time of 13.7951 on 1 procs for 495 steps with 19652 atoms

Performance: 3.100 ns/day, 7.741 hours/ns, 35.882 timesteps/s
99.3% CPU use with 1 MPI tasks x no OpenMP threads

MPI task timing breakdown:
Section |  min time  |  avg time  |  max time  |%varavg| %total
---------------------------------------------------------------
Pair    | 5.9049     | 5.9049     | 5.9049     |   0.0 | 42.80
Neigh   | 6.4271     | 6.4271     | 6.4271     |   0.0 | 46.59
Comm    | 0.30499    | 0.30499    | 0.30499    |   0.0 |  2.21
Output  | 0.057293   | 0.057293   | 0.057293   |   0.0 |  0.42
Modify  | 0.91384    | 0.91384    | 0.91384    |   0.0 |  6.62
Other   |            | 0.1869     |            |       |  1.36

Nlocal:    19652 ave 19652 max 19652 min
Histogram: 1 0 0 0 0 0 0 0 0 0
Nghost:    1878 ave 1878 max 1878 min
Histogram: 1 0 0 0 0 0 0 0 0 0
Neighs:    112300 ave 112300 max 112300 min
Histogram: 1 0 0 0 0 0 0 0 0 0

Total # of neighbors = 112300
Ave neighs/atom = 5.71443
Neighbor list builds = 495
Dangerous builds not checked
Setting up Verlet run ...
  Unit style    : metal
  Current step  : 49833
  Time step     : 0.001
Per MPI rank memory allocation (min/avg/max) = 28.05 | 28.05 | 28.05 Mbytes
Step Temp Press TotEng PotEng Enthalpy Volume 
   49833    1737.3741    30.998913   -32543.745   -36956.834   -29699.703 1.4699414e+08 
   50005    1679.7408     32.14129   -32689.972   -36956.667    -29658.95 1.5109014e+08 
Loop time of 4.71547 on 1 procs for 172 steps with 19652 atoms

Performance: 3.151 ns/day, 7.615 hours/ns, 36.476 timesteps/s
99.5% CPU use with 1 MPI tasks x no OpenMP threads

MPI task timing breakdown:
Section |  min time  |  avg time  |  max time  |%varavg| %total
---------------------------------------------------------------
Pair    | 2.0106     | 2.0106     | 2.0106     |   0.0 | 42.64
Neigh   | 2.2115     | 2.2115     | 2.2115     |   0.0 | 46.90
Comm    | 0.11166    | 0.11166    | 0.11166    |   0.0 |  2.37
Output  | 0.00018597 | 0.00018597 | 0.00018597 |   0.0 |  0.00
Modify  | 0.31701    | 0.31701    | 0.31701    |   0.0 |  6.72
Other   |            | 0.0645     |            |       |  1.37

Nlocal:    19652 ave 19652 max 19652 min
Histogram: 1 0 0 0 0 0 0 0 0 0
Nghost:    1855 ave 1855 max 1855 min
Histogram: 1 0 0 0 0 0 0 0 0 0
Neighs:    112257 ave 112257 max 112257 min
Histogram: 1 0 0 0 0 0 0 0 0 0

Total # of neighbors = 112257
Ave neighs/atom = 5.71224
Neighbor list builds = 172
Dangerous builds not checked
Setting up Verlet run ...
  Unit style    : metal
  Current step  : 50005
  Time step     : 0.001
Per MPI rank memory allocation (min/avg/max) = 28.26 | 28.26 | 28.26 Mbytes
Step Temp Press TotEng PotEng Enthalpy Volume 
   50005    1679.7408     32.14129   -32689.972   -36956.667    -29658.95 1.5109014e+08 
   50025    1679.6343    33.718806   -32690.043   -36956.468   -29508.189 1.5118842e+08 
   50500    2307.1244    36.706757    -31102.59   -36962.896   -27316.859 1.6523957e+08 
Loop time of 13.9716 on 1 procs for 495 steps with 19652 atoms

Performance: 3.061 ns/day, 7.840 hours/ns, 35.429 timesteps/s
99.1% CPU use with 1 MPI tasks x no OpenMP threads

MPI task timing breakdown:
Section |  min time  |  avg time  |  max time  |%varavg| %total
---------------------------------------------------------------
Pair    | 5.8935     | 5.8935     | 5.8935     |   0.0 | 42.18
Neigh   | 6.621      | 6.621      | 6.621      |   0.0 | 47.39
Comm    | 0.30126    | 0.30126    | 0.30126    |   0.0 |  2.16
Output  | 0.057159   | 0.057159   | 0.057159   |   0.0 |  0.41
Modify  | 0.91372    | 0.91372    | 0.91372    |   0.0 |  6.54
Other   |            | 0.185      |            |       |  1.32

Nlocal:    19652 ave 19652 max 19652 min
Histogram: 1 0 0 0 0 0 0 0 0 0
Nghost:    1811 ave 1811 max 1811 min
Histogram: 1 0 0 0 0 0 0 0 0 0
Neighs:    112254 ave 112254 max 112254 min
Histogram: 1 0 0 0 0 0 0 0 0 0

Total # of neighbors = 112254
Ave neighs/atom = 5.71209
Neighbor list builds = 495
Dangerous builds not checked
Setting up Verlet run ...
  Unit style    : metal
  Current step  : 50500
  Time step     : 0.001
Per MPI rank memory allocation (min/avg/max) = 29.09 | 29.09 | 29.09 Mbytes
Step Temp Press TotEng PotEng Enthalpy Volume 
   50500    2307.1244    36.706757    -31102.59   -36962.896   -27316.859 1.6523957e+08 
   50672    2437.2861    40.227333   -30764.123   -36955.052   -26471.123 1.7098185e+08 
Loop time of 4.79429 on 1 procs for 172 steps with 19652 atoms

Performance: 3.100 ns/day, 7.743 hours/ns, 35.876 timesteps/s
99.5% CPU use with 1 MPI tasks x no OpenMP threads

MPI task timing breakdown:
Section |  min time  |  avg time  |  max time  |%varavg| %total
---------------------------------------------------------------
Pair    | 2.0157     | 2.0157     | 2.0157     |   0.0 | 42.04
Neigh   | 2.2917     | 2.2917     | 2.2917     |   0.0 | 47.80
Comm    | 0.10451    | 0.10451    | 0.10451    |   0.0 |  2.18
Output  | 0.00021601 | 0.00021601 | 0.00021601 |   0.0 |  0.00
Modify  | 0.31774    | 0.31774    | 0.31774    |   0.0 |  6.63
Other   |            | 0.06439    |            |       |  1.34

Nlocal:    19652 ave 19652 max 19652 min
Histogram: 1 0 0 0 0 0 0 0 0 0
Nghost:    1799 ave 1799 max 1799 min
Histogram: 1 0 0 0 0 0 0 0 0 0
Neighs:    112137 ave 112137 max 112137 min
Histogram: 1 0 0 0 0 0 0 0 0 0

Total # of neighbors = 112137
Ave neighs/atom = 5.70614
Neighbor list builds = 172
Dangerous builds not checked
Setting up Verlet run ...
  Unit style    : metal
  Current step  : 50672
  Time step     : 0.001
Per MPI rank memory allocation (min/avg/max) = 29.31 | 29.31 | 29.31 Mbytes
Step Temp Press TotEng PotEng Enthalpy Volume 
   50672    2437.2861    40.227333   -30764.123   -36955.052   -26471.123 1.7098185e+08 
   50692    2403.0018    41.417382   -30853.273   -36957.117   -26429.111 1.7114285e+08 
   51167    1547.9565    21.151567   -33035.658   -36967.608   -30567.655 1.8694483e+08 
Loop time of 14.5354 on 1 procs for 495 steps with 19652 atoms

Performance: 2.942 ns/day, 8.157 hours/ns, 34.055 timesteps/s
99.1% CPU use with 1 MPI tasks x no OpenMP threads

MPI task timing breakdown:
Section |  min time  |  avg time  |  max time  |%varavg| %total
---------------------------------------------------------------
Pair    | 6.0174     | 6.0174     | 6.0174     |   0.0 | 41.40
Neigh   | 6.9917     | 6.9917     | 6.9917     |   0.0 | 48.10
Comm    | 0.32749    | 0.32749    | 0.32749    |   0.0 |  2.25
Output  | 0.057393   | 0.057393   | 0.057393   |   0.0 |  0.39
Modify  | 0.95259    | 0.95259    | 0.95259    |   0.0 |  6.55
Other   |            | 0.1887     |            |       |  1.30

Nlocal:    19652 ave 19652 max 19652 min
Histogram: 1 0 0 0 0 0 0 0 0 0
Nghost:    1742 ave 1742 max 1742 min
Histogram: 1 0 0 0 0 0 0 0 0 0
Neighs:    112210 ave 112210 max 112210 min
Histogram: 1 0 0 0 0 0 0 0 0 0

Total # of neighbors = 112210
Ave neighs/atom = 5.70985
Neighbor list builds = 495
Dangerous builds not checked
Setting up Verlet run ...
  Unit style    : metal
  Current step  : 51167
  Time step     : 0.001
Per MPI rank memory allocation (min/avg/max) = 30.2 | 30.2 | 30.2 Mbytes
Step Temp Press TotEng PotEng Enthalpy Volume 
   51167    1547.9565    21.151567   -33035.658   -36967.608   -30567.655 1.8694483e+08 
   51339    1573.2507    24.007642    -32969.22    -36965.42   -30091.549 1.9204457e+08 
Loop time of 5.14918 on 1 procs for 172 steps with 19652 atoms

Performance: 2.886 ns/day, 8.316 hours/ns, 33.403 timesteps/s
99.4% CPU use with 1 MPI tasks x no OpenMP threads

MPI task timing breakdown:
Section |  min time  |  avg time  |  max time  |%varavg| %total
---------------------------------------------------------------
Pair    | 2.1202     | 2.1202     | 2.1202     |   0.0 | 41.18
Neigh   | 2.5041     | 2.5041     | 2.5041     |   0.0 | 48.63
Comm    | 0.11015    | 0.11015    | 0.11015    |   0.0 |  2.14
Output  | 0.00019693 | 0.00019693 | 0.00019693 |   0.0 |  0.00
Modify  | 0.34782    | 0.34782    | 0.34782    |   0.0 |  6.75
Other   |            | 0.06674    |            |       |  1.30

Nlocal:    19652 ave 19652 max 19652 min
Histogram: 1 0 0 0 0 0 0 0 0 0
Nghost:    1721 ave 1721 max 1721 min
Histogram: 1 0 0 0 0 0 0 0 0 0
Neighs:    112158 ave 112158 max 112158 min
Histogram: 1 0 0 0 0 0 0 0 0 0

Total # of neighbors = 112158
Ave neighs/atom = 5.70721
Neighbor list builds = 172
Dangerous builds not checked
Setting up Verlet run ...
  Unit style    : metal
  Current step  : 51339
  Time step     : 0.001
Per MPI rank memory allocation (min/avg/max) = 30.44 | 30.44 | 30.44 Mbytes
Step Temp Press TotEng PotEng Enthalpy Volume 
   51339    1573.2507    24.007642    -32969.22    -36965.42   -30091.549 1.9204457e+08 
   51359    1573.5354    25.414501   -32968.576   -36965.499   -29920.269 1.9217084e+08 
   51834    1552.5908    18.739983   -33020.572   -36964.295   -30580.679 2.085989e+08 
Loop time of 15.0301 on 1 procs for 495 steps with 19652 atoms

Performance: 2.845 ns/day, 8.434 hours/ns, 32.934 timesteps/s
99.0% CPU use with 1 MPI tasks x no OpenMP threads

MPI task timing breakdown:
Section |  min time  |  avg time  |  max time  |%varavg| %total
---------------------------------------------------------------
Pair    | 6.1243     | 6.1243     | 6.1243     |   0.0 | 40.75
Neigh   | 7.3666     | 7.3666     | 7.3666     |   0.0 | 49.01
Comm    | 0.31202    | 0.31202    | 0.31202    |   0.0 |  2.08
Output  | 0.063425   | 0.063425   | 0.063425   |   0.0 |  0.42
Modify  | 0.97387    | 0.97387    | 0.97387    |   0.0 |  6.48
Other   |            | 0.1899     |            |       |  1.26

Nlocal:    19652 ave 19652 max 19652 min
Histogram: 1 0 0 0 0 0 0 0 0 0
Nghost:    1674 ave 1674 max 1674 min
Histogram: 1 0 0 0 0 0 0 0 0 0
Neighs:    112247 ave 112247 max 112247 min
Histogram: 1 0 0 0 0 0 0 0 0 0

Total # of neighbors = 112247
Ave neighs/atom = 5.71173
Neighbor list builds = 495
Dangerous builds not checked
Setting up Verlet run ...
  Unit style    : metal
  Current step  : 51834
  Time step     : 0.001
Per MPI rank memory allocation (min/avg/max) = 31.4 | 31.4 | 31.4 Mbytes
Step Temp Press TotEng PotEng Enthalpy Volume 
   51834    1552.5908    18.739983   -33020.572   -36964.295   -30580.679 2.085989e+08 
   52006    1540.2295    21.313199   -33051.011   -36963.334   -30199.435 2.1436146e+08 
Loop time of 5.12599 on 1 procs for 172 steps with 19652 atoms

Performance: 2.899 ns/day, 8.278 hours/ns, 33.555 timesteps/s
99.0% CPU use with 1 MPI tasks x no OpenMP threads

MPI task timing breakdown:
Section |  min time  |  avg time  |  max time  |%varavg| %total
---------------------------------------------------------------
Pair    | 2.0861     | 2.0861     | 2.0861     |   0.0 | 40.70
Neigh   | 2.5252     | 2.5252     | 2.5252     |   0.0 | 49.26
Comm    | 0.11479    | 0.11479    | 0.11479    |   0.0 |  2.24
Output  | 0.00019908 | 0.00019908 | 0.00019908 |   0.0 |  0.00
Modify  | 0.33411    | 0.33411    | 0.33411    |   0.0 |  6.52
Other   |            | 0.0656     |            |       |  1.28

Nlocal:    19652 ave 19652 max 19652 min
Histogram: 1 0 0 0 0 0 0 0 0 0
Nghost:    1662 ave 1662 max 1662 min
Histogram: 1 0 0 0 0 0 0 0 0 0
Neighs:    112210 ave 112210 max 112210 min
Histogram: 1 0 0 0 0 0 0 0 0 0

Total # of neighbors = 112210
Ave neighs/atom = 5.70985
Neighbor list builds = 172
Dangerous builds not checked
Setting up Verlet run ...
  Unit style    : metal
  Current step  : 52006
  Time step     : 0.001
Per MPI rank memory allocation (min/avg/max) = 31.65 | 31.65 | 31.65 Mbytes
Step Temp Press TotEng PotEng Enthalpy Volume 
   52006    1540.2295    21.313199   -33051.011   -36963.334   -30199.435 2.1436146e+08 
   52026    1539.7405    22.458192   -33052.091   -36963.172   -30045.304 2.1450544e+08 
   52501    1722.7888    18.918079   -32580.332   -36956.372   -29791.116 2.362193e+08 
Loop time of 15.2176 on 1 procs for 495 steps with 19652 atoms

Performance: 2.810 ns/day, 8.540 hours/ns, 32.528 timesteps/s
98.8% CPU use with 1 MPI tasks x no OpenMP threads

MPI task timing breakdown:
Section |  min time  |  avg time  |  max time  |%varavg| %total
---------------------------------------------------------------
Pair    | 6.0888     | 6.0888     | 6.0888     |   0.0 | 40.01
Neigh   | 7.6213     | 7.6213     | 7.6213     |   0.0 | 50.08
Comm    | 0.30826    | 0.30826    | 0.30826    |   0.0 |  2.03
Output  | 0.058498   | 0.058498   | 0.058498   |   0.0 |  0.38
Modify  | 0.95213    | 0.95213    | 0.95213    |   0.0 |  6.26
Other   |            | 0.1886     |            |       |  1.24

Nlocal:    19652 ave 19652 max 19652 min
Histogram: 1 0 0 0 0 0 0 0 0 0
Nghost:    1602 ave 1602 max 1602 min
Histogram: 1 0 0 0 0 0 0 0 0 0
Neighs:    112087 ave 112087 max 112087 min
Histogram: 1 0 0 0 0 0 0 0 0 0

Total # of neighbors = 112087
Ave neighs/atom = 5.70359
Neighbor list builds = 495
Dangerous builds not checked
Setting up Verlet run ...
  Unit style    : metal
  Current step  : 52501
  Time step     : 0.001
Per MPI rank memory allocation (min/avg/max) = 32.94 | 32.94 | 32.94 Mbytes
Step Temp Press TotEng PotEng Enthalpy Volume 
   52501    1722.7888    18.918079   -32580.332   -36956.372   -29791.116 2.362193e+08 
   52673    1552.6672    18.659436    -33015.66   -36959.576   -30183.589 2.4317334e+08 
Loop time of 5.10932 on 1 procs for 172 steps with 19652 atoms

Performance: 2.909 ns/day, 8.251 hours/ns, 33.664 timesteps/s
99.3% CPU use with 1 MPI tasks x no OpenMP threads

MPI task timing breakdown:
Section |  min time  |  avg time  |  max time  |%varavg| %total
---------------------------------------------------------------
Pair    | 2.0175     | 2.0175     | 2.0175     |   0.0 | 39.49
Neigh   | 2.6063     | 2.6063     | 2.6063     |   0.0 | 51.01
Comm    | 0.10305    | 0.10305    | 0.10305    |   0.0 |  2.02
Output  | 0.00018597 | 0.00018597 | 0.00018597 |   0.0 |  0.00
Modify  | 0.31775    | 0.31775    | 0.31775    |   0.0 |  6.22
Other   |            | 0.06453    |            |       |  1.26

Nlocal:    19652 ave 19652 max 19652 min
Histogram: 1 0 0 0 0 0 0 0 0 0
Nghost:    1582 ave 1582 max 1582 min
Histogram: 1 0 0 0 0 0 0 0 0 0
Neighs:    112084 ave 112084 max 112084 min
Histogram: 1 0 0 0 0 0 0 0 0 0

Total # of neighbors = 112084
Ave neighs/atom = 5.70344
Neighbor list builds = 172
Dangerous builds not checked
Setting up Verlet run ...
  Unit style    : metal
  Current step  : 52673
  Time step     : 0.001
Per MPI rank memory allocation (min/avg/max) = 33.21 | 33.21 | 33.21 Mbytes
Step Temp Press TotEng PotEng Enthalpy Volume 
   52673    1552.6672    18.659436    -33015.66   -36959.576   -30183.589 2.4317334e+08 
   52693    1549.3072    19.768055   -33023.296   -36958.677   -30020.888 2.4334148e+08 
   53168    1455.8117    13.748031   -33260.583   -36958.478   -30993.503 2.6420239e+08 
Loop time of 14.9631 on 1 procs for 495 steps with 19652 atoms

Performance: 2.858 ns/day, 8.397 hours/ns, 33.081 timesteps/s
98.8% CPU use with 1 MPI tasks x no OpenMP threads

MPI task timing breakdown:
Section |  min time  |  avg time  |  max time  |%varavg| %total
---------------------------------------------------------------
Pair    | 5.8086     | 5.8086     | 5.8086     |   0.0 | 38.82
Neigh   | 7.698      | 7.698      | 7.698      |   0.0 | 51.45
Comm    | 0.3181     | 0.3181     | 0.3181     |   0.0 |  2.13
Output  | 0.057503   | 0.057503   | 0.057503   |   0.0 |  0.38
Modify  | 0.90541    | 0.90541    | 0.90541    |   0.0 |  6.05
Other   |            | 0.1754     |            |       |  1.17

Nlocal:    19652 ave 19652 max 19652 min
Histogram: 1 0 0 0 0 0 0 0 0 0
Nghost:    1535 ave 1535 max 1535 min
Histogram: 1 0 0 0 0 0 0 0 0 0
Neighs:    112116 ave 112116 max 112116 min
Histogram: 1 0 0 0 0 0 0 0 0 0

Total # of neighbors = 112116
Ave neighs/atom = 5.70507
Neighbor list builds = 495
Dangerous builds not checked
Setting up Verlet run ...
  Unit style    : metal
  Current step  : 53168
  Time step     : 0.001
Per MPI rank memory allocation (min/avg/max) = 34.33 | 34.33 | 34.33 Mbytes
Step Temp Press TotEng PotEng Enthalpy Volume 
   53168    1455.8117    13.748031   -33260.583   -36958.478   -30993.503 2.6420239e+08 
   53340    1486.5955    16.074208   -33181.274   -36957.362   -30455.083 2.7172973e+08 
Loop time of 5.18282 on 1 procs for 172 steps with 19652 atoms

Performance: 2.867 ns/day, 8.370 hours/ns, 33.187 timesteps/s
98.8% CPU use with 1 MPI tasks x no OpenMP threads

MPI task timing breakdown:
Section |  min time  |  avg time  |  max time  |%varavg| %total
---------------------------------------------------------------
Pair    | 1.9885     | 1.9885     | 1.9885     |   0.0 | 38.37
Neigh   | 2.7266     | 2.7266     | 2.7266     |   0.0 | 52.61
Comm    | 0.099295   | 0.099295   | 0.099295   |   0.0 |  1.92
Output  | 0.00018787 | 0.00018787 | 0.00018787 |   0.0 |  0.00
Modify  | 0.30955    | 0.30955    | 0.30955    |   0.0 |  5.97
Other   |            | 0.05867    |            |       |  1.13

Nlocal:    19652 ave 19652 max 19652 min
Histogram: 1 0 0 0 0 0 0 0 0 0
Nghost:    1516 ave 1516 max 1516 min
Histogram: 1 0 0 0 0 0 0 0 0 0
Neighs:    112069 ave 112069 max 112069 min
Histogram: 1 0 0 0 0 0 0 0 0 0

Total # of neighbors = 112069
Ave neighs/atom = 5.70268
Neighbor list builds = 172
Dangerous builds not checked
Setting up Verlet run ...
  Unit style    : metal
  Current step  : 53340
  Time step     : 0.001
Per MPI rank memory allocation (min/avg/max) = 34.91 | 34.91 | 34.91 Mbytes
Step Temp Press TotEng PotEng Enthalpy Volume 
   53340    1486.5955    16.074208   -33181.274   -36957.362   -30455.083 2.7172973e+08 
   53360    1488.5464    17.126478   -33172.822   -36953.865   -30266.151 2.7191813e+08 
   53835    1404.6272    11.845307   -33387.056   -36954.937   -31204.407 2.952214e+08 
Loop time of 15.1198 on 1 procs for 495 steps with 19652 atoms

Performance: 2.829 ns/day, 8.485 hours/ns, 32.738 timesteps/s
98.7% CPU use with 1 MPI tasks x no OpenMP threads

MPI task timing breakdown:
Section |  min time  |  avg time  |  max time  |%varavg| %total
---------------------------------------------------------------
Pair    | 5.7203     | 5.7203     | 5.7203     |   0.0 | 37.83
Neigh   | 7.9861     | 7.9861     | 7.9861     |   0.0 | 52.82
Comm    | 0.2854     | 0.2854     | 0.2854     |   0.0 |  1.89
Output  | 0.067329   | 0.067329   | 0.067329   |   0.0 |  0.45
Modify  | 0.89188    | 0.89188    | 0.89188    |   0.0 |  5.90
Other   |            | 0.1688     |            |       |  1.12

Nlocal:    19652 ave 19652 max 19652 min
Histogram: 1 0 0 0 0 0 0 0 0 0
Nghost:    1476 ave 1476 max 1476 min
Histogram: 1 0 0 0 0 0 0 0 0 0
Neighs:    112112 ave 112112 max 112112 min
Histogram: 1 0 0 0 0 0 0 0 0 0

Total # of neighbors = 112112
Ave neighs/atom = 5.70486
Neighbor list builds = 495
Dangerous builds not checked
Setting up Verlet run ...
  Unit style    : metal
  Current step  : 53835
  Time step     : 0.001
Per MPI rank memory allocation (min/avg/max) = 36.11 | 36.11 | 36.11 Mbytes
Step Temp Press TotEng PotEng Enthalpy Volume 
   53835    1404.6272    11.845307   -33387.056   -36954.937   -31204.407 2.952214e+08 
   54007    1386.7499    13.312063   -33432.464   -36954.935   -30911.887 3.0336467e+08 
Loop time of 5.27338 on 1 procs for 172 steps with 19652 atoms

Performance: 2.818 ns/day, 8.516 hours/ns, 32.617 timesteps/s
98.7% CPU use with 1 MPI tasks x no OpenMP threads

MPI task timing breakdown:
Section |  min time  |  avg time  |  max time  |%varavg| %total
---------------------------------------------------------------
Pair    | 1.9726     | 1.9726     | 1.9726     |   0.0 | 37.41
Neigh   | 2.8223     | 2.8223     | 2.8223     |   0.0 | 53.52
Comm    | 0.10979    | 0.10979    | 0.10979    |   0.0 |  2.08
Output  | 0.00019813 | 0.00019813 | 0.00019813 |   0.0 |  0.00
Modify  | 0.30981    | 0.30981    | 0.30981    |   0.0 |  5.87
Other   |            | 0.05864    |            |       |  1.11

Nlocal:    19652 ave 19652 max 19652 min
Histogram: 1 0 0 0 0 0 0 0 0 0
Nghost:    1465 ave 1465 max 1465 min
Histogram: 1 0 0 0 0 0 0 0 0 0
Neighs:    112085 ave 112085 max 112085 min
Histogram: 1 0 0 0 0 0 0 0 0 0

Total # of neighbors = 112085
Ave neighs/atom = 5.70349
Neighbor list builds = 172
Dangerous builds not checked
Setting up Verlet run ...
  Unit style    : metal
  Current step  : 54007
  Time step     : 0.001
Per MPI rank memory allocation (min/avg/max) = 36.73 | 36.73 | 36.73 Mbytes
Step Temp Press TotEng PotEng Enthalpy Volume 
   54007    1386.7499    13.312063   -33432.464   -36954.935   -30911.887 3.0336467e+08 
   54027    1386.3164    14.367862   -33432.967   -36954.337   -30710.674 3.0356589e+08 
   54502    1548.3367    11.785168   -33019.204    -36952.12     -30574.7 3.3232677e+08 
Loop time of 15.4623 on 1 procs for 495 steps with 19652 atoms

Performance: 2.766 ns/day, 8.677 hours/ns, 32.013 timesteps/s
98.7% CPU use with 1 MPI tasks x no OpenMP threads

MPI task timing breakdown:
Section |  min time  |  avg time  |  max time  |%varavg| %total
---------------------------------------------------------------
Pair    | 5.7238     | 5.7238     | 5.7238     |   0.0 | 37.02
Neigh   | 8.3362     | 8.3362     | 8.3362     |   0.0 | 53.91
Comm    | 0.28492    | 0.28492    | 0.28492    |   0.0 |  1.84
Output  | 0.05694    | 0.05694    | 0.05694    |   0.0 |  0.37
Modify  | 0.89147    | 0.89147    | 0.89147    |   0.0 |  5.77
Other   |            | 0.1689     |            |       |  1.09

Nlocal:    19652 ave 19652 max 19652 min
Histogram: 1 0 0 0 0 0 0 0 0 0
Nghost:    1410 ave 1410 max 1410 min
Histogram: 1 0 0 0 0 0 0 0 0 0
Neighs:    112106 ave 112106 max 112106 min
Histogram: 1 0 0 0 0 0 0 0 0 0

Total # of neighbors = 112106
Ave neighs/atom = 5.70456
Neighbor list builds = 495
Dangerous builds not checked
Setting up Verlet run ...
  Unit style    : metal
  Current step  : 54502
  Time step     : 0.001
Per MPI rank memory allocation (min/avg/max) = 38.02 | 38.02 | 38.02 Mbytes
Step Temp Press TotEng PotEng Enthalpy Volume 
   54502    1548.3367    11.785168   -33019.204    -36952.12     -30574.7 3.3232677e+08 
   54674     1396.796    12.102635   -33408.619   -36956.608    -30824.62 3.4207619e+08 
Loop time of 5.43209 on 1 procs for 172 steps with 19652 atoms

Performance: 2.736 ns/day, 8.773 hours/ns, 31.664 timesteps/s
98.9% CPU use with 1 MPI tasks x no OpenMP threads

MPI task timing breakdown:
Section |  min time  |  avg time  |  max time  |%varavg| %total
---------------------------------------------------------------
Pair    | 1.9783     | 1.9783     | 1.9783     |   0.0 | 36.42
Neigh   | 2.9869     | 2.9869     | 2.9869     |   0.0 | 54.99
Comm    | 0.0987     | 0.0987     | 0.0987     |   0.0 |  1.82
Output  | 0.00020194 | 0.00020194 | 0.00020194 |   0.0 |  0.00
Modify  | 0.30971    | 0.30971    | 0.30971    |   0.0 |  5.70
Other   |            | 0.05834    |            |       |  1.07

Nlocal:    19652 ave 19652 max 19652 min
Histogram: 1 0 0 0 0 0 0 0 0 0
Nghost:    1396 ave 1396 max 1396 min
Histogram: 1 0 0 0 0 0 0 0 0 0
Neighs:    112051 ave 112051 max 112051 min
Histogram: 1 0 0 0 0 0 0 0 0 0

Total # of neighbors = 112051
Ave neighs/atom = 5.70176
Neighbor list builds = 172
Dangerous builds not checked
Setting up Verlet run ...
  Unit style    : metal
  Current step  : 54674
  Time step     : 0.001
Per MPI rank memory allocation (min/avg/max) = 38.69 | 38.69 | 38.69 Mbytes
Step Temp Press TotEng PotEng Enthalpy Volume 
   54674     1396.796    12.102635   -33408.619   -36956.608    -30824.62 3.4207619e+08 
   54694    1393.2233    12.878846   -33415.452   -36954.366   -30663.798 3.4231599e+08 
   55169    1305.4742    8.6741721   -33638.229   -36954.253   -31626.128 3.7164834e+08 
Loop time of 15.8969 on 1 procs for 495 steps with 19652 atoms

Performance: 2.690 ns/day, 8.921 hours/ns, 31.138 timesteps/s
98.6% CPU use with 1 MPI tasks x no OpenMP threads

MPI task timing breakdown:
Section |  min time  |  avg time  |  max time  |%varavg| %total
---------------------------------------------------------------
Pair    | 5.6943     | 5.6943     | 5.6943     |   0.0 | 35.82
Neigh   | 8.7756     | 8.7756     | 8.7756     |   0.0 | 55.20
Comm    | 0.30947    | 0.30947    | 0.30947    |   0.0 |  1.95
Output  | 0.056774   | 0.056774   | 0.056774   |   0.0 |  0.36
Modify  | 0.89211    | 0.89211    | 0.89211    |   0.0 |  5.61
Other   |            | 0.1687     |            |       |  1.06

Nlocal:    19652 ave 19652 max 19652 min
Histogram: 1 0 0 0 0 0 0 0 0 0
Nghost:    1337 ave 1337 max 1337 min
Histogram: 1 0 0 0 0 0 0 0 0 0
Neighs:    112101 ave 112101 max 112101 min
Histogram: 1 0 0 0 0 0 0 0 0 0

Total # of neighbors = 112101
Ave neighs/atom = 5.7043
Neighbor list builds = 495
Dangerous builds not checked
Setting up Verlet run ...
  Unit style    : metal
  Current step  : 55169
  Time step     : 0.001
Per MPI rank memory allocation (min/avg/max) = 40.43 | 40.43 | 40.43 Mbytes
Step Temp Press TotEng PotEng Enthalpy Volume 
   55169    1305.4742    8.6741721   -33638.229   -36954.253   -31626.128 3.7164834e+08 
   55341    1286.7514    9.8293189   -33688.045   -36956.511   -31345.155 3.8189051e+08 
Loop time of 5.5053 on 1 procs for 172 steps with 19652 atoms

Performance: 2.699 ns/day, 8.891 hours/ns, 31.243 timesteps/s
98.8% CPU use with 1 MPI tasks x no OpenMP threads

MPI task timing breakdown:
Section |  min time  |  avg time  |  max time  |%varavg| %total
---------------------------------------------------------------
Pair    | 1.9697     | 1.9697     | 1.9697     |   0.0 | 35.78
Neigh   | 3.0681     | 3.0681     | 3.0681     |   0.0 | 55.73
Comm    | 0.098217   | 0.098217   | 0.098217   |   0.0 |  1.78
Output  | 0.00018597 | 0.00018597 | 0.00018597 |   0.0 |  0.00
Modify  | 0.31095    | 0.31095    | 0.31095    |   0.0 |  5.65
Other   |            | 0.05812    |            |       |  1.06

Nlocal:    19652 ave 19652 max 19652 min
Histogram: 1 0 0 0 0 0 0 0 0 0
Nghost:    1322 ave 1322 max 1322 min
Histogram: 1 0 0 0 0 0 0 0 0 0
Neighs:    112063 ave 112063 max 112063 min
Histogram: 1 0 0 0 0 0 0 0 0 0

Total # of neighbors = 112063
Ave neighs/atom = 5.70237
Neighbor list builds = 172
Dangerous builds not checked
Setting up Verlet run ...
  Unit style    : metal
  Current step  : 55341
  Time step     : 0.001
[...]
Pair    | 5.7703     | 5.7703     | 5.7703     |   0.0 | 16.37
Neigh   | 27.812     | 27.812     | 27.812     |   0.0 | 78.89
Comm    | 0.52882    | 0.52882    | 0.52882    |   0.0 |  1.50
Output  | 0.061051   | 0.061051   | 0.061051   |   0.0 |  0.17
Modify  | 0.91063    | 0.91063    | 0.91063    |   0.0 |  2.58
Other   |            | 0.1727     |            |       |  0.49

Nlocal:    19652 ave 19652 max 19652 min
Histogram: 1 0 0 0 0 0 0 0 0 0
Nghost:    662 ave 662 max 662 min
Histogram: 1 0 0 0 0 0 0 0 0 0
Neighs:    111056 ave 111056 max 111056 min
Histogram: 1 0 0 0 0 0 0 0 0 0

Total # of neighbors = 111056
Ave neighs/atom = 5.65113
Neighbor list builds = 495
Dangerous builds not checked
Setting up Verlet run ...
  Unit style    : metal
  Current step  : 67175
  Time step     : 0.001
Per MPI rank memory allocation (min/avg/max) = 170.5 | 170.5 | 170.5 Mbytes
Step Temp Press TotEng PotEng Enthalpy Volume 
   67175    422.44827   0.28820215     -35789.6   -36862.657   -35278.778 2.8397697e+09 
   67347    400.76395   0.38539932   -35848.934   -36866.911   -35147.308 2.9167919e+09 
Loop time of 12.6246 on 1 procs for 172 steps with 19652 atoms

Performance: 1.177 ns/day, 20.389 hours/ns, 13.624 timesteps/s
95.1% CPU use with 1 MPI tasks x no OpenMP threads

MPI task timing breakdown:
Section |  min time  |  avg time  |  max time  |%varavg| %total
---------------------------------------------------------------
Pair    | 1.9918     | 1.9918     | 1.9918     |   0.0 | 15.78
Neigh   | 10.16      | 10.16      | 10.16      |   0.0 | 80.48
Comm    | 0.093962   | 0.093962   | 0.093962   |   0.0 |  0.74
Output  | 0.00019503 | 0.00019503 | 0.00019503 |   0.0 |  0.00
Modify  | 0.31775    | 0.31775    | 0.31775    |   0.0 |  2.52
Other   |            | 0.06056    |            |       |  0.48

Nlocal:    19652 ave 19652 max 19652 min
Histogram: 1 0 0 0 0 0 0 0 0 0
Nghost:    653 ave 653 max 653 min
Histogram: 1 0 0 0 0 0 0 0 0 0
Neighs:    111042 ave 111042 max 111042 min
Histogram: 1 0 0 0 0 0 0 0 0 0

Total # of neighbors = 111042
Ave neighs/atom = 5.65042
Neighbor list builds = 172
Dangerous builds not checked
Setting up Verlet run ...
  Unit style    : metal
  Current step  : 67347
  Time step     : 0.001
Per MPI rank memory allocation (min/avg/max) = 174.6 | 174.6 | 174.6 Mbytes
Step Temp Press TotEng PotEng Enthalpy Volume 
   67347    400.76395   0.38539932   -35848.934   -36866.911   -35147.308 2.9167919e+09 
   67367    399.45252   0.51634938   -35849.698   -36864.344   -34909.001 2.9188817e+09 
   67842    353.62093   0.20810537   -35967.299   -36865.529   -35556.415 3.1633429e+09 
Loop time of 36.6904 on 1 procs for 495 steps with 19652 atoms

Performance: 1.166 ns/day, 20.589 hours/ns, 13.491 timesteps/s
94.4% CPU use with 1 MPI tasks x no OpenMP threads

MPI task timing breakdown:
Section |  min time  |  avg time  |  max time  |%varavg| %total
---------------------------------------------------------------
Pair    | 5.6794     | 5.6794     | 5.6794     |   0.0 | 15.48
Neigh   | 29.626     | 29.626     | 29.626     |   0.0 | 80.74
Comm    | 0.26454    | 0.26454    | 0.26454    |   0.0 |  0.72
Output  | 0.057746   | 0.057746   | 0.057746   |   0.0 |  0.16
Modify  | 0.89282    | 0.89282    | 0.89282    |   0.0 |  2.43
Other   |            | 0.1703     |            |       |  0.46

Nlocal:    19652 ave 19652 max 19652 min
Histogram: 1 0 0 0 0 0 0 0 0 0
Nghost:    637 ave 637 max 637 min
Histogram: 1 0 0 0 0 0 0 0 0 0
Neighs:    111088 ave 111088 max 111088 min
Histogram: 1 0 0 0 0 0 0 0 0 0

Total # of neighbors = 111088
Ave neighs/atom = 5.65276
Neighbor list builds = 495
Dangerous builds not checked
Setting up Verlet run ...
  Unit style    : metal
  Current step  : 67842
  Time step     : 0.001
Per MPI rank memory allocation (min/avg/max) = 187.1 | 187.1 | 187.1 Mbytes
Step Temp Press TotEng PotEng Enthalpy Volume 
   67842    353.62093   0.20810537   -35967.299   -36865.529   -35556.415 3.1633429e+09 
   68014    346.06681   0.29540867   -35989.372   -36868.414   -35390.741 3.2467324e+09 
Loop time of 13.6913 on 1 procs for 172 steps with 19652 atoms

Performance: 1.085 ns/day, 22.111 hours/ns, 12.563 timesteps/s
91.1% CPU use with 1 MPI tasks x no OpenMP threads

MPI task timing breakdown:
Section |  min time  |  avg time  |  max time  |%varavg| %total
---------------------------------------------------------------
Pair    | 2.0133     | 2.0133     | 2.0133     |   0.0 | 14.70
Neigh   | 10.915     | 10.915     | 10.915     |   0.0 | 79.72
Comm    | 0.39567    | 0.39567    | 0.39567    |   0.0 |  2.89
Output  | 0.00018883 | 0.00018883 | 0.00018883 |   0.0 |  0.00
Modify  | 0.30833    | 0.30833    | 0.30833    |   0.0 |  2.25
Other   |            | 0.05877    |            |       |  0.43

Nlocal:    19652 ave 19652 max 19652 min
Histogram: 1 0 0 0 0 0 0 0 0 0
Nghost:    627 ave 627 max 627 min
Histogram: 1 0 0 0 0 0 0 0 0 0
Neighs:    111037 ave 111037 max 111037 min
Histogram: 1 0 0 0 0 0 0 0 0 0

Total # of neighbors = 111037
Ave neighs/atom = 5.65016
Neighbor list builds = 172
Dangerous builds not checked
Setting up Verlet run ...
  Unit style    : metal
  Current step  : 68014
  Time step     : 0.001
Per MPI rank memory allocation (min/avg/max) = 191.4 | 191.4 | 191.4 Mbytes
Step Temp Press TotEng PotEng Enthalpy Volume 
   68014    346.06681   0.29540867   -35989.372   -36868.414   -35390.741 3.2467324e+09 
   68034    345.00197   0.41097111   -35989.584   -36865.921   -35156.179 3.2490428e+09 
   68509    304.14607    0.1642372   -36094.079   -36866.638    -35733.28 3.5196853e+09 
Loop time of 43.0093 on 1 procs for 495 steps with 19652 atoms

Performance: 0.994 ns/day, 24.135 hours/ns, 11.509 timesteps/s
86.1% CPU use with 1 MPI tasks x no OpenMP threads

MPI task timing breakdown:
Section |  min time  |  avg time  |  max time  |%varavg| %total
---------------------------------------------------------------
Pair    | 6.232      | 6.232      | 6.232      |   0.0 | 14.49
Neigh   | 35.217     | 35.217     | 35.217     |   0.0 | 81.88
Comm    | 0.30229    | 0.30229    | 0.30229    |   0.0 |  0.70
Output  | 0.061123   | 0.061123   | 0.061123   |   0.0 |  0.14
Modify  | 1.0093     | 1.0093     | 1.0093     |   0.0 |  2.35
Other   |            | 0.1874     |            |       |  0.44

Nlocal:    19652 ave 19652 max 19652 min
Histogram: 1 0 0 0 0 0 0 0 0 0
Nghost:    610 ave 610 max 610 min
Histogram: 1 0 0 0 0 0 0 0 0 0
Neighs:    111083 ave 111083 max 111083 min
Histogram: 1 0 0 0 0 0 0 0 0 0

Total # of neighbors = 111083
Ave neighs/atom = 5.6525
Neighbor list builds = 495
Dangerous builds not checked
Setting up Verlet run ...
  Unit style    : metal
  Current step  : 68509
  Time step     : 0.001
Per MPI rank memory allocation (min/avg/max) = 204.8 | 204.8 | 204.8 Mbytes
Step Temp Press TotEng PotEng Enthalpy Volume 
   68509    304.14607    0.1642372   -36094.079   -36866.638    -35733.28 3.5196853e+09 
   68681    296.83082   0.23540227   -36116.257   -36870.234   -35585.425 3.6129079e+09 
Loop time of 14.2307 on 1 procs for 172 steps with 19652 atoms

Performance: 1.044 ns/day, 22.982 hours/ns, 12.087 timesteps/s
91.8% CPU use with 1 MPI tasks x no OpenMP threads

MPI task timing breakdown:
Section |  min time  |  avg time  |  max time  |%varavg| %total
---------------------------------------------------------------
Pair    | 2.0417     | 2.0417     | 2.0417     |   0.0 | 14.35
Neigh   | 11.711     | 11.711     | 11.711     |   0.0 | 82.29
Comm    | 0.092832   | 0.092832   | 0.092832   |   0.0 |  0.65
Output  | 0.00021195 | 0.00021195 | 0.00021195 |   0.0 |  0.00
Modify  | 0.31757    | 0.31757    | 0.31757    |   0.0 |  2.23
Other   |            | 0.0677     |            |       |  0.48

Nlocal:    19652 ave 19652 max 19652 min
Histogram: 1 0 0 0 0 0 0 0 0 0
Nghost:    609 ave 609 max 609 min
Histogram: 1 0 0 0 0 0 0 0 0 0
Neighs:    111054 ave 111054 max 111054 min
Histogram: 1 0 0 0 0 0 0 0 0 0

Total # of neighbors = 111054
Ave neighs/atom = 5.65103
Neighbor list builds = 172
Dangerous builds not checked
Setting up Verlet run ...
  Unit style    : metal
  Current step  : 68681
  Time step     : 0.001
Per MPI rank memory allocation (min/avg/max) = 210.9 | 210.9 | 210.9 Mbytes
Step Temp Press TotEng PotEng Enthalpy Volume 
   68681    296.83082   0.23540227   -36116.257   -36870.234   -35585.425 3.6129079e+09 
   68701    296.10012   0.32383195   -36116.498   -36868.619   -35385.725 3.6155412e+09 
   69176    255.60259   0.11730646   -36219.136    -36868.39   -35932.544 3.9142885e+09 
Loop time of 41.8156 on 1 procs for 495 steps with 19652 atoms

Performance: 1.023 ns/day, 23.466 hours/ns, 11.838 timesteps/s
93.6% CPU use with 1 MPI tasks x no OpenMP threads

MPI task timing breakdown:
Section |  min time  |  avg time  |  max time  |%varavg| %total
---------------------------------------------------------------
Pair    | 5.8046     | 5.8046     | 5.8046     |   0.0 | 13.88
Neigh   | 34.224     | 34.224     | 34.224     |   0.0 | 81.84
Comm    | 0.61839    | 0.61839    | 0.61839    |   0.0 |  1.48
Output  | 0.062999   | 0.062999   | 0.062999   |   0.0 |  0.15
Modify  | 0.92129    | 0.92129    | 0.92129    |   0.0 |  2.20
Other   |            | 0.1844     |            |       |  0.44

Nlocal:    19652 ave 19652 max 19652 min
Histogram: 1 0 0 0 0 0 0 0 0 0
Nghost:    590 ave 590 max 590 min
Histogram: 1 0 0 0 0 0 0 0 0 0
Neighs:    111078 ave 111078 max 111078 min
Histogram: 1 0 0 0 0 0 0 0 0 0

Total # of neighbors = 111078
Ave neighs/atom = 5.65225
Neighbor list builds = 495
Dangerous builds not checked
Setting up Verlet run ...
  Unit style    : metal
  Current step  : 69176
  Time step     : 0.001
Per MPI rank memory allocation (min/avg/max) = 225.3 | 225.3 | 225.3 Mbytes
Step Temp Press TotEng PotEng Enthalpy Volume 
   69176    255.60259   0.11730646   -36219.136    -36868.39   -35932.544 3.9142885e+09 
   69348    248.30881   0.16593225   -36240.291   -36871.018   -35824.199 4.0176288e+09 
Loop time of 15.2126 on 1 procs for 172 steps with 19652 atoms

Performance: 0.977 ns/day, 24.568 hours/ns, 11.306 timesteps/s
91.5% CPU use with 1 MPI tasks x no OpenMP threads

MPI task timing breakdown:
Section |  min time  |  avg time  |  max time  |%varavg| %total
---------------------------------------------------------------
Pair    | 2.0291     | 2.0291     | 2.0291     |   0.0 | 13.34
Neigh   | 12.707     | 12.707     | 12.707     |   0.0 | 83.53
Comm    | 0.092454   | 0.092454   | 0.092454   |   0.0 |  0.61
Output  | 0.00022388 | 0.00022388 | 0.00022388 |   0.0 |  0.00
Modify  | 0.31918    | 0.31918    | 0.31918    |   0.0 |  2.10
Other   |            | 0.06495    |            |       |  0.43

Nlocal:    19652 ave 19652 max 19652 min
Histogram: 1 0 0 0 0 0 0 0 0 0
Nghost:    587 ave 587 max 587 min
Histogram: 1 0 0 0 0 0 0 0 0 0
Neighs:    111054 ave 111054 max 111054 min
Histogram: 1 0 0 0 0 0 0 0 0 0

Total # of neighbors = 111054
Ave neighs/atom = 5.65103
Neighbor list builds = 172
Dangerous builds not checked
Setting up Verlet run ...
  Unit style    : metal
  Current step  : 69348
  Time step     : 0.001
Per MPI rank memory allocation (min/avg/max) = 231.9 | 231.9 | 231.9 Mbytes
Step Temp Press TotEng PotEng Enthalpy Volume 
   69348    248.30881   0.16593225   -36240.291   -36871.018   -35824.199 4.0176288e+09 
   69368    247.42065   0.25245845   -36240.595   -36869.066   -35607.072 4.020529e+09 
   69843    207.50585  0.075050364   -36344.471   -36871.555   -36140.689 4.3503436e+09 
Loop time of 45.3587 on 1 procs for 495 steps with 19652 atoms

Performance: 0.943 ns/day, 25.454 hours/ns, 10.913 timesteps/s
93.4% CPU use with 1 MPI tasks x no OpenMP threads

MPI task timing breakdown:
Section |  min time  |  avg time  |  max time  |%varavg| %total
---------------------------------------------------------------
Pair    | 5.8436     | 5.8436     | 5.8436     |   0.0 | 12.88
Neigh   | 38.062     | 38.062     | 38.062     |   0.0 | 83.91
Comm    | 0.26974    | 0.26974    | 0.26974    |   0.0 |  0.59
Output  | 0.068539   | 0.068539   | 0.068539   |   0.0 |  0.15
Modify  | 0.93016    | 0.93016    | 0.93016    |   0.0 |  2.05
Other   |            | 0.1844     |            |       |  0.41

Nlocal:    19652 ave 19652 max 19652 min
Histogram: 1 0 0 0 0 0 0 0 0 0
Nghost:    580 ave 580 max 580 min
Histogram: 1 0 0 0 0 0 0 0 0 0
Neighs:    111090 ave 111090 max 111090 min
Histogram: 1 0 0 0 0 0 0 0 0 0

Total # of neighbors = 111090
Ave neighs/atom = 5.65286
Neighbor list builds = 495
Dangerous builds not checked
Setting up Verlet run ...
  Unit style    : metal
  Current step  : 69843
  Time step     : 0.001
Per MPI rank memory allocation (min/avg/max) = 249.1 | 249.1 | 249.1 Mbytes
Step Temp Press TotEng PotEng Enthalpy Volume 
   69843    207.50585  0.075050364   -36344.471   -36871.555   -36140.689 4.3503436e+09 
   70015    200.39608   0.11980186   -36367.713   -36876.737   -36033.852 4.4648978e+09 
Loop time of 16.719 on 1 procs for 172 steps with 19652 atoms

Performance: 0.889 ns/day, 27.001 hours/ns, 10.288 timesteps/s
91.6% CPU use with 1 MPI tasks x no OpenMP threads

MPI task timing breakdown:
Section |  min time  |  avg time  |  max time  |%varavg| %total
---------------------------------------------------------------
Pair    | 2.0213     | 2.0213     | 2.0213     |   0.0 | 12.09
Neigh   | 13.79      | 13.79      | 13.79      |   0.0 | 82.48
Comm    | 0.51699    | 0.51699    | 0.51699    |   0.0 |  3.09
Output  | 0.000247   | 0.000247   | 0.000247   |   0.0 |  0.00
Modify  | 0.3264     | 0.3264     | 0.3264     |   0.0 |  1.95
Other   |            | 0.06385    |            |       |  0.38

Nlocal:    19652 ave 19652 max 19652 min
Histogram: 1 0 0 0 0 0 0 0 0 0
Nghost:    579 ave 579 max 579 min
Histogram: 1 0 0 0 0 0 0 0 0 0
Neighs:    111076 ave 111076 max 111076 min
Histogram: 1 0 0 0 0 0 0 0 0 0

Total # of neighbors = 111076
Ave neighs/atom = 5.65215
Neighbor list builds = 172
Dangerous builds not checked
Setting up Verlet run ...
  Unit style    : metal
  Current step  : 70015
  Time step     : 0.001
Per MPI rank memory allocation (min/avg/max) = 254.4 | 254.4 | 254.4 Mbytes
Step Temp Press TotEng PotEng Enthalpy Volume 
   70015    200.39608   0.11980186   -36367.713   -36876.737   -36033.852 4.4648978e+09 
   70035    198.62639   0.19607293   -36368.157   -36872.686   -35821.336 4.4682574e+09 
   70510    159.32199  0.058925506    -36470.04   -36874.732   -36292.385 4.8304157e+09 
Loop time of 48.6997 on 1 procs for 495 steps with 19652 atoms

Performance: 0.878 ns/day, 27.329 hours/ns, 10.164 timesteps/s
93.1% CPU use with 1 MPI tasks x no OpenMP threads

MPI task timing breakdown:
Section |  min time  |  avg time  |  max time  |%varavg| %total
---------------------------------------------------------------
Pair    | 5.7378     | 5.7378     | 5.7378     |   0.0 | 11.78
Neigh   | 41.555     | 41.555     | 41.555     |   0.0 | 85.33
Comm    | 0.26425    | 0.26425    | 0.26425    |   0.0 |  0.54
Output  | 0.062367   | 0.062367   | 0.062367   |   0.0 |  0.13
Modify  | 0.90891    | 0.90891    | 0.90891    |   0.0 |  1.87
Other   |            | 0.1718     |            |       |  0.35

Nlocal:    19652 ave 19652 max 19652 min
Histogram: 1 0 0 0 0 0 0 0 0 0
Nghost:    564 ave 564 max 564 min
Histogram: 1 0 0 0 0 0 0 0 0 0
Neighs:    111083 ave 111083 max 111083 min
Histogram: 1 0 0 0 0 0 0 0 0 0

Total # of neighbors = 111083
Ave neighs/atom = 5.6525
Neighbor list builds = 495
Dangerous builds not checked
Setting up Verlet run ...
  Unit style    : metal
  Current step  : 70510
  Time step     : 0.001
Per MPI rank memory allocation (min/avg/max) = 272.7 | 272.7 | 272.7 Mbytes
Step Temp Press TotEng PotEng Enthalpy Volume 
   70510    159.32199  0.058925506    -36470.04   -36874.732   -36292.385 4.8304157e+09 
   70682    151.41138  0.058111864   -36494.003   -36878.602   -36314.192 4.9574992e+09 
Loop time of 17.4948 on 1 procs for 172 steps with 19652 atoms

Performance: 0.849 ns/day, 28.254 hours/ns, 9.831 timesteps/s
91.4% CPU use with 1 MPI tasks x no OpenMP threads

MPI task timing breakdown:
Section |  min time  |  avg time  |  max time  |%varavg| %total
---------------------------------------------------------------
Pair    | 1.9756     | 1.9756     | 1.9756     |   0.0 | 11.29
Neigh   | 15.055     | 15.055     | 15.055     |   0.0 | 86.06
Comm    | 0.09238    | 0.09238    | 0.09238    |   0.0 |  0.53
Output  | 0.00020695 | 0.00020695 | 0.00020695 |   0.0 |  0.00
Modify  | 0.312      | 0.312      | 0.312      |   0.0 |  1.78
Other   |            | 0.05907    |            |       |  0.34

Nlocal:    19652 ave 19652 max 19652 min
Histogram: 1 0 0 0 0 0 0 0 0 0
Nghost:    556 ave 556 max 556 min
Histogram: 1 0 0 0 0 0 0 0 0 0
Neighs:    111063 ave 111063 max 111063 min
Histogram: 1 0 0 0 0 0 0 0 0 0

Total # of neighbors = 111063
Ave neighs/atom = 5.65149
Neighbor list builds = 172
Dangerous builds not checked
Setting up Verlet run ...
  Unit style    : metal
  Current step  : 70682
  Time step     : 0.001
Per MPI rank memory allocation (min/avg/max) = 280.3 | 280.3 | 280.3 Mbytes
Step Temp Press TotEng PotEng Enthalpy Volume 
   70682    151.41138  0.058111864   -36494.003   -36878.602   -36314.192 4.9574992e+09 
   70702    150.66183   0.12892809   -36494.418   -36877.113   -36095.234 4.960622e+09 
   71177    111.94156  0.036376785    -36595.34   -36879.682   -36473.728 5.3562481e+09 
Loop time of 52.5173 on 1 procs for 495 steps with 19652 atoms

Performance: 0.814 ns/day, 29.471 hours/ns, 9.425 timesteps/s
91.9% CPU use with 1 MPI tasks x no OpenMP threads

MPI task timing breakdown:
Section |  min time  |  avg time  |  max time  |%varavg| %total
---------------------------------------------------------------
Pair    | 5.6978     | 5.6978     | 5.6978     |   0.0 | 10.85
Neigh   | 44.932     | 44.932     | 44.932     |   0.0 | 85.56
Comm    | 0.76259    | 0.76259    | 0.76259    |   0.0 |  1.45
Output  | 0.057174   | 0.057174   | 0.057174   |   0.0 |  0.11
Modify  | 0.89737    | 0.89737    | 0.89737    |   0.0 |  1.71
Other   |            | 0.1698     |            |       |  0.32

Nlocal:    19652 ave 19652 max 19652 min
Histogram: 1 0 0 0 0 0 0 0 0 0
Nghost:    538 ave 538 max 538 min
Histogram: 1 0 0 0 0 0 0 0 0 0
Neighs:    111075 ave 111075 max 111075 min
Histogram: 1 0 0 0 0 0 0 0 0 0

Total # of neighbors = 111075
Ave neighs/atom = 5.6521
Neighbor list builds = 495
Dangerous builds not checked
Setting up Verlet run ...
  Unit style    : metal
  Current step  : 71177
  Time step     : 0.001
Per MPI rank memory allocation (min/avg/max) = 299.9 | 299.9 | 299.9 Mbytes
Step Temp Press TotEng PotEng Enthalpy Volume 
   71177    111.94156  0.036376785    -36595.34   -36879.682   -36473.728 5.3562481e+09 
   71349    103.42788  0.020196506   -36620.263   -36882.979   -36550.981 5.4960722e+09 
Loop time of 19.0512 on 1 procs for 172 steps with 19652 atoms

Performance: 0.780 ns/day, 30.767 hours/ns, 9.028 timesteps/s
91.7% CPU use with 1 MPI tasks x no OpenMP threads

MPI task timing breakdown:
Section |  min time  |  avg time  |  max time  |%varavg| %total
---------------------------------------------------------------
Pair    | 1.9725     | 1.9725     | 1.9725     |   0.0 | 10.35
Neigh   | 16.612     | 16.612     | 16.612     |   0.0 | 87.20
Comm    | 0.091458   | 0.091458   | 0.091458   |   0.0 |  0.48
Output  | 0.00022197 | 0.00022197 | 0.00022197 |   0.0 |  0.00
Modify  | 0.31561    | 0.31561    | 0.31561    |   0.0 |  1.66
Other   |            | 0.05895    |            |       |  0.31

Nlocal:    19652 ave 19652 max 19652 min
Histogram: 1 0 0 0 0 0 0 0 0 0
Nghost:    536 ave 536 max 536 min
Histogram: 1 0 0 0 0 0 0 0 0 0
Neighs:    111064 ave 111064 max 111064 min
Histogram: 1 0 0 0 0 0 0 0 0 0

Total # of neighbors = 111064
Ave neighs/atom = 5.65154
Neighbor list builds = 172
Dangerous builds not checked
Total wall time: 1:20:41
