LAMMPS (12 Dec 2018)
Lattice spacing in x,y,z = 4 4 4
Created orthogonal box = (0 0 0) to (68 68 68)
  1 by 1 by 1 MPI processor grid
Created 19652 atoms
  Time spent = 0.00454998 secs
Setting atom values ...
  417 settings made for type/fraction
Neighbor list info ...
  update every 1 steps, delay 0 steps, check no
  max neighbors/atom: 2000, page size: 100000
  master list distance cutoff = 8.5
  ghost atom cutoff = 8.5
  binsize = 4.25, bins = 16 16 16
  1 neighbor lists, perpetual/occasional/extra = 1 0 0
  (1) pair eam/alloy, perpetual
      attributes: half, newton on
      pair build: half/bin/atomonly/newton
      stencil: half/bin/3d/newton
      bin: standard
Setting up Verlet run ...
  Unit style    : metal
  Current step  : 0
  Time step     : 0.001
Per MPI rank memory allocation (min/avg/max) = 18.19 | 18.19 | 18.19 Mbytes
Step Temp Press TotEng PotEng Enthalpy Volume 
       0          300     281057.6   -21441.367   -22203.394     33717.04       314432 
     667    163.29144    278709.45   -21441.147   -21855.922    33256.428       314432 
    1000     164.9864    278699.14    -21441.15   -21860.231    33254.402       314432 
Loop time of 165.246 on 1 procs for 1000 steps with 19652 atoms

Performance: 0.523 ns/day, 45.902 hours/ns, 6.052 timesteps/s
99.8% CPU use with 1 MPI tasks x no OpenMP threads

MPI task timing breakdown:
Section |  min time  |  avg time  |  max time  |%varavg| %total
---------------------------------------------------------------
Pair    | 100.57     | 100.57     | 100.57     |   0.0 | 60.86
Neigh   | 61.972     | 61.972     | 61.972     |   0.0 | 37.50
Comm    | 1.5979     | 1.5979     | 1.5979     |   0.0 |  0.97
Output  | 0.050103   | 0.050103   | 0.050103   |   0.0 |  0.03
Modify  | 0.61454    | 0.61454    | 0.61454    |   0.0 |  0.37
Other   |            | 0.4414     |            |       |  0.27

Nlocal:    19652 ave 19652 max 19652 min
Histogram: 1 0 0 0 0 0 0 0 0 0
Nghost:    20102 ave 20102 max 20102 min
Histogram: 1 0 0 0 0 0 0 0 0 0
Neighs:    1.57168e+06 ave 1.57168e+06 max 1.57168e+06 min
Histogram: 1 0 0 0 0 0 0 0 0 0

Total # of neighbors = 1571679
Ave neighs/atom = 79.9755
Neighbor list builds = 1000
Dangerous builds not checked
Setting up Verlet run ...
  Unit style    : metal
  Current step  : 1000
  Time step     : 0.001
Per MPI rank memory allocation (min/avg/max) = 18.19 | 18.19 | 18.19 Mbytes
Step Temp Press TotEng PotEng Enthalpy Volume 
    1000     164.9864    278699.14    -21441.15   -21860.231    33254.402       314432 
    1334     159.2625    28410.722   -29886.069    -30290.61    -22333.82    425896.83 
    2000    263.86963    307.27203    -29503.95   -30174.203   -29415.578    460786.85 
Loop time of 134.535 on 1 procs for 1000 steps with 19652 atoms

Performance: 0.642 ns/day, 37.371 hours/ns, 7.433 timesteps/s
99.9% CPU use with 1 MPI tasks x no OpenMP threads

MPI task timing breakdown:
Section |  min time  |  avg time  |  max time  |%varavg| %total
---------------------------------------------------------------
Pair    | 75.479     | 75.479     | 75.479     |   0.0 | 56.10
Neigh   | 55.472     | 55.472     | 55.472     |   0.0 | 41.23
Comm    | 1.3738     | 1.3738     | 1.3738     |   0.0 |  1.02
Output  | 0.049009   | 0.049009   | 0.049009   |   0.0 |  0.04
Modify  | 1.7459     | 1.7459     | 1.7459     |   0.0 |  1.30
Other   |            | 0.4157     |            |       |  0.31

Nlocal:    19652 ave 19652 max 19652 min
Histogram: 1 0 0 0 0 0 0 0 0 0
Nghost:    14808 ave 14808 max 14808 min
Histogram: 1 0 0 0 0 0 0 0 0 0
Neighs:    1.07751e+06 ave 1.07751e+06 max 1.07751e+06 min
Histogram: 1 0 0 0 0 0 0 0 0 0

Total # of neighbors = 1077511
Ave neighs/atom = 54.8296
Neighbor list builds = 1000
Dangerous builds not checked
Setting up Verlet run ...
  Unit style    : metal
  Current step  : 2000
  Time step     : 0.001
Per MPI rank memory allocation (min/avg/max) = 18.2 | 18.2 | 18.2 Mbytes
Step Temp Press TotEng PotEng Enthalpy Volume 
    2000    263.86963    307.27203    -29503.95   -30174.203   -29415.578    460786.85 
    2001    263.62433    310.08359   -29503.942   -30173.571   -29414.761    460786.97 
    2668    367.23653   -223.41148   -28927.689   -29860.503    -28992.68     466080.8 
    3335    567.47507    309.81126   -27803.687   -29245.125   -27711.854       474912 
    4002    786.49178    115.04904    -26411.22    -28408.98   -26376.141    488498.68 
    4669    992.01853   -29.922636   -25049.003    -27568.82   -25058.388    502547.45 
    5336    1160.1774    209.45127   -23585.213   -26532.169   -23517.155    520605.14 
    6003    1355.6609    123.17301   -21828.349   -25271.852   -21786.262    547454.75 
    6670    1556.1885   -51.772199   -20715.803   -24668.664   -20733.969     562154.2 
    7337    1734.3716    27.964898   -19641.538       -24047   -19631.462     577306.1 
    8004    1920.5345   -105.16841   -18604.103   -23482.436   -18643.032    593055.24 
    8671    2094.8142     380.9765   -17572.501    -22893.52   -17427.889    608158.47 
    9338    2248.5465    467.49489   -16526.752   -22238.265   -16343.267    628830.03 
   10000    2442.9593    391.42883   -15421.985   -21627.324   -15262.961    650907.49 
Loop time of 913.621 on 1 procs for 8000 steps with 19652 atoms

Performance: 0.757 ns/day, 31.723 hours/ns, 8.756 timesteps/s
99.6% CPU use with 1 MPI tasks x no OpenMP threads

MPI task timing breakdown:
Section |  min time  |  avg time  |  max time  |%varavg| %total
---------------------------------------------------------------
Pair    | 500.39     | 500.39     | 500.39     |   0.0 | 54.77
Neigh   | 384.9      | 384.9      | 384.9      |   0.0 | 42.13
Comm    | 10.648     | 10.648     | 10.648     |   0.0 |  1.17
Output  | 0.57736    | 0.57736    | 0.57736    |   0.0 |  0.06
Modify  | 13.879     | 13.879     | 13.879     |   0.0 |  1.52
Other   |            | 3.229      |            |       |  0.35

Nlocal:    19652 ave 19652 max 19652 min
Histogram: 1 0 0 0 0 0 0 0 0 0
Nghost:    13949 ave 13949 max 13949 min
Histogram: 1 0 0 0 0 0 0 0 0 0
Neighs:    754231 ave 754231 max 754231 min
Histogram: 1 0 0 0 0 0 0 0 0 0

Total # of neighbors = 754231
Ave neighs/atom = 38.3794
Neighbor list builds = 8000
Dangerous builds not checked
Setting up Verlet run ...
  Unit style    : metal
  Current step  : 10000
  Time step     : 0.001
Per MPI rank memory allocation (min/avg/max) = 18.22 | 18.22 | 18.22 Mbytes
Step Temp Press TotEng PotEng Enthalpy Volume 
   10000    2442.9593    391.42883   -15421.985   -21627.324   -15262.961    650907.49 
   10005    2443.8051    390.70388   -15421.943   -21629.431   -15263.213    650908.42 
   10672    2475.8415   -189.89621    -15171.92   -21460.783   -15250.107    659677.79 
   11339     2447.665   -49.976468   -15252.169   -21469.461   -15272.735    659344.81 
   12006    2428.6189   -414.90692   -15232.689   -21401.603   -15404.166    662161.56 
   12673    2444.5585    298.51062   -15265.259   -21474.661   -15142.986    656271.74 
   13340    2410.0559   -112.60537   -15446.637   -21568.398   -15492.659    654820.76 
   14007    2419.8345   -434.03534   -15241.732   -21388.332   -15421.005    661759.09 
   14674    2445.4304    426.36223   -15396.258   -21607.874   -15222.777    651902.56 
   15341    2462.4246   -359.29459   -15151.309   -21406.092    -15299.86    662425.82 
   16008    2444.3195   -121.19699   -15281.621   -21490.415   -15331.315    656925.12 
   16675    2454.7458    224.37138   -15263.999   -21499.277   -15172.247    655174.93 
   17342    2449.0099   -104.74851   -15274.386   -21495.094   -15317.435    658463.69 
   18009    2478.9031   -7.5540858   -15141.829   -21438.469   -15144.942    660286.01 
   18676    2424.0655    -18.92556   -15422.777   -21580.124   -15430.495    653424.52 
   19343    2456.0874   -282.45242    -15263.18   -21501.866   -15379.394    659205.94 
   20010    2458.2466     94.28468   -15216.775   -21460.945   -15178.026    658467.09 
   20677     2443.989    172.87526   -15339.406   -21547.361   -15268.816    654215.89 
   21344    2453.1891   -23.266197   -15252.213   -21483.537   -15261.763    657682.87 
   22011    2455.0214   -639.86638   -15261.423   -21497.401   -15525.162    660383.68 
   22678    2452.5082    472.27195   -15279.444   -21509.039   -15086.246    655421.84 
   23345    2457.4592    57.880127   -15299.959   -21542.129   -15276.263    655927.75 
   24012    2411.0414   -516.26997    -15249.17   -21373.435   -15462.674    662581.79 
   24679    2403.9341    112.99111   -15437.267   -21543.479   -15391.209    653091.07 
   25346    2460.2317   -182.78773   -15235.924   -21485.137   -15310.929    657434.19 
   26013    2453.7568   -925.11017   -15168.744    -21401.51   -15552.135     663986.3 
   26680     2424.884    -63.51475   -15395.685   -21555.111   -15421.626    654364.06 
   27347    2432.5797   -127.13112   -15304.627   -21483.601   -15356.764    657064.79 
   28014    2472.7557    145.95206    -15160.47   -21441.495    -15100.54    657883.94 
   28681    2421.5304    333.75273   -15323.273   -21474.181   -15186.628    655961.54 
   29348    2444.1316    174.95041   -15154.232   -21362.549    -15081.95     661953.5 
   30015    2448.3669    311.90177   -15251.856   -21470.931   -15124.195    655771.62 
   30682    2465.3675   -278.60161   -15220.335   -21482.593   -15334.736    657891.18 
   31349    2429.8969   -55.112835   -15309.388   -21481.547   -15332.051    658825.44 
   32016    2474.8745    83.457131   -15247.173   -21533.579   -15213.054    654993.75 
   32683    2469.8285   -647.98154   -15174.082   -21447.672   -15441.699    661699.98 
   33350      2447.79    20.898492   -15322.925   -21540.535   -15314.369     655910.4 
   34017    2468.2268     -550.623   -15144.572   -21414.092   -15372.563    663398.98 
   34684    2422.8567   -116.69837   -15151.116   -21305.393   -15199.535    664753.69 
   35351    2441.2192    97.466909   -15343.662   -21544.581   -15303.868    654137.66 
   36018    2446.1278    510.11289   -15346.105   -21559.493   -15138.237    652876.75 
   36685    2467.6753   -331.90375   -15166.774   -21434.894   -15303.811    661511.89 
   37352    2438.8065    71.294604   -15337.943   -21532.734   -15308.767    655653.76 
   38019    2463.6991    216.41317   -15172.033   -21430.053    -15083.17    657883.35 
   38686    2465.3994     59.50993   -15187.824   -21450.163     -15163.4     657552.1 
   39353    2444.3913    5.5929099   -15251.958   -21460.935   -15249.662     657813.4 
   40000    2449.4391    308.05739    -15275.17   -21496.969    -15148.96     656407.5 
Loop time of 3140 on 1 procs for 30000 steps with 19652 atoms

Performance: 0.825 ns/day, 29.074 hours/ns, 9.554 timesteps/s
99.8% CPU use with 1 MPI tasks x no OpenMP threads

MPI task timing breakdown:
Section |  min time  |  avg time  |  max time  |%varavg| %total
---------------------------------------------------------------
Pair    | 1648.5     | 1648.5     | 1648.5     |   0.0 | 52.50
Neigh   | 1382.2     | 1382.2     | 1382.2     |   0.0 | 44.02
Comm    | 40.854     | 40.854     | 40.854     |   0.0 |  1.30
Output  | 2.2167     | 2.2167     | 2.2167     |   0.0 |  0.07
Modify  | 53.734     | 53.734     | 53.734     |   0.0 |  1.71
Other   |            | 12.55      |            |       |  0.40

Nlocal:    19652 ave 19652 max 19652 min
Histogram: 1 0 0 0 0 0 0 0 0 0
Nghost:    14095 ave 14095 max 14095 min
Histogram: 1 0 0 0 0 0 0 0 0 0
Neighs:    747783 ave 747783 max 747783 min
Histogram: 1 0 0 0 0 0 0 0 0 0

Total # of neighbors = 747783
Ave neighs/atom = 38.0512
Neighbor list builds = 30000
Dangerous builds not checked
Setting up Verlet run ...
  Unit style    : metal
  Current step  : 40000
  Time step     : 0.001
Per MPI rank memory allocation (min/avg/max) = 18.22 | 18.22 | 18.22 Mbytes
Step Temp Press TotEng PotEng Enthalpy Volume 
   40000    2449.4391    308.05739    -15275.17   -21496.969    -15148.96     656407.5 
   40020    2445.6004    252.37144   -15275.034   -21487.082   -15171.636    656419.07 
   40495    2413.6904    153.67014   -15434.967   -21565.961   -15372.259    653805.68 
Loop time of 53.1349 on 1 procs for 495 steps with 19652 atoms

Performance: 0.805 ns/day, 29.818 hours/ns, 9.316 timesteps/s
99.9% CPU use with 1 MPI tasks x no OpenMP threads

MPI task timing breakdown:
Section |  min time  |  avg time  |  max time  |%varavg| %total
---------------------------------------------------------------
Pair    | 28.462     | 28.462     | 28.462     |   0.0 | 53.57
Neigh   | 22.706     | 22.706     | 22.706     |   0.0 | 42.73
Comm    | 0.70799    | 0.70799    | 0.70799    |   0.0 |  1.33
Output  | 0.050786   | 0.050786   | 0.050786   |   0.0 |  0.10
Modify  | 0.96245    | 0.96245    | 0.96245    |   0.0 |  1.81
Other   |            | 0.2451     |            |       |  0.46

Nlocal:    19652 ave 19652 max 19652 min
Histogram: 1 0 0 0 0 0 0 0 0 0
Nghost:    14061 ave 14061 max 14061 min
Histogram: 1 0 0 0 0 0 0 0 0 0
Neighs:    750574 ave 750574 max 750574 min
Histogram: 1 0 0 0 0 0 0 0 0 0

Total # of neighbors = 750574
Ave neighs/atom = 38.1933
Neighbor list builds = 495
Dangerous builds not checked
Setting up Verlet run ...
  Unit style    : metal
  Current step  : 40495
  Time step     : 0.001
Per MPI rank memory allocation (min/avg/max) = 18.22 | 18.22 | 18.22 Mbytes
Step Temp Press TotEng PotEng Enthalpy Volume 
   40495    2413.6904    153.67014   -15434.967   -21565.961   -15372.259    653805.68 
   40667    2401.2199   -283.40731   -15529.542    -21628.86   -15645.141    653512.51 
Loop time of 17.8131 on 1 procs for 172 steps with 19652 atoms

Performance: 0.834 ns/day, 28.768 hours/ns, 9.656 timesteps/s
99.9% CPU use with 1 MPI tasks x no OpenMP threads

MPI task timing breakdown:
Section |  min time  |  avg time  |  max time  |%varavg| %total
---------------------------------------------------------------
Pair    | 9.5552     | 9.5552     | 9.5552     |   0.0 | 53.64
Neigh   | 7.6204     | 7.6204     | 7.6204     |   0.0 | 42.78
Comm    | 0.23372    | 0.23372    | 0.23372    |   0.0 |  1.31
Output  | 0.00020599 | 0.00020599 | 0.00020599 |   0.0 |  0.00
Modify  | 0.32296    | 0.32296    | 0.32296    |   0.0 |  1.81
Other   |            | 0.0807     |            |       |  0.45

Nlocal:    19652 ave 19652 max 19652 min
Histogram: 1 0 0 0 0 0 0 0 0 0
Nghost:    14045 ave 14045 max 14045 min
Histogram: 1 0 0 0 0 0 0 0 0 0
Neighs:    751010 ave 751010 max 751010 min
Histogram: 1 0 0 0 0 0 0 0 0 0

Total # of neighbors = 751010
Ave neighs/atom = 38.2154
Neighbor list builds = 172
Dangerous builds not checked
Setting up Verlet run ...
  Unit style    : metal
  Current step  : 40667
  Time step     : 0.001
Per MPI rank memory allocation (min/avg/max) = 18.22 | 18.22 | 18.22 Mbytes
Step Temp Press TotEng PotEng Enthalpy Volume 
   40667    2401.2199   -283.40731   -15529.542    -21628.86   -15645.141    653512.51 
   40687    2404.2693    -360.9355   -15529.999   -21637.062   -15677.218     653499.4 
   41162    2348.4954     259.5299   -15785.893   -21751.285   -15681.212    646233.49 
Loop time of 52.4319 on 1 procs for 495 steps with 19652 atoms

Performance: 0.816 ns/day, 29.423 hours/ns, 9.441 timesteps/s
99.9% CPU use with 1 MPI tasks x no OpenMP threads

MPI task timing breakdown:
Section |  min time  |  avg time  |  max time  |%varavg| %total
---------------------------------------------------------------
Pair    | 28.198     | 28.198     | 28.198     |   0.0 | 53.78
Neigh   | 22.284     | 22.284     | 22.284     |   0.0 | 42.50
Comm    | 0.7026     | 0.7026     | 0.7026     |   0.0 |  1.34
Output  | 0.051266   | 0.051266   | 0.051266   |   0.0 |  0.10
Modify  | 0.95886    | 0.95886    | 0.95886    |   0.0 |  1.83
Other   |            | 0.237      |            |       |  0.45

Nlocal:    19652 ave 19652 max 19652 min
Histogram: 1 0 0 0 0 0 0 0 0 0
Nghost:    14013 ave 14013 max 14013 min
Histogram: 1 0 0 0 0 0 0 0 0 0
Neighs:    759459 ave 759459 max 759459 min
Histogram: 1 0 0 0 0 0 0 0 0 0

Total # of neighbors = 759459
Ave neighs/atom = 38.6454
Neighbor list builds = 495
Dangerous builds not checked
Setting up Verlet run ...
  Unit style    : metal
  Current step  : 41162
  Time step     : 0.001
Per MPI rank memory allocation (min/avg/max) = 18.22 | 18.22 | 18.22 Mbytes
Step Temp Press TotEng PotEng Enthalpy Volume 
   41162    2348.4954     259.5299   -15785.893   -21751.285   -15681.212    646233.49 
   41334    2338.8608   -346.76477   -15874.471   -21815.391   -16014.291    646018.46 
Loop time of 18.3754 on 1 procs for 172 steps with 19652 atoms

Performance: 0.809 ns/day, 29.676 hours/ns, 9.360 timesteps/s
99.9% CPU use with 1 MPI tasks x no OpenMP threads

MPI task timing breakdown:
Section |  min time  |  avg time  |  max time  |%varavg| %total
---------------------------------------------------------------
Pair    | 9.9585     | 9.9585     | 9.9585     |   0.0 | 54.19
Neigh   | 7.7427     | 7.7427     | 7.7427     |   0.0 | 42.14
Comm    | 0.24547    | 0.24547    | 0.24547    |   0.0 |  1.34
Output  | 0.00021791 | 0.00021791 | 0.00021791 |   0.0 |  0.00
Modify  | 0.34017    | 0.34017    | 0.34017    |   0.0 |  1.85
Other   |            | 0.08832    |            |       |  0.48

Nlocal:    19652 ave 19652 max 19652 min
Histogram: 1 0 0 0 0 0 0 0 0 0
Nghost:    13983 ave 13983 max 13983 min
Histogram: 1 0 0 0 0 0 0 0 0 0
Neighs:    759529 ave 759529 max 759529 min
Histogram: 1 0 0 0 0 0 0 0 0 0

Total # of neighbors = 759529
Ave neighs/atom = 38.6489
Neighbor list builds = 172
Dangerous builds not checked
Setting up Verlet run ...
  Unit style    : metal
  Current step  : 41334
  Time step     : 0.001
Per MPI rank memory allocation (min/avg/max) = 18.22 | 18.22 | 18.22 Mbytes
Step Temp Press TotEng PotEng Enthalpy Volume 
   41334    2338.8608   -346.76477   -15874.471   -21815.391   -16014.291    646018.46 
   41354    2332.4268   -201.38578   -15873.105   -21797.681   -15954.305    646007.08 
   41829    2298.5599    99.466595   -16079.901   -21918.453     -16040.1     641107.4 
Loop time of 53.6606 on 1 procs for 495 steps with 19652 atoms

Performance: 0.797 ns/day, 30.113 hours/ns, 9.225 timesteps/s
99.9% CPU use with 1 MPI tasks x no OpenMP threads

MPI task timing breakdown:
Section |  min time  |  avg time  |  max time  |%varavg| %total
---------------------------------------------------------------
Pair    | 28.949     | 28.949     | 28.949     |   0.0 | 53.95
Neigh   | 22.741     | 22.741     | 22.741     |   0.0 | 42.38
Comm    | 0.71127    | 0.71127    | 0.71127    |   0.0 |  1.33
Output  | 0.051423   | 0.051423   | 0.051423   |   0.0 |  0.10
Modify  | 0.96516    | 0.96516    | 0.96516    |   0.0 |  1.80
Other   |            | 0.2433     |            |       |  0.45

Nlocal:    19652 ave 19652 max 19652 min
Histogram: 1 0 0 0 0 0 0 0 0 0
Nghost:    14053 ave 14053 max 14053 min
Histogram: 1 0 0 0 0 0 0 0 0 0
Neighs:    765213 ave 765213 max 765213 min
Histogram: 1 0 0 0 0 0 0 0 0 0

Total # of neighbors = 765213
Ave neighs/atom = 38.9382
Neighbor list builds = 495
Dangerous builds not checked
Setting up Verlet run ...
  Unit style    : metal
  Current step  : 41829
  Time step     : 0.001
Per MPI rank memory allocation (min/avg/max) = 18.22 | 18.22 | 18.22 Mbytes
Step Temp Press TotEng PotEng Enthalpy Volume 
   41829    2298.5599    99.466595   -16079.901   -21918.453     -16040.1     641107.4 
   42001    2300.0465   -696.22711   -16156.424   -21998.751   -16434.907    640854.18 
Loop time of 17.933 on 1 procs for 172 steps with 19652 atoms

Performance: 0.829 ns/day, 28.962 hours/ns, 9.591 timesteps/s
99.9% CPU use with 1 MPI tasks x no OpenMP threads

MPI task timing breakdown:
Section |  min time  |  avg time  |  max time  |%varavg| %total
---------------------------------------------------------------
Pair    | 9.675      | 9.675      | 9.675      |   0.0 | 53.95
Neigh   | 7.6228     | 7.6228     | 7.6228     |   0.0 | 42.51
Comm    | 0.2356     | 0.2356     | 0.2356     |   0.0 |  1.31
Output  | 0.00021601 | 0.00021601 | 0.00021601 |   0.0 |  0.00
Modify  | 0.32136    | 0.32136    | 0.32136    |   0.0 |  1.79
Other   |            | 0.07813    |            |       |  0.44

Nlocal:    19652 ave 19652 max 19652 min
Histogram: 1 0 0 0 0 0 0 0 0 0
Nghost:    14070 ave 14070 max 14070 min
Histogram: 1 0 0 0 0 0 0 0 0 0
Neighs:    765525 ave 765525 max 765525 min
Histogram: 1 0 0 0 0 0 0 0 0 0

Total # of neighbors = 765525
Ave neighs/atom = 38.9541
Neighbor list builds = 172
Dangerous builds not checked
Setting up Verlet run ...
  Unit style    : metal
  Current step  : 42001
  Time step     : 0.001
Per MPI rank memory allocation (min/avg/max) = 18.22 | 18.22 | 18.22 Mbytes
Step Temp Press TotEng PotEng Enthalpy Volume 
   42001    2300.0465   -696.22711   -16156.424   -21998.751   -16434.907    640854.18 
   42021    2292.1029   -589.39734   -16156.335   -21978.485   -16392.078    640827.27 
   42496    2261.4304    99.076484   -16449.296   -22193.535   -16410.252    631386.09 
Loop time of 53.1485 on 1 procs for 495 steps with 19652 atoms

Performance: 0.805 ns/day, 29.825 hours/ns, 9.314 timesteps/s
99.9% CPU use with 1 MPI tasks x no OpenMP threads

MPI task timing breakdown:
Section |  min time  |  avg time  |  max time  |%varavg| %total
---------------------------------------------------------------
Pair    | 28.663     | 28.663     | 28.663     |   0.0 | 53.93
Neigh   | 22.572     | 22.572     | 22.572     |   0.0 | 42.47
Comm    | 0.69139    | 0.69139    | 0.69139    |   0.0 |  1.30
Output  | 0.050268   | 0.050268   | 0.050268   |   0.0 |  0.09
Modify  | 0.94008    | 0.94008    | 0.94008    |   0.0 |  1.77
Other   |            | 0.2316     |            |       |  0.44

Nlocal:    19652 ave 19652 max 19652 min
Histogram: 1 0 0 0 0 0 0 0 0 0
Nghost:    14065 ave 14065 max 14065 min
Histogram: 1 0 0 0 0 0 0 0 0 0
Neighs:    776595 ave 776595 max 776595 min
Histogram: 1 0 0 0 0 0 0 0 0 0

Total # of neighbors = 776595
Ave neighs/atom = 39.5174
Neighbor list builds = 495
Dangerous builds not checked
Setting up Verlet run ...
  Unit style    : metal
  Current step  : 42496
  Time step     : 0.001
Per MPI rank memory allocation (min/avg/max) = 18.22 | 18.22 | 18.22 Mbytes
Step Temp Press TotEng PotEng Enthalpy Volume 
   42496    2261.4304    99.076484   -16449.296   -22193.535   -16410.252    631386.09 
   42668    2230.9268   -48.142761    -16519.53   -22186.287   -16538.514    631798.39 
Loop time of 18.2405 on 1 procs for 172 steps with 19652 atoms

Performance: 0.815 ns/day, 29.458 hours/ns, 9.430 timesteps/s
99.7% CPU use with 1 MPI tasks x no OpenMP threads

MPI task timing breakdown:
Section |  min time  |  avg time  |  max time  |%varavg| %total
---------------------------------------------------------------
Pair    | 9.9245     | 9.9245     | 9.9245     |   0.0 | 54.41
Neigh   | 7.6653     | 7.6653     | 7.6653     |   0.0 | 42.02
Comm    | 0.23775    | 0.23775    | 0.23775    |   0.0 |  1.30
Output  | 0.00021696 | 0.00021696 | 0.00021696 |   0.0 |  0.00
Modify  | 0.33141    | 0.33141    | 0.33141    |   0.0 |  1.82
Other   |            | 0.0814     |            |       |  0.45

Nlocal:    19652 ave 19652 max 19652 min
Histogram: 1 0 0 0 0 0 0 0 0 0
Nghost:    14028 ave 14028 max 14028 min
Histogram: 1 0 0 0 0 0 0 0 0 0
Neighs:    777172 ave 777172 max 777172 min
Histogram: 1 0 0 0 0 0 0 0 0 0

Total # of neighbors = 777172
Ave neighs/atom = 39.5467
Neighbor list builds = 172
Dangerous builds not checked
Setting up Verlet run ...
  Unit style    : metal
  Current step  : 42668
  Time step     : 0.001
Per MPI rank memory allocation (min/avg/max) = 18.22 | 18.22 | 18.22 Mbytes
Step Temp Press TotEng PotEng Enthalpy Volume 
   42668    2230.9268   -48.142761    -16519.53   -22186.287   -16538.514    631798.39 
   42688    2244.6734   -192.75958   -16518.154   -22219.829   -16594.166    631794.57 
   43163     2220.686   -90.792618   -16727.738   -22368.483   -16763.286    627295.74 
Loop time of 52.9059 on 1 procs for 495 steps with 19652 atoms

Performance: 0.808 ns/day, 29.689 hours/ns, 9.356 timesteps/s
99.9% CPU use with 1 MPI tasks x no OpenMP threads

MPI task timing breakdown:
Section |  min time  |  avg time  |  max time  |%varavg| %total
---------------------------------------------------------------
Pair    | 28.72      | 28.72      | 28.72      |   0.0 | 54.28
Neigh   | 22.254     | 22.254     | 22.254     |   0.0 | 42.06
Comm    | 0.69584    | 0.69584    | 0.69584    |   0.0 |  1.32
Output  | 0.05067    | 0.05067    | 0.05067    |   0.0 |  0.10
Modify  | 0.95405    | 0.95405    | 0.95405    |   0.0 |  1.80
Other   |            | 0.232      |            |       |  0.44

Nlocal:    19652 ave 19652 max 19652 min
Histogram: 1 0 0 0 0 0 0 0 0 0
Nghost:    14129 ave 14129 max 14129 min
Histogram: 1 0 0 0 0 0 0 0 0 0
Neighs:    781415 ave 781415 max 781415 min
Histogram: 1 0 0 0 0 0 0 0 0 0

Total # of neighbors = 781415
Ave neighs/atom = 39.7626
Neighbor list builds = 495
Dangerous builds not checked
Setting up Verlet run ...
  Unit style    : metal
  Current step  : 43163
  Time step     : 0.001
Per MPI rank memory allocation (min/avg/max) = 18.22 | 18.22 | 18.22 Mbytes
Step Temp Press TotEng PotEng Enthalpy Volume 
   43163     2220.686   -90.792618   -16727.738   -22368.483   -16763.286    627295.74 
   43335    2186.9483    -18.39776   -16785.092    -22340.14   -16792.296    627330.27 
Loop time of 18.1102 on 1 procs for 172 steps with 19652 atoms

Performance: 0.821 ns/day, 29.248 hours/ns, 9.497 timesteps/s
99.9% CPU use with 1 MPI tasks x no OpenMP threads

MPI task timing breakdown:
Section |  min time  |  avg time  |  max time  |%varavg| %total
---------------------------------------------------------------
Pair    | 9.8448     | 9.8448     | 9.8448     |   0.0 | 54.36
Neigh   | 7.6307     | 7.6307     | 7.6307     |   0.0 | 42.13
Comm    | 0.23407    | 0.23407    | 0.23407    |   0.0 |  1.29
Output  | 0.00020504 | 0.00020504 | 0.00020504 |   0.0 |  0.00
Modify  | 0.32278    | 0.32278    | 0.32278    |   0.0 |  1.78
Other   |            | 0.07768    |            |       |  0.43

Nlocal:    19652 ave 19652 max 19652 min
Histogram: 1 0 0 0 0 0 0 0 0 0
Nghost:    14123 ave 14123 max 14123 min
Histogram: 1 0 0 0 0 0 0 0 0 0
Neighs:    781773 ave 781773 max 781773 min
Histogram: 1 0 0 0 0 0 0 0 0 0

Total # of neighbors = 781773
Ave neighs/atom = 39.7808
Neighbor list builds = 172
Dangerous builds not checked
Setting up Verlet run ...
  Unit style    : metal
  Current step  : 43335
  Time step     : 0.001
Per MPI rank memory allocation (min/avg/max) = 18.22 | 18.22 | 18.22 Mbytes
Step Temp Press TotEng PotEng Enthalpy Volume 
   43335    2186.9483    -18.39776   -16785.092    -22340.14   -16792.296    627330.27 
   43355    2192.4003   -110.18209   -16783.907   -22352.804   -16827.049    627328.86 
   43830    2165.6412     75.86402    -17057.65   -22558.576   -17028.299    619878.84 
Loop time of 51.6005 on 1 procs for 495 steps with 19652 atoms

Performance: 0.829 ns/day, 28.957 hours/ns, 9.593 timesteps/s
99.9% CPU use with 1 MPI tasks x no OpenMP threads

MPI task timing breakdown:
Section |  min time  |  avg time  |  max time  |%varavg| %total
---------------------------------------------------------------
Pair    | 27.626     | 27.626     | 27.626     |   0.0 | 53.54
Neigh   | 22.196     | 22.196     | 22.196     |   0.0 | 43.01
Comm    | 0.65309    | 0.65309    | 0.65309    |   0.0 |  1.27
Output  | 0.04995    | 0.04995    | 0.04995    |   0.0 |  0.10
Modify  | 0.87289    | 0.87289    | 0.87289    |   0.0 |  1.69
Other   |            | 0.2025     |            |       |  0.39

Nlocal:    19652 ave 19652 max 19652 min
Histogram: 1 0 0 0 0 0 0 0 0 0
Nghost:    14223 ave 14223 max 14223 min
Histogram: 1 0 0 0 0 0 0 0 0 0
Neighs:    791145 ave 791145 max 791145 min
Histogram: 1 0 0 0 0 0 0 0 0 0

Total # of neighbors = 791145
Ave neighs/atom = 40.2577
Neighbor list builds = 495
Dangerous builds not checked
Setting up Verlet run ...
  Unit style    : metal
  Current step  : 43830
  Time step     : 0.001
Per MPI rank memory allocation (min/avg/max) = 18.22 | 18.22 | 18.22 Mbytes
Step Temp Press TotEng PotEng Enthalpy Volume 
   43830    2165.6412     75.86402    -17057.65   -22558.576   -17028.299    619878.84 
   44002    2139.3681   -227.77133   -17137.284   -22571.474   -17225.425    619998.62 
Loop time of 17.2684 on 1 procs for 172 steps with 19652 atoms

Performance: 0.861 ns/day, 27.888 hours/ns, 9.960 timesteps/s
99.9% CPU use with 1 MPI tasks x no OpenMP threads

MPI task timing breakdown:
Section |  min time  |  avg time  |  max time  |%varavg| %total
---------------------------------------------------------------
Pair    | 9.2282     | 9.2282     | 9.2282     |   0.0 | 53.44
Neigh   | 7.4688     | 7.4688     | 7.4688     |   0.0 | 43.25
Comm    | 0.21678    | 0.21678    | 0.21678    |   0.0 |  1.26
Output  | 0.00018001 | 0.00018001 | 0.00018001 |   0.0 |  0.00
Modify  | 0.28886    | 0.28886    | 0.28886    |   0.0 |  1.67
Other   |            | 0.06559    |            |       |  0.38

Nlocal:    19652 ave 19652 max 19652 min
Histogram: 1 0 0 0 0 0 0 0 0 0
Nghost:    14276 ave 14276 max 14276 min
Histogram: 1 0 0 0 0 0 0 0 0 0
Neighs:    791070 ave 791070 max 791070 min
Histogram: 1 0 0 0 0 0 0 0 0 0

Total # of neighbors = 791070
Ave neighs/atom = 40.2539
Neighbor list builds = 172
Dangerous builds not checked
Setting up Verlet run ...
  Unit style    : metal
  Current step  : 44002
  Time step     : 0.001
Per MPI rank memory allocation (min/avg/max) = 18.22 | 18.22 | 18.22 Mbytes
Step Temp Press TotEng PotEng Enthalpy Volume 
   44002    2139.3681   -227.77133   -17137.284   -22571.474   -17225.425    619998.62 
   44022     2146.652   -276.55871   -17136.304   -22588.995   -17243.323    619989.54 
   44497    2104.9757    356.24986    -17363.68    -22710.51   -17227.106    614218.75 
Loop time of 50.7273 on 1 procs for 495 steps with 19652 atoms

Performance: 0.843 ns/day, 28.466 hours/ns, 9.758 timesteps/s
99.9% CPU use with 1 MPI tasks x no OpenMP threads

MPI task timing breakdown:
Section |  min time  |  avg time  |  max time  |%varavg| %total
---------------------------------------------------------------
Pair    | 27.003     | 27.003     | 27.003     |   0.0 | 53.23
Neigh   | 22.024     | 22.024     | 22.024     |   0.0 | 43.42
Comm    | 0.63176    | 0.63176    | 0.63176    |   0.0 |  1.25
Output  | 0.049005   | 0.049005   | 0.049005   |   0.0 |  0.10
Modify  | 0.83049    | 0.83049    | 0.83049    |   0.0 |  1.64
Other   |            | 0.1887     |            |       |  0.37

Nlocal:    19652 ave 19652 max 19652 min
Histogram: 1 0 0 0 0 0 0 0 0 0
Nghost:    14314 ave 14314 max 14314 min
Histogram: 1 0 0 0 0 0 0 0 0 0
Neighs:    798279 ave 798279 max 798279 min
Histogram: 1 0 0 0 0 0 0 0 0 0

Total # of neighbors = 798279
Ave neighs/atom = 40.6208
Neighbor list builds = 495
Dangerous builds not checked
Setting up Verlet run ...
  Unit style    : metal
  Current step  : 44497
  Time step     : 0.001
Per MPI rank memory allocation (min/avg/max) = 18.22 | 18.22 | 18.22 Mbytes
Step Temp Press TotEng PotEng Enthalpy Volume 
   44497    2104.9757    356.24986    -17363.68    -22710.51   -17227.106    614218.75 
   44669    2099.5476   -395.49404   -17427.579   -22760.621   -17579.236    614372.62 
Loop time of 17.3754 on 1 procs for 172 steps with 19652 atoms

Performance: 0.855 ns/day, 28.061 hours/ns, 9.899 timesteps/s
99.9% CPU use with 1 MPI tasks x no OpenMP threads

MPI task timing breakdown:
Section |  min time  |  avg time  |  max time  |%varavg| %total
---------------------------------------------------------------
Pair    | 9.3226     | 9.3226     | 9.3226     |   0.0 | 53.65
Neigh   | 7.4823     | 7.4823     | 7.4823     |   0.0 | 43.06
Comm    | 0.21518    | 0.21518    | 0.21518    |   0.0 |  1.24
Output  | 0.00019002 | 0.00019002 | 0.00019002 |   0.0 |  0.00
Modify  | 0.28979    | 0.28979    | 0.28979    |   0.0 |  1.67
Other   |            | 0.06531    |            |       |  0.38

Nlocal:    19652 ave 19652 max 19652 min
Histogram: 1 0 0 0 0 0 0 0 0 0
Nghost:    14336 ave 14336 max 14336 min
Histogram: 1 0 0 0 0 0 0 0 0 0
Neighs:    798685 ave 798685 max 798685 min
Histogram: 1 0 0 0 0 0 0 0 0 0

Total # of neighbors = 798685
Ave neighs/atom = 40.6414
Neighbor list builds = 172
Dangerous builds not checked
Setting up Verlet run ...
  Unit style    : metal
  Current step  : 44669
  Time step     : 0.001
Per MPI rank memory allocation (min/avg/max) = 18.22 | 18.22 | 18.22 Mbytes
Step Temp Press TotEng PotEng Enthalpy Volume 
   44669    2099.5476   -395.49404   -17427.579   -22760.621   -17579.236    614372.62 
   44689    2099.3735    -385.2394   -17427.681   -22760.281   -17575.401     614356.7 
   45164    2066.4864    277.29124   -17656.351   -22905.415   -17550.919     609183.1 
Loop time of 52.0406 on 1 procs for 495 steps with 19652 atoms

Performance: 0.822 ns/day, 29.203 hours/ns, 9.512 timesteps/s
99.7% CPU use with 1 MPI tasks x no OpenMP threads

MPI task timing breakdown:
Section |  min time  |  avg time  |  max time  |%varavg| %total
---------------------------------------------------------------
Pair    | 27.195     | 27.195     | 27.195     |   0.0 | 52.26
Neigh   | 23.102     | 23.102     | 23.102     |   0.0 | 44.39
Comm    | 0.6357     | 0.6357     | 0.6357     |   0.0 |  1.22
Output  | 0.049582   | 0.049582   | 0.049582   |   0.0 |  0.10
Modify  | 0.86498    | 0.86498    | 0.86498    |   0.0 |  1.66
Other   |            | 0.1929     |            |       |  0.37

Nlocal:    19652 ave 19652 max 19652 min
Histogram: 1 0 0 0 0 0 0 0 0 0
Nghost:    14287 ave 14287 max 14287 min
Histogram: 1 0 0 0 0 0 0 0 0 0
Neighs:    805115 ave 805115 max 805115 min
Histogram: 1 0 0 0 0 0 0 0 0 0

Total # of neighbors = 805115
Ave neighs/atom = 40.9686
Neighbor list builds = 495
Dangerous builds not checked
Setting up Verlet run ...
  Unit style    : metal
  Current step  : 45164
  Time step     : 0.001
Per MPI rank memory allocation (min/avg/max) = 18.22 | 18.22 | 18.22 Mbytes
Step Temp Press TotEng PotEng Enthalpy Volume 
   45164    2066.4864    277.29124   -17656.351   -22905.415   -17550.919     609183.1 
   45336    2034.8117   -213.77148   -17739.845   -22908.452   -17821.207     609789.9 
Loop time of 17.9446 on 1 procs for 172 steps with 19652 atoms

Performance: 0.828 ns/day, 28.980 hours/ns, 9.585 timesteps/s
99.9% CPU use with 1 MPI tasks x no OpenMP threads

MPI task timing breakdown:
Section |  min time  |  avg time  |  max time  |%varavg| %total
---------------------------------------------------------------
Pair    | 9.3696     | 9.3696     | 9.3696     |   0.0 | 52.21
Neigh   | 7.9984     | 7.9984     | 7.9984     |   0.0 | 44.57
Comm    | 0.21645    | 0.21645    | 0.21645    |   0.0 |  1.21
Output  | 0.00018406 | 0.00018406 | 0.00018406 |   0.0 |  0.00
Modify  | 0.29387    | 0.29387    | 0.29387    |   0.0 |  1.64
Other   |            | 0.06607    |            |       |  0.37

Nlocal:    19652 ave 19652 max 19652 min
Histogram: 1 0 0 0 0 0 0 0 0 0
Nghost:    14359 ave 14359 max 14359 min
Histogram: 1 0 0 0 0 0 0 0 0 0
Neighs:    804136 ave 804136 max 804136 min
Histogram: 1 0 0 0 0 0 0 0 0 0

Total # of neighbors = 804136
Ave neighs/atom = 40.9188
Neighbor list builds = 172
Dangerous builds not checked
Setting up Verlet run ...
  Unit style    : metal
  Current step  : 45336
  Time step     : 0.001
Per MPI rank memory allocation (min/avg/max) = 18.22 | 18.22 | 18.22 Mbytes
Step Temp Press TotEng PotEng Enthalpy Volume 
   45336    2034.8117   -213.77148   -17739.845   -22908.452   -17821.207     609789.9 
   45356    2036.9456   -200.65739   -17738.327   -22912.355   -17814.697    609782.35 
   45831    2017.9596   -82.229209   -17934.253   -23060.054   -17965.297    604865.39 
Loop time of 54.2638 on 1 procs for 495 steps with 19652 atoms

Performance: 0.788 ns/day, 30.451 hours/ns, 9.122 timesteps/s
99.8% CPU use with 1 MPI tasks x no OpenMP threads

MPI task timing breakdown:
Section |  min time  |  avg time  |  max time  |%varavg| %total
---------------------------------------------------------------
Pair    | 28.588     | 28.588     | 28.588     |   0.0 | 52.68
Neigh   | 23.84      | 23.84      | 23.84      |   0.0 | 43.93
Comm    | 0.66903    | 0.66903    | 0.66903    |   0.0 |  1.23
Output  | 0.04955    | 0.04955    | 0.04955    |   0.0 |  0.09
Modify  | 0.90433    | 0.90433    | 0.90433    |   0.0 |  1.67
Other   |            | 0.2126     |            |       |  0.39

Nlocal:    19652 ave 19652 max 19652 min
Histogram: 1 0 0 0 0 0 0 0 0 0
Nghost:    14386 ave 14386 max 14386 min
Histogram: 1 0 0 0 0 0 0 0 0 0
Neighs:    810629 ave 810629 max 810629 min
Histogram: 1 0 0 0 0 0 0 0 0 0

Total # of neighbors = 810629
Ave neighs/atom = 41.2492
Neighbor list builds = 495
Dangerous builds not checked
Setting up Verlet run ...
  Unit style    : metal
  Current step  : 45831
  Time step     : 0.001
Per MPI rank memory allocation (min/avg/max) = 18.22 | 18.22 | 18.22 Mbytes
Step Temp Press TotEng PotEng Enthalpy Volume 
   45831    2017.9596   -82.229209   -17934.253   -23060.054   -17965.297    604865.39 
   46003    1994.4551   -313.74507    -18020.13   -23086.227   -18138.436    604147.69 
Loop time of 18.21 on 1 procs for 172 steps with 19652 atoms

Performance: 0.816 ns/day, 29.409 hours/ns, 9.445 timesteps/s
99.9% CPU use with 1 MPI tasks x no OpenMP threads

MPI task timing breakdown:
Section |  min time  |  avg time  |  max time  |%varavg| %total
---------------------------------------------------------------
Pair    | 9.5798     | 9.5798     | 9.5798     |   0.0 | 52.61
Neigh   | 8.0328     | 8.0328     | 8.0328     |   0.0 | 44.11
Comm    | 0.22327    | 0.22327    | 0.22327    |   0.0 |  1.23
Output  | 0.00018787 | 0.00018787 | 0.00018787 |   0.0 |  0.00
Modify  | 0.30264    | 0.30264    | 0.30264    |   0.0 |  1.66
Other   |            | 0.0712     |            |       |  0.39

Nlocal:    19652 ave 19652 max 19652 min
Histogram: 1 0 0 0 0 0 0 0 0 0
Nghost:    14414 ave 14414 max 14414 min
Histogram: 1 0 0 0 0 0 0 0 0 0
Neighs:    811313 ave 811313 max 811313 min
Histogram: 1 0 0 0 0 0 0 0 0 0

Total # of neighbors = 811313
Ave neighs/atom = 41.284
Neighbor list builds = 172
Dangerous builds not checked
Setting up Verlet run ...
  Unit style    : metal
  Current step  : 46003
  Time step     : 0.001
Per MPI rank memory allocation (min/avg/max) = 18.22 | 18.22 | 18.22 Mbytes
Step Temp Press TotEng PotEng Enthalpy Volume 
   46003    1994.4551   -313.74507    -18020.13   -23086.227   -18138.436    604147.69 
   46023    2001.7947   -321.92697   -18020.016   -23104.757   -18141.406    604133.97 
   46498    1966.2226    191.84651   -18258.532   -23252.916   -18186.826    598837.09 
Loop time of 53.0295 on 1 procs for 495 steps with 19652 atoms

Performance: 0.806 ns/day, 29.758 hours/ns, 9.334 timesteps/s
99.9% CPU use with 1 MPI tasks x no OpenMP threads

MPI task timing breakdown:
Section |  min time  |  avg time  |  max time  |%varavg| %total
---------------------------------------------------------------
Pair    | 27.689     | 27.689     | 27.689     |   0.0 | 52.22
Neigh   | 23.593     | 23.593     | 23.593     |   0.0 | 44.49
Comm    | 0.63876    | 0.63876    | 0.63876    |   0.0 |  1.20
Output  | 0.049132   | 0.049132   | 0.049132   |   0.0 |  0.09
Modify  | 0.86626    | 0.86626    | 0.86626    |   0.0 |  1.63
Other   |            | 0.1927     |            |       |  0.36

Nlocal:    19652 ave 19652 max 19652 min
Histogram: 1 0 0 0 0 0 0 0 0 0
Nghost:    14426 ave 14426 max 14426 min
Histogram: 1 0 0 0 0 0 0 0 0 0
Neighs:    819461 ave 819461 max 819461 min
Histogram: 1 0 0 0 0 0 0 0 0 0

Total # of neighbors = 819461
Ave neighs/atom = 41.6986
Neighbor list builds = 495
Dangerous builds not checked
Setting up Verlet run ...
  Unit style    : metal
  Current step  : 46498
  Time step     : 0.001
Per MPI rank memory allocation (min/avg/max) = 18.22 | 18.22 | 18.22 Mbytes
Step Temp Press TotEng PotEng Enthalpy Volume 
   46498    1966.2226    191.84651   -18258.532   -23252.916   -18186.826    598837.09 
   46670    1939.1905   -121.70622   -18337.766   -23263.487   -18383.263    598934.02 
Loop time of 18.306 on 1 procs for 172 steps with 19652 atoms

Performance: 0.812 ns/day, 29.564 hours/ns, 9.396 timesteps/s
99.9% CPU use with 1 MPI tasks x no OpenMP threads

MPI task timing breakdown:
Section |  min time  |  avg time  |  max time  |%varavg| %total
---------------------------------------------------------------
Pair    | 9.6699     | 9.6699     | 9.6699     |   0.0 | 52.82
Neigh   | 8.0481     | 8.0481     | 8.0481     |   0.0 | 43.96
Comm    | 0.22014    | 0.22014    | 0.22014    |   0.0 |  1.20
Output  | 0.00021696 | 0.00021696 | 0.00021696 |   0.0 |  0.00
Modify  | 0.2982     | 0.2982     | 0.2982     |   0.0 |  1.63
Other   |            | 0.0694     |            |       |  0.38

Nlocal:    19652 ave 19652 max 19652 min
Histogram: 1 0 0 0 0 0 0 0 0 0
Nghost:    14430 ave 14430 max 14430 min
Histogram: 1 0 0 0 0 0 0 0 0 0
Neighs:    818563 ave 818563 max 818563 min
Histogram: 1 0 0 0 0 0 0 0 0 0

Total # of neighbors = 818563
Ave neighs/atom = 41.6529
Neighbor list builds = 172
Dangerous builds not checked
Setting up Verlet run ...
  Unit style    : metal
  Current step  : 46670
  Time step     : 0.001
Per MPI rank memory allocation (min/avg/max) = 18.22 | 18.22 | 18.22 Mbytes
Step Temp Press TotEng PotEng Enthalpy Volume 
   46670    1939.1905   -121.70622   -18337.766   -23263.487   -18383.263    598934.02 
   46690    1945.2119   -276.43172   -18336.918   -23277.934   -18440.254    598926.56 
   47165    1915.7885   -71.615134   -18537.155   -23403.432    -18563.75    594990.51 
Loop time of 55.2305 on 1 procs for 495 steps with 19652 atoms

Performance: 0.774 ns/day, 30.994 hours/ns, 8.962 timesteps/s
99.9% CPU use with 1 MPI tasks x no OpenMP threads

MPI task timing breakdown:
Section |  min time  |  avg time  |  max time  |%varavg| %total
---------------------------------------------------------------
Pair    | 29.609     | 29.609     | 29.609     |   0.0 | 53.61
Neigh   | 23.698     | 23.698     | 23.698     |   0.0 | 42.91
Comm    | 0.68878    | 0.68878    | 0.68878    |   0.0 |  1.25
Output  | 0.059878   | 0.059878   | 0.059878   |   0.0 |  0.11
Modify  | 0.94599    | 0.94599    | 0.94599    |   0.0 |  1.71
Other   |            | 0.2293     |            |       |  0.42

Nlocal:    19652 ave 19652 max 19652 min
Histogram: 1 0 0 0 0 0 0 0 0 0
Nghost:    14468 ave 14468 max 14468 min
Histogram: 1 0 0 0 0 0 0 0 0 0
Neighs:    824213 ave 824213 max 824213 min
Histogram: 1 0 0 0 0 0 0 0 0 0

Total # of neighbors = 824213
Ave neighs/atom = 41.9404
Neighbor list builds = 495
Dangerous builds not checked
Setting up Verlet run ...
  Unit style    : metal
  Current step  : 47165
  Time step     : 0.001
Per MPI rank memory allocation (min/avg/max) = 18.22 | 18.22 | 18.22 Mbytes
Step Temp Press TotEng PotEng Enthalpy Volume 
   47165    1915.7885   -71.615134   -18537.155   -23403.432    -18563.75    594990.51 
   47337      1898.71   -320.46351   -18619.189   -23442.086   -18738.135    594675.94 
Loop time of 18.8075 on 1 procs for 172 steps with 19652 atoms

Performance: 0.790 ns/day, 30.374 hours/ns, 9.145 timesteps/s
99.9% CPU use with 1 MPI tasks x no OpenMP threads

MPI task timing breakdown:
Section |  min time  |  avg time  |  max time  |%varavg| %total
---------------------------------------------------------------
Pair    | 10.066     | 10.066     | 10.066     |   0.0 | 53.52
Neigh   | 8.1077     | 8.1077     | 8.1077     |   0.0 | 43.11
Comm    | 0.23141    | 0.23141    | 0.23141    |   0.0 |  1.23
Output  | 0.00019598 | 0.00019598 | 0.00019598 |   0.0 |  0.00
Modify  | 0.32417    | 0.32417    | 0.32417    |   0.0 |  1.72
Other   |            | 0.07808    |            |       |  0.42

Nlocal:    19652 ave 19652 max 19652 min
Histogram: 1 0 0 0 0 0 0 0 0 0
Nghost:    14447 ave 14447 max 14447 min
Histogram: 1 0 0 0 0 0 0 0 0 0
Neighs:    824971 ave 824971 max 824971 min
Histogram: 1 0 0 0 0 0 0 0 0 0

Total # of neighbors = 824971
Ave neighs/atom = 41.979
Neighbor list builds = 172
Dangerous builds not checked
Setting up Verlet run ...
  Unit style    : metal
  Current step  : 47337
  Time step     : 0.001
Per MPI rank memory allocation (min/avg/max) = 18.22 | 18.22 | 18.22 Mbytes
Step Temp Press TotEng PotEng Enthalpy Volume 
   47337      1898.71   -320.46351   -18619.189   -23442.086   -18738.135    594675.94 
   47357    1890.7849   -242.49848   -18618.961   -23421.727   -18708.967    594663.02 
   47832    1858.0984   -57.541094   -18824.784   -23544.524   -18845.985    590304.36 
Loop time of 55.1054 on 1 procs for 495 steps with 19652 atoms

Performance: 0.776 ns/day, 30.923 hours/ns, 8.983 timesteps/s
99.9% CPU use with 1 MPI tasks x no OpenMP threads

MPI task timing breakdown:
Section |  min time  |  avg time  |  max time  |%varavg| %total
---------------------------------------------------------------
Pair    | 29.366     | 29.366     | 29.366     |   0.0 | 53.29
Neigh   | 23.87      | 23.87      | 23.87      |   0.0 | 43.32
Comm    | 0.675      | 0.675      | 0.675      |   0.0 |  1.22
Output  | 0.049639   | 0.049639   | 0.049639   |   0.0 |  0.09
Modify  | 0.92525    | 0.92525    | 0.92525    |   0.0 |  1.68
Other   |            | 0.2198     |            |       |  0.40

Nlocal:    19652 ave 19652 max 19652 min
Histogram: 1 0 0 0 0 0 0 0 0 0
Nghost:    14533 ave 14533 max 14533 min
Histogram: 1 0 0 0 0 0 0 0 0 0
Neighs:    830389 ave 830389 max 830389 min
Histogram: 1 0 0 0 0 0 0 0 0 0

Total # of neighbors = 830389
Ave neighs/atom = 42.2547
Neighbor list builds = 495
Dangerous builds not checked
Setting up Verlet run ...
  Unit style    : metal
  Current step  : 47832
  Time step     : 0.001
Per MPI rank memory allocation (min/avg/max) = 18.22 | 18.22 | 18.22 Mbytes
Step Temp Press TotEng PotEng Enthalpy Volume 
   47832    1858.0984   -57.541094   -18824.784   -23544.524   -18845.985    590304.36 
   48004     1837.311     23.08204    -18901.47   -23568.408   -18892.974    589716.48 
Loop time of 19.1692 on 1 procs for 172 steps with 19652 atoms

Performance: 0.775 ns/day, 30.958 hours/ns, 8.973 timesteps/s
99.9% CPU use with 1 MPI tasks x no OpenMP threads

MPI task timing breakdown:
Section |  min time  |  avg time  |  max time  |%varavg| %total
---------------------------------------------------------------
Pair    | 10.355     | 10.355     | 10.355     |   0.0 | 54.02
Neigh   | 8.1672     | 8.1672     | 8.1672     |   0.0 | 42.61
Comm    | 0.23941    | 0.23941    | 0.23941    |   0.0 |  1.25
Output  | 0.0002141  | 0.0002141  | 0.0002141  |   0.0 |  0.00
Modify  | 0.32713    | 0.32713    | 0.32713    |   0.0 |  1.71
Other   |            | 0.08057    |            |       |  0.42

Nlocal:    19652 ave 19652 max 19652 min
Histogram: 1 0 0 0 0 0 0 0 0 0
Nghost:    14598 ave 14598 max 14598 min
Histogram: 1 0 0 0 0 0 0 0 0 0
Neighs:    831537 ave 831537 max 831537 min
Histogram: 1 0 0 0 0 0 0 0 0 0

Total # of neighbors = 831537
Ave neighs/atom = 42.3131
Neighbor list builds = 172
Dangerous builds not checked
Setting up Verlet run ...
  Unit style    : metal
  Current step  : 48004
  Time step     : 0.001
Per MPI rank memory allocation (min/avg/max) = 18.22 | 18.22 | 18.22 Mbytes
Step Temp Press TotEng PotEng Enthalpy Volume 
   48004     1837.311     23.08204    -18901.47   -23568.408   -18892.974    589716.48 
   48024    1855.8243   -230.84934   -18900.731   -23614.693     -18985.7    589714.71 
   48499     1820.408    254.71669   -19133.231   -23757.233   -19040.339    584291.89 
Loop time of 54.2008 on 1 procs for 495 steps with 19652 atoms

Performance: 0.789 ns/day, 30.416 hours/ns, 9.133 timesteps/s
99.7% CPU use with 1 MPI tasks x no OpenMP threads

MPI task timing breakdown:
Section |  min time  |  avg time  |  max time  |%varavg| %total
---------------------------------------------------------------
Pair    | 28.715     | 28.715     | 28.715     |   0.0 | 52.98
Neigh   | 23.71      | 23.71      | 23.71      |   0.0 | 43.74
Comm    | 0.65565    | 0.65565    | 0.65565    |   0.0 |  1.21
Output  | 0.050319   | 0.050319   | 0.050319   |   0.0 |  0.09
Modify  | 0.86917    | 0.86917    | 0.86917    |   0.0 |  1.60
Other   |            | 0.2007     |            |       |  0.37

Nlocal:    19652 ave 19652 max 19652 min
Histogram: 1 0 0 0 0 0 0 0 0 0
Nghost:    14647 ave 14647 max 14647 min
Histogram: 1 0 0 0 0 0 0 0 0 0
Neighs:    839369 ave 839369 max 839369 min
Histogram: 1 0 0 0 0 0 0 0 0 0

Total # of neighbors = 839369
Ave neighs/atom = 42.7116
Neighbor list builds = 495
Dangerous builds not checked
Setting up Verlet run ...
  Unit style    : metal
  Current step  : 48499
  Time step     : 0.001
Per MPI rank memory allocation (min/avg/max) = 18.22 | 18.22 | 18.22 Mbytes
Step Temp Press TotEng PotEng Enthalpy Volume 
   48499     1820.408    254.71669   -19133.231   -23757.233   -19040.339    584291.89 
   48671    1794.0301    -248.3474   -19211.588   -23768.588   -19302.197    584552.45 
Loop time of 18.5797 on 1 procs for 172 steps with 19652 atoms

Performance: 0.800 ns/day, 30.006 hours/ns, 9.257 timesteps/s
99.6% CPU use with 1 MPI tasks x no OpenMP threads

MPI task timing breakdown:
Section |  min time  |  avg time  |  max time  |%varavg| %total
---------------------------------------------------------------
Pair    | 9.8984     | 9.8984     | 9.8984     |   0.0 | 53.28
Neigh   | 8.086      | 8.086      | 8.086      |   0.0 | 43.52
Comm    | 0.22339    | 0.22339    | 0.22339    |   0.0 |  1.20
Output  | 0.00019097 | 0.00019097 | 0.00019097 |   0.0 |  0.00
Modify  | 0.30236    | 0.30236    | 0.30236    |   0.0 |  1.63
Other   |            | 0.06941    |            |       |  0.37

Nlocal:    19652 ave 19652 max 19652 min
Histogram: 1 0 0 0 0 0 0 0 0 0
Nghost:    14611 ave 14611 max 14611 min
Histogram: 1 0 0 0 0 0 0 0 0 0
Neighs:    839460 ave 839460 max 839460 min
Histogram: 1 0 0 0 0 0 0 0 0 0

Total # of neighbors = 839460
Ave neighs/atom = 42.7163
Neighbor list builds = 172
Dangerous builds not checked
Setting up Verlet run ...
  Unit style    : metal
  Current step  : 48671
  Time step     : 0.001
Per MPI rank memory allocation (min/avg/max) = 18.22 | 18.22 | 18.22 Mbytes
Step Temp Press TotEng PotEng Enthalpy Volume 
   48671    1794.0301    -248.3474   -19211.588   -23768.588   -19302.197    584552.45 
   48691    1806.8413    -278.7764   -19211.323   -23800.865   -19313.033    584542.06 
   49166    1768.2554     38.85875   -19431.253   -23922.783   -19417.183    580122.03 
Loop time of 53.3844 on 1 procs for 495 steps with 19652 atoms

Performance: 0.801 ns/day, 29.958 hours/ns, 9.272 timesteps/s
99.5% CPU use with 1 MPI tasks x no OpenMP threads

MPI task timing breakdown:
Section |  min time  |  avg time  |  max time  |%varavg| %total
---------------------------------------------------------------
Pair    | 28.287     | 28.287     | 28.287     |   0.0 | 52.99
Neigh   | 23.344     | 23.344     | 23.344     |   0.0 | 43.73
Comm    | 0.63719    | 0.63719    | 0.63719    |   0.0 |  1.19
Output  | 0.049688   | 0.049688   | 0.049688   |   0.0 |  0.09
Modify  | 0.87504    | 0.87504    | 0.87504    |   0.0 |  1.64
Other   |            | 0.1923     |            |       |  0.36

Nlocal:    19652 ave 19652 max 19652 min
Histogram: 1 0 0 0 0 0 0 0 0 0
Nghost:    14622 ave 14622 max 14622 min
Histogram: 1 0 0 0 0 0 0 0 0 0
Neighs:    845607 ave 845607 max 845607 min
Histogram: 1 0 0 0 0 0 0 0 0 0

Total # of neighbors = 845607
Ave neighs/atom = 43.0291
Neighbor list builds = 495
Dangerous builds not checked
Setting up Verlet run ...
  Unit style    : metal
  Current step  : 49166
  Time step     : 0.001
Per MPI rank memory allocation (min/avg/max) = 18.22 | 18.22 | 18.22 Mbytes
Step Temp Press TotEng PotEng Enthalpy Volume 
   49166    1768.2554     38.85875   -19431.253   -23922.783   -19417.183    580122.03 
   49338    1746.6763   -64.657788   -19501.544   -23938.261   -19524.957    580156.38 
Loop time of 18.4367 on 1 procs for 172 steps with 19652 atoms

Performance: 0.806 ns/day, 29.775 hours/ns, 9.329 timesteps/s
99.6% CPU use with 1 MPI tasks x no OpenMP threads

MPI task timing breakdown:
Section |  min time  |  avg time  |  max time  |%varavg| %total
---------------------------------------------------------------
Pair    | 9.8164     | 9.8164     | 9.8164     |   0.0 | 53.24
Neigh   | 8.0397     | 8.0397     | 8.0397     |   0.0 | 43.61
Comm    | 0.2178     | 0.2178     | 0.2178     |   0.0 |  1.18
Output  | 0.00018501 | 0.00018501 | 0.00018501 |   0.0 |  0.00
Modify  | 0.2958     | 0.2958     | 0.2958     |   0.0 |  1.60
Other   |            | 0.06687    |            |       |  0.36

Nlocal:    19652 ave 19652 max 19652 min
Histogram: 1 0 0 0 0 0 0 0 0 0
Nghost:    14619 ave 14619 max 14619 min
Histogram: 1 0 0 0 0 0 0 0 0 0
Neighs:    845467 ave 845467 max 845467 min
Histogram: 1 0 0 0 0 0 0 0 0 0

Total # of neighbors = 845467
Ave neighs/atom = 43.0219
Neighbor list builds = 172
Dangerous builds not checked
Setting up Verlet run ...
  Unit style    : metal
  Current step  : 49338
  Time step     : 0.001
Per MPI rank memory allocation (min/avg/max) = 18.22 | 18.22 | 18.22 Mbytes
Step Temp Press TotEng PotEng Enthalpy Volume 
   49338    1746.6763   -64.657788   -19501.544   -23938.261   -19524.957    580156.38 
   49358    1752.9454   -121.54688   -19501.551   -23954.192   -19545.564    580152.06 
   49833    1705.2145    339.26767   -19725.279   -24056.679   -19603.306    576012.66 
Loop time of 54.4122 on 1 procs for 495 steps with 19652 atoms

Performance: 0.786 ns/day, 30.534 hours/ns, 9.097 timesteps/s
99.7% CPU use with 1 MPI tasks x no OpenMP threads

MPI task timing breakdown:
Section |  min time  |  avg time  |  max time  |%varavg| %total
---------------------------------------------------------------
Pair    | 28.974     | 28.974     | 28.974     |   0.0 | 53.25
Neigh   | 23.681     | 23.681     | 23.681     |   0.0 | 43.52
Comm    | 0.64932    | 0.64932    | 0.64932    |   0.0 |  1.19
Output  | 0.050494   | 0.050494   | 0.050494   |   0.0 |  0.09
Modify  | 0.85917    | 0.85917    | 0.85917    |   0.0 |  1.58
Other   |            | 0.1981     |            |       |  0.36

Nlocal:    19652 ave 19652 max 19652 min
Histogram: 1 0 0 0 0 0 0 0 0 0
Nghost:    14614 ave 14614 max 14614 min
Histogram: 1 0 0 0 0 0 0 0 0 0
Neighs:    851711 ave 851711 max 851711 min
Histogram: 1 0 0 0 0 0 0 0 0 0

Total # of neighbors = 851711
Ave neighs/atom = 43.3397
Neighbor list builds = 495
Dangerous builds not checked
Setting up Verlet run ...
  Unit style    : metal
  Current step  : 49833
  Time step     : 0.001
Per MPI rank memory allocation (min/avg/max) = 18.22 | 18.22 | 18.22 Mbytes
Step Temp Press TotEng PotEng Enthalpy Volume 
   49833    1705.2145    339.26767   -19725.279   -24056.679   -19603.306    576012.66 
   50005    1698.0833   -328.17971   -19790.561   -24103.847   -19908.642    576473.04 
Loop time of 18.9095 on 1 procs for 172 steps with 19652 atoms

Performance: 0.786 ns/day, 30.539 hours/ns, 9.096 timesteps/s
99.9% CPU use with 1 MPI tasks x no OpenMP threads

MPI task timing breakdown:
Section |  min time  |  avg time  |  max time  |%varavg| %total
---------------------------------------------------------------
Pair    | 10.203     | 10.203     | 10.203     |   0.0 | 53.96
Neigh   | 8.0935     | 8.0935     | 8.0935     |   0.0 | 42.80
Comm    | 0.23132    | 0.23132    | 0.23132    |   0.0 |  1.22
Output  | 0.00021696 | 0.00021696 | 0.00021696 |   0.0 |  0.00
Modify  | 0.30881    | 0.30881    | 0.30881    |   0.0 |  1.63
Other   |            | 0.07227    |            |       |  0.38

Nlocal:    19652 ave 19652 max 19652 min
Histogram: 1 0 0 0 0 0 0 0 0 0
Nghost:    14649 ave 14649 max 14649 min
Histogram: 1 0 0 0 0 0 0 0 0 0
Neighs:    851143 ave 851143 max 851143 min
Histogram: 1 0 0 0 0 0 0 0 0 0

Total # of neighbors = 851143
Ave neighs/atom = 43.3108
Neighbor list builds = 172
Dangerous builds not checked
Setting up Verlet run ...
  Unit style    : metal
  Current step  : 50005
  Time step     : 0.001
Per MPI rank memory allocation (min/avg/max) = 18.22 | 18.22 | 18.22 Mbytes
Step Temp Press TotEng PotEng Enthalpy Volume 
   50005    1698.0833   -328.17971   -19790.561   -24103.847   -19908.642    576473.04 
   50025    1690.9041   -212.73676   -19790.476   -24085.526   -19867.018    576458.97 
   50500    1669.3757     313.6794   -20001.469   -24241.835   -19889.587    571460.79 
Loop time of 58.372 on 1 procs for 495 steps with 19652 atoms

Performance: 0.733 ns/day, 32.756 hours/ns, 8.480 timesteps/s
99.9% CPU use with 1 MPI tasks x no OpenMP threads

MPI task timing breakdown:
Section |  min time  |  avg time  |  max time  |%varavg| %total
---------------------------------------------------------------
Pair    | 31.97      | 31.97      | 31.97      |   0.0 | 54.77
Neigh   | 24.405     | 24.405     | 24.405     |   0.0 | 41.81
Comm    | 0.72664    | 0.72664    | 0.72664    |   0.0 |  1.24
Output  | 0.05013    | 0.05013    | 0.05013    |   0.0 |  0.09
Modify  | 0.97859    | 0.97859    | 0.97859    |   0.0 |  1.68
Other   |            | 0.2419     |            |       |  0.41

Nlocal:    19652 ave 19652 max 19652 min
Histogram: 1 0 0 0 0 0 0 0 0 0
Nghost:    14723 ave 14723 max 14723 min
Histogram: 1 0 0 0 0 0 0 0 0 0
Neighs:    858799 ave 858799 max 858799 min
Histogram: 1 0 0 0 0 0 0 0 0 0

Total # of neighbors = 858799
Ave neighs/atom = 43.7003
Neighbor list builds = 495
Dangerous builds not checked
Setting up Verlet run ...
  Unit style    : metal
  Current step  : 50500
  Time step     : 0.001
Per MPI rank memory allocation (min/avg/max) = 18.22 | 18.22 | 18.22 Mbytes
Step Temp Press TotEng PotEng Enthalpy Volume 
   50500    1669.3757     313.6794   -20001.469   -24241.835   -19889.587    571460.79 
   50672    1648.4173   -252.00909   -20071.874   -24259.004   -20161.857    572077.76 
Loop time of 19.5469 on 1 procs for 172 steps with 19652 atoms

Performance: 0.760 ns/day, 31.568 hours/ns, 8.799 timesteps/s
99.9% CPU use with 1 MPI tasks x no OpenMP threads

MPI task timing breakdown:
Section |  min time  |  avg time  |  max time  |%varavg| %total
---------------------------------------------------------------
Pair    | 10.698     | 10.698     | 10.698     |   0.0 | 54.73
Neigh   | 8.1933     | 8.1933     | 8.1933     |   0.0 | 41.92
Comm    | 0.23664    | 0.23664    | 0.23664    |   0.0 |  1.21
Output  | 0.00020885 | 0.00020885 | 0.00020885 |   0.0 |  0.00
Modify  | 0.33812    | 0.33812    | 0.33812    |   0.0 |  1.73
Other   |            | 0.0803     |            |       |  0.41

Nlocal:    19652 ave 19652 max 19652 min
Histogram: 1 0 0 0 0 0 0 0 0 0
Nghost:    14684 ave 14684 max 14684 min
Histogram: 1 0 0 0 0 0 0 0 0 0
Neighs:    857434 ave 857434 max 857434 min
Histogram: 1 0 0 0 0 0 0 0 0 0

Total # of neighbors = 857434
Ave neighs/atom = 43.6309
Neighbor list builds = 172
Dangerous builds not checked
Setting up Verlet run ...
  Unit style    : metal
  Current step  : 50672
  Time step     : 0.001
Per MPI rank memory allocation (min/avg/max) = 18.22 | 18.22 | 18.22 Mbytes
Step Temp Press TotEng PotEng Enthalpy Volume 
   50672    1648.4173   -252.00909   -20071.874   -24259.004   -20161.857    572077.76 
   50692    1642.0915   -235.11368    -20071.43   -24242.492   -20155.379    572067.05 
   51167    1611.5252    185.64432   -20291.547   -24384.968   -20225.695    568321.07 
Loop time of 56.9599 on 1 procs for 495 steps with 19652 atoms

Performance: 0.751 ns/day, 31.964 hours/ns, 8.690 timesteps/s
99.9% CPU use with 1 MPI tasks x no OpenMP threads

MPI task timing breakdown:
Section |  min time  |  avg time  |  max time  |%varavg| %total
---------------------------------------------------------------
Pair    | 31.114     | 31.114     | 31.114     |   0.0 | 54.62
Neigh   | 23.891     | 23.891     | 23.891     |   0.0 | 41.94
Comm    | 0.70549    | 0.70549    | 0.70549    |   0.0 |  1.24
Output  | 0.051018   | 0.051018   | 0.051018   |   0.0 |  0.09
Modify  | 0.96115    | 0.96115    | 0.96115    |   0.0 |  1.69
Other   |            | 0.2365     |            |       |  0.42

Nlocal:    19652 ave 19652 max 19652 min
Histogram: 1 0 0 0 0 0 0 0 0 0
Nghost:    14709 ave 14709 max 14709 min
Histogram: 1 0 0 0 0 0 0 0 0 0
Neighs:    863343 ave 863343 max 863343 min
Histogram: 1 0 0 0 0 0 0 0 0 0

Total # of neighbors = 863343
Ave neighs/atom = 43.9316
Neighbor list builds = 495
Dangerous builds not checked
Setting up Verlet run ...
  Unit style    : metal
  Current step  : 51167
  Time step     : 0.001
Per MPI rank memory allocation (min/avg/max) = 18.22 | 18.22 | 18.22 Mbytes
Step Temp Press TotEng PotEng Enthalpy Volume 
   51167    1611.5252    185.64432   -20291.547   -24384.968   -20225.695    568321.07 
   51339     1586.202   -88.875185   -20354.812    -24383.91   -20386.355    568635.18 
Loop time of 18.8544 on 1 procs for 172 steps with 19652 atoms

Performance: 0.788 ns/day, 30.450 hours/ns, 9.123 timesteps/s
99.6% CPU use with 1 MPI tasks x no OpenMP threads

MPI task timing breakdown:
Section |  min time  |  avg time  |  max time  |%varavg| %total
---------------------------------------------------------------
Pair    | 10.154     | 10.154     | 10.154     |   0.0 | 53.85
Neigh   | 8.1049     | 8.1049     | 8.1049     |   0.0 | 42.99
Comm    | 0.22462    | 0.22462    | 0.22462    |   0.0 |  1.19
Output  | 0.00018597 | 0.00018597 | 0.00018597 |   0.0 |  0.00
Modify  | 0.30213    | 0.30213    | 0.30213    |   0.0 |  1.60
Other   |            | 0.06894    |            |       |  0.37

Nlocal:    19652 ave 19652 max 19652 min
Histogram: 1 0 0 0 0 0 0 0 0 0
Nghost:    14728 ave 14728 max 14728 min
Histogram: 1 0 0 0 0 0 0 0 0 0
Neighs:    862669 ave 862669 max 862669 min
Histogram: 1 0 0 0 0 0 0 0 0 0

Total # of neighbors = 862669
Ave neighs/atom = 43.8973
Neighbor list builds = 172
Dangerous builds not checked
Setting up Verlet run ...
  Unit style    : metal
  Current step  : 51339
  Time step     : 0.001
Per MPI rank memory allocation (min/avg/max) = 18.22 | 18.22 | 18.22 Mbytes
Step Temp Press TotEng PotEng Enthalpy Volume 
   51339     1586.202   -88.875185   -20354.812    -24383.91   -20386.355    568635.18 
   51359    1593.8498    -128.1401   -20353.639   -24402.163   -20399.118    568631.04 
   51834    1569.4107    254.19284   -20556.923   -24543.369   -20467.433    564053.99 
Loop time of 56.8106 on 1 procs for 495 steps with 19652 atoms

Performance: 0.753 ns/day, 31.880 hours/ns, 8.713 timesteps/s
99.9% CPU use with 1 MPI tasks x no OpenMP threads

MPI task timing breakdown:
Section |  min time  |  avg time  |  max time  |%varavg| %total
---------------------------------------------------------------
Pair    | 30.879     | 30.879     | 30.879     |   0.0 | 54.35
Neigh   | 24.047     | 24.047     | 24.047     |   0.0 | 42.33
Comm    | 0.68911    | 0.68911    | 0.68911    |   0.0 |  1.21
Output  | 0.050588   | 0.050588   | 0.050588   |   0.0 |  0.09
Modify  | 0.92171    | 0.92171    | 0.92171    |   0.0 |  1.62
Other   |            | 0.2232     |            |       |  0.39

Nlocal:    19652 ave 19652 max 19652 min
Histogram: 1 0 0 0 0 0 0 0 0 0
Nghost:    14783 ave 14783 max 14783 min
Histogram: 1 0 0 0 0 0 0 0 0 0
Neighs:    870151 ave 870151 max 870151 min
Histogram: 1 0 0 0 0 0 0 0 0 0

Total # of neighbors = 870151
Ave neighs/atom = 44.278
Neighbor list builds = 495
Dangerous builds not checked
Setting up Verlet run ...
  Unit style    : metal
  Current step  : 51834
  Time step     : 0.001
Per MPI rank memory allocation (min/avg/max) = 18.22 | 18.22 | 18.22 Mbytes
Step Temp Press TotEng PotEng Enthalpy Volume 
   51834    1569.4107    254.19284   -20556.923   -24543.369   -20467.433    564053.99 
   52006    1550.2807   -230.48345   -20632.374   -24570.228   -20713.578    564483.89 
Loop time of 18.7772 on 1 procs for 172 steps with 19652 atoms

Performance: 0.791 ns/day, 30.325 hours/ns, 9.160 timesteps/s
99.6% CPU use with 1 MPI tasks x no OpenMP threads

MPI task timing breakdown:
Section |  min time  |  avg time  |  max time  |%varavg| %total
---------------------------------------------------------------
Pair    | 10.121     | 10.121     | 10.121     |   0.0 | 53.90
Neigh   | 8.0692     | 8.0692     | 8.0692     |   0.0 | 42.97
Comm    | 0.2207     | 0.2207     | 0.2207     |   0.0 |  1.18
Output  | 0.00018597 | 0.00018597 | 0.00018597 |   0.0 |  0.00
Modify  | 0.29692    | 0.29692    | 0.29692    |   0.0 |  1.58
Other   |            | 0.06905    |            |       |  0.37

Nlocal:    19652 ave 19652 max 19652 min
Histogram: 1 0 0 0 0 0 0 0 0 0
Nghost:    14740 ave 14740 max 14740 min
Histogram: 1 0 0 0 0 0 0 0 0 0
Neighs:    869695 ave 869695 max 869695 min
Histogram: 1 0 0 0 0 0 0 0 0 0

Total # of neighbors = 869695
Ave neighs/atom = 44.2548
Neighbor list builds = 172
Dangerous builds not checked
Setting up Verlet run ...
  Unit style    : metal
  Current step  : 52006
  Time step     : 0.001
Per MPI rank memory allocation (min/avg/max) = 18.22 | 18.22 | 18.22 Mbytes
Step Temp Press TotEng PotEng Enthalpy Volume 
   52006    1550.2807   -230.48345   -20632.374   -24570.228   -20713.578    564483.89 
   52026    1553.0166    -264.6269   -20632.682   -24577.485   -20725.914    564472.72 
   52501    1509.7588    248.85465   -20845.664   -24680.589   -20758.589    560606.57 
Loop time of 57.1249 on 1 procs for 495 steps with 19652 atoms

Performance: 0.749 ns/day, 32.057 hours/ns, 8.665 timesteps/s
99.9% CPU use with 1 MPI tasks x no OpenMP threads

MPI task timing breakdown:
Section |  min time  |  avg time  |  max time  |%varavg| %total
---------------------------------------------------------------
Pair    | 31.181     | 31.181     | 31.181     |   0.0 | 54.58
Neigh   | 24.071     | 24.071     | 24.071     |   0.0 | 42.14
Comm    | 0.69077    | 0.69077    | 0.69077    |   0.0 |  1.21
Output  | 0.049276   | 0.049276   | 0.049276   |   0.0 |  0.09
Modify  | 0.91185    | 0.91185    | 0.91185    |   0.0 |  1.60
Other   |            | 0.2205     |            |       |  0.39

Nlocal:    19652 ave 19652 max 19652 min
Histogram: 1 0 0 0 0 0 0 0 0 0
Nghost:    14904 ave 14904 max 14904 min
Histogram: 1 0 0 0 0 0 0 0 0 0
Neighs:    875858 ave 875858 max 875858 min
Histogram: 1 0 0 0 0 0 0 0 0 0

Total # of neighbors = 875858
Ave neighs/atom = 44.5684
Neighbor list builds = 495
Dangerous builds not checked
Setting up Verlet run ...
  Unit style    : metal
  Current step  : 52501
  Time step     : 0.001
Per MPI rank memory allocation (min/avg/max) = 18.22 | 18.22 | 18.22 Mbytes
Step Temp Press TotEng PotEng Enthalpy Volume 
   52501    1509.7588    248.85465   -20845.664   -24680.589   -20758.589    560606.57 
   52673    1500.9534   -174.43792   -20913.282    -24725.84    -20974.34     560809.8 
Loop time of 19.9243 on 1 procs for 172 steps with 19652 atoms

Performance: 0.746 ns/day, 32.177 hours/ns, 8.633 timesteps/s
99.9% CPU use with 1 MPI tasks x no OpenMP threads

MPI task timing breakdown:
Section |  min time  |  avg time  |  max time  |%varavg| %total
---------------------------------------------------------------
Pair    | 11.017     | 11.017     | 11.017     |   0.0 | 55.30
Neigh   | 8.2497     | 8.2497     | 8.2497     |   0.0 | 41.41
Comm    | 0.24085    | 0.24085    | 0.24085    |   0.0 |  1.21
Output  | 0.00021195 | 0.00021195 | 0.00021195 |   0.0 |  0.00
Modify  | 0.33253    | 0.33253    | 0.33253    |   0.0 |  1.67
Other   |            | 0.08361    |            |       |  0.42

Nlocal:    19652 ave 19652 max 19652 min
Histogram: 1 0 0 0 0 0 0 0 0 0
Nghost:    14819 ave 14819 max 14819 min
Histogram: 1 0 0 0 0 0 0 0 0 0
Neighs:    875366 ave 875366 max 875366 min
Histogram: 1 0 0 0 0 0 0 0 0 0

Total # of neighbors = 875366
Ave neighs/atom = 44.5434
Neighbor list builds = 172
Dangerous builds not checked
Setting up Verlet run ...
  Unit style    : metal
  Current step  : 52673
  Time step     : 0.001
Per MPI rank memory allocation (min/avg/max) = 18.22 | 18.22 | 18.22 Mbytes
Step Temp Press TotEng PotEng Enthalpy Volume 
   52673    1500.9534   -174.43792   -20913.282    -24725.84    -20974.34     560809.8 
   52693    1496.7449   -165.38398   -20913.583   -24715.451   -20971.471    560800.62 
   53168     1464.886    294.42758   -21132.988   -24853.932   -21030.622    557043.46 
Loop time of 57.4872 on 1 procs for 495 steps with 19652 atoms

Performance: 0.744 ns/day, 32.260 hours/ns, 8.611 timesteps/s
99.9% CPU use with 1 MPI tasks x no OpenMP threads

MPI task timing breakdown:
Section |  min time  |  avg time  |  max time  |%varavg| %total
---------------------------------------------------------------
Pair    | 31.692     | 31.692     | 31.692     |   0.0 | 55.13
Neigh   | 23.855     | 23.855     | 23.855     |   0.0 | 41.50
Comm    | 0.69878    | 0.69878    | 0.69878    |   0.0 |  1.22
Output  | 0.050538   | 0.050538   | 0.050538   |   0.0 |  0.09
Modify  | 0.95609    | 0.95609    | 0.95609    |   0.0 |  1.66
Other   |            | 0.2346     |            |       |  0.41

Nlocal:    19652 ave 19652 max 19652 min
Histogram: 1 0 0 0 0 0 0 0 0 0
Nghost:    14826 ave 14826 max 14826 min
Histogram: 1 0 0 0 0 0 0 0 0 0
Neighs:    882065 ave 882065 max 882065 min
Histogram: 1 0 0 0 0 0 0 0 0 0

Total # of neighbors = 882065
Ave neighs/atom = 44.8842
Neighbor list builds = 495
Dangerous builds not checked
Setting up Verlet run ...
  Unit style    : metal
  Current step  : 53168
  Time step     : 0.001
Per MPI rank memory allocation (min/avg/max) = 18.22 | 18.22 | 18.22 Mbytes
Step Temp Press TotEng PotEng Enthalpy Volume 
   53168     1464.886    294.42758   -21132.988   -24853.932   -21030.622    557043.46 
   53340     1443.049    -33.71957   -21199.069   -24864.545   -21210.798    557302.41 
Loop time of 19.1386 on 1 procs for 172 steps with 19652 atoms

Performance: 0.776 ns/day, 30.909 hours/ns, 8.987 timesteps/s
99.7% CPU use with 1 MPI tasks x no OpenMP threads

MPI task timing breakdown:
Section |  min time  |  avg time  |  max time  |%varavg| %total
---------------------------------------------------------------
Pair    | 10.418     | 10.418     | 10.418     |   0.0 | 54.43
Neigh   | 8.1188     | 8.1188     | 8.1188     |   0.0 | 42.42
Comm    | 0.22568    | 0.22568    | 0.22568    |   0.0 |  1.18
Output  | 0.00018597 | 0.00018597 | 0.00018597 |   0.0 |  0.00
Modify  | 0.30478    | 0.30478    | 0.30478    |   0.0 |  1.59
Other   |            | 0.07155    |            |       |  0.37

Nlocal:    19652 ave 19652 max 19652 min
Histogram: 1 0 0 0 0 0 0 0 0 0
Nghost:    14923 ave 14923 max 14923 min
Histogram: 1 0 0 0 0 0 0 0 0 0
Neighs:    881194 ave 881194 max 881194 min
Histogram: 1 0 0 0 0 0 0 0 0 0

Total # of neighbors = 881194
Ave neighs/atom = 44.8399
Neighbor list builds = 172
Dangerous builds not checked
Setting up Verlet run ...
  Unit style    : metal
  Current step  : 53340
  Time step     : 0.001
Per MPI rank memory allocation (min/avg/max) = 18.22 | 18.22 | 18.22 Mbytes
Step Temp Press TotEng PotEng Enthalpy Volume 
   53340     1443.049    -33.71957   -21199.069   -24864.545   -21210.798    557302.41 
   53360    1443.1322   -83.441349   -21198.481   -24864.168   -21227.505    557299.89 
   53835    1415.8733    50.895577    -21420.25   -25016.697   -21402.674    553298.37 
Loop time of 55.3446 on 1 procs for 495 steps with 19652 atoms

Performance: 0.773 ns/day, 31.058 hours/ns, 8.944 timesteps/s
99.7% CPU use with 1 MPI tasks x no OpenMP threads

MPI task timing breakdown:
Section |  min time  |  avg time  |  max time  |%varavg| %total
---------------------------------------------------------------
Pair    | 29.899     | 29.899     | 29.899     |   0.0 | 54.02
Neigh   | 23.687     | 23.687     | 23.687     |   0.0 | 42.80
Comm    | 0.64757    | 0.64757    | 0.64757    |   0.0 |  1.17
Output  | 0.049668   | 0.049668   | 0.049668   |   0.0 |  0.09
Modify  | 0.86456    | 0.86456    | 0.86456    |   0.0 |  1.56
Other   |            | 0.1968     |            |       |  0.36

Nlocal:    19652 ave 19652 max 19652 min
Histogram: 1 0 0 0 0 0 0 0 0 0
Nghost:    14938 ave 14938 max 14938 min
Histogram: 1 0 0 0 0 0 0 0 0 0
Neighs:    887931 ave 887931 max 887931 min
Histogram: 1 0 0 0 0 0 0 0 0 0

Total # of neighbors = 887931
Ave neighs/atom = 45.1827
Neighbor list builds = 495
Dangerous builds not checked
Setting up Verlet run ...
  Unit style    : metal
  Current step  : 53835
  Time step     : 0.001
Per MPI rank memory allocation (min/avg/max) = 18.22 | 18.22 | 18.22 Mbytes
Step Temp Press TotEng PotEng Enthalpy Volume 
   53835    1415.8733    50.895577    -21420.25   -25016.697   -21402.674    553298.37 
   54007    1405.9954   -102.24032    -21486.56   -25057.917   -21521.861    553190.99 
Loop time of 18.8756 on 1 procs for 172 steps with 19652 atoms

Performance: 0.787 ns/day, 30.484 hours/ns, 9.112 timesteps/s
99.9% CPU use with 1 MPI tasks x no OpenMP threads

MPI task timing breakdown:
Section |  min time  |  avg time  |  max time  |%varavg| %total
---------------------------------------------------------------
Pair    | 10.255     | 10.255     | 10.255     |   0.0 | 54.33
Neigh   | 8.0397     | 8.0397     | 8.0397     |   0.0 | 42.59
Comm    | 0.22015    | 0.22015    | 0.22015    |   0.0 |  1.17
Output  | 0.00018501 | 0.00018501 | 0.00018501 |   0.0 |  0.00
Modify  | 0.29364    | 0.29364    | 0.29364    |   0.0 |  1.56
Other   |            | 0.06693    |            |       |  0.35

Nlocal:    19652 ave 19652 max 19652 min
Histogram: 1 0 0 0 0 0 0 0 0 0
Nghost:    14878 ave 14878 max 14878 min
Histogram: 1 0 0 0 0 0 0 0 0 0
Neighs:    887998 ave 887998 max 887998 min
Histogram: 1 0 0 0 0 0 0 0 0 0

Total # of neighbors = 887998
Ave neighs/atom = 45.1861
Neighbor list builds = 172
Dangerous builds not checked
Setting up Verlet run ...
  Unit style    : metal
  Current step  : 54007
  Time step     : 0.001
Per MPI rank memory allocation (min/avg/max) = 18.22 | 18.22 | 18.22 Mbytes
Step Temp Press TotEng PotEng Enthalpy Volume 
   54007    1405.9954   -102.24032    -21486.56   -25057.917   -21521.861    553190.99 
   54027    1402.3451    -100.2734   -21487.136   -25049.221   -21521.758    553185.99 
   54502    1380.8122   -67.512943   -21715.588   -25222.976   -21738.754    549756.27 
Loop time of 55.5309 on 1 procs for 495 steps with 19652 atoms

Performance: 0.770 ns/day, 31.162 hours/ns, 8.914 timesteps/s
99.8% CPU use with 1 MPI tasks x no OpenMP threads

MPI task timing breakdown:
Section |  min time  |  avg time  |  max time  |%varavg| %total
---------------------------------------------------------------
Pair    | 30.134     | 30.134     | 30.134     |   0.0 | 54.26
Neigh   | 23.635     | 23.635     | 23.635     |   0.0 | 42.56
Comm    | 0.64464    | 0.64464    | 0.64464    |   0.0 |  1.16
Output  | 0.049536   | 0.049536   | 0.049536   |   0.0 |  0.09
Modify  | 0.87333    | 0.87333    | 0.87333    |   0.0 |  1.57
Other   |            | 0.1943     |            |       |  0.35

Nlocal:    19652 ave 19652 max 19652 min
Histogram: 1 0 0 0 0 0 0 0 0 0
Nghost:    14965 ave 14965 max 14965 min
Histogram: 1 0 0 0 0 0 0 0 0 0
Neighs:    893670 ave 893670 max 893670 min
Histogram: 1 0 0 0 0 0 0 0 0 0

Total # of neighbors = 893670
Ave neighs/atom = 45.4748
Neighbor list builds = 495
Dangerous builds not checked
Setting up Verlet run ...
  Unit style    : metal
  Current step  : 54502
  Time step     : 0.001
Per MPI rank memory allocation (min/avg/max) = 18.22 | 18.22 | 18.22 Mbytes
Step Temp Press TotEng PotEng Enthalpy Volume 
   54502    1380.8122   -67.512943   -21715.588   -25222.976   -21738.754    549756.27 
   54674    1361.3289   -393.32204   -21789.363   -25247.262   -21924.247    549444.04 
Loop time of 19.0723 on 1 procs for 172 steps with 19652 atoms

Performance: 0.779 ns/day, 30.802 hours/ns, 9.018 timesteps/s
99.9% CPU use with 1 MPI tasks x no OpenMP threads

MPI task timing breakdown:
Section |  min time  |  avg time  |  max time  |%varavg| %total
---------------------------------------------------------------
Pair    | 10.394     | 10.394     | 10.394     |   0.0 | 54.50
Neigh   | 8.0826     | 8.0826     | 8.0826     |   0.0 | 42.38
Comm    | 0.22164    | 0.22164    | 0.22164    |   0.0 |  1.16
Output  | 0.00018811 | 0.00018811 | 0.00018811 |   0.0 |  0.00
Modify  | 0.30657    | 0.30657    | 0.30657    |   0.0 |  1.61
Other   |            | 0.06695    |            |       |  0.35

Nlocal:    19652 ave 19652 max 19652 min
Histogram: 1 0 0 0 0 0 0 0 0 0
Nghost:    14967 ave 14967 max 14967 min
Histogram: 1 0 0 0 0 0 0 0 0 0
Neighs:    894071 ave 894071 max 894071 min
Histogram: 1 0 0 0 0 0 0 0 0 0

Total # of neighbors = 894071
Ave neighs/atom = 45.4952
Neighbor list builds = 172
Dangerous builds not checked
Setting up Verlet run ...
  Unit style    : metal
  Current step  : 54674
  Time step     : 0.001
Per MPI rank memory allocation (min/avg/max) = 18.22 | 18.22 | 18.22 Mbytes
Step Temp Press TotEng PotEng Enthalpy Volume 
   54674    1361.3289   -393.32204   -21789.363   -25247.262   -21924.247    549444.04 
   54694    1359.4047   -440.12896   -21790.572   -25243.584   -21941.502       549423 
   55169    1317.3679    121.91398   -22014.805    -25361.04   -21973.268    545874.02 
Loop time of 55.2168 on 1 procs for 495 steps with 19652 atoms

Performance: 0.775 ns/day, 30.986 hours/ns, 8.965 timesteps/s
99.8% CPU use with 1 MPI tasks x no OpenMP threads

MPI task timing breakdown:
Section |  min time  |  avg time  |  max time  |%varavg| %total
---------------------------------------------------------------
Pair    | 30.123     | 30.123     | 30.123     |   0.0 | 54.55
Neigh   | 23.356     | 23.356     | 23.356     |   0.0 | 42.30
Comm    | 0.64101    | 0.64101    | 0.64101    |   0.0 |  1.16
Output  | 0.049857   | 0.049857   | 0.049857   |   0.0 |  0.09
Modify  | 0.85284    | 0.85284    | 0.85284    |   0.0 |  1.54
Other   |            | 0.1934     |            |       |  0.35

Nlocal:    19652 ave 19652 max 19652 min
Histogram: 1 0 0 0 0 0 0 0 0 0
Nghost:    15005 ave 15005 max 15005 min
Histogram: 1 0 0 0 0 0 0 0 0 0
Neighs:    899967 ave 899967 max 899967 min
Histogram: 1 0 0 0 0 0 0 0 0 0

Total # of neighbors = 899967
Ave neighs/atom = 45.7952
Neighbor list builds = 495
Dangerous builds not checked
Setting up Verlet run ...
  Unit style    : metal
  Current step  : 55169
  Time step     : 0.001
Per MPI rank memory allocation (min/avg/max) = 18.22 | 18.22 | 18.22 Mbytes
Step Temp Press TotEng PotEng Enthalpy Volume 
   55169    1317.3679    121.91398   -22014.805    -25361.04   -21973.268    545874.02 
   55341    1300.5892   -67.958653   -22077.479   -25381.094   -22100.636    545945.02 
Loop time of 19.3923 on 1 procs for 172 steps with 19652 atoms

Performance: 0.766 ns/day, 31.318 hours/ns, 8.869 timesteps/s
99.8% CPU use with 1 MPI tasks x no OpenMP threads

MPI task timing breakdown:
Section |  min time  |  avg time  |  max time  |%varavg| %total
---------------------------------------------------------------
Pair    | 10.651     | 10.651     | 10.651     |   0.0 | 54.92
Neigh   | 8.13       | 8.13       | 8.13       |   0.0 | 41.92
Comm    | 0.22788    | 0.22788    | 0.22788    |   0.0 |  1.18
Output  | 0.00020289 | 0.00020289 | 0.00020289 |   0.0 |  0.00
Modify  | 0.30833    | 0.30833    | 0.30833    |   0.0 |  1.59
Other   |            | 0.07466    |            |       |  0.39

Nlocal:    19652 ave 19652 max 19652 min
Histogram: 1 0 0 0 0 0 0 0 0 0
Nghost:    14976 ave 14976 max 14976 min
Histogram: 1 0 0 0 0 0 0 0 0 0
Neighs:    900279 ave 900279 max 900279 min
Histogram: 1 0 0 0 0 0 0 0 0 0

Total # of neighbors = 900279
Ave neighs/atom = 45.8111
Neighbor list builds = 172
Dangerous builds not checked
Setting up Verlet run ...
[...]
Modify  | 0.85809    | 0.85809    | 0.85809    |   0.0 |  1.44
Other   |            | 0.1945     |            |       |  0.33

Nlocal:    19652 ave 19652 max 19652 min
Histogram: 1 0 0 0 0 0 0 0 0 0
Nghost:    15695 ave 15695 max 15695 min
Histogram: 1 0 0 0 0 0 0 0 0 0
Neighs:    1.02875e+06 ave 1.02875e+06 max 1.02875e+06 min
Histogram: 1 0 0 0 0 0 0 0 0 0

Total # of neighbors = 1028751
Ave neighs/atom = 52.3484
Neighbor list builds = 495
Dangerous builds not checked
Setting up Verlet run ...
  Unit style    : metal
  Current step  : 67175
  Time step     : 0.001
Per MPI rank memory allocation (min/avg/max) = 18.22 | 18.22 | 18.22 Mbytes
Step Temp Press TotEng PotEng Enthalpy Volume 
   67175    424.74193    244.73101   -27488.692   -28567.576   -27414.392    486423.32 
   67347    417.20757   -131.71789   -27549.981   -28609.726   -27589.965    486351.77 
Loop time of 20.7223 on 1 procs for 172 steps with 19652 atoms

Performance: 0.717 ns/day, 33.466 hours/ns, 8.300 timesteps/s
99.9% CPU use with 1 MPI tasks x no OpenMP threads

MPI task timing breakdown:
Section |  min time  |  avg time  |  max time  |%varavg| %total
---------------------------------------------------------------
Pair    | 11.481     | 11.481     | 11.481     |   0.0 | 55.40
Neigh   | 8.6586     | 8.6586     | 8.6586     |   0.0 | 41.78
Comm    | 0.21668    | 0.21668    | 0.21668    |   0.0 |  1.05
Output  | 0.00018287 | 0.00018287 | 0.00018287 |   0.0 |  0.00
Modify  | 0.2982     | 0.2982     | 0.2982     |   0.0 |  1.44
Other   |            | 0.06761    |            |       |  0.33

Nlocal:    19652 ave 19652 max 19652 min
Histogram: 1 0 0 0 0 0 0 0 0 0
Nghost:    15689 ave 15689 max 15689 min
Histogram: 1 0 0 0 0 0 0 0 0 0
Neighs:    1.02912e+06 ave 1.02912e+06 max 1.02912e+06 min
Histogram: 1 0 0 0 0 0 0 0 0 0

Total # of neighbors = 1029120
Ave neighs/atom = 52.3672
Neighbor list builds = 172
Dangerous builds not checked
Setting up Verlet run ...
  Unit style    : metal
  Current step  : 67347
  Time step     : 0.001
Per MPI rank memory allocation (min/avg/max) = 18.22 | 18.22 | 18.22 Mbytes
Step Temp Press TotEng PotEng Enthalpy Volume 
   67347    417.20757   -131.71789   -27549.981   -28609.726   -27589.965    486351.77 
   67367    420.90814   -219.91122   -27552.089   -28621.234   -27618.842    486330.17 
   67842    375.28782    255.32366   -27794.412   -28747.677   -27717.355    483539.17 
Loop time of 59.9074 on 1 procs for 495 steps with 19652 atoms

Performance: 0.714 ns/day, 33.618 hours/ns, 8.263 timesteps/s
99.9% CPU use with 1 MPI tasks x no OpenMP threads

MPI task timing breakdown:
Section |  min time  |  avg time  |  max time  |%varavg| %total
---------------------------------------------------------------
Pair    | 33.215     | 33.215     | 33.215     |   0.0 | 55.44
Neigh   | 24.966     | 24.966     | 24.966     |   0.0 | 41.67
Comm    | 0.627      | 0.627      | 0.627      |   0.0 |  1.05
Output  | 0.049403   | 0.049403   | 0.049403   |   0.0 |  0.08
Modify  | 0.85569    | 0.85569    | 0.85569    |   0.0 |  1.43
Other   |            | 0.1947     |            |       |  0.33

Nlocal:    19652 ave 19652 max 19652 min
Histogram: 1 0 0 0 0 0 0 0 0 0
Nghost:    15748 ave 15748 max 15748 min
Histogram: 1 0 0 0 0 0 0 0 0 0
Neighs:    1.03654e+06 ave 1.03654e+06 max 1.03654e+06 min
Histogram: 1 0 0 0 0 0 0 0 0 0

Total # of neighbors = 1036545
Ave neighs/atom = 52.745
Neighbor list builds = 495
Dangerous builds not checked
Setting up Verlet run ...
  Unit style    : metal
  Current step  : 67842
  Time step     : 0.001
Per MPI rank memory allocation (min/avg/max) = 18.22 | 18.22 | 18.22 Mbytes
Step Temp Press TotEng PotEng Enthalpy Volume 
   67842    375.28782    255.32366   -27794.412   -28747.677   -27717.355    483539.17 
   68014    366.25694   -146.48825   -27854.291   -28784.617   -27898.492    483439.33 
Loop time of 21.4477 on 1 procs for 172 steps with 19652 atoms

Performance: 0.693 ns/day, 34.638 hours/ns, 8.020 timesteps/s
99.9% CPU use with 1 MPI tasks x no OpenMP threads

MPI task timing breakdown:
Section |  min time  |  avg time  |  max time  |%varavg| %total
---------------------------------------------------------------
Pair    | 12.075     | 12.075     | 12.075     |   0.0 | 56.30
Neigh   | 8.7523     | 8.7523     | 8.7523     |   0.0 | 40.81
Comm    | 0.22996    | 0.22996    | 0.22996    |   0.0 |  1.07
Output  | 0.00022101 | 0.00022101 | 0.00022101 |   0.0 |  0.00
Modify  | 0.31246    | 0.31246    | 0.31246    |   0.0 |  1.46
Other   |            | 0.07768    |            |       |  0.36

Nlocal:    19652 ave 19652 max 19652 min
Histogram: 1 0 0 0 0 0 0 0 0 0
Nghost:    15766 ave 15766 max 15766 min
Histogram: 1 0 0 0 0 0 0 0 0 0
Neighs:    1.03683e+06 ave 1.03683e+06 max 1.03683e+06 min
Histogram: 1 0 0 0 0 0 0 0 0 0

Total # of neighbors = 1036834
Ave neighs/atom = 52.7597
Neighbor list builds = 172
Dangerous builds not checked
Setting up Verlet run ...
  Unit style    : metal
  Current step  : 68014
  Time step     : 0.001
Per MPI rank memory allocation (min/avg/max) = 18.22 | 18.22 | 18.22 Mbytes
Step Temp Press TotEng PotEng Enthalpy Volume 
   68014    366.25694   -146.48825   -27854.291   -28784.617   -27898.492    483439.33 
   68034    366.25432   -139.12749   -27856.113   -28786.432   -27898.091    483417.66 
   68509     328.2892    86.150128   -28087.746    -28921.63   -28061.897    480726.73 
Loop time of 62.9908 on 1 procs for 495 steps with 19652 atoms

Performance: 0.679 ns/day, 35.348 hours/ns, 7.858 timesteps/s
99.9% CPU use with 1 MPI tasks x no OpenMP threads

MPI task timing breakdown:
Section |  min time  |  avg time  |  max time  |%varavg| %total
---------------------------------------------------------------
Pair    | 35.64      | 35.64      | 35.64      |   0.0 | 56.58
Neigh   | 25.467     | 25.467     | 25.467     |   0.0 | 40.43
Comm    | 0.67484    | 0.67484    | 0.67484    |   0.0 |  1.07
Output  | 0.050457   | 0.050457   | 0.050457   |   0.0 |  0.08
Modify  | 0.9224     | 0.9224     | 0.9224     |   0.0 |  1.46
Other   |            | 0.236      |            |       |  0.37

Nlocal:    19652 ave 19652 max 19652 min
Histogram: 1 0 0 0 0 0 0 0 0 0
Nghost:    15774 ave 15774 max 15774 min
Histogram: 1 0 0 0 0 0 0 0 0 0
Neighs:    1.04441e+06 ave 1.04441e+06 max 1.04441e+06 min
Histogram: 1 0 0 0 0 0 0 0 0 0

Total # of neighbors = 1044414
Ave neighs/atom = 53.1454
Neighbor list builds = 495
Dangerous builds not checked
Setting up Verlet run ...
  Unit style    : metal
  Current step  : 68509
  Time step     : 0.001
Per MPI rank memory allocation (min/avg/max) = 18.22 | 18.22 | 18.22 Mbytes
Step Temp Press TotEng PotEng Enthalpy Volume 
   68509     328.2892    86.150128   -28087.746    -28921.63   -28061.897    480726.73 
   68681    316.87204   -17.555226   -28148.314   -28953.198   -28153.577    480345.15 
Loop time of 21.8085 on 1 procs for 172 steps with 19652 atoms

Performance: 0.681 ns/day, 35.220 hours/ns, 7.887 timesteps/s
99.9% CPU use with 1 MPI tasks x no OpenMP threads

MPI task timing breakdown:
Section |  min time  |  avg time  |  max time  |%varavg| %total
---------------------------------------------------------------
Pair    | 12.372     | 12.372     | 12.372     |   0.0 | 56.73
Neigh   | 8.7996     | 8.7996     | 8.7996     |   0.0 | 40.35
Comm    | 0.23356    | 0.23356    | 0.23356    |   0.0 |  1.07
Output  | 0.00020599 | 0.00020599 | 0.00020599 |   0.0 |  0.00
Modify  | 0.32073    | 0.32073    | 0.32073    |   0.0 |  1.47
Other   |            | 0.08201    |            |       |  0.38

Nlocal:    19652 ave 19652 max 19652 min
Histogram: 1 0 0 0 0 0 0 0 0 0
Nghost:    15791 ave 15791 max 15791 min
Histogram: 1 0 0 0 0 0 0 0 0 0
Neighs:    1.04579e+06 ave 1.04579e+06 max 1.04579e+06 min
Histogram: 1 0 0 0 0 0 0 0 0 0

Total # of neighbors = 1045794
Ave neighs/atom = 53.2157
Neighbor list builds = 172
Dangerous builds not checked
Setting up Verlet run ...
  Unit style    : metal
  Current step  : 68681
  Time step     : 0.001
Per MPI rank memory allocation (min/avg/max) = 18.22 | 18.22 | 18.22 Mbytes
Step Temp Press TotEng PotEng Enthalpy Volume 
   68681    316.87204   -17.555226   -28148.314   -28953.198   -28153.577    480345.15 
   68701    316.66872    -10.49451   -28150.198   -28954.565   -28153.344    480342.85 
   69176    278.76796    211.66335   -28378.474    -29086.57   -28315.365    477697.23 
Loop time of 63.1587 on 1 procs for 495 steps with 19652 atoms

Performance: 0.677 ns/day, 35.443 hours/ns, 7.837 timesteps/s
99.8% CPU use with 1 MPI tasks x no OpenMP threads

MPI task timing breakdown:
Section |  min time  |  avg time  |  max time  |%varavg| %total
---------------------------------------------------------------
Pair    | 35.825     | 35.825     | 35.825     |   0.0 | 56.72
Neigh   | 25.444     | 25.444     | 25.444     |   0.0 | 40.29
Comm    | 0.67746    | 0.67746    | 0.67746    |   0.0 |  1.07
Output  | 0.050503   | 0.050503   | 0.050503   |   0.0 |  0.08
Modify  | 0.92658    | 0.92658    | 0.92658    |   0.0 |  1.47
Other   |            | 0.2356     |            |       |  0.37

Nlocal:    19652 ave 19652 max 19652 min
Histogram: 1 0 0 0 0 0 0 0 0 0
Nghost:    15813 ave 15813 max 15813 min
Histogram: 1 0 0 0 0 0 0 0 0 0
Neighs:    1.05238e+06 ave 1.05238e+06 max 1.05238e+06 min
Histogram: 1 0 0 0 0 0 0 0 0 0

Total # of neighbors = 1052383
Ave neighs/atom = 53.5509
Neighbor list builds = 495
Dangerous builds not checked
Setting up Verlet run ...
  Unit style    : metal
  Current step  : 69176
  Time step     : 0.001
Per MPI rank memory allocation (min/avg/max) = 18.22 | 18.22 | 18.22 Mbytes
Step Temp Press TotEng PotEng Enthalpy Volume 
   69176    278.76796    211.66335   -28378.474    -29086.57   -28315.365    477697.23 
   69348    267.93038   -72.798859   -28436.752    -29117.32   -28458.458    477713.23 
Loop time of 21.8543 on 1 procs for 172 steps with 19652 atoms

Performance: 0.680 ns/day, 35.294 hours/ns, 7.870 timesteps/s
99.9% CPU use with 1 MPI tasks x no OpenMP threads

MPI task timing breakdown:
Section |  min time  |  avg time  |  max time  |%varavg| %total
---------------------------------------------------------------
Pair    | 12.435     | 12.435     | 12.435     |   0.0 | 56.90
Neigh   | 8.7866     | 8.7866     | 8.7866     |   0.0 | 40.21
Comm    | 0.2328     | 0.2328     | 0.2328     |   0.0 |  1.07
Output  | 0.000211   | 0.000211   | 0.000211   |   0.0 |  0.00
Modify  | 0.3186     | 0.3186     | 0.3186     |   0.0 |  1.46
Other   |            | 0.08095    |            |       |  0.37

Nlocal:    19652 ave 19652 max 19652 min
Histogram: 1 0 0 0 0 0 0 0 0 0
Nghost:    15813 ave 15813 max 15813 min
Histogram: 1 0 0 0 0 0 0 0 0 0
Neighs:    1.05269e+06 ave 1.05269e+06 max 1.05269e+06 min
Histogram: 1 0 0 0 0 0 0 0 0 0

Total # of neighbors = 1052693
Ave neighs/atom = 53.5667
Neighbor list builds = 172
Dangerous builds not checked
Setting up Verlet run ...
  Unit style    : metal
  Current step  : 69348
  Time step     : 0.001
Per MPI rank memory allocation (min/avg/max) = 18.22 | 18.22 | 18.22 Mbytes
Step Temp Press TotEng PotEng Enthalpy Volume 
   69348    267.93038   -72.798859   -28436.752    -29117.32   -28458.458    477713.23 
   69368    269.17726   -133.12976    -28438.86   -29122.595   -28478.553    477693.66 
   69843    227.75143   -350.02056   -28659.063   -29237.573   -28763.071    476082.08 
Loop time of 63.1787 on 1 procs for 495 steps with 19652 atoms

Performance: 0.677 ns/day, 35.454 hours/ns, 7.835 timesteps/s
99.9% CPU use with 1 MPI tasks x no OpenMP threads

MPI task timing breakdown:
Section |  min time  |  avg time  |  max time  |%varavg| %total
---------------------------------------------------------------
Pair    | 35.946     | 35.946     | 35.946     |   0.0 | 56.90
Neigh   | 25.366     | 25.366     | 25.366     |   0.0 | 40.15
Comm    | 0.66969    | 0.66969    | 0.66969    |   0.0 |  1.06
Output  | 0.05012    | 0.05012    | 0.05012    |   0.0 |  0.08
Modify  | 0.91396    | 0.91396    | 0.91396    |   0.0 |  1.45
Other   |            | 0.2324     |            |       |  0.37

Nlocal:    19652 ave 19652 max 19652 min
Histogram: 1 0 0 0 0 0 0 0 0 0
Nghost:    15838 ave 15838 max 15838 min
Histogram: 1 0 0 0 0 0 0 0 0 0
Neighs:    1.05725e+06 ave 1.05725e+06 max 1.05725e+06 min
Histogram: 1 0 0 0 0 0 0 0 0 0

Total # of neighbors = 1057252
Ave neighs/atom = 53.7987
Neighbor list builds = 495
Dangerous builds not checked
Setting up Verlet run ...
  Unit style    : metal
  Current step  : 69843
  Time step     : 0.001
Per MPI rank memory allocation (min/avg/max) = 18.22 | 18.22 | 18.22 Mbytes
Step Temp Press TotEng PotEng Enthalpy Volume 
   69843    227.75143   -350.02056   -28659.063   -29237.573   -28763.071    476082.08 
   70015    220.74959   -42.796938   -28716.226    -29276.95   -28728.918    475142.83 
Loop time of 21.8943 on 1 procs for 172 steps with 19652 atoms

Performance: 0.679 ns/day, 35.359 hours/ns, 7.856 timesteps/s
99.9% CPU use with 1 MPI tasks x no OpenMP threads

MPI task timing breakdown:
Section |  min time  |  avg time  |  max time  |%varavg| %total
---------------------------------------------------------------
Pair    | 12.493     | 12.493     | 12.493     |   0.0 | 57.06
Neigh   | 8.7667     | 8.7667     | 8.7667     |   0.0 | 40.04
Comm    | 0.23384    | 0.23384    | 0.23384    |   0.0 |  1.07
Output  | 0.00020695 | 0.00020695 | 0.00020695 |   0.0 |  0.00
Modify  | 0.31818    | 0.31818    | 0.31818    |   0.0 |  1.45
Other   |            | 0.08217    |            |       |  0.38

Nlocal:    19652 ave 19652 max 19652 min
Histogram: 1 0 0 0 0 0 0 0 0 0
Nghost:    15897 ave 15897 max 15897 min
Histogram: 1 0 0 0 0 0 0 0 0 0
Neighs:    1.05987e+06 ave 1.05987e+06 max 1.05987e+06 min
Histogram: 1 0 0 0 0 0 0 0 0 0

Total # of neighbors = 1059867
Ave neighs/atom = 53.9318
Neighbor list builds = 172
Dangerous builds not checked
Setting up Verlet run ...
  Unit style    : metal
  Current step  : 70015
  Time step     : 0.001
Per MPI rank memory allocation (min/avg/max) = 18.22 | 18.22 | 18.22 Mbytes
Step Temp Press TotEng PotEng Enthalpy Volume 
   70015    220.74959   -42.796938   -28716.226    -29276.95   -28728.918    475142.83 
   70035     221.3405   -48.913091   -28718.644   -29280.869   -28733.149    475131.98 
   70510    180.84448    160.69417   -28933.095   -29392.456   -28885.663    472908.76 
Loop time of 61.9064 on 1 procs for 495 steps with 19652 atoms

Performance: 0.691 ns/day, 34.740 hours/ns, 7.996 timesteps/s
99.9% CPU use with 1 MPI tasks x no OpenMP threads

MPI task timing breakdown:
Section |  min time  |  avg time  |  max time  |%varavg| %total
---------------------------------------------------------------
Pair    | 34.953     | 34.953     | 34.953     |   0.0 | 56.46
Neigh   | 25.154     | 25.154     | 25.154     |   0.0 | 40.63
Comm    | 0.64974    | 0.64974    | 0.64974    |   0.0 |  1.05
Output  | 0.050482   | 0.050482   | 0.050482   |   0.0 |  0.08
Modify  | 0.88072    | 0.88072    | 0.88072    |   0.0 |  1.42
Other   |            | 0.2183     |            |       |  0.35

Nlocal:    19652 ave 19652 max 19652 min
Histogram: 1 0 0 0 0 0 0 0 0 0
Nghost:    15878 ave 15878 max 15878 min
Histogram: 1 0 0 0 0 0 0 0 0 0
Neighs:    1.06573e+06 ave 1.06573e+06 max 1.06573e+06 min
Histogram: 1 0 0 0 0 0 0 0 0 0

Total # of neighbors = 1065730
Ave neighs/atom = 54.2301
Neighbor list builds = 495
Dangerous builds not checked
Setting up Verlet run ...
  Unit style    : metal
  Current step  : 70510
  Time step     : 0.001
Per MPI rank memory allocation (min/avg/max) = 18.22 | 18.22 | 18.22 Mbytes
Step Temp Press TotEng PotEng Enthalpy Volume 
   70510    180.84448    160.69417   -28933.095   -29392.456   -28885.663    472908.76 
   70682    171.31061    103.59737   -28989.536   -29424.681   -28958.981    472549.33 
Loop time of 20.983 on 1 procs for 172 steps with 19652 atoms

Performance: 0.708 ns/day, 33.887 hours/ns, 8.197 timesteps/s
99.9% CPU use with 1 MPI tasks x no OpenMP threads

MPI task timing breakdown:
Section |  min time  |  avg time  |  max time  |%varavg| %total
---------------------------------------------------------------
Pair    | 11.777     | 11.777     | 11.777     |   0.0 | 56.12
Neigh   | 8.6221     | 8.6221     | 8.6221     |   0.0 | 41.09
Comm    | 0.21679    | 0.21679    | 0.21679    |   0.0 |  1.03
Output  | 0.00019002 | 0.00019002 | 0.00019002 |   0.0 |  0.00
Modify  | 0.29805    | 0.29805    | 0.29805    |   0.0 |  1.42
Other   |            | 0.0693     |            |       |  0.33

Nlocal:    19652 ave 19652 max 19652 min
Histogram: 1 0 0 0 0 0 0 0 0 0
Nghost:    15844 ave 15844 max 15844 min
Histogram: 1 0 0 0 0 0 0 0 0 0
Neighs:    1.06692e+06 ave 1.06692e+06 max 1.06692e+06 min
Histogram: 1 0 0 0 0 0 0 0 0 0

Total # of neighbors = 1066922
Ave neighs/atom = 54.2908
Neighbor list builds = 172
Dangerous builds not checked
Setting up Verlet run ...
  Unit style    : metal
  Current step  : 70682
  Time step     : 0.001
Per MPI rank memory allocation (min/avg/max) = 18.22 | 18.22 | 18.22 Mbytes
Step Temp Press TotEng PotEng Enthalpy Volume 
   70682    171.31061    103.59737   -28989.536   -29424.681   -28958.981    472549.33 
   70702     171.4363     47.30072   -28992.048   -29427.512   -28978.096    472577.69 
   71177    133.33018    49.988288   -29198.177   -29536.848   -29183.484     470933.1 
Loop time of 60.6694 on 1 procs for 495 steps with 19652 atoms

Performance: 0.705 ns/day, 34.046 hours/ns, 8.159 timesteps/s
99.9% CPU use with 1 MPI tasks x no OpenMP threads

MPI task timing breakdown:
Section |  min time  |  avg time  |  max time  |%varavg| %total
---------------------------------------------------------------
Pair    | 34.051     | 34.051     | 34.051     |   0.0 | 56.13
Neigh   | 24.892     | 24.892     | 24.892     |   0.0 | 41.03
Comm    | 0.62821    | 0.62821    | 0.62821    |   0.0 |  1.04
Output  | 0.049429   | 0.049429   | 0.049429   |   0.0 |  0.08
Modify  | 0.84759    | 0.84759    | 0.84759    |   0.0 |  1.40
Other   |            | 0.2011     |            |       |  0.33

Nlocal:    19652 ave 19652 max 19652 min
Histogram: 1 0 0 0 0 0 0 0 0 0
Nghost:    15928 ave 15928 max 15928 min
Histogram: 1 0 0 0 0 0 0 0 0 0
Neighs:    1.07175e+06 ave 1.07175e+06 max 1.07175e+06 min
Histogram: 1 0 0 0 0 0 0 0 0 0

Total # of neighbors = 1071748
Ave neighs/atom = 54.5363
Neighbor list builds = 495
Dangerous builds not checked
Setting up Verlet run ...
  Unit style    : metal
  Current step  : 71177
  Time step     : 0.001
Per MPI rank memory allocation (min/avg/max) = 18.22 | 18.22 | 18.22 Mbytes
Step Temp Press TotEng PotEng Enthalpy Volume 
   71177    133.33018    49.988288   -29198.177   -29536.848   -29183.484     470933.1 
   71349    122.84565   -22.607372   -29253.305   -29565.345   -29259.946     470636.6 
Loop time of 21.0558 on 1 procs for 172 steps with 19652 atoms

Performance: 0.706 ns/day, 34.005 hours/ns, 8.169 timesteps/s
99.9% CPU use with 1 MPI tasks x no OpenMP threads

MPI task timing breakdown:
Section |  min time  |  avg time  |  max time  |%varavg| %total
---------------------------------------------------------------
Pair    | 11.828     | 11.828     | 11.828     |   0.0 | 56.18
Neigh   | 8.6483     | 8.6483     | 8.6483     |   0.0 | 41.07
Comm    | 0.21753    | 0.21753    | 0.21753    |   0.0 |  1.03
Output  | 0.00018215 | 0.00018215 | 0.00018215 |   0.0 |  0.00
Modify  | 0.29215    | 0.29215    | 0.29215    |   0.0 |  1.39
Other   |            | 0.06926    |            |       |  0.33

Nlocal:    19652 ave 19652 max 19652 min
Histogram: 1 0 0 0 0 0 0 0 0 0
Nghost:    15944 ave 15944 max 15944 min
Histogram: 1 0 0 0 0 0 0 0 0 0
Neighs:    1.07247e+06 ave 1.07247e+06 max 1.07247e+06 min
Histogram: 1 0 0 0 0 0 0 0 0 0

Total # of neighbors = 1072472
Ave neighs/atom = 54.5732
Neighbor list builds = 172
Dangerous builds not checked
Total wall time: 2:12:39
